<event>
 4    1  0.2089815E-007  0.1015969E+04  0.7818608E-02  0.9360958E-01
          2   -1    0    0  501    0  0.00000000000E+00  0.00000000000E+00  0.28698732545E+04  0.28698732545E+04  0.25500000000E-02 0. -1.
         -2   -1    0    0    0  501 -0.00000000000E+00 -0.00000000000E+00 -0.45184534300E+03  0.45184534301E+03  0.25500000000E-02 0.  1.
    8880023    1    1    2    0    0 -0.54417395994E+03 -0.54977884278E+03  0.23129163471E+04  0.25262173916E+04  0.65864270000E+03 0. -1.
    8880022    1    1    2    0    0  0.54417395994E+03  0.54977884278E+03  0.10511156441E+03  0.79550120593E+03  0.15294330000E+03 0.  0.
<mgrwt>
<rscale>  0 0.95359568E+03</rscale>
<asrwt>0</asrwt>
<pdfrwt beam="1">  1        2 0.44151897E+00 0.10159686E+04</pdfrwt>
<pdfrwt beam="2">  1       -2 0.69514668E-01 0.10159686E+04</pdfrwt>
<totfact> 0.40228610E+00</totfact>
</mgrwt>
</event>
<event>
 4    1  0.2089815E-007  0.7072339E+03  0.7818608E-02  0.9968420E-01
          2   -1    0    0  501    0  0.00000000000E+00  0.00000000000E+00  0.14750283735E+04  0.14750283735E+04  0.25500000000E-02 0. -1.
         -2   -1    0    0    0  501 -0.00000000000E+00 -0.00000000000E+00 -0.45045709321E+03  0.45045709321E+03  0.25500000000E-02 0.  1.
    8880023    1    1    2    0    0  0.16726725843E+03 -0.19593671614E+03  0.13245382372E+04  0.15015263170E+04  0.65864270000E+03 0. -1.
    8880022    1    1    2    0    0 -0.16726725843E+03  0.19593671614E+03 -0.29996695686E+03  0.42395914980E+03  0.15294330000E+03 0.  0.
<mgrwt>
<rscale>  0 0.57056924E+03</rscale>
<asrwt>0</asrwt>
<pdfrwt beam="1">  1        2 0.22692744E+00 0.70723386E+03</pdfrwt>
<pdfrwt beam="2">  1       -2 0.69301091E-01 0.70723386E+03</pdfrwt>
<totfact> 0.25626304E+01</totfact>
</mgrwt>
</event>
<event>
 4    1  0.2089815E-007  0.1139321E+04  0.7818608E-02  0.9218490E-01
         -2   -1    0    0    0  501 -0.00000000000E+00  0.00000000000E+00  0.41886200347E+03  0.41886200348E+03  0.25500000000E-02 0.  1.
          2   -1    0    0  501    0  0.00000000000E+00 -0.00000000000E+00 -0.42942342871E+04  0.42942342871E+04  0.25500000000E-02 0. -1.
    8880023    1    1    2    0    0 -0.56977716463E+03  0.73457263011E+03 -0.35305555788E+04  0.37098350189E+04  0.65864270000E+03 0.  0.
    8880022    1    1    2    0    0  0.56977716463E+03 -0.73457263011E+03 -0.34481670480E+03  0.10032612716E+04  0.15294330000E+03 0.  0.
<mgrwt>
<rscale>  0 0.10864605E+04</rscale>
<asrwt>0</asrwt>
<pdfrwt beam="1">  1        2 0.66065140E+00 0.11393214E+04</pdfrwt>
<pdfrwt beam="2">  1       -2 0.64440311E-01 0.11393214E+04</pdfrwt>
<totfact> 0.44354343E-01</totfact>
</mgrwt>
</event>
<event>
 4    1  0.2089815E-007  0.1139807E+04  0.7818608E-02  0.9217979E-01
         -2   -1    0    0    0  501 -0.00000000000E+00  0.00000000000E+00  0.15847177989E+04  0.15847177989E+04  0.25500000000E-02 0.  1.
          2   -1    0    0  501    0  0.00000000000E+00 -0.00000000000E+00 -0.11050520894E+04  0.11050520894E+04  0.25500000000E-02 0. -1.
    8880023    1    1    2    0    0  0.58498261021E+03  0.72328721179E+03  0.10815580898E+04  0.15712820093E+04  0.65864270000E+03 0.  0.
    8880022    1    1    2    0    0 -0.58498261021E+03 -0.72328721179E+03 -0.60189238026E+03  0.11184878790E+04  0.15294330000E+03 0.  0.
<mgrwt>
<rscale>  0 0.10869768E+04</rscale>
<asrwt>0</asrwt>
<pdfrwt beam="1">  1        2 0.17000801E+00 0.11398067E+04</pdfrwt>
<pdfrwt beam="2">  1       -2 0.24380274E+00 0.11398067E+04</pdfrwt>
<totfact> 0.14865635E+00</totfact>
</mgrwt>
</event>
<event>
 4    1  0.2089815E-007  0.1153005E+04  0.7818608E-02  0.9204216E-01
         -2   -1    0    0    0  501 -0.00000000000E+00  0.00000000000E+00  0.63567379462E+03  0.63567379463E+03  0.25500000000E-02 0.  1.
          2   -1    0    0  501    0  0.00000000000E+00 -0.00000000000E+00 -0.27375254295E+04  0.27375254295E+04  0.25500000000E-02 0. -1.
    8880023    1    1    2    0    0  0.83022428846E+03  0.45424471167E+03 -0.21212492879E+04  0.24143569278E+04  0.65864270000E+03 0.  0.
    8880022    1    1    2    0    0 -0.83022428846E+03 -0.45424471167E+03  0.19397653027E+02  0.95884229630E+03  0.15294330000E+03 0.  0.
<mgrwt>
<rscale>  0 0.11010017E+04</rscale>
<asrwt>0</asrwt>
<pdfrwt beam="1">  1        2 0.42115775E+00 0.11530051E+04</pdfrwt>
<pdfrwt beam="2">  1       -2 0.97795970E-01 0.11530051E+04</pdfrwt>
<totfact> 0.21793679E+00</totfact>
</mgrwt>
</event>
<event>
 4    1  0.2089815E-007  0.1736647E+04  0.7818608E-02  0.8758415E-01
         -2   -1    0    0    0  501 -0.00000000000E+00  0.00000000000E+00  0.30244074028E+04  0.30244074028E+04  0.25500000000E-02 0.  1.
          2   -1    0    0  501    0  0.00000000000E+00 -0.00000000000E+00 -0.14104745626E+04  0.14104745626E+04  0.25500000000E-02 0. -1.
    8880023    1    1    2    0    0 -0.15684064344E+04  0.34962187447E+03 -0.46980560432E+03  0.17990724584E+04  0.65864270000E+03 0. -1.
    8880022    1    1    2    0    0  0.15684064344E+04 -0.34962187447E+03  0.20837384445E+04  0.26358095069E+04  0.15294330000E+03 0.  0.
<mgrwt>
<rscale>  0 0.17051817E+04</rscale>
<asrwt>0</asrwt>
<pdfrwt beam="1">  1        2 0.21699609E+00 0.17366475E+04</pdfrwt>
<pdfrwt beam="2">  1       -2 0.46529344E+00 0.17366475E+04</pdfrwt>
<totfact> 0.35917336E-02</totfact>
</mgrwt>
</event>
<event>
 4    1  0.2089815E-007  0.7814859E+03  0.7818608E-02  0.9752358E-01
          2   -1    0    0  501    0  0.00000000000E+00  0.00000000000E+00  0.21763905863E+04  0.21763905863E+04  0.25500000000E-02 0. -1.
         -2   -1    0    0    0  501 -0.00000000000E+00 -0.00000000000E+00 -0.32535345252E+03  0.32535345253E+03  0.25500000000E-02 0.  1.
    8880023    1    1    2    0    0 -0.32793152818E+03 -0.26338372975E+03  0.18971696767E+04  0.20518218891E+04  0.65864270000E+03 0. -1.
    8880022    1    1    2    0    0  0.32793152818E+03  0.26338372975E+03 -0.46132542905E+02  0.44992214971E+03  0.15294330000E+03 0.  0.
<mgrwt>
<rscale>  0 0.67983179E+03</rscale>
<asrwt>0</asrwt>
<pdfrwt beam="1">  1        2 0.33482931E+00 0.78148595E+03</pdfrwt>
<pdfrwt beam="2">  1       -2 0.50054380E-01 0.78148595E+03</pdfrwt>
<totfact> 0.20772569E+01</totfact>
</mgrwt>
</event>
<event>
 4    1  0.2699292E-007  0.1410712E+04  0.7818608E-02  0.8975404E-01
          2   -1    0    0  501    0  0.00000000000E+00  0.00000000000E+00  0.25562158150E+04  0.25562158150E+04  0.25500000000E-02 0. -1.
         -2   -1    0    0    0  501 -0.00000000000E+00 -0.00000000000E+00 -0.14710229371E+04  0.14710229371E+04  0.25500000000E-02 0.  1.
    8880023    1    1    2    0    0  0.12073175304E+04 -0.31413702507E+03  0.20178929987E+04  0.24621129240E+04  0.65864270000E+03 0.  0.
    8880022    1    1    2    0    0 -0.12073175304E+04  0.31413702507E+03 -0.93270012081E+03  0.15651258282E+04  0.15294330000E+03 0.  0.
<mgrwt>
<rscale>  0 0.13705668E+04</rscale>
<asrwt>0</asrwt>
<pdfrwt beam="1">  1        2 0.39326397E+00 0.14107118E+04</pdfrwt>
<pdfrwt beam="2">  1       -2 0.22631122E+00 0.14107118E+04</pdfrwt>
<totfact> 0.27626114E-01</totfact>
</mgrwt>
</event>
<event>
 4    1  0.2089815E-007  0.9277073E+03  0.7818608E-02  0.9482941E-01
          2   -1    0    0  501    0  0.00000000000E+00  0.00000000000E+00  0.11019763974E+04  0.11019763974E+04  0.25500000000E-02 0. -1.
         -2   -1    0    0    0  501 -0.00000000000E+00 -0.00000000000E+00 -0.18603178885E+04  0.18603178885E+04  0.25500000000E-02 0.  1.
    8880023    1    1    2    0    0  0.17314607156E+03  0.62996108979E+03  0.82573675983E+03  0.12419669640E+04  0.65864270000E+03 0.  0.
    8880022    1    1    2    0    0 -0.17314607156E+03 -0.62996108979E+03 -0.15840782509E+04  0.17203273220E+04  0.15294330000E+03 0.  0.
<mgrwt>
<rscale>  0 0.85553262E+03</rscale>
<asrwt>0</asrwt>
<pdfrwt beam="1">  1        2 0.16953483E+00 0.92770725E+03</pdfrwt>
<pdfrwt beam="2">  1       -2 0.28620275E+00 0.92770725E+03</pdfrwt>
<totfact> 0.84911058E-01</totfact>
</mgrwt>
</event>
<event>
 4    1  0.2089815E-007  0.1917633E+04  0.7818608E-02  0.8660113E-01
         -2   -1    0    0    0  501 -0.00000000000E+00  0.00000000000E+00  0.26034994838E+04  0.26034994838E+04  0.25500000000E-02 0.  1.
          2   -1    0    0  501    0  0.00000000000E+00 -0.00000000000E+00 -0.18907944909E+04  0.18907944909E+04  0.25500000000E-02 0. -1.
    8880023    1    1    2    0    0  0.64187646784E+03 -0.16827061085E+04  0.15845132658E+04  0.24875686409E+04  0.65864270000E+03 0.  0.
    8880022    1    1    2    0    0 -0.64187646784E+03  0.16827061085E+04 -0.87180827285E+03  0.20067253338E+04  0.15294330000E+03 0.  0.
<mgrwt>
<rscale>  0 0.18894744E+04</rscale>
<asrwt>0</asrwt>
<pdfrwt beam="1">  1        2 0.29089146E+00 0.19176328E+04</pdfrwt>
<pdfrwt beam="2">  1       -2 0.40053838E+00 0.19176328E+04</pdfrwt>
<totfact> 0.50625463E-02</totfact>
</mgrwt>
</event>
<event>
 4    1  0.2089815E-007  0.2072001E+04  0.7818608E-02  0.8585348E-01
         -2   -1    0    0    0  501 -0.00000000000E+00  0.00000000000E+00  0.28646573603E+04  0.28646573603E+04  0.25500000000E-02 0.  1.
          2   -1    0    0  501    0  0.00000000000E+00 -0.00000000000E+00 -0.24975606666E+04  0.24975606666E+04  0.25500000000E-02 0. -1.
    8880023    1    1    2    0    0  0.31517879779E+03  0.19390820479E+04 -0.15695518816E+04  0.25993614943E+04  0.65864270000E+03 0.  0.
    8880022    1    1    2    0    0 -0.31517879779E+03 -0.19390820479E+04  0.19366485752E+04  0.27628565326E+04  0.15294330000E+03 0.  0.
<mgrwt>
<rscale>  0 0.20461389E+04</rscale>
<asrwt>0</asrwt>
<pdfrwt beam="1">  1        2 0.38424010E+00 0.20720007E+04</pdfrwt>
<pdfrwt beam="2">  1       -2 0.44071652E+00 0.20720007E+04</pdfrwt>
<totfact> 0.12177455E-02</totfact>
</mgrwt>
</event>
<event>
 4    1  0.2089815E-007  0.7061506E+03  0.7818608E-02  0.9972583E-01
         -2   -1    0    0    0  501 -0.00000000000E+00  0.00000000000E+00  0.53142995420E+03  0.53142995420E+03  0.25500000000E-02 0.  1.
          2   -1    0    0  501    0  0.00000000000E+00 -0.00000000000E+00 -0.65863306586E+03  0.65863306586E+03  0.25500000000E-02 0. -1.
    8880023    1    1    2    0    0 -0.19418608697E+03  0.16471248672E+03 -0.37831529930E+03  0.80110617998E+03  0.65864270000E+03 0. -1.
    8880022    1    1    2    0    0  0.19418608697E+03 -0.16471248672E+03  0.25111218764E+03  0.38895684009E+03  0.15294330000E+03 0.  0.
<mgrwt>
<rscale>  0 0.56868933E+03</rscale>
<asrwt>0</asrwt>
<pdfrwt beam="1">  1        2 0.10132816E+00 0.70615058E+03</pdfrwt>
<pdfrwt beam="2">  1       -2 0.81758455E-01 0.70615058E+03</pdfrwt>
<totfact> 0.59127481E+01</totfact>
</mgrwt>
</event>
<event>
 4    1  0.2089815E-007  0.9989266E+03  0.7818608E-02  0.9382963E-01
         -2   -1    0    0    0  501 -0.00000000000E+00  0.00000000000E+00  0.21484275739E+04  0.21484275739E+04  0.25500000000E-02 0.  1.
          2   -1    0    0  501    0  0.00000000000E+00 -0.00000000000E+00 -0.83259721865E+03  0.83259721866E+03  0.25500000000E-02 0. -1.
    8880023    1    1    2    0    0  0.65643668009E+03  0.36487661235E+03 -0.41991173366E+03  0.10835959245E+04  0.65864270000E+03 0. -1.
    8880022    1    1    2    0    0 -0.65643668009E+03 -0.36487661235E+03  0.17357420889E+04  0.18974288681E+04  0.15294330000E+03 0.  0.
<mgrwt>
<rscale>  0 0.93491088E+03</rscale>
<asrwt>0</asrwt>
<pdfrwt beam="1">  1        2 0.12809188E+00 0.99892656E+03</pdfrwt>
<pdfrwt beam="2">  1       -2 0.33052732E+00 0.99892656E+03</pdfrwt>
<totfact> 0.67877991E-01</totfact>
</mgrwt>
</event>
<event>
 4    1  0.2089815E-007  0.1369035E+04  0.7818608E-02  0.9008124E-01
         -2   -1    0    0    0  501 -0.00000000000E+00  0.00000000000E+00  0.10881304645E+04  0.10881304645E+04  0.25500000000E-02 0.  1.
          2   -1    0    0  501    0  0.00000000000E+00 -0.00000000000E+00 -0.16633748156E+04  0.16633748156E+04  0.25500000000E-02 0. -1.
    8880023    1    1    2    0    0  0.25457915952E+02  0.11999165034E+04 -0.69564563903E+03  0.15356369304E+04  0.65864270000E+03 0. -1.
    8880022    1    1    2    0    0 -0.25457915952E+02 -0.11999165034E+04  0.12040128788E+03  0.12158683497E+04  0.15294330000E+03 0.  0.
<mgrwt>
<rscale>  0 0.13273874E+04</rscale>
<asrwt>0</asrwt>
<pdfrwt beam="1">  1        2 0.25590382E+00 0.13690354E+04</pdfrwt>
<pdfrwt beam="2">  1       -2 0.16740469E+00 0.13690354E+04</pdfrwt>
<totfact> 0.21833487E+00</totfact>
</mgrwt>
</event>
<event>
 4    1  0.2089815E-007  0.8454620E+03  0.7818608E-02  0.9619966E-01
          2   -1    0    0  501    0  0.00000000000E+00  0.00000000000E+00  0.92127642313E+03  0.92127642313E+03  0.25500000000E-02 0. -1.
         -2   -1    0    0    0  501 -0.00000000000E+00 -0.00000000000E+00 -0.69666727909E+03  0.69666727910E+03  0.25500000000E-02 0.  1.
    8880023    1    1    2    0    0  0.36390104909E+03 -0.38545018258E+03  0.51955216686E+03  0.99234090772E+03  0.65864270000E+03 0.  0.
    8880022    1    1    2    0    0 -0.36390104909E+03  0.38545018258E+03 -0.29494302282E+03  0.62560279452E+03  0.15294330000E+03 0.  0.
<mgrwt>
<rscale>  0 0.75988684E+03</rscale>
<asrwt>0</asrwt>
<pdfrwt beam="1">  1        2 0.14173483E+00 0.84546202E+03</pdfrwt>
<pdfrwt beam="2">  1       -2 0.10717958E+00 0.84546202E+03</pdfrwt>
<totfact> 0.19975616E+01</totfact>
</mgrwt>
</event>
<event>
 4    1  0.2089815E-007  0.9174638E+03  0.7818608E-02  0.9498559E-01
         -2   -1    0    0    0  501 -0.00000000000E+00  0.00000000000E+00  0.54691730823E+03  0.54691730823E+03  0.25500000000E-02 0.  1.
          2   -1    0    0  501    0  0.00000000000E+00 -0.00000000000E+00 -0.35151907390E+04  0.35151907390E+04  0.25500000000E-02 0. -1.
    8880023    1    1    2    0    0 -0.62579952852E+03 -0.12768911619E+03 -0.32280119657E+04  0.33558606970E+04  0.65864270000E+03 0.  0.
    8880022    1    1    2    0    0  0.62579952852E+03  0.12768911619E+03  0.25973853491E+03  0.70624735031E+03  0.15294330000E+03 0.  0.
<mgrwt>
<rscale>  0 0.84390157E+03</rscale>
<asrwt>0</asrwt>
<pdfrwt beam="1">  1        2 0.54079856E+00 0.91746377E+03</pdfrwt>
<pdfrwt beam="2">  1       -2 0.84141127E-01 0.91746377E+03</pdfrwt>
<totfact> 0.10280938E+00</totfact>
</mgrwt>
</event>
<event>
 4    1  0.2089815E-007  0.1079387E+04  0.7818608E-02  0.9284361E-01
         -2   -1    0    0    0  501 -0.00000000000E+00  0.00000000000E+00  0.12278061885E+04  0.12278061885E+04  0.25500000000E-02 0.  1.
          2   -1    0    0  501    0  0.00000000000E+00 -0.00000000000E+00 -0.12522990513E+04  0.12522990513E+04  0.25500000000E-02 0. -1.
    8880023    1    1    2    0    0  0.85508895573E+03 -0.94108966962E+01 -0.77766672414E+03  0.13303538730E+04  0.65864270000E+03 0.  0.
    8880022    1    1    2    0    0 -0.85508895573E+03  0.94108966962E+01  0.75317386135E+03  0.11497513669E+04  0.15294330000E+03 0.  0.
<mgrwt>
<rscale>  0 0.10223546E+04</rscale>
<asrwt>0</asrwt>
<pdfrwt beam="1">  1        2 0.19266139E+00 0.10793868E+04</pdfrwt>
<pdfrwt beam="2">  1       -2 0.18889326E+00 0.10793868E+04</pdfrwt>
<totfact> 0.27330121E+00</totfact>
</mgrwt>
</event>
<event>
 4    1  0.2089815E-007  0.1068149E+04  0.7818608E-02  0.9297375E-01
         -2   -1    0    0    0  501 -0.00000000000E+00  0.00000000000E+00  0.47007808987E+03  0.47007808988E+03  0.25500000000E-02 0.  1.
          2   -1    0    0  501    0  0.00000000000E+00 -0.00000000000E+00 -0.40809401405E+04  0.40809401405E+04  0.25500000000E-02 0. -1.
    8880023    1    1    2    0    0 -0.68290877729E+03  0.49068133837E+03 -0.35351121469E+04  0.36929609626E+04  0.65864270000E+03 0. -1.
    8880022    1    1    2    0    0  0.68290877729E+03 -0.49068133837E+03 -0.75749903774E+02  0.85805726782E+03  0.15294330000E+03 0.  0.
<mgrwt>
<rscale>  0 0.10102486E+04</rscale>
<asrwt>0</asrwt>
<pdfrwt beam="1">  1        2 0.62783692E+00 0.10681492E+04</pdfrwt>
<pdfrwt beam="2">  1       -2 0.72319709E-01 0.10681492E+04</pdfrwt>
<totfact> 0.53000837E-01</totfact>
</mgrwt>
</event>
<event>
 4    1  0.2089815E-007  0.1356541E+04  0.7818608E-02  0.9018209E-01
         -2   -1    0    0    0  501 -0.00000000000E+00  0.00000000000E+00  0.20298354947E+04  0.20298354947E+04  0.25500000000E-02 0.  1.
          2   -1    0    0  501    0  0.00000000000E+00 -0.00000000000E+00 -0.12620598981E+04  0.12620598981E+04  0.25500000000E-02 0. -1.
    8880023    1    1    2    0    0  0.89645579970E+03 -0.77637582007E+03 -0.59292666383E+03  0.14804609585E+04  0.65864270000E+03 0.  0.
    8880022    1    1    2    0    0 -0.89645579970E+03  0.77637582007E+03  0.13607022605E+04  0.18114344342E+04  0.15294330000E+03 0.  0.
<mgrwt>
<rscale>  0 0.13144178E+04</rscale>
<asrwt>0</asrwt>
<pdfrwt beam="1">  1        2 0.19416306E+00 0.13565407E+04</pdfrwt>
<pdfrwt beam="2">  1       -2 0.31228238E+00 0.13565407E+04</pdfrwt>
<totfact> 0.44576869E-01</totfact>
</mgrwt>
</event>
<event>
 4    1  0.2089815E-007  0.7285118E+03  0.7818608E-02  0.9894772E-01
         -2   -1    0    0    0  501 -0.00000000000E+00  0.00000000000E+00  0.83904788429E+03  0.83904788429E+03  0.25500000000E-02 0.  1.
          2   -1    0    0  501    0  0.00000000000E+00 -0.00000000000E+00 -0.77040390749E+03  0.77040390750E+03  0.25500000000E-02 0. -1.
    8880023    1    1    2    0    0  0.14914417651E+03  0.27326766671E+03 -0.54142418950E+03  0.90767260744E+03  0.65864270000E+03 0.  0.
    8880022    1    1    2    0    0 -0.14914417651E+03 -0.27326766671E+03  0.61006816629E+03  0.70177918435E+03  0.15294330000E+03 0.  1.
<mgrwt>
<rscale>  0 0.60515348E+03</rscale>
<asrwt>0</asrwt>
<pdfrwt beam="1">  1        2 0.11852368E+00 0.72851178E+03</pdfrwt>
<pdfrwt beam="2">  1       -2 0.12908429E+00 0.72851178E+03</pdfrwt>
<totfact> 0.16280586E+01</totfact>
</mgrwt>
</event>
<event>
 4    1  0.2089815E-007  0.1040143E+04  0.7818608E-02  0.9330826E-01
          2   -1    0    0  501    0  0.00000000000E+00  0.00000000000E+00  0.10520268827E+04  0.10520268827E+04  0.25500000000E-02 0. -1.
         -2   -1    0    0    0  501 -0.00000000000E+00 -0.00000000000E+00 -0.17466738018E+04  0.17466738018E+04  0.25500000000E-02 0.  1.
    8880023    1    1    2    0    0  0.79763877996E+03 -0.10889979000E+03  0.64819415155E+03  0.12255825765E+04  0.65864270000E+03 0.  0.
    8880022    1    1    2    0    0 -0.79763877996E+03  0.10889979000E+03 -0.13428410707E+04  0.15731181080E+04  0.15294330000E+03 0.  0.
<mgrwt>
<rscale>  0 0.97993829E+03</rscale>
<asrwt>0</asrwt>
<pdfrwt beam="1">  1        2 0.16185029E+00 0.10401428E+04</pdfrwt>
<pdfrwt beam="2">  1       -2 0.26871905E+00 0.10401428E+04</pdfrwt>
<totfact> 0.11447423E+00</totfact>
</mgrwt>
</event>
<event>
 4    1  0.2089815E-007  0.1814146E+04  0.7818608E-02  0.8714751E-01
          2   -1    0    0  501    0  0.00000000000E+00  0.00000000000E+00  0.26312675106E+04  0.26312675106E+04  0.25500000000E-02 0. -1.
         -2   -1    0    0    0  501 -0.00000000000E+00 -0.00000000000E+00 -0.14732945985E+04  0.14732945985E+04  0.25500000000E-02 0.  1.
    8880023    1    1    2    0    0 -0.12741722787E+04 -0.11107663738E+04 -0.33415064012E+03  0.18446635979E+04  0.65864270000E+03 0. -1.
    8880022    1    1    2    0    0  0.12741722787E+04  0.11107663738E+04  0.14921235522E+04  0.22598985112E+04  0.15294330000E+03 0.  0.
<mgrwt>
<rscale>  0 0.17841923E+04</rscale>
<asrwt>0</asrwt>
<pdfrwt beam="1">  1        2 0.40481038E+00 0.18141464E+04</pdfrwt>
<pdfrwt beam="2">  1       -2 0.22666071E+00 0.18141464E+04</pdfrwt>
<totfact> 0.23744032E-01</totfact>
</mgrwt>
</event>
<event>
 4    1  0.2089815E-007  0.7732134E+03  0.7818608E-02  0.9772027E-01
         -2   -1    0    0    0  501 -0.00000000000E+00  0.00000000000E+00  0.48263888724E+03  0.48263888725E+03  0.25500000000E-02 0.  1.
          2   -1    0    0  501    0  0.00000000000E+00 -0.00000000000E+00 -0.12404779126E+04  0.12404779126E+04  0.25500000000E-02 0. -1.
    8880023    1    1    2    0    0  0.12979524578E+03 -0.38366897106E+03 -0.97042226672E+03  0.12407974320E+04  0.65864270000E+03 0.  0.
    8880022    1    1    2    0    0 -0.12979524578E+03  0.38366897106E+03  0.21258324131E+03  0.48231936793E+03  0.15294330000E+03 0.  0.
<mgrwt>
<rscale>  0 0.66885564E+03</rscale>
<asrwt>0</asrwt>
<pdfrwt beam="1">  1        2 0.19084275E+00 0.77321335E+03</pdfrwt>
<pdfrwt beam="2">  1       -2 0.74252137E-01 0.77321335E+03</pdfrwt>
<totfact> 0.29746751E+01</totfact>
</mgrwt>
</event>
<event>
 4    1  0.2089815E-007  0.6746949E+03  0.7818608E-02  0.1012499E+00
         -2   -1    0    0    0  501 -0.00000000000E+00  0.00000000000E+00  0.18312516112E+03  0.18312516114E+03  0.25500000000E-02 0.  1.
          2   -1    0    0  501    0  0.00000000000E+00 -0.00000000000E+00 -0.18301446932E+04  0.18301446932E+04  0.25500000000E-02 0. -1.
    8880023    1    1    2    0    0  0.76697760340E+02  0.12458135754E+03 -0.16692607651E+04  0.18004568224E+04  0.65864270000E+03 0.  0.
    8880022    1    1    2    0    0 -0.76697760340E+02 -0.12458135754E+03  0.22241233066E+02  0.21281303191E+03  0.15294330000E+03 0.  1.
<mgrwt>
<rscale>  0 0.50493321E+03</rscale>
<asrwt>0</asrwt>
<pdfrwt beam="1">  1        2 0.28156071E+00 0.67469494E+03</pdfrwt>
<pdfrwt beam="2">  1       -2 0.28173103E-01 0.67469494E+03</pdfrwt>
<totfact> 0.98650774E+01</totfact>
</mgrwt>
</event>
<event>
 4    1  0.2089815E-007  0.7509441E+03  0.7818608E-02  0.9829143E-01
          2   -1    0    0  501    0  0.00000000000E+00  0.00000000000E+00  0.44109733660E+03  0.44109733661E+03  0.25500000000E-02 0. -1.
         -2   -1    0    0    0  501 -0.00000000000E+00 -0.00000000000E+00 -0.13560711387E+04  0.13560711387E+04  0.25500000000E-02 0.  1.
    8880023    1    1    2    0    0 -0.34514297811E+03 -0.10480021835E+03  0.53100165577E+02  0.75281909842E+03  0.65864270000E+03 0.  0.
    8880022    1    1    2    0    0  0.34514297811E+03  0.10480021835E+03 -0.96807396768E+03  0.10443493769E+04  0.15294330000E+03 0.  0.
<mgrwt>
<rscale>  0 0.63821745E+03</rscale>
<asrwt>0</asrwt>
<pdfrwt beam="1">  1        2 0.67861129E-01 0.75094405E+03</pdfrwt>
<pdfrwt beam="2">  1       -2 0.20862633E+00 0.75094405E+03</pdfrwt>
<totfact> 0.84841609E+00</totfact>
</mgrwt>
</event>
<event>
 4    1  0.2089815E-007  0.7217464E+03  0.7818608E-02  0.9916720E-01
         -2   -1    0    0    0  501 -0.00000000000E+00  0.00000000000E+00  0.31159943262E+03  0.31159943263E+03  0.25500000000E-02 0.  1.
          2   -1    0    0  501    0  0.00000000000E+00 -0.00000000000E+00 -0.10951674572E+04  0.10951674572E+04  0.25500000000E-02 0. -1.
    8880023    1    1    2    0    0  0.71193757611E+02  0.28642473363E+03 -0.79552109691E+03  0.10741376546E+04  0.65864270000E+03 0. -1.
    8880022    1    1    2    0    0 -0.71193757611E+02 -0.28642473363E+03  0.11953072356E+02  0.33262923520E+03  0.15294330000E+03 0.  0.
<mgrwt>
<rscale>  0 0.59457745E+03</rscale>
<asrwt>0</asrwt>
<pdfrwt beam="1">  1        2 0.16848730E+00 0.72174641E+03</pdfrwt>
<pdfrwt beam="2">  1       -2 0.47938375E-01 0.72174641E+03</pdfrwt>
<totfact> 0.91969175E+01</totfact>
</mgrwt>
</event>
<event>
 4    1  0.2089815E-007  0.1222457E+04  0.7818608E-02  0.9135595E-01
          2   -1    0    0  501    0  0.00000000000E+00  0.00000000000E+00  0.24469856314E+04  0.24469856314E+04  0.25500000000E-02 0. -1.
         -2   -1    0    0    0  501 -0.00000000000E+00 -0.00000000000E+00 -0.73986162811E+03  0.73986162812E+03  0.25500000000E-02 0.  1.
    8880023    1    1    2    0    0  0.22552698281E+03 -0.10048529397E+04  0.17616775296E+04  0.21442737174E+04  0.65864270000E+03 0.  0.
    8880022    1    1    2    0    0 -0.22552698281E+03  0.10048529397E+04 -0.54553526329E+02  0.10425735421E+04  0.15294330000E+03 0.  0.
<mgrwt>
<rscale>  0 0.11743651E+04</rscale>
<asrwt>0</asrwt>
<pdfrwt beam="1">  1        2 0.37645933E+00 0.12224574E+04</pdfrwt>
<pdfrwt beam="2">  1       -2 0.11382486E+00 0.12224574E+04</pdfrwt>
<totfact> 0.22097929E+00</totfact>
</mgrwt>
</event>
<event>
 4    1  0.2089815E-007  0.1692654E+04  0.7818608E-02  0.8784362E-01
         -2   -1    0    0    0  501 -0.00000000000E+00  0.00000000000E+00  0.25190808187E+04  0.25190808187E+04  0.25500000000E-02 0.  1.
          2   -1    0    0  501    0  0.00000000000E+00 -0.00000000000E+00 -0.20718406152E+04  0.20718406152E+04  0.25500000000E-02 0. -1.
    8880023    1    1    2    0    0  0.14789137305E+04  0.49404645805E+03 -0.13800330509E+04  0.21839343288E+04  0.65864270000E+03 0.  0.
    8880022    1    1    2    0    0 -0.14789137305E+04 -0.49404645805E+03  0.18272732544E+04  0.24069871051E+04  0.15294330000E+03 0.  0.
<mgrwt>
<rscale>  0 0.16602560E+04</rscale>
<asrwt>0</asrwt>
<pdfrwt beam="1">  1        2 0.31874471E+00 0.16926541E+04</pdfrwt>
<pdfrwt beam="2">  1       -2 0.38755090E+00 0.16926541E+04</pdfrwt>
<totfact> 0.49967941E-02</totfact>
</mgrwt>
</event>
<event>
 4    1  0.2089815E-007  0.1277479E+04  0.7818608E-02  0.9085256E-01
         -2   -1    0    0    0  501 -0.00000000000E+00  0.00000000000E+00  0.78964617139E+03  0.78964617139E+03  0.25500000000E-02 0.  1.
          2   -1    0    0  501    0  0.00000000000E+00 -0.00000000000E+00 -0.26813224730E+04  0.26813224730E+04  0.25500000000E-02 0. -1.
    8880023    1    1    2    0    0 -0.97388522704E+03  0.49969075440E+03 -0.19863596222E+04  0.23616896579E+04  0.65864270000E+03 0.  0.
    8880022    1    1    2    0    0  0.97388522704E+03 -0.49969075440E+03  0.94683320627E+02  0.11092789864E+04  0.15294330000E+03 0.  0.
<mgrwt>
<rscale>  0 0.12320509E+04</rscale>
<asrwt>0</asrwt>
<pdfrwt beam="1">  1        2 0.41251114E+00 0.12774794E+04</pdfrwt>
<pdfrwt beam="2">  1       -2 0.12148403E+00 0.12774794E+04</pdfrwt>
<totfact> 0.13658535E+00</totfact>
</mgrwt>
</event>
<event>
 4    1  0.2089815E-007  0.8983710E+03  0.7818608E-02  0.9528652E-01
          2   -1    0    0  501    0  0.00000000000E+00  0.00000000000E+00  0.25373634086E+04  0.25373634086E+04  0.25500000000E-02 0. -1.
         -2   -1    0    0    0  501 -0.00000000000E+00 -0.00000000000E+00 -0.60945111642E+03  0.60945111642E+03  0.25500000000E-02 0.  1.
    8880023    1    1    2    0    0  0.46654040277E+03 -0.39446195545E+03  0.22620130627E+04  0.24338803347E+04  0.65864270000E+03 0.  0.
    8880022    1    1    2    0    0 -0.46654040277E+03  0.39446195545E+03 -0.33410077057E+03  0.71293419025E+03  0.15294330000E+03 0.  0.
<mgrwt>
<rscale>  0 0.82204002E+03</rscale>
<asrwt>0</asrwt>
<pdfrwt beam="1">  1        2 0.39036361E+00 0.89837096E+03</pdfrwt>
<pdfrwt beam="2">  1       -2 0.93761708E-01 0.89837096E+03</pdfrwt>
<totfact> 0.32618037E+00</totfact>
</mgrwt>
</event>
<event>
 4    1  0.2089815E-007  0.7146439E+03  0.7818608E-02  0.9941144E-01
         -2   -1    0    0    0  501 -0.00000000000E+00  0.00000000000E+00  0.30508283780E+03  0.30508283782E+03  0.25500000000E-02 0.  1.
          2   -1    0    0  501    0  0.00000000000E+00 -0.00000000000E+00 -0.24312853373E+04  0.24312853373E+04  0.25500000000E-02 0. -1.
    8880023    1    1    2    0    0 -0.22990470170E+03 -0.15507926064E+03 -0.22763409124E+04  0.23858843024E+04  0.65864270000E+03 0. -1.
    8880022    1    1    2    0    0  0.22990470170E+03  0.15507926064E+03  0.15013841292E+03  0.35048387266E+03  0.15294330000E+03 0.  0.
<mgrwt>
<rscale>  0 0.58308047E+03</rscale>
<asrwt>0</asrwt>
<pdfrwt beam="1">  1        2 0.37404389E+00 0.71464394E+03</pdfrwt>
<pdfrwt beam="2">  1       -2 0.46935823E-01 0.71464394E+03</pdfrwt>
<totfact> 0.17242678E+01</totfact>
</mgrwt>
</event>
<event>
 4    1  0.2089815E-007  0.9602208E+03  0.7818608E-02  0.9435559E-01
          2   -1    0    0  501    0  0.00000000000E+00  0.00000000000E+00  0.20673198921E+04  0.20673198921E+04  0.25500000000E-02 0. -1.
         -2   -1    0    0    0  501 -0.00000000000E+00 -0.00000000000E+00 -0.52118630429E+03  0.52118630429E+03  0.25500000000E-02 0.  1.
    8880023    1    1    2    0    0  0.63135098351E+03 -0.29934885548E+03  0.16055472449E+04  0.18707768342E+04  0.65864270000E+03 0. -1.
    8880022    1    1    2    0    0 -0.63135098351E+03  0.29934885548E+03 -0.59413657062E+02  0.71772936217E+03  0.15294330000E+03 0.  0.
<mgrwt>
<rscale>  0 0.89206239E+03</rscale>
<asrwt>0</asrwt>
<pdfrwt beam="1">  1        2 0.31804921E+00 0.96022081E+03</pdfrwt>
<pdfrwt beam="2">  1       -2 0.80182509E-01 0.96022081E+03</pdfrwt>
<totfact> 0.84933187E+00</totfact>
</mgrwt>
</event>
<event>
 4    1  0.2089815E-007  0.9039724E+03  0.7818608E-02  0.9519684E-01
          2   -1    0    0  501    0  0.00000000000E+00  0.00000000000E+00  0.24078453761E+04  0.24078453761E+04  0.25500000000E-02 0. -1.
         -2   -1    0    0    0  501 -0.00000000000E+00 -0.00000000000E+00 -0.36908039768E+03  0.36908039769E+03  0.25500000000E-02 0.  1.
    8880023    1    1    2    0    0  0.25944839604E+03  0.56217656868E+03  0.19282853150E+04  0.21296596974E+04  0.65864270000E+03 0.  0.
    8880022    1    1    2    0    0 -0.25944839604E+03 -0.56217656868E+03  0.11047966345E+03  0.64726607638E+03  0.15294330000E+03 0.  0.
<mgrwt>
<rscale>  0 0.82847998E+03</rscale>
<asrwt>0</asrwt>
<pdfrwt beam="1">  1        2 0.37043775E+00 0.90397244E+03</pdfrwt>
<pdfrwt beam="2">  1       -2 0.56781600E-01 0.90397244E+03</pdfrwt>
<totfact> 0.11700713E+01</totfact>
</mgrwt>
</event>
<event>
 4    1  0.2089815E-007  0.6943588E+03  0.7818608E-02  0.1002146E+00
          2   -1    0    0  501    0  0.00000000000E+00  0.00000000000E+00  0.26768865444E+04  0.26768865444E+04  0.25500000000E-02 0. -1.
         -2   -1    0    0    0  501 -0.00000000000E+00 -0.00000000000E+00 -0.37199380552E+03  0.37199380553E+03  0.25500000000E-02 0.  1.
    8880023    1    1    2    0    0 -0.20260416466E+03  0.85296314682E+02  0.25759217001E+04  0.26678655738E+04  0.65864270000E+03 0. -1.
    8880022    1    1    2    0    0  0.20260416466E+03 -0.85296314682E+02 -0.27102896116E+03  0.38101477614E+03  0.15294330000E+03 0.  0.
<mgrwt>
<rscale>  0 0.54719185E+03</rscale>
<asrwt>0</asrwt>
<pdfrwt beam="1">  1        2 0.41182869E+00 0.69435878E+03</pdfrwt>
<pdfrwt beam="2">  1       -2 0.57229817E-01 0.69435878E+03</pdfrwt>
<totfact> 0.83518331E+00</totfact>
</mgrwt>
</event>
<event>
 4    1  0.2089815E-007  0.8697990E+03  0.7818608E-02  0.9576365E-01
         -2   -1    0    0    0  501 -0.00000000000E+00  0.00000000000E+00  0.14805505785E+04  0.14805505785E+04  0.25500000000E-02 0.  1.
          2   -1    0    0  501    0  0.00000000000E+00 -0.00000000000E+00 -0.10490862441E+04  0.10490862441E+04  0.25500000000E-02 0. -1.
    8880023    1    1    2    0    0  0.13099724991E+03 -0.55279274250E+03 -0.78927405917E+03  0.11745228148E+04  0.65864270000E+03 0.  0.
    8880022    1    1    2    0    0 -0.13099724991E+03  0.55279274250E+03  0.12207383936E+04  0.13551140079E+04  0.15294330000E+03 0.  0.
<mgrwt>
<rscale>  0 0.78880446E+03</rscale>
<asrwt>0</asrwt>
<pdfrwt beam="1">  1        2 0.16139788E+00 0.86979900E+03</pdfrwt>
<pdfrwt beam="2">  1       -2 0.22777701E+00 0.86979900E+03</pdfrwt>
<totfact> 0.20927665E+00</totfact>
</mgrwt>
</event>
<event>
 4    1  0.2089815E-007  0.9015640E+03  0.7818608E-02  0.9523526E-01
         -2   -1    0    0    0  501 -0.00000000000E+00  0.00000000000E+00  0.19613548546E+03  0.19613548547E+03  0.25500000000E-02 0.  1.
          2   -1    0    0  501    0  0.00000000000E+00 -0.00000000000E+00 -0.32912658781E+04  0.32912658781E+04  0.25500000000E-02 0. -1.
    8880023    1    1    2    0    0 -0.22473401315E+03  0.57315101719E+03 -0.22989593478E+04  0.24694193152E+04  0.65864270000E+03 0.  0.
    8880022    1    1    2    0    0  0.22473401315E+03 -0.57315101719E+03 -0.79617104492E+03  0.10179820484E+04  0.15294330000E+03 0.  0.
<mgrwt>
<rscale>  0 0.82571382E+03</rscale>
<asrwt>0</asrwt>
<pdfrwt beam="1">  1        2 0.50634855E+00 0.90156401E+03</pdfrwt>
<pdfrwt beam="2">  1       -2 0.30174693E-01 0.90156401E+03</pdfrwt>
<totfact> 0.11960824E+01</totfact>
</mgrwt>
</event>
<event>
 4    1  0.2089815E-007  0.7135367E+03  0.7818608E-02  0.9945095E-01
          2   -1    0    0  501    0  0.00000000000E+00  0.00000000000E+00  0.63538373426E+03  0.63538373426E+03  0.25500000000E-02 0. -1.
         -2   -1    0    0    0  501 -0.00000000000E+00 -0.00000000000E+00 -0.82907242487E+03  0.82907242488E+03  0.25500000000E-02 0.  1.
    8880023    1    1    2    0    0  0.17292313521E+03  0.21312444975E+03  0.38144681893E+03  0.80909599165E+03  0.65864270000E+03 0.  0.
    8880022    1    1    2    0    0 -0.17292313521E+03 -0.21312444975E+03 -0.57513550955E+03  0.65536016749E+03  0.15294330000E+03 0.  0.
<mgrwt>
<rscale>  0 0.58124702E+03</rscale>
<asrwt>0</asrwt>
<pdfrwt beam="1">  1        2 0.97751344E-01 0.71353672E+03</pdfrwt>
<pdfrwt beam="2">  1       -2 0.12754960E+00 0.71353672E+03</pdfrwt>
<totfact> 0.21429917E+01</totfact>
</mgrwt>
</event>
<event>
 4    1  0.2089815E-007  0.7414679E+03  0.7818608E-02  0.9855692E-01
          2   -1    0    0  501    0  0.00000000000E+00  0.00000000000E+00  0.17648920683E+04  0.17648920683E+04  0.25500000000E-02 0. -1.
         -2   -1    0    0    0  501 -0.00000000000E+00 -0.00000000000E+00 -0.88847450492E+03  0.88847450493E+03  0.25500000000E-02 0.  1.
    8880023    1    1    2    0    0  0.25159504066E+03  0.22948723891E+03  0.16419839354E+04  0.18016342325E+04  0.65864270000E+03 0. -1.
    8880022    1    1    2    0    0 -0.25159504066E+03 -0.22948723891E+03 -0.76556637201E+03  0.85173234075E+03  0.15294330000E+03 0.  0.
<mgrwt>
<rscale>  0 0.62457561E+03</rscale>
<asrwt>0</asrwt>
<pdfrwt beam="1">  1        2 0.27152186E+00 0.74146791E+03</pdfrwt>
<pdfrwt beam="2">  1       -2 0.13668838E+00 0.74146791E+03</pdfrwt>
<totfact> 0.35622405E+00</totfact>
</mgrwt>
</event>
<event>
 4    1  0.2089815E-007  0.7765691E+03  0.7818608E-02  0.9763959E-01
          2   -1    0    0  501    0  0.00000000000E+00  0.00000000000E+00  0.12040431368E+04  0.12040431368E+04  0.25500000000E-02 0. -1.
         -2   -1    0    0    0  501 -0.00000000000E+00 -0.00000000000E+00 -0.61605999317E+03  0.61605999318E+03  0.25500000000E-02 0.  1.
    8880023    1    1    2    0    0 -0.41132405788E+03 -0.78661332388E+01  0.96698092670E+03  0.12402063036E+04  0.65864270000E+03 0.  0.
    8880022    1    1    2    0    0  0.41132405788E+03  0.78661332388E+01 -0.37899778307E+03  0.57989682637E+03  0.15294330000E+03 0.  1.
<mgrwt>
<rscale>  0 0.67333110E+03</rscale>
<asrwt>0</asrwt>
<pdfrwt beam="1">  1        2 0.18523740E+00 0.77656910E+03</pdfrwt>
<pdfrwt beam="2">  1       -2 0.94778463E-01 0.77656910E+03</pdfrwt>
<totfact> 0.17937774E+01</totfact>
</mgrwt>
</event>
<event>
 4    1  0.2089815E-007  0.1036403E+04  0.7818608E-02  0.9335409E-01
         -2   -1    0    0    0  501 -0.00000000000E+00  0.00000000000E+00  0.46931175298E+03  0.46931175298E+03  0.25500000000E-02 0.  1.
          2   -1    0    0  501    0  0.00000000000E+00 -0.00000000000E+00 -0.32285015131E+04  0.32285015131E+04  0.25500000000E-02 0. -1.
    8880023    1    1    2    0    0  0.50764361000E+03  0.61856156161E+03 -0.26869857979E+04  0.28799346042E+04  0.65864270000E+03 0. -1.
    8880022    1    1    2    0    0 -0.50764361000E+03 -0.61856156161E+03 -0.72203962180E+02  0.81787866181E+03  0.15294330000E+03 0.  0.
<mgrwt>
<rscale>  0 0.97587430E+03</rscale>
<asrwt>0</asrwt>
<pdfrwt beam="1">  1        2 0.49669253E+00 0.10364027E+04</pdfrwt>
<pdfrwt beam="2">  1       -2 0.72201810E-01 0.10364027E+04</pdfrwt>
<totfact> 0.22049787E+00</totfact>
</mgrwt>
</event>
<event>
 4    1  0.2089815E-007  0.8835695E+03  0.7818608E-02  0.9552940E-01
         -2   -1    0    0    0  501 -0.00000000000E+00  0.00000000000E+00  0.56740542085E+03  0.56740542085E+03  0.25500000000E-02 0.  1.
          2   -1    0    0  501    0  0.00000000000E+00 -0.00000000000E+00 -0.14470269705E+04  0.14470269705E+04  0.25500000000E-02 0. -1.
    8880023    1    1    2    0    0  0.54667163549E+02 -0.58642671671E+03 -0.10598052231E+04  0.13798123460E+04  0.65864270000E+03 0.  0.
    8880022    1    1    2    0    0 -0.54667163549E+02  0.58642671671E+03  0.18018367345E+03  0.63462004541E+03  0.15294330000E+03 0.  0.
<mgrwt>
<rscale>  0 0.80490808E+03</rscale>
<asrwt>0</asrwt>
<pdfrwt beam="1">  1        2 0.22261953E+00 0.88356946E+03</pdfrwt>
<pdfrwt beam="2">  1       -2 0.87293142E-01 0.88356946E+03</pdfrwt>
<totfact> 0.15541382E+01</totfact>
</mgrwt>
</event>
<event>
 4    1  0.2089815E-007  0.1142384E+04  0.7818608E-02  0.9215272E-01
          2   -1    0    0  501    0  0.00000000000E+00  0.00000000000E+00  0.28940406966E+04  0.28940406966E+04  0.25500000000E-02 0. -1.
         -2   -1    0    0    0  501 -0.00000000000E+00 -0.00000000000E+00 -0.45785064928E+03  0.45785064929E+03  0.25500000000E-02 0.  1.
    8880023    1    1    2    0    0  0.91210653298E+03 -0.19822442587E+03  0.20154337461E+04  0.23166818171E+04  0.65864270000E+03 0.  1.
    8880022    1    1    2    0    0 -0.91210653298E+03  0.19822442587E+03  0.42075630126E+03  0.10352095288E+04  0.15294330000E+03 0.  0.
<mgrwt>
<rscale>  0 0.10897180E+04</rscale>
<asrwt>0</asrwt>
<pdfrwt beam="1">  1        2 0.44523703E+00 0.11423841E+04</pdfrwt>
<pdfrwt beam="2">  1       -2 0.70438561E-01 0.11423841E+04</pdfrwt>
<totfact> 0.37161066E+00</totfact>
</mgrwt>
</event>
<event>
 4    1  0.2089815E-007  0.7840588E+03  0.7818608E-02  0.9746388E-01
          2   -1    0    0  501    0  0.00000000000E+00  0.00000000000E+00  0.11478919870E+04  0.11478919870E+04  0.25500000000E-02 0. -1.
         -2   -1    0    0    0  501 -0.00000000000E+00 -0.00000000000E+00 -0.77326824403E+03  0.77326824404E+03  0.25500000000E-02 0.  1.
    8880023    1    1    2    0    0  0.40835043068E+03 -0.11911329416E+03  0.92262811498E+03  0.12107811098E+04  0.65864270000E+03 0.  0.
    8880022    1    1    2    0    0 -0.40835043068E+03  0.11911329416E+03 -0.54800437202E+03  0.71037912121E+03  0.15294330000E+03 0.  0.
<mgrwt>
<rscale>  0 0.68320798E+03</rscale>
<asrwt>0</asrwt>
<pdfrwt beam="1">  1        2 0.17659877E+00 0.78405884E+03</pdfrwt>
<pdfrwt beam="2">  1       -2 0.11896435E+00 0.78405884E+03</pdfrwt>
<totfact> 0.11211948E+01</totfact>
</mgrwt>
</event>
<event>
 4    1  0.2089815E-007  0.9130546E+03  0.7818608E-02  0.9505391E-01
          2   -1    0    0  501    0  0.00000000000E+00  0.00000000000E+00  0.22372180058E+04  0.22372180058E+04  0.25500000000E-02 0. -1.
         -2   -1    0    0    0  501 -0.00000000000E+00 -0.00000000000E+00 -0.75240824764E+03  0.75240824765E+03  0.25500000000E-02 0.  1.
    8880023    1    1    2    0    0  0.48538690475E+03 -0.40528764812E+03  0.19744735357E+04  0.21753653658E+04  0.65864270000E+03 0.  0.
    8880022    1    1    2    0    0 -0.48538690475E+03  0.40528764812E+03 -0.48966377762E+03  0.81426088764E+03  0.15294330000E+03 0.  0.
<mgrwt>
<rscale>  0 0.83887492E+03</rscale>
<asrwt>0</asrwt>
<pdfrwt beam="1">  1        2 0.34418738E+00 0.91305462E+03</pdfrwt>
<pdfrwt beam="2">  1       -2 0.11575512E+00 0.91305462E+03</pdfrwt>
<totfact> 0.28985668E+00</totfact>
</mgrwt>
</event>
<event>
 4    1  0.2089815E-007  0.7308018E+03  0.7818608E-02  0.9887599E-01
         -2   -1    0    0    0  501 -0.00000000000E+00  0.00000000000E+00  0.83529665110E+03  0.83529665110E+03  0.25500000000E-02 0.  1.
          2   -1    0    0  501    0  0.00000000000E+00 -0.00000000000E+00 -0.14819053910E+04  0.14819053910E+04  0.25500000000E-02 0. -1.
    8880023    1    1    2    0    0  0.27674163569E+03 -0.15386705031E+03 -0.13475738788E+04  0.15329796369E+04  0.65864270000E+03 0. -1.
    8880022    1    1    2    0    0 -0.27674163569E+03  0.15386705031E+03  0.70096513881E+03  0.78422240528E+03  0.15294330000E+03 0.  0.
<mgrwt>
<rscale>  0 0.60866050E+03</rscale>
<asrwt>0</asrwt>
<pdfrwt beam="1">  1        2 0.22798544E+00 0.73080176E+03</pdfrwt>
<pdfrwt beam="2">  1       -2 0.12850718E+00 0.73080176E+03</pdfrwt>
<totfact> 0.59743700E+00</totfact>
</mgrwt>
</event>
<event>
 4    1  0.2089815E-007  0.9986919E+03  0.7818608E-02  0.9383271E-01
          2   -1    0    0  501    0  0.00000000000E+00  0.00000000000E+00  0.79912224367E+03  0.79912224368E+03  0.25500000000E-02 0. -1.
         -2   -1    0    0    0  501 -0.00000000000E+00 -0.00000000000E+00 -0.16558310335E+04  0.16558310335E+04  0.25500000000E-02 0.  1.
    8880023    1    1    2    0    0 -0.69228178360E+03  0.29038124825E+03  0.32184080146E+03  0.10492697675E+04  0.65864270000E+03 0. -1.
    8880022    1    1    2    0    0  0.69228178360E+03 -0.29038124825E+03 -0.11785495913E+04  0.14056835097E+04  0.15294330000E+03 0.  0.
<mgrwt>
<rscale>  0 0.93465291E+03</rscale>
<asrwt>0</asrwt>
<pdfrwt beam="1">  1        2 0.12294188E+00 0.99869192E+03</pdfrwt>
<pdfrwt beam="2">  1       -2 0.25474323E+00 0.99869192E+03</pdfrwt>
<totfact> 0.20692835E+00</totfact>
</mgrwt>
</event>
<event>
 4    1  0.2089815E-007  0.8591833E+03  0.7818608E-02  0.9595018E-01
          2   -1    0    0  501    0  0.00000000000E+00  0.00000000000E+00  0.11095887033E+04  0.11095887033E+04  0.25500000000E-02 0. -1.
         -2   -1    0    0    0  501 -0.00000000000E+00 -0.00000000000E+00 -0.12692864316E+04  0.12692864316E+04  0.25500000000E-02 0.  1.
    8880023    1    1    2    0    0  0.26625054562E+03 -0.48321464822E+03  0.85607224601E+03  0.12128708282E+04  0.65864270000E+03 0.  0.
    8880022    1    1    2    0    0 -0.26625054562E+03  0.48321464822E+03 -0.10157699744E+04  0.11660043067E+04  0.15294330000E+03 0.  0.
<mgrwt>
<rscale>  0 0.77626812E+03</rscale>
<asrwt>0</asrwt>
<pdfrwt beam="1">  1        2 0.17070595E+00 0.85918331E+03</pdfrwt>
<pdfrwt beam="2">  1       -2 0.19527484E+00 0.85918331E+03</pdfrwt>
<totfact> 0.30994888E+00</totfact>
</mgrwt>
</event>
<event>
 4    1  0.2089815E-007  0.8664288E+03  0.7818608E-02  0.9582229E-01
         -2   -1    0    0    0  501 -0.00000000000E+00  0.00000000000E+00  0.29744544003E+03  0.29744544004E+03  0.25500000000E-02 0.  1.
          2   -1    0    0  501    0  0.00000000000E+00 -0.00000000000E+00 -0.30828920917E+04  0.30828920917E+04  0.25500000000E-02 0. -1.
    8880023    1    1    2    0    0 -0.76005654266E+02  0.55777396251E+03 -0.26408467935E+04  0.27793471618E+04  0.65864270000E+03 0. -1.
    8880022    1    1    2    0    0  0.76005654266E+02 -0.55777396251E+03 -0.14459985812E+03  0.60099036991E+03  0.15294330000E+03 0.  0.
<mgrwt>
<rscale>  0 0.78483662E+03</rscale>
<asrwt>0</asrwt>
<pdfrwt beam="1">  1        2 0.47429107E+00 0.86642880E+03</pdfrwt>
<pdfrwt beam="2">  1       -2 0.45760839E-01 0.86642880E+03</pdfrwt>
<totfact> 0.73082815E+00</totfact>
</mgrwt>
</event>
<event>
 4    1  0.2089815E-007  0.1206672E+04  0.7818608E-02  0.9150664E-01
         -2   -1    0    0    0  501 -0.00000000000E+00  0.00000000000E+00  0.15559398303E+04  0.15559398303E+04  0.25500000000E-02 0.  1.
          2   -1    0    0  501    0  0.00000000000E+00 -0.00000000000E+00 -0.10458298109E+04  0.10458298109E+04  0.25500000000E-02 0. -1.
    8880023    1    1    2    0    0  0.39536022233E+03  0.93055728006E+03 -0.35987505647E+03  0.12591929238E+04  0.65864270000E+03 0.  0.
    8880022    1    1    2    0    0 -0.39536022233E+03 -0.93055728006E+03  0.86998507581E+03  0.13425767174E+04  0.15294330000E+03 0.  0.
<mgrwt>
<rscale>  0 0.11577493E+04</rscale>
<asrwt>0</asrwt>
<pdfrwt beam="1">  1        2 0.16089689E+00 0.12066718E+04</pdfrwt>
<pdfrwt beam="2">  1       -2 0.23937536E+00 0.12066718E+04</pdfrwt>
<totfact> 0.17118146E+00</totfact>
</mgrwt>
</event>
<event>
 4    1  0.2089815E-007  0.1040420E+04  0.7818608E-02  0.9330487E-01
         -2   -1    0    0    0  501 -0.00000000000E+00  0.00000000000E+00  0.10264733334E+04  0.10264733334E+04  0.25500000000E-02 0.  1.
          2   -1    0    0  501    0  0.00000000000E+00 -0.00000000000E+00 -0.14920173634E+04  0.14920173634E+04  0.25500000000E-02 0. -1.
    8880023    1    1    2    0    0  0.65294621641E+03  0.47151416197E+03 -0.10757205522E+04  0.14965457825E+04  0.65864270000E+03 0. -1.
    8880022    1    1    2    0    0 -0.65294621641E+03 -0.47151416197E+03  0.61017652219E+03  0.10219449142E+04  0.15294330000E+03 0.  0.
<mgrwt>
<rscale>  0 0.98023978E+03</rscale>
<asrwt>0</asrwt>
<pdfrwt beam="1">  1        2 0.22954113E+00 0.10404204E+04</pdfrwt>
<pdfrwt beam="2">  1       -2 0.15791897E+00 0.10404204E+04</pdfrwt>
<totfact> 0.33073659E+00</totfact>
</mgrwt>
</event>
<event>
 4    1  0.2089815E-007  0.7352999E+03  0.7818608E-02  0.9873856E-01
         -2   -1    0    0    0  501 -0.00000000000E+00  0.00000000000E+00  0.33961726900E+03  0.33961726901E+03  0.25500000000E-02 0.  1.
          2   -1    0    0  501    0  0.00000000000E+00 -0.00000000000E+00 -0.25819945642E+04  0.25819945642E+04  0.25500000000E-02 0. -1.
    8880023    1    1    2    0    0 -0.24392064821E+03 -0.21762004616E+03 -0.24129045373E+04  0.25224540193E+04  0.65864270000E+03 0. -1.
    8880022    1    1    2    0    0  0.24392064821E+03  0.21762004616E+03  0.17052724207E+03  0.39915781393E+03  0.15294330000E+03 0.  0.
<mgrwt>
<rscale>  0 0.61545249E+03</rscale>
<asrwt>0</asrwt>
<pdfrwt beam="1">  1        2 0.39722992E+00 0.73529992E+03</pdfrwt>
<pdfrwt beam="2">  1       -2 0.52248812E-01 0.73529992E+03</pdfrwt>
<totfact> 0.11353008E+01</totfact>
</mgrwt>
</event>
<event>
 4    1  0.2089815E-007  0.8398363E+03  0.7818608E-02  0.9630489E-01
         -2   -1    0    0    0  501 -0.00000000000E+00  0.00000000000E+00  0.19920788618E+04  0.19920788619E+04  0.25500000000E-02 0.  1.
          2   -1    0    0  501    0  0.00000000000E+00 -0.00000000000E+00 -0.52395430112E+03  0.52395430112E+03  0.25500000000E-02 0. -1.
    8880023    1    1    2    0    0  0.24461229690E+02  0.52049642996E+03 -0.11007139982E+03  0.84701877469E+03  0.65864270000E+03 0. -1.
    8880022    1    1    2    0    0 -0.24461229690E+02 -0.52049642996E+03  0.15781959606E+04  0.16690143883E+04  0.15294330000E+03 0.  0.
<mgrwt>
<rscale>  0 0.75310677E+03</rscale>
<asrwt>0</asrwt>
<pdfrwt beam="1">  1        2 0.80608355E-01 0.83983635E+03</pdfrwt>
<pdfrwt beam="2">  1       -2 0.30647367E+00 0.83983635E+03</pdfrwt>
<totfact> 0.17403964E+00</totfact>
</mgrwt>
</event>
<event>
 4    1  0.2089815E-007  0.1258160E+04  0.7818608E-02  0.9102561E-01
          2   -1    0    0  501    0  0.00000000000E+00  0.00000000000E+00  0.13886687555E+04  0.13886687555E+04  0.25500000000E-02 0. -1.
         -2   -1    0    0    0  501 -0.00000000000E+00 -0.00000000000E+00 -0.18969500557E+04  0.18969500558E+04  0.25500000000E-02 0.  1.
    8880023    1    1    2    0    0 -0.93214264758E+03  0.52940231480E+03  0.87234905151E+03  0.15309996082E+04  0.65864270000E+03 0.  0.
    8880022    1    1    2    0    0  0.93214264758E+03 -0.52940231480E+03 -0.13806303518E+04  0.17546192030E+04  0.15294330000E+03 0.  0.
<mgrwt>
<rscale>  0 0.12118344E+04</rscale>
<asrwt>0</asrwt>
<pdfrwt beam="1">  1        2 0.21364135E+00 0.12581601E+04</pdfrwt>
<pdfrwt beam="2">  1       -2 0.29183847E+00 0.12581601E+04</pdfrwt>
<totfact> 0.50690091E-01</totfact>
</mgrwt>
</event>
<event>
 4    1  0.2089815E-007  0.8356993E+03  0.7818608E-02  0.9638344E-01
         -2   -1    0    0    0  501 -0.00000000000E+00  0.00000000000E+00  0.80608719010E+03  0.80608719010E+03  0.25500000000E-02 0.  1.
          2   -1    0    0  501    0  0.00000000000E+00 -0.00000000000E+00 -0.17687488869E+04  0.17687488869E+04  0.25500000000E-02 0. -1.
    8880023    1    1    2    0    0  0.46837064256E+03  0.21263115330E+03 -0.15612950103E+04  0.17708854795E+04  0.65864270000E+03 0. -1.
    8880022    1    1    2    0    0 -0.46837064256E+03 -0.21263115330E+03  0.59863331349E+03  0.80395059748E+03  0.15294330000E+03 0.  0.
<mgrwt>
<rscale>  0 0.74809511E+03</rscale>
<asrwt>0</asrwt>
<pdfrwt beam="1">  1        2 0.27211521E+00 0.83569927E+03</pdfrwt>
<pdfrwt beam="2">  1       -2 0.12401341E+00 0.83569927E+03</pdfrwt>
<totfact> 0.44699790E+00</totfact>
</mgrwt>
</event>
<event>
 4    1  0.2089815E-007  0.8346602E+03  0.7818608E-02  0.9640332E-01
          2   -1    0    0  501    0  0.00000000000E+00  0.00000000000E+00  0.13949082905E+04  0.13949082905E+04  0.25500000000E-02 0. -1.
         -2   -1    0    0    0  501 -0.00000000000E+00 -0.00000000000E+00 -0.23402183444E+04  0.23402183444E+04  0.25500000000E-02 0.  1.
    8880023    1    1    2    0    0  0.51008857220E+03  0.51546586404E+02  0.12347422546E+04  0.14903845288E+04  0.65864270000E+03 0.  0.
    8880022    1    1    2    0    0 -0.51008857220E+03 -0.51546586404E+02 -0.21800523085E+04  0.22447421061E+04  0.15294330000E+03 0.  1.
<mgrwt>
<rscale>  0 0.74683279E+03</rscale>
<asrwt>0</asrwt>
<pdfrwt beam="1">  1        2 0.21460128E+00 0.83466018E+03</pdfrwt>
<pdfrwt beam="2">  1       -2 0.36003359E+00 0.83466018E+03</pdfrwt>
<totfact> 0.20503888E-01</totfact>
</mgrwt>
</event>
<event>
 4    1  0.2089815E-007  0.8032013E+03  0.7818608E-02  0.9703917E-01
          2   -1    0    0  501    0  0.00000000000E+00  0.00000000000E+00  0.13898998132E+04  0.13898998132E+04  0.25500000000E-02 0. -1.
         -2   -1    0    0    0  501 -0.00000000000E+00 -0.00000000000E+00 -0.50878491351E+03  0.50878491352E+03  0.25500000000E-02 0.  1.
    8880023    1    1    2    0    0  0.45100085851E+03  0.88996070290E+02  0.11041109680E+04  0.13653546465E+04  0.65864270000E+03 0. -1.
    8880022    1    1    2    0    0 -0.45100085851E+03 -0.88996070290E+02 -0.22299606832E+03  0.53333008016E+03  0.15294330000E+03 0.  0.
<mgrwt>
<rscale>  0 0.70784082E+03</rscale>
<asrwt>0</asrwt>
<pdfrwt beam="1">  1        2 0.21383073E+00 0.80320127E+03</pdfrwt>
<pdfrwt beam="2">  1       -2 0.78274605E-01 0.80320127E+03</pdfrwt>
<totfact> 0.21626159E+01</totfact>
</mgrwt>
</event>
<event>
 4    1  0.2089815E-007  0.1346471E+04  0.7818608E-02  0.9026433E-01
         -2   -1    0    0    0  501 -0.00000000000E+00  0.00000000000E+00  0.19142945987E+04  0.19142945987E+04  0.25500000000E-02 0.  1.
          2   -1    0    0  501    0  0.00000000000E+00 -0.00000000000E+00 -0.12608493582E+04  0.12608493582E+04  0.25500000000E-02 0. -1.
    8880023    1    1    2    0    0  0.74542826819E+03 -0.90747492348E+03 -0.57920216776E+03  0.14657623945E+04  0.65864270000E+03 0. -1.
    8880022    1    1    2    0    0 -0.74542826819E+03  0.90747492348E+03  0.12326474083E+04  0.17093815624E+04  0.15294330000E+03 0.  0.
<mgrwt>
<rscale>  0 0.13039567E+04</rscale>
<asrwt>0</asrwt>
<pdfrwt beam="1">  1        2 0.19397682E+00 0.13464710E+04</pdfrwt>
<pdfrwt beam="2">  1       -2 0.29450686E+00 0.13464710E+04</pdfrwt>
<totfact> 0.57398727E-01</totfact>
</mgrwt>
</event>
<event>
 4    1  0.2089815E-007  0.9007600E+03  0.7818608E-02  0.9524813E-01
          2   -1    0    0  501    0  0.00000000000E+00  0.00000000000E+00  0.60858979214E+03  0.60858979215E+03  0.25500000000E-02 0. -1.
         -2   -1    0    0    0  501 -0.00000000000E+00 -0.00000000000E+00 -0.21451484330E+04  0.21451484330E+04  0.25500000000E-02 0.  1.
    8880023    1    1    2    0    0 -0.53353616309E+03 -0.30479104076E+03  0.18487789303E+03  0.91953708867E+03  0.65864270000E+03 0. -1.
    8880022    1    1    2    0    0  0.53353616309E+03  0.30479104076E+03 -0.17214365339E+04  0.18342011365E+04  0.15294330000E+03 0.  0.
<mgrwt>
<rscale>  0 0.82478948E+03</rscale>
<asrwt>0</asrwt>
<pdfrwt beam="1">  1        2 0.93629200E-01 0.90076002E+03</pdfrwt>
<pdfrwt beam="2">  1       -2 0.33002283E+00 0.90076002E+03</pdfrwt>
<totfact> 0.10365454E+00</totfact>
</mgrwt>
</event>
<event>
 4    1  0.2089815E-007  0.1529581E+04  0.7818608E-02  0.8889025E-01
          2   -1    0    0  501    0  0.00000000000E+00  0.00000000000E+00  0.22909742459E+04  0.22909742459E+04  0.25500000000E-02 0. -1.
         -2   -1    0    0    0  501 -0.00000000000E+00 -0.00000000000E+00 -0.12475412431E+04  0.12475412431E+04  0.25500000000E-02 0.  1.
    8880023    1    1    2    0    0 -0.73268821751E+03 -0.11700327534E+04  0.14329864026E+04  0.20959649101E+04  0.65864270000E+03 0.  0.
    8880022    1    1    2    0    0  0.73268821751E+03  0.11700327534E+04 -0.38955339980E+03  0.14425505788E+04  0.15294330000E+03 0.  0.
<mgrwt>
<rscale>  0 0.14931436E+04</rscale>
<asrwt>0</asrwt>
<pdfrwt beam="1">  1        2 0.35245757E+00 0.15295813E+04</pdfrwt>
<pdfrwt beam="2">  1       -2 0.19192942E+00 0.15295813E+04</pdfrwt>
<totfact> 0.64663746E-01</totfact>
</mgrwt>
</event>
<event>
 4    1  0.2089815E-007  0.1606921E+04  0.7818608E-02  0.8837607E-01
         -2   -1    0    0    0  501 -0.00000000000E+00  0.00000000000E+00  0.14976685227E+04  0.14976685227E+04  0.25500000000E-02 0.  1.
          2   -1    0    0  501    0  0.00000000000E+00 -0.00000000000E+00 -0.19670214798E+04  0.19670214798E+04  0.25500000000E-02 0. -1.
    8880023    1    1    2    0    0  0.14473560960E+04  0.23139581056E+03 -0.10065505331E+04  0.18961376194E+04  0.65864270000E+03 0.  0.
    8880022    1    1    2    0    0 -0.14473560960E+04 -0.23139581056E+03  0.53719757605E+03  0.15685523831E+04  0.15294330000E+03 0.  0.
<mgrwt>
<rscale>  0 0.15725254E+04</rscale>
<asrwt>0</asrwt>
<pdfrwt beam="1">  1        2 0.30261869E+00 0.16069206E+04</pdfrwt>
<pdfrwt beam="2">  1       -2 0.23041054E+00 0.16069206E+04</pdfrwt>
<totfact> 0.54970466E-01</totfact>
</mgrwt>
</event>
<event>
 4    1  0.2089815E-007  0.1266463E+04  0.7818608E-02  0.9095076E-01
         -2   -1    0    0    0  501 -0.00000000000E+00  0.00000000000E+00  0.12456860171E+04  0.12456860171E+04  0.25500000000E-02 0.  1.
          2   -1    0    0  501    0  0.00000000000E+00 -0.00000000000E+00 -0.20882879709E+04  0.20882879709E+04  0.25500000000E-02 0. -1.
    8880023    1    1    2    0    0 -0.64633062484E+03 -0.86739615921E+03 -0.15732646893E+04  0.20196760539E+04  0.65864270000E+03 0.  0.
    8880022    1    1    2    0    0  0.64633062484E+03  0.86739615921E+03  0.73066273547E+03  0.13142979341E+04  0.15294330000E+03 0.  0.
<mgrwt>
<rscale>  0 0.12205281E+04</rscale>
<asrwt>0</asrwt>
<pdfrwt beam="1">  1        2 0.32127507E+00 0.12664634E+04</pdfrwt>
<pdfrwt beam="2">  1       -2 0.19164400E+00 0.12664634E+04</pdfrwt>
<totfact> 0.86902184E-01</totfact>
</mgrwt>
</event>
<event>
 4    1  0.2089815E-007  0.9590530E+03  0.7818608E-02  0.9437207E-01
         -2   -1    0    0    0  501 -0.00000000000E+00  0.00000000000E+00  0.88089571418E+03  0.88089571419E+03  0.25500000000E-02 0.  1.
          2   -1    0    0  501    0  0.00000000000E+00 -0.00000000000E+00 -0.91009704362E+03  0.91009704363E+03  0.25500000000E-02 0. -1.
    8880023    1    1    2    0    0  0.66139762514E+03 -0.22028523059E+03 -0.33314839162E+03  0.10152686632E+04  0.65864270000E+03 0. -1.
    8880022    1    1    2    0    0 -0.66139762514E+03  0.22028523059E+03  0.30394706218E+03  0.77572409462E+03  0.15294330000E+03 0.  0.
<mgrwt>
<rscale>  0 0.89075954E+03</rscale>
<asrwt>0</asrwt>
<pdfrwt beam="1">  1        2 0.14001493E+00 0.95905297E+03</pdfrwt>
<pdfrwt beam="2">  1       -2 0.13552242E+00 0.95905297E+03</pdfrwt>
<totfact> 0.11224565E+01</totfact>
</mgrwt>
</event>
<event>
 4    1  0.3254620E-007  0.1522894E+04  0.7818608E-02  0.8893637E-01
         -2   -1    0    0    0  501 -0.00000000000E+00  0.00000000000E+00  0.14860505607E+04  0.14860505607E+04  0.25500000000E-02 0.  1.
          2   -1    0    0  501    0  0.00000000000E+00 -0.00000000000E+00 -0.30093404890E+04  0.30093404890E+04  0.25500000000E-02 0. -1.
    8880023    1    1    2    0    0  0.36681763864E+03  0.13231933143E+04 -0.24120848337E+04  0.28526056822E+04  0.65864270000E+03 0.  0.
    8880022    1    1    2    0    0 -0.36681763864E+03 -0.13231933143E+04  0.88879490542E+03  0.16427853676E+04  0.15294330000E+03 0.  0.
<mgrwt>
<rscale>  0 0.14862673E+04</rscale>
<asrwt>0</asrwt>
<pdfrwt beam="1">  1        2 0.46297546E+00 0.15228939E+04</pdfrwt>
<pdfrwt beam="2">  1       -2 0.22862316E+00 0.15228939E+04</pdfrwt>
<totfact> 0.14058512E-01</totfact>
</mgrwt>
</event>
<event>
 4    1  0.2089815E-007  0.1084350E+04  0.7818608E-02  0.9278683E-01
          2   -1    0    0  501    0  0.00000000000E+00  0.00000000000E+00  0.38049800307E+04  0.38049800307E+04  0.25500000000E-02 0. -1.
         -2   -1    0    0    0  501 -0.00000000000E+00 -0.00000000000E+00 -0.64585473963E+03  0.64585473963E+03  0.25500000000E-02 0.  1.
    8880023    1    1    2    0    0  0.71768859644E+03 -0.47636994402E+03  0.33790270614E+04  0.35487517993E+04  0.65864270000E+03 0. -1.
    8880022    1    1    2    0    0 -0.71768859644E+03  0.47636994402E+03 -0.21990177034E+03  0.90208297103E+03  0.15294330000E+03 0.  0.
<mgrwt>
<rscale>  0 0.10276921E+04</rscale>
<asrwt>0</asrwt>
<pdfrwt beam="1">  1        2 0.58538155E+00 0.10843502E+04</pdfrwt>
<pdfrwt beam="2">  1       -2 0.99362267E-01 0.10843502E+04</pdfrwt>
<totfact> 0.41960817E-01</totfact>
</mgrwt>
</event>
<event>
 4    1  0.2089815E-007  0.1120545E+04  0.7818608E-02  0.9238519E-01
         -2   -1    0    0    0  501 -0.00000000000E+00  0.00000000000E+00  0.49680810877E+03  0.49680810878E+03  0.25500000000E-02 0.  1.
          2   -1    0    0  501    0  0.00000000000E+00 -0.00000000000E+00 -0.37106722043E+04  0.37106722043E+04  0.25500000000E-02 0. -1.
    8880023    1    1    2    0    0  0.31798508440E+03 -0.84893834244E+03 -0.30811734714E+04  0.32786050373E+04  0.65864270000E+03 0. -1.
    8880022    1    1    2    0    0 -0.31798508440E+03  0.84893834244E+03 -0.13269062404E+03  0.92887527574E+03  0.15294330000E+03 0.  0.
<mgrwt>
<rscale>  0 0.10664538E+04</rscale>
<asrwt>0</asrwt>
<pdfrwt beam="1">  1        2 0.57087263E+00 0.11205450E+04</pdfrwt>
<pdfrwt beam="2">  1       -2 0.76432019E-01 0.11205450E+04</pdfrwt>
<totfact> 0.89642638E-01</totfact>
</mgrwt>
</event>
<event>
 4    1  0.2089815E-007  0.1753256E+04  0.7818608E-02  0.8748844E-01
          2   -1    0    0  501    0  0.00000000000E+00  0.00000000000E+00  0.15683814304E+04  0.15683814304E+04  0.25500000000E-02 0. -1.
         -2   -1    0    0    0  501 -0.00000000000E+00 -0.00000000000E+00 -0.27354522215E+04  0.27354522215E+04  0.25500000000E-02 0.  1.
    8880023    1    1    2    0    0  0.14422223080E+04 -0.74839273247E+03  0.64227083869E+03  0.18671954650E+04  0.65864270000E+03 0.  0.
    8880022    1    1    2    0    0 -0.14422223080E+04  0.74839273247E+03 -0.18093416297E+04  0.24366381869E+04  0.15294330000E+03 0.  0.
<mgrwt>
<rscale>  0 0.17221278E+04</rscale>
<asrwt>0</asrwt>
<pdfrwt beam="1">  1        2 0.24128945E+00 0.17532561E+04</pdfrwt>
<pdfrwt beam="2">  1       -2 0.42083880E+00 0.17532561E+04</pdfrwt>
<totfact> 0.57471453E-02</totfact>
</mgrwt>
</event>
<event>
 4    1  0.2089815E-007  0.6703153E+03  0.7818608E-02  0.1015438E+00
          2   -1    0    0  501    0  0.00000000000E+00  0.00000000000E+00  0.33311962623E+04  0.33311962623E+04  0.25500000000E-02 0. -1.
         -2   -1    0    0    0  501 -0.00000000000E+00 -0.00000000000E+00 -0.13462129282E+03  0.13462129284E+03  0.25500000000E-02 0.  1.
    8880023    1    1    2    0    0  0.47596007293E+02  0.11509554566E+03  0.31990882088E+04  0.32685605301E+04  0.65864270000E+03 0. -1.
    8880022    1    1    2    0    0 -0.47596007293E+02 -0.11509554566E+03 -0.25132393912E+01  0.19725702504E+03  0.15294330000E+03 0.  0.
<mgrwt>
<rscale>  0 0.49369490E+03</rscale>
<asrwt>0</asrwt>
<pdfrwt beam="1">  1        2 0.51249169E+00 0.67031528E+03</pdfrwt>
<pdfrwt beam="2">  1       -2 0.20710970E-01 0.67031528E+03</pdfrwt>
<totfact> 0.23118432E+01</totfact>
</mgrwt>
</event>
<event>
 4    1  0.2089815E-007  0.8943060E+03  0.7818608E-02  0.9535235E-01
         -2   -1    0    0    0  501 -0.00000000000E+00  0.00000000000E+00  0.69894017117E+03  0.69894017118E+03  0.25500000000E-02 0.  1.
          2   -1    0    0  501    0  0.00000000000E+00 -0.00000000000E+00 -0.99158040023E+03  0.99158040024E+03  0.25500000000E-02 0. -1.
    8880023    1    1    2    0    0  0.30225573545E+03 -0.52403665314E+03 -0.51030279374E+03  0.10296562975E+04  0.65864270000E+03 0.  0.
    8880022    1    1    2    0    0 -0.30225573545E+03  0.52403665314E+03  0.21766256468E+03  0.66086427390E+03  0.15294330000E+03 0.  0.
<mgrwt>
<rscale>  0 0.81735204E+03</rscale>
<asrwt>0</asrwt>
<pdfrwt beam="1">  1        2 0.15255083E+00 0.89430596E+03</pdfrwt>
<pdfrwt beam="2">  1       -2 0.10752926E+00 0.89430596E+03</pdfrwt>
<totfact> 0.17745982E+01</totfact>
</mgrwt>
</event>
<event>
 4    1  0.2089815E-007  0.6928511E+03  0.7818608E-02  0.1002826E+00
         -2   -1    0    0    0  501 -0.00000000000E+00  0.00000000000E+00  0.60913687986E+03  0.60913687987E+03  0.25500000000E-02 0.  1.
          2   -1    0    0  501    0  0.00000000000E+00 -0.00000000000E+00 -0.83562874991E+03  0.83562874992E+03  0.25500000000E-02 0. -1.
    8880023    1    1    2    0    0  0.74488814824E+02  0.20170230382E+03 -0.64723194482E+03  0.94813068696E+03  0.65864270000E+03 0. -1.
    8880022    1    1    2    0    0 -0.74488814824E+02 -0.20170230382E+03  0.42074007477E+03  0.49663494282E+03  0.15294330000E+03 0.  0.
<mgrwt>
<rscale>  0 0.54428308E+03</rscale>
<asrwt>0</asrwt>
<pdfrwt beam="1">  1        2 0.12855827E+00 0.69285107E+03</pdfrwt>
<pdfrwt beam="2">  1       -2 0.93713366E-01 0.69285107E+03</pdfrwt>
<totfact> 0.31875551E+01</totfact>
</mgrwt>
</event>
<event>
 4    1  0.2089815E-007  0.8228579E+03  0.7818608E-02  0.9663392E-01
         -2   -1    0    0    0  501 -0.00000000000E+00  0.00000000000E+00  0.45167118677E+03  0.45167118678E+03  0.25500000000E-02 0.  1.
          2   -1    0    0  501    0  0.00000000000E+00 -0.00000000000E+00 -0.17145686894E+04  0.17145686894E+04  0.25500000000E-02 0. -1.
    8880023    1    1    2    0    0  0.39052209211E+03  0.30129285493E+03 -0.14071337815E+04  0.16300676594E+04  0.65864270000E+03 0.  0.
    8880022    1    1    2    0    0 -0.39052209211E+03 -0.30129285493E+03  0.14423627891E+03  0.53617221676E+03  0.15294330000E+03 0.  0.
<mgrwt>
<rscale>  0 0.73238886E+03</rscale>
<asrwt>0</asrwt>
<pdfrwt beam="1">  1        2 0.26377980E+00 0.82285788E+03</pdfrwt>
<pdfrwt beam="2">  1       -2 0.69487876E-01 0.82285788E+03</pdfrwt>
<totfact> 0.18525651E+01</totfact>
</mgrwt>
</event>
<event>
 4    1  0.2519822E-007  0.9852490E+03  0.7818608E-02  0.9401116E-01
          2   -1    0    0  501    0  0.00000000000E+00  0.00000000000E+00  0.17963989830E+04  0.17963989830E+04  0.25500000000E-02 0. -1.
         -2   -1    0    0    0  501 -0.00000000000E+00 -0.00000000000E+00 -0.16511870874E+04  0.16511870874E+04  0.25500000000E-02 0.  1.
    8880023    1    1    2    0    0 -0.27114431716E+03 -0.68072476106E+03  0.15611023852E+04  0.18460109167E+04  0.65864270000E+03 0. -1.
    8880022    1    1    2    0    0  0.27114431716E+03  0.68072476106E+03 -0.14158904897E+04  0.16015751537E+04  0.15294330000E+03 0.  0.
<mgrwt>
<rscale>  0 0.91983898E+03</rscale>
<asrwt>0</asrwt>
<pdfrwt beam="1">  1        2 0.27636907E+00 0.98524903E+03</pdfrwt>
<pdfrwt beam="2">  1       -2 0.25402878E+00 0.98524903E+03</pdfrwt>
<totfact> 0.52817673E-01</totfact>
</mgrwt>
</event>
<event>
 4    1  0.2089815E-007  0.1153278E+04  0.7818608E-02  0.9203934E-01
         -2   -1    0    0    0  501 -0.00000000000E+00  0.00000000000E+00  0.12782918871E+04  0.12782918871E+04  0.25500000000E-02 0.  1.
          2   -1    0    0  501    0  0.00000000000E+00 -0.00000000000E+00 -0.10552940607E+04  0.10552940607E+04  0.25500000000E-02 0. -1.
    8880023    1    1    2    0    0  0.91924840252E+03 -0.22632178508E+03 -0.36383382161E+03  0.12093074183E+04  0.65864270000E+03 0. -1.
    8880022    1    1    2    0    0 -0.91924840252E+03  0.22632178508E+03  0.58683164798E+03  0.11242785296E+04  0.15294330000E+03 0.  0.
<mgrwt>
<rscale>  0 0.11012910E+04</rscale>
<asrwt>0</asrwt>
<pdfrwt beam="1">  1        2 0.16235293E+00 0.11532777E+04</pdfrwt>
<pdfrwt beam="2">  1       -2 0.19666029E+00 0.11532777E+04</pdfrwt>
<totfact> 0.31736577E+00</totfact>
</mgrwt>
</event>
<event>
 4    1  0.2089815E-007  0.6817584E+03  0.7818608E-02  0.1008346E+00
          2   -1    0    0  501    0  0.00000000000E+00  0.00000000000E+00  0.25790102313E+04  0.25790102313E+04  0.25500000000E-02 0. -1.
         -2   -1    0    0    0  501 -0.00000000000E+00 -0.00000000000E+00 -0.21134756895E+03  0.21134756896E+03  0.25500000000E-02 0.  1.
    8880023    1    1    2    0    0 -0.16095581593E+03  0.71256581794E+02  0.24499800228E+04  0.25430683423E+04  0.65864270000E+03 0. -1.
    8880022    1    1    2    0    0  0.16095581593E+03 -0.71256581794E+02 -0.82317360530E+02  0.24728945790E+03  0.15294330000E+03 0.  0.
<mgrwt>
<rscale>  0 0.52137319E+03</rscale>
<asrwt>0</asrwt>
<pdfrwt beam="1">  1        2 0.39677082E+00 0.68175837E+03</pdfrwt>
<pdfrwt beam="2">  1       -2 0.32515010E-01 0.68175837E+03</pdfrwt>
<totfact> 0.29156124E+01</totfact>
</mgrwt>
</event>
<event>
 4    1  0.2089815E-007  0.1202972E+04  0.7818608E-02  0.9154238E-01
          2   -1    0    0  501    0  0.00000000000E+00  0.00000000000E+00  0.21116216179E+04  0.21116216179E+04  0.25500000000E-02 0. -1.
         -2   -1    0    0    0  501 -0.00000000000E+00 -0.00000000000E+00 -0.60429227556E+03  0.60429227557E+03  0.25500000000E-02 0.  1.
    8880023    1    1    2    0    0 -0.42142751175E+03 -0.91418321014E+03  0.56686506052E+03  0.13298414539E+04  0.65864270000E+03 0.  0.
    8880022    1    1    2    0    0  0.42142751175E+03  0.91418321014E+03  0.94046428178E+03  0.13860724395E+04  0.15294330000E+03 0.  0.
<mgrwt>
<rscale>  0 0.11538506E+04</rscale>
<asrwt>0</asrwt>
<pdfrwt beam="1">  1        2 0.32486486E+00 0.12029723E+04</pdfrwt>
<pdfrwt beam="2">  1       -2 0.92968043E-01 0.12029723E+04</pdfrwt>
<totfact> 0.55627140E+00</totfact>
</mgrwt>
</event>
<event>
 4    1  0.2089815E-007  0.1387885E+04  0.7818608E-02  0.8993154E-01
          2   -1    0    0  501    0  0.00000000000E+00  0.00000000000E+00  0.28125951516E+04  0.28125951516E+04  0.25500000000E-02 0. -1.
         -2   -1    0    0    0  501 -0.00000000000E+00 -0.00000000000E+00 -0.80143713642E+03  0.80143713642E+03  0.25500000000E-02 0.  1.
    8880023    1    1    2    0    0 -0.11919258764E+04  0.26781745095E+03  0.19339715376E+04  0.23804347494E+04  0.65864270000E+03 0.  0.
    8880022    1    1    2    0    0  0.11919258764E+04 -0.26781745095E+03  0.77186477588E+02  0.12335975386E+04  0.15294330000E+03 0.  0.
<mgrwt>
<rscale>  0 0.13469313E+04</rscale>
<asrwt>0</asrwt>
<pdfrwt beam="1">  1        2 0.43270696E+00 0.13878846E+04</pdfrwt>
<pdfrwt beam="2">  1       -2 0.12329802E+00 0.13878846E+04</pdfrwt>
<totfact> 0.10850627E+00</totfact>
</mgrwt>
</event>
<event>
 4    1  0.2089815E-007  0.7289625E+03  0.7818608E-02  0.9893350E-01
          2   -1    0    0  501    0  0.00000000000E+00  0.00000000000E+00  0.15134722837E+04  0.15134722837E+04  0.25500000000E-02 0. -1.
         -2   -1    0    0    0  501 -0.00000000000E+00 -0.00000000000E+00 -0.67836162142E+03  0.67836162142E+03  0.25500000000E-02 0.  1.
    8880023    1    1    2    0    0  0.30022523649E+03  0.86261180973E+02  0.13711295900E+04  0.15528627573E+04  0.65864270000E+03 0. -1.
    8880022    1    1    2    0    0 -0.30022523649E+03 -0.86261180973E+02 -0.53601892771E+03  0.63897114790E+03  0.15294330000E+03 0.  0.
<mgrwt>
<rscale>  0 0.60584656E+03</rscale>
<asrwt>0</asrwt>
<pdfrwt beam="1">  1        2 0.23284189E+00 0.72896254E+03</pdfrwt>
<pdfrwt beam="2">  1       -2 0.10436333E+00 0.72896254E+03</pdfrwt>
<totfact> 0.95640209E+00</totfact>
</mgrwt>
</event>
<event>
 4    1  0.2089815E-007  0.1003234E+04  0.7818608E-02  0.9377339E-01
         -2   -1    0    0    0  501 -0.00000000000E+00  0.00000000000E+00  0.15780024373E+04  0.15780024373E+04  0.25500000000E-02 0.  1.
          2   -1    0    0  501    0  0.00000000000E+00 -0.00000000000E+00 -0.10970277972E+04  0.10970277972E+04  0.25500000000E-02 0. -1.
    8880023    1    1    2    0    0  0.51514433114E+03 -0.55434197540E+03 -0.72871815435E+03  0.12399633310E+04  0.65864270000E+03 0.  0.
    8880022    1    1    2    0    0 -0.51514433114E+03  0.55434197540E+03  0.12096927944E+04  0.14350669034E+04  0.15294330000E+03 0.  0.
<mgrwt>
<rscale>  0 0.93964333E+03</rscale>
<asrwt>0</asrwt>
<pdfrwt beam="1">  1        2 0.16877351E+00 0.10032342E+04</pdfrwt>
<pdfrwt beam="2">  1       -2 0.24276961E+00 0.10032342E+04</pdfrwt>
<totfact> 0.15509643E+00</totfact>
</mgrwt>
</event>
<event>
 4    1  0.2089815E-007  0.1067046E+04  0.7818608E-02  0.9298665E-01
          2   -1    0    0  501    0  0.00000000000E+00  0.00000000000E+00  0.10118896922E+04  0.10118896922E+04  0.25500000000E-02 0. -1.
         -2   -1    0    0    0  501 -0.00000000000E+00 -0.00000000000E+00 -0.14608908359E+04  0.14608908359E+04  0.25500000000E-02 0.  1.
    8880023    1    1    2    0    0  0.41888033153E+03  0.72754184195E+03 -0.99561158743E+03  0.14593938821E+04  0.65864270000E+03 0.  1.
    8880022    1    1    2    0    0 -0.41888033153E+03 -0.72754184195E+03  0.54661044378E+03  0.10133866459E+04  0.15294330000E+03 0. -1.
<mgrwt>
<rscale>  0 0.10090590E+04</rscale>
<asrwt>0</asrwt>
<pdfrwt beam="1">  1        2 0.15567534E+00 0.10670464E+04</pdfrwt>
<pdfrwt beam="2">  1       -2 0.22475244E+00 0.10670464E+04</pdfrwt>
<totfact> 0.22518141E+00</totfact>
</mgrwt>
</event>
<event>
 4    1  0.2089815E-007  0.9152274E+03  0.7818608E-02  0.9502016E-01
          2   -1    0    0  501    0  0.00000000000E+00  0.00000000000E+00  0.29146496797E+04  0.29146496797E+04  0.25500000000E-02 0. -1.
         -2   -1    0    0    0  501 -0.00000000000E+00 -0.00000000000E+00 -0.46933360174E+03  0.46933360174E+03  0.25500000000E-02 0.  1.
    8880023    1    1    2    0    0 -0.33092679831E+03  0.54251126402E+03  0.25615166244E+04  0.27201118802E+04  0.65864270000E+03 0. -1.
    8880022    1    1    2    0    0  0.33092679831E+03 -0.54251126402E+03 -0.11620054642E+03  0.66387140127E+03  0.15294330000E+03 0.  0.
<mgrwt>
<rscale>  0 0.84135359E+03</rscale>
<asrwt>0</asrwt>
<pdfrwt beam="1">  1        2 0.44840765E+00 0.91522742E+03</pdfrwt>
<pdfrwt beam="2">  1       -2 0.72205169E-01 0.91522742E+03</pdfrwt>
<totfact> 0.35301549E+00</totfact>
</mgrwt>
</event>
<event>
 4    1  0.2089815E-007  0.1832573E+04  0.7818608E-02  0.8704729E-01
         -2   -1    0    0    0  501 -0.00000000000E+00  0.00000000000E+00  0.90538890870E+03  0.90538890870E+03  0.25500000000E-02 0.  1.
          2   -1    0    0  501    0  0.00000000000E+00 -0.00000000000E+00 -0.46625793854E+04  0.46625793854E+04  0.25500000000E-02 0. -1.
    8880023    1    1    2    0    0  0.14423392519E+04 -0.91878773337E+03 -0.33264096419E+04  0.37978052516E+04  0.65864270000E+03 0.  0.
    8880022    1    1    2    0    0 -0.14423392519E+04  0.91878773337E+03 -0.43078083476E+03  0.17701630425E+04  0.15294330000E+03 0.  0.
<mgrwt>
<rscale>  0 0.18029561E+04</rscale>
<asrwt>0</asrwt>
<pdfrwt beam="1">  1        2 0.71731989E+00 0.18325730E+04</pdfrwt>
<pdfrwt beam="2">  1       -2 0.13929060E+00 0.18325730E+04</pdfrwt>
<totfact> 0.28526490E-02</totfact>
</mgrwt>
</event>
<event>
 4    1  0.2089815E-007  0.1185643E+04  0.7818608E-02  0.9171206E-01
          2   -1    0    0  501    0  0.00000000000E+00  0.00000000000E+00  0.30156080726E+04  0.30156080726E+04  0.25500000000E-02 0. -1.
         -2   -1    0    0    0  501 -0.00000000000E+00 -0.00000000000E+00 -0.55413955897E+03  0.55413955897E+03  0.25500000000E-02 0.  1.
    8880023    1    1    2    0    0  0.30598895030E+03 -0.93718164607E+03  0.22597378566E+04  0.25518942106E+04  0.65864270000E+03 0. -1.
    8880022    1    1    2    0    0 -0.30598895030E+03  0.93718164607E+03  0.20173065698E+03  0.10178534209E+04  0.15294330000E+03 0.  0.
<mgrwt>
<rscale>  0 0.11355632E+04</rscale>
<asrwt>0</asrwt>
<pdfrwt beam="1">  1        2 0.46393970E+00 0.11856428E+04</pdfrwt>
<pdfrwt beam="2">  1       -2 0.85252240E-01 0.11856428E+04</pdfrwt>
<totfact> 0.20267175E+00</totfact>
</mgrwt>
</event>
<event>
 4    1  0.2089815E-007  0.6682678E+03  0.7818608E-02  0.1016936E+00
          2   -1    0    0  501    0  0.00000000000E+00  0.00000000000E+00  0.16991017037E+04  0.16991017038E+04  0.25500000000E-02 0. -1.
         -2   -1    0    0    0  501 -0.00000000000E+00 -0.00000000000E+00 -0.43548974619E+03  0.43548974620E+03  0.25500000000E-02 0.  1.
    8880023    1    1    2    0    0 -0.79249053935E+02 -0.80568080143E+02  0.16079184661E+04  0.17412592076E+04  0.65864270000E+03 0. -1.
    8880022    1    1    2    0    0  0.79249053935E+02  0.80568080143E+02 -0.34430650852E+03  0.39333224240E+03  0.15294330000E+03 0.  0.
<mgrwt>
<rscale>  0 0.48808603E+03</rscale>
<asrwt>0</asrwt>
<pdfrwt beam="1">  1        2 0.26140026E+00 0.66826779E+03</pdfrwt>
<pdfrwt beam="2">  1       -2 0.66998424E-01 0.66826779E+03</pdfrwt>
<totfact> 0.20864493E+01</totfact>
</mgrwt>
</event>
<event>
 4    1  0.2089815E-007  0.7717475E+03  0.7818608E-02  0.9775592E-01
         -2   -1    0    0    0  501 -0.00000000000E+00  0.00000000000E+00  0.85283910570E+03  0.85283910571E+03  0.25500000000E-02 0.  1.
          2   -1    0    0  501    0  0.00000000000E+00 -0.00000000000E+00 -0.65611025354E+03  0.65611025355E+03  0.25500000000E-02 0. -1.
    8880023    1    1    2    0    0  0.41732017439E+01  0.40220214453E+03 -0.32090467839E+03  0.83580739381E+03  0.65864270000E+03 0. -1.
    8880022    1    1    2    0    0 -0.41732017439E+01 -0.40220214453E+03  0.51763353055E+03  0.67314196544E+03  0.15294330000E+03 0.  0.
<mgrwt>
<rscale>  0 0.66689030E+03</rscale>
<asrwt>0</asrwt>
<pdfrwt beam="1">  1        2 0.10094004E+00 0.77174749E+03</pdfrwt>
<pdfrwt beam="2">  1       -2 0.13120602E+00 0.77174749E+03</pdfrwt>
<totfact> 0.19077020E+01</totfact>
</mgrwt>
</event>
<event>
 4    1  0.2089815E-007  0.7013956E+03  0.7818608E-02  0.9991460E-01
          2   -1    0    0  501    0  0.00000000000E+00  0.00000000000E+00  0.45261239784E+04  0.45261239784E+04  0.25500000000E-02 0. -1.
         -2   -1    0    0    0  501 -0.00000000000E+00 -0.00000000000E+00 -0.24311666769E+03  0.24311666770E+03  0.25500000000E-02 0.  1.
    8880023    1    1    2    0    0  0.16690887633E+03 -0.17403152890E+03  0.44037196459E+04  0.44592266675E+04  0.65864270000E+03 0. -1.
    8880022    1    1    2    0    0 -0.16690887633E+03  0.17403152890E+03 -0.12071233519E+03  0.31001397861E+03  0.15294330000E+03 0.  0.
<mgrwt>
<rscale>  0 0.56026274E+03</rscale>
<asrwt>0</asrwt>
<pdfrwt beam="1">  1        2 0.69632674E+00 0.70139557E+03</pdfrwt>
<pdfrwt beam="2">  1       -2 0.37402566E-01 0.70139557E+03</pdfrwt>
<totfact> 0.90407815E-01</totfact>
</mgrwt>
</event>
<event>
 4    1  0.2089815E-007  0.6599716E+03  0.7818608E-02  0.1024185E+00
          2   -1    0    0  501    0  0.00000000000E+00  0.00000000000E+00  0.45366709073E+03  0.45366709073E+03  0.25500000000E-02 0. -1.
         -2   -1    0    0    0  501 -0.00000000000E+00 -0.00000000000E+00 -0.19769765934E+04  0.19769765934E+04  0.25500000000E-02 0.  1.
    8880023    1    1    2    0    0 -0.15674829990E+02  0.38815587457E+02  0.20808858224E+03  0.69199957691E+03  0.65864270000E+03 0. -1.
    8880022    1    1    2    0    0  0.15674829990E+02 -0.38815587457E+02 -0.17313980849E+04  0.17386441072E+04  0.15294330000E+03 0.  0.
<mgrwt>
<rscale>  0 0.46205987E+03</rscale>
<asrwt>0</asrwt>
<pdfrwt beam="1">  1        2 0.69794938E-01 0.65997163E+03</pdfrwt>
<pdfrwt beam="2">  1       -2 0.30415024E+00 0.65997163E+03</pdfrwt>
<totfact> 0.21848920E+00</totfact>
</mgrwt>
</event>
<event>
 4    1  0.2089815E-007  0.7998363E+03  0.7818608E-02  0.9711150E-01
          2   -1    0    0  501    0  0.00000000000E+00  0.00000000000E+00  0.21093135390E+04  0.21093135390E+04  0.25500000000E-02 0. -1.
         -2   -1    0    0    0  501 -0.00000000000E+00 -0.00000000000E+00 -0.35129745510E+03  0.35129745511E+03  0.25500000000E-02 0.  1.
    8880023    1    1    2    0    0 -0.30429579776E+03 -0.33664807855E+03  0.18100751721E+04  0.19789164197E+04  0.65864270000E+03 0.  0.
    8880022    1    1    2    0    0  0.30429579776E+03  0.33664807855E+03 -0.52059088194E+02  0.48169457440E+03  0.15294330000E+03 0.  0.
<mgrwt>
<rscale>  0 0.70356779E+03</rscale>
<asrwt>0</asrwt>
<pdfrwt beam="1">  1        2 0.32450978E+00 0.79983628E+03</pdfrwt>
<pdfrwt beam="2">  1       -2 0.54045761E-01 0.79983628E+03</pdfrwt>
<totfact> 0.19270915E+01</totfact>
</mgrwt>
</event>
<event>
 4    1  0.2089815E-007  0.6628549E+03  0.7818608E-02  0.1021405E+00
          2   -1    0    0  501    0  0.00000000000E+00  0.00000000000E+00  0.10790045260E+04  0.10790045260E+04  0.25500000000E-02 0. -1.
         -2   -1    0    0    0  501 -0.00000000000E+00 -0.00000000000E+00 -0.95218580843E+03  0.95218580843E+03  0.25500000000E-02 0.  1.
    8880023    1    1    2    0    0  0.71810041258E+02 -0.20242004400E+02  0.96787142086E+03  0.11730949298E+04  0.65864270000E+03 0. -1.
    8880022    1    1    2    0    0 -0.71810041258E+02  0.20242004400E+02 -0.84105270327E+03  0.85809540464E+03  0.15294330000E+03 0.  0.
<mgrwt>
<rscale>  0 0.47182947E+03</rscale>
<asrwt>0</asrwt>
<pdfrwt beam="1">  1        2 0.16600070E+00 0.66285491E+03</pdfrwt>
<pdfrwt beam="2">  1       -2 0.14649012E+00 0.66285491E+03</pdfrwt>
<totfact> 0.73871577E+00</totfact>
</mgrwt>
</event>
<event>
 4    1  0.2089815E-007  0.9300756E+03  0.7818608E-02  0.9479380E-01
         -2   -1    0    0    0  501 -0.00000000000E+00  0.00000000000E+00  0.53335537639E+03  0.53335537640E+03  0.25500000000E-02 0.  1.
          2   -1    0    0  501    0  0.00000000000E+00 -0.00000000000E+00 -0.19031254432E+04  0.19031254432E+04  0.25500000000E-02 0. -1.
    8880023    1    1    2    0    0  0.17959441081E+03  0.63164564052E+03 -0.14852276830E+04  0.17524102956E+04  0.65864270000E+03 0. -1.
    8880022    1    1    2    0    0 -0.17959441081E+03 -0.63164564052E+03  0.11545761622E+03  0.68407052395E+03  0.15294330000E+03 0.  0.
<mgrwt>
<rscale>  0 0.85821280E+03</rscale>
<asrwt>0</asrwt>
<pdfrwt beam="1">  1        2 0.29278853E+00 0.93007557E+03</pdfrwt>
<pdfrwt beam="2">  1       -2 0.82054674E-01 0.93007557E+03</pdfrwt>
<totfact> 0.99595054E+00</totfact>
</mgrwt>
</event>
<event>
 4    1  0.2089815E-007  0.8040667E+03  0.7818608E-02  0.9702071E-01
          2   -1    0    0  501    0  0.00000000000E+00  0.00000000000E+00  0.23207444128E+04  0.23207444128E+04  0.25500000000E-02 0. -1.
         -2   -1    0    0    0  501 -0.00000000000E+00 -0.00000000000E+00 -0.28512766715E+03  0.28512766716E+03  0.25500000000E-02 0.  1.
    8880023    1    1    2    0    0 -0.24168945762E+03  0.39280951923E+03  0.19542499553E+04  0.21132004652E+04  0.65864270000E+03 0. -1.
    8880022    1    1    2    0    0  0.24168945762E+03 -0.39280951923E+03  0.81366790320E+02  0.49267161467E+03  0.15294330000E+03 0.  0.
<mgrwt>
<rscale>  0 0.70893622E+03</rscale>
<asrwt>0</asrwt>
<pdfrwt beam="1">  1        2 0.35703761E+00 0.80406674E+03</pdfrwt>
<pdfrwt beam="2">  1       -2 0.43865794E-01 0.80406674E+03</pdfrwt>
<totfact> 0.22461587E+01</totfact>
</mgrwt>
</event>
<event>
 4    1  0.2089815E-007  0.7196337E+03  0.7818608E-02  0.9923827E-01
          2   -1    0    0  501    0  0.00000000000E+00  0.00000000000E+00  0.15606119393E+04  0.15606119393E+04  0.25500000000E-02 0. -1.
         -2   -1    0    0    0  501 -0.00000000000E+00 -0.00000000000E+00 -0.67080781034E+03  0.67080781035E+03  0.25500000000E-02 0.  1.
    8880023    1    1    2    0    0  0.17800987780E+03  0.22885580181E+03  0.14292441184E+04  0.16001910670E+04  0.65864270000E+03 0. -1.
    8880022    1    1    2    0    0 -0.17800987780E+03 -0.22885580181E+03 -0.53943998943E+03  0.63122868267E+03  0.15294330000E+03 0.  0.
<mgrwt>
<rscale>  0 0.59120286E+03</rscale>
<asrwt>0</asrwt>
<pdfrwt beam="1">  1        2 0.24009414E+00 0.71963373E+03</pdfrwt>
<pdfrwt beam="2">  1       -2 0.10320120E+00 0.71963373E+03</pdfrwt>
<totfact> 0.92628401E+00</totfact>
</mgrwt>
</event>
<event>
 4    1  0.2089815E-007  0.8937521E+03  0.7818608E-02  0.9536137E-01
          2   -1    0    0  501    0  0.00000000000E+00  0.00000000000E+00  0.87193828860E+03  0.87193828860E+03  0.25500000000E-02 0. -1.
         -2   -1    0    0    0  501 -0.00000000000E+00 -0.00000000000E+00 -0.12523219571E+04  0.12523219571E+04  0.25500000000E-02 0.  1.
    8880023    1    1    2    0    0 -0.17871495168E+03  0.57709929414E+03  0.51639097347E+03  0.10322075726E+04  0.65864270000E+03 0. -1.
    8880022    1    1    2    0    0  0.17871495168E+03 -0.57709929414E+03 -0.89677464198E+03  0.10920526731E+04  0.15294330000E+03 0.  0.
<mgrwt>
<rscale>  0 0.81671234E+03</rscale>
<asrwt>0</asrwt>
<pdfrwt beam="1">  1        2 0.13414435E+00 0.89375211E+03</pdfrwt>
<pdfrwt beam="2">  1       -2 0.19266492E+00 0.89375211E+03</pdfrwt>
<totfact> 0.45745958E+00</totfact>
</mgrwt>
</event>
<event>
 4    1  0.2089815E-007  0.7595344E+03  0.7818608E-02  0.9806314E-01
         -2   -1    0    0    0  501 -0.00000000000E+00  0.00000000000E+00  0.24079894920E+04  0.24079894920E+04  0.25500000000E-02 0.  1.
          2   -1    0    0  501    0  0.00000000000E+00 -0.00000000000E+00 -0.10948847303E+04  0.10948847303E+04  0.25500000000E-02 0. -1.
    8880023    1    1    2    0    0 -0.35918032492E+03 -0.11862459022E+03 -0.94261927970E+03  0.12105468235E+04  0.65864270000E+03 0. -1.
    8880022    1    1    2    0    0  0.35918032492E+03  0.11862459022E+03  0.22557240414E+04  0.22923273987E+04  0.15294330000E+03 0.  0.
<mgrwt>
<rscale>  0 0.65024777E+03</rscale>
<asrwt>0</asrwt>
<pdfrwt beam="1">  1        2 0.16844381E+00 0.75953440E+03</pdfrwt>
<pdfrwt beam="2">  1       -2 0.37045992E+00 0.75953440E+03</pdfrwt>
<totfact> 0.26890961E-01</totfact>
</mgrwt>
</event>
<event>
 4    1  0.2089815E-007  0.8078743E+03  0.7818608E-02  0.9694022E-01
          2   -1    0    0  501    0  0.00000000000E+00  0.00000000000E+00  0.10392971738E+04  0.10392971738E+04  0.25500000000E-02 0. -1.
         -2   -1    0    0    0  501 -0.00000000000E+00 -0.00000000000E+00 -0.25946503689E+04  0.25946503689E+04  0.25500000000E-02 0.  1.
    8880023    1    1    2    0    0  0.13208847935E+03 -0.44877984725E+03  0.85356729326E+03  0.11752608426E+04  0.65864270000E+03 0.  0.
    8880022    1    1    2    0    0 -0.13208847935E+03  0.44877984725E+03 -0.24089204883E+04  0.24586867002E+04  0.15294330000E+03 0.  0.
<mgrwt>
<rscale>  0 0.71373849E+03</rscale>
<asrwt>0</asrwt>
<pdfrwt beam="1">  1        2 0.15989187E+00 0.80787432E+03</pdfrwt>
<pdfrwt beam="2">  1       -2 0.39917698E+00 0.80787432E+03</pdfrwt>
<totfact> 0.18856293E-01</totfact>
</mgrwt>
</event>
<event>
 4    1  0.2089815E-007  0.1475349E+04  0.7818608E-02  0.8927242E-01
          2   -1    0    0  501    0  0.00000000000E+00  0.00000000000E+00  0.18044527535E+04  0.18044527535E+04  0.25500000000E-02 0. -1.
         -2   -1    0    0    0  501 -0.00000000000E+00 -0.00000000000E+00 -0.13546614031E+04  0.13546614031E+04  0.25500000000E-02 0.  1.
    8880023    1    1    2    0    0  0.41744048300E+02 -0.13195084504E+04 -0.46363198725E+03  0.15464830882E+04  0.65864270000E+03 0.  1.
    8880022    1    1    2    0    0 -0.41744048300E+02  0.13195084504E+04  0.91342333763E+03  0.16126310685E+04  0.15294330000E+03 0.  0.
<mgrwt>
<rscale>  0 0.14373159E+04</rscale>
<asrwt>0</asrwt>
<pdfrwt beam="1">  1        2 0.27760811E+00 0.14753492E+04</pdfrwt>
<pdfrwt beam="2">  1       -2 0.20840945E+00 0.14753492E+04</pdfrwt>
<totfact> 0.94745241E-01</totfact>
</mgrwt>
</event>
<event>
 4    1  0.2089815E-007  0.1118837E+04  0.7818608E-02  0.9240367E-01
          2   -1    0    0  501    0  0.00000000000E+00  0.00000000000E+00  0.11585493561E+04  0.11585493561E+04  0.25500000000E-02 0. -1.
         -2   -1    0    0    0  501 -0.00000000000E+00 -0.00000000000E+00 -0.21578895082E+04  0.21578895082E+04  0.25500000000E-02 0.  1.
    8880023    1    1    2    0    0 -0.88339782953E+03  0.19389398455E+03  0.74600436107E+03  0.13447376382E+04  0.65864270000E+03 0.  0.
    8880022    1    1    2    0    0  0.88339782953E+03 -0.19389398455E+03 -0.17453445132E+04  0.19717012262E+04  0.15294330000E+03 0.  0.
<mgrwt>
<rscale>  0 0.10646310E+04</rscale>
<asrwt>0</asrwt>
<pdfrwt beam="1">  1        2 0.17823836E+00 0.11188373E+04</pdfrwt>
<pdfrwt beam="2">  1       -2 0.33198300E+00 0.11188373E+04</pdfrwt>
<totfact> 0.40107314E-01</totfact>
</mgrwt>
</event>
<event>
 4    1  0.2089815E-007  0.8980339E+03  0.7818608E-02  0.9529195E-01
         -2   -1    0    0    0  501 -0.00000000000E+00  0.00000000000E+00  0.39892550738E+03  0.39892550739E+03  0.25500000000E-02 0.  1.
          2   -1    0    0  501    0  0.00000000000E+00 -0.00000000000E+00 -0.19124971446E+04  0.19124971446E+04  0.25500000000E-02 0. -1.
    8880023    1    1    2    0    0  0.49468190629E+03 -0.35769337888E+03 -0.14128376485E+04  0.16740893552E+04  0.65864270000E+03 0.  0.
    8880022    1    1    2    0    0 -0.49468190629E+03  0.35769337888E+03 -0.10073398866E+03  0.63733329679E+03  0.15294330000E+03 0.  0.
<mgrwt>
<rscale>  0 0.82165182E+03</rscale>
<asrwt>0</asrwt>
<pdfrwt beam="1">  1        2 0.29423032E+00 0.89803393E+03</pdfrwt>
<pdfrwt beam="2">  1       -2 0.61373156E-01 0.89803393E+03</pdfrwt>
<totfact> 0.18695236E+01</totfact>
</mgrwt>
</event>
<event>
 4    1  0.2089815E-007  0.1234835E+04  0.7818608E-02  0.9123982E-01
          2   -1    0    0  501    0  0.00000000000E+00  0.00000000000E+00  0.44924253942E+04  0.44924253942E+04  0.25500000000E-02 0. -1.
         -2   -1    0    0    0  501 -0.00000000000E+00 -0.00000000000E+00 -0.31904929662E+03  0.31904929663E+03  0.25500000000E-02 0.  1.
    8880023    1    1    2    0    0 -0.27388154531E+03 -0.10079664993E+04  0.29351772602E+04  0.31843497483E+04  0.65864270000E+03 0.  1.
    8880022    1    1    2    0    0  0.27388154531E+03  0.10079664993E+04  0.12381988374E+04  0.16271249425E+04  0.15294330000E+03 0.  0.
<mgrwt>
<rscale>  0 0.11873721E+04</rscale>
<asrwt>0</asrwt>
<pdfrwt beam="1">  1        2 0.69114229E+00 0.12348351E+04</pdfrwt>
<pdfrwt beam="2">  1       -2 0.49084513E-01 0.12348351E+04</pdfrwt>
<totfact> 0.50738157E-01</totfact>
</mgrwt>
</event>
<event>
 4    1  0.2089815E-007  0.1233894E+04  0.7818608E-02  0.9124859E-01
          2   -1    0    0  501    0  0.00000000000E+00  0.00000000000E+00  0.16881785866E+04  0.16881785866E+04  0.25500000000E-02 0. -1.
         -2   -1    0    0    0  501 -0.00000000000E+00 -0.00000000000E+00 -0.11089951245E+04  0.11089951245E+04  0.25500000000E-02 0.  1.
    8880023    1    1    2    0    0 -0.83789516387E+03 -0.62178363338E+03  0.10707268747E+04  0.16336919657E+04  0.65864270000E+03 0.  0.
    8880022    1    1    2    0    0  0.83789516387E+03  0.62178363338E+03 -0.49154341262E+03  0.11634817454E+04  0.15294330000E+03 0.  0.
<mgrwt>
<rscale>  0 0.11863833E+04</rscale>
<asrwt>0</asrwt>
<pdfrwt beam="1">  1        2 0.25971978E+00 0.12338936E+04</pdfrwt>
<pdfrwt beam="2">  1       -2 0.17061464E+00 0.12338936E+04</pdfrwt>
<totfact> 0.20322701E+00</totfact>
</mgrwt>
</event>
<event>
 4    1  0.2089815E-007  0.7558485E+03  0.7818608E-02  0.9815976E-01
         -2   -1    0    0    0  501 -0.00000000000E+00  0.00000000000E+00  0.24997587970E+04  0.24997587970E+04  0.25500000000E-02 0.  1.
          2   -1    0    0  501    0  0.00000000000E+00 -0.00000000000E+00 -0.10773302084E+04  0.10773302084E+04  0.25500000000E-02 0. -1.
    8880023    1    1    2    0    0  0.34841071237E+02  0.36916509640E+03 -0.92562227474E+03  0.11950245062E+04  0.65864270000E+03 0. -1.
    8880022    1    1    2    0    0 -0.34841071237E+02 -0.36916509640E+03  0.23480508634E+04  0.23820644993E+04  0.15294330000E+03 0.  0.
<mgrwt>
<rscale>  0 0.64512173E+03</rscale>
<asrwt>0</asrwt>
<pdfrwt beam="1">  1        2 0.16574311E+00 0.75584851E+03</pdfrwt>
<pdfrwt beam="2">  1       -2 0.38457828E+00 0.75584851E+03</pdfrwt>
<totfact> 0.22434679E-01</totfact>
</mgrwt>
</event>
<event>
 4    1  0.2089815E-007  0.9558546E+03  0.7818608E-02  0.9441740E-01
          2   -1    0    0  501    0  0.00000000000E+00  0.00000000000E+00  0.24939234515E+04  0.24939234515E+04  0.25500000000E-02 0. -1.
         -2   -1    0    0    0  501 -0.00000000000E+00 -0.00000000000E+00 -0.38613240998E+03  0.38613240998E+03  0.25500000000E-02 0.  1.
    8880023    1    1    2    0    0  0.24188132072E+03 -0.64910797205E+03  0.19222663784E+04  0.21468036632E+04  0.65864270000E+03 0.  0.
    8880022    1    1    2    0    0 -0.24188132072E+03  0.64910797205E+03  0.18552466321E+03  0.73325219834E+03  0.15294330000E+03 0.  0.
<mgrwt>
<rscale>  0 0.88718806E+03</rscale>
<asrwt>0</asrwt>
<pdfrwt beam="1">  1        2 0.38368053E+00 0.95585456E+03</pdfrwt>
<pdfrwt beam="2">  1       -2 0.59404986E-01 0.95585456E+03</pdfrwt>
<totfact> 0.94440222E+00</totfact>
</mgrwt>
</event>
<event>
 4    1  0.2089815E-007  0.8369380E+03  0.7818608E-02  0.9635981E-01
          2   -1    0    0  501    0  0.00000000000E+00  0.00000000000E+00  0.12219245006E+04  0.12219245006E+04  0.25500000000E-02 0. -1.
         -2   -1    0    0    0  501 -0.00000000000E+00 -0.00000000000E+00 -0.93060137121E+03  0.93060137121E+03  0.25500000000E-02 0.  1.
    8880023    1    1    2    0    0 -0.20662218693E+03  0.47324660794E+03 -0.65561272571E+03  0.10631525443E+04  0.65864270000E+03 0.  1.
    8880022    1    1    2    0    0  0.20662218693E+03 -0.47324660794E+03  0.94693585514E+03  0.10893733276E+04  0.15294330000E+03 0.  0.
<mgrwt>
<rscale>  0 0.74959810E+03</rscale>
<asrwt>0</asrwt>
<pdfrwt beam="1">  1        2 0.18798838E+00 0.83693804E+03</pdfrwt>
<pdfrwt beam="2">  1       -2 0.14316944E+00 0.83693804E+03</pdfrwt>
<totfact> 0.62872153E+00</totfact>
</mgrwt>
</event>
<event>
 4    1  0.2089815E-007  0.1203041E+04  0.7818608E-02  0.9154172E-01
          2   -1    0    0  501    0  0.00000000000E+00  0.00000000000E+00  0.12742923370E+04  0.12742923370E+04  0.25500000000E-02 0. -1.
         -2   -1    0    0    0  501 -0.00000000000E+00 -0.00000000000E+00 -0.35341502911E+04  0.35341502911E+04  0.25500000000E-02 0.  1.
    8880023    1    1    2    0    0  0.16157642502E+03  0.99367576371E+03  0.89104458201E+03  0.14970868772E+04  0.65864270000E+03 0. -1.
    8880022    1    1    2    0    0 -0.16157642502E+03 -0.99367576371E+03 -0.31509025361E+04  0.33113557510E+04  0.15294330000E+03 0.  0.
<mgrwt>
<rscale>  0 0.11539235E+04</rscale>
<asrwt>0</asrwt>
<pdfrwt beam="1">  1        2 0.19604498E+00 0.12030414E+04</pdfrwt>
<pdfrwt beam="2">  1       -2 0.54371543E+00 0.12030414E+04</pdfrwt>
<totfact> 0.15164541E-02</totfact>
</mgrwt>
</event>
<event>
 4    1  0.2089815E-007  0.7066601E+03  0.7818608E-02  0.9970619E-01
          2   -1    0    0  501    0  0.00000000000E+00  0.00000000000E+00  0.16057367825E+04  0.16057367825E+04  0.25500000000E-02 0. -1.
         -2   -1    0    0    0  501 -0.00000000000E+00 -0.00000000000E+00 -0.15997939306E+03  0.15997939308E+03  0.25500000000E-02 0.  1.
    8880023    1    1    2    0    0 -0.10980514782E+03  0.23130321161E+03  0.90554391557E+03  0.11486419527E+04  0.65864270000E+03 0.  1.
    8880022    1    1    2    0    0  0.10980514782E+03 -0.23130321161E+03  0.54021347390E+03  0.61707422292E+03  0.15294330000E+03 0. -1.
<mgrwt>
<rscale>  0 0.56957536E+03</rscale>
<asrwt>0</asrwt>
<pdfrwt beam="1">  1        2 0.24703643E+00 0.70666014E+03</pdfrwt>
<pdfrwt beam="2">  1       -2 0.24612214E-01 0.70666014E+03</pdfrwt>
<totfact> 0.16662799E+02</totfact>
</mgrwt>
</event>
<event>
 4    1  0.2089815E-007  0.1418774E+04  0.7818608E-02  0.8969231E-01
         -2   -1    0    0    0  501 -0.00000000000E+00  0.00000000000E+00  0.15597375116E+04  0.15597375116E+04  0.25500000000E-02 0.  1.
          2   -1    0    0  501    0  0.00000000000E+00 -0.00000000000E+00 -0.17839490591E+04  0.17839490591E+04  0.25500000000E-02 0. -1.
    8880023    1    1    2    0    0  0.10274742038E+04 -0.72346792986E+03  0.87521667054E+03  0.16670103514E+04  0.65864270000E+03 0.  1.
    8880022    1    1    2    0    0 -0.10274742038E+04  0.72346792986E+03 -0.10994282180E+04  0.16766762193E+04  0.15294330000E+03 0.  0.
<mgrwt>
<rscale>  0 0.13789060E+04</rscale>
<asrwt>0</asrwt>
<pdfrwt beam="1">  1        2 0.27445370E+00 0.14187739E+04</pdfrwt>
<pdfrwt beam="2">  1       -2 0.23995962E+00 0.14187739E+04</pdfrwt>
<totfact> 0.61797577E-01</totfact>
</mgrwt>
</event>
<event>
 4    1  0.2089815E-007  0.1863123E+04  0.7818608E-02  0.8688400E-01
         -2   -1    0    0    0  501 -0.00000000000E+00  0.00000000000E+00  0.14632264055E+04  0.14632264055E+04  0.25500000000E-02 0.  1.
          2   -1    0    0  501    0  0.00000000000E+00 -0.00000000000E+00 -0.30335928553E+04  0.30335928553E+04  0.25500000000E-02 0. -1.
    8880023    1    1    2    0    0 -0.14834230878E+04 -0.91480710708E+03 -0.19602298616E+04  0.27043903966E+04  0.65864270000E+03 0.  0.
    8880022    1    1    2    0    0  0.14834230878E+04  0.91480710708E+03  0.38986341175E+03  0.17924288643E+04  0.15294330000E+03 0.  0.
<mgrwt>
<rscale>  0 0.18340476E+04</rscale>
<asrwt>0</asrwt>
<pdfrwt beam="1">  1        2 0.46670659E+00 0.18631227E+04</pdfrwt>
<pdfrwt beam="2">  1       -2 0.22511176E+00 0.18631227E+04</pdfrwt>
<totfact> 0.13736748E-01</totfact>
</mgrwt>
</event>
<event>
 4    1  0.2089815E-007  0.8903733E+03  0.7818608E-02  0.9541666E-01
         -2   -1    0    0    0  501 -0.00000000000E+00  0.00000000000E+00  0.82872468463E+03  0.82872468463E+03  0.25500000000E-02 0.  1.
          2   -1    0    0  501    0  0.00000000000E+00 -0.00000000000E+00 -0.29937364055E+04  0.29937364055E+04  0.25500000000E-02 0. -1.
    8880023    1    1    2    0    0 -0.45934372313E+03  0.38465284391E+03 -0.27987947184E+04  0.29370080947E+04  0.65864270000E+03 0.  0.
    8880022    1    1    2    0    0  0.45934372313E+03 -0.38465284391E+03  0.63378299748E+03  0.88545299548E+03  0.15294330000E+03 0.  0.
<mgrwt>
<rscale>  0 0.81280468E+03</rscale>
<asrwt>0</asrwt>
<pdfrwt beam="1">  1        2 0.46057483E+00 0.89037333E+03</pdfrwt>
<pdfrwt beam="2">  1       -2 0.12749611E+00 0.89037333E+03</pdfrwt>
<totfact> 0.83161792E-01</totfact>
</mgrwt>
</event>
<event>
 4    1  0.2089815E-007  0.1320392E+04  0.7818608E-02  0.9048147E-01
          2   -1    0    0  501    0  0.00000000000E+00  0.00000000000E+00  0.24669955160E+04  0.24669955160E+04  0.25500000000E-02 0. -1.
         -2   -1    0    0    0  501 -0.00000000000E+00 -0.00000000000E+00 -0.80853832915E+03  0.80853832916E+03  0.25500000000E-02 0.  1.
    8880023    1    1    2    0    0 -0.69264393025E+03  0.91097162425E+03  0.16598425001E+04  0.21209696475E+04  0.65864270000E+03 0.  1.
    8880022    1    1    2    0    0  0.69264393025E+03 -0.91097162425E+03 -0.13853132788E+01  0.11545641976E+04  0.15294330000E+03 0.  0.
<mgrwt>
<rscale>  0 0.12768257E+04</rscale>
<asrwt>0</asrwt>
<pdfrwt beam="1">  1        2 0.37953776E+00 0.13203920E+04</pdfrwt>
<pdfrwt beam="2">  1       -2 0.12439051E+00 0.13203920E+04</pdfrwt>
<totfact> 0.17064253E+00</totfact>
</mgrwt>
</event>
<event>
 4    1  0.2089815E-007  0.9949673E+03  0.7818608E-02  0.9388172E-01
          2   -1    0    0  501    0  0.00000000000E+00  0.00000000000E+00  0.19244877674E+04  0.19244877674E+04  0.25500000000E-02 0. -1.
         -2   -1    0    0    0  501 -0.00000000000E+00 -0.00000000000E+00 -0.45641402138E+03  0.45641402139E+03  0.25500000000E-02 0.  1.
    8880023    1    1    2    0    0 -0.42976557986E+03 -0.60946793934E+03  0.40701733376E+03  0.10749990414E+04  0.65864270000E+03 0.  0.
    8880022    1    1    2    0    0  0.42976557986E+03  0.60946793934E+03  0.10610564123E+04  0.13059027474E+04  0.15294330000E+03 0.  0.
<mgrwt>
<rscale>  0 0.93055519E+03</rscale>
<asrwt>0</asrwt>
<pdfrwt beam="1">  1        2 0.29607504E+00 0.99496725E+03</pdfrwt>
<pdfrwt beam="2">  1       -2 0.70217542E-01 0.99496725E+03</pdfrwt>
<totfact> 0.13622115E+01</totfact>
</mgrwt>
</event>
<event>
 4    1  0.2089815E-007  0.1146136E+04  0.7818608E-02  0.9211348E-01
          2   -1    0    0  501    0  0.00000000000E+00  0.00000000000E+00  0.26167683836E+04  0.26167683836E+04  0.25500000000E-02 0. -1.
         -2   -1    0    0    0  501 -0.00000000000E+00 -0.00000000000E+00 -0.95169687708E+03  0.95169687709E+03  0.25500000000E-02 0.  1.
    8880023    1    1    2    0    0 -0.13902997943E+03 -0.92762552384E+03  0.21979930125E+04  0.24788711013E+04  0.65864270000E+03 0.  1.
    8880022    1    1    2    0    0  0.13902997943E+03  0.92762552384E+03 -0.53292150596E+03  0.10895941594E+04  0.15294330000E+03 0.  0.
<mgrwt>
<rscale>  0 0.10937066E+04</rscale>
<asrwt>0</asrwt>
<pdfrwt beam="1">  1        2 0.40257974E+00 0.11461364E+04</pdfrwt>
<pdfrwt beam="2">  1       -2 0.14641491E+00 0.11461364E+04</pdfrwt>
<totfact> 0.93750704E-01</totfact>
</mgrwt>
</event>
<event>
 4    1  0.2089815E-007  0.1739641E+04  0.7818608E-02  0.8756681E-01
          2   -1    0    0  501    0  0.00000000000E+00  0.00000000000E+00  0.22609726209E+04  0.22609726209E+04  0.25500000000E-02 0. -1.
         -2   -1    0    0    0  501 -0.00000000000E+00 -0.00000000000E+00 -0.24665233290E+04  0.24665233290E+04  0.25500000000E-02 0.  1.
    8880023    1    1    2    0    0 -0.93383391873E+03  0.13116757112E+04  0.15574746580E+04  0.23349681959E+04  0.65864270000E+03 0.  0.
    8880022    1    1    2    0    0  0.93383391873E+03 -0.13116757112E+04 -0.17630253661E+04  0.23925277540E+04  0.15294330000E+03 0.  0.
<mgrwt>
<rscale>  0 0.17082362E+04</rscale>
<asrwt>0</asrwt>
<pdfrwt beam="1">  1        2 0.34784194E+00 0.17396405E+04</pdfrwt>
<pdfrwt beam="2">  1       -2 0.37946513E+00 0.17396405E+04</pdfrwt>
<totfact> 0.43845422E-02</totfact>
</mgrwt>
</event>
<event>
 4    1  0.2935163E-007  0.1297962E+04  0.7818608E-02  0.9067322E-01
         -2   -1    0    0    0  501 -0.00000000000E+00  0.00000000000E+00  0.17660011361E+04  0.17660011361E+04  0.25500000000E-02 0.  1.
          2   -1    0    0  501    0  0.00000000000E+00 -0.00000000000E+00 -0.19656159174E+04  0.19656159174E+04  0.25500000000E-02 0. -1.
    8880023    1    1    2    0    0  0.11128502864E+04  0.11162351877E+03 -0.15171622510E+04  0.19966189101E+04  0.65864270000E+03 0.  0.
    8880022    1    1    2    0    0 -0.11128502864E+04 -0.11162351877E+03  0.13175474697E+04  0.17349981435E+04  0.15294330000E+03 0.  0.
<mgrwt>
<rscale>  0 0.12534440E+04</rscale>
<asrwt>0</asrwt>
<pdfrwt beam="1">  1        2 0.30240245E+00 0.12979622E+04</pdfrwt>
<pdfrwt beam="2">  1       -2 0.27169248E+00 0.12979622E+04</pdfrwt>
<totfact> 0.31760885E-01</totfact>
</mgrwt>
</event>
<event>
 4    1  0.2089815E-007  0.8637428E+03  0.7818608E-02  0.9586940E-01
         -2   -1    0    0    0  501 -0.00000000000E+00  0.00000000000E+00  0.34257634148E+03  0.34257634149E+03  0.25500000000E-02 0.  1.
          2   -1    0    0  501    0  0.00000000000E+00 -0.00000000000E+00 -0.15792896330E+04  0.15792896330E+04  0.25500000000E-02 0. -1.
    8880023    1    1    2    0    0  0.55875377549E+03 -0.59660545573E+01 -0.91872953432E+03  0.12609978346E+04  0.65864270000E+03 0. -1.
    8880022    1    1    2    0    0 -0.55875377549E+03  0.59660545573E+01 -0.31798375718E+03  0.66086813986E+03  0.15294330000E+03 0.  1.
<mgrwt>
<rscale>  0 0.78166633E+03</rscale>
<asrwt>0</asrwt>
<pdfrwt beam="1">  1        2 0.24296763E+00 0.86374278E+03</pdfrwt>
<pdfrwt beam="2">  1       -2 0.52704053E-01 0.86374278E+03</pdfrwt>
<totfact> 0.39357607E+01</totfact>
</mgrwt>
</event>
<event>
 4    1  0.2089815E-007  0.1483255E+04  0.7818608E-02  0.8921552E-01
         -2   -1    0    0    0  501 -0.00000000000E+00  0.00000000000E+00  0.23573163877E+04  0.23573163877E+04  0.25500000000E-02 0.  1.
          2   -1    0    0  501    0  0.00000000000E+00 -0.00000000000E+00 -0.15026816620E+04  0.15026816620E+04  0.25500000000E-02 0. -1.
    8880023    1    1    2    0    0 -0.50315672138E+03 -0.12300680449E+04 -0.83715894726E+03  0.17031968150E+04  0.65864270000E+03 0.  0.
    8880022    1    1    2    0    0  0.50315672138E+03  0.12300680449E+04  0.16917936730E+04  0.21568012347E+04  0.15294330000E+03 0.  0.
<mgrwt>
<rscale>  0 0.14454633E+04</rscale>
<asrwt>0</asrwt>
<pdfrwt beam="1">  1        2 0.23118179E+00 0.14832546E+04</pdfrwt>
<pdfrwt beam="2">  1       -2 0.36266406E+00 0.14832546E+04</pdfrwt>
<totfact> 0.15449125E-01</totfact>
</mgrwt>
</event>
<event>
 4    1  0.2089815E-007  0.7500609E+03  0.7818608E-02  0.9831554E-01
          2   -1    0    0  501    0  0.00000000000E+00  0.00000000000E+00  0.11610446880E+04  0.11610446880E+04  0.25500000000E-02 0. -1.
         -2   -1    0    0    0  501 -0.00000000000E+00 -0.00000000000E+00 -0.30231095967E+03  0.30231095968E+03  0.25500000000E-02 0.  1.
    8880023    1    1    2    0    0 -0.24638152926E+03  0.26091610740E+03  0.74463937211E+03  0.10569196156E+04  0.65864270000E+03 0. -1.
    8880022    1    1    2    0    0  0.24638152926E+03 -0.26091610740E+03  0.11409435624E+03  0.40643603212E+03  0.15294330000E+03 0. -1.
<mgrwt>
<rscale>  0 0.63696340E+03</rscale>
<asrwt>0</asrwt>
<pdfrwt beam="1">  1        2 0.17862225E+00 0.75006085E+03</pdfrwt>
<pdfrwt beam="2">  1       -2 0.46509380E-01 0.75006085E+03</pdfrwt>
<totfact> 0.88961666E+01</totfact>
</mgrwt>
</event>
<event>
 4    1  0.2089815E-007  0.8717247E+03  0.7818608E-02  0.9573038E-01
         -2   -1    0    0    0  501 -0.00000000000E+00  0.00000000000E+00  0.43107053992E+03  0.43107053993E+03  0.25500000000E-02 0.  1.
          2   -1    0    0  501    0  0.00000000000E+00 -0.00000000000E+00 -0.14032899491E+04  0.14032899491E+04  0.25500000000E-02 0. -1.
    8880023    1    1    2    0    0 -0.33327779519E+03 -0.46370205278E+03 -0.87522693339E+03  0.12352838029E+04  0.65864270000E+03 0. -1.
    8880022    1    1    2    0    0  0.33327779519E+03  0.46370205278E+03 -0.96992475813E+02  0.59907668616E+03  0.15294330000E+03 0.  0.
<mgrwt>
<rscale>  0 0.79106673E+03</rscale>
<asrwt>0</asrwt>
<pdfrwt beam="1">  1        2 0.21589076E+00 0.87172466E+03</pdfrwt>
<pdfrwt beam="2">  1       -2 0.66318546E-01 0.87172466E+03</pdfrwt>
<totfact> 0.30391375E+01</totfact>
</mgrwt>
</event>
<event>
 4    1  0.2089815E-007  0.9712522E+03  0.7818608E-02  0.9420174E-01
         -2   -1    0    0    0  501 -0.00000000000E+00  0.00000000000E+00  0.39301409333E+03  0.39301409334E+03  0.25500000000E-02 0.  1.
          2   -1    0    0  501    0  0.00000000000E+00 -0.00000000000E+00 -0.23227352662E+04  0.23227352662E+04  0.25500000000E-02 0. -1.
    8880023    1    1    2    0    0 -0.25638914288E+03 -0.66617206818E+03 -0.16867001202E+04  0.19463525165E+04  0.65864270000E+03 0. -1.
    8880022    1    1    2    0    0  0.25638914288E+03  0.66617206818E+03 -0.24302105275E+03  0.76939684306E+03  0.15294330000E+03 0.  0.
<mgrwt>
<rscale>  0 0.90433840E+03</rscale>
<asrwt>0</asrwt>
<pdfrwt beam="1">  1        2 0.35734388E+00 0.97125219E+03</pdfrwt>
<pdfrwt beam="2">  1       -2 0.60463708E-01 0.97125219E+03</pdfrwt>
<totfact> 0.11347506E+01</totfact>
</mgrwt>
</event>
<event>
 4    1  0.2089815E-007  0.6727101E+03  0.7818608E-02  0.1013790E+00
         -2   -1    0    0    0  501 -0.00000000000E+00  0.00000000000E+00  0.47243031321E+03  0.47243031321E+03  0.25500000000E-02 0.  1.
          2   -1    0    0  501    0  0.00000000000E+00 -0.00000000000E+00 -0.25733168125E+04  0.25733168125E+04  0.25500000000E-02 0. -1.
    8880023    1    1    2    0    0  0.42987701016E+02 -0.12992571337E+03 -0.25043273217E+04  0.25931051220E+04  0.65864270000E+03 0. -1.
    8880022    1    1    2    0    0 -0.42987701016E+02  0.12992571337E+03  0.40344082233E+03  0.45264200376E+03  0.15294330000E+03 0.  0.
<mgrwt>
<rscale>  0 0.49995666E+03</rscale>
<asrwt>0</asrwt>
<pdfrwt beam="1">  1        2 0.39589489E+00 0.67271007E+03</pdfrwt>
<pdfrwt beam="2">  1       -2 0.72681588E-01 0.67271007E+03</pdfrwt>
<totfact> 0.57645493E+00</totfact>
</mgrwt>
</event>
<event>
 4    1  0.2089815E-007  0.1027496E+04  0.7818608E-02  0.9346437E-01
         -2   -1    0    0    0  501 -0.00000000000E+00  0.00000000000E+00  0.58651386423E+03  0.58651386424E+03  0.25500000000E-02 0.  1.
          2   -1    0    0  501    0  0.00000000000E+00 -0.00000000000E+00 -0.17696131660E+04  0.17696131660E+04  0.25500000000E-02 0. -1.
    8880023    1    1    2    0    0 -0.25303923521E+03 -0.74693246072E+03 -0.11639337836E+04  0.15525749626E+04  0.65864270000E+03 0.  0.
    8880022    1    1    2    0    0  0.25303923521E+03  0.74693246072E+03 -0.19165518178E+02  0.80355206772E+03  0.15294330000E+03 0.  0.
<mgrwt>
<rscale>  0 0.96617898E+03</rscale>
<asrwt>0</asrwt>
<pdfrwt beam="1">  1        2 0.27224818E+00 0.10274956E+04</pdfrwt>
<pdfrwt beam="2">  1       -2 0.90232903E-01 0.10274956E+04</pdfrwt>
<totfact> 0.93829565E+00</totfact>
</mgrwt>
</event>
<event>
 4    1  0.2089815E-007  0.6780182E+03  0.7818608E-02  0.1010468E+00
         -2   -1    0    0    0  501 -0.00000000000E+00  0.00000000000E+00  0.51544300573E+03  0.51544300574E+03  0.25500000000E-02 0.  1.
          2   -1    0    0  501    0  0.00000000000E+00 -0.00000000000E+00 -0.10408528511E+04  0.10408528511E+04  0.25500000000E-02 0. -1.
    8880023    1    1    2    0    0 -0.16084223551E+03 -0.53087424772E+01 -0.89640534947E+03  0.11239444667E+04  0.65864270000E+03 0. -1.
    8880022    1    1    2    0    0  0.16084223551E+03  0.53087424772E+01  0.37099550409E+03  0.43235139012E+03  0.15294330000E+03 0.  0.
<mgrwt>
<rscale>  0 0.51289198E+03</rscale>
<asrwt>0</asrwt>
<pdfrwt beam="1">  1        2 0.16013121E+00 0.67801815E+03</pdfrwt>
<pdfrwt beam="2">  1       -2 0.79298924E-01 0.67801815E+03</pdfrwt>
<totfact> 0.34244498E+01</totfact>
</mgrwt>
</event>
<event>
 4    1  0.2089815E-007  0.6937114E+03  0.7818608E-02  0.1002436E+00
         -2   -1    0    0    0  501 -0.00000000000E+00  0.00000000000E+00  0.58018051427E+03  0.58018051428E+03  0.25500000000E-02 0.  1.
          2   -1    0    0  501    0  0.00000000000E+00 -0.00000000000E+00 -0.98324663771E+03  0.98324663772E+03  0.25500000000E-02 0. -1.
    8880023    1    1    2    0    0 -0.54644195961E+02 -0.21080624159E+03 -0.81671672246E+03  0.10715697227E+04  0.65864270000E+03 0.  0.
    8880022    1    1    2    0    0  0.54644195961E+02  0.21080624159E+03  0.41365059902E+03  0.49185742927E+03  0.15294330000E+03 0.  0.
<mgrwt>
<rscale>  0 0.54594794E+03</rscale>
<asrwt>0</asrwt>
<pdfrwt beam="1">  1        2 0.15126871E+00 0.69371137E+03</pdfrwt>
<pdfrwt beam="2">  1       -2 0.89258541E-01 0.69371137E+03</pdfrwt>
<totfact> 0.28423804E+01</totfact>
</mgrwt>
</event>
<event>
 4    1  0.2089815E-007  0.9913638E+03  0.7818608E-02  0.9392945E-01
          2   -1    0    0  501    0  0.00000000000E+00  0.00000000000E+00  0.22348297427E+04  0.22348297427E+04  0.25500000000E-02 0. -1.
         -2   -1    0    0    0  501 -0.00000000000E+00 -0.00000000000E+00 -0.40668851701E+03  0.40668851702E+03  0.25500000000E-02 0.  1.
    8880023    1    1    2    0    0 -0.66482560016E+03 -0.32710672697E+03  0.15409110116E+04  0.18322687689E+04  0.65864270000E+03 0.  0.
    8880022    1    1    2    0    0  0.66482560016E+03  0.32710672697E+03  0.28723021402E+03  0.80924949078E+03  0.15294330000E+03 0. -1.
<mgrwt>
<rscale>  0 0.92658586E+03</rscale>
<asrwt>0</asrwt>
<pdfrwt beam="1">  1        2 0.34381996E+00 0.99136376E+03</pdfrwt>
<pdfrwt beam="2">  1       -2 0.62567464E-01 0.99136376E+03</pdfrwt>
<totfact> 0.11785994E+01</totfact>
</mgrwt>
</event>
<event>
 4    1  0.2089815E-007  0.1114079E+04  0.7818608E-02  0.9245541E-01
          2   -1    0    0  501    0  0.00000000000E+00  0.00000000000E+00  0.20387128833E+04  0.20387128833E+04  0.25500000000E-02 0. -1.
         -2   -1    0    0    0  501 -0.00000000000E+00 -0.00000000000E+00 -0.11462871994E+04  0.11462871994E+04  0.25500000000E-02 0.  1.
    8880023    1    1    2    0    0 -0.54979423634E+03 -0.71069528587E+03  0.16560643154E+04  0.19959260294E+04  0.65864270000E+03 0.  0.
    8880022    1    1    2    0    0  0.54979423634E+03  0.71069528587E+03 -0.76363863148E+03  0.11890740533E+04  0.15294330000E+03 0.  0.
<mgrwt>
<rscale>  0 0.10595488E+04</rscale>
<asrwt>0</asrwt>
<pdfrwt beam="1">  1        2 0.31364813E+00 0.11140789E+04</pdfrwt>
<pdfrwt beam="2">  1       -2 0.17635188E+00 0.11140789E+04</pdfrwt>
<totfact> 0.12009156E+00</totfact>
</mgrwt>
</event>
<event>
 4    1  0.2089815E-007  0.7162119E+03  0.7818608E-02  0.9935618E-01
         -2   -1    0    0    0  501 -0.00000000000E+00  0.00000000000E+00  0.76572245995E+03  0.76572245996E+03  0.25500000000E-02 0.  1.
          2   -1    0    0  501    0  0.00000000000E+00 -0.00000000000E+00 -0.16792019526E+04  0.16792019526E+04  0.25500000000E-02 0. -1.
    8880023    1    1    2    0    0  0.49239387703E+02  0.27699225695E+03 -0.15638172483E+04  0.17200243662E+04  0.65864270000E+03 0. -1.
    8880022    1    1    2    0    0 -0.49239387703E+02 -0.27699225695E+03  0.65033775571E+03  0.72490004638E+03  0.15294330000E+03 0.  0.
<mgrwt>
<rscale>  0 0.58565690E+03</rscale>
<asrwt>0</asrwt>
<pdfrwt beam="1">  1        2 0.25833876E+00 0.71621186E+03</pdfrwt>
<pdfrwt beam="2">  1       -2 0.11780346E+00 0.71621186E+03</pdfrwt>
<totfact> 0.57898708E+00</totfact>
</mgrwt>
</event>
<event>
 4    1  0.2089815E-007  0.1061962E+04  0.7818608E-02  0.9304638E-01
          2   -1    0    0  501    0  0.00000000000E+00  0.00000000000E+00  0.16733504786E+04  0.16733504786E+04  0.25500000000E-02 0. -1.
         -2   -1    0    0    0  501 -0.00000000000E+00 -0.00000000000E+00 -0.71485563816E+03  0.71485563817E+03  0.25500000000E-02 0.  1.
    8880023    1    1    2    0    0 -0.37960446774E+03  0.74152141062E+03  0.11005985307E+04  0.15294054029E+04  0.65864270000E+03 0.  0.
    8880022    1    1    2    0    0  0.37960446774E+03 -0.74152141062E+03 -0.14210369028E+03  0.85880071387E+03  0.15294330000E+03 0.  0.
<mgrwt>
<rscale>  0 0.10035704E+04</rscale>
<asrwt>0</asrwt>
<pdfrwt beam="1">  1        2 0.25743853E+00 0.10619622E+04</pdfrwt>
<pdfrwt beam="2">  1       -2 0.10997779E+00 0.10619622E+04</pdfrwt>
<totfact> 0.66005799E+00</totfact>
</mgrwt>
</event>
<event>
 4    1  0.2089815E-007  0.3022757E+04  0.7818608E-02  0.8242179E-01
         -2   -1    0    0    0  501 -0.00000000000E+00  0.00000000000E+00  0.35635246153E+04  0.35635246153E+04  0.25500000000E-02 0.  1.
          2   -1    0    0  501    0  0.00000000000E+00 -0.00000000000E+00 -0.49592267570E+04  0.49592267570E+04  0.25500000000E-02 0. -1.
    8880023    1    1    2    0    0  0.21243776273E+04 -0.20470144529E+04 -0.36988930142E+04  0.47769099018E+04  0.65864270000E+03 0.  0.
    8880022    1    1    2    0    0 -0.21243776273E+04  0.20470144529E+04  0.23031908725E+04  0.37458414704E+04  0.15294330000E+03 0.  0.
<mgrwt>
<rscale>  0 0.30054416E+04</rscale>
<asrwt>0</asrwt>
<pdfrwt beam="1">  1        2 0.76295797E+00 0.30227568E+04</pdfrwt>
<pdfrwt beam="2">  1       -2 0.54823455E+00 0.30227568E+04</pdfrwt>
<totfact> 0.25748892E-05</totfact>
</mgrwt>
</event>
<event>
 4    1  0.2089815E-007  0.8951690E+03  0.7818608E-02  0.9533832E-01
         -2   -1    0    0    0  501 -0.00000000000E+00  0.00000000000E+00  0.22329889189E+04  0.22329889189E+04  0.25500000000E-02 0.  1.
          2   -1    0    0  501    0  0.00000000000E+00 -0.00000000000E+00 -0.97293112558E+03  0.97293112558E+03  0.25500000000E-02 0. -1.
    8880023    1    1    2    0    0 -0.51461595665E+03  0.32044919938E+03 -0.70776126302E+03  0.11411632153E+04  0.65864270000E+03 0. -1.
    8880022    1    1    2    0    0  0.51461595665E+03 -0.32044919938E+03  0.19678190563E+04  0.20647568292E+04  0.15294330000E+03 0.  0.
<mgrwt>
<rscale>  0 0.81834835E+03</rscale>
<asrwt>0</asrwt>
<pdfrwt beam="1">  1        2 0.14968171E+00 0.89516897E+03</pdfrwt>
<pdfrwt beam="2">  1       -2 0.34353675E+00 0.89516897E+03</pdfrwt>
<totfact> 0.46067326E-01</totfact>
</mgrwt>
</event>
<event>
 4    1  0.2089815E-007  0.7025680E+03  0.7818608E-02  0.9986710E-01
          2   -1    0    0  501    0  0.00000000000E+00  0.00000000000E+00  0.11312399813E+04  0.11312399813E+04  0.25500000000E-02 0. -1.
         -2   -1    0    0    0  501 -0.00000000000E+00 -0.00000000000E+00 -0.58235969325E+03  0.58235969326E+03  0.25500000000E-02 0.  1.
    8880023    1    1    2    0    0 -0.78011063791E+01  0.24439865137E+03  0.97334643218E+03  0.12004186942E+04  0.65864270000E+03 0. -1.
    8880022    1    1    2    0    0  0.78011063791E+01 -0.24439865137E+03 -0.42446614415E+03  0.51318098036E+03  0.15294330000E+03 0.  0.
<mgrwt>
<rscale>  0 0.56236816E+03</rscale>
<asrwt>0</asrwt>
<pdfrwt beam="1">  1        2 0.17403692E+00 0.70256798E+03</pdfrwt>
<pdfrwt beam="2">  1       -2 0.89593799E-01 0.70256798E+03</pdfrwt>
<totfact> 0.22779904E+01</totfact>
</mgrwt>
</event>
<event>
 4    1  0.2197764E-007  0.7074108E+03  0.7818608E-02  0.9967744E-01
         -2   -1    0    0    0  501 -0.00000000000E+00  0.00000000000E+00  0.11448438239E+04  0.11448438239E+04  0.25500000000E-02 0.  1.
          2   -1    0    0  501    0  0.00000000000E+00 -0.00000000000E+00 -0.13038480164E+04  0.13038480164E+04  0.25500000000E-02 0. -1.
    8880023    1    1    2    0    0 -0.21397673954E+03  0.14433891532E+03 -0.11848008715E+04  0.13799214031E+04  0.65864270000E+03 0. -1.
    8880022    1    1    2    0    0  0.21397673954E+03 -0.14433891532E+03  0.10257966790E+04  0.10687704371E+04  0.15294330000E+03 0.  0.
<mgrwt>
<rscale>  0 0.57087490E+03</rscale>
<asrwt>0</asrwt>
<pdfrwt beam="1">  1        2 0.20059200E+00 0.70741075E+03</pdfrwt>
<pdfrwt beam="2">  1       -2 0.17612982E+00 0.70741075E+03</pdfrwt>
<totfact> 0.32760771E+00</totfact>
</mgrwt>
</event>
<event>
 4    1  0.2089815E-007  0.7292388E+03  0.7818608E-02  0.9892481E-01
         -2   -1    0    0    0  501 -0.00000000000E+00  0.00000000000E+00  0.29206467121E+03  0.29206467122E+03  0.25500000000E-02 0.  1.
          2   -1    0    0  501    0  0.00000000000E+00 -0.00000000000E+00 -0.18997199220E+04  0.18997199220E+04  0.25500000000E-02 0. -1.
    8880023    1    1    2    0    0 -0.23943833618E+03 -0.20161417011E+03 -0.16840178341E+04  0.18351308570E+04  0.65864270000E+03 0.  0.
    8880022    1    1    2    0    0  0.23943833618E+03  0.20161417011E+03  0.76362583320E+02  0.35665373623E+03  0.15294330000E+03 0.  0.
<mgrwt>
<rscale>  0 0.60627062E+03</rscale>
<asrwt>0</asrwt>
<pdfrwt beam="1">  1        2 0.29226459E+00 0.72923878E+03</pdfrwt>
<pdfrwt beam="2">  1       -2 0.44933028E-01 0.72923878E+03</pdfrwt>
<totfact> 0.36834207E+01</totfact>
</mgrwt>
</event>
<event>
 4    1  0.2089815E-007  0.1688708E+04  0.7818608E-02  0.8786734E-01
         -2   -1    0    0    0  501 -0.00000000000E+00  0.00000000000E+00  0.13721092748E+04  0.13721092748E+04  0.25500000000E-02 0.  1.
          2   -1    0    0  501    0  0.00000000000E+00 -0.00000000000E+00 -0.26973999001E+04  0.26973999001E+04  0.25500000000E-02 0. -1.
    8880023    1    1    2    0    0 -0.77248973087E+03 -0.13495119551E+04 -0.17686288925E+04  0.24453591284E+04  0.65864270000E+03 0.  0.
    8880022    1    1    2    0    0  0.77248973087E+03  0.13495119551E+04  0.44333826714E+03  0.16241500465E+04  0.15294330000E+03 0.  0.
<mgrwt>
<rscale>  0 0.16562229E+04</rscale>
<asrwt>0</asrwt>
<pdfrwt beam="1">  1        2 0.41498460E+00 0.16887075E+04</pdfrwt>
<pdfrwt beam="2">  1       -2 0.21109373E+00 0.16887075E+04</pdfrwt>
<totfact> 0.27633477E-01</totfact>
</mgrwt>
</event>
<event>
 4    1  0.2089815E-007  0.7097444E+03  0.7818608E-02  0.9958951E-01
          2   -1    0    0  501    0  0.00000000000E+00  0.00000000000E+00  0.86968091756E+03  0.86968091756E+03  0.25500000000E-02 0. -1.
         -2   -1    0    0    0  501 -0.00000000000E+00 -0.00000000000E+00 -0.77872783584E+03  0.77872783585E+03  0.25500000000E-02 0.  1.
    8880023    1    1    2    0    0  0.25326080024E+03  0.76065223097E+02  0.68122704173E+03  0.98377204664E+03  0.65864270000E+03 0. -1.
    8880022    1    1    2    0    0 -0.25326080024E+03 -0.76065223097E+02 -0.59027396001E+03  0.66463670677E+03  0.15294330000E+03 0.  0.
<mgrwt>
<rscale>  0 0.57487381E+03</rscale>
<asrwt>0</asrwt>
<pdfrwt beam="1">  1        2 0.13379707E+00 0.70974443E+03</pdfrwt>
<pdfrwt beam="2">  1       -2 0.11980428E+00 0.70974443E+03</pdfrwt>
<totfact> 0.16721455E+01</totfact>
</mgrwt>
</event>
<event>
 4    1  0.2089815E-007  0.7914119E+03  0.7818608E-02  0.9729682E-01
          2   -1    0    0  501    0  0.00000000000E+00  0.00000000000E+00  0.13875032763E+04  0.13875032763E+04  0.25500000000E-02 0. -1.
         -2   -1    0    0    0  501 -0.00000000000E+00 -0.00000000000E+00 -0.30801500228E+03  0.30801500229E+03  0.25500000000E-02 0.  1.
    8880023    1    1    2    0    0  0.39280907701E+03 -0.19550848581E+03  0.89721573584E+03  0.11963815537E+04  0.65864270000E+03 0.  0.
    8880022    1    1    2    0    0 -0.39280907701E+03  0.19550848581E+03  0.18227253818E+03  0.49913672496E+03  0.15294330000E+03 0.  0.
<mgrwt>
<rscale>  0 0.69276680E+03</rscale>
<asrwt>0</asrwt>
<pdfrwt beam="1">  1        2 0.21346205E+00 0.79141187E+03</pdfrwt>
<pdfrwt beam="2">  1       -2 0.47386923E-01 0.79141187E+03</pdfrwt>
<totfact> 0.63039940E+01</totfact>
</mgrwt>
</event>
<event>
 4    1  0.2089815E-007  0.9579051E+03  0.7818608E-02  0.9438830E-01
         -2   -1    0    0    0  501 -0.00000000000E+00  0.00000000000E+00  0.14542214079E+04  0.14542214079E+04  0.25500000000E-02 0.  1.
          2   -1    0    0  501    0  0.00000000000E+00 -0.00000000000E+00 -0.10023626579E+04  0.10023626579E+04  0.25500000000E-02 0. -1.
    8880023    1    1    2    0    0 -0.12734224456E+03  0.68378054663E+03 -0.64069673857E+03  0.11524211037E+04  0.65864270000E+03 0. -1.
    8880022    1    1    2    0    0  0.12734224456E+03 -0.68378054663E+03  0.10925554885E+04  0.13041629621E+04  0.15294330000E+03 0.  0.
<mgrwt>
<rscale>  0 0.88947829E+03</rscale>
<asrwt>0</asrwt>
<pdfrwt beam="1">  1        2 0.15420964E+00 0.95790505E+03</pdfrwt>
<pdfrwt beam="2">  1       -2 0.22372637E+00 0.95790505E+03</pdfrwt>
<totfact> 0.23475901E+00</totfact>
</mgrwt>
</event>
<event>
 4    1  0.2089815E-007  0.7411750E+03  0.7818608E-02  0.9856537E-01
          2   -1    0    0  501    0  0.00000000000E+00  0.00000000000E+00  0.14185008286E+04  0.14185008286E+04  0.25500000000E-02 0. -1.
         -2   -1    0    0    0  501 -0.00000000000E+00 -0.00000000000E+00 -0.56791967881E+03  0.56791967881E+03  0.25500000000E-02 0.  1.
    8880023    1    1    2    0    0  0.22923853278E+03  0.25095797249E+03  0.12417395198E+04  0.14461180623E+04  0.65864270000E+03 0. -1.
    8880022    1    1    2    0    0 -0.22923853278E+03 -0.25095797249E+03 -0.39115836993E+03  0.54030244517E+03  0.15294330000E+03 0.  0.
<mgrwt>
<rscale>  0 0.62414703E+03</rscale>
<asrwt>0</asrwt>
<pdfrwt beam="1">  1        2 0.21823090E+00 0.74117502E+03</pdfrwt>
<pdfrwt beam="2">  1       -2 0.87372258E-01 0.74117502E+03</pdfrwt>
<totfact> 0.16359307E+01</totfact>
</mgrwt>
</event>
<event>
 4    1  0.2089815E-007  0.8172817E+03  0.7818608E-02  0.9674604E-01
          2   -1    0    0  501    0  0.00000000000E+00  0.00000000000E+00  0.40325560531E+04  0.40325560531E+04  0.25500000000E-02 0. -1.
         -2   -1    0    0    0  501 -0.00000000000E+00 -0.00000000000E+00 -0.19597389635E+03  0.19597389637E+03  0.25500000000E-02 0.  1.
    8880023    1    1    2    0    0 -0.28220900911E+03 -0.39306137180E+03  0.35558838225E+04  0.36485968717E+04  0.65864270000E+03 0. -1.
    8880022    1    1    2    0    0  0.28220900911E+03  0.39306137180E+03  0.28069833425E+03  0.57993307777E+03  0.15294330000E+03 0.  0.
<mgrwt>
<rscale>  0 0.72549176E+03</rscale>
<asrwt>0</asrwt>
<pdfrwt beam="1">  1        2 0.62039326E+00 0.81728170E+03</pdfrwt>
<pdfrwt beam="2">  1       -2 0.30149829E-01 0.81728170E+03</pdfrwt>
<totfact> 0.35687476E+00</totfact>
</mgrwt>
</event>
<event>
 4    1  0.2089815E-007  0.1702527E+04  0.7818608E-02  0.8778462E-01
         -2   -1    0    0    0  501 -0.00000000000E+00  0.00000000000E+00  0.16312074474E+04  0.16312074474E+04  0.25500000000E-02 0.  1.
          2   -1    0    0  501    0  0.00000000000E+00 -0.00000000000E+00 -0.21175862685E+04  0.21175862685E+04  0.25500000000E-02 0. -1.
    8880023    1    1    2    0    0  0.65624295856E+03 -0.14262302798E+04 -0.11318667256E+04  0.20444363826E+04  0.65864270000E+03 0.  0.
    8880022    1    1    2    0    0 -0.65624295856E+03  0.14262302798E+04  0.64548790455E+03  0.17043573333E+04  0.15294330000E+03 0.  0.
<mgrwt>
<rscale>  0 0.16703431E+04</rscale>
<asrwt>0</asrwt>
<pdfrwt beam="1">  1        2 0.32578250E+00 0.17025269E+04</pdfrwt>
<pdfrwt beam="2">  1       -2 0.25095499E+00 0.17025269E+04</pdfrwt>
<totfact> 0.33415630E-01</totfact>
</mgrwt>
</event>
<event>
 4    1  0.2089815E-007  0.2313036E+04  0.7818608E-02  0.8481845E-01
          2   -1    0    0  501    0  0.00000000000E+00  0.00000000000E+00  0.41720895271E+04  0.41720895271E+04  0.25500000000E-02 0. -1.
         -2   -1    0    0    0  501 -0.00000000000E+00 -0.00000000000E+00 -0.21090109511E+04  0.21090109511E+04  0.25500000000E-02 0.  1.
    8880023    1    1    2    0    0 -0.13234207379E+04 -0.17790115876E+04  0.30677439842E+04  0.38420291562E+04  0.65864270000E+03 0.  0.
    8880022    1    1    2    0    0  0.13234207379E+04  0.17790115876E+04 -0.10046654083E+04  0.24390713220E+04  0.15294330000E+03 0.  0.
<mgrwt>
<rscale>  0 0.22900740E+04</rscale>
<asrwt>0</asrwt>
<pdfrwt beam="1">  1        2 0.64185993E+00 0.23130359E+04</pdfrwt>
<pdfrwt beam="2">  1       -2 0.32446322E+00 0.23130359E+04</pdfrwt>
<totfact> 0.47126795E-03</totfact>
</mgrwt>
</event>
<event>
 4    1  0.2089815E-007  0.7776759E+03  0.7818608E-02  0.9761325E-01
         -2   -1    0    0    0  501 -0.00000000000E+00  0.00000000000E+00  0.50372340429E+03  0.50372340429E+03  0.25500000000E-02 0.  1.
          2   -1    0    0  501    0  0.00000000000E+00 -0.00000000000E+00 -0.13717862584E+04  0.13717862584E+04  0.25500000000E-02 0. -1.
    8880023    1    1    2    0    0 -0.18427315959E+03 -0.37015263262E+03 -0.11231955425E+04  0.13661434777E+04  0.65864270000E+03 0. -1.
    8880022    1    1    2    0    0  0.18427315959E+03  0.37015263262E+03  0.25513268832E+03  0.50936618502E+03  0.15294330000E+03 0.  0.
<mgrwt>
<rscale>  0 0.67480016E+03</rscale>
<asrwt>0</asrwt>
<pdfrwt beam="1">  1        2 0.21104404E+00 0.77767588E+03</pdfrwt>
<pdfrwt beam="2">  1       -2 0.77495909E-01 0.77767588E+03</pdfrwt>
<totfact> 0.22709372E+01</totfact>
</mgrwt>
</event>
<event>
 4    1  0.2089815E-007  0.1354522E+04  0.7818608E-02  0.9019851E-01
         -2   -1    0    0    0  501 -0.00000000000E+00  0.00000000000E+00  0.27839867895E+04  0.27839867895E+04  0.25500000000E-02 0.  1.
          2   -1    0    0  501    0  0.00000000000E+00 -0.00000000000E+00 -0.12793116593E+04  0.12793116593E+04  0.25500000000E-02 0. -1.
    8880023    1    1    2    0    0 -0.11042639154E+04 -0.42605161196E+03 -0.72349958817E+03  0.15356368813E+04  0.65864270000E+03 0.  0.
    8880022    1    1    2    0    0  0.11042639154E+04  0.42605161196E+03  0.22281747184E+04  0.25276615675E+04  0.15294330000E+03 0.  0.
<mgrwt>
<rscale>  0 0.13123209E+04</rscale>
<asrwt>0</asrwt>
<pdfrwt beam="1">  1        2 0.19681718E+00 0.13545217E+04</pdfrwt>
<pdfrwt beam="2">  1       -2 0.42830566E+00 0.13545217E+04</pdfrwt>
<totfact> 0.79047075E-02</totfact>
</mgrwt>
</event>
<event>
 4    1  0.2133209E-007  0.1286337E+04  0.7818608E-02  0.9077449E-01
         -2   -1    0    0    0  501 -0.00000000000E+00  0.00000000000E+00  0.10925431738E+04  0.10925431738E+04  0.25500000000E-02 0.  1.
          2   -1    0    0  501    0  0.00000000000E+00 -0.00000000000E+00 -0.43050314529E+04  0.43050314529E+04  0.25500000000E-02 0. -1.
    8880023    1    1    2    0    0  0.86512681145E+03 -0.68731959051E+03 -0.38868090944E+04  0.40941357772E+04  0.65864270000E+03 0. -1.
    8880022    1    1    2    0    0 -0.86512681145E+03  0.68731959051E+03  0.67432081527E+03  0.13034388495E+04  0.15294330000E+03 0.  0.
<mgrwt>
<rscale>  0 0.12413072E+04</rscale>
<asrwt>0</asrwt>
<pdfrwt beam="1">  1        2 0.66231252E+00 0.12863370E+04</pdfrwt>
<pdfrwt beam="2">  1       -2 0.16808357E+00 0.12863370E+04</pdfrwt>
<totfact> 0.41270497E-02</totfact>
</mgrwt>
</event>
<event>
 4    1  0.2089815E-007  0.7020677E+03  0.7818608E-02  0.9988729E-01
         -2   -1    0    0    0  501 -0.00000000000E+00  0.00000000000E+00  0.73271954231E+02  0.73271954276E+02  0.25500000000E-02 0.  1.
          2   -1    0    0  501    0  0.00000000000E+00 -0.00000000000E+00 -0.45164502765E+04  0.45164502765E+04  0.25500000000E-02 0. -1.
    8880023    1    1    2    0    0 -0.24148125900E+03 -0.27850076216E+02 -0.40032669153E+04  0.40643628070E+04  0.65864270000E+03 0. -1.
    8880022    1    1    2    0    0  0.24148125900E+03  0.27850076216E+02 -0.43991140694E+03  0.52535942379E+03  0.15294330000E+03 0.  1.
<mgrwt>
<rscale>  0 0.56147204E+03</rscale>
<asrwt>0</asrwt>
<pdfrwt beam="1">  1        2 0.69483829E+00 0.70206768E+03</pdfrwt>
<pdfrwt beam="2">  1       -2 0.11272612E-01 0.70206768E+03</pdfrwt>
<totfact> 0.76604234E+00</totfact>
</mgrwt>
</event>
<event>
 4    1  0.2190850E-007  0.1374908E+04  0.7818608E-02  0.9003429E-01
          2   -1    0    0  501    0  0.00000000000E+00  0.00000000000E+00  0.24401929949E+04  0.24401929949E+04  0.25500000000E-02 0. -1.
         -2   -1    0    0    0  501 -0.00000000000E+00 -0.00000000000E+00 -0.14835815572E+04  0.14835815572E+04  0.25500000000E-02 0.  1.
    8880023    1    1    2    0    0 -0.11931100865E+04  0.18179795956E+03  0.19272845606E+04  0.23674454926E+04  0.65864270000E+03 0.  0.
    8880022    1    1    2    0    0  0.11931100865E+04 -0.18179795956E+03 -0.97067312291E+03  0.15563290594E+04  0.15294330000E+03 0.  0.
<mgrwt>
<rscale>  0 0.13334793E+04</rscale>
<asrwt>0</asrwt>
<pdfrwt beam="1">  1        2 0.37541431E+00 0.13749081E+04</pdfrwt>
<pdfrwt beam="2">  1       -2 0.22824332E+00 0.13749081E+04</pdfrwt>
<totfact> 0.31488359E-01</totfact>
</mgrwt>
</event>
<event>
 4    1  0.2089815E-007  0.6689710E+03  0.7818608E-02  0.1016411E+00
          2   -1    0    0  501    0  0.00000000000E+00  0.00000000000E+00  0.32884440852E+03  0.32884440853E+03  0.25500000000E-02 0. -1.
         -2   -1    0    0    0  501 -0.00000000000E+00 -0.00000000000E+00 -0.12268358759E+04  0.12268358759E+04  0.25500000000E-02 0.  1.
    8880023    1    1    2    0    0 -0.11582662447E+03  0.17210366549E+02 -0.33306012807E+02  0.66979959720E+03  0.65864270000E+03 0. -1.
    8880022    1    1    2    0    0  0.11582662447E+03 -0.17210366549E+02 -0.86468545454E+03  0.88588068721E+03  0.15294330000E+03 0.  0.
<mgrwt>
<rscale>  0 0.49004116E+03</rscale>
<asrwt>0</asrwt>
<pdfrwt beam="1">  1        2 0.50591448E-01 0.66897101E+03</pdfrwt>
<pdfrwt beam="2">  1       -2 0.18874398E+00 0.66897101E+03</pdfrwt>
<totfact> 0.16035691E+01</totfact>
</mgrwt>
</event>
<event>
 4    1  0.2089815E-007  0.1617715E+04  0.7818608E-02  0.8830696E-01
          2   -1    0    0  501    0  0.00000000000E+00  0.00000000000E+00  0.36426193480E+04  0.36426193480E+04  0.25500000000E-02 0. -1.
         -2   -1    0    0    0  501 -0.00000000000E+00 -0.00000000000E+00 -0.94005791463E+03  0.94005791463E+03  0.25500000000E-02 0.  1.
    8880023    1    1    2    0    0  0.97508931240E+03 -0.11101320013E+04  0.26396039909E+04  0.30958862484E+04  0.65864270000E+03 0.  0.
    8880022    1    1    2    0    0 -0.97508931240E+03  0.11101320013E+04  0.62957442433E+02  0.14867910143E+04  0.15294330000E+03 0.  0.
<mgrwt>
<rscale>  0 0.15835858E+04</rscale>
<asrwt>0</asrwt>
<pdfrwt beam="1">  1        2 0.56040297E+00 0.16177152E+04</pdfrwt>
<pdfrwt beam="2">  1       -2 0.14462430E+00 0.16177152E+04</pdfrwt>
<totfact> 0.19988083E-01</totfact>
</mgrwt>
</event>
<event>
 4    1  0.2089815E-007  0.9774433E+03  0.7818608E-02  0.9411682E-01
         -2   -1    0    0    0  501 -0.00000000000E+00  0.00000000000E+00  0.15148116876E+04  0.15148116876E+04  0.25500000000E-02 0.  1.
          2   -1    0    0  501    0  0.00000000000E+00 -0.00000000000E+00 -0.83011874886E+03  0.83011874886E+03  0.25500000000E-02 0. -1.
    8880023    1    1    2    0    0  0.28519970191E+03 -0.66351059948E+03 -0.38053298635E+03  0.10489045455E+04  0.65864270000E+03 0.  0.
    8880022    1    1    2    0    0 -0.28519970191E+03  0.66351059948E+03  0.10652259251E+04  0.12960258910E+04  0.15294330000E+03 0.  0.
<mgrwt>
<rscale>  0 0.91120466E+03</rscale>
<asrwt>0</asrwt>
<pdfrwt beam="1">  1        2 0.12771058E+00 0.97744329E+03</pdfrwt>
<pdfrwt beam="2">  1       -2 0.23304795E+00 0.97744329E+03</pdfrwt>
<totfact> 0.26767480E+00</totfact>
</mgrwt>
</event>
<event>
 4    1  0.2089815E-007  0.7360126E+03  0.7818608E-02  0.9871718E-01
          2   -1    0    0  501    0  0.00000000000E+00  0.00000000000E+00  0.64365853298E+03  0.64365853299E+03  0.25500000000E-02 0. -1.
         -2   -1    0    0    0  501 -0.00000000000E+00 -0.00000000000E+00 -0.76652506397E+03  0.76652506398E+03  0.25500000000E-02 0.  1.
    8880023    1    1    2    0    0  0.13394064554E+03 -0.29994040410E+03  0.34955531261E+03  0.81480271562E+03  0.65864270000E+03 0. -1.
    8880022    1    1    2    0    0 -0.13394064554E+03  0.29994040410E+03 -0.47242184360E+03  0.59538088134E+03  0.15294330000E+03 0.  0.
<mgrwt>
<rscale>  0 0.61651745E+03</rscale>
<asrwt>0</asrwt>
<pdfrwt beam="1">  1        2 0.99024390E-01 0.73601260E+03</pdfrwt>
<pdfrwt beam="2">  1       -2 0.11792693E+00 0.73601260E+03</pdfrwt>
<totfact> 0.25597526E+01</totfact>
</mgrwt>
</event>
<event>
 4    1  0.2089815E-007  0.1190404E+04  0.7818608E-02  0.9166507E-01
         -2   -1    0    0    0  501 -0.00000000000E+00  0.00000000000E+00  0.97848002064E+03  0.97848002064E+03  0.25500000000E-02 0.  1.
          2   -1    0    0  501    0  0.00000000000E+00 -0.00000000000E+00 -0.16282960476E+04  0.16282960476E+04  0.25500000000E-02 0. -1.
    8880023    1    1    2    0    0 -0.21061046583E+03 -0.96896604715E+03 -0.98904143442E+03  0.15476644126E+04  0.65864270000E+03 0. -1.
    8880022    1    1    2    0    0  0.21061046583E+03  0.96896604715E+03  0.33922540750E+03  0.10591116556E+04  0.15294330000E+03 0.  0.
<mgrwt>
<rscale>  0 0.11405920E+04</rscale>
<asrwt>0</asrwt>
<pdfrwt beam="1">  1        2 0.25050708E+00 0.11904042E+04</pdfrwt>
<pdfrwt beam="2">  1       -2 0.15053539E+00 0.11904042E+04</pdfrwt>
<totfact> 0.31050727E+00</totfact>
</mgrwt>
</event>
<event>
 4    1  0.2089815E-007  0.8903518E+03  0.7818608E-02  0.9541701E-01
          2   -1    0    0  501    0  0.00000000000E+00  0.00000000000E+00  0.89499636580E+03  0.89499636581E+03  0.25500000000E-02 0. -1.
         -2   -1    0    0    0  501 -0.00000000000E+00 -0.00000000000E+00 -0.75463984401E+03  0.75463984401E+03  0.25500000000E-02 0.  1.
    8880023    1    1    2    0    0 -0.59855925280E+03 -0.25355211021E+02  0.40367817946E+03  0.97759006985E+03  0.65864270000E+03 0. -1.
    8880022    1    1    2    0    0  0.59855925280E+03  0.25355211021E+02 -0.26332165766E+03  0.67204613997E+03  0.15294330000E+03 0.  0.
<mgrwt>
<rscale>  0 0.81277971E+03</rscale>
<asrwt>0</asrwt>
<pdfrwt beam="1">  1        2 0.13769175E+00 0.89035177E+03</pdfrwt>
<pdfrwt beam="2">  1       -2 0.11609844E+00 0.89035177E+03</pdfrwt>
<totfact> 0.17060430E+01</totfact>
</mgrwt>
</event>
<event>
 4    1  0.2089815E-007  0.6991521E+03  0.7818608E-02  0.1000074E+00
         -2   -1    0    0    0  501 -0.00000000000E+00  0.00000000000E+00  0.32008632706E+03  0.32008632707E+03  0.25500000000E-02 0.  1.
          2   -1    0    0  501    0  0.00000000000E+00 -0.00000000000E+00 -0.18383036863E+04  0.18383036863E+04  0.25500000000E-02 0. -1.
    8880023    1    1    2    0    0 -0.49313627474E+02 -0.22928488066E+03 -0.16906849038E+04  0.18295433967E+04  0.65864270000E+03 0. -1.
    8880022    1    1    2    0    0  0.49313627474E+02  0.22928488066E+03  0.17246754453E+03  0.32884661665E+03  0.15294330000E+03 0.  0.
<mgrwt>
<rscale>  0 0.55617928E+03</rscale>
<asrwt>0</asrwt>
<pdfrwt beam="1">  1        2 0.28281594E+00 0.69915206E+03</pdfrwt>
<pdfrwt beam="2">  1       -2 0.49244052E-01 0.69915206E+03</pdfrwt>
<totfact> 0.33220194E+01</totfact>
</mgrwt>
</event>
<event>
 4    1  0.2089815E-007  0.1107088E+04  0.7818608E-02  0.9253205E-01
         -2   -1    0    0    0  501 -0.00000000000E+00  0.00000000000E+00  0.41910332881E+03  0.41910332881E+03  0.25500000000E-02 0.  1.
          2   -1    0    0  501    0  0.00000000000E+00 -0.00000000000E+00 -0.31493736221E+04  0.31493736221E+04  0.25500000000E-02 0. -1.
    8880023    1    1    2    0    0  0.23275279734E+03 -0.85887124407E+03 -0.23323889540E+04  0.25817982334E+04  0.65864270000E+03 0. -1.
    8880022    1    1    2    0    0 -0.23275279734E+03  0.85887124407E+03 -0.39788133927E+03  0.98667871758E+03  0.15294330000E+03 0.  0.
<mgrwt>
<rscale>  0 0.10520741E+04</rscale>
<asrwt>0</asrwt>
<pdfrwt beam="1">  1        2 0.48451900E+00 0.11070880E+04</pdfrwt>
<pdfrwt beam="2">  1       -2 0.64477437E-01 0.11070880E+04</pdfrwt>
<totfact> 0.31404649E+00</totfact>
</mgrwt>
</event>
<event>
 4    1  0.2089815E-007  0.9546276E+03  0.7818608E-02  0.9443487E-01
         -2   -1    0    0    0  501 -0.00000000000E+00  0.00000000000E+00  0.89341885689E+03  0.89341885690E+03  0.25500000000E-02 0.  1.
          2   -1    0    0  501    0  0.00000000000E+00 -0.00000000000E+00 -0.92314455627E+03  0.92314455627E+03  0.25500000000E-02 0. -1.
    8880023    1    1    2    0    0 -0.59038316976E+03 -0.35909786945E+03 -0.37927237712E+03  0.10272104503E+04  0.65864270000E+03 0. -1.
    8880022    1    1    2    0    0  0.59038316976E+03  0.35909786945E+03  0.34954667775E+03  0.78935296282E+03  0.15294330000E+03 0.  0.
<mgrwt>
<rscale>  0 0.88581664E+03</rscale>
<asrwt>0</asrwt>
<pdfrwt beam="1">  1        2 0.14202224E+00 0.95462756E+03</pdfrwt>
<pdfrwt beam="2">  1       -2 0.13744906E+00 0.95462756E+03</pdfrwt>
<totfact> 0.10611761E+01</totfact>
</mgrwt>
</event>
<event>
 4    1  0.2089815E-007  0.1205310E+04  0.7818608E-02  0.9151978E-01
         -2   -1    0    0    0  501 -0.00000000000E+00  0.00000000000E+00  0.16904035442E+04  0.16904035442E+04  0.25500000000E-02 0.  1.
          2   -1    0    0  501    0  0.00000000000E+00 -0.00000000000E+00 -0.14235132875E+04  0.14235132875E+04  0.25500000000E-02 0. -1.
    8880023    1    1    2    0    0 -0.67825002089E+03 -0.74762153831E+03 -0.94333074266E+03  0.15305698781E+04  0.65864270000E+03 0.  0.
    8880022    1    1    2    0    0  0.67825002089E+03  0.74762153831E+03  0.12102209994E+04  0.15833469537E+04  0.15294330000E+03 0.  0.
<mgrwt>
<rscale>  0 0.11563140E+04</rscale>
<asrwt>0</asrwt>
<pdfrwt beam="1">  1        2 0.21900204E+00 0.12053096E+04</pdfrwt>
<pdfrwt beam="2">  1       -2 0.26006209E+00 0.12053096E+04</pdfrwt>
<totfact> 0.76001693E-01</totfact>
</mgrwt>
</event>
<event>
 4    1  0.2089815E-007  0.1146086E+04  0.7818608E-02  0.9211400E-01
          2   -1    0    0  501    0  0.00000000000E+00  0.00000000000E+00  0.53567583391E+03  0.53567583392E+03  0.25500000000E-02 0. -1.
         -2   -1    0    0    0  501 -0.00000000000E+00 -0.00000000000E+00 -0.41101723693E+04  0.41101723693E+04  0.25500000000E-02 0.  1.
    8880023    1    1    2    0    0  0.19932788502E+03  0.91649928497E+03 -0.22996934845E+03  0.11689305593E+04  0.65864270000E+03 0.  0.
    8880022    1    1    2    0    0 -0.19932788502E+03 -0.91649928497E+03 -0.33445271870E+04  0.34769176439E+04  0.15294330000E+03 0.  0.
<mgrwt>
<rscale>  0 0.10936529E+04</rscale>
<asrwt>0</asrwt>
<pdfrwt beam="1">  1        2 0.82411669E-01 0.11460858E+04</pdfrwt>
<pdfrwt beam="2">  1       -2 0.63233419E+00 0.11460858E+04</pdfrwt>
<totfact> 0.21162014E-02</totfact>
</mgrwt>
</event>
<event>
 4    1  0.2089815E-007  0.1259133E+04  0.7818608E-02  0.9101680E-01
         -2   -1    0    0    0  501 -0.00000000000E+00  0.00000000000E+00  0.12983021405E+04  0.12983021405E+04  0.25500000000E-02 0.  1.
          2   -1    0    0  501    0  0.00000000000E+00 -0.00000000000E+00 -0.20384891535E+04  0.20384891535E+04  0.25500000000E-02 0. -1.
    8880023    1    1    2    0    0 -0.10474767749E+04 -0.23323314441E+03 -0.15403357154E+04  0.19894847614E+04  0.65864270000E+03 0.  0.
    8880022    1    1    2    0    0  0.10474767749E+04  0.23323314441E+03  0.80014870240E+03  0.13473065325E+04  0.15294330000E+03 0.  0.
<mgrwt>
<rscale>  0 0.12128532E+04</rscale>
<asrwt>0</asrwt>
<pdfrwt beam="1">  1        2 0.31361372E+00 0.12591328E+04</pdfrwt>
<pdfrwt beam="2">  1       -2 0.19973879E+00 0.12591328E+04</pdfrwt>
<totfact> 0.81898485E-01</totfact>
</mgrwt>
</event>
<event>
 4    1  0.2089815E-007  0.1943251E+04  0.7818608E-02  0.8647178E-01
          2   -1    0    0  501    0  0.00000000000E+00  0.00000000000E+00  0.32692098554E+04  0.32692098554E+04  0.25500000000E-02 0. -1.
         -2   -1    0    0    0  501 -0.00000000000E+00 -0.00000000000E+00 -0.15436289771E+04  0.15436289771E+04  0.25500000000E-02 0.  1.
    8880023    1    1    2    0    0 -0.17693486824E+04  0.46023788966E+03  0.21824345555E+04  0.29221985679E+04  0.65864270000E+03 0.  0.
    8880022    1    1    2    0    0  0.17693486824E+04 -0.46023788966E+03 -0.45685367713E+03  0.18906402646E+04  0.15294330000E+03 0.  0.
<mgrwt>
<rscale>  0 0.19155027E+04</rscale>
<asrwt>0</asrwt>
<pdfrwt beam="1">  1        2 0.50295536E+00 0.19432509E+04</pdfrwt>
<pdfrwt beam="2">  1       -2 0.23748138E+00 0.19432509E+04</pdfrwt>
<totfact> 0.80194921E-02</totfact>
</mgrwt>
</event>
<event>
 4    1  0.2089815E-007  0.1603956E+04  0.7818608E-02  0.8839516E-01
          2   -1    0    0  501    0  0.00000000000E+00  0.00000000000E+00  0.13755191645E+04  0.13755191645E+04  0.25500000000E-02 0. -1.
         -2   -1    0    0    0  501 -0.00000000000E+00 -0.00000000000E+00 -0.20313632945E+04  0.20313632945E+04  0.25500000000E-02 0.  1.
    8880023    1    1    2    0    0 -0.11596449144E+04  0.89111550841E+03  0.32865412880E+03  0.16372803424E+04  0.65864270000E+03 0. -1.
    8880022    1    1    2    0    0  0.11596449144E+04 -0.89111550841E+03 -0.98449825878E+03  0.17696021167E+04  0.15294330000E+03 0.  0.
<mgrwt>
<rscale>  0 0.15694866E+04</rscale>
<asrwt>0</asrwt>
<pdfrwt beam="1">  1        2 0.21161833E+00 0.16039555E+04</pdfrwt>
<pdfrwt beam="2">  1       -2 0.31251743E+00 0.16039555E+04</pdfrwt>
<totfact> 0.37116439E-01</totfact>
</mgrwt>
</event>
<event>
 4    1  0.2089815E-007  0.8470441E+03  0.7818608E-02  0.9617038E-01
          2   -1    0    0  501    0  0.00000000000E+00  0.00000000000E+00  0.35278626699E+04  0.35278626699E+04  0.25500000000E-02 0. -1.
         -2   -1    0    0    0  501 -0.00000000000E+00 -0.00000000000E+00 -0.46267193223E+03  0.46267193223E+03  0.25500000000E-02 0.  1.
    8880023    1    1    2    0    0 -0.53064797249E+03  0.45675295115E+02  0.32864551751E+04  0.33938578827E+04  0.65864270000E+03 0. -1.
    8880022    1    1    2    0    0  0.53064797249E+03 -0.45675295115E+02 -0.22126443744E+03  0.59667671949E+03  0.15294330000E+03 0.  0.
<mgrwt>
<rscale>  0 0.76178661E+03</rscale>
<asrwt>0</asrwt>
<pdfrwt beam="1">  1        2 0.54274812E+00 0.84704410E+03</pdfrwt>
<pdfrwt beam="2">  1       -2 0.71180295E-01 0.84704410E+03</pdfrwt>
<totfact> 0.14853203E+00</totfact>
</mgrwt>
</event>
<event>
 4    1  0.2089815E-007  0.6808981E+03  0.7818608E-02  0.1008820E+00
         -2   -1    0    0    0  501 -0.00000000000E+00  0.00000000000E+00  0.15577577207E+03  0.15577577209E+03  0.25500000000E-02 0.  1.
          2   -1    0    0  501    0  0.00000000000E+00 -0.00000000000E+00 -0.29286854430E+04  0.29286854430E+04  0.25500000000E-02 0. -1.
    8880023    1    1    2    0    0 -0.98677607202E+02  0.14168561398E+03 -0.27713775901E+04  0.28537967756E+04  0.65864270000E+03 0. -1.
    8880022    1    1    2    0    0  0.98677607202E+02 -0.14168561398E+03 -0.15320808723E+01  0.23066443952E+03  0.15294330000E+03 0.  1.
<mgrwt>
<rscale>  0 0.51946272E+03</rscale>
<asrwt>0</asrwt>
<pdfrwt beam="1">  1        2 0.45056695E+00 0.68089815E+03</pdfrwt>
<pdfrwt beam="2">  1       -2 0.23965506E-01 0.68089815E+03</pdfrwt>
<totfact> 0.31831047E+01</totfact>
</mgrwt>
</event>
<event>
 4    1  0.3425499E-007  0.9932984E+03  0.7818608E-02  0.9390378E-01
         -2   -1    0    0    0  501 -0.00000000000E+00  0.00000000000E+00  0.19187955912E+04  0.19187955912E+04  0.25500000000E-02 0.  1.
          2   -1    0    0  501    0  0.00000000000E+00 -0.00000000000E+00 -0.25594236826E+04  0.25594236826E+04  0.25500000000E-02 0. -1.
    8880023    1    1    2    0    0  0.29906797779E+03  0.68072748726E+03 -0.23807935824E+04  0.25796937522E+04  0.65864270000E+03 0. -1.
    8880022    1    1    2    0    0 -0.29906797779E+03 -0.68072748726E+03  0.17401654910E+04  0.18985255216E+04  0.15294330000E+03 0.  0.
<mgrwt>
<rscale>  0 0.92871756E+03</rscale>
<asrwt>0</asrwt>
<pdfrwt beam="1">  1        2 0.39375749E+00 0.99329843E+03</pdfrwt>
<pdfrwt beam="2">  1       -2 0.29519932E+00 0.99329843E+03</pdfrwt>
<totfact> 0.11155121E-01</totfact>
</mgrwt>
</event>
<event>
 4    1  0.2089815E-007  0.1125218E+04  0.7818608E-02  0.9233486E-01
          2   -1    0    0  501    0  0.00000000000E+00  0.00000000000E+00  0.29389664892E+04  0.29389664892E+04  0.25500000000E-02 0. -1.
         -2   -1    0    0    0  501 -0.00000000000E+00 -0.00000000000E+00 -0.58482970026E+03  0.58482970027E+03  0.25500000000E-02 0.  1.
    8880023    1    1    2    0    0  0.86030878953E+03 -0.30360033323E+03  0.23424438987E+04  0.25986838977E+04  0.65864270000E+03 0.  0.
    8880022    1    1    2    0    0 -0.86030878953E+03  0.30360033323E+03  0.11692890296E+02  0.92511229176E+03  0.15294330000E+03 0.  0.
<mgrwt>
<rscale>  0 0.10714387E+04</rscale>
<asrwt>0</asrwt>
<pdfrwt beam="1">  1        2 0.45214869E+00 0.11252176E+04</pdfrwt>
<pdfrwt beam="2">  1       -2 0.89973800E-01 0.11252176E+04</pdfrwt>
<totfact> 0.20114648E+00</totfact>
</mgrwt>
</event>
<event>
 4    1  0.2089815E-007  0.9362062E+03  0.7818608E-02  0.9470244E-01
         -2   -1    0    0    0  501 -0.00000000000E+00  0.00000000000E+00  0.12290867501E+04  0.12290867501E+04  0.25500000000E-02 0.  1.
          2   -1    0    0  501    0  0.00000000000E+00 -0.00000000000E+00 -0.13926527310E+04  0.13926527310E+04  0.25500000000E-02 0. -1.
    8880023    1    1    2    0    0 -0.64277299739E+03  0.17179850924E+03 -0.11117015351E+04  0.14533968361E+04  0.65864270000E+03 0.  0.
    8880022    1    1    2    0    0  0.64277299739E+03 -0.17179850924E+03  0.94813555422E+03  0.11683426450E+04  0.15294330000E+03 0.  0.
<mgrwt>
<rscale>  0 0.86513578E+03</rscale>
<asrwt>0</asrwt>
<pdfrwt beam="1">  1        2 0.21425427E+00 0.93620621E+03</pdfrwt>
<pdfrwt beam="2">  1       -2 0.18909027E+00 0.93620621E+03</pdfrwt>
<totfact> 0.22983369E+00</totfact>
</mgrwt>
</event>
<event>
 4    1  0.2089815E-007  0.1362445E+04  0.7818608E-02  0.9013427E-01
         -2   -1    0    0    0  501 -0.00000000000E+00  0.00000000000E+00  0.23521342400E+04  0.23521342400E+04  0.25500000000E-02 0.  1.
          2   -1    0    0  501    0  0.00000000000E+00 -0.00000000000E+00 -0.75865942465E+03  0.75865942466E+03  0.25500000000E-02 0. -1.
    8880023    1    1    2    0    0 -0.40115029901E+03 -0.11231763322E+04  0.40794366222E+03  0.14222077463E+04  0.65864270000E+03 0.  0.
    8880022    1    1    2    0    0  0.40115029901E+03  0.11231763322E+04  0.11855311531E+04  0.16885859184E+04  0.15294330000E+03 0.  0.
<mgrwt>
<rscale>  0 0.13205481E+04</rscale>
<asrwt>0</asrwt>
<pdfrwt beam="1">  1        2 0.11671684E+00 0.13624452E+04</pdfrwt>
<pdfrwt beam="2">  1       -2 0.36186680E+00 0.13624452E+04</pdfrwt>
<totfact> 0.46819484E-01</totfact>
</mgrwt>
</event>
<event>
 4    1  0.2089815E-007  0.8899192E+03  0.7818608E-02  0.9542412E-01
         -2   -1    0    0    0  501 -0.00000000000E+00  0.00000000000E+00  0.15382093372E+04  0.15382093372E+04  0.25500000000E-02 0.  1.
          2   -1    0    0  501    0  0.00000000000E+00 -0.00000000000E+00 -0.30631435001E+04  0.30631435001E+04  0.25500000000E-02 0. -1.
    8880023    1    1    2    0    0  0.48385400823E+03 -0.35218073058E+03 -0.29323194703E+04  0.30643847099E+04  0.65864270000E+03 0.  0.
    8880022    1    1    2    0    0 -0.48385400823E+03  0.35218073058E+03  0.14073853074E+04  0.15369681274E+04  0.15294330000E+03 0.  0.
<mgrwt>
<rscale>  0 0.81227877E+03</rscale>
<asrwt>0</asrwt>
<pdfrwt beam="1">  1        2 0.47125284E+00 0.88991920E+03</pdfrwt>
<pdfrwt beam="2">  1       -2 0.23664759E+00 0.88991920E+03</pdfrwt>
<totfact> 0.12928872E-01</totfact>
</mgrwt>
</event>
<event>
 4    1  0.2089815E-007  0.1000911E+04  0.7818608E-02  0.9380366E-01
         -2   -1    0    0    0  501 -0.00000000000E+00  0.00000000000E+00  0.72745472064E+03  0.72745472065E+03  0.25500000000E-02 0.  1.
          2   -1    0    0  501    0  0.00000000000E+00 -0.00000000000E+00 -0.16696395889E+04  0.16696395889E+04  0.25500000000E-02 0. -1.
    8880023    1    1    2    0    0 -0.39819067670E+03  0.63988860107E+03 -0.12212381789E+04  0.15790016253E+04  0.65864270000E+03 0.  0.
    8880022    1    1    2    0    0  0.39819067670E+03 -0.63988860107E+03  0.27905331067E+03  0.81809268424E+03  0.15294330000E+03 0.  0.
<mgrwt>
<rscale>  0 0.93709217E+03</rscale>
<asrwt>0</asrwt>
<pdfrwt beam="1">  1        2 0.25686763E+00 0.10009113E+04</pdfrwt>
<pdfrwt beam="2">  1       -2 0.11191611E+00 0.10009113E+04</pdfrwt>
<totfact> 0.63973131E+00</totfact>
</mgrwt>
</event>
<event>
 4    1  0.2089815E-007  0.1094059E+04  0.7818608E-02  0.9267700E-01
          2   -1    0    0  501    0  0.00000000000E+00  0.00000000000E+00  0.13867431148E+04  0.13867431148E+04  0.25500000000E-02 0. -1.
         -2   -1    0    0    0  501 -0.00000000000E+00 -0.00000000000E+00 -0.12257386100E+04  0.12257386100E+04  0.25500000000E-02 0.  1.
    8880023    1    1    2    0    0  0.34298613461E+03 -0.80343955213E+03  0.93208806906E+03  0.14372727567E+04  0.65864270000E+03 0.  0.
    8880022    1    1    2    0    0 -0.34298613461E+03  0.80343955213E+03 -0.77108356434E+03  0.11752089681E+04  0.15294330000E+03 0.  0.
<mgrwt>
<rscale>  0 0.10381164E+04</rscale>
<asrwt>0</asrwt>
<pdfrwt beam="1">  1        2 0.21334509E+00 0.10940589E+04</pdfrwt>
<pdfrwt beam="2">  1       -2 0.18857517E+00 0.10940589E+04</pdfrwt>
<totfact> 0.22902619E+00</totfact>
</mgrwt>
</event>
<event>
 4    1  0.2089815E-007  0.1426227E+04  0.7818608E-02  0.8963567E-01
         -2   -1    0    0    0  501 -0.00000000000E+00  0.00000000000E+00  0.12844005620E+04  0.12844005620E+04  0.25500000000E-02 0.  1.
          2   -1    0    0  501    0  0.00000000000E+00 -0.00000000000E+00 -0.25698047657E+04  0.25698047657E+04  0.25500000000E-02 0. -1.
    8880023    1    1    2    0    0 -0.43322570530E+03  0.11885402507E+04 -0.19509039719E+04  0.24166400131E+04  0.65864270000E+03 0.  0.
    8880022    1    1    2    0    0  0.43322570530E+03 -0.11885402507E+04  0.66549976815E+03  0.14375653146E+04  0.15294330000E+03 0.  0.
<mgrwt>
<rscale>  0 0.13866115E+04</rscale>
<asrwt>0</asrwt>
<pdfrwt beam="1">  1        2 0.39535458E+00 0.14262267E+04</pdfrwt>
<pdfrwt beam="2">  1       -2 0.19760009E+00 0.14262267E+04</pdfrwt>
<totfact> 0.41459920E-01</totfact>
</mgrwt>
</event>
<event>
 4    1  0.2089815E-007  0.1590218E+04  0.7818608E-02  0.8848424E-01
          2   -1    0    0  501    0  0.00000000000E+00  0.00000000000E+00  0.18616720839E+04  0.18616720839E+04  0.25500000000E-02 0. -1.
         -2   -1    0    0    0  501 -0.00000000000E+00 -0.00000000000E+00 -0.28688538124E+04  0.28688538124E+04  0.25500000000E-02 0.  1.
    8880023    1    1    2    0    0 -0.12066496064E+04 -0.79936115564E+03  0.12651098970E+04  0.20320666297E+04  0.65864270000E+03 0.  0.
    8880022    1    1    2    0    0  0.12066496064E+04  0.79936115564E+03 -0.22722916255E+04  0.26984592667E+04  0.15294330000E+03 0.  0.
<mgrwt>
<rscale>  0 0.15554022E+04</rscale>
<asrwt>0</asrwt>
<pdfrwt beam="1">  1        2 0.28641109E+00 0.15902175E+04</pdfrwt>
<pdfrwt beam="2">  1       -2 0.44136212E+00 0.15902175E+04</pdfrwt>
<totfact> 0.29286972E-02</totfact>
</mgrwt>
</event>
<event>
 4    1  0.2089815E-007  0.8484535E+03  0.7818608E-02  0.9614442E-01
          2   -1    0    0  501    0  0.00000000000E+00  0.00000000000E+00  0.22473540363E+04  0.22473540363E+04  0.25500000000E-02 0. -1.
         -2   -1    0    0    0  501 -0.00000000000E+00 -0.00000000000E+00 -0.57038431383E+03  0.57038431383E+03  0.25500000000E-02 0.  1.
    8880023    1    1    2    0    0  0.10778629921E+03  0.52387521960E+03  0.20013598874E+04  0.21737789072E+04  0.65864270000E+03 0. -1.
    8880022    1    1    2    0    0 -0.10778629921E+03 -0.52387521960E+03 -0.32439016498E+03  0.64395944294E+03  0.15294330000E+03 0.  0.
<mgrwt>
<rscale>  0 0.76347652E+03</rscale>
<asrwt>0</asrwt>
<pdfrwt beam="1">  1        2 0.34574678E+00 0.84845350E+03</pdfrwt>
<pdfrwt beam="2">  1       -2 0.87751433E-01 0.84845350E+03</pdfrwt>
<totfact> 0.55819450E+00</totfact>
</mgrwt>
</event>
<event>
 4    1  0.2089815E-007  0.7749796E+03  0.7818608E-02  0.9767765E-01
         -2   -1    0    0    0  501 -0.00000000000E+00  0.00000000000E+00  0.29325401218E+03  0.29325401219E+03  0.25500000000E-02 0.  1.
          2   -1    0    0  501    0  0.00000000000E+00 -0.00000000000E+00 -0.18000431909E+04  0.18000431909E+04  0.25500000000E-02 0. -1.
    8880023    1    1    2    0    0  0.30076042623E+03  0.27627220628E+03 -0.14622701796E+04  0.16549403162E+04  0.65864270000E+03 0. -1.
    8880022    1    1    2    0    0 -0.30076042623E+03 -0.27627220628E+03 -0.44518999136E+02  0.43835688685E+03  0.15294330000E+03 0.  0.
<mgrwt>
<rscale>  0 0.67121527E+03</rscale>
<asrwt>0</asrwt>
<pdfrwt beam="1">  1        2 0.27692972E+00 0.77497959E+03</pdfrwt>
<pdfrwt beam="2">  1       -2 0.45116003E-01 0.77497959E+03</pdfrwt>
<totfact> 0.41180095E+01</totfact>
</mgrwt>
</event>
<event>
 4    1  0.2089815E-007  0.7100055E+03  0.7818608E-02  0.9957980E-01
         -2   -1    0    0    0  501 -0.00000000000E+00  0.00000000000E+00  0.23930084509E+03  0.23930084511E+03  0.25500000000E-02 0.  1.
          2   -1    0    0  501    0  0.00000000000E+00 -0.00000000000E+00 -0.39365052045E+04  0.39365052045E+04  0.25500000000E-02 0. -1.
    8880023    1    1    2    0    0 -0.98346248880E+02 -0.24622281772E+03 -0.37900237865E+04  0.38559548972E+04  0.65864270000E+03 0. -1.
    8880022    1    1    2    0    0  0.98346248880E+02  0.24622281772E+03  0.92819427104E+02  0.31985115241E+03  0.15294330000E+03 0.  0.
<mgrwt>
<rscale>  0 0.57531747E+03</rscale>
<asrwt>0</asrwt>
<pdfrwt beam="1">  1        2 0.60561614E+00 0.71000554E+03</pdfrwt>
<pdfrwt beam="2">  1       -2 0.36815517E-01 0.71000554E+03</pdfrwt>
<totfact> 0.29808768E+00</totfact>
</mgrwt>
</event>
<event>
 4    1  0.2089815E-007  0.1412678E+04  0.7818608E-02  0.8973894E-01
         -2   -1    0    0    0  501 -0.00000000000E+00  0.00000000000E+00  0.15391583739E+04  0.15391583739E+04  0.25500000000E-02 0.  1.
          2   -1    0    0  501    0  0.00000000000E+00 -0.00000000000E+00 -0.15368790876E+04  0.15368790876E+04  0.25500000000E-02 0. -1.
    8880023    1    1    2    0    0  0.86039351511E+03  0.90640617363E+03 -0.76006060467E+03  0.16041669120E+04  0.65864270000E+03 0.  0.
    8880022    1    1    2    0    0 -0.86039351511E+03 -0.90640617363E+03  0.76233989098E+03  0.14718705496E+04  0.15294330000E+03 0.  0.
<mgrwt>
<rscale>  0 0.13726010E+04</rscale>
<asrwt>0</asrwt>
<pdfrwt beam="1">  1        2 0.23644294E+00 0.14126781E+04</pdfrwt>
<pdfrwt beam="2">  1       -2 0.23679359E+00 0.14126781E+04</pdfrwt>
<totfact> 0.88998609E-01</totfact>
</mgrwt>
</event>
<event>
 4    1  0.2089815E-007  0.1212019E+04  0.7818608E-02  0.9145527E-01
         -2   -1    0    0    0  501 -0.00000000000E+00  0.00000000000E+00  0.21961734878E+04  0.21961734878E+04  0.25500000000E-02 0.  1.
          2   -1    0    0  501    0  0.00000000000E+00 -0.00000000000E+00 -0.10776813572E+04  0.10776813572E+04  0.25500000000E-02 0. -1.
    8880023    1    1    2    0    0 -0.25966570558E+03 -0.98374455739E+03  0.17032160420E+04  0.20904388833E+04  0.65864270000E+03 0.  0.
    8880022    1    1    2    0    0  0.25966570558E+03  0.98374455739E+03 -0.58472391142E+03  0.11834159617E+04  0.15294330000E+03 0.  0.
<mgrwt>
<rscale>  0 0.11633813E+04</rscale>
<asrwt>0</asrwt>
<pdfrwt beam="1">  1        2 0.16579714E+00 0.12120189E+04</pdfrwt>
<pdfrwt beam="2">  1       -2 0.33787284E+00 0.12120189E+04</pdfrwt>
<totfact> 0.40844849E-01</totfact>
</mgrwt>
</event>
<event>
 4    1  0.2089815E-007  0.7599115E+03  0.7818608E-02  0.9805337E-01
         -2   -1    0    0    0  501 -0.00000000000E+00  0.00000000000E+00  0.20402290356E+03  0.20402290357E+03  0.25500000000E-02 0.  1.
          2   -1    0    0  501    0  0.00000000000E+00 -0.00000000000E+00 -0.33059877445E+04  0.33059877445E+04  0.25500000000E-02 0. -1.
    8880023    1    1    2    0    0 -0.37196137725E+03  0.72801416804E+02 -0.29916736706E+04  0.30866773188E+04  0.65864270000E+03 0. -1.
    8880022    1    1    2    0    0  0.37196137725E+03 -0.72801416804E+02 -0.11029117035E+03  0.42333332933E+03  0.15294330000E+03 0.  0.
<mgrwt>
<rscale>  0 0.65076936E+03</rscale>
<asrwt>0</asrwt>
<pdfrwt beam="1">  1        2 0.50861346E+00 0.75991152E+03</pdfrwt>
<pdfrwt beam="2">  1       -2 0.31388142E-01 0.75991152E+03</pdfrwt>
<totfact> 0.11126825E+01</totfact>
</mgrwt>
</event>
<event>
 4    1  0.2089815E-007  0.1097633E+04  0.7818608E-02  0.9263696E-01
          2   -1    0    0  501    0  0.00000000000E+00  0.00000000000E+00  0.31677271951E+04  0.31677271951E+04  0.25500000000E-02 0. -1.
         -2   -1    0    0    0  501 -0.00000000000E+00 -0.00000000000E+00 -0.34998596295E+03  0.34998596296E+03  0.25500000000E-02 0.  1.
    8880023    1    1    2    0    0 -0.60296143953E+03  0.63829932558E+03  0.21144503971E+04  0.23823726020E+04  0.65864270000E+03 0. -1.
    8880022    1    1    2    0    0  0.60296143953E+03 -0.63829932558E+03  0.70329083505E+03  0.11353405561E+04  0.15294330000E+03 0.  1.
<mgrwt>
<rscale>  0 0.10419491E+04</rscale>
<asrwt>0</asrwt>
<pdfrwt beam="1">  1        2 0.48734265E+00 0.10976332E+04</pdfrwt>
<pdfrwt beam="2">  1       -2 0.53843994E-01 0.10976332E+04</pdfrwt>
<totfact> 0.44819146E+00</totfact>
</mgrwt>
</event>
<event>
 4    1  0.2089815E-007  0.1359698E+04  0.7818608E-02  0.9015649E-01
          2   -1    0    0  501    0  0.00000000000E+00  0.00000000000E+00  0.18557894977E+04  0.18557894977E+04  0.25500000000E-02 0. -1.
         -2   -1    0    0    0  501 -0.00000000000E+00 -0.00000000000E+00 -0.13417974388E+04  0.13417974388E+04  0.25500000000E-02 0.  1.
    8880023    1    1    2    0    0  0.11792435195E+04 -0.15605251632E+03  0.12021004904E+04  0.18148893799E+04  0.65864270000E+03 0.  0.
    8880022    1    1    2    0    0 -0.11792435195E+04  0.15605251632E+03 -0.68810843145E+03  0.13826975565E+04  0.15294330000E+03 0.  0.
<mgrwt>
<rscale>  0 0.13176959E+04</rscale>
<asrwt>0</asrwt>
<pdfrwt beam="1">  1        2 0.28550608E+00 0.13596977E+04</pdfrwt>
<pdfrwt beam="2">  1       -2 0.20643038E+00 0.13596977E+04</pdfrwt>
<totfact> 0.92469114E-01</totfact>
</mgrwt>
</event>
<event>
 4    1  0.2089815E-007  0.1152345E+04  0.7818608E-02  0.9204899E-01
          2   -1    0    0  501    0  0.00000000000E+00  0.00000000000E+00  0.17088572722E+04  0.17088572723E+04  0.25500000000E-02 0. -1.
         -2   -1    0    0    0  501 -0.00000000000E+00 -0.00000000000E+00 -0.12111954527E+04  0.12111954527E+04  0.25500000000E-02 0.  1.
    8880023    1    1    2    0    0  0.56012244745E+02 -0.94390213055E+03  0.12514393578E+04  0.17011758510E+04  0.65864270000E+03 0.  0.
    8880022    1    1    2    0    0 -0.56012244745E+02  0.94390213055E+03 -0.75377753818E+03  0.12188768739E+04  0.15294330000E+03 0.  0.
<mgrwt>
<rscale>  0 0.11003009E+04</rscale>
<asrwt>0</asrwt>
<pdfrwt beam="1">  1        2 0.26290112E+00 0.11523449E+04</pdfrwt>
<pdfrwt beam="2">  1       -2 0.18633776E+00 0.11523449E+04</pdfrwt>
<totfact> 0.15523152E+00</totfact>
</mgrwt>
</event>
<event>
 4    1  0.2089815E-007  0.7228260E+03  0.7818608E-02  0.9913137E-01
          2   -1    0    0  501    0  0.00000000000E+00  0.00000000000E+00  0.43073025904E+03  0.43073025905E+03  0.25500000000E-02 0. -1.
         -2   -1    0    0    0  501 -0.00000000000E+00 -0.00000000000E+00 -0.94797382103E+03  0.94797382103E+03  0.25500000000E-02 0.  1.
    8880023    1    1    2    0    0 -0.14702799167E+03 -0.25893999390E+03  0.45137455048E+02  0.72423390344E+03  0.65864270000E+03 0. -1.
    8880022    1    1    2    0    0  0.14702799167E+03  0.25893999390E+03 -0.56238101704E+03  0.65447017664E+03  0.15294330000E+03 0.  0.
<mgrwt>
<rscale>  0 0.59628797E+03</rscale>
<asrwt>0</asrwt>
<pdfrwt beam="1">  1        2 0.66266194E-01 0.72282595E+03</pdfrwt>
<pdfrwt beam="2">  1       -2 0.14584213E+00 0.72282595E+03</pdfrwt>
<totfact> 0.23951940E+01</totfact>
</mgrwt>
</event>
<event>
 4    1  0.2089815E-007  0.1059540E+04  0.7818608E-02  0.9307500E-01
         -2   -1    0    0    0  501 -0.00000000000E+00  0.00000000000E+00  0.18732812298E+04  0.18732812298E+04  0.25500000000E-02 0.  1.
          2   -1    0    0  501    0  0.00000000000E+00 -0.00000000000E+00 -0.10229268884E+04  0.10229268884E+04  0.25500000000E-02 0. -1.
    8880023    1    1    2    0    0  0.65504956840E+03  0.50963191650E+03  0.14963009790E+04  0.18334506957E+04  0.65864270000E+03 0.  0.
    8880022    1    1    2    0    0 -0.65504956840E+03 -0.50963191650E+03 -0.64594663767E+03  0.10627574225E+04  0.15294330000E+03 0.  0.
<mgrwt>
<rscale>  0 0.10009531E+04</rscale>
<asrwt>0</asrwt>
<pdfrwt beam="1">  1        2 0.15737337E+00 0.10595399E+04</pdfrwt>
<pdfrwt beam="2">  1       -2 0.28819711E+00 0.10595399E+04</pdfrwt>
<totfact> 0.90835519E-01</totfact>
</mgrwt>
</event>
<event>
 4    1  0.2089815E-007  0.1000102E+04  0.7818608E-02  0.9381424E-01
         -2   -1    0    0    0  501 -0.00000000000E+00  0.00000000000E+00  0.76369768829E+03  0.76369768830E+03  0.25500000000E-02 0.  1.
          2   -1    0    0  501    0  0.00000000000E+00 -0.00000000000E+00 -0.12421127784E+04  0.12421127784E+04  0.25500000000E-02 0. -1.
    8880023    1    1    2    0    0 -0.64441401883E+03 -0.38874710201E+03 -0.68297737366E+03  0.12110582299E+04  0.65864270000E+03 0.  0.
    8880022    1    1    2    0    0  0.64441401883E+03  0.38874710201E+03  0.20456228359E+03  0.79475223678E+03  0.15294330000E+03 0.  0.
<mgrwt>
<rscale>  0 0.93620286E+03</rscale>
<asrwt>0</asrwt>
<pdfrwt beam="1">  1        2 0.19109427E+00 0.10001020E+04</pdfrwt>
<pdfrwt beam="2">  1       -2 0.11749195E+00 0.10001020E+04</pdfrwt>
<totfact> 0.99323027E+00</totfact>
</mgrwt>
</event>
<event>
 4    1  0.2089815E-007  0.1346596E+04  0.7818608E-02  0.9026331E-01
         -2   -1    0    0    0  501 -0.00000000000E+00  0.00000000000E+00  0.71366467281E+03  0.71366467281E+03  0.25500000000E-02 0.  1.
          2   -1    0    0  501    0  0.00000000000E+00 -0.00000000000E+00 -0.28431182483E+04  0.28431182483E+04  0.25500000000E-02 0. -1.
    8880023    1    1    2    0    0 -0.19371318646E+03 -0.11584412064E+04 -0.19335418290E+04  0.23562480850E+04  0.65864270000E+03 0.  0.
    8880022    1    1    2    0    0  0.19371318646E+03  0.11584412064E+04 -0.19591174653E+03  0.12005348361E+04  0.15294330000E+03 0.  0.
<mgrwt>
<rscale>  0 0.13040866E+04</rscale>
<asrwt>0</asrwt>
<pdfrwt beam="1">  1        2 0.43740280E+00 0.13465961E+04</pdfrwt>
<pdfrwt beam="2">  1       -2 0.10979457E+00 0.13465961E+04</pdfrwt>
<totfact> 0.13927672E+00</totfact>
</mgrwt>
</event>
<event>
 4    1  0.2543919E-007  0.1348656E+04  0.7818608E-02  0.9024641E-01
          2   -1    0    0  501    0  0.00000000000E+00  0.00000000000E+00  0.17539817746E+04  0.17539817746E+04  0.25500000000E-02 0. -1.
         -2   -1    0    0    0  501 -0.00000000000E+00 -0.00000000000E+00 -0.19526663778E+04  0.19526663778E+04  0.25500000000E-02 0.  1.
    8880023    1    1    2    0    0  0.11631856905E+04 -0.17905855790E+03  0.12465993984E+04  0.18365410924E+04  0.65864270000E+03 0.  0.
    8880022    1    1    2    0    0 -0.11631856905E+04  0.17905855790E+03 -0.14452840015E+04  0.18701070600E+04  0.15294330000E+03 0.  0.
<mgrwt>
<rscale>  0 0.13062273E+04</rscale>
<asrwt>0</asrwt>
<pdfrwt beam="1">  1        2 0.26984335E+00 0.13486560E+04</pdfrwt>
<pdfrwt beam="2">  1       -2 0.30041021E+00 0.13486560E+04</pdfrwt>
<totfact> 0.27658631E-01</totfact>
</mgrwt>
</event>
<event>
 4    1  0.2089815E-007  0.7329181E+03  0.7818608E-02  0.9881078E-01
         -2   -1    0    0    0  501 -0.00000000000E+00  0.00000000000E+00  0.25672134938E+04  0.25672134938E+04  0.25500000000E-02 0.  1.
          2   -1    0    0  501    0  0.00000000000E+00 -0.00000000000E+00 -0.52507111419E+03  0.52507111420E+03  0.25500000000E-02 0. -1.
    8880023    1    1    2    0    0 -0.74165530488E+02 -0.31282297678E+03 -0.24868355442E+03  0.77395895060E+03  0.65864270000E+03 0. -1.
    8880022    1    1    2    0    0  0.74165530488E+02  0.31282297678E+03  0.22908259341E+04  0.23183256574E+04  0.15294330000E+03 0.  0.
<mgrwt>
<rscale>  0 0.61187154E+03</rscale>
<asrwt>0</asrwt>
<pdfrwt beam="1">  1        2 0.80780173E-01 0.73291810E+03</pdfrwt>
<pdfrwt beam="2">  1       -2 0.39495592E+00 0.73291810E+03</pdfrwt>
<totfact> 0.49676519E-01</totfact>
</mgrwt>
</event>
<event>
 4    1  0.2089815E-007  0.1267947E+04  0.7818608E-02  0.9093746E-01
         -2   -1    0    0    0  501 -0.00000000000E+00  0.00000000000E+00  0.46507718126E+03  0.46507718127E+03  0.25500000000E-02 0.  1.
          2   -1    0    0  501    0  0.00000000000E+00 -0.00000000000E+00 -0.49360084060E+04  0.49360084060E+04  0.25500000000E-02 0. -1.
    8880023    1    1    2    0    0 -0.10222937129E+04 -0.35888057060E+03 -0.40241631459E+04  0.42191917390E+04  0.65864270000E+03 0.  0.
    8880022    1    1    2    0    0  0.10222937129E+04  0.35888057060E+03 -0.44676807884E+03  0.11818938483E+04  0.15294330000E+03 0.  0.
<mgrwt>
<rscale>  0 0.12220808E+04</rscale>
<asrwt>0</asrwt>
<pdfrwt beam="1">  1        2 0.75938587E+00 0.12679471E+04</pdfrwt>
<pdfrwt beam="2">  1       -2 0.71550339E-01 0.12679471E+04</pdfrwt>
<totfact> 0.75902279E-02</totfact>
</mgrwt>
</event>
<event>
 4    1  0.2089815E-007  0.1124561E+04  0.7818608E-02  0.9234191E-01
         -2   -1    0    0    0  501 -0.00000000000E+00  0.00000000000E+00  0.23171674458E+04  0.23171674458E+04  0.25500000000E-02 0.  1.
          2   -1    0    0  501    0  0.00000000000E+00 -0.00000000000E+00 -0.97068235334E+03  0.97068235334E+03  0.25500000000E-02 0. -1.
    8880023    1    1    2    0    0  0.58169115475E+03 -0.70175688069E+03 -0.49404129976E+03  0.12282973301E+04  0.65864270000E+03 0. -1.
    8880022    1    1    2    0    0 -0.58169115475E+03  0.70175688069E+03  0.18405263923E+04  0.20595524690E+04  0.15294330000E+03 0.  0.
<mgrwt>
<rscale>  0 0.10707385E+04</rscale>
<asrwt>0</asrwt>
<pdfrwt beam="1">  1        2 0.14933575E+00 0.11245610E+04</pdfrwt>
<pdfrwt beam="2">  1       -2 0.35648729E+00 0.11245610E+04</pdfrwt>
<totfact> 0.37017416E-01</totfact>
</mgrwt>
</event>
<event>
 4    1  0.2089815E-007  0.1715439E+04  0.7818608E-02  0.8770814E-01
          2   -1    0    0  501    0  0.00000000000E+00  0.00000000000E+00  0.36882665130E+04  0.36882665130E+04  0.25500000000E-02 0. -1.
         -2   -1    0    0    0  501 -0.00000000000E+00 -0.00000000000E+00 -0.15604042584E+04  0.15604042584E+04  0.25500000000E-02 0.  1.
    8880023    1    1    2    0    0 -0.15600496767E+04 -0.27416090218E+03  0.29837885022E+04  0.34417616458E+04  0.65864270000E+03 0. -1.
    8880022    1    1    2    0    0  0.15600496767E+04  0.27416090218E+03 -0.85592624765E+03  0.18069091257E+04  0.15294330000E+03 0.  0.
<mgrwt>
<rscale>  0 0.16835305E+04</rscale>
<asrwt>0</asrwt>
<pdfrwt beam="1">  1        2 0.56742562E+00 0.17154385E+04</pdfrwt>
<pdfrwt beam="2">  1       -2 0.24006219E+00 0.17154385E+04</pdfrwt>
<totfact> 0.40576260E-02</totfact>
</mgrwt>
</event>
<event>
 4    1  0.2089815E-007  0.7248872E+03  0.7818608E-02  0.9906383E-01
          2   -1    0    0  501    0  0.00000000000E+00  0.00000000000E+00  0.10977882650E+04  0.10977882650E+04  0.25500000000E-02 0. -1.
         -2   -1    0    0    0  501 -0.00000000000E+00 -0.00000000000E+00 -0.42638362684E+03  0.42638362685E+03  0.25500000000E-02 0.  1.
    8880023    1    1    2    0    0  0.97390712198E+02  0.28664663813E+03  0.86898980498E+03  0.11316380753E+04  0.65864270000E+03 0. -1.
    8880022    1    1    2    0    0 -0.97390712198E+02 -0.28664663813E+03 -0.19758516684E+03  0.39253381656E+03  0.15294330000E+03 0.  0.
<mgrwt>
<rscale>  0 0.59952914E+03</rscale>
<asrwt>0</asrwt>
<pdfrwt beam="1">  1        2 0.16889050E+00 0.72488720E+03</pdfrwt>
<pdfrwt beam="2">  1       -2 0.65597482E-01 0.72488720E+03</pdfrwt>
<totfact> 0.47669568E+01</totfact>
</mgrwt>
</event>
<event>
 4    1  0.2089815E-007  0.1115781E+04  0.7818608E-02  0.9243686E-01
         -2   -1    0    0    0  501 -0.00000000000E+00  0.00000000000E+00  0.14776459755E+04  0.14776459755E+04  0.25500000000E-02 0.  1.
          2   -1    0    0  501    0  0.00000000000E+00 -0.00000000000E+00 -0.88875423023E+03  0.88875423023E+03  0.25500000000E-02 0. -1.
    8880023    1    1    2    0    0 -0.89970689239E+03 -0.41039498819E+02 -0.23037066047E+03  0.11393145220E+04  0.65864270000E+03 0.  1.
    8880022    1    1    2    0    0  0.89970689239E+03  0.41039498819E+02  0.81926240578E+03  0.12270856837E+04  0.15294330000E+03 0.  0.
<mgrwt>
<rscale>  0 0.10613671E+04</rscale>
<asrwt>0</asrwt>
<pdfrwt beam="1">  1        2 0.13673142E+00 0.11157809E+04</pdfrwt>
<pdfrwt beam="2">  1       -2 0.22733015E+00 0.11157809E+04</pdfrwt>
<totfact> 0.26049695E+00</totfact>
</mgrwt>
</event>
<event>
 4    1  0.2089815E-007  0.9232286E+03  0.7818608E-02  0.9489726E-01
         -2   -1    0    0    0  501 -0.00000000000E+00  0.00000000000E+00  0.10183085686E+04  0.10183085686E+04  0.25500000000E-02 0.  1.
          2   -1    0    0  501    0  0.00000000000E+00 -0.00000000000E+00 -0.22109189161E+04  0.22109189161E+04  0.25500000000E-02 0. -1.
    8880023    1    1    2    0    0 -0.16422303752E+03  0.62575688860E+03 -0.19884141632E+04  0.21922914907E+04  0.65864270000E+03 0. -1.
    8880022    1    1    2    0    0  0.16422303752E+03 -0.62575688860E+03  0.79580381567E+03  0.10369359940E+04  0.15294330000E+03 0.  0.
<mgrwt>
<rscale>  0 0.85045521E+03</rscale>
<asrwt>0</asrwt>
<pdfrwt beam="1">  1        2 0.34014137E+00 0.92322863E+03</pdfrwt>
<pdfrwt beam="2">  1       -2 0.15666286E+00 0.92322863E+03</pdfrwt>
<totfact> 0.13749574E+00</totfact>
</mgrwt>
</event>
<event>
 4    1  0.2089815E-007  0.1073190E+04  0.7818608E-02  0.9291510E-01
          2   -1    0    0  501    0  0.00000000000E+00  0.00000000000E+00  0.30392057027E+04  0.30392057027E+04  0.25500000000E-02 0. -1.
         -2   -1    0    0    0  501 -0.00000000000E+00 -0.00000000000E+00 -0.43938687328E+03  0.43938687329E+03  0.25500000000E-02 0.  1.
    8880023    1    1    2    0    0 -0.73302674079E+03 -0.42496820223E+03  0.23478244121E+04  0.25814755184E+04  0.65864270000E+03 0. -1.
    8880022    1    1    2    0    0  0.73302674079E+03  0.42496820223E+03  0.25199441726E+03  0.89711705756E+03  0.15294330000E+03 0.  0.
<mgrwt>
<rscale>  0 0.10156825E+04</rscale>
<asrwt>0</asrwt>
<pdfrwt beam="1">  1        2 0.46757010E+00 0.10731898E+04</pdfrwt>
<pdfrwt beam="2">  1       -2 0.67597981E-01 0.10731898E+04</pdfrwt>
<totfact> 0.33408697E+00</totfact>
</mgrwt>
</event>
<event>
 4    1  0.2089815E-007  0.7051636E+03  0.7818608E-02  0.9976419E-01
         -2   -1    0    0    0  501 -0.00000000000E+00  0.00000000000E+00  0.87435092150E+03  0.87435092151E+03  0.25500000000E-02 0.  1.
          2   -1    0    0  501    0  0.00000000000E+00 -0.00000000000E+00 -0.55074483218E+03  0.55074483218E+03  0.25500000000E-02 0. -1.
    8880023    1    1    2    0    0  0.21428895734E+02  0.25097057339E+03 -0.27579226383E+03  0.75717699736E+03  0.65864270000E+03 0. -1.
    8880022    1    1    2    0    0 -0.21428895734E+02 -0.25097057339E+03  0.59939835316E+03  0.66791875633E+03  0.15294330000E+03 0.  0.
<mgrwt>
<rscale>  0 0.56696408E+03</rscale>
<asrwt>0</asrwt>
<pdfrwt beam="1">  1        2 0.84729975E-01 0.70516355E+03</pdfrwt>
<pdfrwt beam="2">  1       -2 0.13451553E+00 0.70516355E+03</pdfrwt>
<totfact> 0.22259309E+01</totfact>
</mgrwt>
</event>
<event>
 4    1  0.2089815E-007  0.7821579E+03  0.7818608E-02  0.9750792E-01
         -2   -1    0    0    0  501 -0.00000000000E+00  0.00000000000E+00  0.15916236615E+03  0.15916236617E+03  0.25500000000E-02 0.  1.
          2   -1    0    0  501    0  0.00000000000E+00 -0.00000000000E+00 -0.27706892438E+04  0.27706892438E+04  0.25500000000E-02 0. -1.
    8880023    1    1    2    0    0  0.41285569575E+03 -0.86665725291E+02 -0.21422199163E+04  0.22805431698E+04  0.65864270000E+03 0.  0.
    8880022    1    1    2    0    0 -0.41285569575E+03  0.86665725291E+02 -0.46930696141E+03  0.64930844019E+03  0.15294330000E+03 0.  0.
<mgrwt>
<rscale>  0 0.68071518E+03</rscale>
<asrwt>0</asrwt>
<pdfrwt beam="1">  1        2 0.42625985E+00 0.78215790E+03</pdfrwt>
<pdfrwt beam="2">  1       -2 0.24486520E-01 0.78215790E+03</pdfrwt>
<totfact> 0.37445942E+01</totfact>
</mgrwt>
</event>
<event>
 4    1  0.2089815E-007  0.8909100E+03  0.7818608E-02  0.9540784E-01
          2   -1    0    0  501    0  0.00000000000E+00  0.00000000000E+00  0.26828510385E+04  0.26828510385E+04  0.25500000000E-02 0. -1.
         -2   -1    0    0    0  501 -0.00000000000E+00 -0.00000000000E+00 -0.29644662879E+03  0.29644662880E+03  0.25500000000E-02 0.  1.
    8880023    1    1    2    0    0 -0.55106867947E+02  0.59738906022E+03  0.21306949276E+04  0.23094548138E+04  0.65864270000E+03 0.  0.
    8880022    1    1    2    0    0  0.55106867947E+02 -0.59738906022E+03  0.25570948211E+03  0.66984285352E+03  0.15294330000E+03 0.  0.
<mgrwt>
<rscale>  0 0.81342597E+03</rscale>
<asrwt>0</asrwt>
<pdfrwt beam="1">  1        2 0.41274631E+00 0.89091002E+03</pdfrwt>
<pdfrwt beam="2">  1       -2 0.45607174E-01 0.89091002E+03</pdfrwt>
<totfact> 0.12771220E+01</totfact>
</mgrwt>
</event>
<event>
 4    1  0.2089815E-007  0.1606418E+04  0.7818608E-02  0.8837930E-01
          2   -1    0    0  501    0  0.00000000000E+00  0.00000000000E+00  0.15906063824E+04  0.15906063824E+04  0.25500000000E-02 0. -1.
         -2   -1    0    0    0  501 -0.00000000000E+00 -0.00000000000E+00 -0.16813485450E+04  0.16813485450E+04  0.25500000000E-02 0.  1.
    8880023    1    1    2    0    0  0.57576574807E+03  0.13473169205E+04  0.50349099036E+03  0.16834733335E+04  0.65864270000E+03 0.  0.
    8880022    1    1    2    0    0 -0.57576574807E+03 -0.13473169205E+04 -0.59423315298E+03  0.15884815939E+04  0.15294330000E+03 0.  0.
<mgrwt>
<rscale>  0 0.15720105E+04</rscale>
<asrwt>0</asrwt>
<pdfrwt beam="1">  1        2 0.24470867E+00 0.16064182E+04</pdfrwt>
<pdfrwt beam="2">  1       -2 0.25866901E+00 0.16064182E+04</pdfrwt>
<totfact> 0.59676577E-01</totfact>
</mgrwt>
</event>
<event>
 4    1  0.2089815E-007  0.1205217E+04  0.7818608E-02  0.9152067E-01
          2   -1    0    0  501    0  0.00000000000E+00  0.00000000000E+00  0.44333916548E+04  0.44333916548E+04  0.25500000000E-02 0. -1.
         -2   -1    0    0    0  501 -0.00000000000E+00 -0.00000000000E+00 -0.57528267654E+03  0.57528267654E+03  0.25500000000E-02 0.  1.
    8880023    1    1    2    0    0  0.87289462573E+03 -0.50674771024E+03  0.37995851664E+04  0.39861505130E+04  0.65864270000E+03 0. -1.
    8880022    1    1    2    0    0 -0.87289462573E+03  0.50674771024E+03  0.58523811864E+02  0.10225238183E+04  0.15294330000E+03 0.  0.
<mgrwt>
<rscale>  0 0.11562167E+04</rscale>
<asrwt>0</asrwt>
<pdfrwt beam="1">  1        2 0.68206024E+00 0.12052172E+04</pdfrwt>
<pdfrwt beam="2">  1       -2 0.88505028E-01 0.12052172E+04</pdfrwt>
<totfact> 0.16118633E-01</totfact>
</mgrwt>
</event>
<event>
 4    1  0.2089815E-007  0.7710154E+03  0.7818608E-02  0.9777381E-01
         -2   -1    0    0    0  501 -0.00000000000E+00  0.00000000000E+00  0.12613109473E+04  0.12613109473E+04  0.25500000000E-02 0.  1.
          2   -1    0    0  501    0  0.00000000000E+00 -0.00000000000E+00 -0.10352982716E+04  0.10352982716E+04  0.25500000000E-02 0. -1.
    8880023    1    1    2    0    0 -0.22979250105E+03  0.32840522953E+03 -0.84438657868E+03  0.11434393245E+04  0.65864270000E+03 0.  0.
    8880022    1    1    2    0    0  0.22979250105E+03 -0.32840522953E+03  0.10703992544E+04  0.11531698943E+04  0.15294330000E+03 0.  0.
<mgrwt>
<rscale>  0 0.66590637E+03</rscale>
<asrwt>0</asrwt>
<pdfrwt beam="1">  1        2 0.15927666E+00 0.77101543E+03</pdfrwt>
<pdfrwt beam="2">  1       -2 0.19404784E+00 0.77101543E+03</pdfrwt>
<totfact> 0.35544489E+00</totfact>
</mgrwt>
</event>
<event>
 4    1  0.2089815E-007  0.9544382E+03  0.7818608E-02  0.9443757E-01
          2   -1    0    0  501    0  0.00000000000E+00  0.00000000000E+00  0.20329909674E+04  0.20329909674E+04  0.25500000000E-02 0. -1.
         -2   -1    0    0    0  501 -0.00000000000E+00 -0.00000000000E+00 -0.45929914841E+03  0.45929914841E+03  0.25500000000E-02 0.  1.
    8880023    1    1    2    0    0  0.24682892910E+03  0.64514922165E+03  0.24248325404E+03  0.98475904321E+03  0.65864270000E+03 0.  0.
    8880022    1    1    2    0    0 -0.24682892910E+03 -0.64514922165E+03  0.13312085649E+04  0.15075310726E+04  0.15294330000E+03 0.  0.
<mgrwt>
<rscale>  0 0.88560492E+03</rscale>
<asrwt>0</asrwt>
<pdfrwt beam="1">  1        2 0.31276784E+00 0.95443818E+03</pdfrwt>
<pdfrwt beam="2">  1       -2 0.70661407E-01 0.95443818E+03</pdfrwt>
<totfact> 0.11762480E+01</totfact>
</mgrwt>
</event>
<event>
 4    1  0.2089815E-007  0.7177624E+03  0.7818608E-02  0.9930231E-01
         -2   -1    0    0    0  501 -0.00000000000E+00  0.00000000000E+00  0.11313643536E+04  0.11313643536E+04  0.25500000000E-02 0.  1.
          2   -1    0    0  501    0  0.00000000000E+00 -0.00000000000E+00 -0.15608968162E+04  0.15608968162E+04  0.25500000000E-02 0. -1.
    8880023    1    1    2    0    0  0.75008243521E+02  0.27522055230E+03 -0.14520364126E+04  0.16197507644E+04  0.65864270000E+03 0. -1.
    8880022    1    1    2    0    0 -0.75008243521E+02 -0.27522055230E+03  0.10225039500E+04  0.10725104054E+04  0.15294330000E+03 0.  0.
<mgrwt>
<rscale>  0 0.58818256E+03</rscale>
<asrwt>0</asrwt>
<pdfrwt beam="1">  1        2 0.24013797E+00 0.71776235E+03</pdfrwt>
<pdfrwt beam="2">  1       -2 0.17405605E+00 0.71776235E+03</pdfrwt>
<totfact> 0.24239733E+00</totfact>
</mgrwt>
</event>
<event>
 4    1  0.2089815E-007  0.1049054E+04  0.7818608E-02  0.9320019E-01
         -2   -1    0    0    0  501 -0.00000000000E+00  0.00000000000E+00  0.41239520723E+03  0.41239520724E+03  0.25500000000E-02 0.  1.
          2   -1    0    0  501    0  0.00000000000E+00 -0.00000000000E+00 -0.21535330346E+04  0.21535330346E+04  0.25500000000E-02 0. -1.
    8880023    1    1    2    0    0 -0.81617475513E+03 -0.23723359223E+02 -0.87825470563E+03  0.13681540713E+04  0.65864270000E+03 0. -1.
    8880022    1    1    2    0    0  0.81617475513E+03  0.23723359223E+02 -0.86288312170E+03  0.11977741705E+04  0.15294330000E+03 0.  1.
<mgrwt>
<rscale>  0 0.98960536E+03</rscale>
<asrwt>0</asrwt>
<pdfrwt beam="1">  1        2 0.33131277E+00 0.10490540E+04</pdfrwt>
<pdfrwt beam="2">  1       -2 0.63445418E-01 0.10490540E+04</pdfrwt>
<totfact> 0.12613193E+01</totfact>
</mgrwt>
</event>
<event>
 4    1  0.2089815E-007  0.1039968E+04  0.7818608E-02  0.9331039E-01
          2   -1    0    0  501    0  0.00000000000E+00  0.00000000000E+00  0.15242124302E+04  0.15242124302E+04  0.25500000000E-02 0. -1.
         -2   -1    0    0    0  501 -0.00000000000E+00 -0.00000000000E+00 -0.82023456153E+03  0.82023456154E+03  0.25500000000E-02 0.  1.
    8880023    1    1    2    0    0 -0.62377532985E+03 -0.50855521302E+03 -0.26734728207E+03  0.10737824930E+04  0.65864270000E+03 0.  1.
    8880022    1    1    2    0    0  0.62377532985E+03  0.50855521302E+03  0.97132515069E+03  0.12706644987E+04  0.15294330000E+03 0.  0.
<mgrwt>
<rscale>  0 0.97974890E+03</rscale>
<asrwt>0</asrwt>
<pdfrwt beam="1">  1        2 0.23449422E+00 0.10399684E+04</pdfrwt>
<pdfrwt beam="2">  1       -2 0.12618993E+00 0.10399684E+04</pdfrwt>
<totfact> 0.56988248E+00</totfact>
</mgrwt>
</event>
<event>
 4    1  0.2089815E-007  0.8954483E+03  0.7818608E-02  0.9533378E-01
          2   -1    0    0  501    0  0.00000000000E+00  0.00000000000E+00  0.85009814138E+03  0.85009814138E+03  0.25500000000E-02 0. -1.
         -2   -1    0    0    0  501 -0.00000000000E+00 -0.00000000000E+00 -0.11302515047E+04  0.11302515047E+04  0.25500000000E-02 0.  1.
    8880023    1    1    2    0    0 -0.45614195357E+03 -0.39993999134E+03  0.46369304338E+03  0.10083843133E+04  0.65864270000E+03 0. -1.
    8880022    1    1    2    0    0  0.45614195357E+03  0.39993999134E+03 -0.74384640672E+03  0.97196533286E+03  0.15294330000E+03 0.  0.
<mgrwt>
<rscale>  0 0.81867073E+03</rscale>
<asrwt>0</asrwt>
<pdfrwt beam="1">  1        2 0.13078433E+00 0.89544831E+03</pdfrwt>
<pdfrwt beam="2">  1       -2 0.17388485E+00 0.89544831E+03</pdfrwt>
<totfact> 0.63613086E+00</totfact>
</mgrwt>
</event>
<event>
 4    1  0.2089815E-007  0.1460973E+04  0.7818608E-02  0.8937698E-01
         -2   -1    0    0    0  501 -0.00000000000E+00  0.00000000000E+00  0.12888771210E+04  0.12888771210E+04  0.25500000000E-02 0.  1.
          2   -1    0    0  501    0  0.00000000000E+00 -0.00000000000E+00 -0.18600214041E+04  0.18600214041E+04  0.25500000000E-02 0. -1.
    8880023    1    1    2    0    0  0.88620903952E+03  0.95669462080E+03 -0.99677347273E+03  0.17686148878E+04  0.65864270000E+03 0.  0.
    8880022    1    1    2    0    0 -0.88620903952E+03 -0.95669462080E+03  0.42562918959E+03  0.13802836372E+04  0.15294330000E+03 0.  0.
<mgrwt>
<rscale>  0 0.14224908E+04</rscale>
<asrwt>0</asrwt>
<pdfrwt beam="1">  1        2 0.28615714E+00 0.14609727E+04</pdfrwt>
<pdfrwt beam="2">  1       -2 0.19828879E+00 0.14609727E+04</pdfrwt>
<totfact> 0.10292614E+00</totfact>
</mgrwt>
</event>
<event>
 4    1  0.2089815E-007  0.1041435E+04  0.7818608E-02  0.9329249E-01
          2   -1    0    0  501    0  0.00000000000E+00  0.00000000000E+00  0.18441062749E+04  0.18441062749E+04  0.25500000000E-02 0. -1.
         -2   -1    0    0    0  501 -0.00000000000E+00 -0.00000000000E+00 -0.62498745229E+03  0.62498745229E+03  0.25500000000E-02 0.  1.
    8880023    1    1    2    0    0 -0.80135460167E+03  0.92781776009E+02  0.12748145230E+04  0.16461287707E+04  0.65864270000E+03 0.  0.
    8880022    1    1    2    0    0  0.80135460167E+03 -0.92781776009E+02 -0.55695700316E+02  0.82296495650E+03  0.15294330000E+03 0.  0.
<mgrwt>
<rscale>  0 0.98134203E+03</rscale>
<asrwt>0</asrwt>
<pdfrwt beam="1">  1        2 0.28370865E+00 0.10414355E+04</pdfrwt>
<pdfrwt beam="2">  1       -2 0.96151919E-01 0.10414355E+04</pdfrwt>
<totfact> 0.73476543E+00</totfact>
</mgrwt>
</event>
<event>
 4    1  0.2089815E-007  0.1023853E+04  0.7818608E-02  0.9350996E-01
         -2   -1    0    0    0  501 -0.00000000000E+00  0.00000000000E+00  0.66737773883E+03  0.66737773883E+03  0.25500000000E-02 0.  1.
          2   -1    0    0  501    0  0.00000000000E+00 -0.00000000000E+00 -0.13708158192E+04  0.13708158192E+04  0.25500000000E-02 0. -1.
    8880023    1    1    2    0    0  0.51000166755E+03  0.59528333877E+03 -0.69866828154E+03  0.12395206849E+04  0.65864270000E+03 0. -1.
    8880022    1    1    2    0    0 -0.51000166755E+03 -0.59528333877E+03 -0.47697988205E+01  0.79867287316E+03  0.15294330000E+03 0.  1.
<mgrwt>
<rscale>  0 0.96220670E+03</rscale>
<asrwt>0</asrwt>
<pdfrwt beam="1">  1        2 0.21089474E+00 0.10238526E+04</pdfrwt>
<pdfrwt beam="2">  1       -2 0.10267350E+00 0.10238526E+04</pdfrwt>
<totfact> 0.11575973E+01</totfact>
</mgrwt>
</event>
<event>
 4    1  0.2089815E-007  0.9121407E+03  0.7818608E-02  0.9506816E-01
          2   -1    0    0  501    0  0.00000000000E+00  0.00000000000E+00  0.60750553141E+03  0.60750553142E+03  0.25500000000E-02 0. -1.
         -2   -1    0    0    0  501 -0.00000000000E+00 -0.00000000000E+00 -0.13009902460E+04  0.13009902460E+04  0.25500000000E-02 0.  1.
    8880023    1    1    2    0    0  0.10618117289E+02  0.63093394713E+03  0.59681096191E+02  0.91409104009E+03  0.65864270000E+03 0.  0.
    8880022    1    1    2    0    0 -0.10618117289E+02 -0.63093394713E+03 -0.75316581074E+03  0.99440473729E+03  0.15294330000E+03 0.  0.
<mgrwt>
<rscale>  0 0.83783139E+03</rscale>
<asrwt>0</asrwt>
<pdfrwt beam="1">  1        2 0.93462389E-01 0.91214067E+03</pdfrwt>
<pdfrwt beam="2">  1       -2 0.20015235E+00 0.91214067E+03</pdfrwt>
<totfact> 0.64986706E+00</totfact>
</mgrwt>
</event>
<event>
 4    1  0.2089815E-007  0.7190551E+03  0.7818608E-02  0.9925796E-01
         -2   -1    0    0    0  501 -0.00000000000E+00  0.00000000000E+00  0.10238324454E+04  0.10238324454E+04  0.25500000000E-02 0.  1.
          2   -1    0    0  501    0  0.00000000000E+00 -0.00000000000E+00 -0.94241992485E+03  0.94241992485E+03  0.25500000000E-02 0. -1.
    8880023    1    1    2    0    0  0.25962639487E+03  0.12579414978E+03 -0.77050185939E+03  0.10539038640E+04  0.65864270000E+03 0. -1.
    8880022    1    1    2    0    0 -0.25962639487E+03 -0.12579414978E+03  0.85191437996E+03  0.91234850624E+03  0.15294330000E+03 0.  0.
<mgrwt>
<rscale>  0 0.59027219E+03</rscale>
<asrwt>0</asrwt>
<pdfrwt beam="1">  1        2 0.14498768E+00 0.71905510E+03</pdfrwt>
<pdfrwt beam="2">  1       -2 0.15751268E+00 0.71905510E+03</pdfrwt>
<totfact> 0.73804155E+00</totfact>
</mgrwt>
</event>
<event>
 4    1  0.2089815E-007  0.9956612E+03  0.7818608E-02  0.9387256E-01
         -2   -1    0    0    0  501 -0.00000000000E+00  0.00000000000E+00  0.50756012959E+03  0.50756012959E+03  0.25500000000E-02 0.  1.
          2   -1    0    0  501    0  0.00000000000E+00 -0.00000000000E+00 -0.15625656264E+04  0.15625656264E+04  0.25500000000E-02 0. -1.
    8880023    1    1    2    0    0 -0.52716564979E+03  0.52879809767E+03 -0.76109160860E+03  0.12532364874E+04  0.65864270000E+03 0. -1.
    8880022    1    1    2    0    0  0.52716564979E+03 -0.52879809767E+03 -0.29391388819E+03  0.81688926857E+03  0.15294330000E+03 0.  1.
<mgrwt>
<rscale>  0 0.93131905E+03</rscale>
<asrwt>0</asrwt>
<pdfrwt beam="1">  1        2 0.24039471E+00 0.99566122E+03</pdfrwt>
<pdfrwt beam="2">  1       -2 0.78086174E-01 0.99566122E+03</pdfrwt>
<totfact> 0.17050771E+01</totfact>
</mgrwt>
</event>
<event>
 4    1  0.2089815E-007  0.7208516E+03  0.7818608E-02  0.9919715E-01
         -2   -1    0    0    0  501 -0.00000000000E+00  0.00000000000E+00  0.10205490048E+03  0.10205490051E+03  0.25500000000E-02 0.  1.
          2   -1    0    0  501    0  0.00000000000E+00 -0.00000000000E+00 -0.35459939368E+04  0.35459939368E+04  0.25500000000E-02 0. -1.
    8880023    1    1    2    0    0 -0.29215596233E+03 -0.21487397930E+02 -0.30491612554E+04  0.31332110338E+04  0.65864270000E+03 0.  0.
    8880022    1    1    2    0    0  0.29215596233E+03  0.21487397930E+02 -0.39477778084E+03  0.51483780345E+03  0.15294330000E+03 0.  0.
<mgrwt>
<rscale>  0 0.59315260E+03</rscale>
<asrwt>0</asrwt>
<pdfrwt beam="1">  1        2 0.54553744E+00 0.72085159E+03</pdfrwt>
<pdfrwt beam="2">  1       -2 0.15700757E-01 0.72085159E+03</pdfrwt>
<totfact> 0.26505358E+01</totfact>
</mgrwt>
</event>
<event>
 4    1  0.2089815E-007  0.9457542E+03  0.7818608E-02  0.9456249E-01
          2   -1    0    0  501    0  0.00000000000E+00  0.00000000000E+00  0.21992153373E+04  0.21992153373E+04  0.25500000000E-02 0. -1.
         -2   -1    0    0    0  501 -0.00000000000E+00 -0.00000000000E+00 -0.40531433132E+03  0.40531433133E+03  0.25500000000E-02 0.  1.
    8880023    1    1    2    0    0  0.50583994396E+03  0.45251150241E+03  0.16381931778E+04  0.18915939846E+04  0.65864270000E+03 0.  0.
    8880022    1    1    2    0    0 -0.50583994396E+03 -0.45251150241E+03  0.15570782819E+03  0.71293568399E+03  0.15294330000E+03 0.  0.
<mgrwt>
<rscale>  0 0.87587674E+03</rscale>
<asrwt>0</asrwt>
<pdfrwt beam="1">  1        2 0.33834082E+00 0.94575415E+03</pdfrwt>
<pdfrwt beam="2">  1       -2 0.62356051E-01 0.94575415E+03</pdfrwt>
<totfact> 0.12492734E+01</totfact>
</mgrwt>
</event>
<event>
 4    1  0.2089815E-007  0.1710801E+04  0.7818608E-02  0.8773552E-01
         -2   -1    0    0    0  501 -0.00000000000E+00  0.00000000000E+00  0.15421606228E+04  0.15421606228E+04  0.25500000000E-02 0.  1.
          2   -1    0    0  501    0  0.00000000000E+00 -0.00000000000E+00 -0.22124511123E+04  0.22124511123E+04  0.25500000000E-02 0. -1.
    8880023    1    1    2    0    0 -0.55365117166E+03  0.14786816848E+04  0.50108449881E+03  0.17826735613E+04  0.65864270000E+03 0.  0.
    8880022    1    1    2    0    0  0.55365117166E+03 -0.14786816848E+04 -0.11713749883E+04  0.19719381738E+04  0.15294330000E+03 0.  0.
<mgrwt>
<rscale>  0 0.16787943E+04</rscale>
<asrwt>0</asrwt>
<pdfrwt beam="1">  1        2 0.34037710E+00 0.17108008E+04</pdfrwt>
<pdfrwt beam="2">  1       -2 0.23725548E+00 0.17108008E+04</pdfrwt>
<totfact> 0.35898082E-01</totfact>
</mgrwt>
</event>
<event>
 4    1  0.2089815E-007  0.8809772E+03  0.7818608E-02  0.9557286E-01
         -2   -1    0    0    0  501 -0.00000000000E+00  0.00000000000E+00  0.13009403896E+04  0.13009403896E+04  0.25500000000E-02 0.  1.
          2   -1    0    0  501    0  0.00000000000E+00 -0.00000000000E+00 -0.60354460587E+03  0.60354460588E+03  0.25500000000E-02 0. -1.
    8880023    1    1    2    0    0 -0.84944360042E+02  0.57887391521E+03 -0.11850111648E+03  0.88891128629E+03  0.65864270000E+03 0.  1.
    8880022    1    1    2    0    0  0.84944360042E+02 -0.57887391521E+03  0.81589690021E+03  0.10155737092E+04  0.15294330000E+03 0.  0.
<mgrwt>
<rscale>  0 0.80188933E+03</rscale>
<asrwt>0</asrwt>
<pdfrwt beam="1">  1        2 0.92853017E-01 0.88097716E+03</pdfrwt>
<pdfrwt beam="2">  1       -2 0.20014467E+00 0.88097716E+03</pdfrwt>
<totfact> 0.65716373E+00</totfact>
</mgrwt>
</event>
<event>
 4    1  0.2089815E-007  0.6894908E+03  0.7818608E-02  0.1004396E+00
          2   -1    0    0  501    0  0.00000000000E+00  0.00000000000E+00  0.25226547621E+04  0.25226547621E+04  0.25500000000E-02 0. -1.
         -2   -1    0    0    0  501 -0.00000000000E+00 -0.00000000000E+00 -0.16274086555E+03  0.16274086557E+03  0.25500000000E-02 0.  1.
    8880023    1    1    2    0    0 -0.10317518231E+03 -0.17590417088E+03  0.23286429815E+04  0.24285748366E+04  0.65864270000E+03 0. -1.
    8880022    1    1    2    0    0  0.10317518231E+03  0.17590417088E+03  0.31270915080E+02  0.25682079106E+03  0.15294330000E+03 0.  0.
<mgrwt>
<rscale>  0 0.53764181E+03</rscale>
<asrwt>0</asrwt>
<pdfrwt beam="1">  1        2 0.38810073E+00 0.68949083E+03</pdfrwt>
<pdfrwt beam="2">  1       -2 0.25037056E-01 0.68949083E+03</pdfrwt>
<totfact> 0.50699941E+01</totfact>
</mgrwt>
</event>
<event>
 4    1  0.2089815E-007  0.9544139E+03  0.7818608E-02  0.9443792E-01
          2   -1    0    0  501    0  0.00000000000E+00  0.00000000000E+00  0.10561583817E+04  0.10561583817E+04  0.25500000000E-02 0. -1.
         -2   -1    0    0    0  501 -0.00000000000E+00 -0.00000000000E+00 -0.97400295965E+03  0.97400295966E+03  0.25500000000E-02 0.  1.
    8880023    1    1    2    0    0  0.64357205018E+03  0.25082010812E+03  0.62291646890E+03  0.11397064727E+04  0.65864270000E+03 0. -1.
    8880022    1    1    2    0    0 -0.64357205018E+03 -0.25082010812E+03 -0.54076104682E+03  0.89045486870E+03  0.15294330000E+03 0.  0.
<mgrwt>
<rscale>  0 0.88557778E+03</rscale>
<asrwt>0</asrwt>
<pdfrwt beam="1">  1        2 0.16248590E+00 0.95441391E+03</pdfrwt>
<pdfrwt beam="2">  1       -2 0.14984661E+00 0.95441391E+03</pdfrwt>
<totfact> 0.69403655E+00</totfact>
</mgrwt>
</event>
<event>
 4    1  0.2089815E-007  0.1077257E+04  0.7818608E-02  0.9286810E-01
         -2   -1    0    0    0  501 -0.00000000000E+00  0.00000000000E+00  0.65715017982E+03  0.65715017982E+03  0.25500000000E-02 0.  1.
          2   -1    0    0  501    0  0.00000000000E+00 -0.00000000000E+00 -0.17976141689E+04  0.17976141689E+04  0.25500000000E-02 0. -1.
    8880023    1    1    2    0    0  0.25947407783E+03 -0.81200160816E+03 -0.11671267572E+04  0.15882910572E+04  0.65864270000E+03 0.  1.
    8880022    1    1    2    0    0 -0.25947407783E+03  0.81200160816E+03  0.26662768116E+02  0.86647329153E+03  0.15294330000E+03 0.  0.
<mgrwt>
<rscale>  0 0.10200630E+04</rscale>
<asrwt>0</asrwt>
<pdfrwt beam="1">  1        2 0.27655602E+00 0.10772575E+04</pdfrwt>
<pdfrwt beam="2">  1       -2 0.10110003E+00 0.10772575E+04</pdfrwt>
<totfact> 0.68936465E+00</totfact>
</mgrwt>
</event>
<event>
 4    1  0.2089815E-007  0.6816011E+03  0.7818608E-02  0.1008432E+00
         -2   -1    0    0    0  501 -0.00000000000E+00  0.00000000000E+00  0.57301067886E+03  0.57301067887E+03  0.25500000000E-02 0.  1.
          2   -1    0    0  501    0  0.00000000000E+00 -0.00000000000E+00 -0.32540053179E+04  0.32540053179E+04  0.25500000000E-02 0. -1.
    8880023    1    1    2    0    0  0.12684010767E+03 -0.12116706834E+03 -0.31928206272E+04  0.32647639478E+04  0.65864270000E+03 0. -1.
    8880022    1    1    2    0    0 -0.12684010767E+03  0.12116706834E+03  0.51182598816E+03  0.56225204894E+03  0.15294330000E+03 0.  0.
<mgrwt>
<rscale>  0 0.52102562E+03</rscale>
<asrwt>0</asrwt>
<pdfrwt beam="1">  1        2 0.50061619E+00 0.68160111E+03</pdfrwt>
<pdfrwt beam="2">  1       -2 0.88155491E-01 0.68160111E+03</pdfrwt>
<totfact> 0.14508078E+00</totfact>
</mgrwt>
</event>
<event>
 4    1  0.2089815E-007  0.6666454E+03  0.7818608E-02  0.1018191E+00
         -2   -1    0    0    0  501 -0.00000000000E+00  0.00000000000E+00  0.65432013502E+03  0.65432013502E+03  0.25500000000E-02 0.  1.
          2   -1    0    0  501    0  0.00000000000E+00 -0.00000000000E+00 -0.29449704232E+03  0.29449704233E+03  0.25500000000E-02 0. -1.
    8880023    1    1    2    0    0 -0.65576672891E+02  0.79407388371E+02  0.17830823709E+03  0.69007960920E+03  0.65864270000E+03 0.  0.
    8880022    1    1    2    0    0  0.65576672891E+02 -0.79407388371E+02  0.18151485560E+03  0.25873756815E+03  0.15294330000E+03 0.  0.
<mgrwt>
<rscale>  0 0.48345048E+03</rscale>
<asrwt>0</asrwt>
<pdfrwt beam="1">  1        2 0.45307238E-01 0.66664536E+03</pdfrwt>
<pdfrwt beam="2">  1       -2 0.10066463E+00 0.66664536E+03</pdfrwt>
<totfact> 0.92391091E+01</totfact>
</mgrwt>
</event>
<event>
 4    1  0.2089815E-007  0.6628244E+03  0.7818608E-02  0.1021433E+00
          2   -1    0    0  501    0  0.00000000000E+00  0.00000000000E+00  0.43119202927E+04  0.43119202927E+04  0.25500000000E-02 0. -1.
         -2   -1    0    0    0  501 -0.00000000000E+00 -0.00000000000E+00 -0.24970919196E+03  0.24970919198E+03  0.25500000000E-02 0.  1.
    8880023    1    1    2    0    0  0.12834291590E+02  0.73220484192E+02  0.42539884060E+04  0.43053168900E+04  0.65864270000E+03 0. -1.
    8880022    1    1    2    0    0 -0.12834291590E+02 -0.73220484192E+02 -0.19177730530E+03  0.25631259468E+03  0.15294330000E+03 0.  0.
<mgrwt>
<rscale>  0 0.47173072E+03</rscale>
<asrwt>0</asrwt>
<pdfrwt beam="1">  1        2 0.66337229E+00 0.66282438E+03</pdfrwt>
<pdfrwt beam="2">  1       -2 0.38416803E-01 0.66282438E+03</pdfrwt>
<totfact> 0.13664243E+00</totfact>
</mgrwt>
</event>
<event>
 4    1  0.2089815E-007  0.6777695E+03  0.7818608E-02  0.1010615E+00
         -2   -1    0    0    0  501 -0.00000000000E+00  0.00000000000E+00  0.30185072398E+03  0.30185072399E+03  0.25500000000E-02 0.  1.
          2   -1    0    0  501    0  0.00000000000E+00 -0.00000000000E+00 -0.28873782792E+04  0.28873782792E+04  0.25500000000E-02 0. -1.
    8880023    1    1    2    0    0  0.14798190096E+03 -0.60519342638E+02 -0.28001344795E+04  0.28809936729E+04  0.65864270000E+03 0. -1.
    8880022    1    1    2    0    0 -0.14798190096E+03  0.60519342638E+02  0.21460692430E+03  0.30823533025E+03  0.15294330000E+03 0.  0.
<mgrwt>
<rscale>  0 0.51231112E+03</rscale>
<asrwt>0</asrwt>
<pdfrwt beam="1">  1        2 0.44421203E+00 0.67776946E+03</pdfrwt>
<pdfrwt beam="2">  1       -2 0.46438575E-01 0.67776946E+03</pdfrwt>
<totfact> 0.96616814E+00</totfact>
</mgrwt>
</event>
<event>
 4    1  0.2089815E-007  0.1009787E+04  0.7818608E-02  0.9368863E-01
          2   -1    0    0  501    0  0.00000000000E+00  0.00000000000E+00  0.19751995758E+04  0.19751995758E+04  0.25500000000E-02 0. -1.
         -2   -1    0    0    0  501 -0.00000000000E+00 -0.00000000000E+00 -0.58792280568E+03  0.58792280568E+03  0.25500000000E-02 0.  1.
    8880023    1    1    2    0    0 -0.76257801504E+03  0.65843264704E+02  0.14643706395E+04  0.17787782719E+04  0.65864270000E+03 0.  1.
    8880022    1    1    2    0    0  0.76257801504E+03 -0.65843264704E+02 -0.77093869357E+02  0.78434410959E+03  0.15294330000E+03 0.  0.
<mgrwt>
<rscale>  0 0.94683026E+03</rscale>
<asrwt>0</asrwt>
<pdfrwt beam="1">  1        2 0.30387686E+00 0.10097875E+04</pdfrwt>
<pdfrwt beam="2">  1       -2 0.90449661E-01 0.10097875E+04</pdfrwt>
<totfact> 0.72040036E+00</totfact>
</mgrwt>
</event>
<event>
 4    1  0.2089815E-007  0.7359808E+03  0.7818608E-02  0.9871813E-01
          2   -1    0    0  501    0  0.00000000000E+00  0.00000000000E+00  0.24971910786E+04  0.24971910786E+04  0.25500000000E-02 0. -1.
         -2   -1    0    0    0  501 -0.00000000000E+00 -0.00000000000E+00 -0.30714888826E+03  0.30714888827E+03  0.25500000000E-02 0.  1.
    8880023    1    1    2    0    0  0.68814562115E+02 -0.32112632350E+03  0.23086584767E+04  0.24231326269E+04  0.65864270000E+03 0. -1.
    8880022    1    1    2    0    0 -0.68814562115E+02  0.32112632350E+03 -0.11861628634E+03  0.38120733991E+03  0.15294330000E+03 0.  0.
<mgrwt>
<rscale>  0 0.61647002E+03</rscale>
<asrwt>0</asrwt>
<pdfrwt beam="1">  1        2 0.38418322E+00 0.73598082E+03</pdfrwt>
<pdfrwt beam="2">  1       -2 0.47253678E-01 0.73598082E+03</pdfrwt>
<totfact> 0.15561418E+01</totfact>
</mgrwt>
</event>
<event>
 4    1  0.2089815E-007  0.7711986E+03  0.7818608E-02  0.9776933E-01
          2   -1    0    0  501    0  0.00000000000E+00  0.00000000000E+00  0.10974889282E+04  0.10974889282E+04  0.25500000000E-02 0. -1.
         -2   -1    0    0    0  501 -0.00000000000E+00 -0.00000000000E+00 -0.18456266427E+04  0.18456266427E+04  0.25500000000E-02 0.  1.
    8880023    1    1    2    0    0  0.27013619007E+03  0.29658634527E+03  0.93159246745E+03  0.12093848656E+04  0.65864270000E+03 0. -1.
    8880022    1    1    2    0    0 -0.27013619007E+03 -0.29658634527E+03 -0.16797301819E+04  0.17337307053E+04  0.15294330000E+03 0.  0.
<mgrwt>
<rscale>  0 0.66615267E+03</rscale>
<asrwt>0</asrwt>
<pdfrwt beam="1">  1        2 0.16884445E+00 0.77119857E+03</pdfrwt>
<pdfrwt beam="2">  1       -2 0.28394256E+00 0.77119857E+03</pdfrwt>
<totfact> 0.90553143E-01</totfact>
</mgrwt>
</event>
<event>
 4    1  0.2089815E-007  0.6879775E+03  0.7818608E-02  0.1005129E+00
         -2   -1    0    0    0  501 -0.00000000000E+00  0.00000000000E+00  0.14222175671E+03  0.14222175673E+03  0.25500000000E-02 0.  1.
          2   -1    0    0  501    0  0.00000000000E+00 -0.00000000000E+00 -0.29532028774E+04  0.29532028774E+04  0.25500000000E-02 0. -1.
    8880023    1    1    2    0    0 -0.17559052472E+03 -0.93117289234E+02 -0.27534829943E+04  0.28381299597E+04  0.65864270000E+03 0.  0.
    8880022    1    1    2    0    0  0.17559052472E+03  0.93117289234E+02 -0.57498126359E+02  0.25729467440E+03  0.15294330000E+03 0.  0.
<mgrwt>
<rscale>  0 0.53457332E+03</rscale>
<asrwt>0</asrwt>
<pdfrwt beam="1">  1        2 0.45433886E+00 0.68797752E+03</pdfrwt>
<pdfrwt beam="2">  1       -2 0.21880272E-01 0.68797752E+03</pdfrwt>
<totfact> 0.36130670E+01</totfact>
</mgrwt>
</event>
<event>
 4    1  0.2089815E-007  0.6734041E+03  0.7818608E-02  0.1013332E+00
         -2   -1    0    0    0  501 -0.00000000000E+00  0.00000000000E+00  0.31784766705E+03  0.31784766706E+03  0.25500000000E-02 0.  1.
          2   -1    0    0  501    0  0.00000000000E+00 -0.00000000000E+00 -0.24968288231E+04  0.24968288231E+04  0.25500000000E-02 0. -1.
    8880023    1    1    2    0    0 -0.28328580578E+02  0.13733323467E+03 -0.24110775643E+04  0.25033513842E+04  0.65864270000E+03 0. -1.
    8880022    1    1    2    0    0  0.28328580578E+02 -0.13733323467E+03  0.23209640825E+03  0.31132510589E+03  0.15294330000E+03 0.  0.
<mgrwt>
<rscale>  0 0.50171750E+03</rscale>
<asrwt>0</asrwt>
<pdfrwt beam="1">  1        2 0.38412750E+00 0.67340414E+03</pdfrwt>
<pdfrwt beam="2">  1       -2 0.48899643E-01 0.67340414E+03</pdfrwt>
<totfact> 0.14684659E+01</totfact>
</mgrwt>
</event>
<event>
 4    1  0.2089815E-007  0.8190036E+03  0.7818608E-02  0.9671119E-01
         -2   -1    0    0    0  501 -0.00000000000E+00  0.00000000000E+00  0.65048728256E+03  0.65048728257E+03  0.25500000000E-02 0.  1.
          2   -1    0    0  501    0  0.00000000000E+00 -0.00000000000E+00 -0.10739180934E+04  0.10739180935E+04  0.25500000000E-02 0. -1.
    8880023    1    1    2    0    0 -0.42014579177E+03  0.24583385862E+03 -0.75662188430E+03  0.11150083652E+04  0.65864270000E+03 0. -1.
    8880022    1    1    2    0    0  0.42014579177E+03 -0.24583385862E+03  0.33319107341E+03  0.60939701083E+03  0.15294330000E+03 0.  0.
<mgrwt>
<rscale>  0 0.72762690E+03</rscale>
<asrwt>0</asrwt>
<pdfrwt beam="1">  1        2 0.16521817E+00 0.81900365E+03</pdfrwt>
<pdfrwt beam="2">  1       -2 0.10007497E+00 0.81900365E+03</pdfrwt>
<totfact> 0.18836589E+01</totfact>
</mgrwt>
</event>
<event>
 4    1  0.2089815E-007  0.7275277E+03  0.7818608E-02  0.9897892E-01
          2   -1    0    0  501    0  0.00000000000E+00  0.00000000000E+00  0.92458167506E+03  0.92458167506E+03  0.25500000000E-02 0. -1.
         -2   -1    0    0    0  501 -0.00000000000E+00 -0.00000000000E+00 -0.13764641095E+04  0.13764641095E+04  0.25500000000E-02 0.  1.
    8880023    1    1    2    0    0  0.16135049145E+03  0.26353820816E+03  0.75344981030E+03  0.10473696535E+04  0.65864270000E+03 0. -1.
    8880022    1    1    2    0    0 -0.16135049145E+03 -0.26353820816E+03 -0.12053322447E+04  0.12536761310E+04  0.15294330000E+03 0.  0.
<mgrwt>
<rscale>  0 0.60363561E+03</rscale>
<asrwt>0</asrwt>
<pdfrwt beam="1">  1        2 0.14224333E+00 0.72752771E+03</pdfrwt>
<pdfrwt beam="2">  1       -2 0.21176371E+00 0.72752771E+03</pdfrwt>
<totfact> 0.32390140E+00</totfact>
</mgrwt>
</event>
<event>
 4    1  0.2089815E-007  0.1201517E+04  0.7818608E-02  0.9155649E-01
          2   -1    0    0  501    0  0.00000000000E+00  0.00000000000E+00  0.24951057522E+04  0.24951057522E+04  0.25500000000E-02 0. -1.
         -2   -1    0    0    0  501 -0.00000000000E+00 -0.00000000000E+00 -0.72876327110E+03  0.72876327110E+03  0.25500000000E-02 0.  1.
    8880023    1    1    2    0    0  0.66094205281E+03 -0.75696058031E+03  0.18478482661E+04  0.22041295648E+04  0.65864270000E+03 0.  0.
    8880022    1    1    2    0    0 -0.66094205281E+03  0.75696058031E+03 -0.81505785027E+02  0.10197394586E+04  0.15294330000E+03 0.  1.
<mgrwt>
<rscale>  0 0.11523169E+04</rscale>
<asrwt>0</asrwt>
<pdfrwt beam="1">  1        2 0.38386241E+00 0.12015173E+04</pdfrwt>
<pdfrwt beam="2">  1       -2 0.11211743E+00 0.12015173E+04</pdfrwt>
<totfact> 0.21573750E+00</totfact>
</mgrwt>
</event>
<event>
 4    1  0.2089815E-007  0.1616756E+04  0.7818608E-02  0.8831307E-01
          2   -1    0    0  501    0  0.00000000000E+00  0.00000000000E+00  0.20032037577E+04  0.20032037577E+04  0.25500000000E-02 0. -1.
         -2   -1    0    0    0  501 -0.00000000000E+00 -0.00000000000E+00 -0.16597805405E+04  0.16597805405E+04  0.25500000000E-02 0.  1.
    8880023    1    1    2    0    0  0.14391143932E+04 -0.33021373199E+03  0.11400814224E+04  0.19783041226E+04  0.65864270000E+03 0.  0.
    8880022    1    1    2    0    0 -0.14391143932E+04  0.33021373199E+03 -0.79665820509E+03  0.16846801756E+04  0.15294330000E+03 0.  0.
<mgrwt>
<rscale>  0 0.15826037E+04</rscale>
<asrwt>0</asrwt>
<pdfrwt beam="1">  1        2 0.30818519E+00 0.16167565E+04</pdfrwt>
<pdfrwt beam="2">  1       -2 0.25535085E+00 0.16167565E+04</pdfrwt>
<totfact> 0.36705353E-01</totfact>
</mgrwt>
</event>
<event>
 4    1  0.4113833E-007  0.9448374E+03  0.7818608E-02  0.9457581E-01
         -2   -1    0    0    0  501 -0.00000000000E+00  0.00000000000E+00  0.20093492980E+04  0.20093492980E+04  0.25500000000E-02 0.  1.
          2   -1    0    0  501    0  0.00000000000E+00 -0.00000000000E+00 -0.19762422040E+04  0.19762422040E+04  0.25500000000E-02 0. -1.
    8880023    1    1    2    0    0  0.11180234979E+03 -0.66813746267E+03 -0.17958426203E+04  0.20292285129E+04  0.65864270000E+03 0. -1.
    8880022    1    1    2    0    0 -0.11180234979E+03  0.66813746267E+03  0.18289497143E+04  0.19563629890E+04  0.15294330000E+03 0.  0.
<mgrwt>
<rscale>  0 0.87484749E+03</rscale>
<asrwt>0</asrwt>
<pdfrwt beam="1">  1        2 0.30403726E+00 0.94483736E+03</pdfrwt>
<pdfrwt beam="2">  1       -2 0.30913066E+00 0.94483736E+03</pdfrwt>
<totfact> 0.19672798E-01</totfact>
</mgrwt>
</event>
<event>
 4    1  0.2089815E-007  0.1195399E+04  0.7818608E-02  0.9161608E-01
         -2   -1    0    0    0  501 -0.00000000000E+00  0.00000000000E+00  0.15816239711E+04  0.15816239711E+04  0.25500000000E-02 0.  1.
          2   -1    0    0  501    0  0.00000000000E+00 -0.00000000000E+00 -0.83034831056E+03  0.83034831056E+03  0.25500000000E-02 0. -1.
    8880023    1    1    2    0    0 -0.99598497887E+03 -0.56411479000E+02  0.76311894309E+02  0.11978322272E+04  0.65864270000E+03 0.  0.
    8880022    1    1    2    0    0  0.99598497887E+03  0.56411479000E+02  0.67496376625E+03  0.12141400545E+04  0.15294330000E+03 0.  0.
<mgrwt>
<rscale>  0 0.11458637E+04</rscale>
<asrwt>0</asrwt>
<pdfrwt beam="1">  1        2 0.12774589E+00 0.11953989E+04</pdfrwt>
<pdfrwt beam="2">  1       -2 0.24332676E+00 0.11953989E+04</pdfrwt>
<totfact> 0.22598458E+00</totfact>
</mgrwt>
</event>
<event>
 4    1  0.2089815E-007  0.7487766E+03  0.7818608E-02  0.9835081E-01
         -2   -1    0    0    0  501 -0.00000000000E+00  0.00000000000E+00  0.60744904649E+03  0.60744904650E+03  0.25500000000E-02 0.  1.
          2   -1    0    0  501    0  0.00000000000E+00 -0.00000000000E+00 -0.14310088761E+04  0.14310088761E+04  0.25500000000E-02 0. -1.
    8880023    1    1    2    0    0  0.32283398074E+03 -0.15044760293E+03 -0.12531690817E+04  0.14598284878E+04  0.65864270000E+03 0. -1.
    8880022    1    1    2    0    0 -0.32283398074E+03  0.15044760293E+03  0.42960925204E+03  0.57862943479E+03  0.15294330000E+03 0.  0.
<mgrwt>
<rscale>  0 0.63513387E+03</rscale>
<asrwt>0</asrwt>
<pdfrwt beam="1">  1        2 0.22015521E+00 0.74877665E+03</pdfrwt>
<pdfrwt beam="2">  1       -2 0.93453700E-01 0.74877665E+03</pdfrwt>
<totfact> 0.13766400E+01</totfact>
</mgrwt>
</event>
<event>
 4    1  0.2089815E-007  0.9548734E+03  0.7818608E-02  0.9443137E-01
         -2   -1    0    0    0  501 -0.00000000000E+00  0.00000000000E+00  0.11919210671E+04  0.11919210671E+04  0.25500000000E-02 0.  1.
          2   -1    0    0  501    0  0.00000000000E+00 -0.00000000000E+00 -0.11438244362E+04  0.11438244362E+04  0.25500000000E-02 0. -1.
    8880023    1    1    2    0    0  0.63445794072E+03 -0.27465650787E+03 -0.78948118015E+03  0.12389769231E+04  0.65864270000E+03 0. -1.
    8880022    1    1    2    0    0 -0.63445794072E+03  0.27465650787E+03  0.83757781103E+03  0.10967685802E+04  0.15294330000E+03 0.  0.
<mgrwt>
<rscale>  0 0.88609152E+03</rscale>
<asrwt>0</asrwt>
<pdfrwt beam="1">  1        2 0.17597299E+00 0.95487344E+03</pdfrwt>
<pdfrwt beam="2">  1       -2 0.18337247E+00 0.95487344E+03</pdfrwt>
<totfact> 0.35080573E+00</totfact>
</mgrwt>
</event>
<event>
 4    1  0.2089815E-007  0.9272077E+03  0.7818608E-02  0.9483695E-01
         -2   -1    0    0    0  501 -0.00000000000E+00  0.00000000000E+00  0.25865601594E+04  0.25865601594E+04  0.25500000000E-02 0.  1.
          2   -1    0    0  501    0  0.00000000000E+00 -0.00000000000E+00 -0.57649370185E+03  0.57649370185E+03  0.25500000000E-02 0. -1.
    8880023    1    1    2    0    0 -0.65107952678E+03  0.44713801526E+02 -0.11543475165E+03  0.93436570057E+03  0.65864270000E+03 0.  0.
    8880022    1    1    2    0    0  0.65107952678E+03 -0.44713801526E+02  0.21255012092E+04  0.22286881607E+04  0.15294330000E+03 0.  0.
<mgrwt>
<rscale>  0 0.85496685E+03</rscale>
<asrwt>0</asrwt>
<pdfrwt beam="1">  1        2 0.88691339E-01 0.92720768E+03</pdfrwt>
<pdfrwt beam="2">  1       -2 0.39793233E+00 0.92720768E+03</pdfrwt>
<totfact> 0.41077568E-01</totfact>
</mgrwt>
</event>
<event>
 4    1  0.2089815E-007  0.6792715E+03  0.7818608E-02  0.1009739E+00
         -2   -1    0    0    0  501 -0.00000000000E+00  0.00000000000E+00  0.98003168246E+03  0.98003168246E+03  0.25500000000E-02 0.  1.
          2   -1    0    0  501    0  0.00000000000E+00 -0.00000000000E+00 -0.13755856388E+04  0.13755856388E+04  0.25500000000E-02 0. -1.
    8880023    1    1    2    0    0 -0.13411363272E+03  0.98046717213E+02 -0.12766129402E+04  0.14460810595E+04  0.65864270000E+03 0. -1.
    8880022    1    1    2    0    0  0.13411363272E+03 -0.98046717213E+02  0.88105898392E+03  0.90953626173E+03  0.15294330000E+03 0.  0.
<mgrwt>
<rscale>  0 0.51578600E+03</rscale>
<asrwt>0</asrwt>
<pdfrwt beam="1">  1        2 0.21162856E+00 0.67927154E+03</pdfrwt>
<pdfrwt beam="2">  1       -2 0.15077411E+00 0.67927154E+03</pdfrwt>
<totfact> 0.45752398E+00</totfact>
</mgrwt>
</event>
<event>
 4    1  0.2089815E-007  0.7133370E+03  0.7818608E-02  0.9945812E-01
          2   -1    0    0  501    0  0.00000000000E+00  0.00000000000E+00  0.25880408065E+04  0.25880408065E+04  0.25500000000E-02 0. -1.
         -2   -1    0    0    0  501 -0.00000000000E+00 -0.00000000000E+00 -0.35493455544E+03  0.35493455545E+03  0.25500000000E-02 0.  1.
    8880023    1    1    2    0    0 -0.45037284046E+02 -0.27020570125E+03  0.24564060071E+04  0.25578858763E+04  0.65864270000E+03 0. -1.
    8880022    1    1    2    0    0  0.45037284046E+02  0.27020570125E+03 -0.22329975603E+03  0.38508948571E+03  0.15294330000E+03 0.  0.
<mgrwt>
<rscale>  0 0.58091505E+03</rscale>
<asrwt>0</asrwt>
<pdfrwt beam="1">  1        2 0.39816011E+00 0.71333701E+03</pdfrwt>
<pdfrwt beam="2">  1       -2 0.54605319E-01 0.71333701E+03</pdfrwt>
<totfact> 0.10322778E+01</totfact>
</mgrwt>
</event>
<event>
 4    1  0.2089815E-007  0.8402232E+03  0.7818608E-02  0.9629760E-01
         -2   -1    0    0    0  501 -0.00000000000E+00  0.00000000000E+00  0.44587292965E+03  0.44587292966E+03  0.25500000000E-02 0.  1.
          2   -1    0    0  501    0  0.00000000000E+00 -0.00000000000E+00 -0.17740994576E+04  0.17740994576E+04  0.25500000000E-02 0. -1.
    8880023    1    1    2    0    0  0.15647805801E+03  0.49767400820E+03 -0.14378782329E+04  0.16653734776E+04  0.65864270000E+03 0.  0.
    8880022    1    1    2    0    0 -0.15647805801E+03 -0.49767400820E+03  0.10965170501E+03  0.55459890957E+03  0.15294330000E+03 0.  0.
<mgrwt>
<rscale>  0 0.75357426E+03</rscale>
<asrwt>0</asrwt>
<pdfrwt beam="1">  1        2 0.27293837E+00 0.84022319E+03</pdfrwt>
<pdfrwt beam="2">  1       -2 0.68595837E-01 0.84022319E+03</pdfrwt>
<totfact> 0.17638874E+01</totfact>
</mgrwt>
</event>
<event>
 4    1  0.2089815E-007  0.1285532E+04  0.7818608E-02  0.9078156E-01
          2   -1    0    0  501    0  0.00000000000E+00  0.00000000000E+00  0.88876030164E+03  0.88876030164E+03  0.25500000000E-02 0. -1.
         -2   -1    0    0    0  501 -0.00000000000E+00 -0.00000000000E+00 -0.18853295240E+04  0.18853295240E+04  0.25500000000E-02 0.  1.
    8880023    1    1    2    0    0  0.10186152192E+04  0.42568145953E+03 -0.10476946071E+04  0.16583895398E+04  0.65864270000E+03 0.  1.
    8880022    1    1    2    0    0 -0.10186152192E+04 -0.42568145953E+03  0.51125384674E+02  0.11157002859E+04  0.15294330000E+03 0.  0.
<mgrwt>
<rscale>  0 0.12404660E+04</rscale>
<asrwt>0</asrwt>
<pdfrwt beam="1">  1        2 0.13673235E+00 0.12855317E+04</pdfrwt>
<pdfrwt beam="2">  1       -2 0.29005069E+00 0.12855317E+04</pdfrwt>
<totfact> 0.10579517E+00</totfact>
</mgrwt>
</event>
<event>
 4    1  0.2089815E-007  0.6782164E+03  0.7818608E-02  0.1010351E+00
         -2   -1    0    0    0  501 -0.00000000000E+00  0.00000000000E+00  0.23128765649E+03  0.23128765650E+03  0.25500000000E-02 0.  1.
          2   -1    0    0  501    0  0.00000000000E+00 -0.00000000000E+00 -0.16379057584E+04  0.16379057584E+04  0.25500000000E-02 0. -1.
    8880023    1    1    2    0    0  0.79313874815E+02 -0.14098420582E+03 -0.14855106800E+04  0.16330093153E+04  0.65864270000E+03 0. -1.
    8880022    1    1    2    0    0 -0.79313874815E+02  0.14098420582E+03  0.78892578100E+02  0.23618409964E+03  0.15294330000E+03 0.  0.
<mgrwt>
<rscale>  0 0.51335335E+03</rscale>
<asrwt>0</asrwt>
<pdfrwt beam="1">  1        2 0.25198549E+00 0.67821637E+03</pdfrwt>
<pdfrwt beam="2">  1       -2 0.35582717E-01 0.67821637E+03</pdfrwt>
<totfact> 0.81107354E+01</totfact>
</mgrwt>
</event>
<event>
 4    1  0.2089815E-007  0.9035169E+03  0.7818608E-02  0.9520409E-01
         -2   -1    0    0    0  501 -0.00000000000E+00  0.00000000000E+00  0.96505967926E+03  0.96505967927E+03  0.25500000000E-02 0.  1.
          2   -1    0    0  501    0  0.00000000000E+00 -0.00000000000E+00 -0.86566227077E+03  0.86566227077E+03  0.25500000000E-02 0. -1.
    8880023    1    1    2    0    0  0.58853874090E+03  0.19014391157E+03 -0.43162366351E+03  0.10013200037E+04  0.65864270000E+03 0. -1.
    8880022    1    1    2    0    0 -0.58853874090E+03 -0.19014391157E+03  0.53102107201E+03  0.82940194633E+03  0.15294330000E+03 0.  0.
<mgrwt>
<rscale>  0 0.82795708E+03</rscale>
<asrwt>0</asrwt>
<pdfrwt beam="1">  1        2 0.13317881E+00 0.90351689E+03</pdfrwt>
<pdfrwt beam="2">  1       -2 0.14847072E+00 0.90351689E+03</pdfrwt>
<totfact> 0.95334656E+00</totfact>
</mgrwt>
</event>
<event>
 4    1  0.2089815E-007  0.7551112E+03  0.7818608E-02  0.9817933E-01
         -2   -1    0    0    0  501 -0.00000000000E+00  0.00000000000E+00  0.14133233600E+03  0.14133233602E+03  0.25500000000E-02 0.  1.
          2   -1    0    0  501    0  0.00000000000E+00 -0.00000000000E+00 -0.27464581584E+04  0.27464581584E+04  0.25500000000E-02 0. -1.
    8880023    1    1    2    0    0 -0.30800869522E+03  0.20374811913E+03 -0.21666539738E+04  0.22944677598E+04  0.65864270000E+03 0.  0.
    8880022    1    1    2    0    0  0.30800869522E+03 -0.20374811913E+03 -0.43847184860E+03  0.59332273461E+03  0.15294330000E+03 0.  0.
<mgrwt>
<rscale>  0 0.64408996E+03</rscale>
<asrwt>0</asrwt>
<pdfrwt beam="1">  1        2 0.42253198E+00 0.75511116E+03</pdfrwt>
<pdfrwt beam="2">  1       -2 0.21743438E-01 0.75511116E+03</pdfrwt>
<totfact> 0.48013497E+01</totfact>
</mgrwt>
</event>
<event>
 4    1  0.2089815E-007  0.1634630E+04  0.7818608E-02  0.8819990E-01
          2   -1    0    0  501    0  0.00000000000E+00  0.00000000000E+00  0.33717993523E+04  0.33717993523E+04  0.25500000000E-02 0. -1.
         -2   -1    0    0    0  501 -0.00000000000E+00 -0.00000000000E+00 -0.81670682052E+03  0.81670682053E+03  0.25500000000E-02 0.  1.
    8880023    1    1    2    0    0 -0.12243677413E+04 -0.85972664500E+03  0.64460831571E+03  0.17571386846E+04  0.65864270000E+03 0.  0.
    8880022    1    1    2    0    0  0.12243677413E+04  0.85972664500E+03  0.19104842161E+04  0.24313674882E+04  0.15294330000E+03 0.  0.
<mgrwt>
<rscale>  0 0.16009088E+04</rscale>
<asrwt>0</asrwt>
<pdfrwt beam="1">  1        2 0.51873836E+00 0.16346304E+04</pdfrwt>
<pdfrwt beam="2">  1       -2 0.12564720E+00 0.16346304E+04</pdfrwt>
<totfact> 0.44384288E-01</totfact>
</mgrwt>
</event>
<event>
 4    1  0.2089815E-007  0.7220737E+03  0.7818608E-02  0.9915631E-01
         -2   -1    0    0    0  501 -0.00000000000E+00  0.00000000000E+00  0.15591402536E+04  0.15591402536E+04  0.25500000000E-02 0.  1.
          2   -1    0    0  501    0  0.00000000000E+00 -0.00000000000E+00 -0.72555888047E+03  0.72555888048E+03  0.25500000000E-02 0. -1.
    8880023    1    1    2    0    0  0.18705831764E+02 -0.29534787710E+03 -0.52058000908E+03  0.89016516937E+03  0.65864270000E+03 0. -1.
    8880022    1    1    2    0    0 -0.18705831764E+02  0.29534787710E+03  0.13541613822E+04  0.13945339647E+04  0.15294330000E+03 0.  0.
<mgrwt>
<rscale>  0 0.59509706E+03</rscale>
<asrwt>0</asrwt>
<pdfrwt beam="1">  1        2 0.11162444E+00 0.72207374E+03</pdfrwt>
<pdfrwt beam="2">  1       -2 0.23986773E+00 0.72207374E+03</pdfrwt>
<totfact> 0.30007693E+00</totfact>
</mgrwt>
</event>
<event>
 4    1  0.2089815E-007  0.9423815E+03  0.7818608E-02  0.9461161E-01
         -2   -1    0    0    0  501 -0.00000000000E+00  0.00000000000E+00  0.50461053488E+03  0.50461053489E+03  0.25500000000E-02 0.  1.
          2   -1    0    0  501    0  0.00000000000E+00 -0.00000000000E+00 -0.18102780629E+04  0.18102780629E+04  0.25500000000E-02 0. -1.
    8880023    1    1    2    0    0 -0.24223150975E+02 -0.67356215773E+03 -0.13220697265E+04  0.16235613045E+04  0.65864270000E+03 0.  0.
    8880022    1    1    2    0    0  0.24223150975E+02  0.67356215773E+03  0.16402198489E+02  0.69132729333E+03  0.15294330000E+03 0.  0.
<mgrwt>
<rscale>  0 0.87208825E+03</rscale>
<asrwt>0</asrwt>
<pdfrwt beam="1">  1        2 0.27850431E+00 0.94238153E+03</pdfrwt>
<pdfrwt beam="2">  1       -2 0.77632391E-01 0.94238153E+03</pdfrwt>
<totfact> 0.12671892E+01</totfact>
</mgrwt>
</event>
<event>
 4    1  0.2089815E-007  0.8712936E+03  0.7818608E-02  0.9573782E-01
         -2   -1    0    0    0  501 -0.00000000000E+00  0.00000000000E+00  0.65946019937E+03  0.65946019938E+03  0.25500000000E-02 0.  1.
          2   -1    0    0  501    0  0.00000000000E+00 -0.00000000000E+00 -0.30179102157E+04  0.30179102157E+04  0.25500000000E-02 0. -1.
    8880023    1    1    2    0    0 -0.66936919171E+02  0.56644663914E+03 -0.28048711890E+04  0.29370827260E+04  0.65864270000E+03 0. -1.
    8880022    1    1    2    0    0  0.66936919171E+02 -0.56644663914E+03  0.44642117270E+03  0.74028768907E+03  0.15294330000E+03 0.  0.
<mgrwt>
<rscale>  0 0.79056063E+03</rscale>
<asrwt>0</asrwt>
<pdfrwt beam="1">  1        2 0.46429387E+00 0.87129361E+03</pdfrwt>
<pdfrwt beam="2">  1       -2 0.10145542E+00 0.87129361E+03</pdfrwt>
<totfact> 0.14118292E+00</totfact>
</mgrwt>
</event>
<event>
 4    1  0.2089815E-007  0.1488969E+04  0.7818608E-02  0.8917465E-01
         -2   -1    0    0    0  501 -0.00000000000E+00  0.00000000000E+00  0.10014703094E+04  0.10014703094E+04  0.25500000000E-02 0.  1.
          2   -1    0    0  501    0  0.00000000000E+00 -0.00000000000E+00 -0.36721478202E+04  0.36721478202E+04  0.25500000000E-02 0. -1.
    8880023    1    1    2    0    0 -0.13325591725E+04 -0.86625277995E+02 -0.29466469937E+04  0.33014779416E+04  0.65864270000E+03 0.  0.
    8880022    1    1    2    0    0  0.13325591725E+04  0.86625277995E+02  0.27596948292E+03  0.13721401880E+04  0.15294330000E+03 0.  0.
<mgrwt>
<rscale>  0 0.14513503E+04</rscale>
<asrwt>0</asrwt>
<pdfrwt beam="1">  1        2 0.56494581E+00 0.14889688E+04</pdfrwt>
<pdfrwt beam="2">  1       -2 0.15407236E+00 0.14889688E+04</pdfrwt>
<totfact> 0.16326822E-01</totfact>
</mgrwt>
</event>
<event>
 4    1  0.2089815E-007  0.1307287E+04  0.7818608E-02  0.9059292E-01
          2   -1    0    0  501    0  0.00000000000E+00  0.00000000000E+00  0.18891619116E+04  0.18891619116E+04  0.25500000000E-02 0. -1.
         -2   -1    0    0    0  501 -0.00000000000E+00 -0.00000000000E+00 -0.89531575915E+03  0.89531575915E+03  0.25500000000E-02 0.  1.
    8880023    1    1    2    0    0  0.58332781380E+03  0.96691165994E+03  0.99837254435E+03  0.16449156331E+04  0.65864270000E+03 0.  0.
    8880022    1    1    2    0    0 -0.58332781380E+03 -0.96691165994E+03 -0.45263918587E+01  0.11395620377E+04  0.15294330000E+03 0.  0.
<mgrwt>
<rscale>  0 0.12631702E+04</rscale>
<asrwt>0</asrwt>
<pdfrwt beam="1">  1        2 0.29064029E+00 0.13072872E+04</pdfrwt>
<pdfrwt beam="2">  1       -2 0.13774089E+00 0.13072872E+04</pdfrwt>
<totfact> 0.27787394E+00</totfact>
</mgrwt>
</event>
<event>
 4    1  0.2089815E-007  0.1246509E+04  0.7818608E-02  0.9113187E-01
          2   -1    0    0  501    0  0.00000000000E+00  0.00000000000E+00  0.41402265689E+04  0.41402265689E+04  0.25500000000E-02 0. -1.
         -2   -1    0    0    0  501 -0.00000000000E+00 -0.00000000000E+00 -0.55834764123E+03  0.55834764124E+03  0.25500000000E-02 0.  1.
    8880023    1    1    2    0    0 -0.84117887466E+02 -0.10549401292E+04  0.33903974294E+04  0.36122817485E+04  0.65864270000E+03 0.  0.
    8880022    1    1    2    0    0  0.84117887466E+02  0.10549401292E+04  0.19148149835E+03  0.10862924617E+04  0.15294330000E+03 0.  0.
<mgrwt>
<rscale>  0 0.11996229E+04</rscale>
<asrwt>0</asrwt>
<pdfrwt beam="1">  1        2 0.63695794E+00 0.12465090E+04</pdfrwt>
<pdfrwt beam="2">  1       -2 0.85899636E-01 0.12465090E+04</pdfrwt>
<totfact> 0.31159154E-01</totfact>
</mgrwt>
</event>
<event>
 4    1  0.2089815E-007  0.6629370E+03  0.7818608E-02  0.1021331E+00
          2   -1    0    0  501    0  0.00000000000E+00  0.00000000000E+00  0.41709365648E+03  0.41709365648E+03  0.25500000000E-02 0. -1.
         -2   -1    0    0    0  501 -0.00000000000E+00 -0.00000000000E+00 -0.14164252895E+04  0.14164252895E+04  0.25500000000E-02 0.  1.
    8880023    1    1    2    0    0  0.23581106918E+02  0.71548586285E+02  0.14329169310E+03  0.67824625644E+03  0.65864270000E+03 0. -1.
    8880022    1    1    2    0    0 -0.23581106918E+02 -0.71548586285E+02 -0.11426233261E+04  0.11552726895E+04  0.15294330000E+03 0.  0.
<mgrwt>
<rscale>  0 0.47209465E+03</rscale>
<asrwt>0</asrwt>
<pdfrwt beam="1">  1        2 0.64168256E-01 0.66293701E+03</pdfrwt>
<pdfrwt beam="2">  1       -2 0.21791158E+00 0.66293701E+03</pdfrwt>
<totfact> 0.79782851E+00</totfact>
</mgrwt>
</event>
<event>
 4    1  0.2089815E-007  0.9441277E+03  0.7818608E-02  0.9458614E-01
          2   -1    0    0  501    0  0.00000000000E+00  0.00000000000E+00  0.20157818246E+04  0.20157818246E+04  0.25500000000E-02 0. -1.
         -2   -1    0    0    0  501 -0.00000000000E+00 -0.00000000000E+00 -0.44545137045E+03  0.44545137046E+03  0.25500000000E-02 0.  1.
    8880023    1    1    2    0    0  0.62089602729E+03  0.26843079643E+03  0.14888287944E+04  0.17629487669E+04  0.65864270000E+03 0.  0.
    8880022    1    1    2    0    0 -0.62089602729E+03 -0.26843079643E+03  0.81501659764E+02  0.69828442825E+03  0.15294330000E+03 0.  0.
<mgrwt>
<rscale>  0 0.87405051E+03</rscale>
<asrwt>0</asrwt>
<pdfrwt beam="1">  1        2 0.31012028E+00 0.94412773E+03</pdfrwt>
<pdfrwt beam="2">  1       -2 0.68530980E-01 0.94412773E+03</pdfrwt>
<totfact> 0.12869792E+01</totfact>
</mgrwt>
</event>
<event>
 4    1  0.2089815E-007  0.8342016E+03  0.7818608E-02  0.9641212E-01
         -2   -1    0    0    0  501 -0.00000000000E+00  0.00000000000E+00  0.13926835877E+04  0.13926835877E+04  0.25500000000E-02 0.  1.
          2   -1    0    0  501    0  0.00000000000E+00 -0.00000000000E+00 -0.15620590387E+04  0.15620590387E+04  0.25500000000E-02 0. -1.
    8880023    1    1    2    0    0 -0.18423881333E+03  0.47763812741E+03 -0.13906729874E+04  0.16216854459E+04  0.65864270000E+03 0. -1.
    8880022    1    1    2    0    0  0.18423881333E+03 -0.47763812741E+03  0.12212975364E+04  0.13330571805E+04  0.15294330000E+03 0.  0.
<mgrwt>
<rscale>  0 0.74627526E+03</rscale>
<asrwt>0</asrwt>
<pdfrwt beam="1">  1        2 0.24031678E+00 0.83420161E+03</pdfrwt>
<pdfrwt beam="2">  1       -2 0.21425901E+00 0.83420161E+03</pdfrwt>
<totfact> 0.12852145E+00</totfact>
</mgrwt>
</event>
<event>
 4    1  0.2089815E-007  0.7781926E+03  0.7818608E-02  0.9760100E-01
         -2   -1    0    0    0  501 -0.00000000000E+00  0.00000000000E+00  0.16348660842E+04  0.16348660842E+04  0.25500000000E-02 0.  1.
          2   -1    0    0  501    0  0.00000000000E+00 -0.00000000000E+00 -0.38254224484E+03  0.38254224484E+03  0.25500000000E-02 0. -1.
    8880023    1    1    2    0    0  0.11500865021E+03  0.39817910984E+03  0.10159997802E+03  0.78479701512E+03  0.65864270000E+03 0. -1.
    8880022    1    1    2    0    0 -0.11500865021E+03 -0.39817910984E+03  0.11507238614E+04  0.12326113139E+04  0.15294330000E+03 0.  0.
<mgrwt>
<rscale>  0 0.67548491E+03</rscale>
<asrwt>0</asrwt>
<pdfrwt beam="1">  1        2 0.58852654E-01 0.77819265E+03</pdfrwt>
<pdfrwt beam="2">  1       -2 0.25151786E+00 0.77819265E+03</pdfrwt>
<totfact> 0.53913005E+00</totfact>
</mgrwt>
</event>
<event>
 4    1  0.2393403E-007  0.1491825E+04  0.7818608E-02  0.8915430E-01
         -2   -1    0    0    0  501 -0.00000000000E+00  0.00000000000E+00  0.19624677450E+04  0.19624677450E+04  0.25500000000E-02 0.  1.
          2   -1    0    0  501    0  0.00000000000E+00 -0.00000000000E+00 -0.21106057416E+04  0.21106057416E+04  0.25500000000E-02 0. -1.
    8880023    1    1    2    0    0  0.60184131941E+03  0.11956244280E+04 -0.15343342427E+04  0.21400286262E+04  0.65864270000E+03 0.  0.
    8880022    1    1    2    0    0 -0.60184131941E+03 -0.11956244280E+04  0.13861962461E+04  0.19330448604E+04  0.15294330000E+03 0.  0.
<mgrwt>
<rscale>  0 0.14542919E+04</rscale>
<asrwt>0</asrwt>
<pdfrwt beam="1">  1        2 0.32470858E+00 0.14918247E+04</pdfrwt>
<pdfrwt beam="2">  1       -2 0.30191811E+00 0.14918247E+04</pdfrwt>
<totfact> 0.16833364E-01</totfact>
</mgrwt>
</event>
<event>
 4    1  0.2089815E-007  0.6745826E+03  0.7818608E-02  0.1012571E+00
         -2   -1    0    0    0  501 -0.00000000000E+00  0.00000000000E+00  0.74803871180E+03  0.74803871180E+03  0.25500000000E-02 0.  1.
          2   -1    0    0  501    0  0.00000000000E+00 -0.00000000000E+00 -0.82271125173E+03  0.82271125173E+03  0.25500000000E-02 0. -1.
    8880023    1    1    2    0    0 -0.12125036384E+03  0.80931059620E+02 -0.66286779419E+03  0.94575652574E+03  0.65864270000E+03 0. -1.
    8880022    1    1    2    0    0  0.12125036384E+03 -0.80931059620E+02  0.58819525426E+03  0.62499343780E+03  0.15294330000E+03 0.  0.
<mgrwt>
<rscale>  0 0.50465630E+03</rscale>
<asrwt>0</asrwt>
<pdfrwt beam="1">  1        2 0.12657096E+00 0.67458261E+03</pdfrwt>
<pdfrwt beam="2">  1       -2 0.11508288E+00 0.67458261E+03</pdfrwt>
<totfact> 0.19972692E+01</totfact>
</mgrwt>
</event>
<event>
 4    1  0.2089815E-007  0.6634941E+03  0.7818608E-02  0.1020832E+00
         -2   -1    0    0    0  501 -0.00000000000E+00  0.00000000000E+00  0.29992765000E+03  0.29992765001E+03  0.25500000000E-02 0.  1.
          2   -1    0    0  501    0  0.00000000000E+00 -0.00000000000E+00 -0.17840724839E+04  0.17840724839E+04  0.25500000000E-02 0. -1.
    8880023    1    1    2    0    0  0.26350288617E+02 -0.75629765656E+02 -0.16898552805E+04  0.18154435476E+04  0.65864270000E+03 0. -1.
    8880022    1    1    2    0    0 -0.26350288617E+02  0.75629765656E+02  0.20571044664E+03  0.26855658628E+03  0.15294330000E+03 0.  0.
<mgrwt>
<rscale>  0 0.47387684E+03</rscale>
<asrwt>0</asrwt>
<pdfrwt beam="1">  1        2 0.27447268E+00 0.66349409E+03</pdfrwt>
<pdfrwt beam="2">  1       -2 0.46142716E-01 0.66349409E+03</pdfrwt>
<totfact> 0.40722345E+01</totfact>
</mgrwt>
</event>
<event>
 4    1  0.2089815E-007  0.7450876E+03  0.7818608E-02  0.9845368E-01
         -2   -1    0    0    0  501 -0.00000000000E+00  0.00000000000E+00  0.30531330917E+03  0.30531330918E+03  0.25500000000E-02 0.  1.
          2   -1    0    0  501    0  0.00000000000E+00 -0.00000000000E+00 -0.15072195050E+04  0.15072195050E+04  0.25500000000E-02 0. -1.
    8880023    1    1    2    0    0 -0.24288445820E+03 -0.24970481987E+03 -0.12223553147E+04  0.14315404566E+04  0.65864270000E+03 0. -1.
    8880022    1    1    2    0    0  0.24288445820E+03  0.24970481987E+03  0.20449118869E+02  0.38099235764E+03  0.15294330000E+03 0.  0.
<mgrwt>
<rscale>  0 0.62983670E+03</rscale>
<asrwt>0</asrwt>
<pdfrwt beam="1">  1        2 0.23187992E+00 0.74508762E+03</pdfrwt>
<pdfrwt beam="2">  1       -2 0.46971279E-01 0.74508762E+03</pdfrwt>
<totfact> 0.55211541E+01</totfact>
</mgrwt>
</event>
<event>
 4    1  0.2089815E-007  0.6987741E+03  0.7818608E-02  0.1000232E+00
          2   -1    0    0  501    0  0.00000000000E+00  0.00000000000E+00  0.45747494123E+03  0.45747494123E+03  0.25500000000E-02 0. -1.
         -2   -1    0    0    0  501 -0.00000000000E+00 -0.00000000000E+00 -0.12016587428E+04  0.12016587428E+04  0.25500000000E-02 0.  1.
    8880023    1    1    2    0    0  0.13030611722E+03  0.19363729369E+03  0.15660977216E+03  0.71610886930E+03  0.65864270000E+03 0. -1.
    8880022    1    1    2    0    0 -0.13030611722E+03 -0.19363729369E+03 -0.90079357372E+03  0.94302481472E+03  0.15294330000E+03 0.  0.
<mgrwt>
<rscale>  0 0.55548408E+03</rscale>
<asrwt>0</asrwt>
<pdfrwt beam="1">  1        2 0.70380761E-01 0.69877414E+03</pdfrwt>
<pdfrwt beam="2">  1       -2 0.18487057E+00 0.69877414E+03</pdfrwt>
<totfact> 0.11713320E+01</totfact>
</mgrwt>
</event>
<event>
 4    1  0.2089815E-007  0.1089727E+04  0.7818608E-02  0.9272581E-01
          2   -1    0    0  501    0  0.00000000000E+00  0.00000000000E+00  0.11512757562E+04  0.11512757562E+04  0.25500000000E-02 0. -1.
         -2   -1    0    0    0  501 -0.00000000000E+00 -0.00000000000E+00 -0.21728145191E+04  0.21728145191E+04  0.25500000000E-02 0.  1.
    8880023    1    1    2    0    0 -0.78743483792E+03 -0.36556991811E+03  0.76531570892E+03  0.13316205652E+04  0.65864270000E+03 0.  0.
    8880022    1    1    2    0    0  0.78743483792E+03  0.36556991811E+03 -0.17868544718E+04  0.19924697101E+04  0.15294330000E+03 0.  0.
<mgrwt>
<rscale>  0 0.10334679E+04</rscale>
<asrwt>0</asrwt>
<pdfrwt beam="1">  1        2 0.17711935E+00 0.10897271E+04</pdfrwt>
<pdfrwt beam="2">  1       -2 0.33427916E+00 0.10897271E+04</pdfrwt>
<totfact> 0.39379712E-01</totfact>
</mgrwt>
</event>
<event>
 4    1  0.2089815E-007  0.7258172E+03  0.7818608E-02  0.9903372E-01
          2   -1    0    0  501    0  0.00000000000E+00  0.00000000000E+00  0.17040099569E+04  0.17040099569E+04  0.25500000000E-02 0. -1.
         -2   -1    0    0    0  501 -0.00000000000E+00 -0.00000000000E+00 -0.60623179577E+03  0.60623179578E+03  0.25500000000E-02 0.  1.
    8880023    1    1    2    0    0  0.55485113111E+02  0.29986968640E+03  0.15688459480E+04  0.17286087589E+04  0.65864270000E+03 0. -1.
    8880022    1    1    2    0    0 -0.55485113111E+02 -0.29986968640E+03 -0.47106778687E+03  0.58163299376E+03  0.15294330000E+03 0.  0.
<mgrwt>
<rscale>  0 0.60098119E+03</rscale>
<asrwt>0</asrwt>
<pdfrwt beam="1">  1        2 0.26215538E+00 0.72581722E+03</pdfrwt>
<pdfrwt beam="2">  1       -2 0.93266430E-01 0.72581722E+03</pdfrwt>
<totfact> 0.97993840E+00</totfact>
</mgrwt>
</event>
<event>
 4    1  0.2089815E-007  0.7103495E+03  0.7818608E-02  0.9956705E-01
          2   -1    0    0  501    0  0.00000000000E+00  0.00000000000E+00  0.34332699871E+04  0.34332699871E+04  0.25500000000E-02 0. -1.
         -2   -1    0    0    0  501 -0.00000000000E+00 -0.00000000000E+00 -0.14485283476E+03  0.14485283478E+03  0.25500000000E-02 0.  1.
    8880023    1    1    2    0    0  0.93887354131E+02  0.24894054528E+03  0.31709234985E+04  0.32495156977E+04  0.65864270000E+03 0. -1.
    8880022    1    1    2    0    0 -0.93887354131E+02 -0.24894054528E+03  0.11749365391E+03  0.32860712420E+03  0.15294330000E+03 0.  0.
<mgrwt>
<rscale>  0 0.57590080E+03</rscale>
<asrwt>0</asrwt>
<pdfrwt beam="1">  1        2 0.52819535E+00 0.71034952E+03</pdfrwt>
<pdfrwt beam="2">  1       -2 0.22285053E-01 0.71034952E+03</pdfrwt>
<totfact> 0.17257204E+01</totfact>
</mgrwt>
</event>
<event>
 4    1  0.2089815E-007  0.9695989E+03  0.7818608E-02  0.9422459E-01
         -2   -1    0    0    0  501 -0.00000000000E+00  0.00000000000E+00  0.77495420259E+03  0.77495420259E+03  0.25500000000E-02 0.  1.
          2   -1    0    0  501    0  0.00000000000E+00 -0.00000000000E+00 -0.17654828291E+04  0.17654828291E+04  0.25500000000E-02 0. -1.
    8880023    1    1    2    0    0  0.12560752657E+03  0.70038179955E+03 -0.14018086339E+04  0.17044616652E+04  0.65864270000E+03 0. -1.
    8880022    1    1    2    0    0 -0.12560752657E+03 -0.70038179955E+03  0.41128000737E+03  0.83597536648E+03  0.15294330000E+03 0.  0.
<mgrwt>
<rscale>  0 0.90250209E+03</rscale>
<asrwt>0</asrwt>
<pdfrwt beam="1">  1        2 0.27161274E+00 0.96959895E+03</pdfrwt>
<pdfrwt beam="2">  1       -2 0.11922372E+00 0.96959895E+03</pdfrwt>
<totfact> 0.48663237E+00</totfact>
</mgrwt>
</event>
<event>
 4    1  0.2089815E-007  0.8779230E+03  0.7818608E-02  0.9562444E-01
         -2   -1    0    0    0  501 -0.00000000000E+00  0.00000000000E+00  0.62559876622E+03  0.62559876623E+03  0.25500000000E-02 0.  1.
          2   -1    0    0  501    0  0.00000000000E+00 -0.00000000000E+00 -0.12244066839E+04  0.12244066839E+04  0.25500000000E-02 0. -1.
    8880023    1    1    2    0    0 -0.38379255988E+03 -0.43547881495E+03 -0.82864992786E+03  0.12072321386E+04  0.65864270000E+03 0. -1.
    8880022    1    1    2    0    0  0.38379255988E+03  0.43547881495E+03  0.22984201021E+03  0.64277331149E+03  0.15294330000E+03 0.  0.
<mgrwt>
<rscale>  0 0.79832529E+03</rscale>
<asrwt>0</asrwt>
<pdfrwt beam="1">  1        2 0.18837026E+00 0.87792297E+03</pdfrwt>
<pdfrwt beam="2">  1       -2 0.96245964E-01 0.87792297E+03</pdfrwt>
<totfact> 0.16652974E+01</totfact>
</mgrwt>
</event>
<event>
 4    1  0.2089815E-007  0.1391748E+04  0.7818608E-02  0.8990121E-01
         -2   -1    0    0    0  501 -0.00000000000E+00  0.00000000000E+00  0.95593307993E+03  0.95593307994E+03  0.25500000000E-02 0.  1.
          2   -1    0    0  501    0  0.00000000000E+00 -0.00000000000E+00 -0.33955462510E+04  0.33955462510E+04  0.25500000000E-02 0. -1.
    8880023    1    1    2    0    0  0.22953104250E+03  0.12043539262E+04 -0.27459750128E+04  0.30785291709E+04  0.65864270000E+03 0.  1.
    8880022    1    1    2    0    0 -0.22953104250E+03 -0.12043539262E+04  0.30636184166E+03  0.12729501601E+04  0.15294330000E+03 0.  0.
<mgrwt>
<rscale>  0 0.13509342E+04</rscale>
<asrwt>0</asrwt>
<pdfrwt beam="1">  1        2 0.52239172E+00 0.13917482E+04</pdfrwt>
<pdfrwt beam="2">  1       -2 0.14706663E+00 0.13917482E+04</pdfrwt>
<totfact> 0.29267824E-01</totfact>
</mgrwt>
</event>
<event>
 4    1  0.2089815E-007  0.9631070E+03  0.7818608E-02  0.9431502E-01
         -2   -1    0    0    0  501 -0.00000000000E+00  0.00000000000E+00  0.28035425385E+03  0.28035425386E+03  0.25500000000E-02 0.  1.
          2   -1    0    0  501    0  0.00000000000E+00 -0.00000000000E+00 -0.27190845137E+04  0.27190845137E+04  0.25500000000E-02 0. -1.
    8880023    1    1    2    0    0  0.44983210559E+01 -0.70266963189E+03 -0.98525294154E+03  0.13777875059E+04  0.65864270000E+03 0.  1.
    8880022    1    1    2    0    0 -0.44983210559E+01  0.70266963189E+03 -0.14534773183E+04  0.16216512616E+04  0.15294330000E+03 0.  0.
<mgrwt>
<rscale>  0 0.89527951E+03</rscale>
<asrwt>0</asrwt>
<pdfrwt beam="1">  1        2 0.41832068E+00 0.96310698E+03</pdfrwt>
<pdfrwt beam="2">  1       -2 0.43131425E-01 0.96310698E+03</pdfrwt>
<totfact> 0.13465192E+01</totfact>
</mgrwt>
</event>
<event>
 4    1  0.2089815E-007  0.9830642E+03  0.7818608E-02  0.9404058E-01
          2   -1    0    0  501    0  0.00000000000E+00  0.00000000000E+00  0.13826952735E+04  0.13826952735E+04  0.25500000000E-02 0. -1.
         -2   -1    0    0    0  501 -0.00000000000E+00 -0.00000000000E+00 -0.83705232098E+03  0.83705232099E+03  0.25500000000E-02 0.  1.
    8880023    1    1    2    0    0  0.28202885284E+03  0.67310084844E+03  0.95377381883E+03  0.13697078994E+04  0.65864270000E+03 0. -1.
    8880022    1    1    2    0    0 -0.28202885284E+03 -0.67310084844E+03 -0.40813086636E+03  0.85003969501E+03  0.15294330000E+03 0.  0.
<mgrwt>
<rscale>  0 0.91742472E+03</rscale>
<asrwt>0</asrwt>
<pdfrwt beam="1">  1        2 0.21272235E+00 0.98306421E+03</pdfrwt>
<pdfrwt beam="2">  1       -2 0.12877728E+00 0.98306421E+03</pdfrwt>
<totfact> 0.65501817E+00</totfact>
</mgrwt>
</event>
<event>
 4    1  0.2089815E-007  0.1334558E+04  0.7818608E-02  0.9036277E-01
         -2   -1    0    0    0  501 -0.00000000000E+00  0.00000000000E+00  0.53159043806E+03  0.53159043806E+03  0.25500000000E-02 0.  1.
          2   -1    0    0  501    0  0.00000000000E+00 -0.00000000000E+00 -0.36654894838E+04  0.36654894838E+04  0.25500000000E-02 0. -1.
    8880023    1    1    2    0    0  0.49057275269E+03 -0.10519382231E+04 -0.25738803155E+04  0.28992940065E+04  0.65864270000E+03 0.  0.
    8880022    1    1    2    0    0 -0.49057275269E+03  0.10519382231E+04 -0.56001873020E+03  0.12977859154E+04  0.15294330000E+03 0.  0.
<mgrwt>
<rscale>  0 0.12915704E+04</rscale>
<asrwt>0</asrwt>
<pdfrwt beam="1">  1        2 0.56392144E+00 0.13345583E+04</pdfrwt>
<pdfrwt beam="2">  1       -2 0.81783147E-01 0.13345583E+04</pdfrwt>
<totfact> 0.80449644E-01</totfact>
</mgrwt>
</event>
<event>
 4    1  0.2089815E-007  0.6761411E+03  0.7818608E-02  0.1011596E+00
          2   -1    0    0  501    0  0.00000000000E+00  0.00000000000E+00  0.14460282376E+04  0.14460282376E+04  0.25500000000E-02 0. -1.
         -2   -1    0    0    0  501 -0.00000000000E+00 -0.00000000000E+00 -0.12626542649E+04  0.12626542649E+04  0.25500000000E-02 0.  1.
    8880023    1    1    2    0    0 -0.15048423947E+03  0.26665388207E+02  0.13565676597E+04  0.15157316948E+04  0.65864270000E+03 0. -1.
    8880022    1    1    2    0    0  0.15048423947E+03 -0.26665388207E+02 -0.11731936870E+04  0.11929508077E+04  0.15294330000E+03 0.  0.
<mgrwt>
<rscale>  0 0.50845041E+03</rscale>
<asrwt>0</asrwt>
<pdfrwt beam="1">  1        2 0.22246588E+00 0.67614108E+03</pdfrwt>
<pdfrwt beam="2">  1       -2 0.19425450E+00 0.67614108E+03</pdfrwt>
<totfact> 0.20652111E+00</totfact>
</mgrwt>
</event>
<event>
 4    1  0.2089815E-007  0.2073721E+04  0.7818608E-02  0.8584556E-01
          2   -1    0    0  501    0  0.00000000000E+00  0.00000000000E+00  0.24818779057E+04  0.24818779057E+04  0.25500000000E-02 0. -1.
         -2   -1    0    0    0  501 -0.00000000000E+00 -0.00000000000E+00 -0.26557623567E+04  0.26557623567E+04  0.25500000000E-02 0.  1.
    8880023    1    1    2    0    0 -0.98341917327E+02  0.19638829911E+04  0.14930427686E+04  0.25552875475E+04  0.65864270000E+03 0.  0.
    8880022    1    1    2    0    0  0.98341917327E+02 -0.19638829911E+04 -0.16669272196E+04  0.25823527148E+04  0.15294330000E+03 0.  0.
<mgrwt>
<rscale>  0 0.20478823E+04</rscale>
<asrwt>0</asrwt>
<pdfrwt beam="1">  1        2 0.38182737E+00 0.20737207E+04</pdfrwt>
<pdfrwt beam="2">  1       -2 0.40857883E+00 0.20737207E+04</pdfrwt>
<totfact> 0.20333011E-02</totfact>
</mgrwt>
</event>
<event>
 4    1  0.2089815E-007  0.7826276E+03  0.7818608E-02  0.9749701E-01
          2   -1    0    0  501    0  0.00000000000E+00  0.00000000000E+00  0.10280280478E+04  0.10280280478E+04  0.25500000000E-02 0. -1.
         -2   -1    0    0    0  501 -0.00000000000E+00 -0.00000000000E+00 -0.68840535447E+03  0.68840535447E+03  0.25500000000E-02 0.  1.
    8880023    1    1    2    0    0 -0.37147545108E+03  0.20174671262E+03  0.76725366215E+03  0.10959854630E+04  0.65864270000E+03 0. -1.
    8880022    1    1    2    0    0  0.37147545108E+03 -0.20174671262E+03 -0.42763096883E+03  0.62044793925E+03  0.15294330000E+03 0.  0.
<mgrwt>
<rscale>  0 0.68133198E+03</rscale>
<asrwt>0</asrwt>
<pdfrwt beam="1">  1        2 0.15815816E+00 0.78262760E+03</pdfrwt>
<pdfrwt beam="2">  1       -2 0.10590852E+00 0.78262760E+03</pdfrwt>
<totfact> 0.17637107E+01</totfact>
</mgrwt>
</event>
<event>
 4    1  0.2089815E-007  0.9505266E+03  0.7818608E-02  0.9449357E-01
          2   -1    0    0  501    0  0.00000000000E+00  0.00000000000E+00  0.42155766791E+03  0.42155766792E+03  0.25500000000E-02 0. -1.
         -2   -1    0    0    0  501 -0.00000000000E+00 -0.00000000000E+00 -0.26275828248E+04  0.26275828248E+04  0.25500000000E-02 0.  1.
    8880023    1    1    2    0    0 -0.33112811536E+03  0.60003737957E+03 -0.26764265810E+03  0.98748847302E+03  0.65864270000E+03 0.  0.
    8880022    1    1    2    0    0  0.33112811536E+03 -0.60003737957E+03 -0.19383824988E+04  0.20616520197E+04  0.15294330000E+03 0.  0.
<mgrwt>
<rscale>  0 0.88122772E+03</rscale>
<asrwt>0</asrwt>
<pdfrwt beam="1">  1        2 0.64855027E-01 0.95052664E+03</pdfrwt>
<pdfrwt beam="2">  1       -2 0.40424350E+00 0.95052664E+03</pdfrwt>
<totfact> 0.53665981E-01</totfact>
</mgrwt>
</event>
<event>
 4    1  0.2089815E-007  0.8180519E+03  0.7818608E-02  0.9673043E-01
          2   -1    0    0  501    0  0.00000000000E+00  0.00000000000E+00  0.17308574451E+04  0.17308574451E+04  0.25500000000E-02 0. -1.
         -2   -1    0    0    0  501 -0.00000000000E+00 -0.00000000000E+00 -0.42336718978E+03  0.42336718979E+03  0.25500000000E-02 0.  1.
    8880023    1    1    2    0    0 -0.21457801364E+03 -0.43514929045E+03  0.14148338982E+04  0.16343083536E+04  0.65864270000E+03 0.  0.
    8880022    1    1    2    0    0  0.21457801364E+03  0.43514929045E+03 -0.10734364283E+03  0.51991628132E+03  0.15294330000E+03 0.  0.
<mgrwt>
<rscale>  0 0.72644731E+03</rscale>
<asrwt>0</asrwt>
<pdfrwt beam="1">  1        2 0.26628576E+00 0.81805185E+03</pdfrwt>
<pdfrwt beam="2">  1       -2 0.65133413E-01 0.81805185E+03</pdfrwt>
<totfact> 0.20892580E+01</totfact>
</mgrwt>
</event>
<event>
 4    1  0.2089815E-007  0.1382328E+04  0.7818608E-02  0.8997538E-01
          2   -1    0    0  501    0  0.00000000000E+00  0.00000000000E+00  0.36643010620E+04  0.36643010620E+04  0.25500000000E-02 0. -1.
         -2   -1    0    0    0  501 -0.00000000000E+00 -0.00000000000E+00 -0.88537939424E+03  0.88537939425E+03  0.25500000000E-02 0.  1.
    8880023    1    1    2    0    0 -0.11946827837E+04  0.22305313843E+03  0.30016772310E+04  0.33046779059E+04  0.65864270000E+03 0. -1.
    8880022    1    1    2    0    0  0.11946827837E+04 -0.22305313843E+03 -0.22275556329E+03  0.12450025503E+04  0.15294330000E+03 0.  0.
<mgrwt>
<rscale>  0 0.13411722E+04</rscale>
<asrwt>0</asrwt>
<pdfrwt beam="1">  1        2 0.56373862E+00 0.13823277E+04</pdfrwt>
<pdfrwt beam="2">  1       -2 0.13621222E+00 0.13823277E+04</pdfrwt>
<totfact> 0.23259970E-01</totfact>
</mgrwt>
</event>
<event>
 4    1  0.2089815E-007  0.7764377E+03  0.7818608E-02  0.9764272E-01
          2   -1    0    0  501    0  0.00000000000E+00  0.00000000000E+00  0.19926492658E+04  0.19926492658E+04  0.25500000000E-02 0. -1.
         -2   -1    0    0    0  501 -0.00000000000E+00 -0.00000000000E+00 -0.59161190120E+03  0.59161190120E+03  0.25500000000E-02 0.  1.
    8880023    1    1    2    0    0 -0.28693329774E+03  0.29447328064E+03  0.18193530105E+04  0.19781053595E+04  0.65864270000E+03 0. -1.
    8880022    1    1    2    0    0  0.28693329774E+03 -0.29447328064E+03 -0.41831564587E+03  0.60615580749E+03  0.15294330000E+03 0.  0.
<mgrwt>
<rscale>  0 0.67315641E+03</rscale>
<asrwt>0</asrwt>
<pdfrwt beam="1">  1        2 0.30656143E+00 0.77643766E+03</pdfrwt>
<pdfrwt beam="2">  1       -2 0.91017215E-01 0.77643766E+03</pdfrwt>
<totfact> 0.71624663E+00</totfact>
</mgrwt>
</event>
<event>
 4    1  0.2089815E-007  0.8253039E+03  0.7818608E-02  0.9658540E-01
         -2   -1    0    0    0  501 -0.00000000000E+00  0.00000000000E+00  0.27549874556E+03  0.27549874557E+03  0.25500000000E-02 0.  1.
          2   -1    0    0  501    0  0.00000000000E+00 -0.00000000000E+00 -0.16632304976E+04  0.16632304976E+04  0.25500000000E-02 0. -1.
    8880023    1    1    2    0    0 -0.27822170811E+03  0.41220017613E+03 -0.74522004117E+03  0.11119709619E+04  0.65864270000E+03 0.  1.
    8880022    1    1    2    0    0  0.27822170811E+03 -0.41220017613E+03 -0.64251171091E+03  0.82675828132E+03  0.15294330000E+03 0.  0.
<mgrwt>
<rscale>  0 0.73539902E+03</rscale>
<asrwt>0</asrwt>
<pdfrwt beam="1">  1        2 0.25588161E+00 0.82530389E+03</pdfrwt>
<pdfrwt beam="2">  1       -2 0.42384424E-01 0.82530389E+03</pdfrwt>
<totfact> 0.55102989E+01</totfact>
</mgrwt>
</event>
<event>
 4    1  0.3147189E-007  0.1623944E+04  0.7818608E-02  0.8826736E-01
         -2   -1    0    0    0  501 -0.00000000000E+00  0.00000000000E+00  0.14284422381E+04  0.14284422381E+04  0.25500000000E-02 0.  1.
          2   -1    0    0  501    0  0.00000000000E+00 -0.00000000000E+00 -0.34752054008E+04  0.34752054008E+04  0.25500000000E-02 0. -1.
    8880023    1    1    2    0    0 -0.14720013169E+04 -0.19130241529E+03 -0.27963712345E+04  0.32337109918E+04  0.65864270000E+03 0.  0.
    8880022    1    1    2    0    0  0.14720013169E+04  0.19130241529E+03  0.74960807184E+03  0.16699366471E+04  0.15294330000E+03 0.  0.
<mgrwt>
<rscale>  0 0.15899662E+04</rscale>
<asrwt>0</asrwt>
<pdfrwt beam="1">  1        2 0.53464698E+00 0.16239442E+04</pdfrwt>
<pdfrwt beam="2">  1       -2 0.21976034E+00 0.16239442E+04</pdfrwt>
<totfact> 0.78111885E-02</totfact>
</mgrwt>
</event>
<event>
 4    1  0.2089815E-007  0.7471813E+03  0.7818608E-02  0.9839501E-01
          2   -1    0    0  501    0  0.00000000000E+00  0.00000000000E+00  0.14181207833E+04  0.14181207833E+04  0.25500000000E-02 0. -1.
         -2   -1    0    0    0  501 -0.00000000000E+00 -0.00000000000E+00 -0.80020134900E+03  0.80020134900E+03  0.25500000000E-02 0.  1.
    8880023    1    1    2    0    0 -0.15007011883E+03 -0.31929395838E+03  0.12629219974E+04  0.14673962826E+04  0.65864270000E+03 0. -1.
    8880022    1    1    2    0    0  0.15007011883E+03  0.31929395838E+03 -0.64500256306E+03  0.75092584973E+03  0.15294330000E+03 0.  0.
<mgrwt>
<rscale>  0 0.63285077E+03</rscale>
<asrwt>0</asrwt>
<pdfrwt beam="1">  1        2 0.21817243E+00 0.74718129E+03</pdfrwt>
<pdfrwt beam="2">  1       -2 0.12310790E+00 0.74718129E+03</pdfrwt>
<totfact> 0.72080029E+00</totfact>
</mgrwt>
</event>
<event>
 4    1  0.2089815E-007  0.8730776E+03  0.7818608E-02  0.9570711E-01
          2   -1    0    0  501    0  0.00000000000E+00  0.00000000000E+00  0.13025962423E+04  0.13025962423E+04  0.25500000000E-02 0. -1.
         -2   -1    0    0    0  501 -0.00000000000E+00 -0.00000000000E+00 -0.47321134377E+03  0.47321134378E+03  0.25500000000E-02 0.  1.
    8880023    1    1    2    0    0  0.56976260679E+02  0.57027014367E+03  0.79637039997E+03  0.11817234665E+04  0.65864270000E+03 0.  0.
    8880022    1    1    2    0    0 -0.56976260679E+02 -0.57027014367E+03  0.33014498576E+02  0.59408411961E+03  0.15294330000E+03 0.  0.
<mgrwt>
<rscale>  0 0.79265411E+03</rscale>
<asrwt>0</asrwt>
<pdfrwt beam="1">  1        2 0.20039942E+00 0.87307762E+03</pdfrwt>
<pdfrwt beam="2">  1       -2 0.72801745E-01 0.87307762E+03</pdfrwt>
<totfact> 0.28310652E+01</totfact>
</mgrwt>
</event>
<event>
 4    1  0.2089815E-007  0.1040586E+04  0.7818608E-02  0.9330285E-01
          2   -1    0    0  501    0  0.00000000000E+00  0.00000000000E+00  0.55212540864E+03  0.55212540864E+03  0.25500000000E-02 0. -1.
         -2   -1    0    0    0  501 -0.00000000000E+00 -0.00000000000E+00 -0.21219993363E+04  0.21219993363E+04  0.25500000000E-02 0.  1.
    8880023    1    1    2    0    0  0.20658368375E+03 -0.77867319235E+03 -0.17373735952E+03  0.10549898745E+04  0.65864270000E+03 0.  0.
    8880022    1    1    2    0    0 -0.20658368375E+03  0.77867319235E+03 -0.13961365681E+04  0.16191348705E+04  0.15294330000E+03 0.  0.
<mgrwt>
<rscale>  0 0.98041950E+03</rscale>
<asrwt>0</asrwt>
<pdfrwt beam="1">  1        2 0.84942372E-01 0.10405859E+04</pdfrwt>
<pdfrwt beam="2">  1       -2 0.32646143E+00 0.10405859E+04</pdfrwt>
<totfact> 0.12031445E+00</totfact>
</mgrwt>
</event>
<event>
 4    1  0.2089815E-007  0.7632492E+03  0.7818608E-02  0.9796767E-01
          2   -1    0    0  501    0  0.00000000000E+00  0.00000000000E+00  0.44497203008E+03  0.44497203009E+03  0.25500000000E-02 0. -1.
         -2   -1    0    0    0  501 -0.00000000000E+00 -0.00000000000E+00 -0.13911018104E+04  0.13911018104E+04  0.25500000000E-02 0.  1.
    8880023    1    1    2    0    0  0.38566693507E+03 -0.41270075250E+00  0.41973798820E+02  0.76440248638E+03  0.65864270000E+03 0. -1.
    8880022    1    1    2    0    0 -0.38566693507E+03  0.41270075250E+00 -0.98810357918E+03  0.10716713542E+04  0.15294330000E+03 0.  0.
<mgrwt>
<rscale>  0 0.65536327E+03</rscale>
<asrwt>0</asrwt>
<pdfrwt beam="1">  1        2 0.68457236E-01 0.76324921E+03</pdfrwt>
<pdfrwt beam="2">  1       -2 0.21401566E+00 0.76324921E+03</pdfrwt>
<totfact> 0.77524478E+00</totfact>
</mgrwt>
</event>
<event>
 4    1  0.2089815E-007  0.6790057E+03  0.7818608E-02  0.1009892E+00
          2   -1    0    0  501    0  0.00000000000E+00  0.00000000000E+00  0.12125836536E+04  0.12125836536E+04  0.25500000000E-02 0. -1.
         -2   -1    0    0    0  501 -0.00000000000E+00 -0.00000000000E+00 -0.45239418422E+03  0.45239418423E+03  0.25500000000E-02 0.  1.
    8880023    1    1    2    0    0 -0.16498829597E+03  0.41789912013E+01  0.10789343968E+04  0.12748130219E+04  0.65864270000E+03 0. -1.
    8880022    1    1    2    0    0  0.16498829597E+03 -0.41789912013E+01 -0.31874492749E+03  0.39016481593E+03  0.15294330000E+03 0.  0.
<mgrwt>
<rscale>  0 0.51517687E+03</rscale>
<asrwt>0</asrwt>
<pdfrwt beam="1">  1        2 0.18655133E+00 0.67900575E+03</pdfrwt>
<pdfrwt beam="2">  1       -2 0.69599107E-01 0.67900575E+03</pdfrwt>
<totfact> 0.35964142E+01</totfact>
</mgrwt>
</event>
<event>
 4    1  0.2089815E-007  0.1451818E+04  0.7818608E-02  0.8944430E-01
          2   -1    0    0  501    0  0.00000000000E+00  0.00000000000E+00  0.25710558050E+04  0.25710558050E+04  0.25500000000E-02 0. -1.
         -2   -1    0    0    0  501 -0.00000000000E+00 -0.00000000000E+00 -0.10911703665E+04  0.10911703665E+04  0.25500000000E-02 0.  1.
    8880023    1    1    2    0    0 -0.11063760318E+04 -0.67074370920E+03  0.18079602076E+04  0.23187271003E+04  0.65864270000E+03 0.  0.
    8880022    1    1    2    0    0  0.11063760318E+04  0.67074370920E+03 -0.32807476910E+03  0.13434990712E+04  0.15294330000E+03 0.  0.
<mgrwt>
<rscale>  0 0.14130442E+04</rscale>
<asrwt>0</asrwt>
<pdfrwt beam="1">  1        2 0.39554704E+00 0.14518179E+04</pdfrwt>
<pdfrwt beam="2">  1       -2 0.16787237E+00 0.14518179E+04</pdfrwt>
<totfact> 0.66208211E-01</totfact>
</mgrwt>
</event>
<event>
 4    1  0.2089815E-007  0.1059885E+04  0.7818608E-02  0.9307091E-01
         -2   -1    0    0    0  501 -0.00000000000E+00  0.00000000000E+00  0.59566119990E+03  0.59566119990E+03  0.25500000000E-02 0.  1.
          2   -1    0    0  501    0  0.00000000000E+00 -0.00000000000E+00 -0.20706576173E+04  0.20706576173E+04  0.25500000000E-02 0. -1.
    8880023    1    1    2    0    0 -0.20985251231E+03  0.80343564251E+03 -0.14819192719E+04  0.18219335452E+04  0.65864270000E+03 0. -1.
    8880022    1    1    2    0    0  0.20985251231E+03 -0.80343564251E+03  0.69228545023E+01  0.84438527196E+03  0.15294330000E+03 0.  0.
<mgrwt>
<rscale>  0 0.10013265E+04</rscale>
<asrwt>0</asrwt>
<pdfrwt beam="1">  1        2 0.31856271E+00 0.10598854E+04</pdfrwt>
<pdfrwt beam="2">  1       -2 0.91640186E-01 0.10598854E+04</pdfrwt>
<totfact> 0.61546364E+00</totfact>
</mgrwt>
</event>
<event>
 4    1  0.2364946E-007  0.1137573E+04  0.7818608E-02  0.9220333E-01
         -2   -1    0    0    0  501 -0.00000000000E+00  0.00000000000E+00  0.19527428491E+04  0.19527428491E+04  0.25500000000E-02 0.  1.
          2   -1    0    0  501    0  0.00000000000E+00 -0.00000000000E+00 -0.17785389596E+04  0.17785389596E+04  0.25500000000E-02 0. -1.
    8880023    1    1    2    0    0 -0.59182446503E+03 -0.71414689840E+03 -0.14570672811E+04  0.18485446324E+04  0.65864270000E+03 0.  0.
    8880022    1    1    2    0    0  0.59182446503E+03  0.71414689840E+03  0.16312711706E+04  0.18827371763E+04  0.15294330000E+03 0.  1.
<mgrwt>
<rscale>  0 0.10846002E+04</rscale>
<asrwt>0</asrwt>
<pdfrwt beam="1">  1        2 0.27362138E+00 0.11375729E+04</pdfrwt>
<pdfrwt beam="2">  1       -2 0.30042198E+00 0.11375729E+04</pdfrwt>
<totfact> 0.27605952E-01</totfact>
</mgrwt>
</event>
<event>
 4    1  0.2089815E-007  0.1408063E+04  0.7818608E-02  0.8977443E-01
         -2   -1    0    0    0  501 -0.00000000000E+00  0.00000000000E+00  0.10557715866E+04  0.10557715866E+04  0.25500000000E-02 0.  1.
          2   -1    0    0  501    0  0.00000000000E+00 -0.00000000000E+00 -0.30632945868E+04  0.30632945868E+04  0.25500000000E-02 0. -1.
    8880023    1    1    2    0    0 -0.11153269111E+03  0.12395124283E+04 -0.24193649325E+04  0.27992798152E+04  0.65864270000E+03 0.  0.
    8880022    1    1    2    0    0  0.11153269111E+03 -0.12395124283E+04  0.41184193224E+03  0.13197863582E+04  0.15294330000E+03 0.  0.
<mgrwt>
<rscale>  0 0.13678257E+04</rscale>
<asrwt>0</asrwt>
<pdfrwt beam="1">  1        2 0.47127609E+00 0.14080628E+04</pdfrwt>
<pdfrwt beam="2">  1       -2 0.16242640E+00 0.14080628E+04</pdfrwt>
<totfact> 0.36757144E-01</totfact>
</mgrwt>
</event>
<event>
 4    1  0.2089815E-007  0.9557798E+03  0.7818608E-02  0.9441847E-01
          2   -1    0    0  501    0  0.00000000000E+00  0.00000000000E+00  0.25168909727E+04  0.25168909727E+04  0.25500000000E-02 0. -1.
         -2   -1    0    0    0  501 -0.00000000000E+00 -0.00000000000E+00 -0.33365233461E+03  0.33365233462E+03  0.25500000000E-02 0.  1.
    8880023    1    1    2    0    0  0.46614323911E+03  0.51226483167E+03  0.18151909657E+04  0.20514466177E+04  0.65864270000E+03 0.  0.
    8880022    1    1    2    0    0 -0.46614323911E+03 -0.51226483167E+03  0.36804767234E+03  0.79909668956E+03  0.15294330000E+03 0.  1.
<mgrwt>
<rscale>  0 0.88710450E+03</rscale>
<asrwt>0</asrwt>
<pdfrwt beam="1">  1        2 0.38721399E+00 0.95577978E+03</pdfrwt>
<pdfrwt beam="2">  1       -2 0.51331129E-01 0.95577978E+03</pdfrwt>
<totfact> 0.12423820E+01</totfact>
</mgrwt>
</event>
<event>
 4    1  0.2089815E-007  0.1226693E+04  0.7818608E-02  0.9131602E-01
          2   -1    0    0  501    0  0.00000000000E+00  0.00000000000E+00  0.18476261093E+04  0.18476261093E+04  0.25500000000E-02 0. -1.
         -2   -1    0    0    0  501 -0.00000000000E+00 -0.00000000000E+00 -0.11260598151E+04  0.11260598151E+04  0.25500000000E-02 0.  1.
    8880023    1    1    2    0    0  0.95967892026E+03 -0.38727488289E+03  0.12924726135E+04  0.17819262408E+04  0.65864270000E+03 0.  0.
    8880022    1    1    2    0    0 -0.95967892026E+03  0.38727488289E+03 -0.57090631934E+03  0.11917596836E+04  0.15294330000E+03 0.  0.
<mgrwt>
<rscale>  0 0.11788181E+04</rscale>
<asrwt>0</asrwt>
<pdfrwt beam="1">  1        2 0.28425017E+00 0.12266930E+04</pdfrwt>
<pdfrwt beam="2">  1       -2 0.17323997E+00 0.12266930E+04</pdfrwt>
<totfact> 0.15893710E+00</totfact>
</mgrwt>
</event>
<event>
 4    1  0.4044286E-007  0.1242095E+04  0.7818608E-02  0.9117251E-01
          2   -1    0    0  501    0  0.00000000000E+00  0.00000000000E+00  0.34515382381E+04  0.34515382381E+04  0.25500000000E-02 0. -1.
         -2   -1    0    0    0  501 -0.00000000000E+00 -0.00000000000E+00 -0.12677469432E+04  0.12677469432E+04  0.25500000000E-02 0.  1.
    8880023    1    1    2    0    0  0.70143975313E+03 -0.78547565741E+03  0.30844594685E+04  0.33251601698E+04  0.65864270000E+03 0. -1.
    8880022    1    1    2    0    0 -0.70143975313E+03  0.78547565741E+03 -0.90066817361E+03  0.13941250115E+04  0.15294330000E+03 0.  0.
<mgrwt>
<rscale>  0 0.11949925E+04</rscale>
<asrwt>0</asrwt>
<pdfrwt beam="1">  1        2 0.53100587E+00 0.12420950E+04</pdfrwt>
<pdfrwt beam="2">  1       -2 0.19503800E+00 0.12420950E+04</pdfrwt>
<totfact> 0.12409903E-01</totfact>
</mgrwt>
</event>
<event>
 4    1  0.2089815E-007  0.1185684E+04  0.7818608E-02  0.9171166E-01
         -2   -1    0    0    0  501 -0.00000000000E+00  0.00000000000E+00  0.13644069016E+04  0.13644069016E+04  0.25500000000E-02 0.  1.
          2   -1    0    0  501    0  0.00000000000E+00 -0.00000000000E+00 -0.11812971940E+04  0.11812971940E+04  0.25500000000E-02 0. -1.
    8880023    1    1    2    0    0  0.52800574849E+03 -0.83261399827E+03 -0.55056501071E+03  0.13072750965E+04  0.65864270000E+03 0.  0.
    8880022    1    1    2    0    0 -0.52800574849E+03  0.83261399827E+03  0.73367471830E+03  0.12384289991E+04  0.15294330000E+03 0.  0.
<mgrwt>
<rscale>  0 0.11356066E+04</rscale>
<asrwt>0</asrwt>
<pdfrwt beam="1">  1        2 0.18173803E+00 0.11856839E+04</pdfrwt>
<pdfrwt beam="2">  1       -2 0.20990875E+00 0.11856839E+04</pdfrwt>
<totfact> 0.21677676E+00</totfact>
</mgrwt>
</event>
<event>
 4    1  0.2089815E-007  0.7321298E+03  0.7818608E-02  0.9883495E-01
          2   -1    0    0  501    0  0.00000000000E+00  0.00000000000E+00  0.25650978079E+04  0.25650978079E+04  0.25500000000E-02 0. -1.
         -2   -1    0    0    0  501 -0.00000000000E+00 -0.00000000000E+00 -0.18752763809E+03  0.18752763811E+03  0.25500000000E-02 0.  1.
    8880023    1    1    2    0    0 -0.33045110936E+02 -0.31798099447E+03  0.22656090586E+04  0.23809658764E+04  0.65864270000E+03 0. -1.
    8880022    1    1    2    0    0  0.33045110936E+02  0.31798099447E+03  0.11196111121E+03  0.37165956955E+03  0.15294330000E+03 0.  0.
<mgrwt>
<rscale>  0 0.61067882E+03</rscale>
<asrwt>0</asrwt>
<pdfrwt beam="1">  1        2 0.39463044E+00 0.73212984E+03</pdfrwt>
<pdfrwt beam="2">  1       -2 0.28850405E-01 0.73212984E+03</pdfrwt>
<totfact> 0.36807137E+01</totfact>
</mgrwt>
</event>
<event>
 4    1  0.2089815E-007  0.7368714E+03  0.7818608E-02  0.9869156E-01
         -2   -1    0    0    0  501 -0.00000000000E+00  0.00000000000E+00  0.58001282944E+03  0.58001282945E+03  0.25500000000E-02 0.  1.
          2   -1    0    0  501    0  0.00000000000E+00 -0.00000000000E+00 -0.11237864078E+04  0.11237864078E+04  0.25500000000E-02 0. -1.
    8880023    1    1    2    0    0 -0.18058972479E+03  0.27668856093E+03 -0.92101842197E+03  0.11795144545E+04  0.65864270000E+03 0. -1.
    8880022    1    1    2    0    0  0.18058972479E+03 -0.27668856093E+03  0.37724484358E+03  0.52428478280E+03  0.15294330000E+03 0.  0.
<mgrwt>
<rscale>  0 0.61779683E+03</rscale>
<asrwt>0</asrwt>
<pdfrwt beam="1">  1        2 0.17289022E+00 0.73687137E+03</pdfrwt>
<pdfrwt beam="2">  1       -2 0.89232743E-01 0.73687137E+03</pdfrwt>
<totfact> 0.23144189E+01</totfact>
</mgrwt>
</event>
<event>
 4    1  0.2089815E-007  0.7165225E+03  0.7818608E-02  0.9934533E-01
          2   -1    0    0  501    0  0.00000000000E+00  0.00000000000E+00  0.11954045015E+04  0.11954045015E+04  0.25500000000E-02 0. -1.
         -2   -1    0    0    0  501 -0.00000000000E+00 -0.00000000000E+00 -0.89555353418E+03  0.89555353418E+03  0.25500000000E-02 0.  1.
    8880023    1    1    2    0    0 -0.25284580779E+03  0.12515284298E+03  0.10522140747E+04  0.12730117446E+04  0.65864270000E+03 0. -1.
    8880022    1    1    2    0    0  0.25284580779E+03 -0.12515284298E+03 -0.75236310741E+03  0.81794629105E+03  0.15294330000E+03 0.  0.
<mgrwt>
<rscale>  0 0.58616458E+03</rscale>
<asrwt>0</asrwt>
<pdfrwt beam="1">  1        2 0.18390839E+00 0.71652247E+03</pdfrwt>
<pdfrwt beam="2">  1       -2 0.13777747E+00 0.71652247E+03</pdfrwt>
<totfact> 0.73154092E+00</totfact>
</mgrwt>
</event>
<event>
 4    1  0.2089815E-007  0.1499795E+04  0.7818608E-02  0.8909781E-01
         -2   -1    0    0    0  501 -0.00000000000E+00  0.00000000000E+00  0.21278274872E+04  0.21278274872E+04  0.25500000000E-02 0.  1.
          2   -1    0    0  501    0  0.00000000000E+00 -0.00000000000E+00 -0.23497175420E+04  0.23497175420E+04  0.25500000000E-02 0. -1.
    8880023    1    1    2    0    0  0.89525329781E+03  0.10070234673E+04 -0.18351408177E+04  0.23700478387E+04  0.65864270000E+03 0.  0.
    8880022    1    1    2    0    0 -0.89525329781E+03 -0.10070234673E+04  0.16132507629E+04  0.21074971905E+04  0.15294330000E+03 0.  0.
<mgrwt>
<rscale>  0 0.14624992E+04</rscale>
<asrwt>0</asrwt>
<pdfrwt beam="1">  1        2 0.36149501E+00 0.14997950E+04</pdfrwt>
<pdfrwt beam="2">  1       -2 0.32735807E+00 0.14997950E+04</pdfrwt>
<totfact> 0.85950203E-02</totfact>
</mgrwt>
</event>
<event>
 4    1  0.2089815E-007  0.6761841E+03  0.7818608E-02  0.1011570E+00
          2   -1    0    0  501    0  0.00000000000E+00  0.00000000000E+00  0.23711232593E+04  0.23711232593E+04  0.25500000000E-02 0. -1.
         -2   -1    0    0    0  501 -0.00000000000E+00 -0.00000000000E+00 -0.28876062957E+03  0.28876062958E+03  0.25500000000E-02 0.  1.
    8880023    1    1    2    0    0  0.13491916458E+03  0.72190647430E+02  0.22730511229E+04  0.23714945254E+04  0.65864270000E+03 0. -1.
    8880022    1    1    2    0    0 -0.13491916458E+03 -0.72190647430E+02 -0.19068849314E+03  0.28838936349E+03  0.15294330000E+03 0.  0.
<mgrwt>
<rscale>  0 0.50855363E+03</rscale>
<asrwt>0</asrwt>
<pdfrwt beam="1">  1        2 0.36478821E+00 0.67618406E+03</pdfrwt>
<pdfrwt beam="2">  1       -2 0.44424710E-01 0.67618406E+03</pdfrwt>
<totfact> 0.20927611E+01</totfact>
</mgrwt>
</event>
<event>
 4    1  0.2089815E-007  0.1661428E+04  0.7818608E-02  0.8803329E-01
          2   -1    0    0  501    0  0.00000000000E+00  0.00000000000E+00  0.43547183919E+04  0.43547183919E+04  0.25500000000E-02 0. -1.
         -2   -1    0    0    0  501 -0.00000000000E+00 -0.00000000000E+00 -0.72812057826E+03  0.72812057826E+03  0.25500000000E-02 0.  1.
    8880023    1    1    2    0    0  0.12681682684E+04 -0.84751560394E+03  0.29948247350E+04  0.34248093167E+04  0.65864270000E+03 0.  0.
    8880022    1    1    2    0    0 -0.12681682684E+04  0.84751560394E+03  0.63177307862E+03  0.16580296535E+04  0.15294330000E+03 0.  0.
<mgrwt>
<rscale>  0 0.16283319E+04</rscale>
<asrwt>0</asrwt>
<pdfrwt beam="1">  1        2 0.66995669E+00 0.16614282E+04</pdfrwt>
<pdfrwt beam="2">  1       -2 0.11201855E+00 0.16614282E+04</pdfrwt>
<totfact> 0.10137947E-01</totfact>
</mgrwt>
</event>
<event>
 4    1  0.2089815E-007  0.7596958E+03  0.7818608E-02  0.9805896E-01
         -2   -1    0    0    0  501 -0.00000000000E+00  0.00000000000E+00  0.59976240177E+03  0.59976240178E+03  0.25500000000E-02 0.  1.
          2   -1    0    0  501    0  0.00000000000E+00 -0.00000000000E+00 -0.10660507147E+04  0.10660507147E+04  0.25500000000E-02 0. -1.
    8880023    1    1    2    0    0 -0.19475306387E+03  0.32465169075E+03 -0.82558167657E+03  0.11219281560E+04  0.65864270000E+03 0.  0.
    8880022    1    1    2    0    0  0.19475306387E+03 -0.32465169075E+03  0.35929336359E+03  0.54388496057E+03  0.15294330000E+03 0.  0.
<mgrwt>
<rscale>  0 0.65047104E+03</rscale>
<asrwt>0</asrwt>
<pdfrwt beam="1">  1        2 0.16400780E+00 0.75969578E+03</pdfrwt>
<pdfrwt beam="2">  1       -2 0.92271139E-01 0.75969578E+03</pdfrwt>
<totfact> 0.23183560E+01</totfact>
</mgrwt>
</event>
<event>
 4    1  0.2089815E-007  0.1714056E+04  0.7818608E-02  0.8771629E-01
         -2   -1    0    0    0  501 -0.00000000000E+00  0.00000000000E+00  0.15595751468E+04  0.15595751468E+04  0.25500000000E-02 0.  1.
          2   -1    0    0  501    0  0.00000000000E+00 -0.00000000000E+00 -0.23253850065E+04  0.23253850065E+04  0.25500000000E-02 0. -1.
    8880023    1    1    2    0    0 -0.15822855471E+04 -0.23465783193E+02  0.57217572576E+03  0.18070344388E+04  0.65864270000E+03 0.  0.
    8880022    1    1    2    0    0  0.15822855471E+04  0.23465783193E+02 -0.13379855855E+04  0.20779257146E+04  0.15294330000E+03 0.  0.
<mgrwt>
<rscale>  0 0.16821188E+04</rscale>
<asrwt>0</asrwt>
<pdfrwt beam="1">  1        2 0.35775154E+00 0.17140561E+04</pdfrwt>
<pdfrwt beam="2">  1       -2 0.23993464E+00 0.17140561E+04</pdfrwt>
<totfact> 0.29791410E-01</totfact>
</mgrwt>
</event>
<event>
 4    1  0.2089815E-007  0.6931861E+03  0.7818608E-02  0.1002674E+00
          2   -1    0    0  501    0  0.00000000000E+00  0.00000000000E+00  0.20144749814E+04  0.20144749814E+04  0.25500000000E-02 0. -1.
         -2   -1    0    0    0  501 -0.00000000000E+00 -0.00000000000E+00 -0.22323533769E+03  0.22323533770E+03  0.25500000000E-02 0.  1.
    8880023    1    1    2    0    0  0.64757940976E+02  0.20616285905E+03  0.18420287693E+04  0.19681404697E+04  0.65864270000E+03 0.  0.
    8880022    1    1    2    0    0 -0.64757940976E+02 -0.20616285905E+03 -0.50789125637E+02  0.26956984933E+03  0.15294330000E+03 0.  1.
<mgrwt>
<rscale>  0 0.54493300E+03</rscale>
<asrwt>0</asrwt>
<pdfrwt beam="1">  1        2 0.30991922E+00 0.69318607E+03</pdfrwt>
<pdfrwt beam="2">  1       -2 0.34343900E-01 0.69318607E+03</pdfrwt>
<totfact> 0.54019573E+01</totfact>
</mgrwt>
</event>
<event>
 4    1  0.2089815E-007  0.1211539E+04  0.7818608E-02  0.9145986E-01
         -2   -1    0    0    0  501 -0.00000000000E+00  0.00000000000E+00  0.88226249111E+03  0.88226249112E+03  0.25500000000E-02 0.  1.
          2   -1    0    0  501    0  0.00000000000E+00 -0.00000000000E+00 -0.22451764076E+04  0.22451764076E+04  0.25500000000E-02 0. -1.
    8880023    1    1    2    0    0  0.70120160853E+03 -0.73643252109E+03 -0.16618247886E+04  0.20565719993E+04  0.65864270000E+03 0.  0.
    8880022    1    1    2    0    0 -0.70120160853E+03  0.73643252109E+03  0.29891087208E+03  0.10708668995E+04  0.15294330000E+03 0.  0.
<mgrwt>
<rscale>  0 0.11628759E+04</rscale>
<asrwt>0</asrwt>
<pdfrwt beam="1">  1        2 0.34541175E+00 0.12115390E+04</pdfrwt>
<pdfrwt beam="2">  1       -2 0.13573269E+00 0.12115390E+04</pdfrwt>
<totfact> 0.18474872E+00</totfact>
</mgrwt>
</event>
<event>
 4    1  0.2089815E-007  0.7899616E+03  0.7818608E-02  0.9732937E-01
          2   -1    0    0  501    0  0.00000000000E+00  0.00000000000E+00  0.17051005204E+04  0.17051005204E+04  0.25500000000E-02 0. -1.
         -2   -1    0    0    0  501 -0.00000000000E+00 -0.00000000000E+00 -0.79703528422E+03  0.79703528422E+03  0.25500000000E-02 0.  1.
    8880023    1    1    2    0    0 -0.26264567497E+03 -0.34820451453E+03  0.15331710853E+04  0.17247182140E+04  0.65864270000E+03 0.  0.
    8880022    1    1    2    0    0  0.26264567497E+03  0.34820451453E+03 -0.62510584916E+03  0.77741759061E+03  0.15294330000E+03 0.  0.
<mgrwt>
<rscale>  0 0.69089162E+03</rscale>
<asrwt>0</asrwt>
<pdfrwt beam="1">  1        2 0.26232316E+00 0.78996161E+03</pdfrwt>
<pdfrwt beam="2">  1       -2 0.12262081E+00 0.78996161E+03</pdfrwt>
<totfact> 0.50160300E+00</totfact>
</mgrwt>
</event>
<event>
 4    1  0.2089815E-007  0.7646625E+03  0.7818608E-02  0.9793183E-01
          2   -1    0    0  501    0  0.00000000000E+00  0.00000000000E+00  0.27452492355E+04  0.27452492355E+04  0.25500000000E-02 0. -1.
         -2   -1    0    0    0  501 -0.00000000000E+00 -0.00000000000E+00 -0.56239974369E+03  0.56239974369E+03  0.25500000000E-02 0.  1.
    8880023    1    1    2    0    0  0.33279305506E+03 -0.20036777407E+03  0.26044141014E+04  0.27143473396E+04  0.65864270000E+03 0. -1.
    8880022    1    1    2    0    0 -0.33279305506E+03  0.20036777407E+03 -0.42156460961E+03  0.59330163953E+03  0.15294330000E+03 0.  0.
<mgrwt>
<rscale>  0 0.65729665E+03</rscale>
<asrwt>0</asrwt>
<pdfrwt beam="1">  1        2 0.42234604E+00 0.76466245E+03</pdfrwt>
<pdfrwt beam="2">  1       -2 0.86523036E-01 0.76466245E+03</pdfrwt>
<totfact> 0.30461358E+00</totfact>
</mgrwt>
</event>
<event>
 4    1  0.2089815E-007  0.9430626E+03  0.7818608E-02  0.9460166E-01
          2   -1    0    0  501    0  0.00000000000E+00  0.00000000000E+00  0.12635687287E+04  0.12635687287E+04  0.25500000000E-02 0. -1.
         -2   -1    0    0    0  501 -0.00000000000E+00 -0.00000000000E+00 -0.10582253845E+04  0.10582253845E+04  0.25500000000E-02 0.  1.
    8880023    1    1    2    0    0  0.18894475010E+03 -0.64796359855E+03  0.92667869454E+03  0.13221575371E+04  0.65864270000E+03 0. -1.
    8880022    1    1    2    0    0 -0.18894475010E+03  0.64796359855E+03 -0.72133535039E+03  0.99963657615E+03  0.15294330000E+03 0.  0.
<mgrwt>
<rscale>  0 0.87285383E+03</rscale>
<asrwt>0</asrwt>
<pdfrwt beam="1">  1        2 0.19439519E+00 0.94306264E+03</pdfrwt>
<pdfrwt beam="2">  1       -2 0.16280391E+00 0.94306264E+03</pdfrwt>
<totfact> 0.41620321E+00</totfact>
</mgrwt>
</event>
<event>
 4    1  0.2089815E-007  0.6608192E+03  0.7818608E-02  0.1023332E+00
          2   -1    0    0  501    0  0.00000000000E+00  0.00000000000E+00  0.10039753294E+04  0.10039753294E+04  0.25500000000E-02 0. -1.
         -2   -1    0    0    0  501 -0.00000000000E+00 -0.00000000000E+00 -0.18975217915E+03  0.18975217917E+03  0.25500000000E-02 0.  1.
    8880023    1    1    2    0    0  0.26246982305E+02 -0.46721893489E+02  0.78987766969E+03  0.10298489106E+04  0.65864270000E+03 0. -1.
    8880022    1    1    2    0    0 -0.26246982305E+02  0.46721893489E+02  0.24345480518E+02  0.16387859789E+03  0.15294330000E+03 0.  0.
<mgrwt>
<rscale>  0 0.46503010E+03</rscale>
<asrwt>0</asrwt>
<pdfrwt beam="1">  1        2 0.15445774E+00 0.66081922E+03</pdfrwt>
<pdfrwt beam="2">  1       -2 0.29192644E-01 0.66081922E+03</pdfrwt>
<totfact> 0.27371429E+02</totfact>
</mgrwt>
</event>
<event>
 4    1  0.2089815E-007  0.8168170E+03  0.7818608E-02  0.9675548E-01
          2   -1    0    0  501    0  0.00000000000E+00  0.00000000000E+00  0.33898935472E+04  0.33898935472E+04  0.25500000000E-02 0. -1.
         -2   -1    0    0    0  501 -0.00000000000E+00 -0.00000000000E+00 -0.18596075248E+03  0.18596075250E+03  0.25500000000E-02 0.  1.
    8880023    1    1    2    0    0  0.23829396136E+03  0.42023300342E+03  0.28315614477E+04  0.29470205679E+04  0.65864270000E+03 0. -1.
    8880022    1    1    2    0    0 -0.23829396136E+03 -0.42023300342E+03  0.37237134706E+03  0.62883373185E+03  0.15294330000E+03 0.  0.
<mgrwt>
<rscale>  0 0.72491471E+03</rscale>
<asrwt>0</asrwt>
<pdfrwt beam="1">  1        2 0.52152204E+00 0.81681699E+03</pdfrwt>
<pdfrwt beam="2">  1       -2 0.28609349E-01 0.81681699E+03</pdfrwt>
<totfact> 0.11522388E+01</totfact>
</mgrwt>
</event>
<event>
 4    1  0.2089815E-007  0.1132964E+04  0.7818608E-02  0.9225213E-01
          2   -1    0    0  501    0  0.00000000000E+00  0.00000000000E+00  0.29607588210E+04  0.29607588210E+04  0.25500000000E-02 0. -1.
         -2   -1    0    0    0  501 -0.00000000000E+00 -0.00000000000E+00 -0.11008225682E+04  0.11008225682E+04  0.25500000000E-02 0.  1.
    8880023    1    1    2    0    0  0.92158638328E+03  0.21809302725E+02  0.26216670327E+04  0.28560016359E+04  0.65864270000E+03 0.  0.
    8880022    1    1    2    0    0 -0.92158638328E+03 -0.21809302725E+02 -0.76173077988E+03  0.12055797533E+04  0.15294330000E+03 0.  0.
<mgrwt>
<rscale>  0 0.10796937E+04</rscale>
<asrwt>0</asrwt>
<pdfrwt beam="1">  1        2 0.45550135E+00 0.11329640E+04</pdfrwt>
<pdfrwt beam="2">  1       -2 0.16935732E+00 0.11329640E+04</pdfrwt>
<totfact> 0.39411374E-01</totfact>
</mgrwt>
</event>
<event>
 4    1  0.2089815E-007  0.1175628E+04  0.7818608E-02  0.9181186E-01
         -2   -1    0    0    0  501 -0.00000000000E+00  0.00000000000E+00  0.17639599073E+04  0.17639599073E+04  0.25500000000E-02 0.  1.
          2   -1    0    0  501    0  0.00000000000E+00 -0.00000000000E+00 -0.78998522188E+03  0.78998522188E+03  0.25500000000E-02 0. -1.
    8880023    1    1    2    0    0  0.71347540537E+03  0.66275414191E+03  0.10676428551E+02  0.11756761455E+04  0.65864270000E+03 0.  0.
    8880022    1    1    2    0    0 -0.71347540537E+03 -0.66275414191E+03  0.96329825689E+03  0.13782689837E+04  0.15294330000E+03 0.  0.
<mgrwt>
<rscale>  0 0.11249750E+04</rscale>
<asrwt>0</asrwt>
<pdfrwt beam="1">  1        2 0.12153619E+00 0.11756277E+04</pdfrwt>
<pdfrwt beam="2">  1       -2 0.27137845E+00 0.11756277E+04</pdfrwt>
<totfact> 0.16330631E+00</totfact>
</mgrwt>
</event>
<event>
 4    1  0.2089815E-007  0.1083486E+04  0.7818608E-02  0.9279668E-01
          2   -1    0    0  501    0  0.00000000000E+00  0.00000000000E+00  0.13789992079E+04  0.13789992079E+04  0.25500000000E-02 0. -1.
         -2   -1    0    0    0  501 -0.00000000000E+00 -0.00000000000E+00 -0.11756668021E+04  0.11756668021E+04  0.25500000000E-02 0.  1.
    8880023    1    1    2    0    0 -0.75226932459E+03  0.41740081287E+03  0.92247445270E+03  0.14229904769E+04  0.65864270000E+03 0.  0.
    8880022    1    1    2    0    0  0.75226932459E+03 -0.41740081287E+03 -0.71914204694E+03  0.11316755330E+04  0.15294330000E+03 0.  0.
<mgrwt>
<rscale>  0 0.10267636E+04</rscale>
<asrwt>0</asrwt>
<pdfrwt beam="1">  1        2 0.21215373E+00 0.10834864E+04</pdfrwt>
<pdfrwt beam="2">  1       -2 0.18087182E+00 0.10834864E+04</pdfrwt>
<totfact> 0.26142195E+00</totfact>
</mgrwt>
</event>
<event>
 4    1  0.2089815E-007  0.8848437E+03  0.7818608E-02  0.9550814E-01
          2   -1    0    0  501    0  0.00000000000E+00  0.00000000000E+00  0.27950744397E+04  0.27950744397E+04  0.25500000000E-02 0. -1.
         -2   -1    0    0    0  501 -0.00000000000E+00 -0.00000000000E+00 -0.75929451388E+03  0.75929451388E+03  0.25500000000E-02 0.  1.
    8880023    1    1    2    0    0  0.47289979291E+03 -0.35426533100E+03  0.25856450712E+04  0.27328572556E+04  0.65864270000E+03 0.  0.
    8880022    1    1    2    0    0 -0.47289979291E+03  0.35426533100E+03 -0.54986514537E+03  0.82151169802E+03  0.15294330000E+03 0.  0.
<mgrwt>
<rscale>  0 0.80638983E+03</rscale>
<asrwt>0</asrwt>
<pdfrwt beam="1">  1        2 0.43001145E+00 0.88484368E+03</pdfrwt>
<pdfrwt beam="2">  1       -2 0.11681454E+00 0.88484368E+03</pdfrwt>
<totfact> 0.13650460E+00</totfact>
</mgrwt>
</event>
<event>
 4    1  0.2089815E-007  0.8899897E+03  0.7818608E-02  0.9542296E-01
          2   -1    0    0  501    0  0.00000000000E+00  0.00000000000E+00  0.18030475314E+04  0.18030475314E+04  0.25500000000E-02 0. -1.
         -2   -1    0    0    0  501 -0.00000000000E+00 -0.00000000000E+00 -0.95017592608E+03  0.95017592609E+03  0.25500000000E-02 0.  1.
    8880023    1    1    2    0    0  0.15273856449E+02  0.59836283344E+03  0.15712122592E+04  0.18057656384E+04  0.65864270000E+03 0. -1.
    8880022    1    1    2    0    0 -0.15273856449E+02 -0.59836283344E+03 -0.71834065381E+03  0.94745781915E+03  0.15294330000E+03 0.  0.
<mgrwt>
<rscale>  0 0.81236037E+03</rscale>
<asrwt>0</asrwt>
<pdfrwt beam="1">  1        2 0.27739192E+00 0.88998965E+03</pdfrwt>
<pdfrwt beam="2">  1       -2 0.14618091E+00 0.88998965E+03</pdfrwt>
<totfact> 0.27855824E+00</totfact>
</mgrwt>
</event>
<event>
 4    1  0.2089815E-007  0.7259331E+03  0.7818608E-02  0.9902999E-01
          2   -1    0    0  501    0  0.00000000000E+00  0.00000000000E+00  0.27035109924E+04  0.27035109924E+04  0.25500000000E-02 0. -1.
         -2   -1    0    0    0  501 -0.00000000000E+00 -0.00000000000E+00 -0.16519128667E+03  0.16519128669E+03  0.25500000000E-02 0.  1.
    8880023    1    1    2    0    0  0.65159887153E+02 -0.29819930006E+03  0.23875743473E+04  0.24954939598E+04  0.65864270000E+03 0. -1.
    8880022    1    1    2    0    0 -0.65159887153E+02  0.29819930006E+03  0.15074535842E+03  0.37320831924E+03  0.15294330000E+03 0.  0.
<mgrwt>
<rscale>  0 0.60116165E+03</rscale>
<asrwt>0</asrwt>
<pdfrwt beam="1">  1        2 0.41592475E+00 0.72593308E+03</pdfrwt>
<pdfrwt beam="2">  1       -2 0.25414045E-01 0.72593308E+03</pdfrwt>
<totfact> 0.38645159E+01</totfact>
</mgrwt>
</event>
<event>
 4    1  0.2089815E-007  0.7401704E+03  0.7818608E-02  0.9859451E-01
          2   -1    0    0  501    0  0.00000000000E+00  0.00000000000E+00  0.37077225650E+04  0.37077225650E+04  0.25500000000E-02 0. -1.
         -2   -1    0    0    0  501 -0.00000000000E+00 -0.00000000000E+00 -0.89418271061E+02  0.89418271097E+02  0.25500000000E-02 0.  1.
    8880023    1    1    2    0    0  0.77687876541E+02 -0.32864367693E+03  0.28428687666E+04  0.29376444820E+04  0.65864270000E+03 0. -1.
    8880022    1    1    2    0    0 -0.77687876541E+02  0.32864367693E+03  0.77543552735E+03  0.85949635405E+03  0.15294330000E+03 0.  1.
<mgrwt>
<rscale>  0 0.62267362E+03</rscale>
<asrwt>0</asrwt>
<pdfrwt beam="1">  1        2 0.57041886E+00 0.74017044E+03</pdfrwt>
<pdfrwt beam="2">  1       -2 0.13756657E-01 0.74017044E+03</pdfrwt>
<totfact> 0.25394701E+01</totfact>
</mgrwt>
</event>
<event>
 4    1  0.2089815E-007  0.1805005E+04  0.7818608E-02  0.8719773E-01
         -2   -1    0    0    0  501 -0.00000000000E+00  0.00000000000E+00  0.15506874399E+04  0.15506874399E+04  0.25500000000E-02 0.  1.
          2   -1    0    0  501    0  0.00000000000E+00 -0.00000000000E+00 -0.30862669904E+04  0.30862669904E+04  0.25500000000E-02 0. -1.
    8880023    1    1    2    0    0 -0.42533850454E+03  0.16258287983E+04 -0.21802942293E+04  0.28304991181E+04  0.65864270000E+03 0.  0.
    8880022    1    1    2    0    0  0.42533850454E+03 -0.16258287983E+04  0.64471467879E+03  0.18064553122E+04  0.15294330000E+03 0.  0.
<mgrwt>
<rscale>  0 0.17748804E+04</rscale>
<asrwt>0</asrwt>
<pdfrwt beam="1">  1        2 0.47481030E+00 0.18050048E+04</pdfrwt>
<pdfrwt beam="2">  1       -2 0.23856730E+00 0.18050048E+04</pdfrwt>
<totfact> 0.10533728E-01</totfact>
</mgrwt>
</event>
<event>
 4    1  0.2089815E-007  0.1161049E+04  0.7818608E-02  0.9195948E-01
         -2   -1    0    0    0  501 -0.00000000000E+00  0.00000000000E+00  0.62427897739E+03  0.62427897740E+03  0.25500000000E-02 0.  1.
          2   -1    0    0  501    0  0.00000000000E+00 -0.00000000000E+00 -0.18936910382E+04  0.18936910382E+04  0.25500000000E-02 0. -1.
    8880023    1    1    2    0    0 -0.81417084307E+03 -0.50134882537E+03 -0.43539174532E+03  0.12400003970E+04  0.65864270000E+03 0.  0.
    8880022    1    1    2    0    0  0.81417084307E+03  0.50134882537E+03 -0.83402031549E+03  0.12779696186E+04  0.15294330000E+03 0.  0.
<mgrwt>
<rscale>  0 0.11095352E+04</rscale>
<asrwt>0</asrwt>
<pdfrwt beam="1">  1        2 0.29133708E+00 0.11610491E+04</pdfrwt>
<pdfrwt beam="2">  1       -2 0.96042921E-01 0.11610491E+04</pdfrwt>
<totfact> 0.68334289E+00</totfact>
</mgrwt>
</event>
<event>
 4    1  0.2089815E-007  0.7037973E+03  0.7818608E-02  0.9981799E-01
         -2   -1    0    0    0  501 -0.00000000000E+00  0.00000000000E+00  0.17472181622E+03  0.17472181624E+03  0.25500000000E-02 0.  1.
          2   -1    0    0  501    0  0.00000000000E+00 -0.00000000000E+00 -0.23699589870E+04  0.23699589870E+04  0.25500000000E-02 0. -1.
    8880023    1    1    2    0    0 -0.24770627230E+03  0.12728825052E+02 -0.21338080835E+04  0.22468795170E+04  0.65864270000E+03 0. -1.
    8880022    1    1    2    0    0  0.24770627230E+03 -0.12728825052E+02 -0.61429087281E+02  0.29780128627E+03  0.15294330000E+03 0.  0.
<mgrwt>
<rscale>  0 0.56455580E+03</rscale>
<asrwt>0</asrwt>
<pdfrwt beam="1">  1        2 0.36460905E+00 0.70379729E+03</pdfrwt>
<pdfrwt beam="2">  1       -2 0.26880281E-01 0.70379729E+03</pdfrwt>
<totfact> 0.54211299E+01</totfact>
</mgrwt>
</event>
<event>
 4    1  0.2089815E-007  0.1198465E+04  0.7818608E-02  0.9158616E-01
          2   -1    0    0  501    0  0.00000000000E+00  0.00000000000E+00  0.18967489047E+04  0.18967489047E+04  0.25500000000E-02 0. -1.
         -2   -1    0    0    0  501 -0.00000000000E+00 -0.00000000000E+00 -0.80600846702E+03  0.80600846702E+03  0.25500000000E-02 0.  1.
    8880023    1    1    2    0    0 -0.10011651355E+04 -0.13297783226E+02  0.11851536794E+04  0.16854993058E+04  0.65864270000E+03 0.  0.
    8880022    1    1    2    0    0  0.10011651355E+04  0.13297783226E+02 -0.94413241701E+02  0.10172580660E+04  0.15294330000E+03 0.  0.
<mgrwt>
<rscale>  0 0.11490983E+04</rscale>
<asrwt>0</asrwt>
<pdfrwt beam="1">  1        2 0.29180752E+00 0.11984651E+04</pdfrwt>
<pdfrwt beam="2">  1       -2 0.12400130E+00 0.11984651E+04</pdfrwt>
<totfact> 0.36389185E+00</totfact>
</mgrwt>
</event>
<event>
 4    1  0.2089815E-007  0.1348784E+04  0.7818608E-02  0.9024536E-01
         -2   -1    0    0    0  501 -0.00000000000E+00  0.00000000000E+00  0.19010229974E+04  0.19010229974E+04  0.25500000000E-02 0.  1.
          2   -1    0    0  501    0  0.00000000000E+00 -0.00000000000E+00 -0.14218319593E+04  0.14218319593E+04  0.25500000000E-02 0. -1.
    8880023    1    1    2    0    0 -0.67044565593E+03  0.96742514536E+03 -0.80773263594E+03  0.15721485321E+04  0.65864270000E+03 0.  0.
    8880022    1    1    2    0    0  0.67044565593E+03 -0.96742514536E+03  0.12869236740E+04  0.17507064246E+04  0.15294330000E+03 0.  0.
<mgrwt>
<rscale>  0 0.13063605E+04</rscale>
<asrwt>0</asrwt>
<pdfrwt beam="1">  1        2 0.21874338E+00 0.13487843E+04</pdfrwt>
<pdfrwt beam="2">  1       -2 0.29246507E+00 0.13487843E+04</pdfrwt>
<totfact> 0.47572455E-01</totfact>
</mgrwt>
</event>
<event>
 4    1  0.2089815E-007  0.7045767E+03  0.7818608E-02  0.9978720E-01
          2   -1    0    0  501    0  0.00000000000E+00  0.00000000000E+00  0.25163318950E+04  0.25163318950E+04  0.25500000000E-02 0. -1.
         -2   -1    0    0    0  501 -0.00000000000E+00 -0.00000000000E+00 -0.26076841900E+03  0.26076841901E+03  0.25500000000E-02 0.  1.
    8880023    1    1    2    0    0 -0.23546151931E+03 -0.84711363652E+02  0.23622013937E+04  0.24650403187E+04  0.65864270000E+03 0. -1.
    8880022    1    1    2    0    0  0.23546151931E+03  0.84711363652E+02 -0.10663791765E+03  0.31205999536E+03  0.15294330000E+03 0.  0.
<mgrwt>
<rscale>  0 0.56593259E+03</rscale>
<asrwt>0</asrwt>
<pdfrwt beam="1">  1        2 0.38712797E+00 0.70457672E+03</pdfrwt>
<pdfrwt beam="2">  1       -2 0.40118220E-01 0.70457672E+03</pdfrwt>
<totfact> 0.21096171E+01</totfact>
</mgrwt>
</event>
<event>
 4    1  0.2089815E-007  0.1420478E+04  0.7818608E-02  0.8967932E-01
         -2   -1    0    0    0  501 -0.00000000000E+00  0.00000000000E+00  0.22761318356E+04  0.22761318356E+04  0.25500000000E-02 0.  1.
          2   -1    0    0  501    0  0.00000000000E+00 -0.00000000000E+00 -0.25682928093E+04  0.25682928093E+04  0.25500000000E-02 0. -1.
    8880023    1    1    2    0    0 -0.65141195543E+03  0.10768525309E+04  0.18637554825E+04  0.23433616054E+04  0.65864270000E+03 0.  0.
    8880022    1    1    2    0    0  0.65141195543E+03 -0.10768525309E+04 -0.21559164562E+04  0.25010630396E+04  0.15294330000E+03 0.  0.
<mgrwt>
<rscale>  0 0.13806687E+04</rscale>
<asrwt>0</asrwt>
<pdfrwt beam="1">  1        2 0.39512197E+00 0.14204785E+04</pdfrwt>
<pdfrwt beam="2">  1       -2 0.35017413E+00 0.14204785E+04</pdfrwt>
<totfact> 0.46881793E-02</totfact>
</mgrwt>
</event>
<event>
 4    1  0.2089815E-007  0.7062343E+03  0.7818608E-02  0.9972260E-01
         -2   -1    0    0    0  501 -0.00000000000E+00  0.00000000000E+00  0.69338583982E+03  0.69338583982E+03  0.25500000000E-02 0.  1.
          2   -1    0    0  501    0  0.00000000000E+00 -0.00000000000E+00 -0.23037833579E+04  0.23037833579E+04  0.25500000000E-02 0. -1.
    8880023    1    1    2    0    0 -0.20779419229E+03 -0.14757438723E+03 -0.22142378338E+04  0.23241376932E+04  0.65864270000E+03 0. -1.
    8880022    1    1    2    0    0  0.20779419229E+03  0.14757438723E+03  0.60384031574E+03  0.67303150449E+03  0.15294330000E+03 0.  0.
<mgrwt>
<rscale>  0 0.56883505E+03</rscale>
<asrwt>0</asrwt>
<pdfrwt beam="1">  1        2 0.35442820E+00 0.70623426E+03</pdfrwt>
<pdfrwt beam="2">  1       -2 0.10667475E+00 0.70623426E+03</pdfrwt>
<totfact> 0.33617691E+00</totfact>
</mgrwt>
</event>
<event>
 4    1  0.2089815E-007  0.8099607E+03  0.7818608E-02  0.9689659E-01
         -2   -1    0    0    0  501 -0.00000000000E+00  0.00000000000E+00  0.73943741745E+03  0.73943741746E+03  0.25500000000E-02 0.  1.
          2   -1    0    0  501    0  0.00000000000E+00 -0.00000000000E+00 -0.12873919415E+04  0.12873919415E+04  0.25500000000E-02 0. -1.
    8880023    1    1    2    0    0  0.25190115815E+03 -0.39846189654E+03 -0.10468545197E+04  0.13236089559E+04  0.65864270000E+03 0. -1.
    8880022    1    1    2    0    0 -0.25190115815E+03  0.39846189654E+03  0.49889999571E+03  0.70322040300E+03  0.15294330000E+03 0.  0.
<mgrwt>
<rscale>  0 0.71635849E+03</rscale>
<asrwt>0</asrwt>
<pdfrwt beam="1">  1        2 0.19806030E+00 0.80996067E+03</pdfrwt>
<pdfrwt beam="2">  1       -2 0.11375960E+00 0.80996067E+03</pdfrwt>
<totfact> 0.10318666E+01</totfact>
</mgrwt>
</event>
<event>
 4    1  0.2089815E-007  0.1247759E+04  0.7818608E-02  0.9112039E-01
         -2   -1    0    0    0  501 -0.00000000000E+00  0.00000000000E+00  0.60048201432E+03  0.60048201433E+03  0.25500000000E-02 0.  1.
          2   -1    0    0  501    0  0.00000000000E+00 -0.00000000000E+00 -0.27226636775E+04  0.27226636775E+04  0.25500000000E-02 0. -1.
    8880023    1    1    2    0    0 -0.14669954937E+03  0.10495581300E+04 -0.18270639977E+04  0.22124796234E+04  0.65864270000E+03 0.  0.
    8880022    1    1    2    0    0  0.14669954937E+03 -0.10495581300E+04 -0.29511766542E+03  0.11106660684E+04  0.15294330000E+03 0.  0.
<mgrwt>
<rscale>  0 0.12009340E+04</rscale>
<asrwt>0</asrwt>
<pdfrwt beam="1">  1        2 0.41887133E+00 0.12477593E+04</pdfrwt>
<pdfrwt beam="2">  1       -2 0.92381850E-01 0.12477593E+04</pdfrwt>
<totfact> 0.25138042E+00</totfact>
</mgrwt>
</event>
<event>
 4    1  0.2089815E-007  0.8963310E+03  0.7818608E-02  0.9531947E-01
         -2   -1    0    0    0  501 -0.00000000000E+00  0.00000000000E+00  0.40048777966E+03  0.40048777967E+03  0.25500000000E-02 0.  1.
          2   -1    0    0  501    0  0.00000000000E+00 -0.00000000000E+00 -0.15202173977E+04  0.15202173977E+04  0.25500000000E-02 0. -1.
    8880023    1    1    2    0    0 -0.20906495299E+03 -0.57086859269E+03 -0.85987425271E+03  0.12420922033E+04  0.65864270000E+03 0.  0.
    8880022    1    1    2    0    0  0.20906495299E+03  0.57086859269E+03 -0.25985536530E+03  0.67861297408E+03  0.15294330000E+03 0.  0.
<mgrwt>
<rscale>  0 0.81968901E+03</rscale>
<asrwt>0</asrwt>
<pdfrwt beam="1">  1        2 0.23387960E+00 0.89633103E+03</pdfrwt>
<pdfrwt beam="2">  1       -2 0.61613505E-01 0.89633103E+03</pdfrwt>
<totfact> 0.30511541E+01</totfact>
</mgrwt>
</event>
<event>
 4    1  0.2089815E-007  0.8327316E+03  0.7818608E-02  0.9644041E-01
          2   -1    0    0  501    0  0.00000000000E+00  0.00000000000E+00  0.23759281127E+04  0.23759281127E+04  0.25500000000E-02 0. -1.
         -2   -1    0    0    0  501 -0.00000000000E+00 -0.00000000000E+00 -0.34008835943E+03  0.34008835943E+03  0.25500000000E-02 0.  1.
    8880023    1    1    2    0    0 -0.49838960120E+03  0.10601639880E+03  0.20187342645E+04  0.21837421799E+04  0.65864270000E+03 0.  0.
    8880022    1    1    2    0    0  0.49838960120E+03 -0.10601639880E+03  0.17105488779E+02  0.53227429222E+03  0.15294330000E+03 0.  0.
<mgrwt>
<rscale>  0 0.74448603E+03</rscale>
<asrwt>0</asrwt>
<pdfrwt beam="1">  1        2 0.36552741E+00 0.83273158E+03</pdfrwt>
<pdfrwt beam="2">  1       -2 0.52321285E-01 0.83273158E+03</pdfrwt>
<totfact> 0.14592149E+01</totfact>
</mgrwt>
</event>
<event>
 4    1  0.2089815E-007  0.7519582E+03  0.7818608E-02  0.9826390E-01
          2   -1    0    0  501    0  0.00000000000E+00  0.00000000000E+00  0.12437392266E+04  0.12437392266E+04  0.25500000000E-02 0. -1.
         -2   -1    0    0    0  501 -0.00000000000E+00 -0.00000000000E+00 -0.11972996313E+04  0.11972996313E+04  0.25500000000E-02 0.  1.
    8880023    1    1    2    0    0  0.34672516965E+03 -0.10682991803E+03  0.10908298390E+04  0.13248965690E+04  0.65864270000E+03 0. -1.
    8880022    1    1    2    0    0 -0.34672516965E+03  0.10682991803E+03 -0.10443902437E+04  0.11161422888E+04  0.15294330000E+03 0.  1.
<mgrwt>
<rscale>  0 0.63965334E+03</rscale>
<asrwt>0</asrwt>
<pdfrwt beam="1">  1        2 0.19134450E+00 0.75195823E+03</pdfrwt>
<pdfrwt beam="2">  1       -2 0.18419994E+00 0.75195823E+03</pdfrwt>
<totfact> 0.31029196E+00</totfact>
</mgrwt>
</event>
<event>
 4    1  0.2089815E-007  0.1456876E+04  0.7818608E-02  0.8940703E-01
         -2   -1    0    0    0  501 -0.00000000000E+00  0.00000000000E+00  0.18355539387E+04  0.18355539387E+04  0.25500000000E-02 0.  1.
          2   -1    0    0  501    0  0.00000000000E+00 -0.00000000000E+00 -0.19410323835E+04  0.19410323835E+04  0.25500000000E-02 0. -1.
    8880023    1    1    2    0    0 -0.13031954914E+03 -0.12929400182E+04 -0.13387164470E+04  0.19785471961E+04  0.65864270000E+03 0.  0.
    8880022    1    1    2    0    0  0.13031954914E+03  0.12929400182E+04  0.12332380022E+04  0.17980391260E+04  0.15294330000E+03 0.  0.
<mgrwt>
<rscale>  0 0.14182639E+04</rscale>
<asrwt>0</asrwt>
<pdfrwt beam="1">  1        2 0.29862037E+00 0.14568759E+04</pdfrwt>
<pdfrwt beam="2">  1       -2 0.28239291E+00 0.14568759E+04</pdfrwt>
<totfact> 0.27656632E-01</totfact>
</mgrwt>
</event>
<event>
 4    1  0.2089815E-007  0.7815885E+03  0.7818608E-02  0.9752119E-01
          2   -1    0    0  501    0  0.00000000000E+00  0.00000000000E+00  0.87041222087E+03  0.87041222087E+03  0.25500000000E-02 0. -1.
         -2   -1    0    0    0  501 -0.00000000000E+00 -0.00000000000E+00 -0.16112234310E+04  0.16112234310E+04  0.25500000000E-02 0.  1.
    8880023    1    1    2    0    0 -0.22595230169E+03  0.35498727696E+03  0.65250029249E+03  0.10181538427E+04  0.65864270000E+03 0. -1.
    8880022    1    1    2    0    0  0.22595230169E+03 -0.35498727696E+03 -0.13933115027E+04  0.14634818092E+04  0.15294330000E+03 0.  0.
<mgrwt>
<rscale>  0 0.67996671E+03</rscale>
<asrwt>0</asrwt>
<pdfrwt beam="1">  1        2 0.13390957E+00 0.78158852E+03</pdfrwt>
<pdfrwt beam="2">  1       -2 0.24788053E+00 0.78158852E+03</pdfrwt>
<totfact> 0.20890114E+00</totfact>
</mgrwt>
</event>
<event>
 4    1  0.2089815E-007  0.1206958E+04  0.7818608E-02  0.9150388E-01
         -2   -1    0    0    0  501 -0.00000000000E+00  0.00000000000E+00  0.35628777577E+03  0.35628777578E+03  0.25500000000E-02 0.  1.
          2   -1    0    0  501    0  0.00000000000E+00 -0.00000000000E+00 -0.38437069123E+04  0.38437069123E+04  0.25500000000E-02 0. -1.
    8880023    1    1    2    0    0 -0.30229570162E+03 -0.96517128673E+03 -0.25103611538E+04  0.27854374221E+04  0.65864270000E+03 0.  0.
    8880022    1    1    2    0    0  0.30229570162E+03  0.96517128673E+03 -0.97705798275E+03  0.14145572659E+04  0.15294330000E+03 0.  0.
<mgrwt>
<rscale>  0 0.11580513E+04</rscale>
<asrwt>0</asrwt>
<pdfrwt beam="1">  1        2 0.59133950E+00 0.12069584E+04</pdfrwt>
<pdfrwt beam="2">  1       -2 0.54813506E-01 0.12069584E+04</pdfrwt>
<totfact> 0.14449058E+00</totfact>
</mgrwt>
</event>
<event>
 4    1  0.2089815E-007  0.7815883E+03  0.7818608E-02  0.9752119E-01
         -2   -1    0    0    0  501 -0.00000000000E+00  0.00000000000E+00  0.24133975803E+03  0.24133975805E+03  0.25500000000E-02 0.  1.
          2   -1    0    0  501    0  0.00000000000E+00 -0.00000000000E+00 -0.17220459685E+04  0.17220459685E+04  0.25500000000E-02 0. -1.
    8880023    1    1    2    0    0 -0.18431530263E+03 -0.37828282746E+03 -0.12090725617E+04  0.14397002098E+04  0.65864270000E+03 0.  0.
    8880022    1    1    2    0    0  0.18431530263E+03  0.37828282746E+03 -0.27163364882E+03  0.52368551681E+03  0.15294330000E+03 0.  0.
<mgrwt>
<rscale>  0 0.67996639E+03</rscale>
<asrwt>0</asrwt>
<pdfrwt beam="1">  1        2 0.26493014E+00 0.78158828E+03</pdfrwt>
<pdfrwt beam="2">  1       -2 0.37129195E-01 0.78158828E+03</pdfrwt>
<totfact> 0.66506255E+01</totfact>
</mgrwt>
</event>
<event>
 4    1  0.2089815E-007  0.7422321E+03  0.7818608E-02  0.9853492E-01
          2   -1    0    0  501    0  0.00000000000E+00  0.00000000000E+00  0.27210917567E+03  0.27210917568E+03  0.25500000000E-02 0. -1.
         -2   -1    0    0    0  501 -0.00000000000E+00 -0.00000000000E+00 -0.13475963052E+04  0.13475963052E+04  0.25500000000E-02 0.  1.
    8880023    1    1    2    0    0  0.27584781610E+03 -0.20249988065E+03 -0.39004919900E+03  0.83847886271E+03  0.65864270000E+03 0.  0.
    8880022    1    1    2    0    0 -0.27584781610E+03  0.20249988065E+03 -0.68543793055E+03  0.78122661819E+03  0.15294330000E+03 0.  0.
<mgrwt>
<rscale>  0 0.62569172E+03</rscale>
<asrwt>0</asrwt>
<pdfrwt beam="1">  1        2 0.41862951E-01 0.74223206E+03</pdfrwt>
<pdfrwt beam="2">  1       -2 0.20732250E+00 0.74223206E+03</pdfrwt>
<totfact> 0.14864496E+01</totfact>
</mgrwt>
</event>
<event>
 4    1  0.2089815E-007  0.8634964E+03  0.7818608E-02  0.9587374E-01
         -2   -1    0    0    0  501 -0.00000000000E+00  0.00000000000E+00  0.18552623499E+03  0.18552623501E+03  0.25500000000E-02 0.  1.
          2   -1    0    0  501    0  0.00000000000E+00 -0.00000000000E+00 -0.31605753986E+04  0.31605753986E+04  0.25500000000E-02 0. -1.
    8880023    1    1    2    0    0  0.28071314756E+03  0.48271729199E+03 -0.11954875293E+04  0.14747259048E+04  0.65864270000E+03 0.  0.
    8880022    1    1    2    0    0 -0.28071314756E+03 -0.48271729199E+03 -0.17795616343E+04  0.18713757288E+04  0.15294330000E+03 0.  0.
<mgrwt>
<rscale>  0 0.78137520E+03</rscale>
<asrwt>0</asrwt>
<pdfrwt beam="1">  1        2 0.48624233E+00 0.86349642E+03</pdfrwt>
<pdfrwt beam="2">  1       -2 0.28542500E-01 0.86349642E+03</pdfrwt>
<totfact> 0.16182251E+01</totfact>
</mgrwt>
</event>
<event>
 4    1  0.2089815E-007  0.1396218E+04  0.7818608E-02  0.8986627E-01
         -2   -1    0    0    0  501 -0.00000000000E+00  0.00000000000E+00  0.21722192399E+04  0.21722192399E+04  0.25500000000E-02 0.  1.
          2   -1    0    0  501    0  0.00000000000E+00 -0.00000000000E+00 -0.11304036808E+04  0.11304036808E+04  0.25500000000E-02 0. -1.
    8880023    1    1    2    0    0  0.95915651618E+03 -0.77177352613E+03 -0.34874496466E+03  0.14391139131E+04  0.65864270000E+03 0.  0.
    8880022    1    1    2    0    0 -0.95915651618E+03  0.77177352613E+03  0.13905605238E+04  0.18635090076E+04  0.15294330000E+03 0.  0.
<mgrwt>
<rscale>  0 0.13555642E+04</rscale>
<asrwt>0</asrwt>
<pdfrwt beam="1">  1        2 0.17390826E+00 0.13962184E+04</pdfrwt>
<pdfrwt beam="2">  1       -2 0.33418757E+00 0.13962184E+04</pdfrwt>
<totfact> 0.39051161E-01</totfact>
</mgrwt>
</event>
<event>
 4    1  0.2089815E-007  0.6641771E+03  0.7818608E-02  0.1020234E+00
          2   -1    0    0  501    0  0.00000000000E+00  0.00000000000E+00  0.17747866114E+04  0.17747866114E+04  0.25500000000E-02 0. -1.
         -2   -1    0    0    0  501 -0.00000000000E+00 -0.00000000000E+00 -0.31627231912E+03  0.31627231913E+03  0.25500000000E-02 0.  1.
    8880023    1    1    2    0    0  0.47186485153E+02  0.71375268784E+02  0.16812250508E+04  0.18076639265E+04  0.65864270000E+03 0. -1.
    8880022    1    1    2    0    0 -0.47186485153E+02 -0.71375268784E+02 -0.22271075849E+03  0.28339500408E+03  0.15294330000E+03 0.  0.
<mgrwt>
<rscale>  0 0.47602260E+03</rscale>
<asrwt>0</asrwt>
<pdfrwt beam="1">  1        2 0.27304410E+00 0.66417708E+03</pdfrwt>
<pdfrwt beam="2">  1       -2 0.48657279E-01 0.66417708E+03</pdfrwt>
<totfact> 0.37026430E+01</totfact>
</mgrwt>
</event>
<event>
 4    1  0.2089815E-007  0.6761785E+03  0.7818608E-02  0.1011573E+00
          2   -1    0    0  501    0  0.00000000000E+00  0.00000000000E+00  0.45202562959E+03  0.45202562960E+03  0.25500000000E-02 0. -1.
         -2   -1    0    0    0  501 -0.00000000000E+00 -0.00000000000E+00 -0.16157464266E+04  0.16157464266E+04  0.25500000000E-02 0.  1.
    8880023    1    1    2    0    0 -0.14595307795E+03 -0.45879176711E+02  0.18562519314E+03  0.70119477922E+03  0.65864270000E+03 0. -1.
    8880022    1    1    2    0    0  0.14595307795E+03  0.45879176711E+02 -0.13493459901E+04  0.13665772770E+04  0.15294330000E+03 0.  0.
<mgrwt>
<rscale>  0 0.50854037E+03</rscale>
<asrwt>0</asrwt>
<pdfrwt beam="1">  1        2 0.69542405E-01 0.67617853E+03</pdfrwt>
<pdfrwt beam="2">  1       -2 0.24857637E+00 0.67617853E+03</pdfrwt>
<totfact> 0.47132693E+00</totfact>
</mgrwt>
</event>
<event>
 4    1  0.2089815E-007  0.1031248E+04  0.7818608E-02  0.9341771E-01
          2   -1    0    0  501    0  0.00000000000E+00  0.00000000000E+00  0.16236820098E+04  0.16236820098E+04  0.25500000000E-02 0. -1.
         -2   -1    0    0    0  501 -0.00000000000E+00 -0.00000000000E+00 -0.54844875917E+03  0.54844875918E+03  0.25500000000E-02 0.  1.
    8880023    1    1    2    0    0 -0.15544651704E+02  0.79336004304E+03  0.84115636327E+03  0.13307952614E+04  0.65864270000E+03 0. -1.
    8880022    1    1    2    0    0  0.15544651704E+02 -0.79336004304E+03  0.23407688739E+03  0.84133550758E+03  0.15294330000E+03 0.  0.
<mgrwt>
<rscale>  0 0.97026611E+03</rscale>
<asrwt>0</asrwt>
<pdfrwt beam="1">  1        2 0.24979723E+00 0.10312478E+04</pdfrwt>
<pdfrwt beam="2">  1       -2 0.84376734E-01 0.10312478E+04</pdfrwt>
<totfact> 0.13182485E+01</totfact>
</mgrwt>
</event>
<event>
 4    1  0.2089815E-007  0.6967099E+03  0.7818608E-02  0.1001113E+00
          2   -1    0    0  501    0  0.00000000000E+00  0.00000000000E+00  0.28228271685E+04  0.28228271685E+04  0.25500000000E-02 0. -1.
         -2   -1    0    0    0  501 -0.00000000000E+00 -0.00000000000E+00 -0.22606739236E+03  0.22606739238E+03  0.25500000000E-02 0.  1.
    8880023    1    1    2    0    0  0.17955457622E+03  0.13912079558E+03  0.26748867461E+04  0.27641316453E+04  0.65864270000E+03 0. -1.
    8880022    1    1    2    0    0 -0.17955457622E+03 -0.13912079558E+03 -0.78126970036E+02  0.28476291554E+03  0.15294330000E+03 0.  0.
<mgrwt>
<rscale>  0 0.55164739E+03</rscale>
<asrwt>0</asrwt>
<pdfrwt beam="1">  1        2 0.43428108E+00 0.69670987E+03</pdfrwt>
<pdfrwt beam="2">  1       -2 0.34779601E-01 0.69670987E+03</pdfrwt>
<totfact> 0.18481699E+01</totfact>
</mgrwt>
</event>
<event>
 4    1  0.2089815E-007  0.1649878E+04  0.7818608E-02  0.8810466E-01
         -2   -1    0    0    0  501 -0.00000000000E+00  0.00000000000E+00  0.12859768615E+04  0.12859768615E+04  0.25500000000E-02 0.  1.
          2   -1    0    0  501    0  0.00000000000E+00 -0.00000000000E+00 -0.50381210493E+04  0.50381210493E+04  0.25500000000E-02 0. -1.
    8880023    1    1    2    0    0 -0.12445334492E+04  0.85989832332E+03 -0.43790154464E+04  0.46795165476E+04  0.65864270000E+03 0.  0.
    8880022    1    1    2    0    0  0.12445334492E+04 -0.85989832332E+03  0.62687125860E+03  0.16445813633E+04  0.15294330000E+03 0.  0.
<mgrwt>
<rscale>  0 0.16165157E+04</rscale>
<asrwt>0</asrwt>
<pdfrwt beam="1">  1        2 0.77509554E+00 0.16498784E+04</pdfrwt>
<pdfrwt beam="2">  1       -2 0.19784260E+00 0.16498784E+04</pdfrwt>
<totfact> 0.40330345E-03</totfact>
</mgrwt>
</event>
<event>
 4    1  0.2089815E-007  0.1082831E+04  0.7818608E-02  0.9280417E-01
         -2   -1    0    0    0  501 -0.00000000000E+00  0.00000000000E+00  0.23561090773E+04  0.23561090773E+04  0.25500000000E-02 0.  1.
          2   -1    0    0  501    0  0.00000000000E+00 -0.00000000000E+00 -0.45529375282E+03  0.45529375283E+03  0.25500000000E-02 0. -1.
    8880023    1    1    2    0    0 -0.73235605351E+03  0.44985274954E+03  0.15020119650E+04  0.18516379329E+04  0.65864270000E+03 0.  1.
    8880022    1    1    2    0    0  0.73235605351E+03 -0.44985274954E+03  0.39880335950E+03  0.95976489722E+03  0.15294330000E+03 0.  0.
<mgrwt>
<rscale>  0 0.10260590E+04</rscale>
<asrwt>0</asrwt>
<pdfrwt beam="1">  1        2 0.70045193E-01 0.10828311E+04</pdfrwt>
<pdfrwt beam="2">  1       -2 0.36247832E+00 0.10828311E+04</pdfrwt>
<totfact> 0.89544130E-01</totfact>
</mgrwt>
</event>
<event>
 4    1  0.2089815E-007  0.9839403E+03  0.7818608E-02  0.9402877E-01
          2   -1    0    0  501    0  0.00000000000E+00  0.00000000000E+00  0.15192736760E+04  0.15192736760E+04  0.25500000000E-02 0. -1.
         -2   -1    0    0    0  501 -0.00000000000E+00 -0.00000000000E+00 -0.19962242691E+04  0.19962242691E+04  0.25500000000E-02 0.  1.
    8880023    1    1    2    0    0  0.69708098972E+03  0.22001474903E+03  0.12752918747E+04  0.16107476426E+04  0.65864270000E+03 0.  0.
    8880022    1    1    2    0    0 -0.69708098972E+03 -0.22001474903E+03 -0.17522424678E+04  0.19047503026E+04  0.15294330000E+03 0.  0.
<mgrwt>
<rscale>  0 0.91839309E+03</rscale>
<asrwt>0</asrwt>
<pdfrwt beam="1">  1        2 0.23373441E+00 0.98394034E+03</pdfrwt>
<pdfrwt beam="2">  1       -2 0.30711143E+00 0.98394034E+03</pdfrwt>
<totfact> 0.35918489E-01</totfact>
</mgrwt>
</event>
<event>
 4    1  0.2089815E-007  0.6734222E+03  0.7818608E-02  0.1013320E+00
         -2   -1    0    0    0  501 -0.00000000000E+00  0.00000000000E+00  0.12776440486E+03  0.12776440489E+03  0.25500000000E-02 0.  1.
          2   -1    0    0  501    0  0.00000000000E+00 -0.00000000000E+00 -0.26265368264E+04  0.26265368264E+04  0.25500000000E-02 0. -1.
    8880023    1    1    2    0    0 -0.10057587697E+03 -0.97835481318E+02 -0.24503092173E+04  0.25411636616E+04  0.65864270000E+03 0. -1.
    8880022    1    1    2    0    0  0.10057587697E+03  0.97835481318E+02 -0.48463204252E+02  0.21313756969E+03  0.15294330000E+03 0.  0.
<mgrwt>
<rscale>  0 0.50176309E+03</rscale>
<asrwt>0</asrwt>
<pdfrwt beam="1">  1        2 0.40408255E+00 0.67342223E+03</pdfrwt>
<pdfrwt beam="2">  1       -2 0.19656064E-01 0.67342223E+03</pdfrwt>
<totfact> 0.68069880E+01</totfact>
</mgrwt>
</event>
<event>
 4    1  0.2089815E-007  0.1057934E+04  0.7818608E-02  0.9309404E-01
         -2   -1    0    0    0  501 -0.00000000000E+00  0.00000000000E+00  0.76665945445E+03  0.76665945445E+03  0.25500000000E-02 0.  1.
          2   -1    0    0  501    0  0.00000000000E+00 -0.00000000000E+00 -0.22939685661E+04  0.22939685661E+04  0.25500000000E-02 0. -1.
    8880023    1    1    2    0    0 -0.80097033077E+03 -0.20943046376E+03 -0.18725081182E+04  0.21507002229E+04  0.65864270000E+03 0.  0.
    8880022    1    1    2    0    0  0.80097033077E+03  0.20943046376E+03  0.34519900648E+03  0.90992779769E+03  0.15294330000E+03 0.  0.
<mgrwt>
<rscale>  0 0.99921728E+03</rscale>
<asrwt>0</asrwt>
<pdfrwt beam="1">  1        2 0.35291824E+00 0.10579342E+04</pdfrwt>
<pdfrwt beam="2">  1       -2 0.11794761E+00 0.10579342E+04</pdfrwt>
<totfact> 0.25217019E+00</totfact>
</mgrwt>
</event>
<event>
 4    1  0.2089815E-007  0.6874832E+03  0.7818608E-02  0.1005372E+00
         -2   -1    0    0    0  501 -0.00000000000E+00  0.00000000000E+00  0.81939920994E+03  0.81939920994E+03  0.25500000000E-02 0.  1.
          2   -1    0    0  501    0  0.00000000000E+00 -0.00000000000E+00 -0.74533400688E+03  0.74533400689E+03  0.25500000000E-02 0. -1.
    8880023    1    1    2    0    0 -0.13674147259E+03  0.14186173066E+03 -0.55786955853E+03  0.88535395834E+03  0.65864270000E+03 0. -1.
    8880022    1    1    2    0    0  0.13674147259E+03 -0.14186173066E+03  0.63193476158E+03  0.67937925849E+03  0.15294330000E+03 0.  0.
<mgrwt>
<rscale>  0 0.53355986E+03</rscale>
<asrwt>0</asrwt>
<pdfrwt beam="1">  1        2 0.11466677E+00 0.68748323E+03</pdfrwt>
<pdfrwt beam="2">  1       -2 0.12606142E+00 0.68748323E+03</pdfrwt>
<totfact> 0.18115692E+01</totfact>
</mgrwt>
</event>
<event>
 4    1  0.2089815E-007  0.7470259E+03  0.7818608E-02  0.9839934E-01
          2   -1    0    0  501    0  0.00000000000E+00  0.00000000000E+00  0.46703866715E+04  0.46703866715E+04  0.25500000000E-02 0. -1.
         -2   -1    0    0    0  501 -0.00000000000E+00 -0.00000000000E+00 -0.87337039641E+02  0.87337039678E+02  0.25500000000E-02 0.  1.
    8880023    1    1    2    0    0  0.22809750114E+03  0.26871735162E+03  0.39271627026E+04  0.39975810916E+04  0.65864270000E+03 0. -1.
    8880022    1    1    2    0    0 -0.22809750114E+03 -0.26871735162E+03  0.65588692925E+03  0.76014261955E+03  0.15294330000E+03 0.  0.
<mgrwt>
<rscale>  0 0.63262777E+03</rscale>
<asrwt>0</asrwt>
<pdfrwt beam="1">  1        2 0.71852093E+00 0.74702590E+03</pdfrwt>
<pdfrwt beam="2">  1       -2 0.13436469E-01 0.74702590E+03</pdfrwt>
<totfact> 0.39837025E+00</totfact>
</mgrwt>
</event>
<event>
 4    1  0.2089815E-007  0.1424642E+04  0.7818608E-02  0.8964768E-01
          2   -1    0    0  501    0  0.00000000000E+00  0.00000000000E+00  0.22002285869E+04  0.22002285869E+04  0.25500000000E-02 0. -1.
         -2   -1    0    0    0  501 -0.00000000000E+00 -0.00000000000E+00 -0.13942993475E+04  0.13942993475E+04  0.25500000000E-02 0.  1.
    8880023    1    1    2    0    0 -0.36402106324E+03  0.12096620156E+04  0.15622212051E+04  0.21142702823E+04  0.65864270000E+03 0.  0.
    8880022    1    1    2    0    0  0.36402106324E+03 -0.12096620156E+04 -0.75629196571E+03  0.14802576522E+04  0.15294330000E+03 0.  0.
<mgrwt>
<rscale>  0 0.13849729E+04</rscale>
<asrwt>0</asrwt>
<pdfrwt beam="1">  1        2 0.33849671E+00 0.14246416E+04</pdfrwt>
<pdfrwt beam="2">  1       -2 0.21450759E+00 0.14246416E+04</pdfrwt>
<totfact> 0.52325641E-01</totfact>
</mgrwt>
</event>
<event>
 4    1  0.2089815E-007  0.6589067E+03  0.7818608E-02  0.1025306E+00
          2   -1    0    0  501    0  0.00000000000E+00  0.00000000000E+00  0.92273485857E+03  0.92273485857E+03  0.25500000000E-02 0. -1.
         -2   -1    0    0    0  501 -0.00000000000E+00 -0.00000000000E+00 -0.70663040087E+03  0.70663040088E+03  0.25500000000E-02 0.  1.
    8880023    1    1    2    0    0  0.56889376741E+01 -0.17761426602E+02  0.79370677079E+03  0.10315660311E+04  0.65864270000E+03 0. -1.
    8880022    1    1    2    0    0 -0.56889376741E+01  0.17761426602E+02 -0.57760231310E+03  0.59779922833E+03  0.15294330000E+03 0.  0.
<mgrwt>
<rscale>  0 0.45819659E+03</rscale>
<asrwt>0</asrwt>
<pdfrwt beam="1">  1        2 0.14195921E+00 0.65890670E+03</pdfrwt>
<pdfrwt beam="2">  1       -2 0.10871237E+00 0.65890670E+03</pdfrwt>
<totfact> 0.19631081E+01</totfact>
</mgrwt>
</event>
<event>
 4    1  0.2089815E-007  0.1633372E+04  0.7818608E-02  0.8820781E-01
          2   -1    0    0  501    0  0.00000000000E+00  0.00000000000E+00  0.19230790480E+04  0.19230790480E+04  0.25500000000E-02 0. -1.
         -2   -1    0    0    0  501 -0.00000000000E+00 -0.00000000000E+00 -0.18481019512E+04  0.18481019512E+04  0.25500000000E-02 0.  1.
    8880023    1    1    2    0    0  0.36005226205E+03  0.14506742355E+04  0.10848722971E+04  0.19608292827E+04  0.65864270000E+03 0.  0.
    8880022    1    1    2    0    0 -0.36005226205E+03 -0.14506742355E+04 -0.10098952003E+04  0.18103517165E+04  0.15294330000E+03 0.  0.
<mgrwt>
<rscale>  0 0.15996203E+04</rscale>
<asrwt>0</asrwt>
<pdfrwt beam="1">  1        2 0.29585831E+00 0.16333718E+04</pdfrwt>
<pdfrwt beam="2">  1       -2 0.28432338E+00 0.16333718E+04</pdfrwt>
<totfact> 0.27007090E-01</totfact>
</mgrwt>
</event>
<event>
 4    1  0.2089815E-007  0.6983833E+03  0.7818608E-02  0.1000398E+00
          2   -1    0    0  501    0  0.00000000000E+00  0.00000000000E+00  0.68319984565E+03  0.68319984566E+03  0.25500000000E-02 0. -1.
         -2   -1    0    0    0  501 -0.00000000000E+00 -0.00000000000E+00 -0.63019380522E+03  0.63019380522E+03  0.25500000000E-02 0.  1.
    8880023    1    1    2    0    0  0.20056611854E+03 -0.11705637910E+03  0.44845304395E+03  0.82996945889E+03  0.65864270000E+03 0.  0.
    8880022    1    1    2    0    0 -0.20056611854E+03  0.11705637910E+03 -0.39544700352E+03  0.48342419199E+03  0.15294330000E+03 0.  0.
<mgrwt>
<rscale>  0 0.55476273E+03</rscale>
<asrwt>0</asrwt>
<pdfrwt beam="1">  1        2 0.10510767E+00 0.69838325E+03</pdfrwt>
<pdfrwt beam="2">  1       -2 0.96952892E-01 0.69838325E+03</pdfrwt>
<totfact> 0.38195784E+01</totfact>
</mgrwt>
</event>
<event>
 4    1  0.2089815E-007  0.7039487E+03  0.7818608E-02  0.9981199E-01
         -2   -1    0    0    0  501 -0.00000000000E+00  0.00000000000E+00  0.56513571065E+03  0.56513571065E+03  0.25500000000E-02 0.  1.
          2   -1    0    0  501    0  0.00000000000E+00 -0.00000000000E+00 -0.15706075309E+04  0.15706075309E+04  0.25500000000E-02 0. -1.
    8880023    1    1    2    0    0 -0.89754823819E+02  0.23168430201E+03 -0.14454870534E+04  0.16077862333E+04  0.65864270000E+03 0. -1.
    8880022    1    1    2    0    0  0.89754823819E+02 -0.23168430201E+03  0.44001523312E+03  0.52795700828E+03  0.15294330000E+03 0.  0.
<mgrwt>
<rscale>  0 0.56482384E+03</rscale>
<asrwt>0</asrwt>
<pdfrwt beam="1">  1        2 0.24163193E+00 0.70394868E+03</pdfrwt>
<pdfrwt beam="2">  1       -2 0.86943956E-01 0.70394868E+03</pdfrwt>
<totfact> 0.13680096E+01</totfact>
</mgrwt>
</event>
<event>
 4    1  0.2089815E-007  0.9111825E+03  0.7818608E-02  0.9508313E-01
          2   -1    0    0  501    0  0.00000000000E+00  0.00000000000E+00  0.24115859686E+04  0.24115859686E+04  0.25500000000E-02 0. -1.
         -2   -1    0    0    0  501 -0.00000000000E+00 -0.00000000000E+00 -0.45879052891E+03  0.45879052891E+03  0.25500000000E-02 0.  1.
    8880023    1    1    2    0    0  0.62521208210E+03  0.74520125857E+02  0.20229048808E+04  0.22186477323E+04  0.65864270000E+03 0. -1.
    8880022    1    1    2    0    0 -0.62521208210E+03 -0.74520125857E+02 -0.70109441086E+02  0.65172876529E+03  0.15294330000E+03 0.  0.
<mgrwt>
<rscale>  0 0.83673681E+03</rscale>
<asrwt>0</asrwt>
<pdfrwt beam="1">  1        2 0.37101323E+00 0.91118253E+03</pdfrwt>
<pdfrwt beam="2">  1       -2 0.70583157E-01 0.91118253E+03</pdfrwt>
<totfact> 0.72986780E+00</totfact>
</mgrwt>
</event>
<event>
 4    1  0.2089815E-007  0.1098086E+04  0.7818608E-02  0.9263190E-01
          2   -1    0    0  501    0  0.00000000000E+00  0.00000000000E+00  0.14654787336E+04  0.14654787336E+04  0.25500000000E-02 0. -1.
         -2   -1    0    0    0  501 -0.00000000000E+00 -0.00000000000E+00 -0.81516277807E+03  0.81516277807E+03  0.25500000000E-02 0.  1.
    8880023    1    1    2    0    0  0.87566724312E+03  0.72034307536E+02  0.82296358470E+03  0.13722468182E+04  0.65864270000E+03 0.  0.
    8880022    1    1    2    0    0 -0.87566724312E+03 -0.72034307536E+02 -0.17264762920E+03  0.90839469341E+03  0.15294330000E+03 0.  0.
<mgrwt>
<rscale>  0 0.10424341E+04</rscale>
<asrwt>0</asrwt>
<pdfrwt beam="1">  1        2 0.22545826E+00 0.10980857E+04</pdfrwt>
<pdfrwt beam="2">  1       -2 0.12540966E+00 0.10980857E+04</pdfrwt>
<totfact> 0.62112940E+00</totfact>
</mgrwt>
</event>
<event>
 4    1  0.2089815E-007  0.8722045E+03  0.7818608E-02  0.9572212E-01
         -2   -1    0    0    0  501 -0.00000000000E+00  0.00000000000E+00  0.11283053178E+04  0.11283053178E+04  0.25500000000E-02 0.  1.
          2   -1    0    0  501    0  0.00000000000E+00 -0.00000000000E+00 -0.10078671870E+04  0.10078671870E+04  0.25500000000E-02 0. -1.
    8880023    1    1    2    0    0  0.44559355971E+03  0.35829715734E+03 -0.70427777208E+03  0.11210476618E+04  0.65864270000E+03 0.  0.
    8880022    1    1    2    0    0 -0.44559355971E+03 -0.35829715734E+03  0.82471590291E+03  0.10151248430E+04  0.15294330000E+03 0.  1.
<mgrwt>
<rscale>  0 0.79162989E+03</rscale>
<asrwt>0</asrwt>
<pdfrwt beam="1">  1        2 0.15505649E+00 0.87220449E+03</pdfrwt>
<pdfrwt beam="2">  1       -2 0.17358543E+00 0.87220449E+03</pdfrwt>
<totfact> 0.50305499E+00</totfact>
</mgrwt>
</event>
<event>
 4    1  0.2089815E-007  0.7614461E+03  0.7818608E-02  0.9801378E-01
          2   -1    0    0  501    0  0.00000000000E+00  0.00000000000E+00  0.15897623820E+04  0.15897623820E+04  0.25500000000E-02 0. -1.
         -2   -1    0    0    0  501 -0.00000000000E+00 -0.00000000000E+00 -0.88321395751E+03  0.88321395751E+03  0.25500000000E-02 0.  1.
    8880023    1    1    2    0    0  0.37924808713E+03  0.46484251278E+02  0.14417190825E+04  0.16304459563E+04  0.65864270000E+03 0. -1.
    8880022    1    1    2    0    0 -0.37924808713E+03 -0.46484251278E+02 -0.73517065803E+03  0.84253038322E+03  0.15294330000E+03 0.  0.
<mgrwt>
<rscale>  0 0.65288640E+03</rscale>
<asrwt>0</asrwt>
<pdfrwt beam="1">  1        2 0.24457883E+00 0.76144606E+03</pdfrwt>
<pdfrwt beam="2">  1       -2 0.13587907E+00 0.76144606E+03</pdfrwt>
<totfact> 0.44974162E+00</totfact>
</mgrwt>
</event>
<event>
 4    1  0.2089815E-007  0.6650410E+03  0.7818608E-02  0.1019499E+00
         -2   -1    0    0    0  501 -0.00000000000E+00  0.00000000000E+00  0.20814052967E+03  0.20814052968E+03  0.25500000000E-02 0.  1.
          2   -1    0    0  501    0  0.00000000000E+00 -0.00000000000E+00 -0.12713302025E+04  0.12713302025E+04  0.25500000000E-02 0. -1.
    8880023    1    1    2    0    0  0.28223193924E+02 -0.87594144677E+02 -0.11108622509E+04  0.12947178958E+04  0.65864270000E+03 0. -1.
    8880022    1    1    2    0    0 -0.28223193924E+02  0.87594144677E+02  0.47672578065E+02  0.18475283644E+03  0.15294330000E+03 0.  0.
<mgrwt>
<rscale>  0 0.47867816E+03</rscale>
<asrwt>0</asrwt>
<pdfrwt beam="1">  1        2 0.19558926E+00 0.66504097E+03</pdfrwt>
<pdfrwt beam="2">  1       -2 0.32021621E-01 0.66504097E+03</pdfrwt>
<totfact> 0.15898384E+02</totfact>
</mgrwt>
</event>
<event>
 4    1  0.2089815E-007  0.1032162E+04  0.7818608E-02  0.9340639E-01
         -2   -1    0    0    0  501 -0.00000000000E+00  0.00000000000E+00  0.16657344371E+04  0.16657344371E+04  0.25500000000E-02 0.  1.
          2   -1    0    0  501    0  0.00000000000E+00 -0.00000000000E+00 -0.41767199247E+04  0.41767199247E+04  0.25500000000E-02 0. -1.
    8880023    1    1    2    0    0  0.15450491570E+02 -0.79454952583E+03 -0.40090401739E+04  0.41397778913E+04  0.65864270000E+03 0. -1.
    8880022    1    1    2    0    0 -0.15450491570E+02  0.79454952583E+03  0.14980546864E+04  0.17026764705E+04  0.15294330000E+03 0.  0.
<mgrwt>
<rscale>  0 0.97126101E+03</rscale>
<asrwt>0</asrwt>
<pdfrwt beam="1">  1        2 0.64257229E+00 0.10321617E+04</pdfrwt>
<pdfrwt beam="2">  1       -2 0.25626684E+00 0.10321617E+04</pdfrwt>
<totfact> 0.15086015E-02</totfact>
</mgrwt>
</event>
<event>
 4    1  0.2089815E-007  0.9676535E+03  0.7818608E-02  0.9425157E-01
         -2   -1    0    0    0  501 -0.00000000000E+00  0.00000000000E+00  0.84511667790E+03  0.84511667791E+03  0.25500000000E-02 0.  1.
          2   -1    0    0  501    0  0.00000000000E+00 -0.00000000000E+00 -0.29204275606E+04  0.29204275606E+04  0.25500000000E-02 0. -1.
    8880023    1    1    2    0    0  0.29510633269E+03  0.64455831390E+03 -0.26621994196E+04  0.28326064188E+04  0.65864270000E+03 0.  0.
    8880022    1    1    2    0    0 -0.29510633269E+03 -0.64455831390E+03  0.58688853695E+03  0.93293781970E+03  0.15294330000E+03 0.  0.
<mgrwt>
<rscale>  0 0.90033972E+03</rscale>
<asrwt>0</asrwt>
<pdfrwt beam="1">  1        2 0.44929654E+00 0.96765354E+03</pdfrwt>
<pdfrwt beam="2">  1       -2 0.13001795E+00 0.96765354E+03</pdfrwt>
<totfact> 0.86519321E-01</totfact>
</mgrwt>
</event>
<event>
 4    1  0.2089815E-007  0.7320988E+03  0.7818608E-02  0.9883591E-01
         -2   -1    0    0    0  501 -0.00000000000E+00  0.00000000000E+00  0.14735081446E+04  0.14735081446E+04  0.25500000000E-02 0.  1.
          2   -1    0    0  501    0  0.00000000000E+00 -0.00000000000E+00 -0.59036911468E+03  0.59036911468E+03  0.25500000000E-02 0. -1.
    8880023    1    1    2    0    0  0.15076221794E+03 -0.28183197292E+03 -0.32781982780E+03  0.80214372346E+03  0.65864270000E+03 0. -1.
    8880022    1    1    2    0    0 -0.15076221794E+03  0.28183197292E+03  0.12109588577E+04  0.12617335358E+04  0.15294330000E+03 0.  0.
<mgrwt>
<rscale>  0 0.61063184E+03</rscale>
<asrwt>0</asrwt>
<pdfrwt beam="1">  1        2 0.90826019E-01 0.73209884E+03</pdfrwt>
<pdfrwt beam="2">  1       -2 0.22669356E+00 0.73209884E+03</pdfrwt>
<totfact> 0.46593748E+00</totfact>
</mgrwt>
</event>
<event>
 4    1  0.2089815E-007  0.9444183E+03  0.7818608E-02  0.9458191E-01
         -2   -1    0    0    0  501 -0.00000000000E+00  0.00000000000E+00  0.62232030380E+03  0.62232030381E+03  0.25500000000E-02 0.  1.
          2   -1    0    0  501    0  0.00000000000E+00 -0.00000000000E+00 -0.12065751987E+04  0.12065751987E+04  0.25500000000E-02 0. -1.
    8880023    1    1    2    0    0 -0.41504089936E+03 -0.53465580413E+03 -0.62711414637E+03  0.11336657955E+04  0.65864270000E+03 0. -1.
    8880022    1    1    2    0    0  0.41504089936E+03  0.53465580413E+03  0.42859251501E+02  0.69522970699E+03  0.15294330000E+03 0.  0.
<mgrwt>
<rscale>  0 0.87437691E+03</rscale>
<asrwt>0</asrwt>
<pdfrwt beam="1">  1        2 0.18562695E+00 0.94441833E+03</pdfrwt>
<pdfrwt beam="2">  1       -2 0.95741586E-01 0.94441833E+03</pdfrwt>
<totfact> 0.17167606E+01</totfact>
</mgrwt>
</event>
<event>
 4    1  0.2089815E-007  0.6770192E+03  0.7818608E-02  0.1011063E+00
         -2   -1    0    0    0  501 -0.00000000000E+00  0.00000000000E+00  0.21759570511E+03  0.21759570512E+03  0.25500000000E-02 0.  1.
          2   -1    0    0  501    0  0.00000000000E+00 -0.00000000000E+00 -0.12266556193E+04  0.12266556193E+04  0.25500000000E-02 0. -1.
    8880023    1    1    2    0    0  0.91737780269E+02 -0.12699981144E+03 -0.10209012195E+04  0.12249874606E+04  0.65864270000E+03 0. -1.
    8880022    1    1    2    0    0 -0.91737780269E+02  0.12699981144E+03  0.11841305336E+02  0.21926386378E+03  0.15294330000E+03 0.  0.
<mgrwt>
<rscale>  0 0.51054490E+03</rscale>
<asrwt>0</asrwt>
<pdfrwt beam="1">  1        2 0.18871625E+00 0.67701919E+03</pdfrwt>
<pdfrwt beam="2">  1       -2 0.33476263E-01 0.67701919E+03</pdfrwt>
<totfact> 0.15511501E+02</totfact>
</mgrwt>
</event>
<event>
 4    1  0.2089815E-007  0.8788324E+03  0.7818608E-02  0.9560904E-01
         -2   -1    0    0    0  501 -0.00000000000E+00  0.00000000000E+00  0.15033154673E+03  0.15033154675E+03  0.25500000000E-02 0.  1.
          2   -1    0    0  501    0  0.00000000000E+00 -0.00000000000E+00 -0.43577790781E+04  0.43577790781E+04  0.25500000000E-02 0. -1.
    8880023    1    1    2    0    0  0.31232399431E+03 -0.49090722618E+03 -0.33315028338E+04  0.34454691291E+04  0.65864270000E+03 0.  0.
    8880022    1    1    2    0    0 -0.31232399431E+03  0.49090722618E+03 -0.87594469763E+03  0.10626414957E+04  0.15294330000E+03 0.  0.
<mgrwt>
<rscale>  0 0.79938739E+03</rscale>
<asrwt>0</asrwt>
<pdfrwt beam="1">  1        2 0.67042745E+00 0.87883240E+03</pdfrwt>
<pdfrwt beam="2">  1       -2 0.23127934E-01 0.87883240E+03</pdfrwt>
<totfact> 0.30295893E+00</totfact>
</mgrwt>
</event>
<event>
 4    1  0.2089815E-007  0.7990985E+03  0.7818608E-02  0.9712749E-01
         -2   -1    0    0    0  501 -0.00000000000E+00  0.00000000000E+00  0.49154456359E+03  0.49154456359E+03  0.25500000000E-02 0.  1.
          2   -1    0    0  501    0  0.00000000000E+00 -0.00000000000E+00 -0.14532160764E+04  0.14532160764E+04  0.25500000000E-02 0. -1.
    8880023    1    1    2    0    0  0.19121277260E+03  0.41010475716E+03 -0.11755393888E+04  0.14214257972E+04  0.65864270000E+03 0. -1.
    8880022    1    1    2    0    0 -0.19121277260E+03 -0.41010475716E+03  0.21386787596E+03  0.52333484275E+03  0.15294330000E+03 0.  0.
<mgrwt>
<rscale>  0 0.70262791E+03</rscale>
<asrwt>0</asrwt>
<pdfrwt beam="1">  1        2 0.22357170E+00 0.79909852E+03</pdfrwt>
<pdfrwt beam="2">  1       -2 0.75622241E-01 0.79909852E+03</pdfrwt>
<totfact> 0.21519567E+01</totfact>
</mgrwt>
</event>
<event>
 4    1  0.2089815E-007  0.9933199E+03  0.7818608E-02  0.9390350E-01
          2   -1    0    0  501    0  0.00000000000E+00  0.00000000000E+00  0.32828941389E+04  0.32828941389E+04  0.25500000000E-02 0. -1.
         -2   -1    0    0    0  501 -0.00000000000E+00 -0.00000000000E+00 -0.25348239300E+03  0.25348239301E+03  0.25500000000E-02 0.  1.
    8880023    1    1    2    0    0  0.57738254460E+03  0.46851219670E+03  0.21892634126E+04  0.24040712920E+04  0.65864270000E+03 0.  0.
    8880022    1    1    2    0    0 -0.57738254460E+03 -0.46851219670E+03  0.84014833334E+03  0.11323052399E+04  0.15294330000E+03 0.  0.
<mgrwt>
<rscale>  0 0.92874124E+03</rscale>
<asrwt>0</asrwt>
<pdfrwt beam="1">  1        2 0.50506064E+00 0.99331993E+03</pdfrwt>
<pdfrwt beam="2">  1       -2 0.38997291E-01 0.99331993E+03</pdfrwt>
<totfact> 0.73310610E+00</totfact>
</mgrwt>
</event>
<event>
 4    1  0.2089815E-007  0.9499498E+03  0.7818608E-02  0.9450186E-01
          2   -1    0    0  501    0  0.00000000000E+00  0.00000000000E+00  0.90678847746E+03  0.90678847747E+03  0.25500000000E-02 0. -1.
         -2   -1    0    0    0  501 -0.00000000000E+00 -0.00000000000E+00 -0.16395227880E+04  0.16395227880E+04  0.25500000000E-02 0.  1.
    8880023    1    1    2    0    0  0.51563498947E+03  0.45023882549E+03  0.54028420112E+03  0.10928456737E+04  0.65864270000E+03 0.  0.
    8880022    1    1    2    0    0 -0.51563498947E+03 -0.45023882549E+03 -0.12730185117E+04  0.14534655917E+04  0.15294330000E+03 0.  0.
<mgrwt>
<rscale>  0 0.88058159E+03</rscale>
<asrwt>0</asrwt>
<pdfrwt beam="1">  1        2 0.13950592E+00 0.94994981E+03</pdfrwt>
<pdfrwt beam="2">  1       -2 0.25223428E+00 0.94994981E+03</pdfrwt>
<totfact> 0.18129524E+00</totfact>
</mgrwt>
</event>
<event>
 4    1  0.2089815E-007  0.8381769E+03  0.7818608E-02  0.9633627E-01
         -2   -1    0    0    0  501 -0.00000000000E+00  0.00000000000E+00  0.12001833167E+04  0.12001833167E+04  0.25500000000E-02 0.  1.
          2   -1    0    0  501    0  0.00000000000E+00 -0.00000000000E+00 -0.19186683885E+04  0.19186683885E+04  0.25500000000E-02 0. -1.
    8880023    1    1    2    0    0 -0.41299600607E+03 -0.31331233806E+03 -0.17577954176E+04  0.19474047495E+04  0.65864270000E+03 0. -1.
    8880022    1    1    2    0    0  0.41299600607E+03  0.31331233806E+03  0.10393103457E+04  0.11714469557E+04  0.15294330000E+03 0.  0.
<mgrwt>
<rscale>  0 0.75109920E+03</rscale>
<asrwt>0</asrwt>
<pdfrwt beam="1">  1        2 0.29517975E+00 0.83817691E+03</pdfrwt>
<pdfrwt beam="2">  1       -2 0.18464359E+00 0.83817691E+03</pdfrwt>
<totfact> 0.12776517E+00</totfact>
</mgrwt>
</event>
<event>
 4    1  0.2089815E-007  0.9719236E+03  0.7818608E-02  0.9419249E-01
          2   -1    0    0  501    0  0.00000000000E+00  0.00000000000E+00  0.20768623676E+04  0.20768623676E+04  0.25500000000E-02 0. -1.
         -2   -1    0    0    0  501 -0.00000000000E+00 -0.00000000000E+00 -0.80114857559E+03  0.80114857560E+03  0.25500000000E-02 0.  1.
    8880023    1    1    2    0    0  0.19967657062E+03 -0.68626127748E+03  0.17534696647E+04  0.20048170353E+04  0.65864270000E+03 0. -1.
    8880022    1    1    2    0    0 -0.19967657062E+03  0.68626127748E+03 -0.47775587270E+03  0.87319390787E+03  0.15294330000E+03 0.  0.
<mgrwt>
<rscale>  0 0.90508382E+03</rscale>
<asrwt>0</asrwt>
<pdfrwt beam="1">  1        2 0.31951729E+00 0.97192360E+03</pdfrwt>
<pdfrwt beam="2">  1       -2 0.12325363E+00 0.97192360E+03</pdfrwt>
<totfact> 0.30177259E+00</totfact>
</mgrwt>
</event>
<event>
 4    1  0.2089815E-007  0.1186758E+04  0.7818608E-02  0.9170103E-01
         -2   -1    0    0    0  501 -0.00000000000E+00  0.00000000000E+00  0.82221205090E+03  0.82221205091E+03  0.25500000000E-02 0.  1.
          2   -1    0    0  501    0  0.00000000000E+00 -0.00000000000E+00 -0.16906667393E+04  0.16906667393E+04  0.25500000000E-02 0. -1.
    8880023    1    1    2    0    0 -0.21575138697E+03  0.96334651250E+03 -0.93622799146E+03  0.15115945959E+04  0.65864270000E+03 0.  0.
    8880022    1    1    2    0    0  0.21575138697E+03 -0.96334651250E+03  0.67773303068E+02  0.10012841943E+04  0.15294330000E+03 0.  0.
<mgrwt>
<rscale>  0 0.11367417E+04</rscale>
<asrwt>0</asrwt>
<pdfrwt beam="1">  1        2 0.26010257E+00 0.11867583E+04</pdfrwt>
<pdfrwt beam="2">  1       -2 0.12649416E+00 0.11867583E+04</pdfrwt>
<totfact> 0.45060857E+00</totfact>
</mgrwt>
</event>
<event>
 4    1  0.2387693E-007  0.1418122E+04  0.7818608E-02  0.8969728E-01
         -2   -1    0    0    0  501 -0.00000000000E+00  0.00000000000E+00  0.15961123048E+04  0.15961123048E+04  0.25500000000E-02 0.  1.
          2   -1    0    0  501    0  0.00000000000E+00 -0.00000000000E+00 -0.25597367720E+04  0.25597367720E+04  0.25500000000E-02 0. -1.
    8880023    1    1    2    0    0 -0.55058904744E+03 -0.11287660475E+04 -0.20469813085E+04  0.24902216312E+04  0.65864270000E+03 0.  0.
    8880022    1    1    2    0    0  0.55058904744E+03  0.11287660475E+04  0.10833568413E+04  0.16656274457E+04  0.15294330000E+03 0.  0.
<mgrwt>
<rscale>  0 0.13782324E+04</rscale>
<asrwt>0</asrwt>
<pdfrwt beam="1">  1        2 0.39380566E+00 0.14181225E+04</pdfrwt>
<pdfrwt beam="2">  1       -2 0.24555574E+00 0.14181225E+04</pdfrwt>
<totfact> 0.20847446E-01</totfact>
</mgrwt>
</event>
<event>
 4    1  0.2089815E-007  0.1478232E+04  0.7818608E-02  0.8925162E-01
         -2   -1    0    0    0  501 -0.00000000000E+00  0.00000000000E+00  0.23652423591E+04  0.23652423591E+04  0.25500000000E-02 0.  1.
          2   -1    0    0  501    0  0.00000000000E+00 -0.00000000000E+00 -0.22294551238E+04  0.22294551238E+04  0.25500000000E-02 0. -1.
    8880023    1    1    2    0    0  0.98495093591E+03 -0.88387368122E+03 -0.17468571043E+04  0.22883795532E+04  0.65864270000E+03 0.  0.
    8880022    1    1    2    0    0 -0.98495093591E+03  0.88387368122E+03  0.18826443395E+04  0.23063179297E+04  0.15294330000E+03 0.  0.
<mgrwt>
<rscale>  0 0.14402878E+04</rscale>
<asrwt>0</asrwt>
<pdfrwt beam="1">  1        2 0.34299309E+00 0.14782325E+04</pdfrwt>
<pdfrwt beam="2">  1       -2 0.36388344E+00 0.14782325E+04</pdfrwt>
<totfact> 0.59489824E-02</totfact>
</mgrwt>
</event>
<event>
 4    1  0.2089815E-007  0.7716823E+03  0.7818608E-02  0.9775751E-01
          2   -1    0    0  501    0  0.00000000000E+00  0.00000000000E+00  0.13435541039E+04  0.13435541039E+04  0.25500000000E-02 0. -1.
         -2   -1    0    0    0  501 -0.00000000000E+00 -0.00000000000E+00 -0.42211447805E+03  0.42211447806E+03  0.25500000000E-02 0.  1.
    8880023    1    1    2    0    0 -0.10237136183E+03  0.38884898281E+03  0.10622902165E+04  0.13129943403E+04  0.65864270000E+03 0. -1.
    8880022    1    1    2    0    0  0.10237136183E+03 -0.38884898281E+03 -0.14085059071E+03  0.45267424167E+03  0.15294330000E+03 0.  0.
<mgrwt>
<rscale>  0 0.66680280E+03</rscale>
<asrwt>0</asrwt>
<pdfrwt beam="1">  1        2 0.20670063E+00 0.77168234E+03</pdfrwt>
<pdfrwt beam="2">  1       -2 0.64940690E-01 0.77168234E+03</pdfrwt>
<totfact> 0.34733651E+01</totfact>
</mgrwt>
</event>
<event>
 4    1  0.2216173E-007  0.8433643E+03  0.7818608E-02  0.9623869E-01
          2   -1    0    0  501    0  0.00000000000E+00  0.00000000000E+00  0.13815392144E+04  0.13815392144E+04  0.25500000000E-02 0. -1.
         -2   -1    0    0    0  501 -0.00000000000E+00 -0.00000000000E+00 -0.21422350152E+04  0.21422350152E+04  0.25500000000E-02 0.  1.
    8880023    1    1    2    0    0 -0.37611349020E+03 -0.36877074405E+03  0.12118279550E+04  0.14764113309E+04  0.65864270000E+03 0. -1.
    8880022    1    1    2    0    0  0.37611349020E+03  0.36877074405E+03 -0.19725237558E+04  0.20473628988E+04  0.15294330000E+03 0.  0.
<mgrwt>
<rscale>  0 0.75736330E+03</rscale>
<asrwt>0</asrwt>
<pdfrwt beam="1">  1        2 0.21254449E+00 0.84336435E+03</pdfrwt>
<pdfrwt beam="2">  1       -2 0.32957462E+00 0.84336435E+03</pdfrwt>
<totfact> 0.32173522E-01</totfact>
</mgrwt>
</event>
<event>
 4    1  0.2089815E-007  0.8115495E+03  0.7818608E-02  0.9686358E-01
         -2   -1    0    0    0  501 -0.00000000000E+00  0.00000000000E+00  0.91914357569E+03  0.91914357570E+03  0.25500000000E-02 0.  1.
          2   -1    0    0  501    0  0.00000000000E+00 -0.00000000000E+00 -0.11863784058E+04  0.11863784058E+04  0.25500000000E-02 0. -1.
    8880023    1    1    2    0    0  0.31819139489E+03 -0.35150620875E+03 -0.95692512079E+03  0.12547184033E+04  0.65864270000E+03 0. -1.
    8880022    1    1    2    0    0 -0.31819139489E+03  0.35150620875E+03  0.68969029068E+03  0.85080357818E+03  0.15294330000E+03 0.  0.
<mgrwt>
<rscale>  0 0.71834848E+03</rscale>
<asrwt>0</asrwt>
<pdfrwt beam="1">  1        2 0.18251976E+00 0.81154950E+03</pdfrwt>
<pdfrwt beam="2">  1       -2 0.14140670E+00 0.81154950E+03</pdfrwt>
<totfact> 0.68381444E+00</totfact>
</mgrwt>
</event>
<event>
 4    1  0.2089815E-007  0.7863356E+03  0.7818608E-02  0.9741160E-01
          2   -1    0    0  501    0  0.00000000000E+00  0.00000000000E+00  0.17133809069E+04  0.17133809069E+04  0.25500000000E-02 0. -1.
         -2   -1    0    0    0  501 -0.00000000000E+00 -0.00000000000E+00 -0.32359348310E+03  0.32359348311E+03  0.25500000000E-02 0.  1.
    8880023    1    1    2    0    0 -0.18413362833E+03 -0.38808275262E+03  0.13711528938E+04  0.15806276856E+04  0.65864270000E+03 0. -1.
    8880022    1    1    2    0    0  0.18413362833E+03  0.38808275262E+03  0.18634530048E+02  0.45634670448E+03  0.15294330000E+03 0.  0.
<mgrwt>
<rscale>  0 0.68618161E+03</rscale>
<asrwt>0</asrwt>
<pdfrwt beam="1">  1        2 0.26359707E+00 0.78633557E+03</pdfrwt>
<pdfrwt beam="2">  1       -2 0.49783612E-01 0.78633557E+03</pdfrwt>
<totfact> 0.37614085E+01</totfact>
</mgrwt>
</event>
<event>
 4    1  0.2089815E-007  0.8911510E+03  0.7818608E-02  0.9540389E-01
          2   -1    0    0  501    0  0.00000000000E+00  0.00000000000E+00  0.16390346332E+04  0.16390346332E+04  0.25500000000E-02 0. -1.
         -2   -1    0    0    0  501 -0.00000000000E+00 -0.00000000000E+00 -0.10278836760E+04  0.10278836760E+04  0.25500000000E-02 0.  1.
    8880023    1    1    2    0    0  0.53657987965E+03  0.26911308403E+03  0.14026688838E+04  0.16618152795E+04  0.65864270000E+03 0. -1.
    8880022    1    1    2    0    0 -0.53657987965E+03 -0.26911308403E+03 -0.79151792663E+03  0.10051030298E+04  0.15294330000E+03 0.  0.
<mgrwt>
<rscale>  0 0.81370481E+03</rscale>
<asrwt>0</asrwt>
<pdfrwt beam="1">  1        2 0.25215917E+00 0.89115096E+03</pdfrwt>
<pdfrwt beam="2">  1       -2 0.15813595E+00 0.89115096E+03</pdfrwt>
<totfact> 0.27800088E+00</totfact>
</mgrwt>
</event>
<event>
 4    1  0.2089815E-007  0.9471364E+03  0.7818608E-02  0.9454246E-01
         -2   -1    0    0    0  501 -0.00000000000E+00  0.00000000000E+00  0.36190504422E+03  0.36190504423E+03  0.25500000000E-02 0.  1.
          2   -1    0    0  501    0  0.00000000000E+00 -0.00000000000E+00 -0.28696456359E+04  0.28696456359E+04  0.25500000000E-02 0. -1.
    8880023    1    1    2    0    0  0.67852352053E+03  0.53506090021E+02 -0.23248429666E+04  0.25103709079E+04  0.65864270000E+03 0. -1.
    8880022    1    1    2    0    0 -0.67852352053E+03 -0.53506090021E+02 -0.18289762506E+03  0.72117977222E+03  0.15294330000E+03 0.  0.
<mgrwt>
<rscale>  0 0.87742768E+03</rscale>
<asrwt>0</asrwt>
<pdfrwt beam="1">  1        2 0.44148393E+00 0.94713636E+03</pdfrwt>
<pdfrwt beam="2">  1       -2 0.55677701E-01 0.94713636E+03</pdfrwt>
<totfact> 0.65300867E+00</totfact>
</mgrwt>
</event>
<event>
 4    1  0.2089815E-007  0.2073857E+04  0.7818608E-02  0.8584493E-01
          2   -1    0    0  501    0  0.00000000000E+00  0.00000000000E+00  0.25562922139E+04  0.25562922139E+04  0.25500000000E-02 0. -1.
         -2   -1    0    0    0  501 -0.00000000000E+00 -0.00000000000E+00 -0.30066463259E+04  0.30066463259E+04  0.25500000000E-02 0.  1.
    8880023    1    1    2    0    0  0.19730168914E+03 -0.19565645621E+04  0.16731996913E+04  0.26646726357E+04  0.65864270000E+03 0.  0.
    8880022    1    1    2    0    0 -0.19730168914E+03  0.19565645621E+04 -0.21235538033E+04  0.28982659041E+04  0.15294330000E+03 0.  0.
<mgrwt>
<rscale>  0 0.20480205E+04</rscale>
<asrwt>0</asrwt>
<pdfrwt beam="1">  1        2 0.39327573E+00 0.20738570E+04</pdfrwt>
<pdfrwt beam="2">  1       -2 0.46256097E+00 0.20738570E+04</pdfrwt>
<totfact> 0.80497350E-03</totfact>
</mgrwt>
</event>
<event>
 4    1  0.2089815E-007  0.7538375E+03  0.7818608E-02  0.9821331E-01
         -2   -1    0    0    0  501 -0.00000000000E+00  0.00000000000E+00  0.35312688799E+03  0.35312688800E+03  0.25500000000E-02 0.  1.
          2   -1    0    0  501    0  0.00000000000E+00 -0.00000000000E+00 -0.19670714955E+04  0.19670714955E+04  0.25500000000E-02 0. -1.
    8880023    1    1    2    0    0  0.36572357232E+03 -0.26591238218E+02 -0.17457854099E+04  0.19015882122E+04  0.65864270000E+03 0. -1.
    8880022    1    1    2    0    0 -0.36572357232E+03  0.26591238218E+02  0.13184080238E+03  0.41861017126E+03  0.15294330000E+03 0.  0.
<mgrwt>
<rscale>  0 0.64230270E+03</rscale>
<asrwt>0</asrwt>
<pdfrwt beam="1">  1        2 0.30262638E+00 0.75383754E+03</pdfrwt>
<pdfrwt beam="2">  1       -2 0.54327215E-01 0.75383754E+03</pdfrwt>
<totfact> 0.22947338E+01</totfact>
</mgrwt>
</event>
<event>
 4    1  0.2089815E-007  0.7796250E+03  0.7818608E-02  0.9756719E-01
          2   -1    0    0  501    0  0.00000000000E+00  0.00000000000E+00  0.10275800416E+04  0.10275800416E+04  0.25500000000E-02 0. -1.
         -2   -1    0    0    0  501 -0.00000000000E+00 -0.00000000000E+00 -0.83711646866E+03  0.83711646866E+03  0.25500000000E-02 0.  1.
    8880023    1    1    2    0    0  0.20409861134E+03 -0.36379753876E+03  0.79564136914E+03  0.11139390858E+04  0.65864270000E+03 0. -1.
    8880022    1    1    2    0    0 -0.20409861134E+03  0.36379753876E+03 -0.60517779619E+03  0.75075742446E+03  0.15294330000E+03 0.  0.
<mgrwt>
<rscale>  0 0.67737903E+03</rscale>
<asrwt>0</asrwt>
<pdfrwt beam="1">  1        2 0.15808924E+00 0.77962497E+03</pdfrwt>
<pdfrwt beam="2">  1       -2 0.12878715E+00 0.77962497E+03</pdfrwt>
<totfact> 0.10908321E+01</totfact>
</mgrwt>
</event>
<event>
 4    1  0.2089815E-007  0.1424271E+04  0.7818608E-02  0.8965049E-01
         -2   -1    0    0    0  501 -0.00000000000E+00  0.00000000000E+00  0.94901249543E+03  0.94901249543E+03  0.25500000000E-02 0.  1.
          2   -1    0    0  501    0  0.00000000000E+00 -0.00000000000E+00 -0.21177783339E+04  0.21177783339E+04  0.25500000000E-02 0. -1.
    8880023    1    1    2    0    0 -0.12223355534E+04 -0.31722878697E+03 -0.10877885789E+04  0.17921586165E+04  0.65864270000E+03 0.  0.
    8880022    1    1    2    0    0  0.12223355534E+04  0.31722878697E+03 -0.80977259633E+02  0.12746322128E+04  0.15294330000E+03 0.  0.
<mgrwt>
<rscale>  0 0.13845900E+04</rscale>
<asrwt>0</asrwt>
<pdfrwt beam="1">  1        2 0.32581205E+00 0.14242712E+04</pdfrwt>
<pdfrwt beam="2">  1       -2 0.14600192E+00 0.14242712E+04</pdfrwt>
<totfact> 0.17588265E+00</totfact>
</mgrwt>
</event>
<event>
 4    1  0.2089815E-007  0.8239469E+03  0.7818608E-02  0.9661227E-01
          2   -1    0    0  501    0  0.00000000000E+00  0.00000000000E+00  0.25970730576E+04  0.25970730576E+04  0.25500000000E-02 0. -1.
         -2   -1    0    0    0  501 -0.00000000000E+00 -0.00000000000E+00 -0.84565312246E+03  0.84565312246E+03  0.25500000000E-02 0.  1.
    8880023    1    1    2    0    0 -0.41708517144E+03  0.26668005144E+03  0.24432135069E+04  0.25784066274E+04  0.65864270000E+03 0. -1.
    8880022    1    1    2    0    0  0.41708517144E+03 -0.26668005144E+03 -0.69179357174E+03  0.86431955259E+03  0.15294330000E+03 0.  0.
<mgrwt>
<rscale>  0 0.73373017E+03</rscale>
<asrwt>0</asrwt>
<pdfrwt beam="1">  1        2 0.39954971E+00 0.82394690E+03</pdfrwt>
<pdfrwt beam="2">  1       -2 0.13010048E+00 0.82394690E+03</pdfrwt>
<totfact> 0.13760606E+00</totfact>
</mgrwt>
</event>
<event>
 4    1  0.2089815E-007  0.7630065E+03  0.7818608E-02  0.9797385E-01
         -2   -1    0    0    0  501 -0.00000000000E+00  0.00000000000E+00  0.13433835017E+03  0.13433835019E+03  0.25500000000E-02 0.  1.
          2   -1    0    0  501    0  0.00000000000E+00 -0.00000000000E+00 -0.27621696075E+04  0.27621696075E+04  0.25500000000E-02 0. -1.
    8880023    1    1    2    0    0  0.19107026048E+03 -0.33445598977E+03 -0.20335963477E+04  0.21720250840E+04  0.65864270000E+03 0. -1.
    8880022    1    1    2    0    0 -0.19107026048E+03  0.33445598977E+03 -0.59423490956E+03  0.72448287370E+03  0.15294330000E+03 0.  1.
<mgrwt>
<rscale>  0 0.65503049E+03</rscale>
<asrwt>0</asrwt>
<pdfrwt beam="1">  1        2 0.42494913E+00 0.76300646E+03</pdfrwt>
<pdfrwt beam="2">  1       -2 0.20667441E-01 0.76300646E+03</pdfrwt>
<totfact> 0.51351399E+01</totfact>
</mgrwt>
</event>
<event>
 4    1  0.2089815E-007  0.1531188E+04  0.7818608E-02  0.8887921E-01
          2   -1    0    0  501    0  0.00000000000E+00  0.00000000000E+00  0.16085451177E+04  0.16085451177E+04  0.25500000000E-02 0. -1.
         -2   -1    0    0    0  501 -0.00000000000E+00 -0.00000000000E+00 -0.15443556440E+04  0.15443556440E+04  0.25500000000E-02 0.  1.
    8880023    1    1    2    0    0 -0.13104228948E+04  0.43990829268E+03 -0.55752803378E+03  0.16295321979E+04  0.65864270000E+03 0.  0.
    8880022    1    1    2    0    0  0.13104228948E+04 -0.43990829268E+03  0.62171750751E+03  0.15233685639E+04  0.15294330000E+03 0.  0.
<mgrwt>
<rscale>  0 0.14947958E+04</rscale>
<asrwt>0</asrwt>
<pdfrwt beam="1">  1        2 0.24746848E+00 0.15311883E+04</pdfrwt>
<pdfrwt beam="2">  1       -2 0.23759318E+00 0.15311883E+04</pdfrwt>
<totfact> 0.79224026E-01</totfact>
</mgrwt>
</event>
<event>
 4    1  0.2089815E-007  0.9753958E+03  0.7818608E-02  0.9414480E-01
          2   -1    0    0  501    0  0.00000000000E+00  0.00000000000E+00  0.27493570886E+04  0.27493570886E+04  0.25500000000E-02 0. -1.
         -2   -1    0    0    0  501 -0.00000000000E+00 -0.00000000000E+00 -0.46790750639E+03  0.46790750640E+03  0.25500000000E-02 0.  1.
    8880023    1    1    2    0    0 -0.50090642687E+03  0.51641026794E+03  0.18137644477E+03  0.99211613952E+03  0.65864270000E+03 0.  1.
    8880022    1    1    2    0    0  0.50090642687E+03 -0.51641026794E+03  0.21000731374E+04  0.22251484554E+04  0.15294330000E+03 0. -1.
<mgrwt>
<rscale>  0 0.90893571E+03</rscale>
<asrwt>0</asrwt>
<pdfrwt beam="1">  1        2 0.42297802E+00 0.97539583E+03</pdfrwt>
<pdfrwt beam="2">  1       -2 0.71985769E-01 0.97539583E+03</pdfrwt>
<totfact> 0.44223452E+00</totfact>
</mgrwt>
</event>
<event>
 4    1  0.2089815E-007  0.7016021E+03  0.7818608E-02  0.9990619E-01
         -2   -1    0    0    0  501 -0.00000000000E+00  0.00000000000E+00  0.99482609396E+03  0.99482609397E+03  0.25500000000E-02 0.  1.
          2   -1    0    0  501    0  0.00000000000E+00 -0.00000000000E+00 -0.59266930269E+03  0.59266930269E+03  0.25500000000E-02 0. -1.
    8880023    1    1    2    0    0 -0.21055583912E+03 -0.11874973295E+03 -0.34907501050E+03  0.78364458122E+03  0.65864270000E+03 0. -1.
    8880022    1    1    2    0    0  0.21055583912E+03  0.11874973295E+03  0.75123180177E+03  0.80385081544E+03  0.15294330000E+03 0.  0.
<mgrwt>
<rscale>  0 0.56063495E+03</rscale>
<asrwt>0</asrwt>
<pdfrwt beam="1">  1        2 0.91179893E-01 0.70160207E+03</pdfrwt>
<pdfrwt beam="2">  1       -2 0.15305017E+00 0.70160207E+03</pdfrwt>
<totfact> 0.14575324E+01</totfact>
</mgrwt>
</event>
<event>
 4    1  0.2089815E-007  0.7078891E+03  0.7818608E-02  0.9965925E-01
         -2   -1    0    0    0  501 -0.00000000000E+00  0.00000000000E+00  0.26628281457E+04  0.26628281457E+04  0.25500000000E-02 0.  1.
          2   -1    0    0  501    0  0.00000000000E+00 -0.00000000000E+00 -0.22855534857E+03  0.22855534859E+03  0.25500000000E-02 0. -1.
    8880023    1    1    2    0    0  0.75556427318E+02 -0.24816922156E+03  0.35777874362E+03  0.79316616915E+03  0.65864270000E+03 0. -1.
    8880022    1    1    2    0    0 -0.75556427318E+02  0.24816922156E+03  0.20764940535E+04  0.20982173252E+04  0.15294330000E+03 0.  0.
<mgrwt>
<rscale>  0 0.57169957E+03</rscale>
<asrwt>0</asrwt>
<pdfrwt beam="1">  1        2 0.35162365E-01 0.70788907E+03</pdfrwt>
<pdfrwt beam="2">  1       -2 0.40966583E+00 0.70788907E+03</pdfrwt>
<totfact> 0.10212124E+00</totfact>
</mgrwt>
</event>
<event>
 4    1  0.2089815E-007  0.1667926E+04  0.7818608E-02  0.8799344E-01
         -2   -1    0    0    0  501 -0.00000000000E+00  0.00000000000E+00  0.15114547642E+04  0.15114547642E+04  0.25500000000E-02 0.  1.
          2   -1    0    0  501    0  0.00000000000E+00 -0.00000000000E+00 -0.25788521530E+04  0.25788521530E+04  0.25500000000E-02 0. -1.
    8880023    1    1    2    0    0 -0.15272099302E+04 -0.12568162607E+03  0.64409383841E+03  0.17879689933E+04  0.65864270000E+03 0.  0.
    8880022    1    1    2    0    0  0.15272099302E+04  0.12568162607E+03 -0.17114912272E+04  0.23023379239E+04  0.15294330000E+03 0.  0.
<mgrwt>
<rscale>  0 0.16349774E+04</rscale>
<asrwt>0</asrwt>
<pdfrwt beam="1">  1        2 0.39674648E+00 0.16679257E+04</pdfrwt>
<pdfrwt beam="2">  1       -2 0.23253150E+00 0.16679257E+04</pdfrwt>
<totfact> 0.23768549E-01</totfact>
</mgrwt>
</event>
<event>
 4    1  0.2089815E-007  0.1326026E+04  0.7818608E-02  0.9043404E-01
          2   -1    0    0  501    0  0.00000000000E+00  0.00000000000E+00  0.16247519929E+04  0.16247519929E+04  0.25500000000E-02 0. -1.
         -2   -1    0    0    0  501 -0.00000000000E+00 -0.00000000000E+00 -0.98370544477E+03  0.98370544477E+03  0.25500000000E-02 0.  1.
    8880023    1    1    2    0    0  0.86249669045E+03 -0.76199404241E+03  0.57573346339E+03  0.14456191369E+04  0.65864270000E+03 0.  0.
    8880022    1    1    2    0    0 -0.86249669045E+03  0.76199404241E+03  0.65313084701E+02  0.11628383008E+04  0.15294330000E+03 0.  0.
<mgrwt>
<rscale>  0 0.12826920E+04</rscale>
<asrwt>0</asrwt>
<pdfrwt beam="1">  1        2 0.24996184E+00 0.13260263E+04</pdfrwt>
<pdfrwt beam="2">  1       -2 0.15133930E+00 0.13260263E+04</pdfrwt>
<totfact> 0.30355471E+00</totfact>
</mgrwt>
</event>
<event>
 4    1  0.2089815E-007  0.1036002E+04  0.7818608E-02  0.9335901E-01
         -2   -1    0    0    0  501 -0.00000000000E+00  0.00000000000E+00  0.58099319376E+03  0.58099319377E+03  0.25500000000E-02 0.  1.
          2   -1    0    0  501    0  0.00000000000E+00 -0.00000000000E+00 -0.32380114074E+04  0.32380114074E+04  0.25500000000E-02 0. -1.
    8880023    1    1    2    0    0  0.74742699775E+03  0.28432816199E+03 -0.28061502550E+04  0.29912838515E+04  0.65864270000E+03 0.  0.
    8880022    1    1    2    0    0 -0.74742699775E+03 -0.28432816199E+03  0.14913204131E+03  0.82772074967E+03  0.15294330000E+03 0.  0.
<mgrwt>
<rscale>  0 0.97543844E+03</rscale>
<asrwt>0</asrwt>
<pdfrwt beam="1">  1        2 0.49815559E+00 0.10360018E+04</pdfrwt>
<pdfrwt beam="2">  1       -2 0.89383570E-01 0.10360018E+04</pdfrwt>
<totfact> 0.13418214E+00</totfact>
</mgrwt>
</event>
<event>
 4    1  0.2089815E-007  0.7612164E+03  0.7818608E-02  0.9801969E-01
         -2   -1    0    0    0  501 -0.00000000000E+00  0.00000000000E+00  0.29150976198E+03  0.29150976199E+03  0.25500000000E-02 0.  1.
          2   -1    0    0  501    0  0.00000000000E+00 -0.00000000000E+00 -0.19500744444E+04  0.19500744444E+04  0.25500000000E-02 0. -1.
    8880023    1    1    2    0    0  0.38139475280E+03  0.13348780245E+02 -0.16646116640E+04  0.18304049676E+04  0.65864270000E+03 0. -1.
    8880022    1    1    2    0    0 -0.38139475280E+03 -0.13348780245E+02  0.60469815418E+01  0.41117923878E+03  0.15294330000E+03 0.  0.
<mgrwt>
<rscale>  0 0.65257005E+03</rscale>
<asrwt>0</asrwt>
<pdfrwt beam="1">  1        2 0.30001145E+00 0.76121636E+03</pdfrwt>
<pdfrwt beam="2">  1       -2 0.44847657E-01 0.76121636E+03</pdfrwt>
<totfact> 0.34572154E+01</totfact>
</mgrwt>
</event>
<event>
 4    1  0.2089815E-007  0.1120150E+04  0.7818608E-02  0.9238946E-01
          2   -1    0    0  501    0  0.00000000000E+00  0.00000000000E+00  0.14717585836E+04  0.14717585836E+04  0.25500000000E-02 0. -1.
         -2   -1    0    0    0  501 -0.00000000000E+00 -0.00000000000E+00 -0.21157912936E+04  0.21157912936E+04  0.25500000000E-02 0.  1.
    8880023    1    1    2    0    0 -0.69938107703E+03  0.57601436479E+03  0.11290999207E+04  0.15904726582E+04  0.65864270000E+03 0.  0.
    8880022    1    1    2    0    0  0.69938107703E+03 -0.57601436479E+03 -0.17731326307E+04  0.19970772190E+04  0.15294330000E+03 0.  0.
<mgrwt>
<rscale>  0 0.10660326E+04</rscale>
<asrwt>0</asrwt>
<pdfrwt beam="1">  1        2 0.22642440E+00 0.11201503E+04</pdfrwt>
<pdfrwt beam="2">  1       -2 0.32550635E+00 0.11201503E+04</pdfrwt>
<totfact> 0.28850079E-01</totfact>
</mgrwt>
</event>
<event>
 4    1  0.2089815E-007  0.7902727E+03  0.7818608E-02  0.9732237E-01
         -2   -1    0    0    0  501 -0.00000000000E+00  0.00000000000E+00  0.53287931911E+03  0.53287931911E+03  0.25500000000E-02 0.  1.
          2   -1    0    0  501    0  0.00000000000E+00 -0.00000000000E+00 -0.19919405533E+04  0.19919405533E+04  0.25500000000E-02 0. -1.
    8880023    1    1    2    0    0  0.42131976452E+03  0.11493675573E+03 -0.17894944905E+04  0.19562263518E+04  0.65864270000E+03 0. -1.
    8880022    1    1    2    0    0 -0.42131976452E+03 -0.11493675573E+03  0.33043325629E+03  0.56859352060E+03  0.15294330000E+03 0.  0.
<mgrwt>
<rscale>  0 0.69129433E+03</rscale>
<asrwt>0</asrwt>
<pdfrwt beam="1">  1        2 0.30645239E+00 0.79027274E+03</pdfrwt>
<pdfrwt beam="2">  1       -2 0.81981434E-01 0.79027274E+03</pdfrwt>
<totfact> 0.90871665E+00</totfact>
</mgrwt>
</event>
<event>
 4    1  0.2089815E-007  0.9279000E+03  0.7818608E-02  0.9482651E-01
         -2   -1    0    0    0  501 -0.00000000000E+00  0.00000000000E+00  0.80175169702E+03  0.80175169703E+03  0.25500000000E-02 0.  1.
          2   -1    0    0  501    0  0.00000000000E+00 -0.00000000000E+00 -0.12866075834E+04  0.12866075834E+04  0.25500000000E-02 0. -1.
    8880023    1    1    2    0    0  0.44820781213E+03  0.47570783719E+03 -0.90524824609E+03  0.12963305067E+04  0.65864270000E+03 0.  0.
    8880022    1    1    2    0    0 -0.44820781213E+03 -0.47570783719E+03  0.42039235976E+03  0.79202877371E+03  0.15294330000E+03 0.  0.
<mgrwt>
<rscale>  0 0.85575087E+03</rscale>
<asrwt>0</asrwt>
<pdfrwt beam="1">  1        2 0.19793963E+00 0.92789999E+03</pdfrwt>
<pdfrwt beam="2">  1       -2 0.12334641E+00 0.92789999E+03</pdfrwt>
<totfact> 0.83454184E+00</totfact>
</mgrwt>
</event>
<event>
 4    1  0.2089815E-007  0.6586537E+03  0.7818608E-02  0.1025580E+00
         -2   -1    0    0    0  501 -0.00000000000E+00  0.00000000000E+00  0.33120673622E+03  0.33120673623E+03  0.25500000000E-02 0.  1.
          2   -1    0    0  501    0  0.00000000000E+00 -0.00000000000E+00 -0.60033093000E+03  0.60033093001E+03  0.25500000000E-02 0. -1.
    8880023    1    1    2    0    0 -0.24161688230E+01  0.29411471893E+01 -0.36298214787E+03  0.75205101832E+03  0.65864270000E+03 0. -1.
    8880022    1    1    2    0    0  0.24161688230E+01 -0.29411471893E+01  0.93857954099E+02  0.17948664792E+03  0.15294330000E+03 0.  0.
<mgrwt>
<rscale>  0 0.45725565E+03</rscale>
<asrwt>0</asrwt>
<pdfrwt beam="1">  1        2 0.92358605E-01 0.65865370E+03</pdfrwt>
<pdfrwt beam="2">  1       -2 0.50954882E-01 0.65865370E+03</pdfrwt>
<totfact> 0.18301750E+02</totfact>
</mgrwt>
</event>
<event>
 4    1  0.2089815E-007  0.8701208E+03  0.7818608E-02  0.9575808E-01
          2   -1    0    0  501    0  0.00000000000E+00  0.00000000000E+00  0.13584109324E+04  0.13584109325E+04  0.25500000000E-02 0. -1.
         -2   -1    0    0    0  501 -0.00000000000E+00 -0.00000000000E+00 -0.12840925841E+04  0.12840925841E+04  0.25500000000E-02 0.  1.
    8880023    1    1    2    0    0 -0.32770621830E+03  0.46465977820E+03  0.11345200516E+04  0.14297713204E+04  0.65864270000E+03 0. -1.
    8880022    1    1    2    0    0  0.32770621830E+03 -0.46465977820E+03 -0.10602017033E+04  0.12127321962E+04  0.15294330000E+03 0.  0.
<mgrwt>
<rscale>  0 0.78918280E+03</rscale>
<asrwt>0</asrwt>
<pdfrwt beam="1">  1        2 0.20898630E+00 0.87012084E+03</pdfrwt>
<pdfrwt beam="2">  1       -2 0.19755270E+00 0.87012084E+03</pdfrwt>
<totfact> 0.21318813E+00</totfact>
</mgrwt>
</event>
<event>
 4    1  0.2089815E-007  0.7962375E+03  0.7818608E-02  0.9718991E-01
          2   -1    0    0  501    0  0.00000000000E+00  0.00000000000E+00  0.15337503463E+04  0.15337503463E+04  0.25500000000E-02 0. -1.
         -2   -1    0    0    0  501 -0.00000000000E+00 -0.00000000000E+00 -0.58189003978E+03  0.58189003978E+03  0.25500000000E-02 0.  1.
    8880023    1    1    2    0    0  0.28843384501E+03  0.34203791678E+03  0.13027621951E+04  0.15268213919E+04  0.65864270000E+03 0. -1.
    8880022    1    1    2    0    0 -0.28843384501E+03 -0.34203791678E+03 -0.35090188860E+03  0.58881899417E+03  0.15294330000E+03 0.  0.
<mgrwt>
<rscale>  0 0.69897245E+03</rscale>
<asrwt>0</asrwt>
<pdfrwt beam="1">  1        2 0.23596159E+00 0.79623754E+03</pdfrwt>
<pdfrwt beam="2">  1       -2 0.89521545E-01 0.79623754E+03</pdfrwt>
<totfact> 0.13245831E+01</totfact>
</mgrwt>
</event>
<event>
 4    1  0.2089815E-007  0.6751105E+03  0.7818608E-02  0.1012237E+00
         -2   -1    0    0    0  501 -0.00000000000E+00  0.00000000000E+00  0.49524726303E+03  0.49524726303E+03  0.25500000000E-02 0.  1.
          2   -1    0    0  501    0  0.00000000000E+00 -0.00000000000E+00 -0.98811274102E+03  0.98811274103E+03  0.25500000000E-02 0. -1.
    8880023    1    1    2    0    0  0.16365444316E+02 -0.14729635866E+03 -0.83903911971E+03  0.10769219543E+04  0.65864270000E+03 0. -1.
    8880022    1    1    2    0    0 -0.16365444316E+02  0.14729635866E+03  0.34617364171E+03  0.40643804973E+03  0.15294330000E+03 0.  0.
<mgrwt>
<rscale>  0 0.50595297E+03</rscale>
<asrwt>0</asrwt>
<pdfrwt beam="1">  1        2 0.15201734E+00 0.67511055E+03</pdfrwt>
<pdfrwt beam="2">  1       -2 0.76191887E-01 0.67511055E+03</pdfrwt>
<totfact> 0.40435831E+01</totfact>
</mgrwt>
</event>
<event>
 4    1  0.2089815E-007  0.8420593E+03  0.7818608E-02  0.9626309E-01
         -2   -1    0    0    0  501 -0.00000000000E+00  0.00000000000E+00  0.21894357677E+04  0.21894357677E+04  0.25500000000E-02 0.  1.
          2   -1    0    0  501    0  0.00000000000E+00 -0.00000000000E+00 -0.99965186757E+03  0.99965186757E+03  0.25500000000E-02 0. -1.
    8880023    1    1    2    0    0 -0.51075129246E+03  0.11994507429E+03 -0.77823092868E+03  0.11466068586E+04  0.65864270000E+03 0. -1.
    8880022    1    1    2    0    0  0.51075129246E+03 -0.11994507429E+03  0.19680148288E+04  0.20424807766E+04  0.15294330000E+03 0.  0.
<mgrwt>
<rscale>  0 0.75579060E+03</rscale>
<asrwt>0</asrwt>
<pdfrwt beam="1">  1        2 0.15379260E+00 0.84205933E+03</pdfrwt>
<pdfrwt beam="2">  1       -2 0.33683627E+00 0.84205933E+03</pdfrwt>
<totfact> 0.49172162E-01</totfact>
</mgrwt>
</event>
<event>
 4    1  0.2089815E-007  0.8090422E+03  0.7818608E-02  0.9691575E-01
          2   -1    0    0  501    0  0.00000000000E+00  0.00000000000E+00  0.52374748070E+03  0.52374748071E+03  0.25500000000E-02 0. -1.
         -2   -1    0    0    0  501 -0.00000000000E+00 -0.00000000000E+00 -0.94160124953E+03  0.94160124953E+03  0.25500000000E-02 0.  1.
    8880023    1    1    2    0    0  0.11837865109E+03 -0.45467091506E+03  0.13944439543E+02  0.80916240625E+03  0.65864270000E+03 0. -1.
    8880022    1    1    2    0    0 -0.11837865109E+03  0.45467091506E+03 -0.43179820837E+03  0.65618632399E+03  0.15294330000E+03 0.  0.
<mgrwt>
<rscale>  0 0.71520612E+03</rscale>
<asrwt>0</asrwt>
<pdfrwt beam="1">  1        2 0.80576536E-01 0.80904224E+03</pdfrwt>
<pdfrwt beam="2">  1       -2 0.14486173E+00 0.80904224E+03</pdfrwt>
<totfact> 0.19321358E+01</totfact>
</mgrwt>
</event>
<event>
 4    1  0.2089815E-007  0.1025226E+04  0.7818608E-02  0.9349274E-01
         -2   -1    0    0    0  501 -0.00000000000E+00  0.00000000000E+00  0.46610292085E+03  0.46610292086E+03  0.25500000000E-02 0.  1.
          2   -1    0    0  501    0  0.00000000000E+00 -0.00000000000E+00 -0.23343691479E+04  0.23343691479E+04  0.25500000000E-02 0. -1.
    8880023    1    1    2    0    0 -0.74794539721E+03 -0.24053054086E+03 -0.16958967182E+04  0.19817046055E+04  0.65864270000E+03 0.  0.
    8880022    1    1    2    0    0  0.74794539721E+03  0.24053054086E+03 -0.17236950881E+03  0.81876746325E+03  0.15294330000E+03 0.  0.
<mgrwt>
<rscale>  0 0.96370426E+03</rscale>
<asrwt>0</asrwt>
<pdfrwt beam="1">  1        2 0.35913371E+00 0.10252256E+04</pdfrwt>
<pdfrwt beam="2">  1       -2 0.71708143E-01 0.10252256E+04</pdfrwt>
<totfact> 0.76789372E+00</totfact>
</mgrwt>
</event>
<event>
 4    1  0.2089815E-007  0.8899086E+03  0.7818608E-02  0.9542430E-01
         -2   -1    0    0    0  501 -0.00000000000E+00  0.00000000000E+00  0.74392272022E+03  0.74392272022E+03  0.25500000000E-02 0.  1.
          2   -1    0    0  501    0  0.00000000000E+00 -0.00000000000E+00 -0.10703098210E+04  0.10703098210E+04  0.25500000000E-02 0. -1.
    8880023    1    1    2    0    0  0.77694170584E+02 -0.59337230519E+03 -0.66398498731E+03  0.11103212807E+04  0.65864270000E+03 0. -1.
    8880022    1    1    2    0    0 -0.77694170584E+02  0.59337230519E+03  0.33759788653E+03  0.70391126054E+03  0.15294330000E+03 0.  0.
<mgrwt>
<rscale>  0 0.81226648E+03</rscale>
<asrwt>0</asrwt>
<pdfrwt beam="1">  1        2 0.16466305E+00 0.88990858E+03</pdfrwt>
<pdfrwt beam="2">  1       -2 0.11444965E+00 0.88990858E+03</pdfrwt>
<totfact> 0.13600793E+01</totfact>
</mgrwt>
</event>
<event>
 4    1  0.2089815E-007  0.8251236E+03  0.7818608E-02  0.9658896E-01
         -2   -1    0    0    0  501 -0.00000000000E+00  0.00000000000E+00  0.77467753226E+03  0.77467753226E+03  0.25500000000E-02 0.  1.
          2   -1    0    0  501    0  0.00000000000E+00 -0.00000000000E+00 -0.89914455511E+03  0.89914455512E+03  0.25500000000E-02 0. -1.
    8880023    1    1    2    0    0  0.23153989779E+03 -0.43978175141E+03 -0.55859074730E+03  0.99641986249E+03  0.65864270000E+03 0.  0.
    8880022    1    1    2    0    0 -0.23153989779E+03  0.43978175141E+03  0.43412372445E+03  0.67740222489E+03  0.15294330000E+03 0.  0.
<mgrwt>
<rscale>  0 0.73517743E+03</rscale>
<asrwt>0</asrwt>
<pdfrwt beam="1">  1        2 0.13832993E+00 0.82512358E+03</pdfrwt>
<pdfrwt beam="2">  1       -2 0.11918116E+00 0.82512358E+03</pdfrwt>
<totfact> 0.15986012E+01</totfact>
</mgrwt>
</event>
<event>
 4    1  0.2089815E-007  0.8347273E+03  0.7818608E-02  0.9640204E-01
          2   -1    0    0  501    0  0.00000000000E+00  0.00000000000E+00  0.14678982552E+04  0.14678982552E+04  0.25500000000E-02 0. -1.
         -2   -1    0    0    0  501 -0.00000000000E+00 -0.00000000000E+00 -0.33572014512E+03  0.33572014513E+03  0.25500000000E-02 0.  1.
    8880023    1    1    2    0    0  0.40640826261E+03 -0.31271671459E+03  0.87709837115E+03  0.12108142626E+04  0.65864270000E+03 0. -1.
    8880022    1    1    2    0    0 -0.40640826261E+03  0.31271671459E+03  0.25507973890E+03  0.59280413774E+03  0.15294330000E+03 0.  0.
<mgrwt>
<rscale>  0 0.74691435E+03</rscale>
<asrwt>0</asrwt>
<pdfrwt beam="1">  1        2 0.22583050E+00 0.83472728E+03</pdfrwt>
<pdfrwt beam="2">  1       -2 0.51649253E-01 0.83472728E+03</pdfrwt>
<totfact> 0.47471428E+01</totfact>
</mgrwt>
</event>
<event>
 4    1  0.2089815E-007  0.7006719E+03  0.7818608E-02  0.9994425E-01
         -2   -1    0    0    0  501 -0.00000000000E+00  0.00000000000E+00  0.73772634738E+03  0.73772634739E+03  0.25500000000E-02 0.  1.
          2   -1    0    0  501    0  0.00000000000E+00 -0.00000000000E+00 -0.45814091412E+03  0.45814091413E+03  0.25500000000E-02 0. -1.
    8880023    1    1    2    0    0 -0.22540315291E+03 -0.79525895770E+02 -0.11479017134E+03  0.71001263309E+03  0.65864270000E+03 0. -1.
    8880022    1    1    2    0    0  0.22540315291E+03  0.79525895770E+02  0.39437560461E+03  0.48585462843E+03  0.15294330000E+03 0.  0.
<mgrwt>
<rscale>  0 0.55895361E+03</rscale>
<asrwt>0</asrwt>
<pdfrwt beam="1">  1        2 0.70483219E-01 0.70067193E+03</pdfrwt>
<pdfrwt beam="2">  1       -2 0.11349636E+00 0.70067193E+03</pdfrwt>
<totfact> 0.42117823E+01</totfact>
</mgrwt>
</event>
<event>
 4    1  0.2089815E-007  0.6597559E+03  0.7818608E-02  0.1024408E+00
         -2   -1    0    0    0  501 -0.00000000000E+00  0.00000000000E+00  0.22137638742E+04  0.22137638742E+04  0.25500000000E-02 0.  1.
          2   -1    0    0  501    0  0.00000000000E+00 -0.00000000000E+00 -0.14700589122E+03  0.14700589124E+03  0.25500000000E-02 0. -1.
    8880023    1    1    2    0    0 -0.38188174517E+02  0.30544897989E+01  0.61972486872E+03  0.90517224094E+03  0.65864270000E+03 0. -1.
    8880022    1    1    2    0    0  0.38188174517E+02 -0.30544897989E+01  0.14470331142E+04  0.14555975245E+04  0.15294330000E+03 0.  0.
<mgrwt>
<rscale>  0 0.46128956E+03</rscale>
<asrwt>0</asrwt>
<pdfrwt beam="1">  1        2 0.22616293E-01 0.65975592E+03</pdfrwt>
<pdfrwt beam="2">  1       -2 0.34057903E+00 0.65975592E+03</pdfrwt>
<totfact> 0.46605867E+00</totfact>
</mgrwt>
</event>
<event>
 4    1  0.2089815E-007  0.7389809E+03  0.7818608E-02  0.9862926E-01
         -2   -1    0    0    0  501 -0.00000000000E+00  0.00000000000E+00  0.40653624575E+03  0.40653624576E+03  0.25500000000E-02 0.  1.
          2   -1    0    0  501    0  0.00000000000E+00 -0.00000000000E+00 -0.18565211055E+04  0.18565211055E+04  0.25500000000E-02 0. -1.
    8880023    1    1    2    0    0  0.91110382230E+02  0.32246154739E+03 -0.16754565020E+04  0.18311873874E+04  0.65864270000E+03 0. -1.
    8880022    1    1    2    0    0 -0.91110382230E+02 -0.32246154739E+03  0.22547164221E+03  0.43186996394E+03  0.15294330000E+03 0.  0.
<mgrwt>
<rscale>  0 0.62092203E+03</rscale>
<asrwt>0</asrwt>
<pdfrwt beam="1">  1        2 0.28561863E+00 0.73898089E+03</pdfrwt>
<pdfrwt beam="2">  1       -2 0.62544039E-01 0.73898089E+03</pdfrwt>
<totfact> 0.19652362E+01</totfact>
</mgrwt>
</event>
<event>
 4    1  0.2089815E-007  0.1240149E+04  0.7818608E-02  0.9119049E-01
          2   -1    0    0  501    0  0.00000000000E+00  0.00000000000E+00  0.13806883849E+04  0.13806883849E+04  0.25500000000E-02 0. -1.
         -2   -1    0    0    0  501 -0.00000000000E+00 -0.00000000000E+00 -0.21337287448E+04  0.21337287448E+04  0.25500000000E-02 0.  1.
    8880023    1    1    2    0    0  0.39496390401E+02 -0.10500475062E+04  0.91214657948E+03  0.15394743645E+04  0.65864270000E+03 0.  1.
    8880022    1    1    2    0    0 -0.39496390401E+02  0.10500475062E+04 -0.16651869394E+04  0.19749427653E+04  0.15294330000E+03 0.  0.
<mgrwt>
<rscale>  0 0.11929507E+04</rscale>
<asrwt>0</asrwt>
<pdfrwt beam="1">  1        2 0.21241360E+00 0.12401492E+04</pdfrwt>
<pdfrwt beam="2">  1       -2 0.32826596E+00 0.12401492E+04</pdfrwt>
<totfact> 0.30739169E-01</totfact>
</mgrwt>
</event>
<event>
 4    1  0.2089815E-007  0.1542194E+04  0.7818608E-02  0.8880402E-01
         -2   -1    0    0    0  501 -0.00000000000E+00  0.00000000000E+00  0.15266689451E+04  0.15266689451E+04  0.25500000000E-02 0.  1.
          2   -1    0    0  501    0  0.00000000000E+00 -0.00000000000E+00 -0.26085951182E+04  0.26085951182E+04  0.25500000000E-02 0. -1.
    8880023    1    1    2    0    0  0.13892939160E+04  0.12006223219E+03 -0.19495681821E+04  0.24857954114E+04  0.65864270000E+03 0. -1.
    8880022    1    1    2    0    0 -0.13892939160E+04 -0.12006223219E+03  0.86764200902E+03  0.16494686519E+04  0.15294330000E+03 0.  0.
<mgrwt>
<rscale>  0 0.15061072E+04</rscale>
<asrwt>0</asrwt>
<pdfrwt beam="1">  1        2 0.40132232E+00 0.15421941E+04</pdfrwt>
<pdfrwt beam="2">  1       -2 0.23487215E+00 0.15421941E+04</pdfrwt>
<totfact> 0.22388889E-01</totfact>
</mgrwt>
</event>
<event>
 4    1  0.2089815E-007  0.1110037E+04  0.7818608E-02  0.9249963E-01
          2   -1    0    0  501    0  0.00000000000E+00  0.00000000000E+00  0.13252171247E+04  0.13252171247E+04  0.25500000000E-02 0. -1.
         -2   -1    0    0    0  501 -0.00000000000E+00 -0.00000000000E+00 -0.89415858094E+03  0.89415858094E+03  0.25500000000E-02 0.  1.
    8880023    1    1    2    0    0 -0.24001143295E+03 -0.86067742079E+03  0.65061502667E+03  0.12866550547E+04  0.65864270000E+03 0.  1.
    8880022    1    1    2    0    0  0.24001143295E+03  0.86067742079E+03 -0.21955648287E+03  0.93272065099E+03  0.15294330000E+03 0.  0.
<mgrwt>
<rscale>  0 0.10552280E+04</rscale>
<asrwt>0</asrwt>
<pdfrwt beam="1">  1        2 0.20387956E+00 0.11100366E+04</pdfrwt>
<pdfrwt beam="2">  1       -2 0.13756286E+00 0.11100366E+04</pdfrwt>
<totfact> 0.58959745E+00</totfact>
</mgrwt>
</event>
<event>
 4    1  0.2089815E-007  0.7088468E+03  0.7818608E-02  0.9962309E-01
         -2   -1    0    0    0  501 -0.00000000000E+00  0.00000000000E+00  0.89064649297E+03  0.89064649297E+03  0.25500000000E-02 0.  1.
          2   -1    0    0  501    0  0.00000000000E+00 -0.00000000000E+00 -0.10705691289E+04  0.10705691289E+04  0.25500000000E-02 0. -1.
    8880023    1    1    2    0    0  0.25751187768E+03  0.48385642262E+02 -0.91997664631E+03  0.11613874347E+04  0.65864270000E+03 0. -1.
    8880022    1    1    2    0    0 -0.25751187768E+03 -0.48385642262E+02  0.74005401042E+03  0.79982818710E+03  0.15294330000E+03 0.  0.
<mgrwt>
<rscale>  0 0.57334286E+03</rscale>
<asrwt>0</asrwt>
<pdfrwt beam="1">  1        2 0.16470294E+00 0.70884677E+03</pdfrwt>
<pdfrwt beam="2">  1       -2 0.13702254E+00 0.70884677E+03</pdfrwt>
<totfact> 0.88357774E+00</totfact>
</mgrwt>
</event>
<event>
 4    1  0.2336117E-007  0.1220556E+04  0.7818608E-02  0.9137395E-01
          2   -1    0    0  501    0  0.00000000000E+00  0.00000000000E+00  0.21786108773E+04  0.21786108773E+04  0.25500000000E-02 0. -1.
         -2   -1    0    0    0  501 -0.00000000000E+00 -0.00000000000E+00 -0.15380029756E+04  0.15380029756E+04  0.25500000000E-02 0.  1.
    8880023    1    1    2    0    0 -0.45406520602E+03 -0.92183074075E+03  0.17904763652E+04  0.21669247672E+04  0.65864270000E+03 0.  0.
    8880022    1    1    2    0    0  0.45406520602E+03  0.92183074075E+03 -0.11498684635E+04  0.15496890857E+04  0.15294330000E+03 0.  0.
<mgrwt>
<rscale>  0 0.11723655E+04</rscale>
<asrwt>0</asrwt>
<pdfrwt beam="1">  1        2 0.33517090E+00 0.12205562E+04</pdfrwt>
<pdfrwt beam="2">  1       -2 0.23661584E+00 0.12205562E+04</pdfrwt>
<totfact> 0.40064418E-01</totfact>
</mgrwt>
</event>
<event>
 4    1  0.2089815E-007  0.1367072E+04  0.7818608E-02  0.9009700E-01
          2   -1    0    0  501    0  0.00000000000E+00  0.00000000000E+00  0.33136212743E+04  0.33136212743E+04  0.25500000000E-02 0. -1.
         -2   -1    0    0    0  501 -0.00000000000E+00 -0.00000000000E+00 -0.10658728279E+04  0.10658728279E+04  0.25500000000E-02 0.  1.
    8880023    1    1    2    0    0 -0.87438828101E+02 -0.11947515635E+04  0.27503835973E+04  0.30713998414E+04  0.65864270000E+03 0.  0.
    8880022    1    1    2    0    0  0.87438828101E+02  0.11947515635E+04 -0.50263515089E+03  0.13080942608E+04  0.15294330000E+03 0.  0.
<mgrwt>
<rscale>  0 0.13253506E+04</rscale>
<asrwt>0</asrwt>
<pdfrwt beam="1">  1        2 0.50978788E+00 0.13670724E+04</pdfrwt>
<pdfrwt beam="2">  1       -2 0.16398044E+00 0.13670724E+04</pdfrwt>
<totfact> 0.24807267E-01</totfact>
</mgrwt>
</event>
<event>
 4    1  0.2089815E-007  0.1354303E+04  0.7818608E-02  0.9020030E-01
          2   -1    0    0  501    0  0.00000000000E+00  0.00000000000E+00  0.30777760342E+04  0.30777760342E+04  0.25500000000E-02 0. -1.
         -2   -1    0    0    0  501 -0.00000000000E+00 -0.00000000000E+00 -0.98965563379E+03  0.98965563379E+03  0.25500000000E-02 0.  1.
    8880023    1    1    2    0    0 -0.44729101606E+03  0.10955619144E+04  0.24680487526E+04  0.28152086979E+04  0.65864270000E+03 0.  0.
    8880022    1    1    2    0    0  0.44729101606E+03 -0.10955619144E+04 -0.37992835209E+03  0.12522229702E+04  0.15294330000E+03 0.  0.
<mgrwt>
<rscale>  0 0.13120933E+04</rscale>
<asrwt>0</asrwt>
<pdfrwt beam="1">  1        2 0.47350401E+00 0.13543025E+04</pdfrwt>
<pdfrwt beam="2">  1       -2 0.15225471E+00 0.13543025E+04</pdfrwt>
<totfact> 0.43218680E-01</totfact>
</mgrwt>
</event>
<event>
 4    1  0.2089815E-007  0.8427297E+03  0.7818608E-02  0.9625055E-01
          2   -1    0    0  501    0  0.00000000000E+00  0.00000000000E+00  0.12653554412E+04  0.12653554412E+04  0.25500000000E-02 0. -1.
         -2   -1    0    0    0  501 -0.00000000000E+00 -0.00000000000E+00 -0.55168363254E+03  0.55168363254E+03  0.25500000000E-02 0.  1.
    8880023    1    1    2    0    0 -0.37198494255E+03  0.37149734599E+03  0.90541390893E+03  0.12369186021E+04  0.65864270000E+03 0.  0.
    8880022    1    1    2    0    0  0.37198494255E+03 -0.37149734599E+03 -0.19174210026E+03  0.58012047162E+03  0.15294330000E+03 0.  0.
<mgrwt>
<rscale>  0 0.75659869E+03</rscale>
<asrwt>0</asrwt>
<pdfrwt beam="1">  1        2 0.19467006E+00 0.84272966E+03</pdfrwt>
<pdfrwt beam="2">  1       -2 0.84874406E-01 0.84272966E+03</pdfrwt>
<totfact> 0.21152257E+01</totfact>
</mgrwt>
</event>
<event>
 4    1  0.2089815E-007  0.1986381E+04  0.7818608E-02  0.8625891E-01
          2   -1    0    0  501    0  0.00000000000E+00  0.00000000000E+00  0.28000219310E+04  0.28000219310E+04  0.25500000000E-02 0. -1.
         -2   -1    0    0    0  501 -0.00000000000E+00 -0.00000000000E+00 -0.17993732826E+04  0.17993732826E+04  0.25500000000E-02 0.  1.
    8880023    1    1    2    0    0 -0.95593650732E+03  0.16118575420E+04  0.16786133590E+04  0.26006638301E+04  0.65864270000E+03 0.  0.
    8880022    1    1    2    0    0  0.95593650732E+03 -0.16118575420E+04 -0.67796471055E+03  0.19987313835E+04  0.15294330000E+03 0.  0.
<mgrwt>
<rscale>  0 0.19592961E+04</rscale>
<asrwt>0</asrwt>
<pdfrwt beam="1">  1        2 0.43077260E+00 0.19863810E+04</pdfrwt>
<pdfrwt beam="2">  1       -2 0.27682666E+00 0.19863810E+04</pdfrwt>
<totfact> 0.90390585E-02</totfact>
</mgrwt>
</event>
<event>
 4    1  0.2089815E-007  0.6974103E+03  0.7818608E-02  0.1000812E+00
         -2   -1    0    0    0  501 -0.00000000000E+00  0.00000000000E+00  0.65135069046E+03  0.65135069047E+03  0.25500000000E-02 0.  1.
          2   -1    0    0  501    0  0.00000000000E+00 -0.00000000000E+00 -0.23095403218E+04  0.23095403218E+04  0.25500000000E-02 0. -1.
    8880023    1    1    2    0    0 -0.22049019337E+03 -0.62888706892E+02 -0.22243984662E+04  0.23311648713E+04  0.65864270000E+03 0. -1.
    8880022    1    1    2    0    0  0.22049019337E+03  0.62888706892E+02  0.56620883486E+03  0.62972614089E+03  0.15294330000E+03 0.  0.
<mgrwt>
<rscale>  0 0.55295682E+03</rscale>
<asrwt>0</asrwt>
<pdfrwt beam="1">  1        2 0.35531389E+00 0.69741030E+03</pdfrwt>
<pdfrwt beam="2">  1       -2 0.10020780E+00 0.69741030E+03</pdfrwt>
<totfact> 0.38818250E+00</totfact>
</mgrwt>
</event>
<event>
 4    1  0.2089815E-007  0.8825731E+03  0.7818608E-02  0.9554607E-01
         -2   -1    0    0    0  501 -0.00000000000E+00  0.00000000000E+00  0.46410822798E+03  0.46410822799E+03  0.25500000000E-02 0.  1.
          2   -1    0    0  501    0  0.00000000000E+00 -0.00000000000E+00 -0.16865726977E+04  0.16865726977E+04  0.25500000000E-02 0. -1.
    8880023    1    1    2    0    0 -0.58098939995E+03 -0.87042197712E+02 -0.12646449704E+04  0.15421615137E+04  0.65864270000E+03 0.  0.
    8880022    1    1    2    0    0  0.58098939995E+03  0.87042197712E+02  0.42180500702E+02  0.60851941193E+03  0.15294330000E+03 0.  0.
<mgrwt>
<rscale>  0 0.80374845E+03</rscale>
<asrwt>0</asrwt>
<pdfrwt beam="1">  1        2 0.25947272E+00 0.88257308E+03</pdfrwt>
<pdfrwt beam="2">  1       -2 0.71401266E-01 0.88257308E+03</pdfrwt>
<totfact> 0.17962017E+01</totfact>
</mgrwt>
</event>
<event>
 4    1  0.2089815E-007  0.6753728E+03  0.7818608E-02  0.1012072E+00
         -2   -1    0    0    0  501 -0.00000000000E+00  0.00000000000E+00  0.16841609931E+03  0.16841609933E+03  0.25500000000E-02 0.  1.
          2   -1    0    0  501    0  0.00000000000E+00 -0.00000000000E+00 -0.12492764866E+04  0.12492764866E+04  0.25500000000E-02 0. -1.
    8880023    1    1    2    0    0  0.14541002175E+03 -0.34265166390E+02 -0.95473318396E+03  0.11694630541E+04  0.65864270000E+03 0. -1.
    8880022    1    1    2    0    0 -0.14541002175E+03  0.34265166390E+02 -0.12612720337E+03  0.24822953188E+03  0.15294330000E+03 0.  0.
<mgrwt>
<rscale>  0 0.50659262E+03</rscale>
<asrwt>0</asrwt>
<pdfrwt beam="1">  1        2 0.19219638E+00 0.67537277E+03</pdfrwt>
<pdfrwt beam="2">  1       -2 0.25910170E-01 0.67537277E+03</pdfrwt>
<totfact> 0.24161529E+02</totfact>
</mgrwt>
</event>
<event>
 4    1  0.2089815E-007  0.9233805E+03  0.7818608E-02  0.9489495E-01
          2   -1    0    0  501    0  0.00000000000E+00  0.00000000000E+00  0.27563684862E+04  0.27563684862E+04  0.25500000000E-02 0. -1.
         -2   -1    0    0    0  501 -0.00000000000E+00 -0.00000000000E+00 -0.50205359732E+03  0.50205359732E+03  0.25500000000E-02 0.  1.
    8880023    1    1    2    0    0  0.59773210246E+03  0.24806798214E+03  0.24053476287E+04  0.25764954514E+04  0.65864270000E+03 0.  0.
    8880022    1    1    2    0    0 -0.59773210246E+03 -0.24806798214E+03 -0.15103273980E+03  0.68192663211E+03  0.15294330000E+03 0.  0.
<mgrwt>
<rscale>  0 0.85062761E+03</rscale>
<asrwt>0</asrwt>
<pdfrwt beam="1">  1        2 0.42405668E+00 0.92338053E+03</pdfrwt>
<pdfrwt beam="2">  1       -2 0.77239017E-01 0.92338053E+03</pdfrwt>
<totfact> 0.37749177E+00</totfact>
</mgrwt>
</event>
<event>
 4    1  0.2089815E-007  0.7753554E+03  0.7818608E-02  0.9766862E-01
          2   -1    0    0  501    0  0.00000000000E+00  0.00000000000E+00  0.24399737855E+04  0.24399737855E+04  0.25500000000E-02 0. -1.
         -2   -1    0    0    0  501 -0.00000000000E+00 -0.00000000000E+00 -0.41283548528E+03  0.41283548529E+03  0.25500000000E-02 0.  1.
    8880023    1    1    2    0    0  0.38197643347E+03 -0.14649181502E+03  0.22374985600E+04  0.23680320648E+04  0.65864270000E+03 0. -1.
    8880022    1    1    2    0    0 -0.38197643347E+03  0.14649181502E+03 -0.21036025975E+03  0.48477720604E+03  0.15294330000E+03 0.  0.
<mgrwt>
<rscale>  0 0.67171621E+03</rscale>
<asrwt>0</asrwt>
<pdfrwt beam="1">  1        2 0.37538057E+00 0.77535544E+03</pdfrwt>
<pdfrwt beam="2">  1       -2 0.63513153E-01 0.77535544E+03</pdfrwt>
<totfact> 0.90214722E+00</totfact>
</mgrwt>
</event>
<event>
 4    1  0.2089815E-007  0.8508127E+03  0.7818608E-02  0.9610119E-01
         -2   -1    0    0    0  501 -0.00000000000E+00  0.00000000000E+00  0.12395722988E+03  0.12395722990E+03  0.25500000000E-02 0.  1.
          2   -1    0    0  501    0  0.00000000000E+00 -0.00000000000E+00 -0.45461221377E+04  0.45461221377E+04  0.25500000000E-02 0. -1.
    8880023    1    1    2    0    0  0.18434723298E+03  0.50605160293E+03 -0.33977107635E+04  0.35026162744E+04  0.65864270000E+03 0. -1.
    8880022    1    1    2    0    0 -0.18434723298E+03 -0.50605160293E+03 -0.10244541443E+04  0.11674630932E+04  0.15294330000E+03 0.  1.
<mgrwt>
<rscale>  0 0.76630015E+03</rscale>
<asrwt>0</asrwt>
<pdfrwt beam="1">  1        2 0.69940328E+00 0.85081275E+03</pdfrwt>
<pdfrwt beam="2">  1       -2 0.19070347E-01 0.85081275E+03</pdfrwt>
<totfact> 0.28529313E+00</totfact>
</mgrwt>
</event>
<event>
 4    1  0.2089815E-007  0.7875768E+03  0.7818608E-02  0.9738331E-01
         -2   -1    0    0    0  501 -0.00000000000E+00  0.00000000000E+00  0.42984977034E+03  0.42984977035E+03  0.25500000000E-02 0.  1.
          2   -1    0    0  501    0  0.00000000000E+00 -0.00000000000E+00 -0.10405275920E+04  0.10405275920E+04  0.25500000000E-02 0. -1.
    8880023    1    1    2    0    0 -0.41430356511E+03  0.12173542758E+03 -0.11584767041E+03  0.79605141002E+03  0.65864270000E+03 0.  0.
    8880022    1    1    2    0    0  0.41430356511E+03 -0.12173542758E+03 -0.49483015125E+03  0.67432595233E+03  0.15294330000E+03 0.  0.
<mgrwt>
<rscale>  0 0.68779739E+03</rscale>
<asrwt>0</asrwt>
<pdfrwt beam="1">  1        2 0.16008117E+00 0.78757677E+03</pdfrwt>
<pdfrwt beam="2">  1       -2 0.66130734E-01 0.78757677E+03</pdfrwt>
<totfact> 0.50549432E+01</totfact>
</mgrwt>
</event>
<event>
 4    1  0.2089815E-007  0.9335194E+03  0.7818608E-02  0.9474233E-01
         -2   -1    0    0    0  501 -0.00000000000E+00  0.00000000000E+00  0.40248416534E+03  0.40248416535E+03  0.25500000000E-02 0.  1.
          2   -1    0    0  501    0  0.00000000000E+00 -0.00000000000E+00 -0.36011229716E+04  0.36011229716E+04  0.25500000000E-02 0. -1.
    8880023    1    1    2    0    0 -0.37787468186E+03  0.54300916672E+03 -0.31908085891E+04  0.33245628117E+04  0.65864270000E+03 0. -1.
    8880022    1    1    2    0    0  0.37787468186E+03 -0.54300916672E+03 -0.78302171397E+01  0.67904432525E+03  0.15294330000E+03 0.  0.
<mgrwt>
<rscale>  0 0.86210431E+03</rscale>
<asrwt>0</asrwt>
<pdfrwt beam="1">  1        2 0.55401890E+00 0.93351938E+03</pdfrwt>
<pdfrwt beam="2">  1       -2 0.61920643E-01 0.93351938E+03</pdfrwt>
<totfact> 0.17561096E+00</totfact>
</mgrwt>
</event>
<event>
 4    1  0.2089815E-007  0.7143759E+03  0.7818608E-02  0.9942097E-01
         -2   -1    0    0    0  501 -0.00000000000E+00  0.00000000000E+00  0.70062061035E+03  0.70062061036E+03  0.25500000000E-02 0.  1.
          2   -1    0    0  501    0  0.00000000000E+00 -0.00000000000E+00 -0.87529373745E+03  0.87529373745E+03  0.25500000000E-02 0. -1.
    8880023    1    1    2    0    0 -0.20888538925E+03  0.18135477374E+03 -0.67582924177E+03  0.98340125590E+03  0.65864270000E+03 0.  0.
    8880022    1    1    2    0    0  0.20888538925E+03 -0.18135477374E+03  0.50115611467E+03  0.59251309191E+03  0.15294330000E+03 0.  0.
<mgrwt>
<rscale>  0 0.58263764E+03</rscale>
<asrwt>0</asrwt>
<pdfrwt beam="1">  1        2 0.13466057E+00 0.71437586E+03</pdfrwt>
<pdfrwt beam="2">  1       -2 0.10778779E+00 0.71437586E+03</pdfrwt>
<totfact> 0.21432898E+01</totfact>
</mgrwt>
</event>
<event>
 4    1  0.2089815E-007  0.1037163E+04  0.7818608E-02  0.9334474E-01
         -2   -1    0    0    0  501 -0.00000000000E+00  0.00000000000E+00  0.11190933399E+04  0.11190933399E+04  0.25500000000E-02 0.  1.
          2   -1    0    0  501    0  0.00000000000E+00 -0.00000000000E+00 -0.78780236450E+03  0.78780236450E+03  0.25500000000E-02 0. -1.
    8880023    1    1    2    0    0 -0.79699242886E+03 -0.81858365797E+02  0.33914706287E+03  0.10912051412E+04  0.65864270000E+03 0.  0.
    8880022    1    1    2    0    0  0.79699242886E+03  0.81858365797E+02 -0.78560874758E+01  0.81569056317E+03  0.15294330000E+03 0.  0.
<mgrwt>
<rscale>  0 0.97670118E+03</rscale>
<asrwt>0</asrwt>
<pdfrwt beam="1">  1        2 0.12120036E+00 0.10371634E+04</pdfrwt>
<pdfrwt beam="2">  1       -2 0.17216821E+00 0.10371634E+04</pdfrwt>
<totfact> 0.71504267E+00</totfact>
</mgrwt>
</event>
<event>
 4    1  0.2089815E-007  0.7433583E+03  0.7818608E-02  0.9850270E-01
          2   -1    0    0  501    0  0.00000000000E+00  0.00000000000E+00  0.30173330798E+04  0.30173330798E+04  0.25500000000E-02 0. -1.
         -2   -1    0    0    0  501 -0.00000000000E+00 -0.00000000000E+00 -0.26772831509E+03  0.26772831510E+03  0.25500000000E-02 0.  1.
    8880023    1    1    2    0    0 -0.34148917517E+03  0.46437793376E+02  0.28069207252E+04  0.29036848123E+04  0.65864270000E+03 0. -1.
    8880022    1    1    2    0    0  0.34148917517E+03 -0.46437793376E+02 -0.57315960475E+02  0.38137658260E+03  0.15294330000E+03 0.  0.
<mgrwt>
<rscale>  0 0.62733129E+03</rscale>
<asrwt>0</asrwt>
<pdfrwt beam="1">  1        2 0.46420510E+00 0.74335828E+03</pdfrwt>
<pdfrwt beam="2">  1       -2 0.41188971E-01 0.74335828E+03</pdfrwt>
<totfact> 0.10096557E+01</totfact>
</mgrwt>
</event>
<event>
 4    1  0.2089815E-007  0.8765862E+03  0.7818608E-02  0.9564715E-01
          2   -1    0    0  501    0  0.00000000000E+00  0.00000000000E+00  0.22025859714E+04  0.22025859714E+04  0.25500000000E-02 0. -1.
         -2   -1    0    0    0  501 -0.00000000000E+00 -0.00000000000E+00 -0.31975286583E+03  0.31975286585E+03  0.25500000000E-02 0.  1.
    8880023    1    1    2    0    0 -0.34427693356E+03  0.46482950431E+03  0.48494089403E+03  0.10017838849E+04  0.65864270000E+03 0.  0.
    8880022    1    1    2    0    0  0.34427693356E+03 -0.46482950431E+03  0.13978922116E+04  0.15205549524E+04  0.15294330000E+03 0.  0.
<mgrwt>
<rscale>  0 0.79676274E+03</rscale>
<asrwt>0</asrwt>
<pdfrwt beam="1">  1        2 0.33885937E+00 0.87658615E+03</pdfrwt>
<pdfrwt beam="2">  1       -2 0.49192750E-01 0.87658615E+03</pdfrwt>
<totfact> 0.20559540E+01</totfact>
</mgrwt>
</event>
<event>
 4    1  0.2089815E-007  0.1125915E+04  0.7818608E-02  0.9232737E-01
         -2   -1    0    0    0  501 -0.00000000000E+00  0.00000000000E+00  0.60290833173E+03  0.60290833173E+03  0.25500000000E-02 0.  1.
          2   -1    0    0  501    0  0.00000000000E+00 -0.00000000000E+00 -0.20160348211E+04  0.20160348211E+04  0.25500000000E-02 0. -1.
    8880023    1    1    2    0    0  0.91316686034E+03  0.23299004567E+00 -0.12437777411E+04  0.16776969466E+04  0.65864270000E+03 0.  0.
    8880022    1    1    2    0    0 -0.91316686034E+03 -0.23299004567E+00 -0.16934874821E+03  0.94124620618E+03  0.15294330000E+03 0.  0.
<mgrwt>
<rscale>  0 0.10721821E+04</rscale>
<asrwt>0</asrwt>
<pdfrwt beam="1">  1        2 0.31015920E+00 0.11259147E+04</pdfrwt>
<pdfrwt beam="2">  1       -2 0.92755129E-01 0.11259147E+04</pdfrwt>
<totfact> 0.63690319E+00</totfact>
</mgrwt>
</event>
<event>
 4    1  0.2089815E-007  0.1191487E+04  0.7818608E-02  0.9165442E-01
         -2   -1    0    0    0  501 -0.00000000000E+00  0.00000000000E+00  0.17574136131E+04  0.17574136131E+04  0.25500000000E-02 0.  1.
          2   -1    0    0  501    0  0.00000000000E+00 -0.00000000000E+00 -0.28547295211E+04  0.28547295211E+04  0.25500000000E-02 0. -1.
    8880023    1    1    2    0    0  0.16508349649E+03 -0.97907024589E+03 -0.25680846351E+04  0.28310245506E+04  0.65864270000E+03 0.  0.
    8880022    1    1    2    0    0 -0.16508349649E+03  0.97907024589E+03  0.14707687271E+04  0.17811185836E+04  0.15294330000E+03 0.  0.
<mgrwt>
<rscale>  0 0.11417351E+04</rscale>
<asrwt>0</asrwt>
<pdfrwt beam="1">  1        2 0.43918916E+00 0.11914870E+04</pdfrwt>
<pdfrwt beam="2">  1       -2 0.27037133E+00 0.11914870E+04</pdfrwt>
<totfact> 0.10172409E-01</totfact>
</mgrwt>
</event>
<event>
 4    1  0.2089815E-007  0.7328679E+03  0.7818608E-02  0.9881232E-01
         -2   -1    0    0    0  501 -0.00000000000E+00  0.00000000000E+00  0.47044804265E+03  0.47044804265E+03  0.25500000000E-02 0.  1.
          2   -1    0    0  501    0  0.00000000000E+00 -0.00000000000E+00 -0.70254088713E+03  0.70254088713E+03  0.25500000000E-02 0. -1.
    8880023    1    1    2    0    0  0.31265247302E+03  0.74387783207E+02 -0.33016710384E+03  0.80380696308E+03  0.65864270000E+03 0.  0.
    8880022    1    1    2    0    0 -0.31265247302E+03 -0.74387783207E+02  0.98074259356E+02  0.36918196671E+03  0.15294330000E+03 0.  0.
<mgrwt>
<rscale>  0 0.61179565E+03</rscale>
<asrwt>0</asrwt>
<pdfrwt beam="1">  1        2 0.10808321E+00 0.73286787E+03</pdfrwt>
<pdfrwt beam="2">  1       -2 0.72376622E-01 0.73286787E+03</pdfrwt>
<totfact> 0.71425666E+01</totfact>
</mgrwt>
</event>
<event>
 4    1  0.2089815E-007  0.6718727E+03  0.7818608E-02  0.1014354E+00
         -2   -1    0    0    0  501 -0.00000000000E+00  0.00000000000E+00  0.13388322809E+03  0.13388322812E+03  0.25500000000E-02 0.  1.
          2   -1    0    0  501    0  0.00000000000E+00 -0.00000000000E+00 -0.18909906813E+04  0.18909906813E+04  0.25500000000E-02 0. -1.
    8880023    1    1    2    0    0  0.86883185909E+02 -0.10026983218E+03 -0.16779761758E+04  0.18074891369E+04  0.65864270000E+03 0. -1.
    8880022    1    1    2    0    0 -0.86883185909E+02  0.10026983218E+03 -0.79131277408E+02  0.21738477251E+03  0.15294330000E+03 0.  0.
<mgrwt>
<rscale>  0 0.49780103E+03</rscale>
<asrwt>0</asrwt>
<pdfrwt beam="1">  1        2 0.29092162E+00 0.67187271E+03</pdfrwt>
<pdfrwt beam="2">  1       -2 0.20597421E-01 0.67187271E+03</pdfrwt>
<totfact> 0.16031962E+02</totfact>
</mgrwt>
</event>
<event>
 4    1  0.2089815E-007  0.9956973E+03  0.7818608E-02  0.9387209E-01
         -2   -1    0    0    0  501 -0.00000000000E+00  0.00000000000E+00  0.51279091348E+03  0.51279091348E+03  0.25500000000E-02 0.  1.
          2   -1    0    0  501    0  0.00000000000E+00 -0.00000000000E+00 -0.19269653005E+04  0.19269653005E+04  0.25500000000E-02 0. -1.
    8880023    1    1    2    0    0  0.70217927988E+03  0.25406115723E+03 -0.13463199700E+04  0.16745120126E+04  0.65864270000E+03 0.  0.
    8880022    1    1    2    0    0 -0.70217927988E+03 -0.25406115723E+03 -0.67854417024E+02  0.76524420130E+03  0.15294330000E+03 0.  0.
<mgrwt>
<rscale>  0 0.93135871E+03</rscale>
<asrwt>0</asrwt>
<pdfrwt beam="1">  1        2 0.29645620E+00 0.99569725E+03</pdfrwt>
<pdfrwt beam="2">  1       -2 0.78890911E-01 0.99569725E+03</pdfrwt>
<totfact> 0.10482604E+01</totfact>
</mgrwt>
</event>
<event>
 4    1  0.2089815E-007  0.1155086E+04  0.7818608E-02  0.9202068E-01
          2   -1    0    0  501    0  0.00000000000E+00  0.00000000000E+00  0.16829411032E+04  0.16829411032E+04  0.25500000000E-02 0. -1.
         -2   -1    0    0    0  501 -0.00000000000E+00 -0.00000000000E+00 -0.11113570225E+04  0.11113570225E+04  0.25500000000E-02 0.  1.
    8880023    1    1    2    0    0 -0.72722332399E+03 -0.60955721415E+03  0.11844095402E+04  0.16544031932E+04  0.65864270000E+03 0. -1.
    8880022    1    1    2    0    0  0.72722332399E+03  0.60955721415E+03 -0.61282545960E+03  0.11398949325E+04  0.15294330000E+03 0.  0.
<mgrwt>
<rscale>  0 0.11032104E+04</rscale>
<asrwt>0</asrwt>
<pdfrwt beam="1">  1        2 0.25891402E+00 0.11550861E+04</pdfrwt>
<pdfrwt beam="2">  1       -2 0.17097800E+00 0.11550861E+04</pdfrwt>
<totfact> 0.20512734E+00</totfact>
</mgrwt>
</event>
<event>
 4    1  0.2089815E-007  0.7652972E+03  0.7818608E-02  0.9791582E-01
         -2   -1    0    0    0  501 -0.00000000000E+00  0.00000000000E+00  0.14171037005E+04  0.14171037005E+04  0.25500000000E-02 0.  1.
          2   -1    0    0  501    0  0.00000000000E+00 -0.00000000000E+00 -0.26014496168E+03  0.26014496169E+03  0.25500000000E-02 0. -1.
    8880023    1    1    2    0    0 -0.38850989105E+03  0.30490066432E+02  0.56078327163E+03  0.94876639042E+03  0.65864270000E+03 0.  0.
    8880022    1    1    2    0    0  0.38850989105E+03 -0.30490066432E+02  0.59617546721E+03  0.72848227179E+03  0.15294330000E+03 0.  0.
<mgrwt>
<rscale>  0 0.65816278E+03</rscale>
<asrwt>0</asrwt>
<pdfrwt beam="1">  1        2 0.40022301E-01 0.76529719E+03</pdfrwt>
<pdfrwt beam="2">  1       -2 0.21801596E+00 0.76529719E+03</pdfrwt>
<totfact> 0.13340588E+01</totfact>
</mgrwt>
</event>
<event>
 4    1  0.2089815E-007  0.8312746E+03  0.7818608E-02  0.9646858E-01
          2   -1    0    0  501    0  0.00000000000E+00  0.00000000000E+00  0.14568736408E+04  0.14568736408E+04  0.25500000000E-02 0. -1.
         -2   -1    0    0    0  501 -0.00000000000E+00 -0.00000000000E+00 -0.60692531661E+03  0.60692531662E+03  0.25500000000E-02 0.  1.
    8880023    1    1    2    0    0  0.24816661680E+03  0.44229014696E+03  0.11772243212E+04  0.14411365489E+04  0.65864270000E+03 0. -1.
    8880022    1    1    2    0    0 -0.24816661680E+03 -0.44229014696E+03 -0.32727599702E+03  0.62266240855E+03  0.15294330000E+03 0.  0.
<mgrwt>
<rscale>  0 0.74270975E+03</rscale>
<asrwt>0</asrwt>
<pdfrwt beam="1">  1        2 0.22413441E+00 0.83127459E+03</pdfrwt>
<pdfrwt beam="2">  1       -2 0.93373125E-01 0.83127459E+03</pdfrwt>
<totfact> 0.13206951E+01</totfact>
</mgrwt>
</event>
<event>
 4    1  0.2089815E-007  0.7941456E+03  0.7818608E-02  0.9723600E-01
          2   -1    0    0  501    0  0.00000000000E+00  0.00000000000E+00  0.19726221339E+04  0.19726221339E+04  0.25500000000E-02 0. -1.
         -2   -1    0    0    0  501 -0.00000000000E+00 -0.00000000000E+00 -0.41642542149E+03  0.41642542150E+03  0.25500000000E-02 0.  1.
    8880023    1    1    2    0    0  0.42308992223E+03 -0.13361108205E+03  0.17179705663E+04  0.18926410321E+04  0.65864270000E+03 0.  0.
    8880022    1    1    2    0    0 -0.42308992223E+03  0.13361108205E+03 -0.16177385389E+03  0.49640652328E+03  0.15294330000E+03 0.  0.
<mgrwt>
<rscale>  0 0.69628855E+03</rscale>
<asrwt>0</asrwt>
<pdfrwt beam="1">  1        2 0.30348033E+00 0.79414558E+03</pdfrwt>
<pdfrwt beam="2">  1       -2 0.64065449E-01 0.79414558E+03</pdfrwt>
<totfact> 0.16016436E+01</totfact>
</mgrwt>
</event>
<event>
 4    1  0.2089815E-007  0.1896474E+04  0.7818608E-02  0.8670968E-01
          2   -1    0    0  501    0  0.00000000000E+00  0.00000000000E+00  0.37773468062E+04  0.37773468062E+04  0.25500000000E-02 0. -1.
         -2   -1    0    0    0  501 -0.00000000000E+00 -0.00000000000E+00 -0.13394463393E+04  0.13394463393E+04  0.25500000000E-02 0.  1.
    8880023    1    1    2    0    0  0.90320263762E+03 -0.15320009574E+04  0.27136113815E+04  0.33106342102E+04  0.65864270000E+03 0.  0.
    8880022    1    1    2    0    0 -0.90320263762E+03  0.15320009574E+04 -0.27571091452E+03  0.18061589353E+04  0.15294330000E+03 0.  0.
<mgrwt>
<rscale>  0 0.18679667E+04</rscale>
<asrwt>0</asrwt>
<pdfrwt beam="1">  1        2 0.58113027E+00 0.18964736E+04</pdfrwt>
<pdfrwt beam="2">  1       -2 0.20606867E+00 0.18964736E+04</pdfrwt>
<totfact> 0.56101121E-02</totfact>
</mgrwt>
</event>
<event>
 4    1  0.2089815E-007  0.6723345E+03  0.7818608E-02  0.1014042E+00
         -2   -1    0    0    0  501 -0.00000000000E+00  0.00000000000E+00  0.88064548868E+03  0.88064548868E+03  0.25500000000E-02 0.  1.
          2   -1    0    0  501    0  0.00000000000E+00 -0.00000000000E+00 -0.17506960723E+04  0.17506960723E+04  0.25500000000E-02 0. -1.
    8880023    1    1    2    0    0 -0.13026933499E+03 -0.35403138445E+02 -0.16729160789E+04  0.18029647515E+04  0.65864270000E+03 0. -1.
    8880022    1    1    2    0    0  0.13026933499E+03  0.35403138445E+02  0.80286549531E+03  0.82837680945E+03  0.15294330000E+03 0.  0.
<mgrwt>
<rscale>  0 0.49899416E+03</rscale>
<asrwt>0</asrwt>
<pdfrwt beam="1">  1        2 0.26933786E+00 0.67233451E+03</pdfrwt>
<pdfrwt beam="2">  1       -2 0.13548392E+00 0.67233451E+03</pdfrwt>
<totfact> 0.37546906E+00</totfact>
</mgrwt>
</event>
<event>
 4    1  0.2089815E-007  0.6701208E+03  0.7818608E-02  0.1015576E+00
         -2   -1    0    0    0  501 -0.00000000000E+00  0.00000000000E+00  0.77282993079E+02  0.77282993121E+02  0.25500000000E-02 0.  1.
          2   -1    0    0  501    0  0.00000000000E+00 -0.00000000000E+00 -0.24313910739E+04  0.24313910739E+04  0.25500000000E-02 0. -1.
    8880023    1    1    2    0    0 -0.13390062974E+02  0.12276959534E+03 -0.18455474952E+04  0.19634427495E+04  0.65864270000E+03 0.  1.
    8880022    1    1    2    0    0  0.13390062974E+02 -0.12276959534E+03 -0.50856058563E+03  0.54523131752E+03  0.15294330000E+03 0.  0.
<mgrwt>
<rscale>  0 0.49317281E+03</rscale>
<asrwt>0</asrwt>
<pdfrwt beam="1">  1        2 0.37406011E+00 0.67012079E+03</pdfrwt>
<pdfrwt beam="2">  1       -2 0.11889693E-01 0.67012079E+03</pdfrwt>
<totfact> 0.20582430E+02</totfact>
</mgrwt>
</event>
<event>
 4    1  0.2089815E-007  0.1393852E+04  0.7818608E-02  0.8988475E-01
         -2   -1    0    0    0  501 -0.00000000000E+00  0.00000000000E+00  0.14681337045E+04  0.14681337045E+04  0.25500000000E-02 0.  1.
          2   -1    0    0  501    0  0.00000000000E+00 -0.00000000000E+00 -0.18680684103E+04  0.18680684103E+04  0.25500000000E-02 0. -1.
    8880023    1    1    2    0    0 -0.10733965176E+04 -0.59735485164E+03  0.80423691104E+03  0.16092296661E+04  0.65864270000E+03 0.  1.
    8880022    1    1    2    0    0  0.10733965176E+04  0.59735485164E+03 -0.12041716168E+04  0.17269724487E+04  0.15294330000E+03 0.  0.
<mgrwt>
<rscale>  0 0.13531133E+04</rscale>
<asrwt>0</asrwt>
<pdfrwt beam="1">  1        2 0.28739514E+00 0.13938519E+04</pdfrwt>
<pdfrwt beam="2">  1       -2 0.22586672E+00 0.13938519E+04</pdfrwt>
<totfact> 0.68135220E-01</totfact>
</mgrwt>
</event>
<event>
 4    1  0.2089815E-007  0.7461879E+03  0.7818608E-02  0.9842275E-01
         -2   -1    0    0    0  501 -0.00000000000E+00  0.00000000000E+00  0.78593630210E+03  0.78593630210E+03  0.25500000000E-02 0.  1.
          2   -1    0    0  501    0  0.00000000000E+00 -0.00000000000E+00 -0.36962155894E+04  0.36962155894E+04  0.25500000000E-02 0. -1.
    8880023    1    1    2    0    0  0.34936835830E+03  0.30461272909E+02 -0.36091123523E+04  0.36854427572E+04  0.65864270000E+03 0. -1.
    8880022    1    1    2    0    0 -0.34936835830E+03 -0.30461272909E+02  0.69883306499E+03  0.79670913429E+03  0.15294330000E+03 0.  0.
<mgrwt>
<rscale>  0 0.63142321E+03</rscale>
<asrwt>0</asrwt>
<pdfrwt beam="1">  1        2 0.56864854E+00 0.74618788E+03</pdfrwt>
<pdfrwt beam="2">  1       -2 0.12091328E+00 0.74618788E+03</pdfrwt>
<totfact> 0.33667174E-01</totfact>
</mgrwt>
</event>
<event>
 4    1  0.2089815E-007  0.7039174E+03  0.7818608E-02  0.9981323E-01
          2   -1    0    0  501    0  0.00000000000E+00  0.00000000000E+00  0.23245401144E+04  0.23245401144E+04  0.25500000000E-02 0. -1.
         -2   -1    0    0    0  501 -0.00000000000E+00 -0.00000000000E+00 -0.22400873328E+03  0.22400873330E+03  0.25500000000E-02 0.  1.
    8880023    1    1    2    0    0 -0.12777696746E+03  0.21298472340E+03  0.21412942756E+04  0.22540276899E+04  0.65864270000E+03 0. -1.
    8880022    1    1    2    0    0  0.12777696746E+03 -0.21298472340E+03 -0.40762894484E+02  0.29452115781E+03  0.15294330000E+03 0.  0.
<mgrwt>
<rscale>  0 0.56476841E+03</rscale>
<asrwt>0</asrwt>
<pdfrwt beam="1">  1        2 0.35762156E+00 0.70391736E+03</pdfrwt>
<pdfrwt beam="2">  1       -2 0.34462881E-01 0.70391736E+03</pdfrwt>
<totfact> 0.36202829E+01</totfact>
</mgrwt>
</event>
<event>
 4    1  0.2089815E-007  0.7963116E+03  0.7818608E-02  0.9718829E-01
         -2   -1    0    0    0  501 -0.00000000000E+00  0.00000000000E+00  0.10264161972E+04  0.10264161972E+04  0.25500000000E-02 0.  1.
          2   -1    0    0  501    0  0.00000000000E+00 -0.00000000000E+00 -0.17687917662E+04  0.17687917662E+04  0.25500000000E-02 0. -1.
    8880023    1    1    2    0    0 -0.11446935292E+03 -0.43266470709E+03 -0.16161276817E+04  0.18016605872E+04  0.65864270000E+03 0. -1.
    8880022    1    1    2    0    0  0.11446935292E+03  0.43266470709E+03  0.87375211266E+03  0.99354737628E+03  0.15294330000E+03 0.  0.
<mgrwt>
<rscale>  0 0.69906731E+03</rscale>
<asrwt>0</asrwt>
<pdfrwt beam="1">  1        2 0.27212181E+00 0.79631161E+03</pdfrwt>
<pdfrwt beam="2">  1       -2 0.15791018E+00 0.79631161E+03</pdfrwt>
<totfact> 0.24026977E+00</totfact>
</mgrwt>
</event>
<event>
 4    1  0.2089815E-007  0.9268990E+03  0.7818608E-02  0.9484161E-01
         -2   -1    0    0    0  501 -0.00000000000E+00  0.00000000000E+00  0.43984864867E+03  0.43984864868E+03  0.25500000000E-02 0.  1.
          2   -1    0    0  501    0  0.00000000000E+00 -0.00000000000E+00 -0.30451666906E+04  0.30451666906E+04  0.25500000000E-02 0. -1.
    8880023    1    1    2    0    0 -0.21994408136E+03  0.61396750100E+03 -0.26561396124E+04  0.28132222341E+04  0.65864270000E+03 0.  0.
    8880022    1    1    2    0    0  0.21994408136E+03 -0.61396750100E+03  0.50821570485E+02  0.67179310524E+03  0.15294330000E+03 0.  0.
<mgrwt>
<rscale>  0 0.85461716E+03</rscale>
<asrwt>0</asrwt>
<pdfrwt beam="1">  1        2 0.46848717E+00 0.92689897E+03</pdfrwt>
<pdfrwt beam="2">  1       -2 0.67669025E-01 0.92689897E+03</pdfrwt>
<totfact> 0.33777746E+00</totfact>
</mgrwt>
</event>
<event>
 4    1  0.2089815E-007  0.8709067E+03  0.7818608E-02  0.9574449E-01
          2   -1    0    0  501    0  0.00000000000E+00  0.00000000000E+00  0.27410297476E+04  0.27410297476E+04  0.25500000000E-02 0. -1.
         -2   -1    0    0    0  501 -0.00000000000E+00 -0.00000000000E+00 -0.10851532392E+04  0.10851532392E+04  0.25500000000E-02 0.  1.
    8880023    1    1    2    0    0  0.24675576454E+03  0.51359496904E+03  0.25837794581E+04  0.27266086434E+04  0.65864270000E+03 0.  0.
    8880022    1    1    2    0    0 -0.24675576454E+03 -0.51359496904E+03 -0.92790294972E+03  0.10995743434E+04  0.15294330000E+03 0.  1.
<mgrwt>
<rscale>  0 0.79010616E+03</rscale>
<asrwt>0</asrwt>
<pdfrwt beam="1">  1        2 0.42169688E+00 0.87090666E+03</pdfrwt>
<pdfrwt beam="2">  1       -2 0.16694665E+00 0.87090666E+03</pdfrwt>
<totfact> 0.58204041E-01</totfact>
</mgrwt>
</event>
<event>
 4    1  0.2089815E-007  0.9196407E+03  0.7818608E-02  0.9495210E-01
         -2   -1    0    0    0  501 -0.00000000000E+00  0.00000000000E+00  0.39549773561E+03  0.39549773561E+03  0.25500000000E-02 0.  1.
          2   -1    0    0  501    0  0.00000000000E+00 -0.00000000000E+00 -0.18445758478E+04  0.18445758478E+04  0.25500000000E-02 0. -1.
    8880023    1    1    2    0    0  0.70670253004E+02  0.63791423933E+03 -0.12481663700E+04  0.15503736178E+04  0.65864270000E+03 0.  0.
    8880022    1    1    2    0    0 -0.70670253004E+02 -0.63791423933E+03 -0.20091174223E+03  0.68969996562E+03  0.15294330000E+03 0.  0.
<mgrwt>
<rscale>  0 0.84637882E+03</rscale>
<asrwt>0</asrwt>
<pdfrwt beam="1">  1        2 0.28378089E+00 0.91964073E+03</pdfrwt>
<pdfrwt beam="2">  1       -2 0.60845807E-01 0.91964073E+03</pdfrwt>
<totfact> 0.20697340E+01</totfact>
</mgrwt>
</event>
<event>
 4    1  0.2089815E-007  0.1001894E+04  0.7818608E-02  0.9379084E-01
         -2   -1    0    0    0  501 -0.00000000000E+00  0.00000000000E+00  0.96301989052E+03  0.96301989053E+03  0.25500000000E-02 0.  1.
          2   -1    0    0  501    0  0.00000000000E+00 -0.00000000000E+00 -0.10141733029E+04  0.10141733029E+04  0.25500000000E-02 0. -1.
    8880023    1    1    2    0    0 -0.23799071285E+03 -0.71647885711E+03 -0.46299613489E+03  0.11037015717E+04  0.65864270000E+03 0. -1.
    8880022    1    1    2    0    0  0.23799071285E+03  0.71647885711E+03  0.41184272256E+03  0.87349162173E+03  0.15294330000E+03 0.  0.
<mgrwt>
<rscale>  0 0.93817174E+03</rscale>
<asrwt>0</asrwt>
<pdfrwt beam="1">  1        2 0.15602666E+00 0.10018941E+04</pdfrwt>
<pdfrwt beam="2">  1       -2 0.14815691E+00 0.10018941E+04</pdfrwt>
<totfact> 0.75689956E+00</totfact>
</mgrwt>
</event>
<event>
 4    1  0.2089815E-007  0.1117899E+04  0.7818608E-02  0.9241385E-01
         -2   -1    0    0    0  501 -0.00000000000E+00  0.00000000000E+00  0.80775156150E+03  0.80775156150E+03  0.25500000000E-02 0.  1.
          2   -1    0    0  501    0  0.00000000000E+00 -0.00000000000E+00 -0.21813796758E+04  0.21813796758E+04  0.25500000000E-02 0. -1.
    8880023    1    1    2    0    0  0.63860250646E+03  0.63880760775E+03 -0.16845077274E+04  0.20216984966E+04  0.65864270000E+03 0.  0.
    8880022    1    1    2    0    0 -0.63860250646E+03 -0.63880760775E+03  0.31087961312E+03  0.96743274074E+03  0.15294330000E+03 0.  0.
<mgrwt>
<rscale>  0 0.10636294E+04</rscale>
<asrwt>0</asrwt>
<pdfrwt beam="1">  1        2 0.33559687E+00 0.11178992E+04</pdfrwt>
<pdfrwt beam="2">  1       -2 0.12426947E+00 0.11178992E+04</pdfrwt>
<totfact> 0.25390899E+00</totfact>
</mgrwt>
</event>
<event>
 4    1  0.2089815E-007  0.9013857E+03  0.7818608E-02  0.9523811E-01
         -2   -1    0    0    0  501 -0.00000000000E+00  0.00000000000E+00  0.25462656825E+03  0.25462656826E+03  0.25500000000E-02 0.  1.
          2   -1    0    0  501    0  0.00000000000E+00 -0.00000000000E+00 -0.23801442700E+04  0.23801442700E+04  0.25500000000E-02 0. -1.
    8880023    1    1    2    0    0  0.54134360251E+03 -0.29263144695E+03 -0.14576187917E+04  0.17138111938E+04  0.65864270000E+03 0. -1.
    8880022    1    1    2    0    0 -0.54134360251E+03  0.29263144695E+03 -0.66789891005E+03  0.92095964449E+03  0.15294330000E+03 0.  0.
<mgrwt>
<rscale>  0 0.82550891E+03</rscale>
<asrwt>0</asrwt>
<pdfrwt beam="1">  1        2 0.36617603E+00 0.90138575E+03</pdfrwt>
<pdfrwt beam="2">  1       -2 0.39173320E-01 0.90138575E+03</pdfrwt>
<totfact> 0.25672135E+01</totfact>
</mgrwt>
</event>
<event>
 4    1  0.2089815E-007  0.1563866E+04  0.7818608E-02  0.8865806E-01
          2   -1    0    0  501    0  0.00000000000E+00  0.00000000000E+00  0.30470629498E+04  0.30470629498E+04  0.25500000000E-02 0. -1.
         -2   -1    0    0    0  501 -0.00000000000E+00 -0.00000000000E+00 -0.19654218841E+04  0.19654218841E+04  0.25500000000E-02 0.  1.
    8880023    1    1    2    0    0  0.14035834542E+04  0.20450354073E+03  0.25333167308E+04  0.29771415948E+04  0.65864270000E+03 0.  0.
    8880022    1    1    2    0    0 -0.14035834542E+04 -0.20450354073E+03 -0.14516756652E+04  0.20353432391E+04  0.15294330000E+03 0.  0.
<mgrwt>
<rscale>  0 0.15283656E+04</rscale>
<asrwt>0</asrwt>
<pdfrwt beam="1">  1        2 0.46877891E+00 0.15638665E+04</pdfrwt>
<pdfrwt beam="2">  1       -2 0.30237260E+00 0.15638665E+04</pdfrwt>
<totfact> 0.46636870E-02</totfact>
</mgrwt>
</event>
<event>
 4    1  0.2089815E-007  0.1185676E+04  0.7818608E-02  0.9171174E-01
         -2   -1    0    0    0  501 -0.00000000000E+00  0.00000000000E+00  0.89040411090E+03  0.89040411090E+03  0.25500000000E-02 0.  1.
          2   -1    0    0  501    0  0.00000000000E+00 -0.00000000000E+00 -0.22104048588E+04  0.22104048588E+04  0.25500000000E-02 0. -1.
    8880023    1    1    2    0    0  0.93041234574E+03  0.32611212560E+03 -0.16659755321E+04  0.20448229585E+04  0.65864270000E+03 0.  0.
    8880022    1    1    2    0    0 -0.93041234574E+03 -0.32611212560E+03  0.34597478423E+03  0.10559860112E+04  0.15294330000E+03 0.  0.
<mgrwt>
<rscale>  0 0.11355978E+04</rscale>
<asrwt>0</asrwt>
<pdfrwt beam="1">  1        2 0.34006228E+00 0.11856755E+04</pdfrwt>
<pdfrwt beam="2">  1       -2 0.13698525E+00 0.11856755E+04</pdfrwt>
<totfact> 0.18926952E+00</totfact>
</mgrwt>
</event>
<event>
 4    1  0.2089815E-007  0.1361618E+04  0.7818608E-02  0.9014095E-01
         -2   -1    0    0    0  501 -0.00000000000E+00  0.00000000000E+00  0.15290092259E+04  0.15290092259E+04  0.25500000000E-02 0.  1.
          2   -1    0    0  501    0  0.00000000000E+00 -0.00000000000E+00 -0.11513702955E+04  0.11513702955E+04  0.25500000000E-02 0. -1.
    8880023    1    1    2    0    0  0.11629985107E+04  0.26005387245E+03 -0.14662023379E+03  0.13694894128E+04  0.65864270000E+03 0.  0.
    8880022    1    1    2    0    0 -0.11629985107E+04 -0.26005387245E+03  0.52425916419E+03  0.13108901086E+04  0.15294330000E+03 0. -1.
<mgrwt>
<rscale>  0 0.13196896E+04</rscale>
<asrwt>0</asrwt>
<pdfrwt beam="1">  1        2 0.17713389E+00 0.13616181E+04</pdfrwt>
<pdfrwt beam="2">  1       -2 0.23523219E+00 0.13616181E+04</pdfrwt>
<totfact> 0.15374491E+00</totfact>
</mgrwt>
</event>
<event>
 4    1  0.2089815E-007  0.9801169E+03  0.7818608E-02  0.9408046E-01
         -2   -1    0    0    0  501 -0.00000000000E+00  0.00000000000E+00  0.47381402840E+03  0.47381402840E+03  0.25500000000E-02 0.  1.
          2   -1    0    0  501    0  0.00000000000E+00 -0.00000000000E+00 -0.24825208054E+04  0.24825208054E+04  0.25500000000E-02 0. -1.
    8880023    1    1    2    0    0 -0.30342727851E+03 -0.65935631672E+03 -0.19854705631E+04  0.22142092107E+04  0.65864270000E+03 0. -1.
    8880022    1    1    2    0    0  0.30342727851E+03  0.65935631672E+03 -0.23236213900E+02  0.74212562306E+03  0.15294330000E+03 0.  0.
<mgrwt>
<rscale>  0 0.91416483E+03</rscale>
<asrwt>0</asrwt>
<pdfrwt beam="1">  1        2 0.38192627E+00 0.98011687E+03</pdfrwt>
<pdfrwt beam="2">  1       -2 0.72894467E-01 0.98011687E+03</pdfrwt>
<totfact> 0.61396238E+00</totfact>
</mgrwt>
</event>
<event>
 4    1  0.2089815E-007  0.6646064E+03  0.7818608E-02  0.1019866E+00
         -2   -1    0    0    0  501 -0.00000000000E+00  0.00000000000E+00  0.98524795095E+02  0.98524795128E+02  0.25500000000E-02 0.  1.
          2   -1    0    0  501    0  0.00000000000E+00 -0.00000000000E+00 -0.39103277360E+04  0.39103277360E+04  0.25500000000E-02 0. -1.
    8880023    1    1    2    0    0  0.63954708014E+02  0.61654129930E+02 -0.37686375514E+04  0.38267911671E+04  0.65864270000E+03 0. -1.
    8880022    1    1    2    0    0 -0.63954708014E+02 -0.61654129930E+02 -0.43165389520E+02  0.18206136406E+03  0.15294330000E+03 0.  0.
<mgrwt>
<rscale>  0 0.47735017E+03</rscale>
<asrwt>0</asrwt>
<pdfrwt beam="1">  1        2 0.60158876E+00 0.66460638E+03</pdfrwt>
<pdfrwt beam="2">  1       -2 0.15157664E-01 0.66460638E+03</pdfrwt>
<totfact> 0.15490930E+01</totfact>
</mgrwt>
</event>
<event>
 4    1  0.2089815E-007  0.7649195E+03  0.7818608E-02  0.9792534E-01
          2   -1    0    0  501    0  0.00000000000E+00  0.00000000000E+00  0.84012380926E+03  0.84012380926E+03  0.25500000000E-02 0. -1.
         -2   -1    0    0    0  501 -0.00000000000E+00 -0.00000000000E+00 -0.64840454685E+03  0.64840454686E+03  0.25500000000E-02 0.  1.
    8880023    1    1    2    0    0  0.34317331082E+03 -0.18309468963E+03  0.54667443482E+03  0.94018866754E+03  0.65864270000E+03 0.  0.
    8880022    1    1    2    0    0 -0.34317331082E+03  0.18309468963E+03 -0.35495517241E+03  0.54833968858E+03  0.15294330000E+03 0.  0.
<mgrwt>
<rscale>  0 0.65764753E+03</rscale>
<asrwt>0</asrwt>
<pdfrwt beam="1">  1        2 0.12924982E+00 0.76491947E+03</pdfrwt>
<pdfrwt beam="2">  1       -2 0.99754546E-01 0.76491947E+03</pdfrwt>
<totfact> 0.27147672E+01</totfact>
</mgrwt>
</event>
<event>
 4    1  0.2089815E-007  0.6682455E+03  0.7818608E-02  0.1016953E+00
          2   -1    0    0  501    0  0.00000000000E+00  0.00000000000E+00  0.11315639371E+04  0.11315639371E+04  0.25500000000E-02 0. -1.
         -2   -1    0    0    0  501 -0.00000000000E+00 -0.00000000000E+00 -0.25913877051E+03  0.25913877052E+03  0.25500000000E-02 0.  1.
    8880023    1    1    2    0    0  0.51045669100E+02  0.10067881900E+03  0.96932145937E+03  0.11773428484E+04  0.65864270000E+03 0.  0.
    8880022    1    1    2    0    0 -0.51045669100E+02 -0.10067881900E+03 -0.96896292798E+02  0.21335985916E+03  0.15294330000E+03 0.  1.
<mgrwt>
<rscale>  0 0.48802364E+03</rscale>
<asrwt>0</asrwt>
<pdfrwt beam="1">  1        2 0.17408676E+00 0.66824553E+03</pdfrwt>
<pdfrwt beam="2">  1       -2 0.39867503E-01 0.66824553E+03</pdfrwt>
<totfact> 0.12648702E+02</totfact>
</mgrwt>
</event>
<event>
 4    1  0.2089815E-007  0.8159306E+03  0.7818608E-02  0.9677354E-01
          2   -1    0    0  501    0  0.00000000000E+00  0.00000000000E+00  0.16209805932E+04  0.16209805932E+04  0.25500000000E-02 0. -1.
         -2   -1    0    0    0  501 -0.00000000000E+00 -0.00000000000E+00 -0.77878340014E+03  0.77878340014E+03  0.25500000000E-02 0.  1.
    8880023    1    1    2    0    0 -0.16409305118E+03 -0.45277583049E+03  0.14165762598E+04  0.16347571649E+04  0.65864270000E+03 0. -1.
    8880022    1    1    2    0    0  0.16409305118E+03  0.45277583049E+03 -0.57437906678E+03  0.76500682839E+03  0.15294330000E+03 0.  0.
<mgrwt>
<rscale>  0 0.72381301E+03</rscale>
<asrwt>0</asrwt>
<pdfrwt beam="1">  1        2 0.24938163E+00 0.81593057E+03</pdfrwt>
<pdfrwt beam="2">  1       -2 0.11981283E+00 0.81593057E+03</pdfrwt>
<totfact> 0.58894584E+00</totfact>
</mgrwt>
</event>
<event>
 4    1  0.2089815E-007  0.6916785E+03  0.7818608E-02  0.1003365E+00
         -2   -1    0    0    0  501 -0.00000000000E+00  0.00000000000E+00  0.34697773081E+03  0.34697773082E+03  0.25500000000E-02 0.  1.
          2   -1    0    0  501    0  0.00000000000E+00 -0.00000000000E+00 -0.16620888779E+04  0.16620888779E+04  0.25500000000E-02 0. -1.
    8880023    1    1    2    0    0 -0.87599062922E+02  0.19218556585E+03 -0.15248660897E+04  0.16744060694E+04  0.65864270000E+03 0.  0.
    8880022    1    1    2    0    0  0.87599062922E+02 -0.19218556585E+03  0.20975494265E+03  0.33466053924E+03  0.15294330000E+03 0.  1.
<mgrwt>
<rscale>  0 0.54199120E+03</rscale>
<asrwt>0</asrwt>
<pdfrwt beam="1">  1        2 0.25570598E+00 0.69167846E+03</pdfrwt>
<pdfrwt beam="2">  1       -2 0.53381191E-01 0.69167846E+03</pdfrwt>
<totfact> 0.35177668E+01</totfact>
</mgrwt>
</event>
<event>
 4    1  0.2089815E-007  0.9062161E+03  0.7818608E-02  0.9516126E-01
          2   -1    0    0  501    0  0.00000000000E+00  0.00000000000E+00  0.19964315057E+04  0.19964315057E+04  0.25500000000E-02 0. -1.
         -2   -1    0    0    0  501 -0.00000000000E+00 -0.00000000000E+00 -0.33491346195E+03  0.33491346196E+03  0.25500000000E-02 0.  1.
    8880023    1    1    2    0    0  0.33829334471E+03 -0.52247009975E+03  0.13309602465E+04  0.16101809762E+04  0.65864270000E+03 0.  0.
    8880022    1    1    2    0    0 -0.33829334471E+03  0.52247009975E+03  0.33055779730E+03  0.72116399146E+03  0.15294330000E+03 0.  0.
<mgrwt>
<rscale>  0 0.83105320E+03</rscale>
<asrwt>0</asrwt>
<pdfrwt beam="1">  1        2 0.30714330E+00 0.90621609E+03</pdfrwt>
<pdfrwt beam="2">  1       -2 0.51525149E-01 0.90621609E+03</pdfrwt>
<totfact> 0.24213260E+01</totfact>
</mgrwt>
</event>
<event>
 4    1  0.2089815E-007  0.8374544E+03  0.7818608E-02  0.9634999E-01
         -2   -1    0    0    0  501 -0.00000000000E+00  0.00000000000E+00  0.18992153391E+04  0.18992153391E+04  0.25500000000E-02 0.  1.
          2   -1    0    0  501    0  0.00000000000E+00 -0.00000000000E+00 -0.79403960014E+03  0.79403960014E+03  0.25500000000E-02 0. -1.
    8880023    1    1    2    0    0 -0.41586839927E+03 -0.30752733964E+03 -0.51671364912E+03  0.98403393823E+03  0.65864270000E+03 0. -1.
    8880022    1    1    2    0    0  0.41586839927E+03  0.30752733964E+03  0.16218893881E+04  0.17092210011E+04  0.15294330000E+03 0.  0.
<mgrwt>
<rscale>  0 0.75022395E+03</rscale>
<asrwt>0</asrwt>
<pdfrwt beam="1">  1        2 0.12215994E+00 0.83745435E+03</pdfrwt>
<pdfrwt beam="2">  1       -2 0.29218697E+00 0.83745435E+03</pdfrwt>
<totfact> 0.12676906E+00</totfact>
</mgrwt>
</event>
<event>
 4    1  0.2089815E-007  0.1117146E+04  0.7818608E-02  0.9242203E-01
         -2   -1    0    0    0  501 -0.00000000000E+00  0.00000000000E+00  0.96774599562E+03  0.96774599562E+03  0.25500000000E-02 0.  1.
          2   -1    0    0  501    0  0.00000000000E+00 -0.00000000000E+00 -0.15244394168E+04  0.15244394168E+04  0.25500000000E-02 0. -1.
    8880023    1    1    2    0    0 -0.90228435392E+03  0.93235982800E+01 -0.97791733217E+03  0.14847008115E+04  0.65864270000E+03 0.  0.
    8880022    1    1    2    0    0  0.90228435392E+03 -0.93235982800E+01  0.42122391103E+03  0.10074846009E+04  0.15294330000E+03 0.  0.
<mgrwt>
<rscale>  0 0.10628247E+04</rscale>
<asrwt>0</asrwt>
<pdfrwt beam="1">  1        2 0.23452914E+00 0.11171456E+04</pdfrwt>
<pdfrwt beam="2">  1       -2 0.14888400E+00 0.11171456E+04</pdfrwt>
<totfact> 0.36836543E+00</totfact>
</mgrwt>
</event>
<event>
 4    1  0.2089815E-007  0.7190031E+03  0.7818608E-02  0.9925974E-01
          2   -1    0    0  501    0  0.00000000000E+00  0.00000000000E+00  0.16951052648E+04  0.16951052648E+04  0.25500000000E-02 0. -1.
         -2   -1    0    0    0  501 -0.00000000000E+00 -0.00000000000E+00 -0.31075785159E+03  0.31075785160E+03  0.25500000000E-02 0.  1.
    8880023    1    1    2    0    0  0.23142559890E+03  0.17203887374E+03  0.14968699338E+04  0.16605977800E+04  0.65864270000E+03 0. -1.
    8880022    1    1    2    0    0 -0.23142559890E+03 -0.17203887374E+03 -0.11252252055E+03  0.34526533645E+03  0.15294330000E+03 0.  0.
<mgrwt>
<rscale>  0 0.59018833E+03</rscale>
<asrwt>0</asrwt>
<pdfrwt beam="1">  1        2 0.26078543E+00 0.71900305E+03</pdfrwt>
<pdfrwt beam="2">  1       -2 0.47808900E-01 0.71900305E+03</pdfrwt>
<totfact> 0.42103293E+01</totfact>
</mgrwt>
</event>
<event>
 4    1  0.2089815E-007  0.1201366E+04  0.7818608E-02  0.9155795E-01
         -2   -1    0    0    0  501 -0.00000000000E+00  0.00000000000E+00  0.76491476671E+03  0.76491476672E+03  0.25500000000E-02 0.  1.
          2   -1    0    0  501    0  0.00000000000E+00 -0.00000000000E+00 -0.32149395977E+04  0.32149395977E+04  0.25500000000E-02 0. -1.
    8880023    1    1    2    0    0  0.99128263401E+03 -0.16379825131E+03 -0.26808022212E+04  0.29376830807E+04  0.65864270000E+03 0.  0.
    8880022    1    1    2    0    0 -0.99128263401E+03  0.16379825131E+03  0.23077739020E+03  0.10421712837E+04  0.15294330000E+03 0.  0.
<mgrwt>
<rscale>  0 0.11521578E+04</rscale>
<asrwt>0</asrwt>
<pdfrwt beam="1">  1        2 0.49460608E+00 0.12013664E+04</pdfrwt>
<pdfrwt beam="2">  1       -2 0.11767920E+00 0.12013664E+04</pdfrwt>
<totfact> 0.70089892E-01</totfact>
</mgrwt>
</event>
<event>
 4    1  0.2089815E-007  0.1042311E+04  0.7818608E-02  0.9328182E-01
          2   -1    0    0  501    0  0.00000000000E+00  0.00000000000E+00  0.16710268721E+04  0.16710268721E+04  0.25500000000E-02 0. -1.
         -2   -1    0    0    0  501 -0.00000000000E+00 -0.00000000000E+00 -0.75764340664E+03  0.75764340664E+03  0.25500000000E-02 0.  1.
    8880023    1    1    2    0    0 -0.56130723679E+03 -0.58097823487E+03  0.11704043219E+04  0.15672453562E+04  0.65864270000E+03 0.  0.
    8880022    1    1    2    0    0  0.56130723679E+03  0.58097823487E+03 -0.25702085649E+03  0.86142492253E+03  0.15294330000E+03 0.  0.
<mgrwt>
<rscale>  0 0.98229222E+03</rscale>
<asrwt>0</asrwt>
<pdfrwt beam="1">  1        2 0.25708106E+00 0.10423108E+04</pdfrwt>
<pdfrwt beam="2">  1       -2 0.11656052E+00 0.10423108E+04</pdfrwt>
<totfact> 0.57542490E+00</totfact>
</mgrwt>
</event>
<event>
 4    1  0.2089815E-007  0.9510133E+03  0.7818608E-02  0.9448658E-01
         -2   -1    0    0    0  501 -0.00000000000E+00  0.00000000000E+00  0.18027860314E+04  0.18027860314E+04  0.25500000000E-02 0.  1.
          2   -1    0    0  501    0  0.00000000000E+00 -0.00000000000E+00 -0.13958939767E+04  0.13958939767E+04  0.25500000000E-02 0. -1.
    8880023    1    1    2    0    0  0.30832836694E+03 -0.61282113526E+03 -0.11489290607E+04  0.14914638173E+04  0.65864270000E+03 0. -1.
    8880022    1    1    2    0    0 -0.30832836694E+03  0.61282113526E+03  0.15558211154E+04  0.17072161907E+04  0.15294330000E+03 0.  0.
<mgrwt>
<rscale>  0 0.88177275E+03</rscale>
<asrwt>0</asrwt>
<pdfrwt beam="1">  1        2 0.21475292E+00 0.95101332E+03</pdfrwt>
<pdfrwt beam="2">  1       -2 0.27735170E+00 0.95101332E+03</pdfrwt>
<totfact> 0.64171590E-01</totfact>
</mgrwt>
</event>
<event>
 4    1  0.2089815E-007  0.6587914E+03  0.7818608E-02  0.1025430E+00
         -2   -1    0    0    0  501 -0.00000000000E+00  0.00000000000E+00  0.21188708717E+03  0.21188708718E+03  0.25500000000E-02 0.  1.
          2   -1    0    0  501    0  0.00000000000E+00 -0.00000000000E+00 -0.84058707015E+03  0.84058707015E+03  0.25500000000E-02 0. -1.
    8880023    1    1    2    0    0  0.84426693583E+01  0.11164361436E+02 -0.60986256854E+03  0.89774076459E+03  0.65864270000E+03 0. -1.
    8880022    1    1    2    0    0 -0.84426693583E+01 -0.11164361436E+02 -0.18837414437E+02  0.15473339274E+03  0.15294330000E+03 0.  0.
<mgrwt>
<rscale>  0 0.45776898E+03</rscale>
<asrwt>0</asrwt>
<pdfrwt beam="1">  1        2 0.12932109E+00 0.65879141E+03</pdfrwt>
<pdfrwt beam="2">  1       -2 0.32598014E-01 0.65879141E+03</pdfrwt>
<totfact> 0.28605076E+02</totfact>
</mgrwt>
</event>
<event>
 4    1  0.2089815E-007  0.1552837E+04  0.7818608E-02  0.8873200E-01
          2   -1    0    0  501    0  0.00000000000E+00  0.00000000000E+00  0.21886631173E+04  0.21886631173E+04  0.25500000000E-02 0. -1.
         -2   -1    0    0    0  501 -0.00000000000E+00 -0.00000000000E+00 -0.14242779650E+04  0.14242779650E+04  0.25500000000E-02 0.  1.
    8880023    1    1    2    0    0 -0.13164647041E+04  0.49438043031E+03  0.13732428096E+04  0.20729441255E+04  0.65864270000E+03 0.  0.
    8880022    1    1    2    0    0  0.13164647041E+04 -0.49438043031E+03 -0.60885765740E+03  0.15399969568E+04  0.15294330000E+03 0.  0.
<mgrwt>
<rscale>  0 0.15170400E+04</rscale>
<asrwt>0</asrwt>
<pdfrwt beam="1">  1        2 0.33671740E+00 0.15528366E+04</pdfrwt>
<pdfrwt beam="2">  1       -2 0.21911969E+00 0.15528366E+04</pdfrwt>
<totfact> 0.48939690E-01</totfact>
</mgrwt>
</event>
<event>
 4    1  0.2089815E-007  0.6615695E+03  0.7818608E-02  0.1022603E+00
          2   -1    0    0  501    0  0.00000000000E+00  0.00000000000E+00  0.10191251209E+04  0.10191251209E+04  0.25500000000E-02 0. -1.
         -2   -1    0    0    0  501 -0.00000000000E+00 -0.00000000000E+00 -0.59843686751E+03  0.59843686752E+03  0.25500000000E-02 0.  1.
    8880023    1    1    2    0    0 -0.60025514274E+02 -0.16155482993E+02  0.89635562320E+03  0.11140590969E+04  0.65864270000E+03 0. -1.
    8880022    1    1    2    0    0  0.60025514274E+02  0.16155482993E+02 -0.47566736981E+03  0.50350289146E+03  0.15294330000E+03 0.  0.
<mgrwt>
<rscale>  0 0.46758851E+03</rscale>
<asrwt>0</asrwt>
<pdfrwt beam="1">  1        2 0.15678848E+00 0.66156955E+03</pdfrwt>
<pdfrwt beam="2">  1       -2 0.92067212E-01 0.66156955E+03</pdfrwt>
<totfact> 0.25197560E+01</totfact>
</mgrwt>
</event>
<event>
 4    1  0.2089815E-007  0.7711442E+03  0.7818608E-02  0.9777066E-01
         -2   -1    0    0    0  501 -0.00000000000E+00  0.00000000000E+00  0.38779785237E+03  0.38779785238E+03  0.25500000000E-02 0.  1.
          2   -1    0    0  501    0  0.00000000000E+00 -0.00000000000E+00 -0.17005912172E+04  0.17005912172E+04  0.25500000000E-02 0. -1.
    8880023    1    1    2    0    0 -0.45888898976E+02 -0.39843114116E+03 -0.14461557856E+04  0.16389112019E+04  0.65864270000E+03 0.  0.
    8880022    1    1    2    0    0  0.45888898976E+02  0.39843114116E+03  0.13336242071E+03  0.44947786772E+03  0.15294330000E+03 0.  0.
<mgrwt>
<rscale>  0 0.66607956E+03</rscale>
<asrwt>0</asrwt>
<pdfrwt beam="1">  1        2 0.26162941E+00 0.77114420E+03</pdfrwt>
<pdfrwt beam="2">  1       -2 0.59661209E-01 0.77114420E+03</pdfrwt>
<totfact> 0.26315527E+01</totfact>
</mgrwt>
</event>
<event>
 4    1  0.2089815E-007  0.8501851E+03  0.7818608E-02  0.9611267E-01
         -2   -1    0    0    0  501 -0.00000000000E+00  0.00000000000E+00  0.14144814782E+04  0.14144814782E+04  0.25500000000E-02 0.  1.
          2   -1    0    0  501    0  0.00000000000E+00 -0.00000000000E+00 -0.62305496106E+03  0.62305496106E+03  0.25500000000E-02 0. -1.
    8880023    1    1    2    0    0 -0.32586489688E+02  0.53660278646E+03 -0.22333535074E+03  0.87902975768E+03  0.65864270000E+03 0. -1.
    8880022    1    1    2    0    0  0.32586489688E+02 -0.53660278646E+03  0.10147618678E+04  0.11585066815E+04  0.15294330000E+03 0.  0.
<mgrwt>
<rscale>  0 0.76554954E+03</rscale>
<asrwt>0</asrwt>
<pdfrwt beam="1">  1        2 0.95854610E-01 0.85018506E+03</pdfrwt>
<pdfrwt beam="2">  1       -2 0.21761253E+00 0.85018506E+03</pdfrwt>
<totfact> 0.49016770E+00</totfact>
</mgrwt>
</event>
<event>
 4    1  0.2089815E-007  0.8556441E+03  0.7818608E-02  0.9601359E-01
          2   -1    0    0  501    0  0.00000000000E+00  0.00000000000E+00  0.22625183965E+04  0.22625183965E+04  0.25500000000E-02 0. -1.
         -2   -1    0    0    0  501 -0.00000000000E+00 -0.00000000000E+00 -0.51473712249E+03  0.51473712249E+03  0.25500000000E-02 0.  1.
    8880023    1    1    2    0    0 -0.53088417280E+03  0.12836898094E+03  0.19856833887E+04  0.21621899376E+04  0.65864270000E+03 0. -1.
    8880022    1    1    2    0    0  0.53088417280E+03 -0.12836898094E+03 -0.23790211464E+03  0.61506558135E+03  0.15294330000E+03 0.  0.
<mgrwt>
<rscale>  0 0.77206282E+03</rscale>
<asrwt>0</asrwt>
<pdfrwt beam="1">  1        2 0.34807975E+00 0.85564409E+03</pdfrwt>
<pdfrwt beam="2">  1       -2 0.79190327E-01 0.85564409E+03</pdfrwt>
<totfact> 0.69057225E+00</totfact>
</mgrwt>
</event>
<event>
 4    1  0.2089815E-007  0.1327137E+04  0.7818608E-02  0.9042473E-01
         -2   -1    0    0    0  501 -0.00000000000E+00  0.00000000000E+00  0.18707873394E+04  0.18707873394E+04  0.25500000000E-02 0.  1.
          2   -1    0    0  501    0  0.00000000000E+00 -0.00000000000E+00 -0.28030320868E+04  0.28030320868E+04  0.25500000000E-02 0. -1.
    8880023    1    1    2    0    0  0.59209760055E+03  0.98838351321E+03 -0.24355187927E+04  0.27736336336E+04  0.65864270000E+03 0.  0.
    8880022    1    1    2    0    0 -0.59209760055E+03 -0.98838351321E+03  0.15032740453E+04  0.19001857925E+04  0.15294330000E+03 0.  0.
<mgrwt>
<rscale>  0 0.12838479E+04</rscale>
<asrwt>0</asrwt>
<pdfrwt beam="1">  1        2 0.43123570E+00 0.13271367E+04</pdfrwt>
<pdfrwt beam="2">  1       -2 0.28781344E+00 0.13271367E+04</pdfrwt>
<totfact> 0.83735040E-02</totfact>
</mgrwt>
</event>
<event>
 4    1  0.2089815E-007  0.8337536E+03  0.7818608E-02  0.9642073E-01
          2   -1    0    0  501    0  0.00000000000E+00  0.00000000000E+00  0.99289362916E+03  0.99289362916E+03  0.25500000000E-02 0. -1.
         -2   -1    0    0    0  501 -0.00000000000E+00 -0.00000000000E+00 -0.53841897867E+03  0.53841897868E+03  0.25500000000E-02 0.  1.
    8880023    1    1    2    0    0 -0.88415669407E+02  0.50350520161E+03  0.53649296248E+03  0.99144829603E+03  0.65864270000E+03 0.  0.
    8880022    1    1    2    0    0  0.88415669407E+02 -0.50350520161E+03 -0.82018312000E+02  0.53986431181E+03  0.15294330000E+03 0.  0.
<mgrwt>
<rscale>  0 0.74573025E+03</rscale>
<asrwt>0</asrwt>
<pdfrwt beam="1">  1        2 0.15275286E+00 0.83375358E+03</pdfrwt>
<pdfrwt beam="2">  1       -2 0.82833690E-01 0.83375358E+03</pdfrwt>
<totfact> 0.32797408E+01</totfact>
</mgrwt>
</event>
<event>
 4    1  0.2089815E-007  0.1083587E+04  0.7818608E-02  0.9279554E-01
          2   -1    0    0  501    0  0.00000000000E+00  0.00000000000E+00  0.91240792692E+03  0.91240792692E+03  0.25500000000E-02 0. -1.
         -2   -1    0    0    0  501 -0.00000000000E+00 -0.00000000000E+00 -0.10918143800E+04  0.10918143800E+04  0.25500000000E-02 0.  1.
    8880023    1    1    2    0    0  0.84073805327E+03  0.18305701023E+03  0.96255383198E+02  0.10878536888E+04  0.65864270000E+03 0.  0.
    8880022    1    1    2    0    0 -0.84073805327E+03 -0.18305701023E+03 -0.27566183624E+03  0.91636861807E+03  0.15294330000E+03 0.  0.
<mgrwt>
<rscale>  0 0.10268716E+04</rscale>
<asrwt>0</asrwt>
<pdfrwt beam="1">  1        2 0.14037045E+00 0.10835869E+04</pdfrwt>
<pdfrwt beam="2">  1       -2 0.16797144E+00 0.10835869E+04</pdfrwt>
<totfact> 0.62355816E+00</totfact>
</mgrwt>
</event>
<event>
 4    1  0.2089815E-007  0.7270890E+03  0.7818608E-02  0.9899290E-01
         -2   -1    0    0    0  501 -0.00000000000E+00  0.00000000000E+00  0.75027448923E+03  0.75027448924E+03  0.25500000000E-02 0.  1.
          2   -1    0    0  501    0  0.00000000000E+00 -0.00000000000E+00 -0.14206147378E+04  0.14206147378E+04  0.25500000000E-02 0. -1.
    8880023    1    1    2    0    0 -0.13124902142E+03  0.27860719835E+03 -0.12793389895E+04  0.14715185126E+04  0.65864270000E+03 0. -1.
    8880022    1    1    2    0    0  0.13124902142E+03 -0.27860719835E+03  0.60899874099E+03  0.69937071439E+03  0.15294330000E+03 0.  0.
<mgrwt>
<rscale>  0 0.60295683E+03</rscale>
<asrwt>0</asrwt>
<pdfrwt beam="1">  1        2 0.21855611E+00 0.72708905E+03</pdfrwt>
<pdfrwt beam="2">  1       -2 0.11542684E+00 0.72708905E+03</pdfrwt>
<totfact> 0.84487624E+00</totfact>
</mgrwt>
</event>
<event>
 4    1  0.2089815E-007  0.8165517E+03  0.7818608E-02  0.9676088E-01
          2   -1    0    0  501    0  0.00000000000E+00  0.00000000000E+00  0.63677589843E+03  0.63677589843E+03  0.25500000000E-02 0. -1.
         -2   -1    0    0    0  501 -0.00000000000E+00 -0.00000000000E+00 -0.89684381516E+03  0.89684381516E+03  0.25500000000E-02 0.  1.
    8880023    1    1    2    0    0  0.41661363312E+03  0.24367919973E+03  0.20959756478E+03  0.84302302288E+03  0.65864270000E+03 0.  0.
    8880022    1    1    2    0    0 -0.41661363312E+03 -0.24367919973E+03 -0.46966548151E+03  0.69059669071E+03  0.15294330000E+03 0.  0.
<mgrwt>
<rscale>  0 0.72458513E+03</rscale>
<asrwt>0</asrwt>
<pdfrwt beam="1">  1        2 0.97965523E-01 0.81655170E+03</pdfrwt>
<pdfrwt beam="2">  1       -2 0.13797597E+00 0.81655170E+03</pdfrwt>
<totfact> 0.17337556E+01</totfact>
</mgrwt>
</event>
<event>
 4    1  0.2089815E-007  0.7035785E+03  0.7818608E-02  0.9982668E-01
          2   -1    0    0  501    0  0.00000000000E+00  0.00000000000E+00  0.26927323469E+04  0.26927323469E+04  0.25500000000E-02 0. -1.
         -2   -1    0    0    0  501 -0.00000000000E+00 -0.00000000000E+00 -0.22832283696E+03  0.22832283698E+03  0.25500000000E-02 0.  1.
    8880023    1    1    2    0    0  0.23875883160E+03  0.64858810889E+02  0.25273496446E+04  0.26234555222E+04  0.65864270000E+03 0. -1.
    8880022    1    1    2    0    0 -0.23875883160E+03 -0.64858810889E+02 -0.62940134668E+02  0.29759966160E+03  0.15294330000E+03 0.  0.
<mgrwt>
<rscale>  0 0.56416784E+03</rscale>
<asrwt>0</asrwt>
<pdfrwt beam="1">  1        2 0.41426655E+00 0.70357846E+03</pdfrwt>
<pdfrwt beam="2">  1       -2 0.35126587E-01 0.70357846E+03</pdfrwt>
<totfact> 0.21590728E+01</totfact>
</mgrwt>
</event>
<event>
 4    1  0.2089815E-007  0.1600077E+04  0.7818608E-02  0.8842020E-01
          2   -1    0    0  501    0  0.00000000000E+00  0.00000000000E+00  0.15323035841E+04  0.15323035841E+04  0.25500000000E-02 0. -1.
         -2   -1    0    0    0  501 -0.00000000000E+00 -0.00000000000E+00 -0.16840292994E+04  0.16840292994E+04  0.25500000000E-02 0.  1.
    8880023    1    1    2    0    0  0.12824334999E+04  0.69411928428E+03  0.40070127023E+03  0.16494874891E+04  0.65864270000E+03 0.  0.
    8880022    1    1    2    0    0 -0.12824334999E+04 -0.69411928428E+03 -0.55242698546E+03  0.15668453944E+04  0.15294330000E+03 0.  0.
<mgrwt>
<rscale>  0 0.15655113E+04</rscale>
<asrwt>0</asrwt>
<pdfrwt beam="1">  1        2 0.23573901E+00 0.16000773E+04</pdfrwt>
<pdfrwt beam="2">  1       -2 0.25908143E+00 0.16000773E+04</pdfrwt>
<totfact> 0.64059049E-01</totfact>
</mgrwt>
</event>
<event>
 4    1  0.2089815E-007  0.9581522E+03  0.7818608E-02  0.9438481E-01
          2   -1    0    0  501    0  0.00000000000E+00  0.00000000000E+00  0.68774299142E+03  0.68774299143E+03  0.25500000000E-02 0. -1.
         -2   -1    0    0    0  501 -0.00000000000E+00 -0.00000000000E+00 -0.14282670501E+04  0.14282670501E+04  0.25500000000E-02 0.  1.
    8880023    1    1    2    0    0  0.29951644157E+03  0.62812053491E+03  0.15608576771E+03  0.97078240522E+03  0.65864270000E+03 0.  0.
    8880022    1    1    2    0    0 -0.29951644157E+03 -0.62812053491E+03 -0.89660982634E+03  0.11452276363E+04  0.15294330000E+03 0.  0.
<mgrwt>
<rscale>  0 0.88975424E+03</rscale>
<asrwt>0</asrwt>
<pdfrwt beam="1">  1        2 0.10580661E+00 0.95815224E+03</pdfrwt>
<pdfrwt beam="2">  1       -2 0.21973339E+00 0.95815224E+03</pdfrwt>
<totfact> 0.41544400E+00</totfact>
</mgrwt>
</event>
<event>
 4    1  0.2089815E-007  0.1571574E+04  0.7818608E-02  0.8860682E-01
         -2   -1    0    0    0  501 -0.00000000000E+00  0.00000000000E+00  0.99121615381E+03  0.99121615381E+03  0.25500000000E-02 0.  1.
          2   -1    0    0  501    0  0.00000000000E+00 -0.00000000000E+00 -0.26259761070E+04  0.26259761070E+04  0.25500000000E-02 0. -1.
    8880023    1    1    2    0    0 -0.74555734291E+03 -0.12166256870E+04 -0.15054859419E+04  0.21763115451E+04  0.65864270000E+03 0.  0.
    8880022    1    1    2    0    0  0.74555734291E+03  0.12166256870E+04 -0.12927401128E+03  0.14408807157E+04  0.15294330000E+03 0.  0.
<mgrwt>
<rscale>  0 0.15362763E+04</rscale>
<asrwt>0</asrwt>
<pdfrwt beam="1">  1        2 0.40399632E+00 0.15715737E+04</pdfrwt>
<pdfrwt beam="2">  1       -2 0.15249479E+00 0.15715737E+04</pdfrwt>
<totfact> 0.79033994E-01</totfact>
</mgrwt>
</event>
<event>
 4    1  0.2089815E-007  0.1107347E+04  0.7818608E-02  0.9252920E-01
         -2   -1    0    0    0  501 -0.00000000000E+00  0.00000000000E+00  0.88961093374E+03  0.88961093374E+03  0.25500000000E-02 0.  1.
          2   -1    0    0  501    0  0.00000000000E+00 -0.00000000000E+00 -0.14627443249E+04  0.14627443249E+04  0.25500000000E-02 0. -1.
    8880023    1    1    2    0    0 -0.29494741762E+03 -0.83988885227E+03 -0.86283454294E+03  0.14038165543E+04  0.65864270000E+03 0.  0.
    8880022    1    1    2    0    0  0.29494741762E+03  0.83988885227E+03  0.28970115178E+03  0.94853870437E+03  0.15294330000E+03 0.  0.
<mgrwt>
<rscale>  0 0.10523512E+04</rscale>
<asrwt>0</asrwt>
<pdfrwt beam="1">  1        2 0.22503759E+00 0.11073470E+04</pdfrwt>
<pdfrwt beam="2">  1       -2 0.13686322E+00 0.11073470E+04</pdfrwt>
<totfact> 0.49834897E+00</totfact>
</mgrwt>
</event>
<event>
 4    1  0.2089815E-007  0.6621386E+03  0.7818608E-02  0.1022065E+00
          2   -1    0    0  501    0  0.00000000000E+00  0.00000000000E+00  0.56722514833E+03  0.56722514834E+03  0.25500000000E-02 0. -1.
         -2   -1    0    0    0  501 -0.00000000000E+00 -0.00000000000E+00 -0.99166306583E+03  0.99166306583E+03  0.25500000000E-02 0.  1.
    8880023    1    1    2    0    0 -0.19057343415E+02 -0.65223421738E+02  0.36214175263E+03  0.75470135308E+03  0.65864270000E+03 0. -1.
    8880022    1    1    2    0    0  0.19057343415E+02  0.65223421738E+02 -0.78657967012E+03  0.80418686109E+03  0.15294330000E+03 0.  0.
<mgrwt>
<rscale>  0 0.46948717E+03</rscale>
<asrwt>0</asrwt>
<pdfrwt beam="1">  1        2 0.87265407E-01 0.66213857E+03</pdfrwt>
<pdfrwt beam="2">  1       -2 0.15256355E+00 0.66213857E+03</pdfrwt>
<totfact> 0.15554789E+01</totfact>
</mgrwt>
</event>
<event>
 4    1  0.2089815E-007  0.8551959E+03  0.7818608E-02  0.9602167E-01
         -2   -1    0    0    0  501 -0.00000000000E+00  0.00000000000E+00  0.99375019807E+03  0.99375019807E+03  0.25500000000E-02 0.  1.
          2   -1    0    0  501    0  0.00000000000E+00 -0.00000000000E+00 -0.10659731589E+04  0.10659731589E+04  0.25500000000E-02 0. -1.
    8880023    1    1    2    0    0 -0.52185897003E+03 -0.15878639481E+03 -0.77701484193E+03  0.11554705425E+04  0.65864270000E+03 0.  0.
    8880022    1    1    2    0    0  0.52185897003E+03  0.15878639481E+03  0.70479188110E+03  0.90425281446E+03  0.15294330000E+03 0.  0.
<mgrwt>
<rscale>  0 0.77152938E+03</rscale>
<asrwt>0</asrwt>
<pdfrwt beam="1">  1        2 0.16399587E+00 0.85519595E+03</pdfrwt>
<pdfrwt beam="2">  1       -2 0.15288465E+00 0.85519595E+03</pdfrwt>
<totfact> 0.65567016E+00</totfact>
</mgrwt>
</event>
<event>
 4    1  0.2089815E-007  0.7156990E+03  0.7818608E-02  0.9937417E-01
          2   -1    0    0  501    0  0.00000000000E+00  0.00000000000E+00  0.67938329549E+03  0.67938329549E+03  0.25500000000E-02 0. -1.
         -2   -1    0    0    0  501 -0.00000000000E+00 -0.00000000000E+00 -0.51480697518E+03  0.51480697519E+03  0.25500000000E-02 0.  1.
    8880023    1    1    2    0    0  0.13508703747E+03 -0.24528840470E+03  0.37891001775E+03  0.80981350753E+03  0.65864270000E+03 0. -1.
    8880022    1    1    2    0    0 -0.13508703747E+03  0.24528840470E+03 -0.21433369744E+03  0.38437676315E+03  0.15294330000E+03 0.  0.
<mgrwt>
<rscale>  0 0.58481674E+03</rscale>
<asrwt>0</asrwt>
<pdfrwt beam="1">  1        2 0.10452051E+00 0.71569904E+03</pdfrwt>
<pdfrwt beam="2">  1       -2 0.79201073E-01 0.71569904E+03</pdfrwt>
<totfact> 0.61064982E+01</totfact>
</mgrwt>
</event>
<event>
 4    1  0.2089815E-007  0.8220577E+03  0.7818608E-02  0.9664988E-01
          2   -1    0    0  501    0  0.00000000000E+00  0.00000000000E+00  0.52847336310E+03  0.52847336310E+03  0.25500000000E-02 0. -1.
         -2   -1    0    0    0  501 -0.00000000000E+00 -0.00000000000E+00 -0.11483714710E+04  0.11483714710E+04  0.25500000000E-02 0.  1.
    8880023    1    1    2    0    0  0.49001224612E+03 -0.43089249265E+02  0.59531795291E+02  0.82421048626E+03  0.65864270000E+03 0. -1.
    8880022    1    1    2    0    0 -0.49001224612E+03  0.43089249265E+02 -0.67942990317E+03  0.85263434782E+03  0.15294330000E+03 0.  0.
<mgrwt>
<rscale>  0 0.73140215E+03</rscale>
<asrwt>0</asrwt>
<pdfrwt beam="1">  1        2 0.81303594E-01 0.82205772E+03</pdfrwt>
<pdfrwt beam="2">  1       -2 0.17667253E+00 0.82205772E+03</pdfrwt>
<totfact> 0.11139333E+01</totfact>
</mgrwt>
</event>
<event>
 4    1  0.2089815E-007  0.6878311E+03  0.7818608E-02  0.1005201E+00
          2   -1    0    0  501    0  0.00000000000E+00  0.00000000000E+00  0.29438638173E+04  0.29438638173E+04  0.25500000000E-02 0. -1.
         -2   -1    0    0    0  501 -0.00000000000E+00 -0.00000000000E+00 -0.26262107741E+03  0.26262107743E+03  0.25500000000E-02 0.  1.
    8880023    1    1    2    0    0 -0.14781053258E+03 -0.13211138872E+03  0.28319218670E+04  0.29142568589E+04  0.65864270000E+03 0. -1.
    8880022    1    1    2    0    0  0.14781053258E+03  0.13211138872E+03 -0.15067912710E+03  0.29222803584E+03  0.15294330000E+03 0.  0.
<mgrwt>
<rscale>  0 0.53427364E+03</rscale>
<asrwt>0</asrwt>
<pdfrwt beam="1">  1        2 0.45290214E+00 0.68783107E+03</pdfrwt>
<pdfrwt beam="2">  1       -2 0.40403241E-01 0.68783107E+03</pdfrwt>
<totfact> 0.11742867E+01</totfact>
</mgrwt>
</event>
<event>
 4    1  0.2089815E-007  0.7039848E+03  0.7818608E-02  0.9981056E-01
         -2   -1    0    0    0  501 -0.00000000000E+00  0.00000000000E+00  0.18448101889E+04  0.18448101889E+04  0.25500000000E-02 0.  1.
          2   -1    0    0  501    0  0.00000000000E+00 -0.00000000000E+00 -0.11345069652E+04  0.11345069652E+04  0.25500000000E-02 0. -1.
    8880023    1    1    2    0    0 -0.24610771851E+03  0.34861549416E+02 -0.10118255633E+04  0.12326335682E+04  0.65864270000E+03 0.  0.
    8880022    1    1    2    0    0  0.24610771851E+03 -0.34861549416E+02  0.17221287870E+04  0.17466835858E+04  0.15294330000E+03 0.  1.
<mgrwt>
<rscale>  0 0.56488767E+03</rscale>
<asrwt>0</asrwt>
<pdfrwt beam="1">  1        2 0.17453953E+00 0.70398476E+03</pdfrwt>
<pdfrwt beam="2">  1       -2 0.28381695E+00 0.70398476E+03</pdfrwt>
<totfact> 0.87278437E-01</totfact>
</mgrwt>
</event>
<event>
 4    1  0.2089815E-007  0.8874802E+03  0.7818608E-02  0.9546436E-01
         -2   -1    0    0    0  501 -0.00000000000E+00  0.00000000000E+00  0.40234143396E+03  0.40234143397E+03  0.25500000000E-02 0.  1.
          2   -1    0    0  501    0  0.00000000000E+00 -0.00000000000E+00 -0.18336916251E+04  0.18336916251E+04  0.25500000000E-02 0. -1.
    8880023    1    1    2    0    0 -0.33226422388E+02 -0.59389131353E+03 -0.13512952604E+04  0.16166694079E+04  0.65864270000E+03 0.  0.
    8880022    1    1    2    0    0  0.33226422388E+02  0.59389131353E+03 -0.80054930741E+02  0.61936365116E+03  0.15294330000E+03 0.  0.
<mgrwt>
<rscale>  0 0.80945149E+03</rscale>
<asrwt>0</asrwt>
<pdfrwt beam="1">  1        2 0.28210640E+00 0.88748019E+03</pdfrwt>
<pdfrwt beam="2">  1       -2 0.61898683E-01 0.88748019E+03</pdfrwt>
<totfact> 0.20302422E+01</totfact>
</mgrwt>
</event>
<event>
 4    1  0.2089815E-007  0.8570062E+03  0.7818608E-02  0.9598911E-01
         -2   -1    0    0    0  501 -0.00000000000E+00  0.00000000000E+00  0.73087967914E+03  0.73087967914E+03  0.25500000000E-02 0.  1.
          2   -1    0    0  501    0  0.00000000000E+00 -0.00000000000E+00 -0.93688451491E+03  0.93688451492E+03  0.25500000000E-02 0. -1.
    8880023    1    1    2    0    0 -0.34964566891E+03 -0.42237101063E+03 -0.53499581716E+03  0.10102871350E+04  0.65864270000E+03 0.  0.
    8880022    1    1    2    0    0  0.34964566891E+03  0.42237101063E+03  0.32899098138E+03  0.65747705911E+03  0.15294330000E+03 0.  0.
<mgrwt>
<rscale>  0 0.77368283E+03</rscale>
<asrwt>0</asrwt>
<pdfrwt beam="1">  1        2 0.14413608E+00 0.85700617E+03</pdfrwt>
<pdfrwt beam="2">  1       -2 0.11244303E+00 0.85700617E+03</pdfrwt>
<totfact> 0.17345057E+01</totfact>
</mgrwt>
</event>
<event>
 4    1  0.2089815E-007  0.1049214E+04  0.7818608E-02  0.9319826E-01
         -2   -1    0    0    0  501 -0.00000000000E+00  0.00000000000E+00  0.17277396810E+04  0.17277396810E+04  0.25500000000E-02 0.  1.
          2   -1    0    0  501    0  0.00000000000E+00 -0.00000000000E+00 -0.79125085701E+03  0.79125085701E+03  0.25500000000E-02 0. -1.
    8880023    1    1    2    0    0  0.81666514643E+03 -0.99230748535E+01 -0.24225202357E+03  0.10768178481E+04  0.65864270000E+03 0. -1.
    8880022    1    1    2    0    0 -0.81666514643E+03  0.99230748535E+01  0.11787408476E+04  0.14421726899E+04  0.15294330000E+03 0.  0.
<mgrwt>
<rscale>  0 0.98977908E+03</rscale>
<asrwt>0</asrwt>
<pdfrwt beam="1">  1        2 0.12173090E+00 0.10492143E+04</pdfrwt>
<pdfrwt beam="2">  1       -2 0.26580610E+00 0.10492143E+04</pdfrwt>
<totfact> 0.17858822E+00</totfact>
</mgrwt>
</event>
<event>
 4    1  0.2089815E-007  0.1136796E+04  0.7818608E-02  0.9221153E-01
          2   -1    0    0  501    0  0.00000000000E+00  0.00000000000E+00  0.12903943292E+04  0.12903943292E+04  0.25500000000E-02 0. -1.
         -2   -1    0    0    0  501 -0.00000000000E+00 -0.00000000000E+00 -0.11138692925E+04  0.11138692926E+04  0.25500000000E-02 0.  1.
    8880023    1    1    2    0    0  0.27186182963E+03  0.88576885557E+03  0.69414371677E+03  0.13319688531E+04  0.65864270000E+03 0.  0.
    8880022    1    1    2    0    0 -0.27186182963E+03 -0.88576885557E+03 -0.51761868009E+03  0.10722947687E+04  0.15294330000E+03 0.  0.
<mgrwt>
<rscale>  0 0.10837736E+04</rscale>
<asrwt>0</asrwt>
<pdfrwt beam="1">  1        2 0.19852221E+00 0.11367962E+04</pdfrwt>
<pdfrwt beam="2">  1       -2 0.17136451E+00 0.11367962E+04</pdfrwt>
<totfact> 0.34110066E+00</totfact>
</mgrwt>
</event>
<event>
 4    1  0.2089815E-007  0.7007884E+03  0.7818608E-02  0.9993946E-01
          2   -1    0    0  501    0  0.00000000000E+00  0.00000000000E+00  0.15527532055E+04  0.15527532055E+04  0.25500000000E-02 0. -1.
         -2   -1    0    0    0  501 -0.00000000000E+00 -0.00000000000E+00 -0.40941756491E+03  0.40941756492E+03  0.25500000000E-02 0.  1.
    8880023    1    1    2    0    0  0.17776934721E+03  0.16028777532E+03  0.14087411222E+04  0.15734217068E+04  0.65864270000E+03 0. -1.
    8880022    1    1    2    0    0 -0.17776934721E+03 -0.16028777532E+03 -0.26540548167E+03  0.38874906359E+03  0.15294330000E+03 0.  0.
<mgrwt>
<rscale>  0 0.55916473E+03</rscale>
<asrwt>0</asrwt>
<pdfrwt beam="1">  1        2 0.23888511E+00 0.70078835E+03</pdfrwt>
<pdfrwt beam="2">  1       -2 0.62987318E-01 0.70078835E+03</pdfrwt>
<totfact> 0.28527635E+01</totfact>
</mgrwt>
</event>
<event>
 4    1  0.2089815E-007  0.1118573E+04  0.7818608E-02  0.9240654E-01
          2   -1    0    0  501    0  0.00000000000E+00  0.00000000000E+00  0.32384085869E+04  0.32384085869E+04  0.25500000000E-02 0. -1.
         -2   -1    0    0    0  501 -0.00000000000E+00 -0.00000000000E+00 -0.78132283191E+03  0.78132283191E+03  0.25500000000E-02 0.  1.
    8880023    1    1    2    0    0  0.69357587921E+03  0.57995408579E+03  0.28198741478E+04  0.30336273103E+04  0.65864270000E+03 0.  0.
    8880022    1    1    2    0    0 -0.69357587921E+03 -0.57995408579E+03 -0.36278839285E+03  0.98610410852E+03  0.15294330000E+03 0.  0.
<mgrwt>
<rscale>  0 0.10643483E+04</rscale>
<asrwt>0</asrwt>
<pdfrwt beam="1">  1        2 0.49821670E+00 0.11185725E+04</pdfrwt>
<pdfrwt beam="2">  1       -2 0.12020351E+00 0.11185725E+04</pdfrwt>
<totfact> 0.64992532E-01</totfact>
</mgrwt>
</event>
<event>
 4    1  0.2089815E-007  0.1457276E+04  0.7818608E-02  0.8940409E-01
          2   -1    0    0  501    0  0.00000000000E+00  0.00000000000E+00  0.14457550497E+04  0.14457550497E+04  0.25500000000E-02 0. -1.
         -2   -1    0    0    0  501 -0.00000000000E+00 -0.00000000000E+00 -0.15453264761E+04  0.15453264761E+04  0.25500000000E-02 0.  1.
    8880023    1    1    2    0    0  0.50093724136E+03  0.11995435145E+04  0.51430892294E+03  0.15453694178E+04  0.65864270000E+03 0.  0.
    8880022    1    1    2    0    0 -0.50093724136E+03 -0.11995435145E+04 -0.61388034942E+03  0.14457121080E+04  0.15294330000E+03 0.  0.
<mgrwt>
<rscale>  0 0.14186767E+04</rscale>
<asrwt>0</asrwt>
<pdfrwt beam="1">  1        2 0.22242386E+00 0.14572759E+04</pdfrwt>
<pdfrwt beam="2">  1       -2 0.23774253E+00 0.14572759E+04</pdfrwt>
<totfact> 0.98508930E-01</totfact>
</mgrwt>
</event>
<event>
 4    1  0.2089815E-007  0.8069495E+03  0.7818608E-02  0.9695967E-01
         -2   -1    0    0    0  501 -0.00000000000E+00  0.00000000000E+00  0.17034148322E+04  0.17034148322E+04  0.25500000000E-02 0.  1.
          2   -1    0    0  501    0  0.00000000000E+00 -0.00000000000E+00 -0.46313600277E+03  0.46313600278E+03  0.25500000000E-02 0. -1.
    8880023    1    1    2    0    0 -0.44820551725E+03  0.12833169366E+03 -0.27207048197E+02  0.80740797558E+03  0.65864270000E+03 0.  0.
    8880022    1    1    2    0    0  0.44820551725E+03 -0.12833169366E+03  0.12674858777E+04  0.13591428594E+04  0.15294330000E+03 0.  0.
<mgrwt>
<rscale>  0 0.71257450E+03</rscale>
<asrwt>0</asrwt>
<pdfrwt beam="1">  1        2 0.71251692E-01 0.80694945E+03</pdfrwt>
<pdfrwt beam="2">  1       -2 0.26206382E+00 0.80694945E+03</pdfrwt>
<totfact> 0.37343721E+00</totfact>
</mgrwt>
</event>
<event>
 4    1  0.2089815E-007  0.1071312E+04  0.7818608E-02  0.9293689E-01
         -2   -1    0    0    0  501 -0.00000000000E+00  0.00000000000E+00  0.65856549995E+03  0.65856549995E+03  0.25500000000E-02 0.  1.
          2   -1    0    0  501    0  0.00000000000E+00 -0.00000000000E+00 -0.16920132400E+04  0.16920132400E+04  0.25500000000E-02 0. -1.
    8880023    1    1    2    0    0  0.56034731832E+03 -0.63238504064E+03 -0.10383061731E+04  0.14919081313E+04  0.65864270000E+03 0.  0.
    8880022    1    1    2    0    0 -0.56034731832E+03  0.63238504064E+03  0.48584330766E+01  0.85867060865E+03  0.15294330000E+03 0.  0.
<mgrwt>
<rscale>  0 0.10136593E+04</rscale>
<asrwt>0</asrwt>
<pdfrwt beam="1">  1        2 0.26030973E+00 0.10713124E+04</pdfrwt>
<pdfrwt beam="2">  1       -2 0.10131777E+00 0.10713124E+04</pdfrwt>
<totfact> 0.78496737E+00</totfact>
</mgrwt>
</event>
<event>
 4    1  0.2089815E-007  0.9606686E+03  0.7818608E-02  0.9434928E-01
         -2   -1    0    0    0  501 -0.00000000000E+00  0.00000000000E+00  0.21038115808E+04  0.21038115808E+04  0.25500000000E-02 0.  1.
          2   -1    0    0  501    0  0.00000000000E+00 -0.00000000000E+00 -0.10728747315E+04  0.10728747315E+04  0.25500000000E-02 0. -1.
    8880023    1    1    2    0    0  0.41620830826E+03 -0.56200047548E+03 -0.77482998917E+03  0.12341983668E+04  0.65864270000E+03 0.  0.
    8880022    1    1    2    0    0 -0.41620830826E+03  0.56200047548E+03  0.18057668384E+04  0.19424879454E+04  0.15294330000E+03 0.  0.
<mgrwt>
<rscale>  0 0.89256175E+03</rscale>
<asrwt>0</asrwt>
<pdfrwt beam="1">  1        2 0.16505765E+00 0.96066857E+03</pdfrwt>
<pdfrwt beam="2">  1       -2 0.32366332E+00 0.96066857E+03</pdfrwt>
<totfact> 0.52177165E-01</totfact>
</mgrwt>
</event>
<event>
 4    1  0.2089815E-007  0.9153380E+03  0.7818608E-02  0.9501844E-01
         -2   -1    0    0    0  501 -0.00000000000E+00  0.00000000000E+00  0.17304362873E+04  0.17304362873E+04  0.25500000000E-02 0.  1.
          2   -1    0    0  501    0  0.00000000000E+00 -0.00000000000E+00 -0.88399440652E+03  0.88399440652E+03  0.25500000000E-02 0. -1.
    8880023    1    1    2    0    0  0.17867159151E+03 -0.61000817468E+03 -0.55327393924E+03  0.10695586795E+04  0.65864270000E+03 0.  0.
    8880022    1    1    2    0    0 -0.17867159151E+03  0.61000817468E+03  0.13997158201E+04  0.15448720143E+04  0.15294330000E+03 0.  1.
<mgrwt>
<rscale>  0 0.84147970E+03</rscale>
<asrwt>0</asrwt>
<pdfrwt beam="1">  1        2 0.13599914E+00 0.91533803E+03</pdfrwt>
<pdfrwt beam="2">  1       -2 0.26622097E+00 0.91533803E+03</pdfrwt>
<totfact> 0.15529399E+00</totfact>
</mgrwt>
</event>
<event>
 4    1  0.2089815E-007  0.7163085E+03  0.7818608E-02  0.9935280E-01
          2   -1    0    0  501    0  0.00000000000E+00  0.00000000000E+00  0.15380340508E+04  0.15380340508E+04  0.25500000000E-02 0. -1.
         -2   -1    0    0    0  501 -0.00000000000E+00 -0.00000000000E+00 -0.20756369786E+03  0.20756369788E+03  0.25500000000E-02 0.  1.
    8880023    1    1    2    0    0 -0.19058550846E+03  0.20727974238E+03  0.12042795095E+04  0.14012091461E+04  0.65864270000E+03 0. -1.
    8880022    1    1    2    0    0  0.19058550846E+03 -0.20727974238E+03  0.12619084340E+03  0.34438860261E+03  0.15294330000E+03 0.  0.
<mgrwt>
<rscale>  0 0.58581502E+03</rscale>
<asrwt>0</asrwt>
<pdfrwt beam="1">  1        2 0.23662061E+00 0.71630855E+03</pdfrwt>
<pdfrwt beam="2">  1       -2 0.31932878E-01 0.71630855E+03</pdfrwt>
<totfact> 0.11250841E+02</totfact>
</mgrwt>
</event>
<event>
 4    1  0.2089815E-007  0.9061852E+03  0.7818608E-02  0.9516174E-01
          2   -1    0    0  501    0  0.00000000000E+00  0.00000000000E+00  0.11137273401E+04  0.11137273401E+04  0.25500000000E-02 0. -1.
         -2   -1    0    0    0  501 -0.00000000000E+00 -0.00000000000E+00 -0.60411426817E+03  0.60411426818E+03  0.25500000000E-02 0.  1.
    8880023    1    1    2    0    0 -0.14429698548E+03  0.60542525235E+03  0.57562187871E+03  0.10735511677E+04  0.65864270000E+03 0. -1.
    8880022    1    1    2    0    0  0.14429698548E+03 -0.60542525235E+03 -0.66008806784E+02  0.64429044056E+03  0.15294330000E+03 0.  1.
<mgrwt>
<rscale>  0 0.83101776E+03</rscale>
<asrwt>0</asrwt>
<pdfrwt beam="1">  1        2 0.17134267E+00 0.90618517E+03</pdfrwt>
<pdfrwt beam="2">  1       -2 0.92940657E-01 0.90618517E+03</pdfrwt>
<totfact> 0.21009752E+01</totfact>
</mgrwt>
</event>
<event>
 4    1  0.2089815E-007  0.7776612E+03  0.7818608E-02  0.9761360E-01
          2   -1    0    0  501    0  0.00000000000E+00  0.00000000000E+00  0.22207982307E+04  0.22207982307E+04  0.25500000000E-02 0. -1.
         -2   -1    0    0    0  501 -0.00000000000E+00 -0.00000000000E+00 -0.60122258574E+03  0.60122258575E+03  0.25500000000E-02 0.  1.
    8880023    1    1    2    0    0  0.25148102346E+03  0.32818303173E+03  0.20581574605E+04  0.22001747990E+04  0.65864270000E+03 0. -1.
    8880022    1    1    2    0    0 -0.25148102346E+03 -0.32818303173E+03 -0.43858181557E+03  0.62184601747E+03  0.15294330000E+03 0.  0.
<mgrwt>
<rscale>  0 0.67478075E+03</rscale>
<asrwt>0</asrwt>
<pdfrwt beam="1">  1        2 0.34166127E+00 0.77766125E+03</pdfrwt>
<pdfrwt beam="2">  1       -2 0.92495782E-01 0.77766125E+03</pdfrwt>
<totfact> 0.51699918E+00</totfact>
</mgrwt>
</event>
<event>
 4    1  0.2089815E-007  0.1100707E+04  0.7818608E-02  0.9260269E-01
         -2   -1    0    0    0  501 -0.00000000000E+00  0.00000000000E+00  0.83158037506E+03  0.83158037506E+03  0.25500000000E-02 0.  1.
          2   -1    0    0  501    0  0.00000000000E+00 -0.00000000000E+00 -0.13560910021E+04  0.13560910021E+04  0.25500000000E-02 0. -1.
    8880023    1    1    2    0    0  0.68065756032E+03  0.56075979685E+03 -0.65848438397E+03  0.12826371874E+04  0.65864270000E+03 0.  0.
    8880022    1    1    2    0    0 -0.68065756032E+03 -0.56075979685E+03  0.13397375692E+03  0.90503418982E+03  0.15294330000E+03 0.  0.
<mgrwt>
<rscale>  0 0.10452430E+04</rscale>
<asrwt>0</asrwt>
<pdfrwt beam="1">  1        2 0.20862939E+00 0.11007073E+04</pdfrwt>
<pdfrwt beam="2">  1       -2 0.12793544E+00 0.11007073E+04</pdfrwt>
<totfact> 0.68185856E+00</totfact>
</mgrwt>
</event>
<event>
 4    1  0.2089815E-007  0.1950586E+04  0.7818608E-02  0.8643515E-01
         -2   -1    0    0    0  501 -0.00000000000E+00  0.00000000000E+00  0.11064414152E+04  0.11064414152E+04  0.25500000000E-02 0.  1.
          2   -1    0    0  501    0  0.00000000000E+00 -0.00000000000E+00 -0.35805948349E+04  0.35805948349E+04  0.25500000000E-02 0. -1.
    8880023    1    1    2    0    0  0.24845537225E+03 -0.18191327037E+04 -0.19802548159E+04  0.27796030666E+04  0.65864270000E+03 0.  0.
    8880022    1    1    2    0    0 -0.24845537225E+03  0.18191327037E+04 -0.49389860378E+03  0.19074331835E+04  0.15294330000E+03 0.  0.
<mgrwt>
<rscale>  0 0.19229526E+04</rscale>
<asrwt>0</asrwt>
<pdfrwt beam="1">  1        2 0.55086074E+00 0.19505856E+04</pdfrwt>
<pdfrwt beam="2">  1       -2 0.17022176E+00 0.19505856E+04</pdfrwt>
<totfact> 0.13679426E-01</totfact>
</mgrwt>
</event>
<event>
 4    1  0.2089815E-007  0.8589285E+03  0.7818608E-02  0.9595472E-01
         -2   -1    0    0    0  501 -0.00000000000E+00  0.00000000000E+00  0.31161047264E+03  0.31161047265E+03  0.25500000000E-02 0.  1.
          2   -1    0    0  501    0  0.00000000000E+00 -0.00000000000E+00 -0.20467255175E+04  0.20467255175E+04  0.25500000000E-02 0. -1.
    8880023    1    1    2    0    0  0.50767554513E+03  0.21497332291E+03 -0.15223028818E+04  0.17479028173E+04  0.65864270000E+03 0. -1.
    8880022    1    1    2    0    0 -0.50767554513E+03 -0.21497332291E+03 -0.21281216303E+03  0.61043317278E+03  0.15294330000E+03 0.  0.
<mgrwt>
<rscale>  0 0.77596582E+03</rscale>
<asrwt>0</asrwt>
<pdfrwt beam="1">  1        2 0.31488084E+00 0.85892852E+03</pdfrwt>
<pdfrwt beam="2">  1       -2 0.47940074E-01 0.85892852E+03</pdfrwt>
<totfact> 0.26459613E+01</totfact>
</mgrwt>
</event>
<event>
 4    1  0.2335115E-007  0.8099751E+03  0.7818608E-02  0.9689629E-01
          2   -1    0    0  501    0  0.00000000000E+00  0.00000000000E+00  0.23462493463E+04  0.23462493463E+04  0.25500000000E-02 0. -1.
         -2   -1    0    0    0  501 -0.00000000000E+00 -0.00000000000E+00 -0.13062168039E+04  0.13062168039E+04  0.25500000000E-02 0.  1.
    8880023    1    1    2    0    0 -0.31245418104E+03 -0.35301809949E+03  0.22250972944E+04  0.23679352968E+04  0.65864270000E+03 0. -1.
    8880022    1    1    2    0    0  0.31245418104E+03  0.35301809949E+03 -0.11850647521E+04  0.12845308535E+04  0.15294330000E+03 0.  0.
<mgrwt>
<rscale>  0 0.71637654E+03</rscale>
<asrwt>0</asrwt>
<pdfrwt beam="1">  1        2 0.36096143E+00 0.80997506E+03</pdfrwt>
<pdfrwt beam="2">  1       -2 0.20095643E+00 0.80997506E+03</pdfrwt>
<totfact> 0.58180290E-01</totfact>
</mgrwt>
</event>
<event>
 4    1  0.2089815E-007  0.1100425E+04  0.7818608E-02  0.9260584E-01
         -2   -1    0    0    0  501 -0.00000000000E+00  0.00000000000E+00  0.47941098011E+03  0.47941098012E+03  0.25500000000E-02 0.  1.
          2   -1    0    0  501    0  0.00000000000E+00 -0.00000000000E+00 -0.33573687891E+04  0.33573687891E+04  0.25500000000E-02 0. -1.
    8880023    1    1    2    0    0  0.23107995978E+03 -0.85072087278E+03 -0.27120684082E+04  0.29268155405E+04  0.65864270000E+03 0. -1.
    8880022    1    1    2    0    0 -0.23107995978E+03  0.85072087278E+03 -0.16588940077E+03  0.90996422869E+03  0.15294330000E+03 0.  0.
<mgrwt>
<rscale>  0 0.10449402E+04</rscale>
<asrwt>0</asrwt>
<pdfrwt beam="1">  1        2 0.51651826E+00 0.11004245E+04</pdfrwt>
<pdfrwt beam="2">  1       -2 0.73755537E-01 0.11004245E+04</pdfrwt>
<totfact> 0.17150548E+00</totfact>
</mgrwt>
</event>
<event>
 4    1  0.2089815E-007  0.8140035E+03  0.7818608E-02  0.9681297E-01
          2   -1    0    0  501    0  0.00000000000E+00  0.00000000000E+00  0.38959499339E+03  0.38959499340E+03  0.25500000000E-02 0. -1.
         -2   -1    0    0    0  501 -0.00000000000E+00 -0.00000000000E+00 -0.15887218418E+04  0.15887218418E+04  0.25500000000E-02 0.  1.
    8880023    1    1    2    0    0 -0.47810478034E+03  0.14396856934E+02 -0.16764678507E+03  0.83108790226E+03  0.65864270000E+03 0.  0.
    8880022    1    1    2    0    0  0.47810478034E+03 -0.14396856934E+02 -0.10314800633E+04  0.11472289329E+04  0.15294330000E+03 0.  0.
<mgrwt>
<rscale>  0 0.72141338E+03</rscale>
<asrwt>0</asrwt>
<pdfrwt beam="1">  1        2 0.59937692E-01 0.81400347E+03</pdfrwt>
<pdfrwt beam="2">  1       -2 0.24441874E+00 0.81400347E+03</pdfrwt>
<totfact> 0.58090671E+00</totfact>
</mgrwt>
</event>
<event>
 4    1  0.2089815E-007  0.8148824E+03  0.7818608E-02  0.9679495E-01
         -2   -1    0    0    0  501 -0.00000000000E+00  0.00000000000E+00  0.49208616823E+03  0.49208616824E+03  0.25500000000E-02 0.  1.
          2   -1    0    0  501    0  0.00000000000E+00 -0.00000000000E+00 -0.20022331123E+04  0.20022331123E+04  0.25500000000E-02 0. -1.
    8880023    1    1    2    0    0  0.23483500832E+03 -0.41842045966E+03 -0.17545468878E+04  0.19345459803E+04  0.65864270000E+03 0. -1.
    8880022    1    1    2    0    0 -0.23483500832E+03  0.41842045966E+03  0.24439994370E+03  0.55977330026E+03  0.15294330000E+03 0.  0.
<mgrwt>
<rscale>  0 0.72250863E+03</rscale>
<asrwt>0</asrwt>
<pdfrwt beam="1">  1        2 0.30803586E+00 0.81488243E+03</pdfrwt>
<pdfrwt beam="2">  1       -2 0.75705565E-01 0.81488243E+03</pdfrwt>
<totfact> 0.10687379E+01</totfact>
</mgrwt>
</event>
<event>
 4    1  0.2089815E-007  0.1300542E+04  0.7818608E-02  0.9065092E-01
          2   -1    0    0  501    0  0.00000000000E+00  0.00000000000E+00  0.25819971675E+04  0.25819971675E+04  0.25500000000E-02 0. -1.
         -2   -1    0    0    0  501 -0.00000000000E+00 -0.00000000000E+00 -0.75344705737E+03  0.75344705737E+03  0.25500000000E-02 0.  1.
    8880023    1    1    2    0    0 -0.11095635963E+04 -0.16269336603E+03  0.17775059503E+04  0.22024845323E+04  0.65864270000E+03 0.  0.
    8880022    1    1    2    0    0  0.11095635963E+04  0.16269336603E+03  0.51044159830E+02  0.11329596925E+04  0.15294330000E+03 0.  0.
<mgrwt>
<rscale>  0 0.12561361E+04</rscale>
<asrwt>0</asrwt>
<pdfrwt beam="1">  1        2 0.39723032E+00 0.13005425E+04</pdfrwt>
<pdfrwt beam="2">  1       -2 0.11591494E+00 0.13005425E+04</pdfrwt>
<totfact> 0.17505595E+00</totfact>
</mgrwt>
</event>
<event>
 4    1  0.2089815E-007  0.7159981E+03  0.7818608E-02  0.9936367E-01
         -2   -1    0    0    0  501 -0.00000000000E+00  0.00000000000E+00  0.21169293093E+03  0.21169293095E+03  0.25500000000E-02 0.  1.
          2   -1    0    0  501    0  0.00000000000E+00 -0.00000000000E+00 -0.18295918481E+04  0.18295918481E+04  0.25500000000E-02 0. -1.
    8880023    1    1    2    0    0  0.20711046343E+03  0.18960060989E+03 -0.15598326554E+04  0.17163132740E+04  0.65864270000E+03 0. -1.
    8880022    1    1    2    0    0 -0.20711046343E+03 -0.18960060989E+03 -0.58066261761E+02  0.32497150506E+03  0.15294330000E+03 0.  0.
<mgrwt>
<rscale>  0 0.58530706E+03</rscale>
<asrwt>0</asrwt>
<pdfrwt beam="1">  1        2 0.28147566E+00 0.71599814E+03</pdfrwt>
<pdfrwt beam="2">  1       -2 0.32568144E-01 0.71599814E+03</pdfrwt>
<totfact> 0.75070800E+01</totfact>
</mgrwt>
</event>
<event>
 4    1  0.2089815E-007  0.9419236E+03  0.7818608E-02  0.9461831E-01
          2   -1    0    0  501    0  0.00000000000E+00  0.00000000000E+00  0.16527849393E+04  0.16527849393E+04  0.25500000000E-02 0. -1.
         -2   -1    0    0    0  501 -0.00000000000E+00 -0.00000000000E+00 -0.54402440187E+03  0.54402440188E+03  0.25500000000E-02 0.  1.
    8880023    1    1    2    0    0  0.43174910603E+03  0.51672300004E+03  0.11717865975E+04  0.15034307385E+04  0.65864270000E+03 0. -1.
    8880022    1    1    2    0    0 -0.43174910603E+03 -0.51672300004E+03 -0.63026060043E+02  0.69337860263E+03  0.15294330000E+03 0.  0.
<mgrwt>
<rscale>  0 0.87157344E+03</rscale>
<asrwt>0</asrwt>
<pdfrwt beam="1">  1        2 0.25427461E+00 0.94192365E+03</pdfrwt>
<pdfrwt beam="2">  1       -2 0.83696062E-01 0.94192365E+03</pdfrwt>
<totfact> 0.13056293E+01</totfact>
</mgrwt>
</event>
<event>
 4    1  0.2089815E-007  0.9340637E+03  0.7818608E-02  0.9473424E-01
         -2   -1    0    0    0  501 -0.00000000000E+00  0.00000000000E+00  0.92692838674E+03  0.92692838675E+03  0.25500000000E-02 0.  1.
          2   -1    0    0  501    0  0.00000000000E+00 -0.00000000000E+00 -0.11047777736E+04  0.11047777736E+04  0.25500000000E-02 0. -1.
    8880023    1    1    2    0    0 -0.50460859082E+03 -0.42899288028E+03 -0.70602783222E+03  0.11708758377E+04  0.65864270000E+03 0.  1.
    8880022    1    1    2    0    0  0.50460859082E+03  0.42899288028E+03  0.52817844533E+03  0.86083032265E+03  0.15294330000E+03 0.  0.
<mgrwt>
<rscale>  0 0.86271873E+03</rscale>
<asrwt>0</asrwt>
<pdfrwt beam="1">  1        2 0.16996581E+00 0.93406366E+03</pdfrwt>
<pdfrwt beam="2">  1       -2 0.14260437E+00 0.93406366E+03</pdfrwt>
<totfact> 0.73921302E+00</totfact>
</mgrwt>
</event>
<event>
 4    1  0.2089815E-007  0.8955706E+03  0.7818608E-02  0.9533180E-01
          2   -1    0    0  501    0  0.00000000000E+00  0.00000000000E+00  0.13927603800E+04  0.13927603800E+04  0.25500000000E-02 0. -1.
         -2   -1    0    0    0  501 -0.00000000000E+00 -0.00000000000E+00 -0.92277465809E+03  0.92277465809E+03  0.25500000000E-02 0.  1.
    8880023    1    1    2    0    0 -0.44048429778E+03 -0.41738489742E+03  0.11060957210E+04  0.14231986929E+04  0.65864270000E+03 0. -1.
    8880022    1    1    2    0    0  0.44048429778E+03  0.41738489742E+03 -0.63610999902E+03  0.89233634525E+03  0.15294330000E+03 0.  0.
<mgrwt>
<rscale>  0 0.81881188E+03</rscale>
<asrwt>0</asrwt>
<pdfrwt beam="1">  1        2 0.21427083E+00 0.89557064E+03</pdfrwt>
<pdfrwt beam="2">  1       -2 0.14196533E+00 0.89557064E+03</pdfrwt>
<totfact> 0.50817245E+00</totfact>
</mgrwt>
</event>
<event>
 4    1  0.2089815E-007  0.1283099E+04  0.7818608E-02  0.9080294E-01
          2   -1    0    0  501    0  0.00000000000E+00  0.00000000000E+00  0.20253826699E+04  0.20253826699E+04  0.25500000000E-02 0. -1.
         -2   -1    0    0    0  501 -0.00000000000E+00 -0.00000000000E+00 -0.11518522106E+04  0.11518522106E+04  0.25500000000E-02 0.  1.
    8880023    1    1    2    0    0  0.80062451161E+03  0.75599792633E+03 -0.52871456884E+03  0.13877614257E+04  0.65864270000E+03 0.  0.
    8880022    1    1    2    0    0 -0.80062451161E+03 -0.75599792633E+03  0.14022450281E+04  0.17894734547E+04  0.15294330000E+03 0.  0.
<mgrwt>
<rscale>  0 0.12379242E+04</rscale>
<asrwt>0</asrwt>
<pdfrwt beam="1">  1        2 0.31159733E+00 0.12830989E+04</pdfrwt>
<pdfrwt beam="2">  1       -2 0.17720803E+00 0.12830989E+04</pdfrwt>
<totfact> 0.11803468E+00</totfact>
</mgrwt>
</event>
<event>
 4    1  0.2089815E-007  0.1496602E+04  0.7818608E-02  0.8912039E-01
          2   -1    0    0  501    0  0.00000000000E+00  0.00000000000E+00  0.21936535078E+04  0.21936535078E+04  0.25500000000E-02 0. -1.
         -2   -1    0    0    0  501 -0.00000000000E+00 -0.00000000000E+00 -0.12914388008E+04  0.12914388008E+04  0.25500000000E-02 0.  1.
    8880023    1    1    2    0    0  0.11919691754E+04 -0.62065836679E+03 -0.45975015901E+03  0.15656269474E+04  0.65864270000E+03 0.  1.
    8880022    1    1    2    0    0 -0.11919691754E+04  0.62065836679E+03  0.13619648660E+04  0.19194653612E+04  0.15294330000E+03 0.  0.
<mgrwt>
<rscale>  0 0.14592117E+04</rscale>
<asrwt>0</asrwt>
<pdfrwt beam="1">  1        2 0.33748516E+00 0.14966020E+04</pdfrwt>
<pdfrwt beam="2">  1       -2 0.19868289E+00 0.14966020E+04</pdfrwt>
<totfact> 0.66374156E-01</totfact>
</mgrwt>
</event>
<event>
 4    1  0.2089815E-007  0.6899516E+03  0.7818608E-02  0.1004176E+00
          2   -1    0    0  501    0  0.00000000000E+00  0.00000000000E+00  0.21779955803E+04  0.21779955803E+04  0.25500000000E-02 0. -1.
         -2   -1    0    0    0  501 -0.00000000000E+00 -0.00000000000E+00 -0.10518600547E+03  0.10518600550E+03  0.25500000000E-02 0.  1.
    8880023    1    1    2    0    0  0.14997596824E+03  0.14046447761E+03  0.13455637335E+04  0.15121425289E+04  0.65864270000E+03 0.  0.
    8880022    1    1    2    0    0 -0.14997596824E+03 -0.14046447761E+03  0.72724584139E+03  0.77103905696E+03  0.15294330000E+03 0.  0.
<mgrwt>
<rscale>  0 0.53856626E+03</rscale>
<asrwt>0</asrwt>
<pdfrwt beam="1">  1        2 0.33507622E+00 0.68995164E+03</pdfrwt>
<pdfrwt beam="2">  1       -2 0.16182464E-01 0.68995164E+03</pdfrwt>
<totfact> 0.16931832E+02</totfact>
</mgrwt>
</event>
<event>
 4    1  0.2089815E-007  0.6799270E+03  0.7818608E-02  0.1009365E+00
          2   -1    0    0  501    0  0.00000000000E+00  0.00000000000E+00  0.31329631695E+04  0.31329631695E+04  0.25500000000E-02 0. -1.
         -2   -1    0    0    0  501 -0.00000000000E+00 -0.00000000000E+00 -0.42432570239E+03  0.42432570239E+03  0.25500000000E-02 0.  1.
    8880023    1    1    2    0    0 -0.14065056838E+03  0.93316212127E+02  0.30621618317E+04  0.31367396748E+04  0.65864270000E+03 0. -1.
    8880022    1    1    2    0    0  0.14065056838E+03 -0.93316212127E+02 -0.35352436456E+03  0.42054919710E+03  0.15294330000E+03 0.  0.
<mgrwt>
<rscale>  0 0.51727794E+03</rscale>
<asrwt>0</asrwt>
<pdfrwt beam="1">  1        2 0.48199433E+00 0.67992698E+03</pdfrwt>
<pdfrwt beam="2">  1       -2 0.65280878E-01 0.67992698E+03</pdfrwt>
<totfact> 0.33733248E+00</totfact>
</mgrwt>
</event>
<event>
 4    1  0.3129830E-007  0.8614240E+03  0.7818608E-02  0.9591035E-01
         -2   -1    0    0    0  501 -0.00000000000E+00  0.00000000000E+00  0.13758029303E+04  0.13758029303E+04  0.25500000000E-02 0.  1.
          2   -1    0    0  501    0  0.00000000000E+00 -0.00000000000E+00 -0.23575434925E+04  0.23575434925E+04  0.25500000000E-02 0. -1.
    8880023    1    1    2    0    0  0.23796433281E+03  0.50161156076E+03 -0.22126318859E+04  0.23744033462E+04  0.65864270000E+03 0.  0.
    8880022    1    1    2    0    0 -0.23796433281E+03 -0.50161156076E+03  0.12308913237E+04  0.13589430765E+04  0.15294330000E+03 0.  0.
<mgrwt>
<rscale>  0 0.77892373E+03</rscale>
<asrwt>0</asrwt>
<pdfrwt beam="1">  1        2 0.36269900E+00 0.86142405E+03</pdfrwt>
<pdfrwt beam="2">  1       -2 0.21166199E+00 0.86142405E+03</pdfrwt>
<totfact> 0.48419015E-01</totfact>
</mgrwt>
</event>
<event>
 4    1  0.2089815E-007  0.1181935E+04  0.7818608E-02  0.9174886E-01
          2   -1    0    0  501    0  0.00000000000E+00  0.00000000000E+00  0.32217569907E+04  0.32217569907E+04  0.25500000000E-02 0. -1.
         -2   -1    0    0    0  501 -0.00000000000E+00 -0.00000000000E+00 -0.64684390216E+03  0.64684390217E+03  0.25500000000E-02 0.  1.
    8880023    1    1    2    0    0  0.70997673912E+03  0.67756352307E+03  0.26200685208E+04  0.28743222780E+04  0.65864270000E+03 0.  0.
    8880022    1    1    2    0    0 -0.70997673912E+03 -0.67756352307E+03 -0.45155432274E+02  0.99427861486E+03  0.15294330000E+03 0.  0.
<mgrwt>
<rscale>  0 0.11316446E+04</rscale>
<asrwt>0</asrwt>
<pdfrwt beam="1">  1        2 0.49565492E+00 0.11819346E+04</pdfrwt>
<pdfrwt beam="2">  1       -2 0.99514447E-01 0.11819346E+04</pdfrwt>
<totfact> 0.10456625E+00</totfact>
</mgrwt>
</event>
<event>
 4    1  0.2089815E-007  0.1381882E+04  0.7818608E-02  0.8997890E-01
         -2   -1    0    0    0  501 -0.00000000000E+00  0.00000000000E+00  0.75393414063E+03  0.75393414064E+03  0.25500000000E-02 0.  1.
          2   -1    0    0  501    0  0.00000000000E+00 -0.00000000000E+00 -0.25693660688E+04  0.25693660688E+04  0.25500000000E-02 0. -1.
    8880023    1    1    2    0    0  0.12147571511E+04  0.12354404706E+02 -0.15384503742E+04  0.20679524481E+04  0.65864270000E+03 0.  0.
    8880022    1    1    2    0    0 -0.12147571511E+04 -0.12354404706E+02 -0.27698155396E+03  0.12553477613E+04  0.15294330000E+03 0.  0.
<mgrwt>
<rscale>  0 0.13407102E+04</rscale>
<asrwt>0</asrwt>
<pdfrwt beam="1">  1        2 0.39528708E+00 0.13818820E+04</pdfrwt>
<pdfrwt beam="2">  1       -2 0.11598987E+00 0.13818820E+04</pdfrwt>
<totfact> 0.17620819E+00</totfact>
</mgrwt>
</event>
<event>
 4    1  0.2089815E-007  0.7616029E+03  0.7818608E-02  0.9800975E-01
         -2   -1    0    0    0  501 -0.00000000000E+00  0.00000000000E+00  0.22052482963E+03  0.22052482965E+03  0.25500000000E-02 0.  1.
          2   -1    0    0  501    0  0.00000000000E+00 -0.00000000000E+00 -0.16297967116E+04  0.16297967116E+04  0.25500000000E-02 0. -1.
    8880023    1    1    2    0    0  0.29679662169E+03 -0.24112349322E+03 -0.10875561525E+04  0.13277113259E+04  0.65864270000E+03 0. -1.
    8880022    1    1    2    0    0 -0.29679662169E+03  0.24112349322E+03 -0.32171572939E+03  0.52261021535E+03  0.15294330000E+03 0.  1.
<mgrwt>
<rscale>  0 0.65310230E+03</rscale>
<asrwt>0</asrwt>
<pdfrwt beam="1">  1        2 0.25073795E+00 0.76160290E+03</pdfrwt>
<pdfrwt beam="2">  1       -2 0.33926898E-01 0.76160290E+03</pdfrwt>
<totfact> 0.88949665E+01</totfact>
</mgrwt>
</event>
<event>
 4    1  0.2089815E-007  0.1534246E+04  0.7818608E-02  0.8885824E-01
          2   -1    0    0  501    0  0.00000000000E+00  0.00000000000E+00  0.18345711861E+04  0.18345711861E+04  0.25500000000E-02 0. -1.
         -2   -1    0    0    0  501 -0.00000000000E+00 -0.00000000000E+00 -0.17545170201E+04  0.17545170201E+04  0.25500000000E-02 0.  1.
    8880023    1    1    2    0    0 -0.12566287855E+04  0.58393993005E+03  0.10775890172E+04  0.18748626730E+04  0.65864270000E+03 0. -1.
    8880022    1    1    2    0    0  0.12566287855E+04 -0.58393993005E+03 -0.99753485116E+03  0.17142255332E+04  0.15294330000E+03 0.  0.
<mgrwt>
<rscale>  0 0.14979393E+04</rscale>
<asrwt>0</asrwt>
<pdfrwt beam="1">  1        2 0.28224172E+00 0.15342464E+04</pdfrwt>
<pdfrwt beam="2">  1       -2 0.26992570E+00 0.15342464E+04</pdfrwt>
<totfact> 0.37435644E-01</totfact>
</mgrwt>
</event>
<event>
 4    1  0.2089815E-007  0.7028595E+03  0.7818608E-02  0.9985540E-01
          2   -1    0    0  501    0  0.00000000000E+00  0.00000000000E+00  0.20330927985E+04  0.20330927985E+04  0.25500000000E-02 0. -1.
         -2   -1    0    0    0  501 -0.00000000000E+00 -0.00000000000E+00 -0.50682090430E+03  0.50682090431E+03  0.25500000000E-02 0.  1.
    8880023    1    1    2    0    0 -0.16963415028E+03 -0.17727232808E+03  0.19239083246E+04  0.20482760241E+04  0.65864270000E+03 0. -1.
    8880022    1    1    2    0    0  0.16963415028E+03  0.17727232808E+03 -0.39763643044E+03  0.49163767866E+03  0.15294330000E+03 0.  0.
<mgrwt>
<rscale>  0 0.56288870E+03</rscale>
<asrwt>0</asrwt>
<pdfrwt beam="1">  1        2 0.31278350E+00 0.70285947E+03</pdfrwt>
<pdfrwt beam="2">  1       -2 0.77972449E-01 0.70285947E+03</pdfrwt>
<totfact> 0.97892755E+00</totfact>
</mgrwt>
</event>
<event>
 4    1  0.2089815E-007  0.1094669E+04  0.7818608E-02  0.9267015E-01
          2   -1    0    0  501    0  0.00000000000E+00  0.00000000000E+00  0.52304985731E+03  0.52304985732E+03  0.25500000000E-02 0. -1.
         -2   -1    0    0    0  501 -0.00000000000E+00 -0.00000000000E+00 -0.25584831049E+04  0.25584831049E+04  0.25500000000E-02 0.  1.
    8880023    1    1    2    0    0 -0.86949977676E+03 -0.91977958747E+02 -0.18870739169E+04  0.21815929916E+04  0.65864270000E+03 0.  0.
    8880022    1    1    2    0    0  0.86949977676E+03  0.91977958747E+02 -0.14835933062E+03  0.89993997060E+03  0.15294330000E+03 0.  0.
<mgrwt>
<rscale>  0 0.10387707E+04</rscale>
<asrwt>0</asrwt>
<pdfrwt beam="1">  1        2 0.80469210E-01 0.10946689E+04</pdfrwt>
<pdfrwt beam="2">  1       -2 0.39361278E+00 0.10946689E+04</pdfrwt>
<totfact> 0.48030241E-01</totfact>
</mgrwt>
</event>
<event>
 4    1  0.2157337E-007  0.1234088E+04  0.7818608E-02  0.9124679E-01
         -2   -1    0    0    0  501 -0.00000000000E+00  0.00000000000E+00  0.18046626273E+04  0.18046626273E+04  0.25500000000E-02 0.  1.
          2   -1    0    0  501    0  0.00000000000E+00 -0.00000000000E+00 -0.26917657471E+04  0.26917657471E+04  0.25500000000E-02 0. -1.
    8880023    1    1    2    0    0  0.10279877167E+04  0.18000908986E+03 -0.23727091937E+04  0.26744571678E+04  0.65864270000E+03 0.  0.
    8880022    1    1    2    0    0 -0.10279877167E+04 -0.18000908986E+03  0.14856060739E+04  0.18219712067E+04  0.15294330000E+03 0.  0.
<mgrwt>
<rscale>  0 0.11865871E+04</rscale>
<asrwt>0</asrwt>
<pdfrwt beam="1">  1        2 0.41411781E+00 0.12340876E+04</pdfrwt>
<pdfrwt beam="2">  1       -2 0.27764040E+00 0.12340876E+04</pdfrwt>
<totfact> 0.11413381E-01</totfact>
</mgrwt>
</event>
<event>
 4    1  0.2089815E-007  0.1274792E+04  0.7818608E-02  0.9087640E-01
          2   -1    0    0  501    0  0.00000000000E+00  0.00000000000E+00  0.22348489197E+04  0.22348489197E+04  0.25500000000E-02 0. -1.
         -2   -1    0    0    0  501 -0.00000000000E+00 -0.00000000000E+00 -0.15857995105E+04  0.15857995105E+04  0.25500000000E-02 0.  1.
    8880023    1    1    2    0    0 -0.36525321012E+03  0.10285302233E+04  0.18138924742E+04  0.22170476860E+04  0.65864270000E+03 0.  0.
    8880022    1    1    2    0    0  0.36525321012E+03 -0.10285302233E+04 -0.11648430650E+04  0.16036007442E+04  0.15294330000E+03 0.  0.
<mgrwt>
<rscale>  0 0.12292410E+04</rscale>
<asrwt>0</asrwt>
<pdfrwt beam="1">  1        2 0.34382291E+00 0.12747920E+04</pdfrwt>
<pdfrwt beam="2">  1       -2 0.24396916E+00 0.12747920E+04</pdfrwt>
<totfact> 0.33309331E-01</totfact>
</mgrwt>
</event>
<event>
 4    1  0.2089815E-007  0.6670035E+03  0.7818608E-02  0.1017909E+00
         -2   -1    0    0    0  501 -0.00000000000E+00  0.00000000000E+00  0.49471134669E+03  0.49471134669E+03  0.25500000000E-02 0.  1.
          2   -1    0    0  501    0  0.00000000000E+00 -0.00000000000E+00 -0.17828590872E+04  0.17828590872E+04  0.25500000000E-02 0. -1.
    8880023    1    1    2    0    0 -0.10088297810E+03  0.30101470662E+02 -0.16997991283E+04  0.18259821348E+04  0.65864270000E+03 0. -1.
    8880022    1    1    2    0    0  0.10088297810E+03 -0.30101470662E+02  0.41165138778E+03  0.45158829910E+03  0.15294330000E+03 0.  0.
<mgrwt>
<rscale>  0 0.48448945E+03</rscale>
<asrwt>0</asrwt>
<pdfrwt beam="1">  1        2 0.27428601E+00 0.66700351E+03</pdfrwt>
<pdfrwt beam="2">  1       -2 0.76109439E-01 0.66700351E+03</pdfrwt>
<totfact> 0.14213122E+01</totfact>
</mgrwt>
</event>
<event>
 4    1  0.2089815E-007  0.1041134E+04  0.7818608E-02  0.9329616E-01
          2   -1    0    0  501    0  0.00000000000E+00  0.00000000000E+00  0.24698335491E+04  0.24698335491E+04  0.25500000000E-02 0. -1.
         -2   -1    0    0    0  501 -0.00000000000E+00 -0.00000000000E+00 -0.10553207679E+04  0.10553207679E+04  0.25500000000E-02 0.  1.
    8880023    1    1    2    0    0 -0.75714260131E+03 -0.27728202803E+03  0.21717949474E+04  0.24084546376E+04  0.65864270000E+03 0.  0.
    8880022    1    1    2    0    0  0.75714260131E+03  0.27728202803E+03 -0.75728216611E+03  0.11166996794E+04  0.15294330000E+03 0.  0.
<mgrwt>
<rscale>  0 0.98101493E+03</rscale>
<asrwt>0</asrwt>
<pdfrwt beam="1">  1        2 0.37997439E+00 0.10411342E+04</pdfrwt>
<pdfrwt beam="2">  1       -2 0.16235704E+00 0.10411342E+04</pdfrwt>
<totfact> 0.87587760E-01</totfact>
</mgrwt>
</event>
<event>
 4    1  0.2089815E-007  0.1390411E+04  0.7818608E-02  0.8991170E-01
          2   -1    0    0  501    0  0.00000000000E+00  0.00000000000E+00  0.34497284693E+04  0.34497284693E+04  0.25500000000E-02 0. -1.
         -2   -1    0    0    0  501 -0.00000000000E+00 -0.00000000000E+00 -0.55391002268E+03  0.55391002269E+03  0.25500000000E-02 0.  1.
    8880023    1    1    2    0    0  0.11850394023E+04  0.30840609485E+03  0.89722870518E+03  0.16547695489E+04  0.65864270000E+03 0.  0.
    8880022    1    1    2    0    0 -0.11850394023E+04 -0.30840609485E+03  0.19985897415E+04  0.23488689431E+04  0.15294330000E+03 0.  0.
<mgrwt>
<rscale>  0 0.13495489E+04</rscale>
<asrwt>0</asrwt>
<pdfrwt beam="1">  1        2 0.53072746E+00 0.13904111E+04</pdfrwt>
<pdfrwt beam="2">  1       -2 0.85216927E-01 0.13904111E+04</pdfrwt>
<totfact> 0.10312981E+00</totfact>
</mgrwt>
</event>
<event>
 4    1  0.2089815E-007  0.6880992E+03  0.7818608E-02  0.1005069E+00
          2   -1    0    0  501    0  0.00000000000E+00  0.00000000000E+00  0.74227703681E+03  0.74227703682E+03  0.25500000000E-02 0. -1.
         -2   -1    0    0    0  501 -0.00000000000E+00 -0.00000000000E+00 -0.33936503283E+03  0.33936503284E+03  0.25500000000E-02 0.  1.
    8880023    1    1    2    0    0  0.64671599256E+02  0.18838219247E+03  0.45532828168E+03  0.82510866954E+03  0.65864270000E+03 0. -1.
    8880022    1    1    2    0    0 -0.64671599256E+02 -0.18838219247E+03 -0.52416277697E+02  0.25653340011E+03  0.15294330000E+03 0.  0.
<mgrwt>
<rscale>  0 0.53482189E+03</rscale>
<asrwt>0</asrwt>
<pdfrwt beam="1">  1        2 0.11419647E+00 0.68809917E+03</pdfrwt>
<pdfrwt beam="2">  1       -2 0.52210005E-01 0.68809917E+03</pdfrwt>
<totfact> 0.13358332E+02</totfact>
</mgrwt>
</event>
<event>
 4    1  0.2089815E-007  0.1014162E+04  0.7818608E-02  0.9363260E-01
         -2   -1    0    0    0  501 -0.00000000000E+00  0.00000000000E+00  0.39170018873E+03  0.39170018874E+03  0.25500000000E-02 0.  1.
          2   -1    0    0  501    0  0.00000000000E+00 -0.00000000000E+00 -0.22713339210E+04  0.22713339210E+04  0.25500000000E-02 0. -1.
    8880023    1    1    2    0    0 -0.70799918936E+03  0.30569746989E+03 -0.14429638628E+04  0.17637087942E+04  0.65864270000E+03 0. -1.
    8880022    1    1    2    0    0  0.70799918936E+03 -0.30569746989E+03 -0.43666986951E+03  0.89932531554E+03  0.15294330000E+03 0.  0.
<mgrwt>
<rscale>  0 0.95161928E+03</rscale>
<asrwt>0</asrwt>
<pdfrwt beam="1">  1        2 0.34943598E+00 0.10141617E+04</pdfrwt>
<pdfrwt beam="2">  1       -2 0.60261569E-01 0.10141617E+04</pdfrwt>
<totfact> 0.12150509E+01</totfact>
</mgrwt>
</event>
<event>
 4    1  0.2089815E-007  0.7031821E+03  0.7818608E-02  0.9984248E-01
         -2   -1    0    0    0  501 -0.00000000000E+00  0.00000000000E+00  0.42646355888E+03  0.42646355889E+03  0.25500000000E-02 0.  1.
          2   -1    0    0  501    0  0.00000000000E+00 -0.00000000000E+00 -0.14760412887E+04  0.14760412887E+04  0.25500000000E-02 0. -1.
    8880023    1    1    2    0    0 -0.62077693076E+00 -0.24628130950E+03 -0.13266493602E+04  0.15014871295E+04  0.65864270000E+03 0. -1.
    8880022    1    1    2    0    0  0.62077693076E+00  0.24628130950E+03  0.27707163046E+03  0.40101771806E+03  0.15294330000E+03 0.  0.
<mgrwt>
<rscale>  0 0.56346355E+03</rscale>
<asrwt>0</asrwt>
<pdfrwt beam="1">  1        2 0.22708327E+00 0.70318211E+03</pdfrwt>
<pdfrwt beam="2">  1       -2 0.65609779E-01 0.70318211E+03</pdfrwt>
<totfact> 0.28824774E+01</totfact>
</mgrwt>
</event>
<event>
 4    1  0.2089815E-007  0.6688314E+03  0.7818608E-02  0.1016515E+00
          2   -1    0    0  501    0  0.00000000000E+00  0.00000000000E+00  0.12376608368E+04  0.12376608368E+04  0.25500000000E-02 0. -1.
         -2   -1    0    0    0  501 -0.00000000000E+00 -0.00000000000E+00 -0.48400616253E+03  0.48400616254E+03  0.25500000000E-02 0.  1.
    8880023    1    1    2    0    0  0.85427789367E+01 -0.11598397876E+03  0.11219987743E+04  0.13062223081E+04  0.65864270000E+03 0.  0.
    8880022    1    1    2    0    0 -0.85427789367E+01  0.11598397876E+03 -0.36834410006E+03  0.41544469122E+03  0.15294330000E+03 0.  1.
<mgrwt>
<rscale>  0 0.48965554E+03</rscale>
<asrwt>0</asrwt>
<pdfrwt beam="1">  1        2 0.19040936E+00 0.66883142E+03</pdfrwt>
<pdfrwt beam="2">  1       -2 0.74462487E-01 0.66883142E+03</pdfrwt>
<totfact> 0.30016623E+01</totfact>
</mgrwt>
</event>
<event>
 4    1  0.2089815E-007  0.7207481E+03  0.7818608E-02  0.9920063E-01
          2   -1    0    0  501    0  0.00000000000E+00  0.00000000000E+00  0.20341422099E+04  0.20341422099E+04  0.25500000000E-02 0. -1.
         -2   -1    0    0    0  501 -0.00000000000E+00 -0.00000000000E+00 -0.20311463862E+03  0.20311463864E+03  0.25500000000E-02 0.  1.
    8880023    1    1    2    0    0 -0.12159857397E+03 -0.26623548303E+03  0.17566239697E+04  0.18987378763E+04  0.65864270000E+03 0.  0.
    8880022    1    1    2    0    0  0.12159857397E+03  0.26623548303E+03  0.74403601533E+02  0.33851897222E+03  0.15294330000E+03 0.  0.
<mgrwt>
<rscale>  0 0.59298730E+03</rscale>
<asrwt>0</asrwt>
<pdfrwt beam="1">  1        2 0.31294496E+00 0.72074805E+03</pdfrwt>
<pdfrwt beam="2">  1       -2 0.31248406E-01 0.72074805E+03</pdfrwt>
<totfact> 0.62733951E+01</totfact>
</mgrwt>
</event>
<event>
 4    1  0.2089815E-007  0.1619105E+04  0.7818608E-02  0.8829811E-01
         -2   -1    0    0    0  501 -0.00000000000E+00  0.00000000000E+00  0.43495401796E+04  0.43495401796E+04  0.25500000000E-02 0.  1.
          2   -1    0    0  501    0  0.00000000000E+00 -0.00000000000E+00 -0.65675131654E+03  0.65675131655E+03  0.25500000000E-02 0. -1.
    8880023    1    1    2    0    0 -0.14781715678E+04  0.51945982222E+02  0.92589814262E+03  0.18651507032E+04  0.65864270000E+03 0.  0.
    8880022    1    1    2    0    0  0.14781715678E+04 -0.51945982222E+02  0.27668907204E+04  0.31411407929E+04  0.15294330000E+03 0.  0.
<mgrwt>
<rscale>  0 0.15850091E+04</rscale>
<asrwt>0</asrwt>
<pdfrwt beam="1">  1        2 0.10103866E+00 0.16191046E+04</pdfrwt>
<pdfrwt beam="2">  1       -2 0.66916005E+00 0.16191046E+04</pdfrwt>
<totfact> 0.11867678E-02</totfact>
</mgrwt>
</event>
<event>
 4    1  0.2089815E-007  0.8387543E+03  0.7818608E-02  0.9632534E-01
         -2   -1    0    0    0  501 -0.00000000000E+00  0.00000000000E+00  0.13565206467E+04  0.13565206467E+04  0.25500000000E-02 0.  1.
          2   -1    0    0  501    0  0.00000000000E+00 -0.00000000000E+00 -0.46564444098E+03  0.46564444099E+03  0.25500000000E-02 0. -1.
    8880023    1    1    2    0    0  0.63251632457E+02 -0.51545880225E+03  0.73779398154E+02  0.84199296415E+03  0.65864270000E+03 0.  0.
    8880022    1    1    2    0    0 -0.63251632457E+02  0.51545880225E+03  0.81709680754E+03  0.98017212352E+03  0.15294330000E+03 0.  0.
<mgrwt>
<rscale>  0 0.75179810E+03</rscale>
<asrwt>0</asrwt>
<pdfrwt beam="1">  1        2 0.71637606E-01 0.83875429E+03</pdfrwt>
<pdfrwt beam="2">  1       -2 0.20869549E+00 0.83875429E+03</pdfrwt>
<totfact> 0.78933059E+00</totfact>
</mgrwt>
</event>
<event>
 4    1  0.2089815E-007  0.9898671E+03  0.7818608E-02  0.9394936E-01
         -2   -1    0    0    0  501 -0.00000000000E+00  0.00000000000E+00  0.72321843609E+03  0.72321843610E+03  0.25500000000E-02 0.  1.
          2   -1    0    0  501    0  0.00000000000E+00 -0.00000000000E+00 -0.13728209990E+04  0.13728209990E+04  0.25500000000E-02 0. -1.
    8880023    1    1    2    0    0 -0.69313157471E+03  0.25611568857E+03 -0.86149705139E+03  0.13122553111E+04  0.65864270000E+03 0. -1.
    8880022    1    1    2    0    0  0.69313157471E+03 -0.25611568857E+03  0.21189448844E+03  0.78378412400E+03  0.15294330000E+03 0.  0.
<mgrwt>
<rscale>  0 0.92493579E+03</rscale>
<asrwt>0</asrwt>
<pdfrwt beam="1">  1        2 0.21120323E+00 0.98986708E+03</pdfrwt>
<pdfrwt beam="2">  1       -2 0.11126438E+00 0.98986708E+03</pdfrwt>
<totfact> 0.95369943E+00</totfact>
</mgrwt>
</event>
<event>
 4    1  0.2089815E-007  0.8678778E+03  0.7818608E-02  0.9579701E-01
         -2   -1    0    0    0  501 -0.00000000000E+00  0.00000000000E+00  0.65737558619E+03  0.65737558619E+03  0.25500000000E-02 0.  1.
          2   -1    0    0  501    0  0.00000000000E+00 -0.00000000000E+00 -0.11594475903E+04  0.11594475903E+04  0.25500000000E-02 0. -1.
    8880023    1    1    2    0    0 -0.49664923953E+03 -0.26970591604E+03 -0.78167373146E+03  0.11680007607E+04  0.65864270000E+03 0.  0.
    8880022    1    1    2    0    0  0.49664923953E+03  0.26970591604E+03  0.27960172736E+03  0.64882241579E+03  0.15294330000E+03 0.  0.
<mgrwt>
<rscale>  0 0.78654397E+03</rscale>
<asrwt>0</asrwt>
<pdfrwt beam="1">  1        2 0.17837655E+00 0.86787785E+03</pdfrwt>
<pdfrwt beam="2">  1       -2 0.10113471E+00 0.86787785E+03</pdfrwt>
<totfact> 0.16209080E+01</totfact>
</mgrwt>
</event>
<event>
 4    1  0.2089815E-007  0.9621492E+03  0.7818608E-02  0.9432845E-01
         -2   -1    0    0    0  501 -0.00000000000E+00  0.00000000000E+00  0.75283521327E+03  0.75283521327E+03  0.25500000000E-02 0.  1.
          2   -1    0    0  501    0  0.00000000000E+00 -0.00000000000E+00 -0.10449906469E+04  0.10449906470E+04  0.25500000000E-02 0. -1.
    8880023    1    1    2    0    0 -0.39668045995E+03 -0.57841639689E+03 -0.45100388162E+03  0.10626079348E+04  0.65864270000E+03 0.  0.
    8880022    1    1    2    0    0  0.39668045995E+03  0.57841639689E+03  0.15884844794E+03  0.73521792547E+03  0.15294330000E+03 0.  0.
<mgrwt>
<rscale>  0 0.89421235E+03</rscale>
<asrwt>0</asrwt>
<pdfrwt beam="1">  1        2 0.16076779E+00 0.96214922E+03</pdfrwt>
<pdfrwt beam="2">  1       -2 0.11582080E+00 0.96214922E+03</pdfrwt>
<totfact> 0.13610425E+01</totfact>
</mgrwt>
</event>
<event>
 4    1  0.2089815E-007  0.7481200E+03  0.7818608E-02  0.9836896E-01
          2   -1    0    0  501    0  0.00000000000E+00  0.00000000000E+00  0.18926148135E+04  0.18926148135E+04  0.25500000000E-02 0. -1.
         -2   -1    0    0    0  501 -0.00000000000E+00 -0.00000000000E+00 -0.36638543255E+03  0.36638543256E+03  0.25500000000E-02 0.  1.
    8880023    1    1    2    0    0  0.26606378406E+03  0.23469842910E+03  0.16832104649E+04  0.18419774606E+04  0.65864270000E+03 0. -1.
    8880022    1    1    2    0    0 -0.26606378406E+03 -0.23469842910E+03 -0.15698108403E+03  0.41702278543E+03  0.15294330000E+03 0.  0.
<mgrwt>
<rscale>  0 0.63419551E+03</rscale>
<asrwt>0</asrwt>
<pdfrwt beam="1">  1        2 0.29117151E+00 0.74811997E+03</pdfrwt>
<pdfrwt beam="2">  1       -2 0.56366990E-01 0.74811997E+03</pdfrwt>
<totfact> 0.23355426E+01</totfact>
</mgrwt>
</event>
<event>
 4    1  0.2089815E-007  0.1255459E+04  0.7818608E-02  0.9105011E-01
          2   -1    0    0  501    0  0.00000000000E+00  0.00000000000E+00  0.34153996944E+04  0.34153996944E+04  0.25500000000E-02 0. -1.
         -2   -1    0    0    0  501 -0.00000000000E+00 -0.00000000000E+00 -0.94094032817E+03  0.94094032817E+03  0.25500000000E-02 0.  1.
    8880023    1    1    2    0    0  0.95808415266E+03  0.47375199969E+03  0.29275725969E+04  0.31854132726E+04  0.65864270000E+03 0.  0.
    8880022    1    1    2    0    0 -0.95808415266E+03 -0.47375199969E+03 -0.45311323074E+03  0.11709267499E+04  0.15294330000E+03 0.  0.
<mgrwt>
<rscale>  0 0.12090043E+04</rscale>
<asrwt>0</asrwt>
<pdfrwt beam="1">  1        2 0.52544610E+00 0.12554586E+04</pdfrwt>
<pdfrwt beam="2">  1       -2 0.14476005E+00 0.12554586E+04</pdfrwt>
<totfact> 0.30160715E-01</totfact>
</mgrwt>
</event>
<event>
 4    1  0.2089815E-007  0.7942998E+03  0.7818608E-02  0.9723259E-01
          2   -1    0    0  501    0  0.00000000000E+00  0.00000000000E+00  0.15421301384E+04  0.15421301384E+04  0.25500000000E-02 0. -1.
         -2   -1    0    0    0  501 -0.00000000000E+00 -0.00000000000E+00 -0.67765915580E+03  0.67765915581E+03  0.25500000000E-02 0.  1.
    8880023    1    1    2    0    0 -0.44360373536E+03 -0.17823547928E+02  0.13360287708E+04  0.15543117562E+04  0.65864270000E+03 0.  0.
    8880022    1    1    2    0    0  0.44360373536E+03  0.17823547928E+02 -0.47155778822E+03  0.66547753796E+03  0.15294330000E+03 0.  0.
<mgrwt>
<rscale>  0 0.69648671E+03</rscale>
<asrwt>0</asrwt>
<pdfrwt beam="1">  1        2 0.23725079E+00 0.79429979E+03</pdfrwt>
<pdfrwt beam="2">  1       -2 0.10425526E+00 0.79429979E+03</pdfrwt>
<totfact> 0.91613529E+00</totfact>
</mgrwt>
</event>
<event>
 4    1  0.2089815E-007  0.6800270E+03  0.7818608E-02  0.1009308E+00
         -2   -1    0    0    0  501 -0.00000000000E+00  0.00000000000E+00  0.91855493203E+03  0.91855493204E+03  0.25500000000E-02 0.  1.
          2   -1    0    0  501    0  0.00000000000E+00 -0.00000000000E+00 -0.40020753950E+03  0.40020753951E+03  0.25500000000E-02 0. -1.
    8880023    1    1    2    0    0 -0.22673528476E+02 -0.16766767192E+03 -0.73982689998E+02  0.68403960542E+03  0.65864270000E+03 0. -1.
    8880022    1    1    2    0    0  0.22673528476E+02  0.16766767192E+03  0.59233008253E+03  0.63472286613E+03  0.15294330000E+03 0.  0.
<mgrwt>
<rscale>  0 0.51750438E+03</rscale>
<asrwt>0</asrwt>
<pdfrwt beam="1">  1        2 0.61570391E-01 0.68002702E+03</pdfrwt>
<pdfrwt beam="2">  1       -2 0.14131614E+00 0.68002702E+03</pdfrwt>
<totfact> 0.28354994E+01</totfact>
</mgrwt>
</event>
<event>
 4    1  0.2089815E-007  0.1040139E+04  0.7818608E-02  0.9330831E-01
          2   -1    0    0  501    0  0.00000000000E+00  0.00000000000E+00  0.13598516668E+04  0.13598516668E+04  0.25500000000E-02 0. -1.
         -2   -1    0    0    0  501 -0.00000000000E+00 -0.00000000000E+00 -0.88725192971E+03  0.88725192972E+03  0.25500000000E-02 0.  1.
    8880023    1    1    2    0    0  0.36841839419E+03 -0.71578396501E+03  0.85158078351E+03  0.13442763238E+04  0.65864270000E+03 0.  0.
    8880022    1    1    2    0    0 -0.36841839419E+03  0.71578396501E+03 -0.37898104641E+03  0.90282727268E+03  0.15294330000E+03 0.  0.
<mgrwt>
<rscale>  0 0.97993412E+03</rscale>
<asrwt>0</asrwt>
<pdfrwt beam="1">  1        2 0.20920795E+00 0.10401389E+04</pdfrwt>
<pdfrwt beam="2">  1       -2 0.13650030E+00 0.10401389E+04</pdfrwt>
<totfact> 0.57834687E+00</totfact>
</mgrwt>
</event>
<event>
 4    1  0.2089815E-007  0.1618499E+04  0.7818608E-02  0.8830196E-01
         -2   -1    0    0    0  501 -0.00000000000E+00  0.00000000000E+00  0.21975090416E+04  0.21975090416E+04  0.25500000000E-02 0.  1.
          2   -1    0    0  501    0  0.00000000000E+00 -0.00000000000E+00 -0.30780590407E+04  0.30780590407E+04  0.25500000000E-02 0. -1.
    8880023    1    1    2    0    0 -0.11853075571E+04 -0.88361441468E+03 -0.25626064977E+04  0.30309224185E+04  0.65864270000E+03 0.  0.
    8880022    1    1    2    0    0  0.11853075571E+04  0.88361441468E+03  0.16820564986E+04  0.22446456639E+04  0.15294330000E+03 0.  0.
<mgrwt>
<rscale>  0 0.15843886E+04</rscale>
<asrwt>0</asrwt>
<pdfrwt beam="1">  1        2 0.47354754E+00 0.16184989E+04</pdfrwt>
<pdfrwt beam="2">  1       -2 0.33807831E+00 0.16184989E+04</pdfrwt>
<totfact> 0.26616447E-02</totfact>
</mgrwt>
</event>
<event>
 4    1  0.2143901E-007  0.8434799E+03  0.7818608E-02  0.9623653E-01
          2   -1    0    0  501    0  0.00000000000E+00  0.00000000000E+00  0.24126990676E+04  0.24126990676E+04  0.25500000000E-02 0. -1.
         -2   -1    0    0    0  501 -0.00000000000E+00 -0.00000000000E+00 -0.15012343132E+04  0.15012343132E+04  0.25500000000E-02 0.  1.
    8880023    1    1    2    0    0  0.35421041285E+01 -0.52691139484E+03  0.22845481159E+04  0.24352861156E+04  0.65864270000E+03 0. -1.
    8880022    1    1    2    0    0 -0.35421041285E+01  0.52691139484E+03 -0.13730833615E+04  0.14786472653E+04  0.15294330000E+03 0.  0.
<mgrwt>
<rscale>  0 0.75750247E+03</rscale>
<asrwt>0</asrwt>
<pdfrwt beam="1">  1        2 0.37118447E+00 0.84347992E+03</pdfrwt>
<pdfrwt beam="2">  1       -2 0.23095913E+00 0.84347992E+03</pdfrwt>
<totfact> 0.34250062E-01</totfact>
</mgrwt>
</event>
<event>
 4    1  0.2089815E-007  0.1279188E+04  0.7818608E-02  0.9083744E-01
         -2   -1    0    0    0  501 -0.00000000000E+00  0.00000000000E+00  0.21042676857E+04  0.21042676857E+04  0.25500000000E-02 0.  1.
          2   -1    0    0  501    0  0.00000000000E+00 -0.00000000000E+00 -0.26346567452E+04  0.26346567452E+04  0.25500000000E-02 0. -1.
    8880023    1    1    2    0    0 -0.59657017383E+03  0.92011661185E+03 -0.23114277366E+04  0.26417832877E+04  0.65864270000E+03 0. -1.
    8880022    1    1    2    0    0  0.59657017383E+03 -0.92011661185E+03  0.17810386771E+04  0.20971411431E+04  0.15294330000E+03 0.  0.
<mgrwt>
<rscale>  0 0.12338366E+04</rscale>
<asrwt>0</asrwt>
<pdfrwt beam="1">  1        2 0.40533181E+00 0.12791875E+04</pdfrwt>
<pdfrwt beam="2">  1       -2 0.32373349E+00 0.12791875E+04</pdfrwt>
<totfact> 0.64056977E-02</totfact>
</mgrwt>
</event>
<event>
 4    1  0.2089815E-007  0.6685853E+03  0.7818608E-02  0.1016698E+00
         -2   -1    0    0    0  501 -0.00000000000E+00  0.00000000000E+00  0.12585093505E+04  0.12585093505E+04  0.25500000000E-02 0.  1.
          2   -1    0    0  501    0  0.00000000000E+00 -0.00000000000E+00 -0.10497749705E+04  0.10497749705E+04  0.25500000000E-02 0. -1.
    8880023    1    1    2    0    0  0.10876822309E+02  0.11435802566E+03 -0.93456500366E+03  0.11490944329E+04  0.65864270000E+03 0. -1.
    8880022    1    1    2    0    0 -0.10876822309E+02 -0.11435802566E+03  0.11432993836E+04  0.11591898882E+04  0.15294330000E+03 0.  0.
<mgrwt>
<rscale>  0 0.48897259E+03</rscale>
<asrwt>0</asrwt>
<pdfrwt beam="1">  1        2 0.16150384E+00 0.66858527E+03</pdfrwt>
<pdfrwt beam="2">  1       -2 0.19361682E+00 0.66858527E+03</pdfrwt>
<totfact> 0.35599996E+00</totfact>
</mgrwt>
</event>
<event>
 4    1  0.2089815E-007  0.8547263E+03  0.7818608E-02  0.9603014E-01
          2   -1    0    0  501    0  0.00000000000E+00  0.00000000000E+00  0.11836121096E+04  0.11836121096E+04  0.25500000000E-02 0. -1.
         -2   -1    0    0    0  501 -0.00000000000E+00 -0.00000000000E+00 -0.10362279887E+04  0.10362279887E+04  0.25500000000E-02 0.  1.
    8880023    1    1    2    0    0 -0.42305981884E+03 -0.34317231038E+03  0.92417336719E+03  0.12588301966E+04  0.65864270000E+03 0. -1.
    8880022    1    1    2    0    0  0.42305981884E+03  0.34317231038E+03 -0.77678924632E+03  0.96100990169E+03  0.15294330000E+03 0.  0.
<mgrwt>
<rscale>  0 0.77097011E+03</rscale>
<asrwt>0</asrwt>
<pdfrwt beam="1">  1        2 0.18209417E+00 0.85472630E+03</pdfrwt>
<pdfrwt beam="2">  1       -2 0.15941969E+00 0.85472630E+03</pdfrwt>
<totfact> 0.49669295E+00</totfact>
</mgrwt>
</event>
<event>
 4    1  0.2089815E-007  0.6609935E+03  0.7818608E-02  0.1023161E+00
          2   -1    0    0  501    0  0.00000000000E+00  0.00000000000E+00  0.75739543855E+03  0.75739543855E+03  0.25500000000E-02 0. -1.
         -2   -1    0    0    0  501 -0.00000000000E+00 -0.00000000000E+00 -0.18182250495E+04  0.18182250495E+04  0.25500000000E-02 0.  1.
    8880023    1    1    2    0    0  0.10620196361E+01 -0.55687558909E+02  0.60846387950E+03  0.89841011294E+03  0.65864270000E+03 0. -1.
    8880022    1    1    2    0    0 -0.10620196361E+01  0.55687558909E+02 -0.16692934905E+04  0.16772103751E+04  0.15294330000E+03 0.  0.
<mgrwt>
<rscale>  0 0.46563017E+03</rscale>
<asrwt>0</asrwt>
<pdfrwt beam="1">  1        2 0.11652238E+00 0.66099352E+03</pdfrwt>
<pdfrwt beam="2">  1       -2 0.27972693E+00 0.66099352E+03</pdfrwt>
<totfact> 0.16516098E+00</totfact>
</mgrwt>
</event>
<event>
 4    1  0.2089815E-007  0.7612323E+03  0.7818608E-02  0.9801928E-01
          2   -1    0    0  501    0  0.00000000000E+00  0.00000000000E+00  0.12101068280E+04  0.12101068280E+04  0.25500000000E-02 0. -1.
         -2   -1    0    0    0  501 -0.00000000000E+00 -0.00000000000E+00 -0.85952281314E+03  0.85952281315E+03  0.25500000000E-02 0.  1.
    8880023    1    1    2    0    0 -0.23347460264E+03 -0.30191732186E+03  0.10268145396E+04  0.12782107667E+04  0.65864270000E+03 0. -1.
    8880022    1    1    2    0    0  0.23347460264E+03  0.30191732186E+03 -0.67623052467E+03  0.79141887444E+03  0.15294330000E+03 0.  0.
<mgrwt>
<rscale>  0 0.65259205E+03</rscale>
<asrwt>0</asrwt>
<pdfrwt beam="1">  1        2 0.18617028E+00 0.76123233E+03</pdfrwt>
<pdfrwt beam="2">  1       -2 0.13223428E+00 0.76123233E+03</pdfrwt>
<totfact> 0.79159358E+00</totfact>
</mgrwt>
</event>
<event>
 4    1  0.2089815E-007  0.8001256E+03  0.7818608E-02  0.9710524E-01
          2   -1    0    0  501    0  0.00000000000E+00  0.00000000000E+00  0.16872958240E+04  0.16872958240E+04  0.25500000000E-02 0. -1.
         -2   -1    0    0    0  501 -0.00000000000E+00 -0.00000000000E+00 -0.45653954032E+03  0.45653954033E+03  0.25500000000E-02 0.  1.
    8880023    1    1    2    0    0  0.45411778102E+03  0.12956361272E+02 -0.24151730125E+02  0.80049006157E+03  0.65864270000E+03 0.  0.
    8880022    1    1    2    0    0 -0.45411778102E+03 -0.12956361272E+02  0.12549080138E+04  0.13433453027E+04  0.15294330000E+03 0.  0.
<mgrwt>
<rscale>  0 0.70393612E+03</rscale>
<asrwt>0</asrwt>
<pdfrwt beam="1">  1        2 0.25958397E+00 0.80012564E+03</pdfrwt>
<pdfrwt beam="2">  1       -2 0.70236854E-01 0.80012564E+03</pdfrwt>
<totfact> 0.18782659E+01</totfact>
</mgrwt>
</event>
<event>
 4    1  0.2089815E-007  0.7718228E+03  0.7818608E-02  0.9775408E-01
         -2   -1    0    0    0  501 -0.00000000000E+00  0.00000000000E+00  0.18195938239E+04  0.18195938239E+04  0.25500000000E-02 0.  1.
          2   -1    0    0  501    0  0.00000000000E+00 -0.00000000000E+00 -0.14878644290E+04  0.14878644290E+04  0.25500000000E-02 0. -1.
    8880023    1    1    2    0    0  0.62038330028E+02  0.39755697745E+03 -0.13589529410E+04  0.15628383175E+04  0.65864270000E+03 0. -1.
    8880022    1    1    2    0    0 -0.62038330028E+02 -0.39755697745E+03  0.16906823360E+04  0.17446199354E+04  0.15294330000E+03 0.  0.
<mgrwt>
<rscale>  0 0.66699149E+03</rscale>
<asrwt>0</asrwt>
<pdfrwt beam="1">  1        2 0.22890222E+00 0.77182285E+03</pdfrwt>
<pdfrwt beam="2">  1       -2 0.27993751E+00 0.77182285E+03</pdfrwt>
<totfact> 0.56778381E-01</totfact>
</mgrwt>
</event>
<event>
 4    1  0.2089815E-007  0.1016244E+04  0.7818608E-02  0.9360607E-01
         -2   -1    0    0    0  501 -0.00000000000E+00  0.00000000000E+00  0.16376673555E+04  0.16376673555E+04  0.25500000000E-02 0.  1.
          2   -1    0    0  501    0  0.00000000000E+00 -0.00000000000E+00 -0.17343788088E+04  0.17343788088E+04  0.25500000000E-02 0. -1.
    8880023    1    1    2    0    0  0.76145932537E+03 -0.13828115594E+03 -0.14707218400E+04  0.17876730459E+04  0.65864270000E+03 0.  0.
    8880022    1    1    2    0    0 -0.76145932537E+03  0.13828115594E+03  0.13740103867E+04  0.15843731183E+04  0.15294330000E+03 0.  0.
<mgrwt>
<rscale>  0 0.95389694E+03</rscale>
<asrwt>0</asrwt>
<pdfrwt beam="1">  1        2 0.26682751E+00 0.10162442E+04</pdfrwt>
<pdfrwt beam="2">  1       -2 0.25194882E+00 0.10162442E+04</pdfrwt>
<totfact> 0.58538961E-01</totfact>
</mgrwt>
</event>
<event>
 4    1  0.2089815E-007  0.9648104E+03  0.7818608E-02  0.9429118E-01
          2   -1    0    0  501    0  0.00000000000E+00  0.00000000000E+00  0.14294555804E+04  0.14294555804E+04  0.25500000000E-02 0. -1.
         -2   -1    0    0    0  501 -0.00000000000E+00 -0.00000000000E+00 -0.12415311999E+04  0.12415311999E+04  0.25500000000E-02 0.  1.
    8880023    1    1    2    0    0  0.62431776437E+03 -0.32753053357E+03  0.11290762581E+04  0.14851506065E+04  0.65864270000E+03 0.  0.
    8880022    1    1    2    0    0 -0.62431776437E+03  0.32753053357E+03 -0.94115187753E+03  0.11858361737E+04  0.15294330000E+03 0.  0.
<mgrwt>
<rscale>  0 0.89717648E+03</rscale>
<asrwt>0</asrwt>
<pdfrwt beam="1">  1        2 0.21991624E+00 0.96481041E+03</pdfrwt>
<pdfrwt beam="2">  1       -2 0.19100480E+00 0.96481041E+03</pdfrwt>
<totfact> 0.21185296E+00</totfact>
</mgrwt>
</event>
<event>
 4    1  0.2089815E-007  0.1307002E+04  0.7818608E-02  0.9059536E-01
         -2   -1    0    0    0  501 -0.00000000000E+00  0.00000000000E+00  0.43168144514E+03  0.43168144515E+03  0.25500000000E-02 0.  1.
          2   -1    0    0  501    0  0.00000000000E+00 -0.00000000000E+00 -0.43048027922E+04  0.43048027922E+04  0.25500000000E-02 0. -1.
    8880023    1    1    2    0    0  0.69734245564E+03  0.88778272491E+03 -0.99978754181E+03  0.16455485414E+04  0.65864270000E+03 0.  1.
    8880022    1    1    2    0    0 -0.69734245564E+03 -0.88778272491E+03 -0.28733338053E+04  0.30909356960E+04  0.15294330000E+03 0.  0.
<mgrwt>
<rscale>  0 0.12628732E+04</rscale>
<asrwt>0</asrwt>
<pdfrwt beam="1">  1        2 0.66227732E+00 0.13070022E+04</pdfrwt>
<pdfrwt beam="2">  1       -2 0.66412533E-01 0.13070022E+04</pdfrwt>
<totfact> 0.39566587E-01</totfact>
</mgrwt>
</event>
<event>
 4    1  0.2089815E-007  0.6896285E+03  0.7818608E-02  0.1004330E+00
         -2   -1    0    0    0  501 -0.00000000000E+00  0.00000000000E+00  0.10700778050E+04  0.10700778050E+04  0.25500000000E-02 0.  1.
          2   -1    0    0  501    0  0.00000000000E+00 -0.00000000000E+00 -0.56702233939E+03  0.56702233939E+03  0.25500000000E-02 0. -1.
    8880023    1    1    2    0    0 -0.18758509548E+03 -0.81173285849E+02 -0.33092919677E+03  0.76491934864E+03  0.65864270000E+03 0.  0.
    8880022    1    1    2    0    0  0.18758509548E+03  0.81173285849E+02  0.83398466236E+03  0.87218079574E+03  0.15294330000E+03 0.  0.
<mgrwt>
<rscale>  0 0.53791849E+03</rscale>
<asrwt>0</asrwt>
<pdfrwt beam="1">  1        2 0.87234206E-01 0.68962851E+03</pdfrwt>
<pdfrwt beam="2">  1       -2 0.16462735E+00 0.68962851E+03</pdfrwt>
<totfact> 0.12638058E+01</totfact>
</mgrwt>
</event>
<event>
 4    1  0.2089815E-007  0.7415805E+03  0.7818608E-02  0.9855367E-01
         -2   -1    0    0    0  501 -0.00000000000E+00  0.00000000000E+00  0.85456249255E+03  0.85456249255E+03  0.25500000000E-02 0.  1.
          2   -1    0    0  501    0  0.00000000000E+00 -0.00000000000E+00 -0.94402358404E+03  0.94402358404E+03  0.25500000000E-02 0. -1.
    8880023    1    1    2    0    0  0.18183812241E+03  0.28821224712E+03 -0.74050871883E+03  0.10479955969E+04  0.65864270000E+03 0. -1.
    8880022    1    1    2    0    0 -0.18183812241E+03 -0.28821224712E+03  0.65104762735E+03  0.75059047971E+03  0.15294330000E+03 0.  0.
<mgrwt>
<rscale>  0 0.62474022E+03</rscale>
<asrwt>0</asrwt>
<pdfrwt beam="1">  1        2 0.14523440E+00 0.74158048E+03</pdfrwt>
<pdfrwt beam="2">  1       -2 0.13147115E+00 0.74158048E+03</pdfrwt>
<totfact> 0.11768172E+01</totfact>
</mgrwt>
</event>
<event>
 4    1  0.2089815E-007  0.1345143E+04  0.7818608E-02  0.9027524E-01
         -2   -1    0    0    0  501 -0.00000000000E+00  0.00000000000E+00  0.13635342048E+04  0.13635342048E+04  0.25500000000E-02 0.  1.
          2   -1    0    0  501    0  0.00000000000E+00 -0.00000000000E+00 -0.23107576788E+04  0.23107576788E+04  0.25500000000E-02 0. -1.
    8880023    1    1    2    0    0  0.70288291538E+03 -0.93891186154E+03 -0.17775529082E+04  0.22291488115E+04  0.65864270000E+03 0.  0.
    8880022    1    1    2    0    0 -0.70288291538E+03  0.93891186154E+03  0.83032943419E+03  0.14451430721E+04  0.15294330000E+03 0.  0.
<mgrwt>
<rscale>  0 0.13025766E+04</rscale>
<asrwt>0</asrwt>
<pdfrwt beam="1">  1        2 0.35550118E+00 0.13451431E+04</pdfrwt>
<pdfrwt beam="2">  1       -2 0.20977449E+00 0.13451431E+04</pdfrwt>
<totfact> 0.49081108E-01</totfact>
</mgrwt>
</event>
<event>
 4    1  0.2089815E-007  0.1047272E+04  0.7818608E-02  0.9322168E-01
          2   -1    0    0  501    0  0.00000000000E+00  0.00000000000E+00  0.96355009548E+03  0.96355009548E+03  0.25500000000E-02 0. -1.
         -2   -1    0    0    0  501 -0.00000000000E+00 -0.00000000000E+00 -0.24827379931E+04  0.24827379931E+04  0.25500000000E-02 0.  1.
    8880023    1    1    2    0    0  0.70599976368E+03  0.40562729497E+03  0.57460402565E+03  0.11945497735E+04  0.65864270000E+03 0.  0.
    8880022    1    1    2    0    0 -0.70599976368E+03 -0.40562729497E+03 -0.20937919232E+04  0.22517383151E+04  0.15294330000E+03 0.  0.
<mgrwt>
<rscale>  0 0.98767438E+03</rscale>
<asrwt>0</asrwt>
<pdfrwt beam="1">  1        2 0.14823848E+00 0.10472723E+04</pdfrwt>
<pdfrwt beam="2">  1       -2 0.38195969E+00 0.10472723E+04</pdfrwt>
<totfact> 0.26063010E-01</totfact>
</mgrwt>
</event>
<event>
 4    1  0.2089815E-007  0.8323003E+03  0.7818608E-02  0.9644873E-01
          2   -1    0    0  501    0  0.00000000000E+00  0.00000000000E+00  0.52943285744E+03  0.52943285745E+03  0.25500000000E-02 0. -1.
         -2   -1    0    0    0  501 -0.00000000000E+00 -0.00000000000E+00 -0.13388562549E+04  0.13388562549E+04  0.25500000000E-02 0.  1.
    8880023    1    1    2    0    0 -0.34292197900E+03 -0.37592299825E+03  0.75913372187E+02  0.83575512600E+03  0.65864270000E+03 0. -1.
    8880022    1    1    2    0    0  0.34292197900E+03  0.37592299825E+03 -0.88533676967E+03  0.10325339864E+04  0.15294330000E+03 0.  0.
<mgrwt>
<rscale>  0 0.74396055E+03</rscale>
<asrwt>0</asrwt>
<pdfrwt beam="1">  1        2 0.81451209E-01 0.83230030E+03</pdfrwt>
<pdfrwt beam="2">  1       -2 0.20597788E+00 0.83230030E+03</pdfrwt>
<totfact> 0.70807949E+00</totfact>
</mgrwt>
</event>
<event>
 4    1  0.2089815E-007  0.7427990E+03  0.7818608E-02  0.9851868E-01
         -2   -1    0    0    0  501 -0.00000000000E+00  0.00000000000E+00  0.44412646152E+03  0.44412646153E+03  0.25500000000E-02 0.  1.
          2   -1    0    0  501    0  0.00000000000E+00 -0.00000000000E+00 -0.11403814999E+04  0.11403814999E+04  0.25500000000E-02 0. -1.
    8880023    1    1    2    0    0  0.77247780192E+02 -0.33462345562E+03 -0.89190033002E+03  0.11607051656E+04  0.65864270000E+03 0. -1.
    8880022    1    1    2    0    0 -0.77247780192E+02  0.33462345562E+03  0.19564529162E+03  0.42380279582E+03  0.15294330000E+03 0.  0.
<mgrwt>
<rscale>  0 0.62651781E+03</rscale>
<asrwt>0</asrwt>
<pdfrwt beam="1">  1        2 0.17544331E+00 0.74279895E+03</pdfrwt>
<pdfrwt beam="2">  1       -2 0.68327149E-01 0.74279895E+03</pdfrwt>
<totfact> 0.41055130E+01</totfact>
</mgrwt>
</event>
<event>
 4    1  0.2089815E-007  0.1273753E+04  0.7818608E-02  0.9088563E-01
          2   -1    0    0  501    0  0.00000000000E+00  0.00000000000E+00  0.17518390117E+04  0.17518390117E+04  0.25500000000E-02 0. -1.
         -2   -1    0    0    0  501 -0.00000000000E+00 -0.00000000000E+00 -0.14024904722E+04  0.14024904722E+04  0.25500000000E-02 0.  1.
    8880023    1    1    2    0    0 -0.10312094672E+04 -0.35389888127E+03  0.12100489587E+04  0.17568910245E+04  0.65864270000E+03 0.  0.
    8880022    1    1    2    0    0  0.10312094672E+04  0.35389888127E+03 -0.86070041910E+03  0.13974384594E+04  0.15294330000E+03 0.  0.
<mgrwt>
<rscale>  0 0.12281549E+04</rscale>
<asrwt>0</asrwt>
<pdfrwt beam="1">  1        2 0.26951369E+00 0.12737533E+04</pdfrwt>
<pdfrwt beam="2">  1       -2 0.21576776E+00 0.12737533E+04</pdfrwt>
<totfact> 0.92836291E-01</totfact>
</mgrwt>
</event>
<event>
 4    1  0.2089815E-007  0.1285707E+04  0.7818608E-02  0.9078002E-01
          2   -1    0    0  501    0  0.00000000000E+00  0.00000000000E+00  0.35584440847E+04  0.35584440847E+04  0.25500000000E-02 0. -1.
         -2   -1    0    0    0  501 -0.00000000000E+00 -0.00000000000E+00 -0.78899030152E+03  0.78899030152E+03  0.25500000000E-02 0.  1.
    8880023    1    1    2    0    0  0.10740540269E+04  0.25620380970E+03  0.29501622016E+04  0.32181515916E+04  0.65864270000E+03 0. -1.
    8880022    1    1    2    0    0 -0.10740540269E+04 -0.25620380970E+03 -0.18070841839E+03  0.11292827946E+04  0.15294330000E+03 0.  0.
<mgrwt>
<rscale>  0 0.12406492E+04</rscale>
<asrwt>0</asrwt>
<pdfrwt beam="1">  1        2 0.54745293E+00 0.12857071E+04</pdfrwt>
<pdfrwt beam="2">  1       -2 0.12138313E+00 0.12857071E+04</pdfrwt>
<totfact> 0.37625525E-01</totfact>
</mgrwt>
</event>
<event>
 4    1  0.2089815E-007  0.7445992E+03  0.7818608E-02  0.9846747E-01
          2   -1    0    0  501    0  0.00000000000E+00  0.00000000000E+00  0.13298308647E+04  0.13298308647E+04  0.25500000000E-02 0. -1.
         -2   -1    0    0    0  501 -0.00000000000E+00 -0.00000000000E+00 -0.28928697262E+03  0.28928697263E+03  0.25500000000E-02 0.  1.
    8880023    1    1    2    0    0 -0.19115820462E+03  0.28995924637E+03  0.98625295488E+03  0.12357681502E+04  0.65864270000E+03 0. -1.
    8880022    1    1    2    0    0  0.19115820462E+03 -0.28995924637E+03  0.54290937184E+02  0.38334968713E+03  0.15294330000E+03 0.  0.
<mgrwt>
<rscale>  0 0.62913062E+03</rscale>
<asrwt>0</asrwt>
<pdfrwt beam="1">  1        2 0.20458936E+00 0.74459924E+03</pdfrwt>
<pdfrwt beam="2">  1       -2 0.44505689E-01 0.74459924E+03</pdfrwt>
<totfact> 0.77427561E+01</totfact>
</mgrwt>
</event>
<event>
 4    1  0.2089815E-007  0.1703047E+04  0.7818608E-02  0.8778152E-01
         -2   -1    0    0    0  501 -0.00000000000E+00  0.00000000000E+00  0.19410279041E+04  0.19410279041E+04  0.25500000000E-02 0.  1.
          2   -1    0    0  501    0  0.00000000000E+00 -0.00000000000E+00 -0.35815773516E+04  0.35815773516E+04  0.25500000000E-02 0. -1.
    8880023    1    1    2    0    0  0.30580444358E+03 -0.15404679177E+04  0.13287389972E+04  0.21600729831E+04  0.65864270000E+03 0.  0.
    8880022    1    1    2    0    0 -0.30580444358E+03  0.15404679177E+04 -0.29692884448E+04  0.33625322726E+04  0.15294330000E+03 0.  0.
<mgrwt>
<rscale>  0 0.16708741E+04</rscale>
<asrwt>0</asrwt>
<pdfrwt beam="1">  1        2 0.55101190E+00 0.17030467E+04</pdfrwt>
<pdfrwt beam="2">  1       -2 0.29861968E+00 0.17030467E+04</pdfrwt>
<totfact> 0.21205401E-02</totfact>
</mgrwt>
</event>
<event>
 4    1  0.2089815E-007  0.1885143E+04  0.7818608E-02  0.8676845E-01
         -2   -1    0    0    0  501 -0.00000000000E+00  0.00000000000E+00  0.21336393656E+04  0.21336393656E+04  0.25500000000E-02 0.  1.
          2   -1    0    0  501    0  0.00000000000E+00 -0.00000000000E+00 -0.16945697073E+04  0.16945697073E+04  0.25500000000E-02 0. -1.
    8880023    1    1    2    0    0 -0.12112473120E+04  0.12856257582E+04  0.74879097227E+03  0.20284111436E+04  0.65864270000E+03 0.  0.
    8880022    1    1    2    0    0  0.12112473120E+04 -0.12856257582E+04 -0.30972131398E+03  0.17997979293E+04  0.15294330000E+03 0.  0.
<mgrwt>
<rscale>  0 0.18564456E+04</rscale>
<asrwt>0</asrwt>
<pdfrwt beam="1">  1        2 0.26070303E+00 0.18851429E+04</pdfrwt>
<pdfrwt beam="2">  1       -2 0.32825221E+00 0.18851429E+04</pdfrwt>
<totfact> 0.18981857E-01</totfact>
</mgrwt>
</event>
<event>
 4    1  0.2089815E-007  0.8710646E+03  0.7818608E-02  0.9574177E-01
          2   -1    0    0  501    0  0.00000000000E+00  0.00000000000E+00  0.24474203857E+04  0.24474203857E+04  0.25500000000E-02 0. -1.
         -2   -1    0    0    0  501 -0.00000000000E+00 -0.00000000000E+00 -0.97201302339E+03  0.97201302340E+03  0.25500000000E-02 0.  1.
    8880023    1    1    2    0    0 -0.46250320163E+02  0.56815859052E+03  0.22689862772E+04  0.24304428009E+04  0.65864270000E+03 0.  0.
    8880022    1    1    2    0    0  0.46250320163E+02 -0.56815859052E+03 -0.79357891484E+03  0.98899060824E+03  0.15294330000E+03 0.  0.
<mgrwt>
<rscale>  0 0.79029164E+03</rscale>
<asrwt>0</asrwt>
<pdfrwt beam="1">  1        2 0.37652621E+00 0.87106457E+03</pdfrwt>
<pdfrwt beam="2">  1       -2 0.14954047E+00 0.87106457E+03</pdfrwt>
<totfact> 0.11575813E+00</totfact>
</mgrwt>
</event>
<event>
 4    1  0.2089815E-007  0.1003677E+04  0.7818608E-02  0.9376762E-01
         -2   -1    0    0    0  501 -0.00000000000E+00  0.00000000000E+00  0.60617745768E+03  0.60617745768E+03  0.25500000000E-02 0.  1.
          2   -1    0    0  501    0  0.00000000000E+00 -0.00000000000E+00 -0.15477778941E+04  0.15477778941E+04  0.25500000000E-02 0. -1.
    8880023    1    1    2    0    0  0.48242354649E+03 -0.58380283442E+03 -0.94900277660E+03  0.13812945754E+04  0.65864270000E+03 0. -1.
    8880022    1    1    2    0    0 -0.48242354649E+03  0.58380283442E+03  0.74023402243E+01  0.77266077637E+03  0.15294330000E+03 0.  0.
<mgrwt>
<rscale>  0 0.94012989E+03</rscale>
<asrwt>0</asrwt>
<pdfrwt beam="1">  1        2 0.23811967E+00 0.10036775E+04</pdfrwt>
<pdfrwt beam="2">  1       -2 0.93258071E-01 0.10036775E+04</pdfrwt>
<totfact> 0.11563530E+01</totfact>
</mgrwt>
</event>
<event>
 4    1  0.2089815E-007  0.8532764E+03  0.7818608E-02  0.9605637E-01
         -2   -1    0    0    0  501 -0.00000000000E+00  0.00000000000E+00  0.41369272741E+03  0.41369272741E+03  0.25500000000E-02 0.  1.
          2   -1    0    0  501    0  0.00000000000E+00 -0.00000000000E+00 -0.23796079194E+04  0.23796079194E+04  0.25500000000E-02 0. -1.
    8880023    1    1    2    0    0 -0.16813982630E+03  0.51575129920E+03 -0.20527549450E+04  0.22230347443E+04  0.65864270000E+03 0. -1.
    8880022    1    1    2    0    0  0.16813982630E+03 -0.51575129920E+03  0.86839753053E+02  0.57026590249E+03  0.15294330000E+03 0.  0.
<mgrwt>
<rscale>  0 0.76924196E+03</rscale>
<asrwt>0</asrwt>
<pdfrwt beam="1">  1        2 0.36609352E+00 0.85327640E+03</pdfrwt>
<pdfrwt beam="2">  1       -2 0.63645036E-01 0.85327640E+03</pdfrwt>
<totfact> 0.95978665E+00</totfact>
</mgrwt>
</event>
<event>
 4    1  0.2089815E-007  0.9091490E+03  0.7818608E-02  0.9511501E-01
          2   -1    0    0  501    0  0.00000000000E+00  0.00000000000E+00  0.18506536504E+04  0.18506536504E+04  0.25500000000E-02 0. -1.
         -2   -1    0    0    0  501 -0.00000000000E+00 -0.00000000000E+00 -0.77855742150E+03  0.77855742150E+03  0.25500000000E-02 0.  1.
    8880023    1    1    2    0    0  0.62500676193E+03  0.45915786569E+02  0.15700594230E+04  0.18142873284E+04  0.65864270000E+03 0.  0.
    8880022    1    1    2    0    0 -0.62500676193E+03 -0.45915786569E+02 -0.49796319415E+03  0.81492374347E+03  0.15294330000E+03 0.  0.
<mgrwt>
<rscale>  0 0.83441167E+03</rscale>
<asrwt>0</asrwt>
<pdfrwt beam="1">  1        2 0.28471595E+00 0.90914901E+03</pdfrwt>
<pdfrwt beam="2">  1       -2 0.11977807E+00 0.90914901E+03</pdfrwt>
<totfact> 0.43523363E+00</totfact>
</mgrwt>
</event>
<event>
 4    1  0.2089815E-007  0.9466122E+03  0.7818608E-02  0.9455005E-01
         -2   -1    0    0    0  501 -0.00000000000E+00  0.00000000000E+00  0.70799596264E+03  0.70799596264E+03  0.25500000000E-02 0.  1.
          2   -1    0    0  501    0  0.00000000000E+00 -0.00000000000E+00 -0.13253275842E+04  0.13253275842E+04  0.25500000000E-02 0. -1.
    8880023    1    1    2    0    0  0.80169313395E+02  0.67515727837E+03 -0.87622171778E+03  0.12898989008E+04  0.65864270000E+03 0. -1.
    8880022    1    1    2    0    0 -0.80169313395E+02 -0.67515727837E+03  0.25889009624E+03  0.74342464601E+03  0.15294330000E+03 0.  0.
<mgrwt>
<rscale>  0 0.87683966E+03</rscale>
<asrwt>0</asrwt>
<pdfrwt beam="1">  1        2 0.20389655E+00 0.94661221E+03</pdfrwt>
<pdfrwt beam="2">  1       -2 0.10892246E+00 0.94661221E+03</pdfrwt>
<totfact> 0.10742182E+01</totfact>
</mgrwt>
</event>
<event>
 4    1  0.2089815E-007  0.8224489E+03  0.7818608E-02  0.9664207E-01
          2   -1    0    0  501    0  0.00000000000E+00  0.00000000000E+00  0.23446071825E+04  0.23446071825E+04  0.25500000000E-02 0. -1.
         -2   -1    0    0    0  501 -0.00000000000E+00 -0.00000000000E+00 -0.42221892539E+03  0.42221892540E+03  0.25500000000E-02 0.  1.
    8880023    1    1    2    0    0 -0.13629391517E+03  0.47332442760E+03  0.20724531676E+04  0.22296825745E+04  0.65864270000E+03 0. -1.
    8880022    1    1    2    0    0  0.13629391517E+03 -0.47332442760E+03 -0.15006491047E+03  0.53714353337E+03  0.15294330000E+03 0.  0.
<mgrwt>
<rscale>  0 0.73188470E+03</rscale>
<asrwt>0</asrwt>
<pdfrwt beam="1">  1        2 0.36070879E+00 0.82244894E+03</pdfrwt>
<pdfrwt beam="2">  1       -2 0.64956759E-01 0.82244894E+03</pdfrwt>
<totfact> 0.96546340E+00</totfact>
</mgrwt>
</event>
<event>
 4    1  0.2089815E-007  0.1026208E+04  0.7818608E-02  0.9348045E-01
          2   -1    0    0  501    0  0.00000000000E+00  0.00000000000E+00  0.26699196454E+04  0.26699196454E+04  0.25500000000E-02 0. -1.
         -2   -1    0    0    0  501 -0.00000000000E+00 -0.00000000000E+00 -0.46960819889E+03  0.46960819889E+03  0.25500000000E-02 0.  1.
    8880023    1    1    2    0    0 -0.53201073672E+03 -0.57987693629E+03  0.28781525616E+03  0.10658051009E+04  0.65864270000E+03 0.  0.
    8880022    1    1    2    0    0  0.53201073672E+03  0.57987693629E+03  0.19124961903E+04  0.20737227434E+04  0.15294330000E+03 0.  0.
<mgrwt>
<rscale>  0 0.96477550E+03</rscale>
<asrwt>0</asrwt>
<pdfrwt beam="1">  1        2 0.41075687E+00 0.10262080E+04</pdfrwt>
<pdfrwt beam="2">  1       -2 0.72247415E-01 0.10262080E+04</pdfrwt>
<totfact> 0.48509396E+00</totfact>
</mgrwt>
</event>
<event>
 4    1  0.2089815E-007  0.7047526E+03  0.7818608E-02  0.9978029E-01
          2   -1    0    0  501    0  0.00000000000E+00  0.00000000000E+00  0.28651922377E+04  0.28651922377E+04  0.25500000000E-02 0. -1.
         -2   -1    0    0    0  501 -0.00000000000E+00 -0.00000000000E+00 -0.23633265407E+03  0.23633265409E+03  0.25500000000E-02 0.  1.
    8880023    1    1    2    0    0 -0.32446711743E+02  0.24862257566E+03  0.27073067688E+04  0.27975321483E+04  0.65864270000E+03 0. -1.
    8880022    1    1    2    0    0  0.32446711743E+02 -0.24862257566E+03 -0.78447185141E+02  0.30399274350E+03  0.15294330000E+03 0.  0.
<mgrwt>
<rscale>  0 0.56624214E+03</rscale>
<asrwt>0</asrwt>
<pdfrwt beam="1">  1        2 0.44079879E+00 0.70475257E+03</pdfrwt>
<pdfrwt beam="2">  1       -2 0.36358871E-01 0.70475257E+03</pdfrwt>
<totfact> 0.16001357E+01</totfact>
</mgrwt>
</event>
<event>
 4    1  0.2089815E-007  0.7522297E+03  0.7818608E-02  0.9825656E-01
          2   -1    0    0  501    0  0.00000000000E+00  0.00000000000E+00  0.88341454513E+03  0.88341454514E+03  0.25500000000E-02 0. -1.
         -2   -1    0    0    0  501 -0.00000000000E+00 -0.00000000000E+00 -0.52499173554E+03  0.52499173555E+03  0.25500000000E-02 0.  1.
    8880023    1    1    2    0    0 -0.34409217654E+03 -0.11679016507E+03  0.58568200500E+03  0.95334830249E+03  0.65864270000E+03 0. -1.
    8880022    1    1    2    0    0  0.34409217654E+03  0.11679016507E+03 -0.22725919541E+03  0.45505797820E+03  0.15294330000E+03 0.  0.
<mgrwt>
<rscale>  0 0.64003701E+03</rscale>
<asrwt>0</asrwt>
<pdfrwt beam="1">  1        2 0.13590993E+00 0.75222974E+03</pdfrwt>
<pdfrwt beam="2">  1       -2 0.80767961E-01 0.75222974E+03</pdfrwt>
<totfact> 0.41299390E+01</totfact>
</mgrwt>
</event>
<event>
 4    1  0.2089815E-007  0.7443839E+03  0.7818608E-02  0.9847356E-01
          2   -1    0    0  501    0  0.00000000000E+00  0.00000000000E+00  0.62833867007E+03  0.62833867008E+03  0.25500000000E-02 0. -1.
         -2   -1    0    0    0  501 -0.00000000000E+00 -0.00000000000E+00 -0.12533240788E+04  0.12533240788E+04  0.25500000000E-02 0.  1.
    8880023    1    1    2    0    0  0.50366431422E+02  0.34316241014E+03  0.35955361263E+03  0.82667177511E+03  0.65864270000E+03 0. -1.
    8880022    1    1    2    0    0 -0.50366431422E+02 -0.34316241014E+03 -0.98453902131E+03  0.10549909737E+04  0.15294330000E+03 0.  0.
<mgrwt>
<rscale>  0 0.62881896E+03</rscale>
<asrwt>0</asrwt>
<pdfrwt beam="1">  1        2 0.96667488E-01 0.74438392E+03</pdfrwt>
<pdfrwt beam="2">  1       -2 0.19281909E+00 0.74438392E+03</pdfrwt>
<totfact> 0.70963620E+00</totfact>
</mgrwt>
</event>
<event>
 4    1  0.2089815E-007  0.9296141E+03  0.7818608E-02  0.9480072E-01
          2   -1    0    0  501    0  0.00000000000E+00  0.00000000000E+00  0.11336216709E+04  0.11336216709E+04  0.25500000000E-02 0. -1.
         -2   -1    0    0    0  501 -0.00000000000E+00 -0.00000000000E+00 -0.90220690585E+03  0.90220690585E+03  0.25500000000E-02 0.  1.
    8880023    1    1    2    0    0  0.51866674103E+03  0.40169264607E+03  0.74292753490E+03  0.11900099573E+04  0.65864270000E+03 0.  0.
    8880022    1    1    2    0    0 -0.51866674103E+03 -0.40169264607E+03 -0.51151276988E+03  0.84581861940E+03  0.15294330000E+03 0.  0.
<mgrwt>
<rscale>  0 0.85769082E+03</rscale>
<asrwt>0</asrwt>
<pdfrwt beam="1">  1        2 0.17440333E+00 0.92961410E+03</pdfrwt>
<pdfrwt beam="2">  1       -2 0.13880106E+00 0.92961410E+03</pdfrwt>
<totfact> 0.76192870E+00</totfact>
</mgrwt>
</event>
<event>
 4    1  0.2089815E-007  0.7495919E+03  0.7818608E-02  0.9832839E-01
          2   -1    0    0  501    0  0.00000000000E+00  0.00000000000E+00  0.19381679719E+04  0.19381679719E+04  0.25500000000E-02 0. -1.
         -2   -1    0    0    0  501 -0.00000000000E+00 -0.00000000000E+00 -0.13341493438E+04  0.13341493438E+04  0.25500000000E-02 0.  1.
    8880023    1    1    2    0    0  0.25840994581E+03 -0.24759270216E+03  0.18345094327E+04  0.19817449158E+04  0.65864270000E+03 0. -1.
    8880022    1    1    2    0    0 -0.25840994581E+03  0.24759270216E+03 -0.12304908046E+04  0.12905723999E+04  0.15294330000E+03 0.  0.
<mgrwt>
<rscale>  0 0.63629619E+03</rscale>
<asrwt>0</asrwt>
<pdfrwt beam="1">  1        2 0.29817969E+00 0.74959192E+03</pdfrwt>
<pdfrwt beam="2">  1       -2 0.20525375E+00 0.74959192E+03</pdfrwt>
<totfact> 0.92711894E-01</totfact>
</mgrwt>
</event>
<event>
 4    1  0.2089815E-007  0.1231330E+04  0.7818608E-02  0.9127253E-01
          2   -1    0    0  501    0  0.00000000000E+00  0.00000000000E+00  0.23366644716E+04  0.23366644716E+04  0.25500000000E-02 0. -1.
         -2   -1    0    0    0  501 -0.00000000000E+00 -0.00000000000E+00 -0.82058017614E+03  0.82058017615E+03  0.25500000000E-02 0.  1.
    8880023    1    1    2    0    0  0.85127255247E+03 -0.59807830595E+03  0.16904252158E+04  0.20913417308E+04  0.65864270000E+03 0.  0.
    8880022    1    1    2    0    0 -0.85127255247E+03  0.59807830595E+03 -0.17434092040E+03  0.10659029169E+04  0.15294330000E+03 0.  0.
<mgrwt>
<rscale>  0 0.11836903E+04</rscale>
<asrwt>0</asrwt>
<pdfrwt beam="1">  1        2 0.35948685E+00 0.12313297E+04</pdfrwt>
<pdfrwt beam="2">  1       -2 0.12624310E+00 0.12313297E+04</pdfrwt>
<totfact> 0.19698276E+00</totfact>
</mgrwt>
</event>
<event>
 4    1  0.2089815E-007  0.1643408E+04  0.7818608E-02  0.8814492E-01
         -2   -1    0    0    0  501 -0.00000000000E+00  0.00000000000E+00  0.12190120053E+04  0.12190120053E+04  0.25500000000E-02 0.  1.
          2   -1    0    0  501    0  0.00000000000E+00 -0.00000000000E+00 -0.33434680780E+04  0.33434680780E+04  0.25500000000E-02 0. -1.
    8880023    1    1    2    0    0  0.13649802612E+04 -0.63546031799E+03 -0.25105503497E+04  0.30006089705E+04  0.65864270000E+03 0.  0.
    8880022    1    1    2    0    0 -0.13649802612E+04  0.63546031799E+03  0.38609427706E+03  0.15618711128E+04  0.15294330000E+03 0.  1.
<mgrwt>
<rscale>  0 0.16098944E+04</rscale>
<asrwt>0</asrwt>
<pdfrwt beam="1">  1        2 0.51437970E+00 0.16434084E+04</pdfrwt>
<pdfrwt beam="2">  1       -2 0.18754031E+00 0.16434084E+04</pdfrwt>
<totfact> 0.15602250E-01</totfact>
</mgrwt>
</event>
<event>
 4    1  0.2089815E-007  0.1131609E+04  0.7818608E-02  0.9226653E-01
         -2   -1    0    0    0  501 -0.00000000000E+00  0.00000000000E+00  0.13444696247E+04  0.13444696247E+04  0.25500000000E-02 0.  1.
          2   -1    0    0  501    0  0.00000000000E+00 -0.00000000000E+00 -0.13312480446E+04  0.13312480446E+04  0.25500000000E-02 0. -1.
    8880023    1    1    2    0    0 -0.54159303506E+03 -0.74391247436E+03 -0.84176957674E+03  0.14103598873E+04  0.65864270000E+03 0.  0.
    8880022    1    1    2    0    0  0.54159303506E+03  0.74391247436E+03  0.85499115679E+03  0.12653577820E+04  0.15294330000E+03 0.  0.
<mgrwt>
<rscale>  0 0.10782506E+04</rscale>
<asrwt>0</asrwt>
<pdfrwt beam="1">  1        2 0.20480739E+00 0.11316090E+04</pdfrwt>
<pdfrwt beam="2">  1       -2 0.20684148E+00 0.11316090E+04</pdfrwt>
<totfact> 0.18601931E+00</totfact>
</mgrwt>
</event>
<event>
 4    1  0.2089815E-007  0.1105233E+04  0.7818608E-02  0.9255252E-01
         -2   -1    0    0    0  501 -0.00000000000E+00  0.00000000000E+00  0.53977791497E+03  0.53977791497E+03  0.25500000000E-02 0.  1.
          2   -1    0    0  501    0  0.00000000000E+00 -0.00000000000E+00 -0.25764283675E+04  0.25764283675E+04  0.25500000000E-02 0. -1.
    8880023    1    1    2    0    0  0.35828532834E+03  0.81201052481E+03 -0.19099946334E+04  0.22067213632E+04  0.65864270000E+03 0.  0.
    8880022    1    1    2    0    0 -0.35828532834E+03 -0.81201052481E+03 -0.12665581916E+03  0.90948491931E+03  0.15294330000E+03 0.  0.
<mgrwt>
<rscale>  0 0.10500889E+04</rscale>
<asrwt>0</asrwt>
<pdfrwt beam="1">  1        2 0.39637359E+00 0.11052329E+04</pdfrwt>
<pdfrwt beam="2">  1       -2 0.83042757E-01 0.11052329E+04</pdfrwt>
<totfact> 0.39826872E+00</totfact>
</mgrwt>
</event>
<event>
 4    1  0.2089815E-007  0.1161035E+04  0.7818608E-02  0.9195962E-01
          2   -1    0    0  501    0  0.00000000000E+00  0.00000000000E+00  0.11639117578E+04  0.11639117579E+04  0.25500000000E-02 0. -1.
         -2   -1    0    0    0  501 -0.00000000000E+00 -0.00000000000E+00 -0.15069335135E+04  0.15069335135E+04  0.25500000000E-02 0.  1.
    8880023    1    1    2    0    0  0.46172735941E+03  0.83725766345E+03  0.61060282022E+03  0.13118073638E+04  0.65864270000E+03 0.  0.
    8880022    1    1    2    0    0 -0.46172735941E+03 -0.83725766345E+03 -0.95362457586E+03  0.13590379075E+04  0.15294330000E+03 0.  0.
<mgrwt>
<rscale>  0 0.11095205E+04</rscale>
<asrwt>0</asrwt>
<pdfrwt beam="1">  1        2 0.17906335E+00 0.11610352E+04</pdfrwt>
<pdfrwt beam="2">  1       -2 0.23183593E+00 0.11610352E+04</pdfrwt>
<totfact> 0.16183158E+00</totfact>
</mgrwt>
</event>
<event>
 4    1  0.2089815E-007  0.8737865E+03  0.7818608E-02  0.9569495E-01
          2   -1    0    0  501    0  0.00000000000E+00  0.00000000000E+00  0.10226479349E+04  0.10226479349E+04  0.25500000000E-02 0. -1.
         -2   -1    0    0    0  501 -0.00000000000E+00 -0.00000000000E+00 -0.13646366138E+04  0.13646366138E+04  0.25500000000E-02 0.  1.
    8880023    1    1    2    0    0  0.54801411041E+03  0.17138615108E+03  0.74513859044E+03  0.11483616169E+04  0.65864270000E+03 0. -1.
    8880022    1    1    2    0    0 -0.54801411041E+03 -0.17138615108E+03 -0.10871272693E+04  0.12389229317E+04  0.15294330000E+03 0.  0.
<mgrwt>
<rscale>  0 0.79348516E+03</rscale>
<asrwt>0</asrwt>
<pdfrwt beam="1">  1        2 0.15733045E+00 0.87378652E+03</pdfrwt>
<pdfrwt beam="2">  1       -2 0.20994410E+00 0.87378652E+03</pdfrwt>
<totfact> 0.28148495E+00</totfact>
</mgrwt>
</event>
<event>
 4    1  0.2089815E-007  0.9231842E+03  0.7818608E-02  0.9489794E-01
          2   -1    0    0  501    0  0.00000000000E+00  0.00000000000E+00  0.12037016942E+04  0.12037016942E+04  0.25500000000E-02 0. -1.
         -2   -1    0    0    0  501 -0.00000000000E+00 -0.00000000000E+00 -0.72768119636E+03  0.72768119637E+03  0.25500000000E-02 0.  1.
    8880023    1    1    2    0    0 -0.51012140028E+03 -0.39778766859E+03  0.77229837976E+03  0.12036253013E+04  0.65864270000E+03 0.  0.
    8880022    1    1    2    0    0  0.51012140028E+03  0.39778766859E+03 -0.29627788197E+03  0.72775758922E+03  0.15294330000E+03 0.  0.
<mgrwt>
<rscale>  0 0.85040479E+03</rscale>
<asrwt>0</asrwt>
<pdfrwt beam="1">  1        2 0.18518487E+00 0.92318421E+03</pdfrwt>
<pdfrwt beam="2">  1       -2 0.11195095E+00 0.92318421E+03</pdfrwt>
<totfact> 0.11869857E+01</totfact>
</mgrwt>
</event>
<event>
 4    1  0.2089815E-007  0.1062218E+04  0.7818608E-02  0.9304336E-01
         -2   -1    0    0    0  501 -0.00000000000E+00  0.00000000000E+00  0.98504887632E+03  0.98504887632E+03  0.25500000000E-02 0.  1.
          2   -1    0    0  501    0  0.00000000000E+00 -0.00000000000E+00 -0.21694836105E+04  0.21694836105E+04  0.25500000000E-02 0. -1.
    8880023    1    1    2    0    0  0.77902808857E+03  0.29599334498E+03 -0.18118318994E+04  0.21002480475E+04  0.65864270000E+03 0. -1.
    8880022    1    1    2    0    0 -0.77902808857E+03 -0.29599334498E+03  0.62739716522E+03  0.10542844393E+04  0.15294330000E+03 0.  0.
<mgrwt>
<rscale>  0 0.10038466E+04</rscale>
<asrwt>0</asrwt>
<pdfrwt beam="1">  1        2 0.33376671E+00 0.10622180E+04</pdfrwt>
<pdfrwt beam="2">  1       -2 0.15154598E+00 0.10622180E+04</pdfrwt>
<totfact> 0.15528515E+00</totfact>
</mgrwt>
</event>
<event>
 4    1  0.2089815E-007  0.8298786E+03  0.7818608E-02  0.9649569E-01
         -2   -1    0    0    0  501 -0.00000000000E+00  0.00000000000E+00  0.65907614085E+03  0.65907614086E+03  0.25500000000E-02 0.  1.
          2   -1    0    0  501    0  0.00000000000E+00 -0.00000000000E+00 -0.15516314031E+04  0.15516314031E+04  0.25500000000E-02 0. -1.
    8880023    1    1    2    0    0  0.44026040576E+02 -0.50294127849E+03 -0.13012735997E+04  0.15433766259E+04  0.65864270000E+03 0.  0.
    8880022    1    1    2    0    0 -0.44026040576E+02  0.50294127849E+03  0.40871833742E+03  0.66733091808E+03  0.15294330000E+03 0.  0.
<mgrwt>
<rscale>  0 0.74100499E+03</rscale>
<asrwt>0</asrwt>
<pdfrwt beam="1">  1        2 0.23871252E+00 0.82987856E+03</pdfrwt>
<pdfrwt beam="2">  1       -2 0.10139633E+00 0.82987856E+03</pdfrwt>
<totfact> 0.96294090E+00</totfact>
</mgrwt>
</event>
<event>
 4    1  0.2089815E-007  0.8825647E+03  0.7818608E-02  0.9554621E-01
         -2   -1    0    0    0  501 -0.00000000000E+00  0.00000000000E+00  0.13341800029E+04  0.13341800029E+04  0.25500000000E-02 0.  1.
          2   -1    0    0  501    0  0.00000000000E+00 -0.00000000000E+00 -0.52731460775E+03  0.52731460776E+03  0.25500000000E-02 0. -1.
    8880023    1    1    2    0    0  0.58614467050E+03  0.39303121996E+02  0.40037209020E+02  0.88347240734E+03  0.65864270000E+03 0.  0.
    8880022    1    1    2    0    0 -0.58614467050E+03 -0.39303121996E+02  0.76682818617E+03  0.97802220337E+03  0.15294330000E+03 0.  0.
<mgrwt>
<rscale>  0 0.80373874E+03</rscale>
<asrwt>0</asrwt>
<pdfrwt beam="1">  1        2 0.81125324E-01 0.88256474E+03</pdfrwt>
<pdfrwt beam="2">  1       -2 0.20525846E+00 0.88256474E+03</pdfrwt>
<totfact> 0.71541463E+00</totfact>
</mgrwt>
</event>
<event>
 4    1  0.2089815E-007  0.8548740E+03  0.7818608E-02  0.9602747E-01
         -2   -1    0    0    0  501 -0.00000000000E+00  0.00000000000E+00  0.99470723509E+03  0.99470723509E+03  0.25500000000E-02 0.  1.
          2   -1    0    0  501    0  0.00000000000E+00 -0.00000000000E+00 -0.89313222900E+03  0.89313222901E+03  0.25500000000E-02 0. -1.
    8880023    1    1    2    0    0  0.46883845716E+03 -0.27783073075E+03 -0.55632538626E+03  0.10199546831E+04  0.65864270000E+03 0.  0.
    8880022    1    1    2    0    0 -0.46883845716E+03  0.27783073075E+03  0.65790039235E+03  0.86788478102E+03  0.15294330000E+03 0.  0.
<mgrwt>
<rscale>  0 0.77114606E+03</rscale>
<asrwt>0</asrwt>
<pdfrwt beam="1">  1        2 0.13740496E+00 0.85487404E+03</pdfrwt>
<pdfrwt beam="2">  1       -2 0.15303188E+00 0.85487404E+03</pdfrwt>
<totfact> 0.84656459E+00</totfact>
</mgrwt>
</event>
<event>
 4    1  0.2089815E-007  0.8066478E+03  0.7818608E-02  0.9696602E-01
          2   -1    0    0  501    0  0.00000000000E+00  0.00000000000E+00  0.50952041452E+04  0.50952041452E+04  0.25500000000E-02 0. -1.
         -2   -1    0    0    0  501 -0.00000000000E+00 -0.00000000000E+00 -0.89786271912E+02  0.89786271948E+02  0.25500000000E-02 0.  1.
    8880023    1    1    2    0    0 -0.46157955152E+03 -0.61763934304E+02  0.37813096916E+04  0.38663915549E+04  0.65864270000E+03 0.  0.
    8880022    1    1    2    0    0  0.46157955152E+03  0.61763934304E+02  0.12241081817E+04  0.13185988623E+04  0.15294330000E+03 0.  0.
<mgrwt>
<rscale>  0 0.71219452E+03</rscale>
<asrwt>0</asrwt>
<pdfrwt beam="1">  1        2 0.78387748E+00 0.80664780E+03</pdfrwt>
<pdfrwt beam="2">  1       -2 0.13813274E-01 0.80664780E+03</pdfrwt>
<totfact> 0.12083012E+00</totfact>
</mgrwt>
</event>
<event>
 4    1  0.2089815E-007  0.1045503E+04  0.7818608E-02  0.9324307E-01
          2   -1    0    0  501    0  0.00000000000E+00  0.00000000000E+00  0.22470181956E+04  0.22470181956E+04  0.25500000000E-02 0. -1.
         -2   -1    0    0    0  501 -0.00000000000E+00 -0.00000000000E+00 -0.96994739742E+03  0.96994739743E+03  0.25500000000E-02 0.  1.
    8880023    1    1    2    0    0  0.51789735119E+03  0.62533892815E+03  0.19091546970E+04  0.21766828673E+04  0.65864270000E+03 0. -1.
    8880022    1    1    2    0    0 -0.51789735119E+03 -0.62533892815E+03 -0.63208389878E+03  0.10402827258E+04  0.15294330000E+03 0.  0.
<mgrwt>
<rscale>  0 0.98575590E+03</rscale>
<asrwt>0</asrwt>
<pdfrwt beam="1">  1        2 0.34569510E+00 0.10455031E+04</pdfrwt>
<pdfrwt beam="2">  1       -2 0.14922268E+00 0.10455031E+04</pdfrwt>
<totfact> 0.14680955E+00</totfact>
</mgrwt>
</event>
<event>
 4    1  0.2089815E-007  0.6860630E+03  0.7818608E-02  0.1006083E+00
          2   -1    0    0  501    0  0.00000000000E+00  0.00000000000E+00  0.85503839022E+03  0.85503839022E+03  0.25500000000E-02 0. -1.
         -2   -1    0    0    0  501 -0.00000000000E+00 -0.00000000000E+00 -0.90245182926E+03  0.90245182926E+03  0.25500000000E-02 0.  1.
    8880023    1    1    2    0    0 -0.17962470155E+03 -0.67876050620E+02  0.69437594251E+03  0.97613541451E+03  0.65864270000E+03 0. -1.
    8880022    1    1    2    0    0  0.17962470155E+03  0.67876050620E+02 -0.74178938155E+03  0.78135480497E+03  0.15294330000E+03 0.  0.
<mgrwt>
<rscale>  0 0.53061569E+03</rscale>
<asrwt>0</asrwt>
<pdfrwt beam="1">  1        2 0.13154437E+00 0.68606297E+03</pdfrwt>
<pdfrwt beam="2">  1       -2 0.13883874E+00 0.68606297E+03</pdfrwt>
<totfact> 0.11827537E+01</totfact>
</mgrwt>
</event>
<event>
 4    1  0.2089815E-007  0.7569244E+03  0.7818608E-02  0.9813136E-01
         -2   -1    0    0    0  501 -0.00000000000E+00  0.00000000000E+00  0.39148833832E+03  0.39148833833E+03  0.25500000000E-02 0.  1.
          2   -1    0    0  501    0  0.00000000000E+00 -0.00000000000E+00 -0.13775111902E+04  0.13775111902E+04  0.25500000000E-02 0. -1.
    8880023    1    1    2    0    0  0.25778091869E+03  0.26957989601E+03 -0.11133076084E+04  0.13462497389E+04  0.65864270000E+03 0. -1.
    8880022    1    1    2    0    0 -0.25778091869E+03 -0.26957989601E+03  0.12728475650E+03  0.42274978962E+03  0.15294330000E+03 0.  0.
<mgrwt>
<rscale>  0 0.64662335E+03</rscale>
<asrwt>0</asrwt>
<pdfrwt beam="1">  1        2 0.21192480E+00 0.75692439E+03</pdfrwt>
<pdfrwt beam="2">  1       -2 0.60228976E-01 0.75692439E+03</pdfrwt>
<totfact> 0.39063909E+01</totfact>
</mgrwt>
</event>
<event>
 4    1  0.2089815E-007  0.9198647E+03  0.7818608E-02  0.9494867E-01
          2   -1    0    0  501    0  0.00000000000E+00  0.00000000000E+00  0.71715468092E+03  0.71715468093E+03  0.25500000000E-02 0. -1.
         -2   -1    0    0    0  501 -0.00000000000E+00 -0.00000000000E+00 -0.13470800320E+04  0.13470800320E+04  0.25500000000E-02 0.  1.
    8880023    1    1    2    0    0  0.23234598395E+03  0.59862853724E+03  0.26029332888E+03  0.95598305695E+03  0.65864270000E+03 0.  0.
    8880022    1    1    2    0    0 -0.23234598395E+03 -0.59862853724E+03 -0.89021867996E+03  0.11082516560E+04  0.15294330000E+03 0.  0.
<mgrwt>
<rscale>  0 0.84663347E+03</rscale>
<asrwt>0</asrwt>
<pdfrwt beam="1">  1        2 0.11033149E+00 0.91986466E+03</pdfrwt>
<pdfrwt beam="2">  1       -2 0.20724308E+00 0.91986466E+03</pdfrwt>
<totfact> 0.47489904E+00</totfact>
</mgrwt>
</event>
<event>
 4    1  0.2089815E-007  0.7134510E+03  0.7818608E-02  0.9945402E-01
          2   -1    0    0  501    0  0.00000000000E+00  0.00000000000E+00  0.19969438471E+04  0.19969438471E+04  0.25500000000E-02 0. -1.
         -2   -1    0    0    0  501 -0.00000000000E+00 -0.00000000000E+00 -0.31490475102E+03  0.31490475103E+03  0.25500000000E-02 0.  1.
    8880023    1    1    2    0    0 -0.27269988656E+03 -0.28929999804E+02  0.18304272310E+04  0.19645549693E+04  0.65864270000E+03 0.  0.
    8880022    1    1    2    0    0  0.27269988656E+03  0.28929999804E+02 -0.14838813495E+03  0.34729362883E+03  0.15294330000E+03 0.  0.
<mgrwt>
<rscale>  0 0.58110464E+03</rscale>
<asrwt>0</asrwt>
<pdfrwt beam="1">  1        2 0.30722213E+00 0.71345103E+03</pdfrwt>
<pdfrwt beam="2">  1       -2 0.48446885E-01 0.71345103E+03</pdfrwt>
<totfact> 0.28092510E+01</totfact>
</mgrwt>
</event>
<event>
 4    1  0.2089815E-007  0.7860861E+03  0.7818608E-02  0.9741730E-01
         -2   -1    0    0    0  501 -0.00000000000E+00  0.00000000000E+00  0.32081256435E+03  0.32081256436E+03  0.25500000000E-02 0.  1.
          2   -1    0    0  501    0  0.00000000000E+00 -0.00000000000E+00 -0.56728805379E+04  0.56728805379E+04  0.25500000000E-02 0. -1.
    8880023    1    1    2    0    0 -0.42002586898E+03 -0.87746274539E+02 -0.54675318194E+04  0.55237519442E+04  0.65864270000E+03 0. -1.
    8880022    1    1    2    0    0  0.42002586898E+03  0.87746274539E+02  0.11546384581E+03  0.46994115803E+03  0.15294330000E+03 0.  0.
<mgrwt>
<rscale>  0 0.68585640E+03</rscale>
<asrwt>0</asrwt>
<pdfrwt beam="1">  1        2 0.87275078E+00 0.78608609E+03</pdfrwt>
<pdfrwt beam="2">  1       -2 0.49355783E-01 0.78608609E+03</pdfrwt>
<totfact> 0.13063110E-02</totfact>
</mgrwt>
</event>
<event>
 4    1  0.2089815E-007  0.6794254E+03  0.7818608E-02  0.1009651E+00
         -2   -1    0    0    0  501 -0.00000000000E+00  0.00000000000E+00  0.31087255818E+03  0.31087255819E+03  0.25500000000E-02 0.  1.
          2   -1    0    0  501    0  0.00000000000E+00 -0.00000000000E+00 -0.11544594600E+04  0.11544594600E+04  0.25500000000E-02 0. -1.
    8880023    1    1    2    0    0  0.25272348564E+02  0.16483336000E+03 -0.98640610607E+03  0.11977545410E+04  0.65864270000E+03 0. -1.
    8880022    1    1    2    0    0 -0.25272348564E+02 -0.16483336000E+03  0.14281920425E+03  0.26757747717E+03  0.15294330000E+03 0.  0.
<mgrwt>
<rscale>  0 0.51613761E+03</rscale>
<asrwt>0</asrwt>
<pdfrwt beam="1">  1        2 0.17760915E+00 0.67942544E+03</pdfrwt>
<pdfrwt beam="2">  1       -2 0.47826548E-01 0.67942544E+03</pdfrwt>
<totfact> 0.85387566E+01</totfact>
</mgrwt>
</event>
<event>
 4    1  0.2089815E-007  0.8216377E+03  0.7818608E-02  0.9665827E-01
         -2   -1    0    0    0  501 -0.00000000000E+00  0.00000000000E+00  0.23640714889E+03  0.23640714890E+03  0.25500000000E-02 0.  1.
          2   -1    0    0  501    0  0.00000000000E+00 -0.00000000000E+00 -0.18993998425E+04  0.18993998425E+04  0.25500000000E-02 0. -1.
    8880023    1    1    2    0    0  0.77968227867E+02  0.48497350452E+03 -0.11027210257E+04  0.13751662487E+04  0.65864270000E+03 0.  1.
    8880022    1    1    2    0    0 -0.77968227867E+02 -0.48497350452E+03 -0.56027166788E+03  0.76064074272E+03  0.15294330000E+03 0.  0.
<mgrwt>
<rscale>  0 0.73088385E+03</rscale>
<asrwt>0</asrwt>
<pdfrwt beam="1">  1        2 0.29221535E+00 0.82163772E+03</pdfrwt>
<pdfrwt beam="2">  1       -2 0.36370332E-01 0.82163772E+03</pdfrwt>
<totfact> 0.55126643E+01</totfact>
</mgrwt>
</event>
<event>
 4    1  0.2089815E-007  0.1392841E+04  0.7818608E-02  0.8989266E-01
          2   -1    0    0  501    0  0.00000000000E+00  0.00000000000E+00  0.39872777491E+04  0.39872777491E+04  0.25500000000E-02 0. -1.
         -2   -1    0    0    0  501 -0.00000000000E+00 -0.00000000000E+00 -0.62322071646E+03  0.62322071646E+03  0.25500000000E-02 0.  1.
    8880023    1    1    2    0    0  0.10333556345E+04  0.66209571093E+03  0.48132091116E+03  0.14736602809E+04  0.65864270000E+03 0.  0.
    8880022    1    1    2    0    0 -0.10333556345E+04 -0.66209571093E+03  0.28827361215E+04  0.31368381847E+04  0.15294330000E+03 0.  0.
<mgrwt>
<rscale>  0 0.13520657E+04</rscale>
<asrwt>0</asrwt>
<pdfrwt beam="1">  1        2 0.61342734E+00 0.13928406E+04</pdfrwt>
<pdfrwt beam="2">  1       -2 0.95880111E-01 0.13928406E+04</pdfrwt>
<totfact> 0.31467326E-01</totfact>
</mgrwt>
</event>
<event>
 4    1  0.2089815E-007  0.7184388E+03  0.7818608E-02  0.9927904E-01
          2   -1    0    0  501    0  0.00000000000E+00  0.00000000000E+00  0.55098948047E+03  0.55098948047E+03  0.25500000000E-02 0. -1.
         -2   -1    0    0    0  501 -0.00000000000E+00 -0.00000000000E+00 -0.55272686146E+03  0.55272686147E+03  0.25500000000E-02 0.  1.
    8880023    1    1    2    0    0 -0.10818907599E+03 -0.26578031010E+03  0.16667857255E+03  0.73752017071E+03  0.65864270000E+03 0. -1.
    8880022    1    1    2    0    0  0.10818907599E+03  0.26578031010E+03 -0.16841595354E+03  0.36619617123E+03  0.15294330000E+03 0.  0.
<mgrwt>
<rscale>  0 0.58927772E+03</rscale>
<asrwt>0</asrwt>
<pdfrwt beam="1">  1        2 0.84767613E-01 0.71843876E+03</pdfrwt>
<pdfrwt beam="2">  1       -2 0.85034902E-01 0.71843876E+03</pdfrwt>
<totfact> 0.67040545E+01</totfact>
</mgrwt>
</event>
<event>
 4    1  0.2089815E-007  0.7654499E+03  0.7818608E-02  0.9791197E-01
          2   -1    0    0  501    0  0.00000000000E+00  0.00000000000E+00  0.59001918946E+03  0.59001918946E+03  0.25500000000E-02 0. -1.
         -2   -1    0    0    0  501 -0.00000000000E+00 -0.00000000000E+00 -0.99965298132E+03  0.99965298132E+03  0.25500000000E-02 0.  1.
    8880023    1    1    2    0    0  0.14932063854E+03  0.36028689823E+03  0.25260638484E+03  0.80605427488E+03  0.65864270000E+03 0. -1.
    8880022    1    1    2    0    0 -0.14932063854E+03 -0.36028689823E+03 -0.66224017670E+03  0.78361789590E+03  0.15294330000E+03 0.  0.
<mgrwt>
<rscale>  0 0.65837093E+03</rscale>
<asrwt>0</asrwt>
<pdfrwt beam="1">  1        2 0.90772183E-01 0.76544987E+03</pdfrwt>
<pdfrwt beam="2">  1       -2 0.15379277E+00 0.76544987E+03</pdfrwt>
<totfact> 0.14374634E+01</totfact>
</mgrwt>
</event>
<event>
 4    1  0.2089815E-007  0.1465857E+04  0.7818608E-02  0.8934130E-01
         -2   -1    0    0    0  501 -0.00000000000E+00  0.00000000000E+00  0.34677546001E+04  0.34677546001E+04  0.25500000000E-02 0.  1.
          2   -1    0    0  501    0  0.00000000000E+00 -0.00000000000E+00 -0.69847541531E+03  0.69847541531E+03  0.25500000000E-02 0. -1.
    8880023    1    1    2    0    0 -0.11487192340E+04 -0.62878413116E+03  0.23734804018E+04  0.27896495812E+04  0.65864270000E+03 0.  0.
    8880022    1    1    2    0    0  0.11487192340E+04  0.62878413116E+03  0.39579878306E+03  0.13765804342E+04  0.15294330000E+03 0. -1.
<mgrwt>
<rscale>  0 0.14275283E+04</rscale>
<asrwt>0</asrwt>
<pdfrwt beam="1">  1        2 0.10745776E+00 0.14658566E+04</pdfrwt>
<pdfrwt beam="2">  1       -2 0.53350069E+00 0.14658566E+04</pdfrwt>
<totfact> 0.40519064E-02</totfact>
</mgrwt>
</event>
<event>
 4    1  0.2089815E-007  0.7190459E+03  0.7818608E-02  0.9925828E-01
          2   -1    0    0  501    0  0.00000000000E+00  0.00000000000E+00  0.40508994240E+04  0.40508994240E+04  0.25500000000E-02 0. -1.
         -2   -1    0    0    0  501 -0.00000000000E+00 -0.00000000000E+00 -0.19373253038E+03  0.19373253039E+03  0.25500000000E-02 0.  1.
    8880023    1    1    2    0    0  0.28577766885E+03 -0.39343489916E+02  0.38515289616E+04  0.39180738042E+04  0.65864270000E+03 0. -1.
    8880022    1    1    2    0    0 -0.28577766885E+03  0.39343489916E+02  0.56379320120E+01  0.32655815027E+03  0.15294330000E+03 0.  0.
<mgrwt>
<rscale>  0 0.59025735E+03</rscale>
<asrwt>0</asrwt>
<pdfrwt beam="1">  1        2 0.62321524E+00 0.71904589E+03</pdfrwt>
<pdfrwt beam="2">  1       -2 0.29805007E-01 0.71904589E+03</pdfrwt>
<totfact> 0.36013381E+00</totfact>
</mgrwt>
</event>
<event>
 4    1  0.2089815E-007  0.1693213E+04  0.7818608E-02  0.8784027E-01
         -2   -1    0    0    0  501 -0.00000000000E+00  0.00000000000E+00  0.13474568740E+04  0.13474568740E+04  0.25500000000E-02 0.  1.
          2   -1    0    0  501    0  0.00000000000E+00 -0.00000000000E+00 -0.25859589681E+04  0.25859589681E+04  0.25500000000E-02 0. -1.
    8880023    1    1    2    0    0  0.15598343034E+04  0.86908276976E+01 -0.15948795677E+04  0.23260717156E+04  0.65864270000E+03 0.  0.
    8880022    1    1    2    0    0 -0.15598343034E+04 -0.86908276976E+01  0.35637747349E+03  0.16073441265E+04  0.15294330000E+03 0.  0.
<mgrwt>
<rscale>  0 0.16608267E+04</rscale>
<asrwt>0</asrwt>
<pdfrwt beam="1">  1        2 0.39783984E+00 0.16932126E+04</pdfrwt>
<pdfrwt beam="2">  1       -2 0.20730106E+00 0.16932126E+04</pdfrwt>
<totfact> 0.34017436E-01</totfact>
</mgrwt>
</event>
<event>
 4    1  0.2089815E-007  0.1156762E+04  0.7818608E-02  0.9200344E-01
          2   -1    0    0  501    0  0.00000000000E+00  0.00000000000E+00  0.18137945465E+04  0.18137945465E+04  0.25500000000E-02 0. -1.
         -2   -1    0    0    0  501 -0.00000000000E+00 -0.00000000000E+00 -0.93905283045E+03  0.93905283045E+03  0.25500000000E-02 0.  1.
    8880023    1    1    2    0    0  0.15515766306E+03 -0.93819689599E+03  0.12645263286E+04  0.17138040606E+04  0.65864270000E+03 0.  0.
    8880022    1    1    2    0    0 -0.15515766306E+03  0.93819689599E+03 -0.38978461257E+03  0.10390433164E+04  0.15294330000E+03 0.  0.
<mgrwt>
<rscale>  0 0.11049882E+04</rscale>
<asrwt>0</asrwt>
<pdfrwt beam="1">  1        2 0.27904531E+00 0.11567617E+04</pdfrwt>
<pdfrwt beam="2">  1       -2 0.14446967E+00 0.11567617E+04</pdfrwt>
<totfact> 0.27416378E+00</totfact>
</mgrwt>
</event>
<event>
 4    1  0.2089815E-007  0.1031836E+04  0.7818608E-02  0.9341042E-01
          2   -1    0    0  501    0  0.00000000000E+00  0.00000000000E+00  0.11148755967E+04  0.11148755967E+04  0.25500000000E-02 0. -1.
         -2   -1    0    0    0  501 -0.00000000000E+00 -0.00000000000E+00 -0.89254077178E+03  0.89254077178E+03  0.25500000000E-02 0.  1.
    8880023    1    1    2    0    0  0.79306973252E+03  0.43775639433E+02  0.50732532442E+03  0.11498108968E+04  0.65864270000E+03 0.  0.
    8880022    1    1    2    0    0 -0.79306973252E+03 -0.43775639433E+02 -0.28499049953E+03  0.85760547169E+03  0.15294330000E+03 0.  0.
<mgrwt>
<rscale>  0 0.97090675E+03</rscale>
<asrwt>0</asrwt>
<pdfrwt beam="1">  1        2 0.17151932E+00 0.10318363E+04</pdfrwt>
<pdfrwt beam="2">  1       -2 0.13731396E+00 0.10318363E+04</pdfrwt>
<totfact> 0.79649636E+00</totfact>
</mgrwt>
</event>
<event>
 4    1  0.2089815E-007  0.8008158E+03  0.7818608E-02  0.9709035E-01
          2   -1    0    0  501    0  0.00000000000E+00  0.00000000000E+00  0.67547644812E+03  0.67547644812E+03  0.25500000000E-02 0. -1.
         -2   -1    0    0    0  501 -0.00000000000E+00 -0.00000000000E+00 -0.78855895904E+03  0.78855895905E+03  0.25500000000E-02 0.  1.
    8880023    1    1    2    0    0 -0.36835461424E+03 -0.26797489499E+03  0.27464796364E+03  0.84660343513E+03  0.65864270000E+03 0.  0.
    8880022    1    1    2    0    0  0.36835461424E+03  0.26797489499E+03 -0.38773047456E+03  0.61743197204E+03  0.15294330000E+03 0.  0.
<mgrwt>
<rscale>  0 0.70481391E+03</rscale>
<asrwt>0</asrwt>
<pdfrwt beam="1">  1        2 0.10391945E+00 0.80081575E+03</pdfrwt>
<pdfrwt beam="2">  1       -2 0.12131676E+00 0.80081575E+03</pdfrwt>
<totfact> 0.22348764E+01</totfact>
</mgrwt>
</event>
<event>
 4    1  0.2089815E-007  0.6889250E+03  0.7818608E-02  0.1004668E+00
          2   -1    0    0  501    0  0.00000000000E+00  0.00000000000E+00  0.27673563479E+04  0.27673563479E+04  0.25500000000E-02 0. -1.
         -2   -1    0    0    0  501 -0.00000000000E+00 -0.00000000000E+00 -0.64213075414E+03  0.64213075415E+03  0.25500000000E-02 0.  1.
    8880023    1    1    2    0    0  0.10406848064E+03  0.17313939261E+03  0.26972588904E+04  0.27838504317E+04  0.65864270000E+03 0. -1.
    8880022    1    1    2    0    0 -0.10406848064E+03 -0.17313939261E+03 -0.57203329659E+03  0.62563667041E+03  0.15294330000E+03 0.  0.
<mgrwt>
<rscale>  0 0.53650051E+03</rscale>
<asrwt>0</asrwt>
<pdfrwt beam="1">  1        2 0.42574711E+00 0.68892504E+03</pdfrwt>
<pdfrwt beam="2">  1       -2 0.98789351E-01 0.68892504E+03</pdfrwt>
<totfact> 0.22076067E+00</totfact>
</mgrwt>
</event>
<event>
 4    1  0.2089815E-007  0.8254887E+03  0.7818608E-02  0.9658174E-01
          2   -1    0    0  501    0  0.00000000000E+00  0.00000000000E+00  0.24231751696E+04  0.24231751696E+04  0.25500000000E-02 0. -1.
         -2   -1    0    0    0  501 -0.00000000000E+00 -0.00000000000E+00 -0.43023452631E+03  0.43023452632E+03  0.25500000000E-02 0.  1.
    8880023    1    1    2    0    0  0.43778016526E+03 -0.23657978729E+03  0.21553930818E+04  0.23080621768E+04  0.65864270000E+03 0. -1.
    8880022    1    1    2    0    0 -0.43778016526E+03  0.23657978729E+03 -0.16245243845E+03  0.54534751914E+03  0.15294330000E+03 0.  0.
<mgrwt>
<rscale>  0 0.73562615E+03</rscale>
<asrwt>0</asrwt>
<pdfrwt beam="1">  1        2 0.37279617E+00 0.82548875E+03</pdfrwt>
<pdfrwt beam="2">  1       -2 0.66189928E-01 0.82548875E+03</pdfrwt>
<totfact> 0.83717903E+00</totfact>
</mgrwt>
</event>
<event>
 4    1  0.2089815E-007  0.9404083E+03  0.7818608E-02  0.9464051E-01
         -2   -1    0    0    0  501 -0.00000000000E+00  0.00000000000E+00  0.46712701703E+03  0.46712701704E+03  0.25500000000E-02 0.  1.
          2   -1    0    0  501    0  0.00000000000E+00 -0.00000000000E+00 -0.18252888871E+04  0.18252888871E+04  0.25500000000E-02 0. -1.
    8880023    1    1    2    0    0 -0.63277845345E+03  0.22393986766E+03 -0.12959040375E+04  0.16011667983E+04  0.65864270000E+03 0. -1.
    8880022    1    1    2    0    0  0.63277845345E+03 -0.22393986766E+03 -0.62257832535E+02  0.69124910575E+03  0.15294330000E+03 0.  0.
<mgrwt>
<rscale>  0 0.86986897E+03</rscale>
<asrwt>0</asrwt>
<pdfrwt beam="1">  1        2 0.28081367E+00 0.94040834E+03</pdfrwt>
<pdfrwt beam="2">  1       -2 0.71865696E-01 0.94040834E+03</pdfrwt>
<totfact> 0.14762669E+01</totfact>
</mgrwt>
</event>
<event>
 4    1  0.2089815E-007  0.6803209E+03  0.7818608E-02  0.1009143E+00
          2   -1    0    0  501    0  0.00000000000E+00  0.00000000000E+00  0.40199423221E+04  0.40199423221E+04  0.25500000000E-02 0. -1.
         -2   -1    0    0    0  501 -0.00000000000E+00 -0.00000000000E+00 -0.89796455831E+02  0.89796455868E+02  0.25500000000E-02 0.  1.
    8880023    1    1    2    0    0 -0.16747178591E+03  0.31297204458E+02  0.37686460771E+04  0.38295599975E+04  0.65864270000E+03 0. -1.
    8880022    1    1    2    0    0  0.16747178591E+03 -0.31297204458E+02  0.16149978917E+03  0.28017878043E+03  0.15294330000E+03 0.  0.
<mgrwt>
<rscale>  0 0.51816775E+03</rscale>
<asrwt>0</asrwt>
<pdfrwt beam="1">  1        2 0.61845268E+00 0.68032090E+03</pdfrwt>
<pdfrwt beam="2">  1       -2 0.13814839E-01 0.68032090E+03</pdfrwt>
<totfact> 0.14830400E+01</totfact>
</mgrwt>
</event>
<event>
 4    1  0.2214101E-007  0.1303541E+04  0.7818608E-02  0.9062508E-01
         -2   -1    0    0    0  501 -0.00000000000E+00  0.00000000000E+00  0.20312656523E+04  0.20312656523E+04  0.25500000000E-02 0.  1.
          2   -1    0    0  501    0  0.00000000000E+00 -0.00000000000E+00 -0.17751632067E+04  0.17751632067E+04  0.25500000000E-02 0. -1.
    8880023    1    1    2    0    0  0.11246291759E+04  0.24881168921E+02 -0.13258212398E+04  0.18593068660E+04  0.65864270000E+03 0.  0.
    8880022    1    1    2    0    0 -0.11246291759E+04 -0.24881168921E+02  0.15819236855E+04  0.19471219930E+04  0.15294330000E+03 0.  0.
<mgrwt>
<rscale>  0 0.12592642E+04</rscale>
<asrwt>0</asrwt>
<pdfrwt beam="1">  1        2 0.27310203E+00 0.13035414E+04</pdfrwt>
<pdfrwt beam="2">  1       -2 0.31250241E+00 0.13035414E+04</pdfrwt>
<totfact> 0.22840198E-01</totfact>
</mgrwt>
</event>
<event>
 4    1  0.2089815E-007  0.7700295E+03  0.7818608E-02  0.9779802E-01
          2   -1    0    0  501    0  0.00000000000E+00  0.00000000000E+00  0.24140888540E+04  0.24140888540E+04  0.25500000000E-02 0. -1.
         -2   -1    0    0    0  501 -0.00000000000E+00 -0.00000000000E+00 -0.12137099574E+04  0.12137099574E+04  0.25500000000E-02 0.  1.
    8880023    1    1    2    0    0 -0.26907485971E+03 -0.29450614451E+03  0.23120235676E+04  0.24368829132E+04  0.65864270000E+03 0. -1.
    8880022    1    1    2    0    0  0.26907485971E+03  0.29450614451E+03 -0.11116446710E+04  0.11909158983E+04  0.15294330000E+03 0.  0.
<mgrwt>
<rscale>  0 0.66457857E+03</rscale>
<asrwt>0</asrwt>
<pdfrwt beam="1">  1        2 0.37139828E+00 0.77002945E+03</pdfrwt>
<pdfrwt beam="2">  1       -2 0.18672461E+00 0.77002945E+03</pdfrwt>
<totfact> 0.66759460E-01</totfact>
</mgrwt>
</event>
<event>
 4    1  0.2089815E-007  0.9104590E+03  0.7818608E-02  0.9509446E-01
          2   -1    0    0  501    0  0.00000000000E+00  0.00000000000E+00  0.19616191120E+04  0.19616191120E+04  0.25500000000E-02 0. -1.
         -2   -1    0    0    0  501 -0.00000000000E+00 -0.00000000000E+00 -0.87261303915E+03  0.87261303916E+03  0.25500000000E-02 0.  1.
    8880023    1    1    2    0    0 -0.54024857393E+03  0.32133600792E+03  0.17101348952E+04  0.19373943629E+04  0.65864270000E+03 0. -1.
    8880022    1    1    2    0    0  0.54024857393E+03 -0.32133600792E+03 -0.62112882226E+03  0.89683778828E+03  0.15294330000E+03 0.  0.
<mgrwt>
<rscale>  0 0.83590982E+03</rscale>
<asrwt>0</asrwt>
<pdfrwt beam="1">  1        2 0.30178755E+00 0.91045898E+03</pdfrwt>
<pdfrwt beam="2">  1       -2 0.13424816E+00 0.91045898E+03</pdfrwt>
<totfact> 0.28365928E+00</totfact>
</mgrwt>
</event>
<event>
 4    1  0.2089815E-007  0.9629320E+03  0.7818608E-02  0.9431747E-01
         -2   -1    0    0    0  501 -0.00000000000E+00  0.00000000000E+00  0.51928569337E+03  0.51928569338E+03  0.25500000000E-02 0.  1.
          2   -1    0    0  501    0  0.00000000000E+00 -0.00000000000E+00 -0.22697207036E+04  0.22697207036E+04  0.25500000000E-02 0. -1.
    8880023    1    1    2    0    0  0.37936709639E+03  0.59119239506E+03 -0.18278182657E+04  0.20659519986E+04  0.65864270000E+03 0.  0.
    8880022    1    1    2    0    0 -0.37936709639E+03 -0.59119239506E+03  0.77383255459E+02  0.72305439840E+03  0.15294330000E+03 0.  0.
<mgrwt>
<rscale>  0 0.89508458E+03</rscale>
<asrwt>0</asrwt>
<pdfrwt beam="1">  1        2 0.34918779E+00 0.96293201E+03</pdfrwt>
<pdfrwt beam="2">  1       -2 0.79890108E-01 0.96293201E+03</pdfrwt>
<totfact> 0.66109523E+00</totfact>
</mgrwt>
</event>
<event>
 4    1  0.2089815E-007  0.7030441E+03  0.7818608E-02  0.9984800E-01
          2   -1    0    0  501    0  0.00000000000E+00  0.00000000000E+00  0.84061937868E+03  0.84061937868E+03  0.25500000000E-02 0. -1.
         -2   -1    0    0    0  501 -0.00000000000E+00 -0.00000000000E+00 -0.83194516737E+03  0.83194516738E+03  0.25500000000E-02 0.  1.
    8880023    1    1    2    0    0 -0.96586490334E+02  0.22612353712E+03  0.65716397635E+03  0.96235934153E+03  0.65864270000E+03 0. -1.
    8880022    1    1    2    0    0  0.96586490334E+02 -0.22612353712E+03 -0.64848976505E+03  0.71020520453E+03  0.15294330000E+03 0.  0.
<mgrwt>
<rscale>  0 0.56321784E+03</rscale>
<asrwt>0</asrwt>
<pdfrwt beam="1">  1        2 0.12932606E+00 0.70304410E+03</pdfrwt>
<pdfrwt beam="2">  1       -2 0.12799157E+00 0.70304410E+03</pdfrwt>
<totfact> 0.14856426E+01</totfact>
</mgrwt>
</event>
<event>
 4    1  0.2089815E-007  0.9804643E+03  0.7818608E-02  0.9407575E-01
          2   -1    0    0  501    0  0.00000000000E+00  0.00000000000E+00  0.32851338226E+04  0.32851338226E+04  0.25500000000E-02 0. -1.
         -2   -1    0    0    0  501 -0.00000000000E+00 -0.00000000000E+00 -0.35393843570E+03  0.35393843571E+03  0.25500000000E-02 0.  1.
    8880023    1    1    2    0    0 -0.70183247653E+03 -0.18689882105E+03  0.26828665208E+04  0.28564108544E+04  0.65864270000E+03 0. -1.
    8880022    1    1    2    0    0  0.70183247653E+03  0.18689882105E+03  0.24832886610E+03  0.78266140391E+03  0.15294330000E+03 0.  0.
<mgrwt>
<rscale>  0 0.91454926E+03</rscale>
<asrwt>0</asrwt>
<pdfrwt beam="1">  1        2 0.50540522E+00 0.98046428E+03</pdfrwt>
<pdfrwt beam="2">  1       -2 0.54452065E-01 0.98046428E+03</pdfrwt>
<totfact> 0.37393488E+00</totfact>
</mgrwt>
</event>
<event>
 4    1  0.2089815E-007  0.7001265E+03  0.7818608E-02  0.9996677E-01
         -2   -1    0    0    0  501 -0.00000000000E+00  0.00000000000E+00  0.10227821801E+04  0.10227821801E+04  0.25500000000E-02 0.  1.
          2   -1    0    0  501    0  0.00000000000E+00 -0.00000000000E+00 -0.90810831770E+03  0.90810831771E+03  0.25500000000E-02 0. -1.
    8880023    1    1    2    0    0  0.22483098658E+03 -0.76275702007E+02 -0.74718221643E+03  0.10239425892E+04  0.65864270000E+03 0. -1.
    8880022    1    1    2    0    0 -0.22483098658E+03  0.76275702007E+02  0.86185607879E+03  0.90694790854E+03  0.15294330000E+03 0.  0.
<mgrwt>
<rscale>  0 0.55796197E+03</rscale>
<asrwt>0</asrwt>
<pdfrwt beam="1">  1        2 0.13970897E+00 0.70012653E+03</pdfrwt>
<pdfrwt beam="2">  1       -2 0.15735110E+00 0.70012653E+03</pdfrwt>
<totfact> 0.78177396E+00</totfact>
</mgrwt>
</event>
<event>
 4    1  0.2089815E-007  0.9292366E+03  0.7818608E-02  0.9480639E-01
         -2   -1    0    0    0  501 -0.00000000000E+00  0.00000000000E+00  0.75126518527E+03  0.75126518527E+03  0.25500000000E-02 0.  1.
          2   -1    0    0  501    0  0.00000000000E+00 -0.00000000000E+00 -0.11186397532E+04  0.11186397532E+04  0.25500000000E-02 0. -1.
    8880023    1    1    2    0    0  0.61177320707E+03  0.23538049344E+03 -0.65607591738E+03  0.11375043952E+04  0.65864270000E+03 0.  0.
    8880022    1    1    2    0    0 -0.61177320707E+03 -0.23538049344E+03  0.28870134942E+03  0.73240054325E+03  0.15294330000E+03 0.  0.
<mgrwt>
<rscale>  0 0.85726371E+03</rscale>
<asrwt>0</asrwt>
<pdfrwt beam="1">  1        2 0.17209842E+00 0.92923659E+03</pdfrwt>
<pdfrwt beam="2">  1       -2 0.11557926E+00 0.92923659E+03</pdfrwt>
<totfact> 0.12349827E+01</totfact>
</mgrwt>
</event>
<event>
 4    1  0.2089815E-007  0.1000107E+04  0.7818608E-02  0.9381418E-01
          2   -1    0    0  501    0  0.00000000000E+00  0.00000000000E+00  0.13565472770E+04  0.13565472770E+04  0.25500000000E-02 0. -1.
         -2   -1    0    0    0  501 -0.00000000000E+00 -0.00000000000E+00 -0.71410760813E+03  0.71410760813E+03  0.25500000000E-02 0.  1.
    8880023    1    1    2    0    0 -0.68000371717E+03 -0.32248844522E+03  0.80717664831E+03  0.12852035638E+04  0.65864270000E+03 0.  0.
    8880022    1    1    2    0    0  0.68000371717E+03  0.32248844522E+03 -0.16473697947E+03  0.78545132127E+03  0.15294330000E+03 0.  0.
<mgrwt>
<rscale>  0 0.93620841E+03</rscale>
<asrwt>0</asrwt>
<pdfrwt beam="1">  1        2 0.20869958E+00 0.10001070E+04</pdfrwt>
<pdfrwt beam="2">  1       -2 0.10986271E+00 0.10001070E+04</pdfrwt>
<totfact> 0.10039769E+01</totfact>
</mgrwt>
</event>
<event>
 4    1  0.2089815E-007  0.8679603E+03  0.7818608E-02  0.9579558E-01
          2   -1    0    0  501    0  0.00000000000E+00  0.00000000000E+00  0.13860244153E+04  0.13860244153E+04  0.25500000000E-02 0. -1.
         -2   -1    0    0    0  501 -0.00000000000E+00 -0.00000000000E+00 -0.75531137382E+03  0.75531137383E+03  0.25500000000E-02 0.  1.
    8880023    1    1    2    0    0  0.48412826409E+03  0.29182976985E+03  0.10926718421E+04  0.13954521674E+04  0.65864270000E+03 0.  0.
    8880022    1    1    2    0    0 -0.48412826409E+03 -0.29182976985E+03 -0.46195880065E+03  0.74588362173E+03  0.15294330000E+03 0.  1.
<mgrwt>
<rscale>  0 0.78664101E+03</rscale>
<asrwt>0</asrwt>
<pdfrwt beam="1">  1        2 0.21323452E+00 0.86796025E+03</pdfrwt>
<pdfrwt beam="2">  1       -2 0.11620175E+00 0.86796025E+03</pdfrwt>
<totfact> 0.85395614E+00</totfact>
</mgrwt>
</event>
<event>
 4    1  0.2089815E-007  0.1375375E+04  0.7818608E-02  0.9003057E-01
         -2   -1    0    0    0  501 -0.00000000000E+00  0.00000000000E+00  0.51796225522E+03  0.51796225523E+03  0.25500000000E-02 0.  1.
          2   -1    0    0  501    0  0.00000000000E+00 -0.00000000000E+00 -0.34787344339E+04  0.34787344339E+04  0.25500000000E-02 0. -1.
    8880023    1    1    2    0    0 -0.21966195864E+03  0.11872634916E+04 -0.20830677999E+04  0.24961625828E+04  0.65864270000E+03 0.  0.
    8880022    1    1    2    0    0  0.21966195864E+03 -0.11872634916E+04 -0.87770437872E+03  0.15005341063E+04  0.15294330000E+03 0.  0.
<mgrwt>
<rscale>  0 0.13339634E+04</rscale>
<asrwt>0</asrwt>
<pdfrwt beam="1">  1        2 0.53518990E+00 0.13753749E+04</pdfrwt>
<pdfrwt beam="2">  1       -2 0.79686503E-01 0.13753749E+04</pdfrwt>
<totfact> 0.11501353E+00</totfact>
</mgrwt>
</event>
<event>
 4    1  0.2089815E-007  0.9933660E+03  0.7818608E-02  0.9390289E-01
          2   -1    0    0  501    0  0.00000000000E+00  0.00000000000E+00  0.13195705072E+04  0.13195705072E+04  0.25500000000E-02 0. -1.
         -2   -1    0    0    0  501 -0.00000000000E+00 -0.00000000000E+00 -0.16594389224E+04  0.16594389224E+04  0.25500000000E-02 0.  1.
    8880023    1    1    2    0    0  0.25722376010E+03 -0.69771184608E+03  0.10186071084E+04  0.14227918085E+04  0.65864270000E+03 0. -1.
    8880022    1    1    2    0    0 -0.25722376010E+03  0.69771184608E+03 -0.13584755236E+04  0.15562176210E+04  0.15294330000E+03 0.  0.
<mgrwt>
<rscale>  0 0.92879203E+03</rscale>
<asrwt>0</asrwt>
<pdfrwt beam="1">  1        2 0.20301085E+00 0.99336604E+03</pdfrwt>
<pdfrwt beam="2">  1       -2 0.25529830E+00 0.99336604E+03</pdfrwt>
<totfact> 0.95900987E-01</totfact>
</mgrwt>
</event>
<event>
 4    1  0.2089815E-007  0.6887329E+03  0.7818608E-02  0.1004761E+00
          2   -1    0    0  501    0  0.00000000000E+00  0.00000000000E+00  0.25572770737E+04  0.25572770737E+04  0.25500000000E-02 0. -1.
         -2   -1    0    0    0  501 -0.00000000000E+00 -0.00000000000E+00 -0.49626169908E+03  0.49626169909E+03  0.25500000000E-02 0.  1.
    8880023    1    1    2    0    0 -0.12085243553E+03  0.16105125669E+03  0.24746702457E+04  0.25687245570E+04  0.65864270000E+03 0. -1.
    8880022    1    1    2    0    0  0.12085243553E+03 -0.16105125669E+03 -0.41365487108E+03  0.48481421580E+03  0.15294330000E+03 0.  0.
<mgrwt>
<rscale>  0 0.53611136E+03</rscale>
<asrwt>0</asrwt>
<pdfrwt beam="1">  1        2 0.39342724E+00 0.68873291E+03</pdfrwt>
<pdfrwt beam="2">  1       -2 0.76347953E-01 0.68873291E+03</pdfrwt>
<totfact> 0.52634671E+00</totfact>
</mgrwt>
</event>
<event>
 4    1  0.2089815E-007  0.7078636E+03  0.7818608E-02  0.9966021E-01
         -2   -1    0    0    0  501 -0.00000000000E+00  0.00000000000E+00  0.13274537567E+04  0.13274537567E+04  0.25500000000E-02 0.  1.
          2   -1    0    0  501    0  0.00000000000E+00 -0.00000000000E+00 -0.13298921139E+04  0.13298921139E+04  0.25500000000E-02 0. -1.
    8880023    1    1    2    0    0  0.20324697497E+03  0.16109412701E+03 -0.12159806996E+04  0.14070109874E+04  0.65864270000E+03 0. -1.
    8880022    1    1    2    0    0 -0.20324697497E+03 -0.16109412701E+03  0.12135423424E+04  0.12503348833E+04  0.15294330000E+03 0.  0.
<mgrwt>
<rscale>  0 0.57165570E+03</rscale>
<asrwt>0</asrwt>
<pdfrwt beam="1">  1        2 0.20459879E+00 0.70786359E+03</pdfrwt>
<pdfrwt beam="2">  1       -2 0.20422366E+00 0.70786359E+03</pdfrwt>
<totfact> 0.20565579E+00</totfact>
</mgrwt>
</event>
<event>
 4    1  0.2089815E-007  0.1634027E+04  0.7818608E-02  0.8820369E-01
         -2   -1    0    0    0  501 -0.00000000000E+00  0.00000000000E+00  0.14447344510E+04  0.14447344510E+04  0.25500000000E-02 0.  1.
          2   -1    0    0  501    0  0.00000000000E+00 -0.00000000000E+00 -0.23184692791E+04  0.23184692791E+04  0.25500000000E-02 0. -1.
    8880023    1    1    2    0    0 -0.83973373092E+03  0.12373688316E+04 -0.14189962720E+04  0.21641614983E+04  0.65864270000E+03 0.  0.
    8880022    1    1    2    0    0  0.83973373092E+03 -0.12373688316E+04  0.54526144390E+03  0.15990422319E+04  0.15294330000E+03 0.  0.
<mgrwt>
<rscale>  0 0.16002912E+04</rscale>
<asrwt>0</asrwt>
<pdfrwt beam="1">  1        2 0.35668758E+00 0.16340271E+04</pdfrwt>
<pdfrwt beam="2">  1       -2 0.22226684E+00 0.16340271E+04</pdfrwt>
<totfact> 0.39133106E-01</totfact>
</mgrwt>
</event>
<event>
 4    1  0.2089815E-007  0.7752696E+03  0.7818608E-02  0.9767068E-01
          2   -1    0    0  501    0  0.00000000000E+00  0.00000000000E+00  0.27833587393E+04  0.27833587393E+04  0.25500000000E-02 0. -1.
         -2   -1    0    0    0  501 -0.00000000000E+00 -0.00000000000E+00 -0.93958270044E+03  0.93958270044E+03  0.25500000000E-02 0.  1.
    8880023    1    1    2    0    0  0.17082084468E+03 -0.37155480299E+03  0.26744305153E+04  0.27845325497E+04  0.65864270000E+03 0. -1.
    8880022    1    1    2    0    0 -0.17082084468E+03  0.37155480299E+03 -0.83065447649E+03  0.93840889005E+03  0.15294330000E+03 0.  0.
<mgrwt>
<rscale>  0 0.67160183E+03</rscale>
<asrwt>0</asrwt>
<pdfrwt beam="1">  1        2 0.42820904E+00 0.77526959E+03</pdfrwt>
<pdfrwt beam="2">  1       -2 0.14455118E+00 0.77526959E+03</pdfrwt>
<totfact> 0.82534937E-01</totfact>
</mgrwt>
</event>
<event>
 4    1  0.2089815E-007  0.1051489E+04  0.7818608E-02  0.9317094E-01
          2   -1    0    0  501    0  0.00000000000E+00  0.00000000000E+00  0.15307577314E+04  0.15307577314E+04  0.25500000000E-02 0. -1.
         -2   -1    0    0    0  501 -0.00000000000E+00 -0.00000000000E+00 -0.11611937391E+04  0.11611937391E+04  0.25500000000E-02 0.  1.
    8880023    1    1    2    0    0  0.79890541994E+03  0.18321864778E+03  0.11441163620E+04  0.15539084268E+04  0.65864270000E+03 0. -1.
    8880022    1    1    2    0    0 -0.79890541994E+03 -0.18321864778E+03 -0.77455236971E+03  0.11380430437E+04  0.15294330000E+03 0.  0.
<mgrwt>
<rscale>  0 0.99224314E+03</rscale>
<asrwt>0</asrwt>
<pdfrwt beam="1">  1        2 0.23550119E+00 0.10514890E+04</pdfrwt>
<pdfrwt beam="2">  1       -2 0.17864519E+00 0.10514890E+04</pdfrwt>
<totfact> 0.22296858E+00</totfact>
</mgrwt>
</event>
<event>
 4    1  0.2089815E-007  0.8406219E+03  0.7818608E-02  0.9629009E-01
         -2   -1    0    0    0  501 -0.00000000000E+00  0.00000000000E+00  0.43701647162E+03  0.43701647163E+03  0.25500000000E-02 0.  1.
          2   -1    0    0  501    0  0.00000000000E+00 -0.00000000000E+00 -0.20313721478E+04  0.20313721478E+04  0.25500000000E-02 0. -1.
    8880023    1    1    2    0    0  0.50968460231E+03  0.11426565646E+03 -0.17158705234E+04  0.19107215636E+04  0.65864270000E+03 0.  0.
    8880022    1    1    2    0    0 -0.50968460231E+03 -0.11426565646E+03  0.12151484724E+03  0.55766705586E+03  0.15294330000E+03 0.  0.
<mgrwt>
<rscale>  0 0.75405593E+03</rscale>
<asrwt>0</asrwt>
<pdfrwt beam="1">  1        2 0.31251879E+00 0.84062194E+03</pdfrwt>
<pdfrwt beam="2">  1       -2 0.67233305E-01 0.84062194E+03</pdfrwt>
<totfact> 0.13321618E+01</totfact>
</mgrwt>
</event>
<event>
 4    1  0.2089815E-007  0.1053284E+04  0.7818608E-02  0.9314944E-01
         -2   -1    0    0    0  501 -0.00000000000E+00  0.00000000000E+00  0.69345112054E+03  0.69345112055E+03  0.25500000000E-02 0.  1.
          2   -1    0    0  501    0  0.00000000000E+00 -0.00000000000E+00 -0.19593622567E+04  0.19593622567E+04  0.25500000000E-02 0. -1.
    8880023    1    1    2    0    0 -0.16106120129E+03  0.80601286590E+03 -0.14544313229E+04  0.17957667248E+04  0.65864270000E+03 0.  0.
    8880022    1    1    2    0    0  0.16106120129E+03 -0.80601286590E+03  0.18852018680E+03  0.85704665241E+03  0.15294330000E+03 0.  0.
<mgrwt>
<rscale>  0 0.99418678E+03</rscale>
<asrwt>0</asrwt>
<pdfrwt beam="1">  1        2 0.30144034E+00 0.10532842E+04</pdfrwt>
<pdfrwt beam="2">  1       -2 0.10668479E+00 0.10532842E+04</pdfrwt>
<totfact> 0.49452952E+00</totfact>
</mgrwt>
</event>
<event>
 4    1  0.2089815E-007  0.1219790E+04  0.7818608E-02  0.9138121E-01
          2   -1    0    0  501    0  0.00000000000E+00  0.00000000000E+00  0.36895104321E+04  0.36895104321E+04  0.25500000000E-02 0. -1.
         -2   -1    0    0    0  501 -0.00000000000E+00 -0.00000000000E+00 -0.75881315397E+03  0.75881315398E+03  0.25500000000E-02 0.  1.
    8880023    1    1    2    0    0 -0.30240066741E+03  0.98113735489E+03  0.31582861387E+04  0.33856547688E+04  0.65864270000E+03 0.  0.
    8880022    1    1    2    0    0  0.30240066741E+03 -0.98113735489E+03 -0.22758886062E+03  0.10626688173E+04  0.15294330000E+03 0.  0.
<mgrwt>
<rscale>  0 0.11715593E+04</rscale>
<asrwt>0</asrwt>
<pdfrwt beam="1">  1        2 0.56761701E+00 0.12197897E+04</pdfrwt>
<pdfrwt beam="2">  1       -2 0.11674048E+00 0.12197897E+04</pdfrwt>
<totfact> 0.33760039E-01</totfact>
</mgrwt>
</event>
<event>
 4    1  0.2089815E-007  0.8338755E+03  0.7818608E-02  0.9641838E-01
         -2   -1    0    0    0  501 -0.00000000000E+00  0.00000000000E+00  0.79756654036E+03  0.79756654036E+03  0.25500000000E-02 0.  1.
          2   -1    0    0  501    0  0.00000000000E+00 -0.00000000000E+00 -0.14455227784E+04  0.14455227784E+04  0.25500000000E-02 0. -1.
    8880023    1    1    2    0    0  0.42801548682E+03  0.27989453309E+03 -0.12090022379E+04  0.14686847259E+04  0.65864270000E+03 0. -1.
    8880022    1    1    2    0    0 -0.42801548682E+03 -0.27989453309E+03  0.56104599980E+03  0.77440459290E+03  0.15294330000E+03 0.  0.
<mgrwt>
<rscale>  0 0.74587864E+03</rscale>
<asrwt>0</asrwt>
<pdfrwt beam="1">  1        2 0.22238812E+00 0.83387554E+03</pdfrwt>
<pdfrwt beam="2">  1       -2 0.12270254E+00 0.83387554E+03</pdfrwt>
<totfact> 0.69332362E+00</totfact>
</mgrwt>
</event>
<event>
 4    1  0.3663920E-007  0.6991723E+03  0.7818608E-02  0.1000065E+00
          2   -1    0    0  501    0  0.00000000000E+00  0.00000000000E+00  0.15161720278E+04  0.15161720278E+04  0.25500000000E-02 0. -1.
         -2   -1    0    0    0  501 -0.00000000000E+00 -0.00000000000E+00 -0.24271002038E+04  0.24271002038E+04  0.25500000000E-02 0.  1.
    8880023    1    1    2    0    0  0.18716099305E+03  0.14143024854E+03  0.14267636825E+04  0.15888664401E+04  0.65864270000E+03 0. -1.
    8880022    1    1    2    0    0 -0.18716099305E+03 -0.14143024854E+03 -0.23376918586E+04  0.23544057915E+04  0.15294330000E+03 0.  0.
<mgrwt>
<rscale>  0 0.55621653E+03</rscale>
<asrwt>0</asrwt>
<pdfrwt beam="1">  1        2 0.23325724E+00 0.69917234E+03</pdfrwt>
<pdfrwt beam="2">  1       -2 0.37340003E+00 0.69917234E+03</pdfrwt>
<totfact> 0.14926470E-01</totfact>
</mgrwt>
</event>
<event>
 4    1  0.2089815E-007  0.9114339E+03  0.7818608E-02  0.9507920E-01
          2   -1    0    0  501    0  0.00000000000E+00  0.00000000000E+00  0.66423033385E+03  0.66423033386E+03  0.25500000000E-02 0. -1.
         -2   -1    0    0    0  501 -0.00000000000E+00 -0.00000000000E+00 -0.11762677231E+04  0.11762677231E+04  0.25500000000E-02 0.  1.
    8880023    1    1    2    0    0 -0.60248966170E+03 -0.18414081392E+03  0.13871281321E+03  0.92192900086E+03  0.65864270000E+03 0. -1.
    8880022    1    1    2    0    0  0.60248966170E+03  0.18414081392E+03 -0.65075020244E+03  0.91856905609E+03  0.15294330000E+03 0.  0.
<mgrwt>
<rscale>  0 0.83702409E+03</rscale>
<asrwt>0</asrwt>
<pdfrwt beam="1">  1        2 0.10218928E+00 0.91143395E+03</pdfrwt>
<pdfrwt beam="2">  1       -2 0.18096426E+00 0.91143395E+03</pdfrwt>
<totfact> 0.78229859E+00</totfact>
</mgrwt>
</event>
<event>
 4    1  0.2089815E-007  0.9414222E+03  0.7818608E-02  0.9462565E-01
          2   -1    0    0  501    0  0.00000000000E+00  0.00000000000E+00  0.81047050223E+03  0.81047050224E+03  0.25500000000E-02 0. -1.
         -2   -1    0    0    0  501 -0.00000000000E+00 -0.00000000000E+00 -0.12326318171E+04  0.12326318171E+04  0.25500000000E-02 0.  1.
    8880023    1    1    2    0    0 -0.60838745936E+03  0.28693254334E+03  0.35301596499E+03  0.10054332713E+04  0.65864270000E+03 0. -1.
    8880022    1    1    2    0    0  0.60838745936E+03 -0.28693254334E+03 -0.77517727985E+03  0.10376690481E+04  0.15294330000E+03 0.  0.
<mgrwt>
<rscale>  0 0.87100955E+03</rscale>
<asrwt>0</asrwt>
<pdfrwt beam="1">  1        2 0.12468777E+00 0.94142222E+03</pdfrwt>
<pdfrwt beam="2">  1       -2 0.18963566E+00 0.94142222E+03</pdfrwt>
<totfact> 0.52669499E+00</totfact>
</mgrwt>
</event>
<event>
 4    1  0.2089815E-007  0.9017304E+03  0.7818608E-02  0.9523259E-01
         -2   -1    0    0    0  501 -0.00000000000E+00  0.00000000000E+00  0.44926857541E+03  0.44926857542E+03  0.25500000000E-02 0.  1.
          2   -1    0    0  501    0  0.00000000000E+00 -0.00000000000E+00 -0.15989547836E+04  0.15989547836E+04  0.25500000000E-02 0. -1.
    8880023    1    1    2    0    0 -0.46576615708E+03 -0.40295078668E+03 -0.10843316547E+04  0.14102811044E+04  0.65864270000E+03 0. -1.
    8880022    1    1    2    0    0  0.46576615708E+03  0.40295078668E+03 -0.65354553410E+02  0.63794225463E+03  0.15294330000E+03 0.  0.
<mgrwt>
<rscale>  0 0.82590502E+03</rscale>
<asrwt>0</asrwt>
<pdfrwt beam="1">  1        2 0.24599304E+00 0.90173037E+03</pdfrwt>
<pdfrwt beam="2">  1       -2 0.69118243E-01 0.90173037E+03</pdfrwt>
<totfact> 0.21517905E+01</totfact>
</mgrwt>
</event>
<event>
 4    1  0.2089815E-007  0.6690501E+03  0.7818608E-02  0.1016353E+00
          2   -1    0    0  501    0  0.00000000000E+00  0.00000000000E+00  0.10063520285E+04  0.10063520285E+04  0.25500000000E-02 0. -1.
         -2   -1    0    0    0  501 -0.00000000000E+00 -0.00000000000E+00 -0.21698643304E+03  0.21698643306E+03  0.25500000000E-02 0.  1.
    8880023    1    1    2    0    0  0.45537351415E+02 -0.10837042531E+03  0.78358275900E+03  0.10303542817E+04  0.65864270000E+03 0.  0.
    8880022    1    1    2    0    0 -0.45537351415E+02  0.10837042531E+03  0.57828364868E+01  0.19298417984E+03  0.15294330000E+03 0.  0.
<mgrwt>
<rscale>  0 0.49025906E+03</rscale>
<asrwt>0</asrwt>
<pdfrwt beam="1">  1        2 0.15482339E+00 0.66905008E+03</pdfrwt>
<pdfrwt beam="2">  1       -2 0.33382529E-01 0.66905008E+03</pdfrwt>
<totfact> 0.21230393E+02</totfact>
</mgrwt>
</event>
<event>
 4    1  0.2089815E-007  0.9455673E+03  0.7818608E-02  0.9456521E-01
          2   -1    0    0  501    0  0.00000000000E+00  0.00000000000E+00  0.14744841642E+04  0.14744841642E+04  0.25500000000E-02 0. -1.
         -2   -1    0    0    0  501 -0.00000000000E+00 -0.00000000000E+00 -0.16070594321E+04  0.16070594321E+04  0.25500000000E-02 0.  1.
    8880023    1    1    2    0    0  0.49078229857E+03  0.46842289018E+03  0.12301738869E+04  0.15515879823E+04  0.65864270000E+03 0. -1.
    8880022    1    1    2    0    0 -0.49078229857E+03 -0.46842289018E+03 -0.13627491549E+04  0.15299556140E+04  0.15294330000E+03 0.  0.
<mgrwt>
<rscale>  0 0.87566697E+03</rscale>
<asrwt>0</asrwt>
<pdfrwt beam="1">  1        2 0.22684372E+00 0.94556728E+03</pdfrwt>
<pdfrwt beam="2">  1       -2 0.24723991E+00 0.94556728E+03</pdfrwt>
<totfact> 0.88227420E-01</totfact>
</mgrwt>
</event>
<event>
 4    1  0.2089815E-007  0.6602698E+03  0.7818608E-02  0.1023882E+00
          2   -1    0    0  501    0  0.00000000000E+00  0.00000000000E+00  0.28877380788E+04  0.28877380788E+04  0.25500000000E-02 0. -1.
         -2   -1    0    0    0  501 -0.00000000000E+00 -0.00000000000E+00 -0.65848240992E+02  0.65848241042E+02  0.25500000000E-02 0.  1.
    8880023    1    1    2    0    0 -0.35437611923E+02  0.29836374866E+02  0.25838643315E+04  0.26668916595E+04  0.65864270000E+03 0. -1.
    8880022    1    1    2    0    0  0.35437611923E+02 -0.29836374866E+02  0.23802550628E+03  0.28669466033E+03  0.15294330000E+03 0.  0.
<mgrwt>
<rscale>  0 0.46311493E+03</rscale>
<asrwt>0</asrwt>
<pdfrwt beam="1">  1        2 0.44426727E+00 0.66026982E+03</pdfrwt>
<pdfrwt beam="2">  1       -2 0.10130501E-01 0.66026982E+03</pdfrwt>
<totfact> 0.14601283E+02</totfact>
</mgrwt>
</event>
<event>
 4    1  0.2089815E-007  0.1915382E+04  0.7818608E-02  0.8661261E-01
          2   -1    0    0  501    0  0.00000000000E+00  0.00000000000E+00  0.38830817613E+04  0.38830817613E+04  0.25500000000E-02 0. -1.
         -2   -1    0    0    0  501 -0.00000000000E+00 -0.00000000000E+00 -0.96962357864E+03  0.96962357865E+03  0.25500000000E-02 0.  1.
    8880023    1    1    2    0    0 -0.17382368582E+04 -0.46196399603E+03  0.21863779201E+04  0.29067054761E+04  0.65864270000E+03 0.  0.
    8880022    1    1    2    0    0  0.17382368582E+04  0.46196399603E+03  0.72708026254E+03  0.19459998639E+04  0.15294330000E+03 0.  0.
<mgrwt>
<rscale>  0 0.18871870E+04</rscale>
<asrwt>0</asrwt>
<pdfrwt beam="1">  1        2 0.59739720E+00 0.19153820E+04</pdfrwt>
<pdfrwt beam="2">  1       -2 0.14917286E+00 0.19153820E+04</pdfrwt>
<totfact> 0.11759056E-01</totfact>
</mgrwt>
</event>
<event>
 4    1  0.2089815E-007  0.1005501E+04  0.7818608E-02  0.9374395E-01
         -2   -1    0    0    0  501 -0.00000000000E+00  0.00000000000E+00  0.48808220681E+03  0.48808220681E+03  0.25500000000E-02 0.  1.
          2   -1    0    0  501    0  0.00000000000E+00 -0.00000000000E+00 -0.28278241176E+04  0.28278241176E+04  0.25500000000E-02 0. -1.
    8880023    1    1    2    0    0 -0.27101516468E+03 -0.70976991888E+03 -0.23334692114E+04  0.25408879007E+04  0.65864270000E+03 0. -1.
    8880022    1    1    2    0    0  0.27101516468E+03  0.70976991888E+03 -0.62726993583E+01  0.77501842366E+03  0.15294330000E+03 0.  0.
<mgrwt>
<rscale>  0 0.94213125E+03</rscale>
<asrwt>0</asrwt>
<pdfrwt beam="1">  1        2 0.43504985E+00 0.10055012E+04</pdfrwt>
<pdfrwt beam="2">  1       -2 0.75089572E-01 0.10055012E+04</pdfrwt>
<totfact> 0.36015567E+00</totfact>
</mgrwt>
</event>
<event>
 4    1  0.2089815E-007  0.6706093E+03  0.7818608E-02  0.1015230E+00
         -2   -1    0    0    0  501 -0.00000000000E+00  0.00000000000E+00  0.39568633673E+03  0.39568633674E+03  0.25500000000E-02 0.  1.
          2   -1    0    0  501    0  0.00000000000E+00 -0.00000000000E+00 -0.13214763414E+04  0.13214763414E+04  0.25500000000E-02 0. -1.
    8880023    1    1    2    0    0  0.91300442684E+01 -0.12579081217E+03 -0.12024513640E+04  0.13768101450E+04  0.65864270000E+03 0. -1.
    8880022    1    1    2    0    0 -0.91300442684E+01  0.12579081217E+03  0.27666135931E+03  0.34035253324E+03  0.15294330000E+03 0.  0.
<mgrwt>
<rscale>  0 0.49448028E+03</rscale>
<asrwt>0</asrwt>
<pdfrwt beam="1">  1        2 0.20330405E+00 0.67060934E+03</pdfrwt>
<pdfrwt beam="2">  1       -2 0.60874821E-01 0.67060934E+03</pdfrwt>
<totfact> 0.41495566E+01</totfact>
</mgrwt>
</event>
<event>
 4    1  0.2089815E-007  0.7823463E+03  0.7818608E-02  0.9750354E-01
          2   -1    0    0  501    0  0.00000000000E+00  0.00000000000E+00  0.72925914203E+03  0.72925914203E+03  0.25500000000E-02 0. -1.
         -2   -1    0    0    0  501 -0.00000000000E+00 -0.00000000000E+00 -0.92698950237E+03  0.92698950238E+03  0.25500000000E-02 0.  1.
    8880023    1    1    2    0    0 -0.32886611988E+03 -0.26476905294E+03  0.42357605203E+03  0.88965299658E+03  0.65864270000E+03 0.  0.
    8880022    1    1    2    0    0  0.32886611988E+03  0.26476905294E+03 -0.62130641238E+03  0.76659564783E+03  0.15294330000E+03 0.  0.
<mgrwt>
<rscale>  0 0.68096269E+03</rscale>
<asrwt>0</asrwt>
<pdfrwt beam="1">  1        2 0.11219371E+00 0.78234633E+03</pdfrwt>
<pdfrwt beam="2">  1       -2 0.14261377E+00 0.78234633E+03</pdfrwt>
<totfact> 0.13463817E+01</totfact>
</mgrwt>
</event>
<event>
 4    1  0.2089815E-007  0.1137784E+04  0.7818608E-02  0.9220110E-01
         -2   -1    0    0    0  501 -0.00000000000E+00  0.00000000000E+00  0.82226072794E+03  0.82226072795E+03  0.25500000000E-02 0.  1.
          2   -1    0    0  501    0  0.00000000000E+00 -0.00000000000E+00 -0.33949598690E+04  0.33949598690E+04  0.25500000000E-02 0. -1.
    8880023    1    1    2    0    0  0.85232127967E+03 -0.36645783081E+03 -0.29820196738E+04  0.31917071368E+04  0.65864270000E+03 0.  0.
    8880022    1    1    2    0    0 -0.85232127967E+03  0.36645783081E+03  0.40932053273E+03  0.10255134602E+04  0.15294330000E+03 0.  0.
<mgrwt>
<rscale>  0 0.10848252E+04</rscale>
<asrwt>0</asrwt>
<pdfrwt beam="1">  1        2 0.52230151E+00 0.11377843E+04</pdfrwt>
<pdfrwt beam="2">  1       -2 0.12650165E+00 0.11377843E+04</pdfrwt>
<totfact> 0.44912712E-01</totfact>
</mgrwt>
</event>
<event>
 4    1  0.2089815E-007  0.1932224E+04  0.7818608E-02  0.8652719E-01
         -2   -1    0    0    0  501 -0.00000000000E+00  0.00000000000E+00  0.15964267261E+04  0.15964267261E+04  0.25500000000E-02 0.  1.
          2   -1    0    0  501    0  0.00000000000E+00 -0.00000000000E+00 -0.28481514136E+04  0.28481514136E+04  0.25500000000E-02 0. -1.
    8880023    1    1    2    0    0 -0.17008452960E+04  0.63781208315E+03 -0.16930046174E+04  0.25689986016E+04  0.65864270000E+03 0.  0.
    8880022    1    1    2    0    0  0.17008452960E+04 -0.63781208315E+03  0.44127992997E+03  0.18755795381E+04  0.15294330000E+03 0.  0.
<mgrwt>
<rscale>  0 0.19043007E+04</rscale>
<asrwt>0</asrwt>
<pdfrwt beam="1">  1        2 0.43817714E+00 0.19322239E+04</pdfrwt>
<pdfrwt beam="2">  1       -2 0.24560411E+00 0.19322239E+04</pdfrwt>
<totfact> 0.13229386E-01</totfact>
</mgrwt>
</event>
<event>
 4    1  0.2089815E-007  0.1151890E+04  0.7818608E-02  0.9205370E-01
          2   -1    0    0  501    0  0.00000000000E+00  0.00000000000E+00  0.32100393230E+04  0.32100393230E+04  0.25500000000E-02 0. -1.
         -2   -1    0    0    0  501 -0.00000000000E+00 -0.00000000000E+00 -0.49151002622E+03  0.49151002623E+03  0.25500000000E-02 0.  1.
    8880023    1    1    2    0    0  0.76548448546E+03 -0.55414187606E+03  0.24500298792E+04  0.27073042554E+04  0.65864270000E+03 0. -1.
    8880022    1    1    2    0    0 -0.76548448546E+03  0.55414187606E+03  0.26849941759E+03  0.99424509379E+03  0.15294330000E+03 0.  1.
<mgrwt>
<rscale>  0 0.10998176E+04</rscale>
<asrwt>0</asrwt>
<pdfrwt beam="1">  1        2 0.49385221E+00 0.11518897E+04</pdfrwt>
<pdfrwt beam="2">  1       -2 0.75616925E-01 0.11518897E+04</pdfrwt>
<totfact> 0.20117825E+00</totfact>
</mgrwt>
</event>
<event>
 4    1  0.2089815E-007  0.9153584E+03  0.7818608E-02  0.9501813E-01
         -2   -1    0    0    0  501 -0.00000000000E+00  0.00000000000E+00  0.13778748633E+03  0.13778748636E+03  0.25500000000E-02 0.  1.
          2   -1    0    0  501    0  0.00000000000E+00 -0.00000000000E+00 -0.46131451113E+04  0.46131451113E+04  0.25500000000E-02 0. -1.
    8880023    1    1    2    0    0  0.58460206524E+03  0.24962200324E+03 -0.30152157007E+04  0.31510961025E+04  0.65864270000E+03 0.  0.
    8880022    1    1    2    0    0 -0.58460206524E+03 -0.24962200324E+03 -0.14601419242E+04  0.15998364951E+04  0.15294330000E+03 0.  0.
<mgrwt>
<rscale>  0 0.84150287E+03</rscale>
<asrwt>0</asrwt>
<pdfrwt beam="1">  1        2 0.70971451E+00 0.91535836E+03</pdfrwt>
<pdfrwt beam="2">  1       -2 0.21198078E-01 0.91535836E+03</pdfrwt>
<totfact> 0.20061946E+00</totfact>
</mgrwt>
</event>
<event>
 4    1  0.2089815E-007  0.1475530E+04  0.7818608E-02  0.8927111E-01
         -2   -1    0    0    0  501 -0.00000000000E+00  0.00000000000E+00  0.11064092013E+04  0.11064092013E+04  0.25500000000E-02 0.  1.
          2   -1    0    0  501    0  0.00000000000E+00 -0.00000000000E+00 -0.24203504661E+04  0.24203504661E+04  0.25500000000E-02 0. -1.
    8880023    1    1    2    0    0  0.32656946415E+03 -0.12793481432E+04  0.22574447896E+03  0.14926989189E+04  0.65864270000E+03 0.  1.
    8880022    1    1    2    0    0 -0.32656946415E+03  0.12793481432E+04 -0.15396857438E+04  0.20340607486E+04  0.15294330000E+03 0.  0.
<mgrwt>
<rscale>  0 0.14375025E+04</rscale>
<asrwt>0</asrwt>
<pdfrwt beam="1">  1        2 0.37236161E+00 0.14755302E+04</pdfrwt>
<pdfrwt beam="2">  1       -2 0.17021680E+00 0.14755302E+04</pdfrwt>
<totfact> 0.77630568E-01</totfact>
</mgrwt>
</event>
<event>
 4    1  0.2089815E-007  0.6654602E+03  0.7818608E-02  0.1019150E+00
         -2   -1    0    0    0  501 -0.00000000000E+00  0.00000000000E+00  0.27370825125E+03  0.27370825126E+03  0.25500000000E-02 0.  1.
          2   -1    0    0  501    0  0.00000000000E+00 -0.00000000000E+00 -0.71605397820E+03  0.71605397821E+03  0.25500000000E-02 0. -1.
    8880023    1    1    2    0    0  0.30076949719E+02 -0.90124479747E+02 -0.45981054713E+03  0.80886524853E+03  0.65864270000E+03 0. -1.
    8880022    1    1    2    0    0 -0.30076949719E+02  0.90124479747E+02  0.17464820182E+02  0.18089698094E+03  0.15294330000E+03 0.  0.
<mgrwt>
<rscale>  0 0.47994448E+03</rscale>
<asrwt>0</asrwt>
<pdfrwt beam="1">  1        2 0.11016215E+00 0.66546018E+03</pdfrwt>
<pdfrwt beam="2">  1       -2 0.42108962E-01 0.66546018E+03</pdfrwt>
<totfact> 0.21561368E+02</totfact>
</mgrwt>
</event>
<event>
 4    1  0.2089815E-007  0.7059479E+03  0.7818608E-02  0.9973367E-01
          2   -1    0    0  501    0  0.00000000000E+00  0.00000000000E+00  0.13843381023E+04  0.13843381023E+04  0.25500000000E-02 0. -1.
         -2   -1    0    0    0  501 -0.00000000000E+00 -0.00000000000E+00 -0.28754593194E+03  0.28754593195E+03  0.25500000000E-02 0.  1.
    8880023    1    1    2    0    0  0.16275619073E+03 -0.19509653117E+03  0.11699544385E+04  0.13664391053E+04  0.65864270000E+03 0. -1.
    8880022    1    1    2    0    0 -0.16275619073E+03  0.19509653117E+03 -0.73162268184E+02  0.30544492891E+03  0.15294330000E+03 0.  0.
<mgrwt>
<rscale>  0 0.56833604E+03</rscale>
<asrwt>0</asrwt>
<pdfrwt beam="1">  1        2 0.21297509E+00 0.70594790E+03</pdfrwt>
<pdfrwt beam="2">  1       -2 0.44237837E-01 0.70594790E+03</pdfrwt>
<totfact> 0.73226900E+01</totfact>
</mgrwt>
</event>
<event>
 4    1  0.2089815E-007  0.1599097E+04  0.7818608E-02  0.8842655E-01
          2   -1    0    0  501    0  0.00000000000E+00  0.00000000000E+00  0.13597290134E+04  0.13597290134E+04  0.25500000000E-02 0. -1.
         -2   -1    0    0    0  501 -0.00000000000E+00 -0.00000000000E+00 -0.23937287095E+04  0.23937287095E+04  0.25500000000E-02 0.  1.
    8880023    1    1    2    0    0 -0.11530444010E+04 -0.89094886245E+03  0.45693909286E+03  0.16631009611E+04  0.65864270000E+03 0.  0.
    8880022    1    1    2    0    0  0.11530444010E+04  0.89094886245E+03 -0.14909387889E+04  0.20903567618E+04  0.15294330000E+03 0.  0.
<mgrwt>
<rscale>  0 0.15645065E+04</rscale>
<asrwt>0</asrwt>
<pdfrwt beam="1">  1        2 0.20918908E+00 0.15990971E+04</pdfrwt>
<pdfrwt beam="2">  1       -2 0.36826596E+00 0.15990971E+04</pdfrwt>
<totfact> 0.16973246E-01</totfact>
</mgrwt>
</event>
<event>
 4    1  0.2089815E-007  0.7419543E+03  0.7818608E-02  0.9854290E-01
          2   -1    0    0  501    0  0.00000000000E+00  0.00000000000E+00  0.28180779882E+04  0.28180779882E+04  0.25500000000E-02 0. -1.
         -2   -1    0    0    0  501 -0.00000000000E+00 -0.00000000000E+00 -0.10165997755E+04  0.10165997755E+04  0.25500000000E-02 0.  1.
    8880023    1    1    2    0    0  0.49610181539E+02  0.33797165237E+03  0.27323964786E+04  0.28313400944E+04  0.65864270000E+03 0. -1.
    8880022    1    1    2    0    0 -0.49610181539E+02 -0.33797165237E+03 -0.93091826581E+03  0.10033376693E+04  0.15294330000E+03 0.  0.
<mgrwt>
<rscale>  0 0.62528641E+03</rscale>
<asrwt>0</asrwt>
<pdfrwt beam="1">  1        2 0.43355046E+00 0.74195432E+03</pdfrwt>
<pdfrwt beam="2">  1       -2 0.15639997E+00 0.74195432E+03</pdfrwt>
<totfact> 0.64380300E-01</totfact>
</mgrwt>
</event>
<event>
 4    1  0.2089815E-007  0.9390463E+03  0.7818608E-02  0.9466052E-01
          2   -1    0    0  501    0  0.00000000000E+00  0.00000000000E+00  0.24171717764E+04  0.24171717764E+04  0.25500000000E-02 0. -1.
         -2   -1    0    0    0  501 -0.00000000000E+00 -0.00000000000E+00 -0.27618019577E+03  0.27618019578E+03  0.25500000000E-02 0.  1.
    8880023    1    1    2    0    0 -0.66345228387E+03  0.88480307484E+02  0.13704069826E+04  0.16612715618E+04  0.65864270000E+03 0.  0.
    8880022    1    1    2    0    0  0.66345228387E+03 -0.88480307484E+02  0.77058459803E+03  0.10320804104E+04  0.15294330000E+03 0.  0.
<mgrwt>
<rscale>  0 0.86833582E+03</rscale>
<asrwt>0</asrwt>
<pdfrwt beam="1">  1        2 0.37187258E+00 0.93904627E+03</pdfrwt>
<pdfrwt beam="2">  1       -2 0.42489261E-01 0.93904627E+03</pdfrwt>
<totfact> 0.20765998E+01</totfact>
</mgrwt>
</event>
<event>
 4    1  0.2089815E-007  0.7041887E+03  0.7818608E-02  0.9980249E-01
          2   -1    0    0  501    0  0.00000000000E+00  0.00000000000E+00  0.10742060896E+04  0.10742060896E+04  0.25500000000E-02 0. -1.
         -2   -1    0    0    0  501 -0.00000000000E+00 -0.00000000000E+00 -0.25542659614E+03  0.25542659615E+03  0.25500000000E-02 0.  1.
    8880023    1    1    2    0    0  0.52579516434E+02  0.24353022315E+03  0.75106180911E+03  0.10295511753E+04  0.65864270000E+03 0. -1.
    8880022    1    1    2    0    0 -0.52579516434E+02 -0.24353022315E+03  0.67717684331E+02  0.30008151046E+03  0.15294330000E+03 0.  0.
<mgrwt>
<rscale>  0 0.56524824E+03</rscale>
<asrwt>0</asrwt>
<pdfrwt beam="1">  1        2 0.16526248E+00 0.70418874E+03</pdfrwt>
<pdfrwt beam="2">  1       -2 0.39296399E-01 0.70418874E+03</pdfrwt>
<totfact> 0.14059489E+02</totfact>
</mgrwt>
</event>
<event>
 4    1  0.2089815E-007  0.8654204E+03  0.7818608E-02  0.9583993E-01
          2   -1    0    0  501    0  0.00000000000E+00  0.00000000000E+00  0.63645557073E+03  0.63645557073E+03  0.25500000000E-02 0. -1.
         -2   -1    0    0    0  501 -0.00000000000E+00 -0.00000000000E+00 -0.10004266144E+04  0.10004266144E+04  0.25500000000E-02 0.  1.
    8880023    1    1    2    0    0  0.55943396975E+03  0.46645582588E+02  0.12812134469E+03  0.87485282311E+03  0.65864270000E+03 0.  0.
    8880022    1    1    2    0    0 -0.55943396975E+03 -0.46645582588E+02 -0.49209238835E+03  0.76202936201E+03  0.15294330000E+03 0.  0.
<mgrwt>
<rscale>  0 0.78364720E+03</rscale>
<asrwt>0</asrwt>
<pdfrwt beam="1">  1        2 0.97916241E-01 0.86542035E+03</pdfrwt>
<pdfrwt beam="2">  1       -2 0.15391179E+00 0.86542035E+03</pdfrwt>
<totfact> 0.12961664E+01</totfact>
</mgrwt>
</event>
<event>
 4    1  0.2089815E-007  0.1218367E+04  0.7818608E-02  0.9139472E-01
         -2   -1    0    0    0  501 -0.00000000000E+00  0.00000000000E+00  0.69125830670E+03  0.69125830671E+03  0.25500000000E-02 0.  1.
          2   -1    0    0  501    0  0.00000000000E+00 -0.00000000000E+00 -0.26876567739E+04  0.26876567739E+04  0.25500000000E-02 0. -1.
    8880023    1    1    2    0    0  0.20493249482E+03  0.10042960570E+04 -0.20007994616E+04  0.23425662401E+04  0.65864270000E+03 0.  0.
    8880022    1    1    2    0    0 -0.20493249482E+03 -0.10042960570E+04  0.44009943397E+01  0.10363488406E+04  0.15294330000E+03 0.  0.
<mgrwt>
<rscale>  0 0.11700626E+04</rscale>
<asrwt>0</asrwt>
<pdfrwt beam="1">  1        2 0.41348565E+00 0.12183670E+04</pdfrwt>
<pdfrwt beam="2">  1       -2 0.10634743E+00 0.12183670E+04</pdfrwt>
<totfact> 0.18920140E+00</totfact>
</mgrwt>
</event>
<event>
 4    1  0.2089815E-007  0.7025087E+03  0.7818608E-02  0.9986949E-01
         -2   -1    0    0    0  501 -0.00000000000E+00  0.00000000000E+00  0.53578547034E+03  0.53578547035E+03  0.25500000000E-02 0.  1.
          2   -1    0    0  501    0  0.00000000000E+00 -0.00000000000E+00 -0.10472654035E+04  0.10472654035E+04  0.25500000000E-02 0. -1.
    8880023    1    1    2    0    0 -0.96660170822E+02  0.22442157156E+03 -0.87307215383E+03  0.11206129673E+04  0.65864270000E+03 0. -1.
    8880022    1    1    2    0    0  0.96660170822E+02 -0.22442157156E+03  0.36159222064E+03  0.46243790659E+03  0.15294330000E+03 0.  0.
<mgrwt>
<rscale>  0 0.56226211E+03</rscale>
<asrwt>0</asrwt>
<pdfrwt beam="1">  1        2 0.16111775E+00 0.70250867E+03</pdfrwt>
<pdfrwt beam="2">  1       -2 0.82428534E-01 0.70250867E+03</pdfrwt>
<totfact> 0.31018616E+01</totfact>
</mgrwt>
</event>
<event>
 4    1  0.2089815E-007  0.1475513E+04  0.7818608E-02  0.8927123E-01
         -2   -1    0    0    0  501 -0.00000000000E+00  0.00000000000E+00  0.57999711019E+03  0.57999711020E+03  0.25500000000E-02 0.  1.
          2   -1    0    0  501    0  0.00000000000E+00 -0.00000000000E+00 -0.37418112737E+04  0.37418112737E+04  0.25500000000E-02 0. -1.
    8880023    1    1    2    0    0 -0.13183978233E+04 -0.71804630637E+02 -0.99449643494E+03  0.17793712628E+04  0.65864270000E+03 0.  0.
    8880022    1    1    2    0    0  0.13183978233E+04  0.71804630637E+02 -0.21673177286E+04  0.25424371212E+04  0.15294330000E+03 0.  0.
<mgrwt>
<rscale>  0 0.14374849E+04</rscale>
<asrwt>0</asrwt>
<pdfrwt beam="1">  1        2 0.57566326E+00 0.14755131E+04</pdfrwt>
<pdfrwt beam="2">  1       -2 0.89230327E-01 0.14755131E+04</pdfrwt>
<totfact> 0.56860515E-01</totfact>
</mgrwt>
</event>
<event>
 4    1  0.2089815E-007  0.1761870E+04  0.7818608E-02  0.8743927E-01
          2   -1    0    0  501    0  0.00000000000E+00  0.00000000000E+00  0.22663210333E+04  0.22663210333E+04  0.25500000000E-02 0. -1.
         -2   -1    0    0    0  501 -0.00000000000E+00 -0.00000000000E+00 -0.20545723787E+04  0.20545723787E+04  0.25500000000E-02 0.  1.
    8880023    1    1    2    0    0 -0.16089971577E+04  0.28549042932E+03 -0.12198890371E+04  0.21429689937E+04  0.65864270000E+03 0.  0.
    8880022    1    1    2    0    0  0.16089971577E+04 -0.28549042932E+03  0.14316376917E+04  0.21779244183E+04  0.15294330000E+03 0.  0.
<mgrwt>
<rscale>  0 0.17309139E+04</rscale>
<asrwt>0</asrwt>
<pdfrwt beam="1">  1        2 0.34866477E+00 0.17618703E+04</pdfrwt>
<pdfrwt beam="2">  1       -2 0.31608806E+00 0.17618703E+04</pdfrwt>
<totfact> 0.10904513E-01</totfact>
</mgrwt>
</event>
<event>
 4    1  0.2089815E-007  0.6757635E+03  0.7818608E-02  0.1011829E+00
         -2   -1    0    0    0  501 -0.00000000000E+00  0.00000000000E+00  0.18228959407E+04  0.18228959407E+04  0.25500000000E-02 0.  1.
          2   -1    0    0  501    0  0.00000000000E+00 -0.00000000000E+00 -0.34788456512E+03  0.34788456513E+03  0.25500000000E-02 0. -1.
    8880023    1    1    2    0    0  0.99376679149E+02 -0.11388780418E+03 -0.44460204693E+01  0.67577816601E+03  0.65864270000E+03 0. -1.
    8880022    1    1    2    0    0 -0.99376679149E+02  0.11388780418E+03  0.14794573960E+04  0.14950023398E+04  0.15294330000E+03 0.  0.
<mgrwt>
<rscale>  0 0.50754052E+03</rscale>
<asrwt>0</asrwt>
<pdfrwt beam="1">  1        2 0.53520701E-01 0.67576354E+03</pdfrwt>
<pdfrwt beam="2">  1       -2 0.28044553E+00 0.67576354E+03</pdfrwt>
<totfact> 0.40729081E+00</totfact>
</mgrwt>
</event>
<event>
 4    1  0.2089815E-007  0.9827003E+03  0.7818608E-02  0.9404549E-01
          2   -1    0    0  501    0  0.00000000000E+00  0.00000000000E+00  0.38245848253E+04  0.38245848253E+04  0.25500000000E-02 0. -1.
         -2   -1    0    0    0  501 -0.00000000000E+00 -0.00000000000E+00 -0.28476978781E+03  0.28476978782E+03  0.25500000000E-02 0.  1.
    8880023    1    1    2    0    0  0.33814062370E+03  0.64618160040E+03  0.30817822058E+04  0.32346686866E+04  0.65864270000E+03 0.  1.
    8880022    1    1    2    0    0 -0.33814062370E+03 -0.64618160040E+03  0.45803283173E+03  0.87468592652E+03  0.15294330000E+03 0. -1.
<mgrwt>
<rscale>  0 0.91702245E+03</rscale>
<asrwt>0</asrwt>
<pdfrwt beam="1">  1        2 0.58839762E+00 0.98270033E+03</pdfrwt>
<pdfrwt beam="2">  1       -2 0.43810740E-01 0.98270033E+03</pdfrwt>
<totfact> 0.24429020E+00</totfact>
</mgrwt>
</event>
<event>
 4    1  0.2089815E-007  0.1066047E+04  0.7818608E-02  0.9299835E-01
          2   -1    0    0  501    0  0.00000000000E+00  0.00000000000E+00  0.29551107984E+04  0.29551107984E+04  0.25500000000E-02 0. -1.
         -2   -1    0    0    0  501 -0.00000000000E+00 -0.00000000000E+00 -0.42440130810E+03  0.42440130811E+03  0.25500000000E-02 0.  1.
    8880023    1    1    2    0    0 -0.10721240792E+03  0.83135551215E+03  0.22373548352E+04  0.24783489167E+04  0.65864270000E+03 0.  0.
    8880022    1    1    2    0    0  0.10721240792E+03 -0.83135551215E+03  0.29335465509E+03  0.90116318981E+03  0.15294330000E+03 0.  0.
<mgrwt>
<rscale>  0 0.10079808E+04</rscale>
<asrwt>0</asrwt>
<pdfrwt beam="1">  1        2 0.45463242E+00 0.10660472E+04</pdfrwt>
<pdfrwt beam="2">  1       -2 0.65292510E-01 0.10660472E+04</pdfrwt>
<totfact> 0.40635610E+00</totfact>
</mgrwt>
</event>
<event>
 4    1  0.2089815E-007  0.7267817E+03  0.7818608E-02  0.9900273E-01
          2   -1    0    0  501    0  0.00000000000E+00  0.00000000000E+00  0.12438388449E+04  0.12438388449E+04  0.25500000000E-02 0. -1.
         -2   -1    0    0    0  501 -0.00000000000E+00 -0.00000000000E+00 -0.23644800075E+03  0.23644800076E+03  0.25500000000E-02 0.  1.
    8880023    1    1    2    0    0  0.91692101935E+02 -0.29324723745E+03  0.79276342126E+03  0.10754931112E+04  0.65864270000E+03 0. -1.
    8880022    1    1    2    0    0 -0.91692101935E+02  0.29324723745E+03  0.21462742293E+03  0.40479373453E+03  0.15294330000E+03 0.  1.
<mgrwt>
<rscale>  0 0.60248040E+03</rscale>
<asrwt>0</asrwt>
<pdfrwt beam="1">  1        2 0.19135982E+00 0.72678167E+03</pdfrwt>
<pdfrwt beam="2">  1       -2 0.36376615E-01 0.72678167E+03</pdfrwt>
<totfact> 0.12890492E+02</totfact>
</mgrwt>
</event>
<event>
 4    1  0.2089815E-007  0.9835288E+03  0.7818608E-02  0.9403431E-01
         -2   -1    0    0    0  501 -0.00000000000E+00  0.00000000000E+00  0.79951627067E+03  0.79951627068E+03  0.25500000000E-02 0.  1.
          2   -1    0    0  501    0  0.00000000000E+00 -0.00000000000E+00 -0.15757672673E+04  0.15757672673E+04  0.25500000000E-02 0. -1.
    8880023    1    1    2    0    0  0.41164331327E+03 -0.60338093123E+03  0.33299423205E+03  0.10383709021E+04  0.65864270000E+03 0.  1.
    8880022    1    1    2    0    0 -0.41164331327E+03  0.60338093123E+03 -0.11092452287E+04  0.13369126358E+04  0.15294330000E+03 0.  0.
<mgrwt>
<rscale>  0 0.91793830E+03</rscale>
<asrwt>0</asrwt>
<pdfrwt beam="1">  1        2 0.24242573E+00 0.98352884E+03</pdfrwt>
<pdfrwt beam="2">  1       -2 0.12300250E+00 0.98352884E+03</pdfrwt>
<totfact> 0.57226956E+00</totfact>
</mgrwt>
</event>
<event>
 4    1  0.2089815E-007  0.1147677E+04  0.7818608E-02  0.9209743E-01
         -2   -1    0    0    0  501 -0.00000000000E+00  0.00000000000E+00  0.10167309414E+04  0.10167309414E+04  0.25500000000E-02 0.  1.
          2   -1    0    0  501    0  0.00000000000E+00 -0.00000000000E+00 -0.35280646577E+04  0.35280646577E+04  0.25500000000E-02 0. -1.
    8880023    1    1    2    0    0 -0.93570626753E+03 -0.88345487913E+02 -0.31803156901E+04  0.33810603720E+04  0.65864270000E+03 0.  0.
    8880022    1    1    2    0    0  0.93570626753E+03  0.88345487913E+02  0.66898197386E+03  0.11637352271E+04  0.15294330000E+03 0.  0.
<mgrwt>
<rscale>  0 0.10953430E+04</rscale>
<asrwt>0</asrwt>
<pdfrwt beam="1">  1        2 0.54277917E+00 0.11476765E+04</pdfrwt>
<pdfrwt beam="2">  1       -2 0.15642015E+00 0.11476765E+04</pdfrwt>
<totfact> 0.20886029E-01</totfact>
</mgrwt>
</event>
<event>
 4    1  0.2089815E-007  0.1668526E+04  0.7818608E-02  0.8798977E-01
          2   -1    0    0  501    0  0.00000000000E+00  0.00000000000E+00  0.40977326163E+04  0.40977326163E+04  0.25500000000E-02 0. -1.
         -2   -1    0    0    0  501 -0.00000000000E+00 -0.00000000000E+00 -0.14270204333E+04  0.14270204333E+04  0.25500000000E-02 0.  1.
    8880023    1    1    2    0    0 -0.72494875824E+03  0.13507839431E+04  0.34246824932E+04  0.38095181255E+04  0.65864270000E+03 0.  0.
    8880022    1    1    2    0    0  0.72494875824E+03 -0.13507839431E+04 -0.75397031027E+03  0.17152349241E+04  0.15294330000E+03 0.  0.
<mgrwt>
<rscale>  0 0.16355910E+04</rscale>
<asrwt>0</asrwt>
<pdfrwt beam="1">  1        2 0.63042040E+00 0.16685257E+04</pdfrwt>
<pdfrwt beam="2">  1       -2 0.21954160E+00 0.16685257E+04</pdfrwt>
<totfact> 0.26385248E-02</totfact>
</mgrwt>
</event>
<event>
 4    1  0.2089815E-007  0.8218916E+03  0.7818608E-02  0.9665320E-01
         -2   -1    0    0    0  501 -0.00000000000E+00  0.00000000000E+00  0.33789911545E+03  0.33789911546E+03  0.25500000000E-02 0.  1.
          2   -1    0    0  501    0  0.00000000000E+00 -0.00000000000E+00 -0.28011647988E+04  0.28011647988E+04  0.25500000000E-02 0. -1.
    8880023    1    1    2    0    0 -0.36673013211E+03  0.32742108119E+03 -0.24913626372E+04  0.26234316363E+04  0.65864270000E+03 0. -1.
    8880022    1    1    2    0    0  0.36673013211E+03 -0.32742108119E+03  0.28096953864E+02  0.51563227792E+03  0.15294330000E+03 0.  0.
<mgrwt>
<rscale>  0 0.73119715E+03</rscale>
<asrwt>0</asrwt>
<pdfrwt beam="1">  1        2 0.43094842E+00 0.82189157E+03</pdfrwt>
<pdfrwt beam="2">  1       -2 0.51984481E-01 0.82189157E+03</pdfrwt>
<totfact> 0.84298836E+00</totfact>
</mgrwt>
</event>
<event>
 4    1  0.2089815E-007  0.1405760E+04  0.7818608E-02  0.8979220E-01
         -2   -1    0    0    0  501 -0.00000000000E+00  0.00000000000E+00  0.87462988889E+03  0.87462988889E+03  0.25500000000E-02 0.  1.
          2   -1    0    0  501    0  0.00000000000E+00 -0.00000000000E+00 -0.32943569157E+04  0.32943569157E+04  0.25500000000E-02 0. -1.
    8880023    1    1    2    0    0  0.11581461257E+04 -0.44838484761E+03  0.43200356898E+02  0.14064237971E+04  0.65864270000E+03 0.  0.
    8880022    1    1    2    0    0 -0.11581461257E+04  0.44838484761E+03 -0.24629273837E+04  0.27625630075E+04  0.15294330000E+03 0.  0.
<mgrwt>
<rscale>  0 0.13654427E+04</rscale>
<asrwt>0</asrwt>
<pdfrwt beam="1">  1        2 0.50682413E+00 0.14057602E+04</pdfrwt>
<pdfrwt beam="2">  1       -2 0.13455845E+00 0.14057602E+04</pdfrwt>
<totfact> 0.43093889E-01</totfact>
</mgrwt>
</event>
<event>
 4    1  0.2089815E-007  0.7832340E+03  0.7818608E-02  0.9748294E-01
          2   -1    0    0  501    0  0.00000000000E+00  0.00000000000E+00  0.20347938932E+04  0.20347938932E+04  0.25500000000E-02 0. -1.
         -2   -1    0    0    0  501 -0.00000000000E+00 -0.00000000000E+00 -0.14742268026E+04  0.14742268026E+04  0.25500000000E-02 0.  1.
    8880023    1    1    2    0    0  0.19795198802E+03  0.37478036157E+03  0.19217315091E+04  0.20752126417E+04  0.65864270000E+03 0. -1.
    8880022    1    1    2    0    0 -0.19795198802E+03 -0.37478036157E+03 -0.13611644185E+04  0.14338080542E+04  0.15294330000E+03 0.  0.
<mgrwt>
<rscale>  0 0.68212747E+03</rscale>
<asrwt>0</asrwt>
<pdfrwt beam="1">  1        2 0.31304521E+00 0.78323401E+03</pdfrwt>
<pdfrwt beam="2">  1       -2 0.22680412E+00 0.78323401E+03</pdfrwt>
<totfact> 0.59623728E-01</totfact>
</mgrwt>
</event>
<event>
 4    1  0.2089815E-007  0.7488327E+03  0.7818608E-02  0.9834927E-01
         -2   -1    0    0    0  501 -0.00000000000E+00  0.00000000000E+00  0.30145626303E+03  0.30145626304E+03  0.25500000000E-02 0.  1.
          2   -1    0    0  501    0  0.00000000000E+00 -0.00000000000E+00 -0.18336409405E+04  0.18336409405E+04  0.25500000000E-02 0. -1.
    8880023    1    1    2    0    0 -0.35437958298E+03 -0.36815412050E+02 -0.15760449178E+04  0.17448977198E+04  0.65864270000E+03 0. -1.
    8880022    1    1    2    0    0  0.35437958298E+03  0.36815412050E+02  0.43860240356E+02  0.39019948372E+03  0.15294330000E+03 0.  0.
<mgrwt>
<rscale>  0 0.63521393E+03</rscale>
<asrwt>0</asrwt>
<pdfrwt beam="1">  1        2 0.28209860E+00 0.74883274E+03</pdfrwt>
<pdfrwt beam="2">  1       -2 0.46377888E-01 0.74883274E+03</pdfrwt>
<totfact> 0.37473020E+01</totfact>
</mgrwt>
</event>
<event>
 4    1  0.2089815E-007  0.1196921E+04  0.7818608E-02  0.9160121E-01
         -2   -1    0    0    0  501 -0.00000000000E+00  0.00000000000E+00  0.73545335525E+03  0.73545335525E+03  0.25500000000E-02 0.  1.
          2   -1    0    0  501    0  0.00000000000E+00 -0.00000000000E+00 -0.16794265272E+04  0.16794265272E+04  0.25500000000E-02 0. -1.
    8880023    1    1    2    0    0  0.30518372711E+02 -0.99893827156E+03 -0.64970462051E+03  0.13618866846E+04  0.65864270000E+03 0.  0.
    8880022    1    1    2    0    0 -0.30518372711E+02  0.99893827156E+03 -0.29426855148E+03  0.10529931979E+04  0.15294330000E+03 0.  0.
<mgrwt>
<rscale>  0 0.11474693E+04</rscale>
<asrwt>0</asrwt>
<pdfrwt beam="1">  1        2 0.25837331E+00 0.11969207E+04</pdfrwt>
<pdfrwt beam="2">  1       -2 0.11314667E+00 0.11969207E+04</pdfrwt>
<totfact> 0.60304606E+00</totfact>
</mgrwt>
</event>
<event>
 4    1  0.2089815E-007  0.1068917E+04  0.7818608E-02  0.9296479E-01
          2   -1    0    0  501    0  0.00000000000E+00  0.00000000000E+00  0.14244242907E+04  0.14244242907E+04  0.25500000000E-02 0. -1.
         -2   -1    0    0    0  501 -0.00000000000E+00 -0.00000000000E+00 -0.90471785106E+03  0.90471785106E+03  0.25500000000E-02 0.  1.
    8880023    1    1    2    0    0 -0.16568310057E+03  0.82542276076E+03  0.89563032620E+03  0.13945384582E+04  0.65864270000E+03 0.  0.
    8880022    1    1    2    0    0  0.16568310057E+03 -0.82542276076E+03 -0.37592388661E+03  0.93460368356E+03  0.15294330000E+03 0.  0.
<mgrwt>
<rscale>  0 0.10110769E+04</rscale>
<asrwt>0</asrwt>
<pdfrwt beam="1">  1        2 0.21914220E+00 0.10689171E+04</pdfrwt>
<pdfrwt beam="2">  1       -2 0.13918736E+00 0.10689171E+04</pdfrwt>
<totfact> 0.50346858E+00</totfact>
</mgrwt>
</event>
<event>
 4    1  0.2089815E-007  0.7591427E+03  0.7818608E-02  0.9807332E-01
          2   -1    0    0  501    0  0.00000000000E+00  0.00000000000E+00  0.18220495775E+04  0.18220495775E+04  0.25500000000E-02 0. -1.
         -2   -1    0    0    0  501 -0.00000000000E+00 -0.00000000000E+00 -0.65393350653E+03  0.65393350654E+03  0.25500000000E-02 0.  1.
    8880023    1    1    2    0    0 -0.26521975552E+03  0.26859999107E+03  0.16671449724E+04  0.18318488036E+04  0.65864270000E+03 0. -1.
    8880022    1    1    2    0    0  0.26521975552E+03 -0.26859999107E+03 -0.49902890137E+03  0.64413428052E+03  0.15294330000E+03 0.  1.
<mgrwt>
<rscale>  0 0.64970550E+03</rscale>
<asrwt>0</asrwt>
<pdfrwt beam="1">  1        2 0.28031532E+00 0.75914273E+03</pdfrwt>
<pdfrwt beam="2">  1       -2 0.10060515E+00 0.75914273E+03</pdfrwt>
<totfact> 0.70366595E+00</totfact>
</mgrwt>
</event>
<event>
 4    1  0.2089815E-007  0.1173948E+04  0.7818608E-02  0.9182873E-01
          2   -1    0    0  501    0  0.00000000000E+00  0.00000000000E+00  0.19074369271E+04  0.19074369271E+04  0.25500000000E-02 0. -1.
         -2   -1    0    0    0  501 -0.00000000000E+00 -0.00000000000E+00 -0.12064253324E+04  0.12064253324E+04  0.25500000000E-02 0.  1.
    8880023    1    1    2    0    0  0.40183005222E+02  0.97094179451E+03  0.14585120386E+04  0.18722740759E+04  0.65864270000E+03 0. -1.
    8880022    1    1    2    0    0 -0.40183005222E+02 -0.97094179451E+03 -0.75750044394E+03  0.12415881837E+04  0.15294330000E+03 0.  0.
<mgrwt>
<rscale>  0 0.11231973E+04</rscale>
<asrwt>0</asrwt>
<pdfrwt beam="1">  1        2 0.29345183E+00 0.11739475E+04</pdfrwt>
<pdfrwt beam="2">  1       -2 0.18560390E+00 0.11739475E+04</pdfrwt>
<totfact> 0.12160930E+00</totfact>
</mgrwt>
</event>
<event>
 4    1  0.2089815E-007  0.8278291E+03  0.7818608E-02  0.9653571E-01
          2   -1    0    0  501    0  0.00000000000E+00  0.00000000000E+00  0.17481695472E+04  0.17481695472E+04  0.25500000000E-02 0. -1.
         -2   -1    0    0    0  501 -0.00000000000E+00 -0.00000000000E+00 -0.32511557227E+03  0.32511557228E+03  0.25500000000E-02 0.  1.
    8880023    1    1    2    0    0 -0.40718053821E+03 -0.29273682869E+03  0.12893234347E+04  0.15322062417E+04  0.65864270000E+03 0.  0.
    8880022    1    1    2    0    0  0.40718053821E+03  0.29273682869E+03  0.13373054022E+03  0.54107887777E+03  0.15294330000E+03 0.  0.
<mgrwt>
<rscale>  0 0.73849729E+03</rscale>
<asrwt>0</asrwt>
<pdfrwt beam="1">  1        2 0.26894916E+00 0.82782912E+03</pdfrwt>
<pdfrwt beam="2">  1       -2 0.50017781E-01 0.82782912E+03</pdfrwt>
<totfact> 0.35494511E+01</totfact>
</mgrwt>
</event>
<event>
 4    1  0.2089815E-007  0.6866161E+03  0.7818608E-02  0.1005804E+00
         -2   -1    0    0    0  501 -0.00000000000E+00  0.00000000000E+00  0.84153646418E+03  0.84153646418E+03  0.25500000000E-02 0.  1.
          2   -1    0    0  501    0  0.00000000000E+00 -0.00000000000E+00 -0.13729468466E+04  0.13729468466E+04  0.25500000000E-02 0. -1.
    8880023    1    1    2    0    0  0.17980655965E+03  0.72808486844E+02 -0.12655964978E+04  0.14398528314E+04  0.65864270000E+03 0. -1.
    8880022    1    1    2    0    0 -0.17980655965E+03 -0.72808486844E+02  0.73418611534E+03  0.77463047940E+03  0.15294330000E+03 0.  0.
<mgrwt>
<rscale>  0 0.53176812E+03</rscale>
<asrwt>0</asrwt>
<pdfrwt beam="1">  1        2 0.21122259E+00 0.68661611E+03</pdfrwt>
<pdfrwt beam="2">  1       -2 0.12946715E+00 0.68661611E+03</pdfrwt>
<totfact> 0.67963424E+00</totfact>
</mgrwt>
</event>
<event>
 4    1  0.2089815E-007  0.7075982E+03  0.7818608E-02  0.9967030E-01
         -2   -1    0    0    0  501 -0.00000000000E+00  0.00000000000E+00  0.10936080647E+04  0.10936080647E+04  0.25500000000E-02 0.  1.
          2   -1    0    0  501    0  0.00000000000E+00 -0.00000000000E+00 -0.67950923734E+03  0.67950923734E+03  0.25500000000E-02 0. -1.
    8880023    1    1    2    0    0 -0.20994654751E+03  0.15102119149E+03 -0.46324625567E+03  0.84574952128E+03  0.65864270000E+03 0. -1.
    8880022    1    1    2    0    0  0.20994654751E+03 -0.15102119149E+03  0.87734508306E+03  0.92736778081E+03  0.15294330000E+03 0.  0.
<mgrwt>
<rscale>  0 0.57119832E+03</rscale>
<asrwt>0</asrwt>
<pdfrwt beam="1">  1        2 0.10453988E+00 0.70759816E+03</pdfrwt>
<pdfrwt beam="2">  1       -2 0.16824739E+00 0.70759816E+03</pdfrwt>
<totfact> 0.95332920E+00</totfact>
</mgrwt>
</event>
<event>
 4    1  0.2089815E-007  0.7300046E+03  0.7818608E-02  0.9890082E-01
          2   -1    0    0  501    0  0.00000000000E+00  0.00000000000E+00  0.52531857665E+03  0.52531857665E+03  0.25500000000E-02 0. -1.
         -2   -1    0    0    0  501 -0.00000000000E+00 -0.00000000000E+00 -0.64692502473E+03  0.64692502473E+03  0.25500000000E-02 0.  1.
    8880023    1    1    2    0    0  0.18746636091E+03 -0.25288904894E+03  0.12962536781E+03  0.74142393392E+03  0.65864270000E+03 0.  0.
    8880022    1    1    2    0    0 -0.18746636091E+03  0.25288904894E+03 -0.25123181589E+03  0.43081966747E+03  0.15294330000E+03 0.  0.
<mgrwt>
<rscale>  0 0.60744360E+03</rscale>
<asrwt>0</asrwt>
<pdfrwt beam="1">  1        2 0.80818243E-01 0.73000460E+03</pdfrwt>
<pdfrwt beam="2">  1       -2 0.99526927E-01 0.73000460E+03</pdfrwt>
<totfact> 0.49194528E+01</totfact>
</mgrwt>
</event>
<event>
 4    1  0.2089815E-007  0.1199477E+04  0.7818608E-02  0.9157631E-01
          2   -1    0    0  501    0  0.00000000000E+00  0.00000000000E+00  0.12299733655E+04  0.12299733655E+04  0.25500000000E-02 0. -1.
         -2   -1    0    0    0  501 -0.00000000000E+00 -0.00000000000E+00 -0.11866024961E+04  0.11866024961E+04  0.25500000000E-02 0.  1.
    8880023    1    1    2    0    0  0.99899185750E+03 -0.83365136019E+02  0.50616178896E+03  0.13019003188E+04  0.65864270000E+03 0.  0.
    8880022    1    1    2    0    0 -0.99899185750E+03  0.83365136019E+02 -0.46279091956E+03  0.11146755427E+04  0.15294330000E+03 0.  0.
<mgrwt>
<rscale>  0 0.11501653E+04</rscale>
<asrwt>0</asrwt>
<pdfrwt beam="1">  1        2 0.18922667E+00 0.11994768E+04</pdfrwt>
<pdfrwt beam="2">  1       -2 0.18255423E+00 0.11994768E+04</pdfrwt>
<totfact> 0.30740820E+00</totfact>
</mgrwt>
</event>
<event>
 4    1  0.2089815E-007  0.1024717E+04  0.7818608E-02  0.9349911E-01
         -2   -1    0    0    0  501 -0.00000000000E+00  0.00000000000E+00  0.46925576244E+03  0.46925576245E+03  0.25500000000E-02 0.  1.
          2   -1    0    0  501    0  0.00000000000E+00 -0.00000000000E+00 -0.20820216668E+04  0.20820216668E+04  0.25500000000E-02 0. -1.
    8880023    1    1    2    0    0  0.70653166999E+03  0.34212279699E+03 -0.13789993547E+04  0.17180466919E+04  0.65864270000E+03 0.  1.
    8880022    1    1    2    0    0 -0.70653166999E+03 -0.34212279699E+03 -0.23376654964E+03  0.83323073735E+03  0.15294330000E+03 0.  0.
<mgrwt>
<rscale>  0 0.96314976E+03</rscale>
<asrwt>0</asrwt>
<pdfrwt beam="1">  1        2 0.32031102E+00 0.10247171E+04</pdfrwt>
<pdfrwt beam="2">  1       -2 0.72193195E-01 0.10247171E+04</pdfrwt>
<totfact> 0.10458768E+01</totfact>
</mgrwt>
</event>
<event>
 4    1  0.2089815E-007  0.6589591E+03  0.7818608E-02  0.1025249E+00
         -2   -1    0    0    0  501 -0.00000000000E+00  0.00000000000E+00  0.17840082678E+03  0.17840082680E+03  0.25500000000E-02 0.  1.
          2   -1    0    0  501    0  0.00000000000E+00 -0.00000000000E+00 -0.16826978335E+04  0.16826978335E+04  0.25500000000E-02 0. -1.
    8880023    1    1    2    0    0 -0.19099434679E+02 -0.72163353148E+01 -0.15628270024E+04  0.16960705497E+04  0.65864270000E+03 0. -1.
    8880022    1    1    2    0    0  0.19099434679E+02  0.72163353148E+01  0.58529995630E+02  0.16502811065E+03  0.15294330000E+03 0.  0.
<mgrwt>
<rscale>  0 0.45839026E+03</rscale>
<asrwt>0</asrwt>
<pdfrwt beam="1">  1        2 0.25887658E+00 0.65895908E+03</pdfrwt>
<pdfrwt beam="2">  1       -2 0.27446282E-01 0.65895908E+03</pdfrwt>
<totfact> 0.12469043E+02</totfact>
</mgrwt>
</event>
<event>
 4    1  0.2089815E-007  0.9439960E+03  0.7818608E-02  0.9458806E-01
          2   -1    0    0  501    0  0.00000000000E+00  0.00000000000E+00  0.11009601128E+04  0.11009601128E+04  0.25500000000E-02 0. -1.
         -2   -1    0    0    0  501 -0.00000000000E+00 -0.00000000000E+00 -0.14162957711E+04  0.14162957711E+04  0.25500000000E-02 0.  1.
    8880023    1    1    2    0    0  0.58904118838E+03  0.33218772878E+03  0.77755180549E+03  0.12229943684E+04  0.65864270000E+03 0. -1.
    8880022    1    1    2    0    0 -0.58904118838E+03 -0.33218772878E+03 -0.10928874638E+04  0.12942615154E+04  0.15294330000E+03 0.  0.
<mgrwt>
<rscale>  0 0.87390251E+03</rscale>
<asrwt>0</asrwt>
<pdfrwt beam="1">  1        2 0.16937848E+00 0.94399598E+03</pdfrwt>
<pdfrwt beam="2">  1       -2 0.21789166E+00 0.94399598E+03</pdfrwt>
<totfact> 0.22184355E+00</totfact>
</mgrwt>
</event>
<event>
 4    1  0.2089815E-007  0.7384651E+03  0.7818608E-02  0.9864441E-01
          2   -1    0    0  501    0  0.00000000000E+00  0.00000000000E+00  0.48664516422E+03  0.48664516423E+03  0.25500000000E-02 0. -1.
         -2   -1    0    0    0  501 -0.00000000000E+00 -0.00000000000E+00 -0.71055191505E+03  0.71055191505E+03  0.25500000000E-02 0.  1.
    8880023    1    1    2    0    0  0.29343193800E+03 -0.15943090155E+03  0.48268857077E+02  0.74004094713E+03  0.65864270000E+03 0.  0.
    8880022    1    1    2    0    0 -0.29343193800E+03  0.15943090155E+03 -0.27217560790E+03  0.45715613215E+03  0.15294330000E+03 0.  0.
<mgrwt>
<rscale>  0 0.62016018E+03</rscale>
<asrwt>0</asrwt>
<pdfrwt beam="1">  1        2 0.74868487E-01 0.73846511E+03</pdfrwt>
<pdfrwt beam="2">  1       -2 0.10931568E+00 0.73846511E+03</pdfrwt>
<totfact> 0.42923957E+01</totfact>
</mgrwt>
</event>
<event>
 4    1  0.2089815E-007  0.7888148E+03  0.7818608E-02  0.9735524E-01
          2   -1    0    0  501    0  0.00000000000E+00  0.00000000000E+00  0.24588785092E+04  0.24588785092E+04  0.25500000000E-02 0. -1.
         -2   -1    0    0    0  501 -0.00000000000E+00 -0.00000000000E+00 -0.21755361084E+03  0.21755361086E+03  0.25500000000E-02 0.  1.
    8880023    1    1    2    0    0  0.14007970598E+02 -0.43384598931E+03  0.20143188761E+04  0.21632635777E+04  0.65864270000E+03 0.  0.
    8880022    1    1    2    0    0 -0.14007970598E+02  0.43384598931E+03  0.22700602219E+03  0.51316854230E+03  0.15294330000E+03 0.  0.
<mgrwt>
<rscale>  0 0.68940535E+03</rscale>
<asrwt>0</asrwt>
<pdfrwt beam="1">  1        2 0.37828901E+00 0.78881479E+03</pdfrwt>
<pdfrwt beam="2">  1       -2 0.33469786E-01 0.78881479E+03</pdfrwt>
<totfact> 0.31798535E+01</totfact>
</mgrwt>
</event>
<event>
 4    1  0.2089815E-007  0.8064138E+03  0.7818608E-02  0.9697096E-01
         -2   -1    0    0    0  501 -0.00000000000E+00  0.00000000000E+00  0.51329274972E+03  0.51329274972E+03  0.25500000000E-02 0.  1.
          2   -1    0    0  501    0  0.00000000000E+00 -0.00000000000E+00 -0.16338237522E+04  0.16338237522E+04  0.25500000000E-02 0. -1.
    8880023    1    1    2    0    0 -0.33259745784E+03  0.32537969143E+03 -0.13758655976E+04  0.15947756461E+04  0.65864270000E+03 0. -1.
    8880022    1    1    2    0    0  0.33259745784E+03 -0.32537969143E+03  0.25533459509E+03  0.55234085583E+03  0.15294330000E+03 0.  0.
<mgrwt>
<rscale>  0 0.71189964E+03</rscale>
<asrwt>0</asrwt>
<pdfrwt beam="1">  1        2 0.25135750E+00 0.80641380E+03</pdfrwt>
<pdfrwt beam="2">  1       -2 0.78968116E-01 0.80641380E+03</pdfrwt>
<totfact> 0.15491613E+01</totfact>
</mgrwt>
</event>
<event>
 4    1  0.2089815E-007  0.1061194E+04  0.7818608E-02  0.9305544E-01
          2   -1    0    0  501    0  0.00000000000E+00  0.00000000000E+00  0.18984183136E+04  0.18984183136E+04  0.25500000000E-02 0. -1.
         -2   -1    0    0    0  501 -0.00000000000E+00 -0.00000000000E+00 -0.69376858514E+03  0.69376858515E+03  0.25500000000E-02 0.  1.
    8880023    1    1    2    0    0 -0.18448278528E+03  0.81134974351E+03  0.13672001785E+04  0.17307133901E+04  0.65864270000E+03 0.  0.
    8880022    1    1    2    0    0  0.18448278528E+03 -0.81134974351E+03 -0.16255044999E+03  0.86147350868E+03  0.15294330000E+03 0.  0.
<mgrwt>
<rscale>  0 0.10027404E+04</rscale>
<asrwt>0</asrwt>
<pdfrwt beam="1">  1        2 0.29206435E+00 0.10611939E+04</pdfrwt>
<pdfrwt beam="2">  1       -2 0.10673363E+00 0.10611939E+04</pdfrwt>
<totfact> 0.53323318E+00</totfact>
</mgrwt>
</event>
<event>
 4    1  0.2089815E-007  0.8817779E+03  0.7818608E-02  0.9555941E-01
          2   -1    0    0  501    0  0.00000000000E+00  0.00000000000E+00  0.18293958668E+04  0.18293958668E+04  0.25500000000E-02 0. -1.
         -2   -1    0    0    0  501 -0.00000000000E+00 -0.00000000000E+00 -0.34415638583E+03  0.34415638584E+03  0.25500000000E-02 0.  1.
    8880023    1    1    2    0    0  0.55218873588E+03  0.19700156308E+03  0.12362188401E+04  0.15184759606E+04  0.65864270000E+03 0. -1.
    8880022    1    1    2    0    0 -0.55218873588E+03 -0.19700156308E+03  0.24902064091E+03  0.65507629212E+03  0.15294330000E+03 0.  0.
<mgrwt>
<rscale>  0 0.80282237E+03</rscale>
<asrwt>0</asrwt>
<pdfrwt beam="1">  1        2 0.28144552E+00 0.88177788E+03</pdfrwt>
<pdfrwt beam="2">  1       -2 0.52947135E-01 0.88177788E+03</pdfrwt>
<totfact> 0.28342164E+01</totfact>
</mgrwt>
</event>
<event>
 4    1  0.2089815E-007  0.8290059E+03  0.7818608E-02  0.9651270E-01
          2   -1    0    0  501    0  0.00000000000E+00  0.00000000000E+00  0.16596574952E+04  0.16596574952E+04  0.25500000000E-02 0. -1.
         -2   -1    0    0    0  501 -0.00000000000E+00 -0.00000000000E+00 -0.62712937657E+03  0.62712937657E+03  0.25500000000E-02 0.  1.
    8880023    1    1    2    0    0 -0.19769585717E+03  0.46298691332E+03  0.14124818821E+04  0.16377899155E+04  0.65864270000E+03 0.  0.
    8880022    1    1    2    0    0  0.19769585717E+03 -0.46298691332E+03 -0.37995376346E+03  0.64899695626E+03  0.15294330000E+03 0.  0.
<mgrwt>
<rscale>  0 0.73993791E+03</rscale>
<asrwt>0</asrwt>
<pdfrwt beam="1">  1        2 0.25533192E+00 0.82900587E+03</pdfrwt>
<pdfrwt beam="2">  1       -2 0.96481442E-01 0.82900587E+03</pdfrwt>
<totfact> 0.94401702E+00</totfact>
</mgrwt>
</event>
<event>
 4    1  0.2089815E-007  0.1022373E+04  0.7818608E-02  0.9352855E-01
         -2   -1    0    0    0  501 -0.00000000000E+00  0.00000000000E+00  0.65338711125E+03  0.65338711125E+03  0.25500000000E-02 0.  1.
          2   -1    0    0  501    0  0.00000000000E+00 -0.00000000000E+00 -0.17078172867E+04  0.17078172867E+04  0.25500000000E-02 0. -1.
    8880023    1    1    2    0    0  0.61815585023E+03  0.47887374357E+03 -0.11726183611E+04  0.15557251507E+04  0.65864270000E+03 0. -1.
    8880022    1    1    2    0    0 -0.61815585023E+03 -0.47887374357E+03  0.11818818569E+03  0.80547924722E+03  0.15294330000E+03 0.  0.
<mgrwt>
<rscale>  0 0.96059236E+03</rscale>
<asrwt>0</asrwt>
<pdfrwt beam="1">  1        2 0.26274112E+00 0.10223732E+04</pdfrwt>
<pdfrwt beam="2">  1       -2 0.10052109E+00 0.10223732E+04</pdfrwt>
<totfact> 0.78795759E+00</totfact>
</mgrwt>
</event>
<event>
 4    1  0.2089815E-007  0.7808745E+03  0.7818608E-02  0.9753787E-01
          2   -1    0    0  501    0  0.00000000000E+00  0.00000000000E+00  0.28120726591E+04  0.28120726591E+04  0.25500000000E-02 0. -1.
         -2   -1    0    0    0  501 -0.00000000000E+00 -0.00000000000E+00 -0.87646360680E+03  0.87646360680E+03  0.25500000000E-02 0.  1.
    8880023    1    1    2    0    0  0.40408062092E+03  0.11257706014E+03  0.26959691619E+04  0.28067801251E+04  0.65864270000E+03 0. -1.
    8880022    1    1    2    0    0 -0.40408062092E+03 -0.11257706014E+03 -0.76036010954E+03  0.88175614082E+03  0.15294330000E+03 0.  0.
<mgrwt>
<rscale>  0 0.67902688E+03</rscale>
<asrwt>0</asrwt>
<pdfrwt beam="1">  1        2 0.43262657E+00 0.78087448E+03</pdfrwt>
<pdfrwt beam="2">  1       -2 0.13484055E+00 0.78087448E+03</pdfrwt>
<totfact> 0.94915937E-01</totfact>
</mgrwt>
</event>
<event>
 4    1  0.2089815E-007  0.9486343E+03  0.7818608E-02  0.9452082E-01
         -2   -1    0    0    0  501 -0.00000000000E+00  0.00000000000E+00  0.85478288344E+03  0.85478288344E+03  0.25500000000E-02 0.  1.
          2   -1    0    0  501    0  0.00000000000E+00 -0.00000000000E+00 -0.15092591777E+04  0.15092591777E+04  0.25500000000E-02 0. -1.
    8880023    1    1    2    0    0  0.66944551089E+03  0.13393838312E+03 -0.11617505652E+04  0.14998571147E+04  0.65864270000E+03 0. -1.
    8880022    1    1    2    0    0 -0.66944551089E+03 -0.13393838312E+03  0.50727427100E+03  0.86418494638E+03  0.15294330000E+03 0.  0.
<mgrwt>
<rscale>  0 0.87910736E+03</rscale>
<asrwt>0</asrwt>
<pdfrwt beam="1">  1        2 0.23219372E+00 0.94863428E+03</pdfrwt>
<pdfrwt beam="2">  1       -2 0.13150506E+00 0.94863428E+03</pdfrwt>
<totfact> 0.52861985E+00</totfact>
</mgrwt>
</event>
<event>
 4    1  0.2089815E-007  0.8533488E+03  0.7818608E-02  0.9605506E-01
         -2   -1    0    0    0  501 -0.00000000000E+00  0.00000000000E+00  0.44337364838E+03  0.44337364839E+03  0.25500000000E-02 0.  1.
          2   -1    0    0  501    0  0.00000000000E+00 -0.00000000000E+00 -0.17895004882E+04  0.17895004882E+04  0.25500000000E-02 0. -1.
    8880023    1    1    2    0    0 -0.35151194241E+03  0.41331994095E+03 -0.14276885692E+04  0.16632795544E+04  0.65864270000E+03 0.  0.
    8880022    1    1    2    0    0  0.35151194241E+03 -0.41331994095E+03  0.81561729446E+02  0.56959458211E+03  0.15294330000E+03 0.  0.
<mgrwt>
<rscale>  0 0.76932835E+03</rscale>
<asrwt>0</asrwt>
<pdfrwt beam="1">  1        2 0.27530776E+00 0.85334883E+03</pdfrwt>
<pdfrwt beam="2">  1       -2 0.68211332E-01 0.85334883E+03</pdfrwt>
<totfact> 0.17485094E+01</totfact>
</mgrwt>
</event>
<event>
 4    1  0.2089815E-007  0.1570248E+04  0.7818608E-02  0.8861561E-01
         -2   -1    0    0    0  501 -0.00000000000E+00  0.00000000000E+00  0.21572525357E+04  0.21572525357E+04  0.25500000000E-02 0.  1.
          2   -1    0    0  501    0  0.00000000000E+00 -0.00000000000E+00 -0.27619620488E+04  0.27619620488E+04  0.25500000000E-02 0. -1.
    8880023    1    1    2    0    0 -0.13210171591E+04 -0.53551978561E+03 -0.22456818676E+04  0.27402125889E+04  0.65864270000E+03 0.  0.
    8880022    1    1    2    0    0  0.13210171591E+04  0.53551978561E+03  0.16409723546E+04  0.21790019956E+04  0.15294330000E+03 0.  0.
<mgrwt>
<rscale>  0 0.15349155E+04</rscale>
<asrwt>0</asrwt>
<pdfrwt beam="1">  1        2 0.42491724E+00 0.15702477E+04</pdfrwt>
<pdfrwt beam="2">  1       -2 0.33188500E+00 0.15702477E+04</pdfrwt>
<totfact> 0.45860204E-02</totfact>
</mgrwt>
</event>
<event>
 4    1  0.2089815E-007  0.1343022E+04  0.7818608E-02  0.9029271E-01
         -2   -1    0    0    0  501 -0.00000000000E+00  0.00000000000E+00  0.84208012299E+03  0.84208012299E+03  0.25500000000E-02 0.  1.
          2   -1    0    0  501    0  0.00000000000E+00 -0.00000000000E+00 -0.22194698625E+04  0.22194698625E+04  0.25500000000E-02 0. -1.
    8880023    1    1    2    0    0 -0.15862147916E+03  0.11596278204E+04 -0.13148699907E+04  0.18795187560E+04  0.65864270000E+03 0.  0.
    8880022    1    1    2    0    0  0.15862147916E+03 -0.11596278204E+04 -0.62519748859E+02  0.11820312295E+04  0.15294330000E+03 0.  0.
<mgrwt>
<rscale>  0 0.13003716E+04</rscale>
<asrwt>0</asrwt>
<pdfrwt beam="1">  1        2 0.34145690E+00 0.13430218E+04</pdfrwt>
<pdfrwt beam="2">  1       -2 0.12955079E+00 0.13430218E+04</pdfrwt>
<totfact> 0.21219553E+00</totfact>
</mgrwt>
</event>
<event>
 4    1  0.2089815E-007  0.6719593E+03  0.7818608E-02  0.1014296E+00
         -2   -1    0    0    0  501 -0.00000000000E+00  0.00000000000E+00  0.10086293135E+04  0.10086293135E+04  0.25500000000E-02 0.  1.
          2   -1    0    0  501    0  0.00000000000E+00 -0.00000000000E+00 -0.12809286400E+04  0.12809286400E+04  0.25500000000E-02 0. -1.
    8880023    1    1    2    0    0 -0.11134186494E+03 -0.72952626331E+02 -0.11808529960E+04  0.13586548866E+04  0.65864270000E+03 0. -1.
    8880022    1    1    2    0    0  0.11134186494E+03  0.72952626331E+02  0.90855366948E+03  0.93090306688E+03  0.15294330000E+03 0.  0.
<mgrwt>
<rscale>  0 0.49802558E+03</rscale>
<asrwt>0</asrwt>
<pdfrwt beam="1">  1        2 0.19706595E+00 0.67195930E+03</pdfrwt>
<pdfrwt beam="2">  1       -2 0.15517374E+00 0.67195930E+03</pdfrwt>
<totfact> 0.48067932E+00</totfact>
</mgrwt>
</event>
<event>
 4    1  0.2089815E-007  0.1048275E+04  0.7818608E-02  0.9320958E-01
         -2   -1    0    0    0  501 -0.00000000000E+00  0.00000000000E+00  0.68352336252E+03  0.68352336253E+03  0.25500000000E-02 0.  1.
          2   -1    0    0  501    0  0.00000000000E+00 -0.00000000000E+00 -0.14119033947E+04  0.14119033948E+04  0.25500000000E-02 0. -1.
    8880023    1    1    2    0    0  0.15512629485E+02  0.81537084777E+03 -0.70888127711E+03  0.12654616282E+04  0.65864270000E+03 0.  0.
    8880022    1    1    2    0    0 -0.15512629485E+02 -0.81537084777E+03 -0.19498755113E+02  0.82996512911E+03  0.15294330000E+03 0.  0.
<mgrwt>
<rscale>  0 0.98876119E+03</rscale>
<asrwt>0</asrwt>
<pdfrwt beam="1">  1        2 0.21721591E+00 0.10482750E+04</pdfrwt>
<pdfrwt beam="2">  1       -2 0.10515744E+00 0.10482750E+04</pdfrwt>
<totfact> 0.10329117E+01</totfact>
</mgrwt>
</event>
<event>
 4    1  0.2089815E-007  0.7233908E+03  0.7818608E-02  0.9911275E-01
         -2   -1    0    0    0  501 -0.00000000000E+00  0.00000000000E+00  0.60033884209E+03  0.60033884210E+03  0.25500000000E-02 0.  1.
          2   -1    0    0  501    0  0.00000000000E+00 -0.00000000000E+00 -0.15538923051E+04  0.15538923051E+04  0.25500000000E-02 0. -1.
    8880023    1    1    2    0    0 -0.22785255256E+03 -0.19382282456E+03 -0.14116106768E+04  0.15861711705E+04  0.65864270000E+03 0. -1.
    8880022    1    1    2    0    0  0.22785255256E+03  0.19382282456E+03  0.45805721378E+03  0.56805997671E+03  0.15294330000E+03 0.  0.
<mgrwt>
<rscale>  0 0.59717940E+03</rscale>
<asrwt>0</asrwt>
<pdfrwt beam="1">  1        2 0.23906035E+00 0.72339082E+03</pdfrwt>
<pdfrwt beam="2">  1       -2 0.92359822E-01 0.72339082E+03</pdfrwt>
<totfact> 0.12124888E+01</totfact>
</mgrwt>
</event>
<event>
 4    1  0.2089815E-007  0.1523421E+04  0.7818608E-02  0.8893273E-01
          2   -1    0    0  501    0  0.00000000000E+00  0.00000000000E+00  0.73080630806E+03  0.73080630807E+03  0.25500000000E-02 0. -1.
         -2   -1    0    0    0  501 -0.00000000000E+00 -0.00000000000E+00 -0.43868333027E+04  0.43868333027E+04  0.25500000000E-02 0.  1.
    8880023    1    1    2    0    0  0.12580621809E+04 -0.55161524460E+03 -0.39202531900E+03  0.15730524105E+04  0.65864270000E+03 0.  0.
    8880022    1    1    2    0    0 -0.12580621809E+04  0.55161524460E+03 -0.32640016756E+04  0.35445872003E+04  0.15294330000E+03 0.  0.
<mgrwt>
<rscale>  0 0.14868089E+04</rscale>
<asrwt>0</asrwt>
<pdfrwt beam="1">  1        2 0.11243174E+00 0.15234205E+04</pdfrwt>
<pdfrwt beam="2">  1       -2 0.67489742E+00 0.15234205E+04</pdfrwt>
<totfact> 0.10007438E-02</totfact>
</mgrwt>
</event>
<event>
 4    1  0.2089815E-007  0.9502908E+03  0.7818608E-02  0.9449696E-01
         -2   -1    0    0    0  501 -0.00000000000E+00  0.00000000000E+00  0.10514628008E+04  0.10514628008E+04  0.25500000000E-02 0.  1.
          2   -1    0    0  501    0  0.00000000000E+00 -0.00000000000E+00 -0.94878639895E+03  0.94878639896E+03  0.25500000000E-02 0. -1.
    8880023    1    1    2    0    0 -0.60990905899E+03  0.31185470390E+03  0.61442027600E+03  0.11316204745E+04  0.65864270000E+03 0.  0.
    8880022    1    1    2    0    0  0.60990905899E+03 -0.31185470390E+03 -0.51174387413E+03  0.86862872524E+03  0.15294330000E+03 0.  0.
<mgrwt>
<rscale>  0 0.88096358E+03</rscale>
<asrwt>0</asrwt>
<pdfrwt beam="1">  1        2 0.14596714E+00 0.95029081E+03</pdfrwt>
<pdfrwt beam="2">  1       -2 0.16176351E+00 0.95029081E+03</pdfrwt>
<totfact> 0.66231993E+00</totfact>
</mgrwt>
</event>
<event>
 4    1  0.2089815E-007  0.1141395E+04  0.7818608E-02  0.9216310E-01
          2   -1    0    0  501    0  0.00000000000E+00  0.00000000000E+00  0.36391199252E+04  0.36391199252E+04  0.25500000000E-02 0. -1.
         -2   -1    0    0    0  501 -0.00000000000E+00 -0.00000000000E+00 -0.52531110470E+03  0.52531110470E+03  0.25500000000E-02 0.  1.
    8880023    1    1    2    0    0 -0.92650455668E+03 -0.10276869679E+03  0.30038614782E+04  0.32134041272E+04  0.65864270000E+03 0. -1.
    8880022    1    1    2    0    0  0.92650455668E+03  0.10276869679E+03  0.10994734238E+03  0.95102690272E+03  0.15294330000E+03 0.  0.
<mgrwt>
<rscale>  0 0.10886661E+04</rscale>
<asrwt>0</asrwt>
<pdfrwt beam="1">  1        2 0.55986459E+00 0.11413949E+04</pdfrwt>
<pdfrwt beam="2">  1       -2 0.80817096E-01 0.11413949E+04</pdfrwt>
<totfact> 0.88755208E-01</totfact>
</mgrwt>
</event>
<event>
 4    1  0.2089815E-007  0.1325980E+04  0.7818608E-02  0.9043443E-01
         -2   -1    0    0    0  501 -0.00000000000E+00  0.00000000000E+00  0.24612563262E+04  0.24612563262E+04  0.25500000000E-02 0.  1.
          2   -1    0    0  501    0  0.00000000000E+00 -0.00000000000E+00 -0.84852106548E+03  0.84852106549E+03  0.25500000000E-02 0. -1.
    8880023    1    1    2    0    0  0.79597690019E+03  0.83116350718E+03  0.41258938146E+01  0.13259861351E+04  0.65864270000E+03 0. -1.
    8880022    1    1    2    0    0 -0.79597690019E+03 -0.83116350718E+03  0.16086093669E+04  0.19837912566E+04  0.15294330000E+03 0.  0.
<mgrwt>
<rscale>  0 0.12826436E+04</rscale>
<asrwt>0</asrwt>
<pdfrwt beam="1">  1        2 0.13054170E+00 0.13259797E+04</pdfrwt>
<pdfrwt beam="2">  1       -2 0.37865482E+00 0.13259797E+04</pdfrwt>
<totfact> 0.31567343E-01</totfact>
</mgrwt>
</event>
<event>
 4    1  0.2089815E-007  0.8282261E+03  0.7818608E-02  0.9652794E-01
          2   -1    0    0  501    0  0.00000000000E+00  0.00000000000E+00  0.34745102873E+04  0.34745102873E+04  0.25500000000E-02 0. -1.
         -2   -1    0    0    0  501 -0.00000000000E+00 -0.00000000000E+00 -0.27888399110E+03  0.27888399111E+03  0.25500000000E-02 0.  1.
    8880023    1    1    2    0    0  0.48976603194E+03  0.11080412323E+03  0.31138860419E+04  0.32221490977E+04  0.65864270000E+03 0.  0.
    8880022    1    1    2    0    0 -0.48976603194E+03 -0.11080412323E+03  0.81740254246E+02  0.53124518064E+03  0.15294330000E+03 0.  0.
<mgrwt>
<rscale>  0 0.73898355E+03</rscale>
<asrwt>0</asrwt>
<pdfrwt beam="1">  1        2 0.53454005E+00 0.82822613E+03</pdfrwt>
<pdfrwt beam="2">  1       -2 0.42905229E-01 0.82822613E+03</pdfrwt>
<totfact> 0.46532002E+00</totfact>
</mgrwt>
</event>
<event>
 4    1  0.2089815E-007  0.6669201E+03  0.7818608E-02  0.1017974E+00
         -2   -1    0    0    0  501 -0.00000000000E+00  0.00000000000E+00  0.12203201562E+04  0.12203201562E+04  0.25500000000E-02 0.  1.
          2   -1    0    0  501    0  0.00000000000E+00 -0.00000000000E+00 -0.23151989904E+03  0.23151989905E+03  0.25500000000E-02 0. -1.
    8880023    1    1    2    0    0 -0.96436778077E+02  0.40892232900E+02  0.28714357631E+03  0.72610871538E+03  0.65864270000E+03 0. -1.
    8880022    1    1    2    0    0  0.96436778077E+02 -0.40892232900E+02  0.70165668086E+03  0.72573133988E+03  0.15294330000E+03 0.  0.
<mgrwt>
<rscale>  0 0.48424833E+03</rscale>
<asrwt>0</asrwt>
<pdfrwt beam="1">  1        2 0.35618446E-01 0.66692011E+03</pdfrwt>
<pdfrwt beam="2">  1       -2 0.18774156E+00 0.66692011E+03</pdfrwt>
<totfact> 0.24053811E+01</totfact>
</mgrwt>
</event>
<event>
 4    1  0.2089815E-007  0.7146573E+03  0.7818608E-02  0.9941097E-01
          2   -1    0    0  501    0  0.00000000000E+00  0.00000000000E+00  0.11658818104E+04  0.11658818104E+04  0.25500000000E-02 0. -1.
         -2   -1    0    0    0  501 -0.00000000000E+00 -0.00000000000E+00 -0.95205100567E+03  0.95205100567E+03  0.25500000000E-02 0.  1.
    8880023    1    1    2    0    0  0.26701579025E+03 -0.75015955980E+02  0.10236170911E+04  0.12484097810E+04  0.65864270000E+03 0. -1.
    8880022    1    1    2    0    0 -0.26701579025E+03  0.75015955980E+02 -0.80978628636E+03  0.86952303506E+03  0.15294330000E+03 0.  0.
<mgrwt>
<rscale>  0 0.58310250E+03</rscale>
<asrwt>0</asrwt>
<pdfrwt beam="1">  1        2 0.17936643E+00 0.71465728E+03</pdfrwt>
<pdfrwt beam="2">  1       -2 0.14646939E+00 0.71465728E+03</pdfrwt>
<totfact> 0.64981334E+00</totfact>
</mgrwt>
</event>
<event>
 4    1  0.2089815E-007  0.9643570E+03  0.7818608E-02  0.9429752E-01
          2   -1    0    0  501    0  0.00000000000E+00  0.00000000000E+00  0.14570658200E+04  0.14570658200E+04  0.25500000000E-02 0. -1.
         -2   -1    0    0    0  501 -0.00000000000E+00 -0.00000000000E+00 -0.51256359934E+03  0.51256359934E+03  0.25500000000E-02 0.  1.
    8880023    1    1    2    0    0  0.32790374454E+03 -0.62342070018E+03  0.75382992056E+03  0.12240277736E+04  0.65864270000E+03 0.  1.
    8880022    1    1    2    0    0 -0.32790374454E+03  0.62342070018E+03  0.19067230007E+03  0.74560164574E+03  0.15294330000E+03 0.  0.
<mgrwt>
<rscale>  0 0.89667169E+03</rscale>
<asrwt>0</asrwt>
<pdfrwt beam="1">  1        2 0.22416397E+00 0.96435701E+03</pdfrwt>
<pdfrwt beam="2">  1       -2 0.78855938E-01 0.96435701E+03</pdfrwt>
<totfact> 0.19172556E+01</totfact>
</mgrwt>
</event>
<event>
 4    1  0.2089815E-007  0.6798157E+03  0.7818608E-02  0.1009428E+00
         -2   -1    0    0    0  501 -0.00000000000E+00  0.00000000000E+00  0.54090363362E+03  0.54090363362E+03  0.25500000000E-02 0.  1.
          2   -1    0    0  501    0  0.00000000000E+00 -0.00000000000E+00 -0.51330572204E+03  0.51330572205E+03  0.25500000000E-02 0. -1.
    8880023    1    1    2    0    0  0.12922643855E+03 -0.10788778697E+03 -0.22331295770E+03  0.71555442165E+03  0.65864270000E+03 0. -1.
    8880022    1    1    2    0    0 -0.12922643855E+03  0.10788778697E+03  0.25091086928E+03  0.33865493402E+03  0.15294330000E+03 0.  0.
<mgrwt>
<rscale>  0 0.51702575E+03</rscale>
<asrwt>0</asrwt>
<pdfrwt beam="1">  1        2 0.78970111E-01 0.67981575E+03</pdfrwt>
<pdfrwt beam="2">  1       -2 0.83215943E-01 0.67981575E+03</pdfrwt>
<totfact> 0.76704754E+01</totfact>
</mgrwt>
</event>
<event>
 4    1  0.2089815E-007  0.6587135E+03  0.7818608E-02  0.1025515E+00
         -2   -1    0    0    0  501 -0.00000000000E+00  0.00000000000E+00  0.48675522227E+03  0.48675522227E+03  0.25500000000E-02 0.  1.
          2   -1    0    0  501    0  0.00000000000E+00 -0.00000000000E+00 -0.79976096413E+03  0.79976096414E+03  0.25500000000E-02 0. -1.
    8880023    1    1    2    0    0  0.56153213769E+01  0.78568681939E+01 -0.64434262716E+03  0.92145585334E+03  0.65864270000E+03 0. -1.
    8880022    1    1    2    0    0 -0.56153213769E+01 -0.78568681939E+01  0.33133688529E+03  0.36506033307E+03  0.15294330000E+03 0.  0.
<mgrwt>
<rscale>  0 0.45747888E+03</rscale>
<asrwt>0</asrwt>
<pdfrwt beam="1">  1        2 0.12304015E+00 0.65871349E+03</pdfrwt>
<pdfrwt beam="2">  1       -2 0.74885419E-01 0.65871349E+03</pdfrwt>
<totfact> 0.56379320E+01</totfact>
</mgrwt>
</event>
<event>
 4    1  0.2089815E-007  0.1520498E+04  0.7818608E-02  0.8895296E-01
         -2   -1    0    0    0  501 -0.00000000000E+00  0.00000000000E+00  0.19297538211E+04  0.19297538211E+04  0.25500000000E-02 0.  1.
          2   -1    0    0  501    0  0.00000000000E+00 -0.00000000000E+00 -0.20882056670E+04  0.20882056670E+04  0.25500000000E-02 0. -1.
    8880023    1    1    2    0    0  0.79837534879E+03  0.11138676483E+04  0.13075078877E+04  0.20053656570E+04  0.65864270000E+03 0.  0.
    8880022    1    1    2    0    0 -0.79837534879E+03 -0.11138676483E+04 -0.14659597337E+04  0.20125938312E+04  0.15294330000E+03 0.  0.
<mgrwt>
<rscale>  0 0.14838033E+04</rscale>
<asrwt>0</asrwt>
<pdfrwt beam="1">  1        2 0.32126241E+00 0.15204981E+04</pdfrwt>
<pdfrwt beam="2">  1       -2 0.29688520E+00 0.15204981E+04</pdfrwt>
<totfact> 0.18532343E-01</totfact>
</mgrwt>
</event>
<event>
 4    1  0.2089815E-007  0.8597199E+03  0.7818608E-02  0.9594062E-01
          2   -1    0    0  501    0  0.00000000000E+00  0.00000000000E+00  0.40048510846E+03  0.40048510846E+03  0.25500000000E-02 0. -1.
         -2   -1    0    0    0  501 -0.00000000000E+00 -0.00000000000E+00 -0.24023667381E+04  0.24023667381E+04  0.25500000000E-02 0.  1.
    8880023    1    1    2    0    0  0.55006997994E+03  0.52260726923E+02 -0.16087942095E+03  0.87464310479E+03  0.65864270000E+03 0. -1.
    8880022    1    1    2    0    0 -0.55006997994E+03 -0.52260726923E+02 -0.18410022087E+04  0.19282087418E+04  0.15294330000E+03 0.  0.
<mgrwt>
<rscale>  0 0.77690458E+03</rscale>
<asrwt>0</asrwt>
<pdfrwt beam="1">  1        2 0.61613095E-01 0.85971994E+03</pdfrwt>
<pdfrwt beam="2">  1       -2 0.36959487E+00 0.85971994E+03</pdfrwt>
<totfact> 0.96332991E-01</totfact>
</mgrwt>
</event>
<event>
 4    1  0.2089815E-007  0.1392460E+04  0.7818608E-02  0.8989564E-01
         -2   -1    0    0    0  501 -0.00000000000E+00  0.00000000000E+00  0.18399124292E+04  0.18399124292E+04  0.25500000000E-02 0.  1.
          2   -1    0    0  501    0  0.00000000000E+00 -0.00000000000E+00 -0.11252518746E+04  0.11252518746E+04  0.25500000000E-02 0. -1.
    8880023    1    1    2    0    0  0.24506254453E+03  0.12021144105E+04 -0.22728028826E+03  0.14108866866E+04  0.65864270000E+03 0. -1.
    8880022    1    1    2    0    0 -0.24506254453E+03 -0.12021144105E+04  0.94194084289E+03  0.15542776172E+04  0.15294330000E+03 0.  0.
<mgrwt>
<rscale>  0 0.13516715E+04</rscale>
<asrwt>0</asrwt>
<pdfrwt beam="1">  1        2 0.17311567E+00 0.13924600E+04</pdfrwt>
<pdfrwt beam="2">  1       -2 0.28306345E+00 0.13924600E+04</pdfrwt>
<totfact> 0.81009634E-01</totfact>
</mgrwt>
</event>
<event>
 4    1  0.2089815E-007  0.8203280E+03  0.7818608E-02  0.9668452E-01
         -2   -1    0    0    0  501 -0.00000000000E+00  0.00000000000E+00  0.32244187121E+03  0.32244187122E+03  0.25500000000E-02 0.  1.
          2   -1    0    0  501    0  0.00000000000E+00 -0.00000000000E+00 -0.17161520284E+04  0.17161520284E+04  0.25500000000E-02 0. -1.
    8880023    1    1    2    0    0  0.47393119472E+03  0.12048695623E+03 -0.12693470363E+04  0.15113503859E+04  0.65864270000E+03 0.  0.
    8880022    1    1    2    0    0 -0.47393119472E+03 -0.12048695623E+03 -0.12436312085E+03  0.52724351375E+03  0.15294330000E+03 0.  0.
<mgrwt>
<rscale>  0 0.72926584E+03</rscale>
<asrwt>0</asrwt>
<pdfrwt beam="1">  1        2 0.26402338E+00 0.82032804E+03</pdfrwt>
<pdfrwt beam="2">  1       -2 0.49606443E-01 0.82032804E+03</pdfrwt>
<totfact> 0.37615815E+01</totfact>
</mgrwt>
</event>
<event>
 4    1  0.2089815E-007  0.6682376E+03  0.7818608E-02  0.1016959E+00
          2   -1    0    0  501    0  0.00000000000E+00  0.00000000000E+00  0.41942194281E+04  0.41942194281E+04  0.25500000000E-02 0. -1.
         -2   -1    0    0    0  501 -0.00000000000E+00 -0.00000000000E+00 -0.49056175350E+02  0.49056175416E+02  0.25500000000E-02 0.  1.
    8880023    1    1    2    0    0  0.76545692129E+02  0.82897437931E+02  0.36900951841E+04  0.37501125186E+04  0.65864270000E+03 0. -1.
    8880022    1    1    2    0    0 -0.76545692129E+02 -0.82897437931E+02  0.45506806859E+03  0.49316308486E+03  0.15294330000E+03 0.  0.
<mgrwt>
<rscale>  0 0.48800128E+03</rscale>
<asrwt>0</asrwt>
<pdfrwt beam="1">  1        2 0.64526459E+00 0.66823756E+03</pdfrwt>
<pdfrwt beam="2">  1       -2 0.75471032E-02 0.66823756E+03</pdfrwt>
<totfact> 0.28708599E+01</totfact>
</mgrwt>
</event>
<event>
 4    1  0.2089815E-007  0.1189632E+04  0.7818608E-02  0.9167267E-01
         -2   -1    0    0    0  501 -0.00000000000E+00  0.00000000000E+00  0.62888416176E+03  0.62888416176E+03  0.25500000000E-02 0.  1.
          2   -1    0    0  501    0  0.00000000000E+00 -0.00000000000E+00 -0.28558803102E+04  0.28558803102E+04  0.25500000000E-02 0. -1.
    8880023    1    1    2    0    0  0.82207356303E+03 -0.55282018666E+03 -0.21773388289E+04  0.24811347573E+04  0.65864270000E+03 0.  0.
    8880022    1    1    2    0    0 -0.82207356303E+03  0.55282018666E+03 -0.49657319585E+02  0.10036297147E+04  0.15294330000E+03 0.  0.
<mgrwt>
<rscale>  0 0.11397771E+04</rscale>
<asrwt>0</asrwt>
<pdfrwt beam="1">  1        2 0.43936619E+00 0.11896324E+04</pdfrwt>
<pdfrwt beam="2">  1       -2 0.96751411E-01 0.11896324E+04</pdfrwt>
<totfact> 0.18902210E+00</totfact>
</mgrwt>
</event>
<event>
 4    1  0.2089815E-007  0.6608024E+03  0.7818608E-02  0.1023349E+00
         -2   -1    0    0    0  501 -0.00000000000E+00  0.00000000000E+00  0.21180974023E+03  0.21180974024E+03  0.25500000000E-02 0.  1.
          2   -1    0    0  501    0  0.00000000000E+00 -0.00000000000E+00 -0.40768753957E+04  0.40768753957E+04  0.25500000000E-02 0. -1.
    8880023    1    1    2    0    0 -0.27037723491E+02 -0.46027864926E+02 -0.40143636283E+04  0.40683872910E+04  0.65864270000E+03 0. -1.
    8880022    1    1    2    0    0  0.27037723491E+02  0.46027864926E+02  0.14929797277E+03  0.22029784504E+03  0.15294330000E+03 0.  0.
<mgrwt>
<rscale>  0 0.46497198E+03</rscale>
<asrwt>0</asrwt>
<pdfrwt beam="1">  1        2 0.62721154E+00 0.66080240E+03</pdfrwt>
<pdfrwt beam="2">  1       -2 0.32586117E-01 0.66080240E+03</pdfrwt>
<totfact> 0.29494320E+00</totfact>
</mgrwt>
</event>
<event>
 4    1  0.2089815E-007  0.2123732E+04  0.7818608E-02  0.8561880E-01
          2   -1    0    0  501    0  0.00000000000E+00  0.00000000000E+00  0.35488773177E+04  0.35488773177E+04  0.25500000000E-02 0. -1.
         -2   -1    0    0    0  501 -0.00000000000E+00 -0.00000000000E+00 -0.13969226196E+04  0.13969226196E+04  0.25500000000E-02 0.  1.
    8880023    1    1    2    0    0 -0.88332064999E+03 -0.18155365573E+04  0.19968402417E+04  0.29150659544E+04  0.65864270000E+03 0.  0.
    8880022    1    1    2    0    0  0.88332064999E+03  0.18155365573E+04  0.15511445637E+03  0.20307339828E+04  0.15294330000E+03 0.  0.
<mgrwt>
<rscale>  0 0.20985553E+04</rscale>
<asrwt>0</asrwt>
<pdfrwt beam="1">  1        2 0.54598112E+00 0.21237322E+04</pdfrwt>
<pdfrwt beam="2">  1       -2 0.21491117E+00 0.21237322E+04</pdfrwt>
<totfact> 0.70464043E-02</totfact>
</mgrwt>
</event>
<event>
 4    1  0.2089815E-007  0.1926957E+04  0.7818608E-02  0.8655380E-01
         -2   -1    0    0    0  501 -0.00000000000E+00  0.00000000000E+00  0.21147376787E+04  0.21147376787E+04  0.25500000000E-02 0.  1.
          2   -1    0    0  501    0  0.00000000000E+00 -0.00000000000E+00 -0.20821946842E+04  0.20821946842E+04  0.25500000000E-02 0. -1.
    8880023    1    1    2    0    0  0.13364322782E+04 -0.12220067017E+04 -0.93086602862E+03  0.21400171454E+04  0.65864270000E+03 0.  0.
    8880022    1    1    2    0    0 -0.13364322782E+04  0.12220067017E+04  0.96340902314E+03  0.20569152175E+04  0.15294330000E+03 0.  0.
<mgrwt>
<rscale>  0 0.18989490E+04</rscale>
<asrwt>0</asrwt>
<pdfrwt beam="1">  1        2 0.32033764E+00 0.19269566E+04</pdfrwt>
<pdfrwt beam="2">  1       -2 0.32534426E+00 0.19269566E+04</pdfrwt>
<totfact> 0.11938878E-01</totfact>
</mgrwt>
</event>
<event>
 4    1  0.2089815E-007  0.1201861E+04  0.7818608E-02  0.9155315E-01
         -2   -1    0    0    0  501 -0.00000000000E+00  0.00000000000E+00  0.47955760350E+03  0.47955760350E+03  0.25500000000E-02 0.  1.
          2   -1    0    0  501    0  0.00000000000E+00 -0.00000000000E+00 -0.28263953378E+04  0.28263953378E+04  0.25500000000E-02 0. -1.
    8880023    1    1    2    0    0  0.78208480965E+03  0.63166772055E+03 -0.17620607745E+04  0.21329156425E+04  0.65864270000E+03 0.  0.
    8880022    1    1    2    0    0 -0.78208480965E+03 -0.63166772055E+03 -0.58477695978E+03  0.11730372988E+04  0.15294330000E+03 0.  0.
<mgrwt>
<rscale>  0 0.11526796E+04</rscale>
<asrwt>0</asrwt>
<pdfrwt beam="1">  1        2 0.43483004E+00 0.12018615E+04</pdfrwt>
<pdfrwt beam="2">  1       -2 0.73778094E-01 0.12018615E+04</pdfrwt>
<totfact> 0.36590639E+00</totfact>
</mgrwt>
</event>
<event>
 4    1  0.2089815E-007  0.7577222E+03  0.7818608E-02  0.9811040E-01
         -2   -1    0    0    0  501 -0.00000000000E+00  0.00000000000E+00  0.55369370402E+03  0.55369370402E+03  0.25500000000E-02 0.  1.
          2   -1    0    0  501    0  0.00000000000E+00 -0.00000000000E+00 -0.32520398723E+04  0.32520398723E+04  0.25500000000E-02 0. -1.
    8880023    1    1    2    0    0 -0.36558719990E+03  0.81723755889E+02 -0.31262784702E+04  0.32167934426E+04  0.65864270000E+03 0. -1.
    8880022    1    1    2    0    0  0.36558719990E+03 -0.81723755889E+02  0.42793230194E+03  0.58894013368E+03  0.15294330000E+03 0.  0.
<mgrwt>
<rscale>  0 0.64773402E+03</rscale>
<asrwt>0</asrwt>
<pdfrwt beam="1">  1        2 0.50031382E+00 0.75772223E+03</pdfrwt>
<pdfrwt beam="2">  1       -2 0.85183649E-01 0.75772223E+03</pdfrwt>
<totfact> 0.15459016E+00</totfact>
</mgrwt>
</event>
<event>
 4    1  0.2089815E-007  0.6749371E+03  0.7818608E-02  0.1012346E+00
          2   -1    0    0  501    0  0.00000000000E+00  0.00000000000E+00  0.35500620161E+03  0.35500620162E+03  0.25500000000E-02 0. -1.
         -2   -1    0    0    0  501 -0.00000000000E+00 -0.00000000000E+00 -0.75955361904E+03  0.75955361905E+03  0.25500000000E-02 0.  1.
    8880023    1    1    2    0    0 -0.13951107741E+03 -0.47608589060E+02 -0.19987311110E+02  0.67523300966E+03  0.65864270000E+03 0. -1.
    8880022    1    1    2    0    0  0.13951107741E+03  0.47608589060E+02 -0.38456010633E+03  0.43932681100E+03  0.15294330000E+03 0.  0.
<mgrwt>
<rscale>  0 0.50552835E+03</rscale>
<asrwt>0</asrwt>
<pdfrwt beam="1">  1        2 0.54616339E-01 0.67493713E+03</pdfrwt>
<pdfrwt beam="2">  1       -2 0.11685440E+00 0.67493713E+03</pdfrwt>
<totfact> 0.52374411E+01</totfact>
</mgrwt>
</event>
<event>
 4    1  0.2089815E-007  0.7515622E+03  0.7818608E-02  0.9827463E-01
          2   -1    0    0  501    0  0.00000000000E+00  0.00000000000E+00  0.20700179115E+04  0.20700179115E+04  0.25500000000E-02 0. -1.
         -2   -1    0    0    0  501 -0.00000000000E+00 -0.00000000000E+00 -0.65421094905E+03  0.65421094905E+03  0.25500000000E-02 0.  1.
    8880023    1    1    2    0    0 -0.20165390543E+03 -0.30061820951E+03  0.19334121544E+04  0.20743501079E+04  0.65864270000E+03 0. -1.
    8880022    1    1    2    0    0  0.20165390543E+03  0.30061820951E+03 -0.51760519187E+03  0.64987875264E+03  0.15294330000E+03 0.  0.
<mgrwt>
<rscale>  0 0.63909322E+03</rscale>
<asrwt>0</asrwt>
<pdfrwt beam="1">  1        2 0.31846429E+00 0.75156225E+03</pdfrwt>
<pdfrwt beam="2">  1       -2 0.10064784E+00 0.75156225E+03</pdfrwt>
<totfact> 0.51540032E+00</totfact>
</mgrwt>
</event>
<event>
 4    1  0.2089815E-007  0.8306795E+03  0.7818608E-02  0.9648012E-01
         -2   -1    0    0    0  501 -0.00000000000E+00  0.00000000000E+00  0.72272869231E+03  0.72272869231E+03  0.25500000000E-02 0.  1.
          2   -1    0    0  501    0  0.00000000000E+00 -0.00000000000E+00 -0.38895219324E+04  0.38895219324E+04  0.25500000000E-02 0. -1.
    8880023    1    1    2    0    0  0.34264361097E+02 -0.50501904903E+03 -0.37407332699E+04  0.38318551498E+04  0.65864270000E+03 0. -1.
    8880022    1    1    2    0    0 -0.34264361097E+02  0.50501904903E+03  0.57394002984E+03  0.78039547487E+03  0.15294330000E+03 0.  0.
<mgrwt>
<rscale>  0 0.74198344E+03</rscale>
<asrwt>0</asrwt>
<pdfrwt beam="1">  1        2 0.59838798E+00 0.83067954E+03</pdfrwt>
<pdfrwt beam="2">  1       -2 0.11118903E+00 0.83067954E+03</pdfrwt>
<totfact> 0.29113998E-01</totfact>
</mgrwt>
</event>
<event>
 4    1  0.2089815E-007  0.1625916E+04  0.7818608E-02  0.8825486E-01
          2   -1    0    0  501    0  0.00000000000E+00  0.00000000000E+00  0.37953283612E+04  0.37953283612E+04  0.25500000000E-02 0. -1.
         -2   -1    0    0    0  501 -0.00000000000E+00 -0.00000000000E+00 -0.81690467154E+03  0.81690467155E+03  0.25500000000E-02 0.  1.
    8880023    1    1    2    0    0  0.12661646997E+04  0.77885882720E+03  0.26068599939E+04  0.30723481823E+04  0.65864270000E+03 0.  0.
    8880022    1    1    2    0    0 -0.12661646997E+04 -0.77885882720E+03  0.37156369580E+03  0.15398848504E+04  0.15294330000E+03 0.  0.
<mgrwt>
<rscale>  0 0.15919861E+04</rscale>
<asrwt>0</asrwt>
<pdfrwt beam="1">  1        2 0.58389666E+00 0.16259165E+04</pdfrwt>
<pdfrwt beam="2">  1       -2 0.12567764E+00 0.16259165E+04</pdfrwt>
<totfact> 0.22169951E-01</totfact>
</mgrwt>
</event>
<event>
 4    1  0.2089815E-007  0.1398295E+04  0.7818608E-02  0.8985009E-01
          2   -1    0    0  501    0  0.00000000000E+00  0.00000000000E+00  0.39112795754E+04  0.39112795754E+04  0.25500000000E-02 0. -1.
         -2   -1    0    0    0  501 -0.00000000000E+00 -0.00000000000E+00 -0.13484377754E+04  0.13484377754E+04  0.25500000000E-02 0.  1.
    8880023    1    1    2    0    0 -0.12010149352E+04  0.28103463091E+03  0.34566772387E+04  0.37287860059E+04  0.65864270000E+03 0. -1.
    8880022    1    1    2    0    0  0.12010149352E+04 -0.28103463091E+03 -0.89383543873E+03  0.15309313450E+04  0.15294330000E+03 0.  0.
<mgrwt>
<rscale>  0 0.13577141E+04</rscale>
<asrwt>0</asrwt>
<pdfrwt beam="1">  1        2 0.60173531E+00 0.13982945E+04</pdfrwt>
<pdfrwt beam="2">  1       -2 0.20745197E+00 0.13982945E+04</pdfrwt>
<totfact> 0.46416554E-02</totfact>
</mgrwt>
</event>
<event>
 4    1  0.2089815E-007  0.8366954E+03  0.7818608E-02  0.9636443E-01
         -2   -1    0    0    0  501 -0.00000000000E+00  0.00000000000E+00  0.13660759390E+04  0.13660759390E+04  0.25500000000E-02 0.  1.
          2   -1    0    0  501    0  0.00000000000E+00 -0.00000000000E+00 -0.92837722547E+03  0.92837722547E+03  0.25500000000E-02 0. -1.
    8880023    1    1    2    0    0  0.30848640822E+03  0.41362435277E+03 -0.66411438033E+03  0.10682261398E+04  0.65864270000E+03 0. -1.
    8880022    1    1    2    0    0 -0.30848640822E+03 -0.41362435277E+03  0.11018130938E+04  0.12262270247E+04  0.15294330000E+03 0.  0.
<mgrwt>
<rscale>  0 0.74930385E+03</rscale>
<asrwt>0</asrwt>
<pdfrwt beam="1">  1        2 0.14282727E+00 0.83669539E+03</pdfrwt>
<pdfrwt beam="2">  1       -2 0.21016553E+00 0.83669539E+03</pdfrwt>
<totfact> 0.32460055E+00</totfact>
</mgrwt>
</event>
<event>
 4    1  0.2089815E-007  0.1020035E+04  0.7818608E-02  0.9355803E-01
         -2   -1    0    0    0  501 -0.00000000000E+00  0.00000000000E+00  0.58627115984E+03  0.58627115984E+03  0.25500000000E-02 0.  1.
          2   -1    0    0  501    0  0.00000000000E+00 -0.00000000000E+00 -0.19023663876E+04  0.19023663876E+04  0.25500000000E-02 0. -1.
    8880023    1    1    2    0    0  0.47855893767E+03  0.61452546822E+03 -0.13525217158E+04  0.16940440980E+04  0.65864270000E+03 0.  0.
    8880022    1    1    2    0    0 -0.47855893767E+03 -0.61452546822E+03  0.36426488033E+02  0.79459344948E+03  0.15294330000E+03 0.  0.
<mgrwt>
<rscale>  0 0.95803900E+03</rscale>
<asrwt>0</asrwt>
<pdfrwt beam="1">  1        2 0.29267175E+00 0.10200345E+04</pdfrwt>
<pdfrwt beam="2">  1       -2 0.90195564E-01 0.10200345E+04</pdfrwt>
<totfact> 0.79432585E+00</totfact>
</mgrwt>
</event>
<event>
 4    1  0.2089815E-007  0.8270423E+03  0.7818608E-02  0.9655115E-01
         -2   -1    0    0    0  501 -0.00000000000E+00  0.00000000000E+00  0.15977947133E+04  0.15977947133E+04  0.25500000000E-02 0.  1.
          2   -1    0    0  501    0  0.00000000000E+00 -0.00000000000E+00 -0.62622985602E+03  0.62622985603E+03  0.25500000000E-02 0. -1.
    8880023    1    1    2    0    0 -0.16945945295E+03 -0.47060839625E+03 -0.27549136733E+03  0.87171926017E+03  0.65864270000E+03 0.  0.
    8880022    1    1    2    0    0  0.16945945295E+03  0.47060839625E+03  0.12470562246E+04  0.13523053091E+04  0.15294330000E+03 0.  0.
<mgrwt>
<rscale>  0 0.73753294E+03</rscale>
<asrwt>0</asrwt>
<pdfrwt beam="1">  1        2 0.96343057E-01 0.82704231E+03</pdfrwt>
<pdfrwt beam="2">  1       -2 0.24581457E+00 0.82704231E+03</pdfrwt>
<totfact> 0.32697933E+00</totfact>
</mgrwt>
</event>
<event>
 4    1  0.2089815E-007  0.6767437E+03  0.7818608E-02  0.1011229E+00
          2   -1    0    0  501    0  0.00000000000E+00  0.00000000000E+00  0.15116783156E+04  0.15116783156E+04  0.25500000000E-02 0. -1.
         -2   -1    0    0    0  501 -0.00000000000E+00 -0.00000000000E+00 -0.45906305074E+03  0.45906305075E+03  0.25500000000E-02 0.  1.
    8880023    1    1    2    0    0  0.35066620635E+02 -0.15146659161E+03  0.14031940714E+04  0.15578625114E+04  0.65864270000E+03 0. -1.
    8880022    1    1    2    0    0 -0.35066620635E+02  0.15146659161E+03 -0.35057880652E+03  0.41287885494E+03  0.15294330000E+03 0.  0.
<mgrwt>
<rscale>  0 0.50989097E+03</rscale>
<asrwt>0</asrwt>
<pdfrwt beam="1">  1        2 0.23256589E+00 0.67674368E+03</pdfrwt>
<pdfrwt beam="2">  1       -2 0.70625085E-01 0.67674368E+03</pdfrwt>
<totfact> 0.23556065E+01</totfact>
</mgrwt>
</event>
<event>
 4    1  0.2089815E-007  0.1329207E+04  0.7818608E-02  0.9040740E-01
          2   -1    0    0  501    0  0.00000000000E+00  0.00000000000E+00  0.37510805818E+04  0.37510805818E+04  0.25500000000E-02 0. -1.
         -2   -1    0    0    0  501 -0.00000000000E+00 -0.00000000000E+00 -0.46013105888E+03  0.46013105889E+03  0.25500000000E-02 0.  1.
    8880023    1    1    2    0    0  0.70633655519E+03  0.91327349538E+03  0.10814884627E+04  0.17135948493E+04  0.65864270000E+03 0.  0.
    8880022    1    1    2    0    0 -0.70633655519E+03 -0.91327349538E+03  0.22094610602E+04  0.24976167913E+04  0.15294330000E+03 0.  0.
<mgrwt>
<rscale>  0 0.12860021E+04</rscale>
<asrwt>0</asrwt>
<pdfrwt beam="1">  1        2 0.57708932E+00 0.13292065E+04</pdfrwt>
<pdfrwt beam="2">  1       -2 0.70789394E-01 0.13292065E+04</pdfrwt>
<totfact> 0.96321685E-01</totfact>
</mgrwt>
</event>
<event>
 4    1  0.2089815E-007  0.7445372E+03  0.7818608E-02  0.9846922E-01
          2   -1    0    0  501    0  0.00000000000E+00  0.00000000000E+00  0.22000236639E+04  0.22000236639E+04  0.25500000000E-02 0. -1.
         -2   -1    0    0    0  501 -0.00000000000E+00 -0.00000000000E+00 -0.73622731425E+03  0.73622731425E+03  0.25500000000E-02 0.  1.
    8880023    1    1    2    0    0  0.33689046606E+03  0.83846327126E+02  0.20818922086E+04  0.22110203000E+04  0.65864270000E+03 0. -1.
    8880022    1    1    2    0    0 -0.33689046606E+03 -0.83846327126E+02 -0.61809585892E+03  0.72523067814E+03  0.15294330000E+03 0.  0.
<mgrwt>
<rscale>  0 0.62904080E+03</rscale>
<asrwt>0</asrwt>
<pdfrwt beam="1">  1        2 0.33846519E+00 0.74453717E+03</pdfrwt>
<pdfrwt beam="2">  1       -2 0.11326574E+00 0.74453717E+03</pdfrwt>
<totfact> 0.32946444E+00</totfact>
</mgrwt>
</event>
<event>
 4    1  0.2089815E-007  0.9191068E+03  0.7818608E-02  0.9496030E-01
          2   -1    0    0  501    0  0.00000000000E+00  0.00000000000E+00  0.18212525178E+04  0.18212525178E+04  0.25500000000E-02 0. -1.
         -2   -1    0    0    0  501 -0.00000000000E+00 -0.00000000000E+00 -0.89698593355E+03  0.89698593355E+03  0.25500000000E-02 0.  1.
    8880023    1    1    2    0    0 -0.16338722991E+02 -0.64084335495E+03  0.15548010375E+04  0.18061460716E+04  0.65864270000E+03 0. -1.
    8880022    1    1    2    0    0  0.16338722991E+02  0.64084335495E+03 -0.63053445326E+03  0.91209237976E+03  0.15294330000E+03 0.  0.
<mgrwt>
<rscale>  0 0.84577156E+03</rscale>
<asrwt>0</asrwt>
<pdfrwt beam="1">  1        2 0.28019270E+00 0.91910683E+03</pdfrwt>
<pdfrwt beam="2">  1       -2 0.13799784E+00 0.91910683E+03</pdfrwt>
<totfact> 0.31514675E+00</totfact>
</mgrwt>
</event>
<event>
 4    1  0.2089815E-007  0.1431072E+04  0.7818608E-02  0.8959907E-01
         -2   -1    0    0    0  501 -0.00000000000E+00  0.00000000000E+00  0.90875513456E+03  0.90875513456E+03  0.25500000000E-02 0.  1.
          2   -1    0    0  501    0  0.00000000000E+00 -0.00000000000E+00 -0.24718244181E+04  0.24718244181E+04  0.25500000000E-02 0. -1.
    8880023    1    1    2    0    0 -0.97264637705E+03  0.81738399499E+03 -0.96671033122E+02  0.14343336658E+04  0.65864270000E+03 0.  0.
    8880022    1    1    2    0    0  0.97264637705E+03 -0.81738399499E+03 -0.14663982504E+04  0.19462458868E+04  0.15294330000E+03 0.  0.
<mgrwt>
<rscale>  0 0.13916194E+04</rscale>
<asrwt>0</asrwt>
<pdfrwt beam="1">  1        2 0.38028068E+00 0.14310722E+04</pdfrwt>
<pdfrwt beam="2">  1       -2 0.13980848E+00 0.14310722E+04</pdfrwt>
<totfact> 0.12414898E+00</totfact>
</mgrwt>
</event>
<event>
 4    1  0.2089815E-007  0.9841958E+03  0.7818608E-02  0.9402533E-01
          2   -1    0    0  501    0  0.00000000000E+00  0.00000000000E+00  0.12918122592E+04  0.12918122592E+04  0.25500000000E-02 0. -1.
         -2   -1    0    0    0  501 -0.00000000000E+00 -0.00000000000E+00 -0.61269725080E+03  0.61269725080E+03  0.25500000000E-02 0.  1.
    8880023    1    1    2    0    0  0.29460578685E+03  0.66935689020E+03  0.16589800465E+03  0.99807994184E+03  0.65864270000E+03 0.  1.
    8880022    1    1    2    0    0 -0.29460578685E+03 -0.66935689020E+03  0.51321700378E+03  0.90642956819E+03  0.15294330000E+03 0.  0.
<mgrwt>
<rscale>  0 0.91867541E+03</rscale>
<asrwt>0</asrwt>
<pdfrwt beam="1">  1        2 0.19874034E+00 0.98419583E+03</pdfrwt>
<pdfrwt beam="2">  1       -2 0.94261117E-01 0.98419583E+03</pdfrwt>
<totfact> 0.15805961E+01</totfact>
</mgrwt>
</event>
<event>
 4    1  0.2089815E-007  0.1060294E+04  0.7818608E-02  0.9306607E-01
          2   -1    0    0  501    0  0.00000000000E+00  0.00000000000E+00  0.20769751953E+04  0.20769751953E+04  0.25500000000E-02 0. -1.
         -2   -1    0    0    0  501 -0.00000000000E+00 -0.00000000000E+00 -0.53728556156E+03  0.53728556156E+03  0.25500000000E-02 0.  1.
    8880023    1    1    2    0    0 -0.61398688145E+03 -0.55985177458E+03  0.14027120280E+04  0.17583586494E+04  0.65864270000E+03 0. -1.
    8880022    1    1    2    0    0  0.61398688145E+03  0.55985177458E+03  0.13697760573E+03  0.85590210748E+03  0.15294330000E+03 0.  0.
<mgrwt>
<rscale>  0 0.10017684E+04</rscale>
<asrwt>0</asrwt>
<pdfrwt beam="1">  1        2 0.31953465E+00 0.10602943E+04</pdfrwt>
<pdfrwt beam="2">  1       -2 0.82659317E-01 0.10602943E+04</pdfrwt>
<totfact> 0.77404740E+00</totfact>
</mgrwt>
</event>
<event>
 4    1  0.2089815E-007  0.1213122E+04  0.7818608E-02  0.9144471E-01
         -2   -1    0    0    0  501 -0.00000000000E+00  0.00000000000E+00  0.58014145961E+03  0.58014145961E+03  0.25500000000E-02 0.  1.
          2   -1    0    0  501    0  0.00000000000E+00 -0.00000000000E+00 -0.29722316974E+04  0.29722316974E+04  0.25500000000E-02 0. -1.
    8880023    1    1    2    0    0  0.98096049777E+03  0.27490220838E+03 -0.21885612525E+04  0.25022920062E+04  0.65864270000E+03 0.  0.
    8880022    1    1    2    0    0 -0.98096049777E+03 -0.27490220838E+03 -0.20352898532E+03  0.10500811508E+04  0.15294330000E+03 0.  0.
<mgrwt>
<rscale>  0 0.11645426E+04</rscale>
<asrwt>0</asrwt>
<pdfrwt beam="1">  1        2 0.45726641E+00 0.12131220E+04</pdfrwt>
<pdfrwt beam="2">  1       -2 0.89252534E-01 0.12131220E+04</pdfrwt>
<totfact> 0.19328376E+00</totfact>
</mgrwt>
</event>
<event>
 4    1  0.2089815E-007  0.1016660E+04  0.7818608E-02  0.9360079E-01
          2   -1    0    0  501    0  0.00000000000E+00  0.00000000000E+00  0.76463299113E+03  0.76463299113E+03  0.25500000000E-02 0. -1.
         -2   -1    0    0    0  501 -0.00000000000E+00 -0.00000000000E+00 -0.12828442716E+04  0.12828442716E+04  0.25500000000E-02 0.  1.
    8880023    1    1    2    0    0 -0.49074108543E+03 -0.59913264478E+03 -0.70384876525E+03  0.12365274075E+04  0.65864270000E+03 0.  1.
    8880022    1    1    2    0    0  0.49074108543E+03  0.59913264478E+03  0.18563748474E+03  0.81094985524E+03  0.15294330000E+03 0.  0.
<mgrwt>
<rscale>  0 0.95435127E+03</rscale>
<asrwt>0</asrwt>
<pdfrwt beam="1">  1        2 0.11763584E+00 0.10166597E+04</pdfrwt>
<pdfrwt beam="2">  1       -2 0.19736066E+00 0.10166597E+04</pdfrwt>
<totfact> 0.50182392E+00</totfact>
</mgrwt>
</event>
<event>
 4    1  0.2089815E-007  0.7128758E+03  0.7818608E-02  0.9947473E-01
          2   -1    0    0  501    0  0.00000000000E+00  0.00000000000E+00  0.52292817336E+03  0.52292817337E+03  0.25500000000E-02 0. -1.
         -2   -1    0    0    0  501 -0.00000000000E+00 -0.00000000000E+00 -0.99214562632E+03  0.99214562633E+03  0.25500000000E-02 0.  1.
    8880023    1    1    2    0    0  0.57820799495E+02 -0.26653027247E+03  0.23005234811E+03  0.74907671178E+03  0.65864270000E+03 0.  0.
    8880022    1    1    2    0    0 -0.57820799495E+02  0.26653027247E+03 -0.69926980107E+03  0.76599708792E+03  0.15294330000E+03 0.  1.
<mgrwt>
<rscale>  0 0.58014681E+03</rscale>
<asrwt>0</asrwt>
<pdfrwt beam="1">  1        2 0.80450489E-01 0.71287575E+03</pdfrwt>
<pdfrwt beam="2">  1       -2 0.15263779E+00 0.71287575E+03</pdfrwt>
<totfact> 0.17007581E+01</totfact>
</mgrwt>
</event>
<event>
 4    1  0.2089815E-007  0.9464305E+03  0.7818608E-02  0.9455269E-01
         -2   -1    0    0    0  501 -0.00000000000E+00  0.00000000000E+00  0.79271689933E+03  0.79271689934E+03  0.25500000000E-02 0.  1.
          2   -1    0    0  501    0  0.00000000000E+00 -0.00000000000E+00 -0.10290105110E+04  0.10290105110E+04  0.25500000000E-02 0. -1.
    8880023    1    1    2    0    0  0.61500786648E+03 -0.28928497407E+03 -0.50779041285E+03  0.10740492455E+04  0.65864270000E+03 0.  0.
    8880022    1    1    2    0    0 -0.61500786648E+03  0.28928497407E+03  0.27149680123E+03  0.74767816482E+03  0.15294330000E+03 0.  0.
<mgrwt>
<rscale>  0 0.87663577E+03</rscale>
<asrwt>0</asrwt>
<pdfrwt beam="1">  1        2 0.15830931E+00 0.94643049E+03</pdfrwt>
<pdfrwt beam="2">  1       -2 0.12195645E+00 0.94643049E+03</pdfrwt>
<totfact> 0.12274546E+01</totfact>
</mgrwt>
</event>
<event>
 4    1  0.2089815E-007  0.8545283E+03  0.7818608E-02  0.9603372E-01
          2   -1    0    0  501    0  0.00000000000E+00  0.00000000000E+00  0.18780768580E+04  0.18780768580E+04  0.25500000000E-02 0. -1.
         -2   -1    0    0    0  501 -0.00000000000E+00 -0.00000000000E+00 -0.13361857576E+04  0.13361857576E+04  0.25500000000E-02 0.  1.
    8880023    1    1    2    0    0 -0.41245540876E+03 -0.35537157521E+03  0.17126952798E+04  0.19140385963E+04  0.65864270000E+03 0. -1.
    8880022    1    1    2    0    0  0.41245540876E+03  0.35537157521E+03 -0.11708041794E+04  0.13002240192E+04  0.15294330000E+03 0.  0.
<mgrwt>
<rscale>  0 0.77073425E+03</rscale>
<asrwt>0</asrwt>
<pdfrwt beam="1">  1        2 0.28893490E+00 0.85452831E+03</pdfrwt>
<pdfrwt beam="2">  1       -2 0.20556704E+00 0.85452831E+03</pdfrwt>
<totfact> 0.97551536E-01</totfact>
</mgrwt>
</event>
<event>
 4    1  0.2089815E-007  0.9384981E+03  0.7818608E-02  0.9466859E-01
         -2   -1    0    0    0  501 -0.00000000000E+00  0.00000000000E+00  0.67030665300E+03  0.67030665301E+03  0.25500000000E-02 0.  1.
          2   -1    0    0  501    0  0.00000000000E+00 -0.00000000000E+00 -0.25539890122E+04  0.25539890122E+04  0.25500000000E-02 0. -1.
    8880023    1    1    2    0    0 -0.17292756202E+03 -0.64580540360E+03  0.25977827602E+03  0.97378823159E+03  0.65864270000E+03 0.  0.
    8880022    1    1    2    0    0  0.17292756202E+03  0.64580540360E+03 -0.21434606352E+04  0.22505074336E+04  0.15294330000E+03 0.  0.
<mgrwt>
<rscale>  0 0.86771856E+03</rscale>
<asrwt>0</asrwt>
<pdfrwt beam="1">  1        2 0.39292138E+00 0.93849814E+03</pdfrwt>
<pdfrwt beam="2">  1       -2 0.10312410E+00 0.93849814E+03</pdfrwt>
<totfact> 0.25318131E+00</totfact>
</mgrwt>
</event>
<event>
 4    1  0.2089815E-007  0.8594169E+03  0.7818608E-02  0.9594601E-01
         -2   -1    0    0    0  501 -0.00000000000E+00  0.00000000000E+00  0.26643663616E+03  0.26643663618E+03  0.25500000000E-02 0.  1.
          2   -1    0    0  501    0  0.00000000000E+00 -0.00000000000E+00 -0.25729956585E+04  0.25729956585E+04  0.25500000000E-02 0. -1.
    8880023    1    1    2    0    0  0.13088761296E+03  0.53633540333E+03 -0.20276754863E+04  0.22022863837E+04  0.65864270000E+03 0.  0.
    8880022    1    1    2    0    0 -0.13088761296E+03 -0.53633540333E+03 -0.27888353601E+03  0.63714591089E+03  0.15294330000E+03 0.  0.
<mgrwt>
<rscale>  0 0.77654522E+03</rscale>
<asrwt>0</asrwt>
<pdfrwt beam="1">  1        2 0.39584547E+00 0.85941692E+03</pdfrwt>
<pdfrwt beam="2">  1       -2 0.40990253E-01 0.85941692E+03</pdfrwt>
<totfact> 0.18350219E+01</totfact>
</mgrwt>
</event>
<event>
 4    1  0.2089815E-007  0.8523020E+03  0.7818608E-02  0.9607406E-01
          2   -1    0    0  501    0  0.00000000000E+00  0.00000000000E+00  0.10578786672E+04  0.10578786672E+04  0.25500000000E-02 0. -1.
         -2   -1    0    0    0  501 -0.00000000000E+00 -0.00000000000E+00 -0.52671868532E+03  0.52671868533E+03  0.25500000000E-02 0.  1.
    8880023    1    1    2    0    0 -0.54074685033E+03  0.14188257500E+02  0.56315459907E+03  0.10215487123E+04  0.65864270000E+03 0.  0.
    8880022    1    1    2    0    0  0.54074685033E+03 -0.14188257500E+02 -0.31994617176E+02  0.56304864029E+03  0.15294330000E+03 0.  0.
<mgrwt>
<rscale>  0 0.76807924E+03</rscale>
<asrwt>0</asrwt>
<pdfrwt beam="1">  1        2 0.16275056E+00 0.85230198E+03</pdfrwt>
<pdfrwt beam="2">  1       -2 0.81033645E-01 0.85230198E+03</pdfrwt>
<totfact> 0.31303592E+01</totfact>
</mgrwt>
</event>
<event>
 4    1  0.2089815E-007  0.1167247E+04  0.7818608E-02  0.9189637E-01
         -2   -1    0    0    0  501 -0.00000000000E+00  0.00000000000E+00  0.68314981066E+03  0.68314981066E+03  0.25500000000E-02 0.  1.
          2   -1    0    0  501    0  0.00000000000E+00 -0.00000000000E+00 -0.17526435788E+04  0.17526435788E+04  0.25500000000E-02 0. -1.
    8880023    1    1    2    0    0 -0.43418296216E+03  0.86031392438E+03 -0.82658655425E+03  0.14302833394E+04  0.65864270000E+03 0.  1.
    8880022    1    1    2    0    0  0.43418296216E+03 -0.86031392438E+03 -0.24290721387E+03  0.10055100500E+04  0.15294330000E+03 0.  0.
<mgrwt>
<rscale>  0 0.11161030E+04</rscale>
<asrwt>0</asrwt>
<pdfrwt beam="1">  1        2 0.26963747E+00 0.11672468E+04</pdfrwt>
<pdfrwt beam="2">  1       -2 0.10509997E+00 0.11672468E+04</pdfrwt>
<totfact> 0.65902707E+00</totfact>
</mgrwt>
</event>
<event>
 4    1  0.2089815E-007  0.8674579E+03  0.7818608E-02  0.9580432E-01
          2   -1    0    0  501    0  0.00000000000E+00  0.00000000000E+00  0.16293556687E+04  0.16293556687E+04  0.25500000000E-02 0. -1.
         -2   -1    0    0    0  501 -0.00000000000E+00 -0.00000000000E+00 -0.66129805000E+03  0.66129805001E+03  0.25500000000E-02 0.  1.
    8880023    1    1    2    0    0 -0.51704721829E+03  0.22657279170E+03  0.13409217291E+04  0.15970455052E+04  0.65864270000E+03 0. -1.
    8880022    1    1    2    0    0  0.51704721829E+03 -0.22657279170E+03 -0.37286411045E+03  0.69360821345E+03  0.15294330000E+03 0.  0.
<mgrwt>
<rscale>  0 0.78604942E+03</rscale>
<asrwt>0</asrwt>
<pdfrwt beam="1">  1        2 0.25067010E+00 0.86745793E+03</pdfrwt>
<pdfrwt beam="2">  1       -2 0.10173816E+00 0.86745793E+03</pdfrwt>
<totfact> 0.86104313E+00</totfact>
</mgrwt>
</event>
<event>
 4    1  0.2089815E-007  0.1404479E+04  0.7818608E-02  0.8980210E-01
         -2   -1    0    0    0  501 -0.00000000000E+00  0.00000000000E+00  0.85123149225E+03  0.85123149226E+03  0.25500000000E-02 0.  1.
          2   -1    0    0  501    0  0.00000000000E+00 -0.00000000000E+00 -0.25925514594E+04  0.25925514594E+04  0.25500000000E-02 0. -1.
    8880023    1    1    2    0    0  0.12351197444E+04  0.11501987672E+03 -0.16837261387E+04  0.21925998886E+04  0.65864270000E+03 0.  0.
    8880022    1    1    2    0    0 -0.12351197444E+04 -0.11501987672E+03 -0.57593828396E+02  0.12511830630E+04  0.15294330000E+03 0.  0.
<mgrwt>
<rscale>  0 0.13641164E+04</rscale>
<asrwt>0</asrwt>
<pdfrwt beam="1">  1        2 0.39885407E+00 0.14044788E+04</pdfrwt>
<pdfrwt beam="2">  1       -2 0.13095869E+00 0.14044788E+04</pdfrwt>
<totfact> 0.12548866E+00</totfact>
</mgrwt>
</event>
<event>
 4    1  0.2089815E-007  0.7402049E+03  0.7818608E-02  0.9859351E-01
         -2   -1    0    0    0  501 -0.00000000000E+00  0.00000000000E+00  0.20722518536E+03  0.20722518538E+03  0.25500000000E-02 0.  1.
          2   -1    0    0  501    0  0.00000000000E+00 -0.00000000000E+00 -0.20791419030E+04  0.20791419030E+04  0.25500000000E-02 0. -1.
    8880023    1    1    2    0    0  0.21276154577E+03 -0.26234635798E+03 -0.17432445470E+04  0.18938861749E+04  0.65864270000E+03 0.  0.
    8880022    1    1    2    0    0 -0.21276154577E+03  0.26234635798E+03 -0.12867217072E+03  0.39248091347E+03  0.15294330000E+03 0.  0.
<mgrwt>
<rscale>  0 0.62272425E+03</rscale>
<asrwt>0</asrwt>
<pdfrwt beam="1">  1        2 0.31986797E+00 0.74020490E+03</pdfrwt>
<pdfrwt beam="2">  1       -2 0.31880799E-01 0.74020490E+03</pdfrwt>
<totfact> 0.56966753E+01</totfact>
</mgrwt>
</event>
<event>
 4    1  0.2089815E-007  0.1795402E+04  0.7818608E-02  0.8725084E-01
          2   -1    0    0  501    0  0.00000000000E+00  0.00000000000E+00  0.44964390551E+04  0.44964390551E+04  0.25500000000E-02 0. -1.
         -2   -1    0    0    0  501 -0.00000000000E+00 -0.00000000000E+00 -0.14034245550E+04  0.14034245550E+04  0.25500000000E-02 0.  1.
    8880023    1    1    2    0    0  0.95647821304E+03  0.13692356038E+04  0.37028972097E+04  0.41152053001E+04  0.65864270000E+03 0.  0.
    8880022    1    1    2    0    0 -0.95647821304E+03 -0.13692356038E+04 -0.60988270954E+03  0.17846583099E+04  0.15294330000E+03 0.  0.
<mgrwt>
<rscale>  0 0.17650961E+04</rscale>
<asrwt>0</asrwt>
<pdfrwt beam="1">  1        2 0.69175985E+00 0.17954016E+04</pdfrwt>
<pdfrwt beam="2">  1       -2 0.21591147E+00 0.17954016E+04</pdfrwt>
<totfact> 0.12006634E-02</totfact>
</mgrwt>
</event>
<event>
 4    1  0.2089815E-007  0.9624185E+03  0.7818608E-02  0.9432467E-01
         -2   -1    0    0    0  501 -0.00000000000E+00  0.00000000000E+00  0.60286895381E+03  0.60286895382E+03  0.25500000000E-02 0.  1.
          2   -1    0    0  501    0  0.00000000000E+00 -0.00000000000E+00 -0.24452533105E+04  0.24452533105E+04  0.25500000000E-02 0. -1.
    8880023    1    1    2    0    0 -0.63076606012E+03 -0.30752785027E+03 -0.20798006393E+04  0.22916849929E+04  0.65864270000E+03 0.  0.
    8880022    1    1    2    0    0  0.63076606012E+03  0.30752785027E+03  0.23741628262E+03  0.75643727139E+03  0.15294330000E+03 0.  0.
<mgrwt>
<rscale>  0 0.89451246E+03</rscale>
<asrwt>0</asrwt>
<pdfrwt beam="1">  1        2 0.37619281E+00 0.96241852E+03</pdfrwt>
<pdfrwt beam="2">  1       -2 0.92749071E-01 0.96241852E+03</pdfrwt>
<totfact> 0.37400655E+00</totfact>
</mgrwt>
</event>
<event>
 4    1  0.2089815E-007  0.7083476E+03  0.7818608E-02  0.9964189E-01
          2   -1    0    0  501    0  0.00000000000E+00  0.00000000000E+00  0.37799773572E+04  0.37799773572E+04  0.25500000000E-02 0. -1.
         -2   -1    0    0    0  501 -0.00000000000E+00 -0.00000000000E+00 -0.25073553896E+03  0.25073553897E+03  0.25500000000E-02 0.  1.
    8880023    1    1    2    0    0  0.36640010922E+02 -0.25807665029E+03  0.36404172307E+04  0.37086916652E+04  0.65864270000E+03 0. -1.
    8880022    1    1    2    0    0 -0.36640010922E+02  0.25807665029E+03 -0.11117541247E+03  0.32202123094E+03  0.15294330000E+03 0.  0.
<mgrwt>
<rscale>  0 0.57248756E+03</rscale>
<asrwt>0</asrwt>
<pdfrwt beam="1">  1        2 0.58153498E+00 0.70834755E+03</pdfrwt>
<pdfrwt beam="2">  1       -2 0.38574698E-01 0.70834755E+03</pdfrwt>
<totfact> 0.35749863E+00</totfact>
</mgrwt>
</event>
<event>
 4    1  0.2089815E-007  0.8212266E+03  0.7818608E-02  0.9666650E-01
         -2   -1    0    0    0  501 -0.00000000000E+00  0.00000000000E+00  0.73995673442E+03  0.73995673442E+03  0.25500000000E-02 0.  1.
          2   -1    0    0  501    0  0.00000000000E+00 -0.00000000000E+00 -0.77902106580E+03  0.77902106580E+03  0.25500000000E-02 0. -1.
    8880023    1    1    2    0    0 -0.19286314555E+03 -0.45100641056E+03 -0.37738758326E+03  0.90378900720E+03  0.65864270000E+03 0. -1.
    8880022    1    1    2    0    0  0.19286314555E+03  0.45100641056E+03  0.33832325188E+03  0.61518879302E+03  0.15294330000E+03 0.  0.
<mgrwt>
<rscale>  0 0.73037627E+03</rscale>
<asrwt>0</asrwt>
<pdfrwt beam="1">  1        2 0.11984940E+00 0.82122663E+03</pdfrwt>
<pdfrwt beam="2">  1       -2 0.11383950E+00 0.82122663E+03</pdfrwt>
<totfact> 0.21735461E+01</totfact>
</mgrwt>
</event>
<event>
 4    1  0.3799262E-007  0.1025337E+04  0.7818608E-02  0.9349134E-01
          2   -1    0    0  501    0  0.00000000000E+00  0.00000000000E+00  0.30537066641E+04  0.30537066641E+04  0.25500000000E-02 0. -1.
         -2   -1    0    0    0  501 -0.00000000000E+00 -0.00000000000E+00 -0.14627347113E+04  0.14627347113E+04  0.25500000000E-02 0.  1.
    8880023    1    1    2    0    0  0.58706776256E+03 -0.52235803864E+03  0.28475429020E+04  0.30265190010E+04  0.65864270000E+03 0. -1.
    8880022    1    1    2    0    0 -0.58706776256E+03  0.52235803864E+03 -0.12565709491E+04  0.14899223744E+04  0.15294330000E+03 0.  0.
<mgrwt>
<rscale>  0 0.96382616E+03</rscale>
<asrwt>0</asrwt>
<pdfrwt beam="1">  1        2 0.46980102E+00 0.10253374E+04</pdfrwt>
<pdfrwt beam="2">  1       -2 0.22503611E+00 0.10253374E+04</pdfrwt>
<totfact> 0.15026747E-01</totfact>
</mgrwt>
</event>
<event>
 4    1  0.2089815E-007  0.7561817E+03  0.7818608E-02  0.9815095E-01
          2   -1    0    0  501    0  0.00000000000E+00  0.00000000000E+00  0.35001201693E+04  0.35001201693E+04  0.25500000000E-02 0. -1.
         -2   -1    0    0    0  501 -0.00000000000E+00 -0.00000000000E+00 -0.29423428424E+03  0.29423428425E+03  0.25500000000E-02 0.  1.
    8880023    1    1    2    0    0 -0.37024856853E+02  0.36963461665E+03  0.32968407892E+04  0.33824502931E+04  0.65864270000E+03 0. -1.
    8880022    1    1    2    0    0  0.37024856853E+02 -0.36963461665E+03 -0.90954904060E+02  0.41190416051E+03  0.15294330000E+03 0.  0.
<mgrwt>
<rscale>  0 0.64558728E+03</rscale>
<asrwt>0</asrwt>
<pdfrwt beam="1">  1        2 0.53848002E+00 0.75618172E+03</pdfrwt>
<pdfrwt beam="2">  1       -2 0.45266814E-01 0.75618172E+03</pdfrwt>
<totfact> 0.40758662E+00</totfact>
</mgrwt>
</event>
<event>
 4    1  0.2089815E-007  0.1704989E+04  0.7818608E-02  0.8776997E-01
          2   -1    0    0  501    0  0.00000000000E+00  0.00000000000E+00  0.33966351269E+04  0.33966351269E+04  0.25500000000E-02 0. -1.
         -2   -1    0    0    0  501 -0.00000000000E+00 -0.00000000000E+00 -0.30064604119E+04  0.30064604119E+04  0.25500000000E-02 0.  1.
    8880023    1    1    2    0    0  0.10751060921E+04  0.11477480602E+04 -0.25486935181E+04  0.30664030352E+04  0.65864270000E+03 0.  0.
    8880022    1    1    2    0    0 -0.10751060921E+04 -0.11477480602E+04  0.29388682331E+04  0.33366925035E+04  0.15294330000E+03 0.  0.
<mgrwt>
<rscale>  0 0.16728586E+04</rscale>
<asrwt>0</asrwt>
<pdfrwt beam="1">  1        2 0.52255925E+00 0.17049894E+04</pdfrwt>
<pdfrwt beam="2">  1       -2 0.46253237E+00 0.17049894E+04</pdfrwt>
<totfact> 0.25091097E-03</totfact>
</mgrwt>
</event>
<event>
 4    1  0.2089815E-007  0.1074922E+04  0.7818608E-02  0.9289505E-01
         -2   -1    0    0    0  501 -0.00000000000E+00  0.00000000000E+00  0.71362049045E+03  0.71362049045E+03  0.25500000000E-02 0.  1.
          2   -1    0    0  501    0  0.00000000000E+00 -0.00000000000E+00 -0.23647426474E+04  0.23647426474E+04  0.25500000000E-02 0. -1.
    8880023    1    1    2    0    0 -0.45082691123E+03  0.72000161436E+03 -0.18974259118E+04  0.21807527429E+04  0.65864270000E+03 0.  0.
    8880022    1    1    2    0    0  0.45082691123E+03 -0.72000161436E+03  0.24630375481E+03  0.89761039500E+03  0.15294330000E+03 0.  0.
<mgrwt>
<rscale>  0 0.10175485E+04</rscale>
<asrwt>0</asrwt>
<pdfrwt beam="1">  1        2 0.36380656E+00 0.10749221E+04</pdfrwt>
<pdfrwt beam="2">  1       -2 0.10978777E+00 0.10749221E+04</pdfrwt>
<totfact> 0.27364521E+00</totfact>
</mgrwt>
</event>
<event>
 4    1  0.2089815E-007  0.7577318E+03  0.7818608E-02  0.9811015E-01
          2   -1    0    0  501    0  0.00000000000E+00  0.00000000000E+00  0.12094353096E+04  0.12094353096E+04  0.25500000000E-02 0. -1.
         -2   -1    0    0    0  501 -0.00000000000E+00 -0.00000000000E+00 -0.55038382861E+03  0.55038382861E+03  0.25500000000E-02 0.  1.
    8880023    1    1    2    0    0  0.30962125501E+03 -0.21090750388E+03  0.98323062804E+03  0.12413299203E+04  0.65864270000E+03 0.  0.
    8880022    1    1    2    0    0 -0.30962125501E+03  0.21090750388E+03 -0.32417914704E+03  0.51848921796E+03  0.15294330000E+03 0.  0.
<mgrwt>
<rscale>  0 0.64774735E+03</rscale>
<asrwt>0</asrwt>
<pdfrwt beam="1">  1        2 0.18606697E+00 0.75773181E+03</pdfrwt>
<pdfrwt beam="2">  1       -2 0.84674435E-01 0.75773181E+03</pdfrwt>
<totfact> 0.23139996E+01</totfact>
</mgrwt>
</event>
<event>
 4    1  0.2089815E-007  0.1557292E+04  0.7818608E-02  0.8870205E-01
          2   -1    0    0  501    0  0.00000000000E+00  0.00000000000E+00  0.18321006023E+04  0.18321006023E+04  0.25500000000E-02 0. -1.
         -2   -1    0    0    0  501 -0.00000000000E+00 -0.00000000000E+00 -0.14923992278E+04  0.14923992278E+04  0.25500000000E-02 0.  1.
    8880023    1    1    2    0    0  0.12452961690E+04 -0.66376540966E+03  0.89982296409E+03  0.17985657176E+04  0.65864270000E+03 0. -1.
    8880022    1    1    2    0    0 -0.12452961690E+04  0.66376540966E+03 -0.56012158964E+03  0.15259341125E+04  0.15294330000E+03 0.  0.
<mgrwt>
<rscale>  0 0.15216151E+04</rscale>
<asrwt>0</asrwt>
<pdfrwt beam="1">  1        2 0.28186163E+00 0.15572916E+04</pdfrwt>
<pdfrwt beam="2">  1       -2 0.22959988E+00 0.15572916E+04</pdfrwt>
<totfact> 0.66463748E-01</totfact>
</mgrwt>
</event>
<event>
 4    1  0.2089815E-007  0.9402067E+03  0.7818608E-02  0.9464347E-01
          2   -1    0    0  501    0  0.00000000000E+00  0.00000000000E+00  0.10878746655E+04  0.10878746655E+04  0.25500000000E-02 0. -1.
         -2   -1    0    0    0  501 -0.00000000000E+00 -0.00000000000E+00 -0.14342395219E+04  0.14342395219E+04  0.25500000000E-02 0.  1.
    8880023    1    1    2    0    0 -0.47372578966E+02  0.66927891541E+03  0.76690936562E+03  0.12133171923E+04  0.65864270000E+03 0. -1.
    8880022    1    1    2    0    0  0.47372578966E+02 -0.66927891541E+03 -0.11132742220E+04  0.13087969950E+04  0.15294330000E+03 0.  0.
<mgrwt>
<rscale>  0 0.86964206E+03</rscale>
<asrwt>0</asrwt>
<pdfrwt beam="1">  1        2 0.16736533E+00 0.94020670E+03</pdfrwt>
<pdfrwt beam="2">  1       -2 0.22065223E+00 0.94020670E+03</pdfrwt>
<totfact> 0.21724482E+00</totfact>
</mgrwt>
</event>
<event>
 4    1  0.2089815E-007  0.6613857E+03  0.7818608E-02  0.1022780E+00
          2   -1    0    0  501    0  0.00000000000E+00  0.00000000000E+00  0.10768047478E+04  0.10768047478E+04  0.25500000000E-02 0. -1.
         -2   -1    0    0    0  501 -0.00000000000E+00 -0.00000000000E+00 -0.17568905968E+03  0.17568905969E+03  0.25500000000E-02 0.  1.
    8880023    1    1    2    0    0 -0.10537350100E+02 -0.59243571673E+02  0.85659946198E+03  0.10822170212E+04  0.65864270000E+03 0.  0.
    8880022    1    1    2    0    0  0.10537350100E+02  0.59243571673E+02  0.44516226137E+02  0.17027678625E+03  0.15294330000E+03 0.  0.
<mgrwt>
<rscale>  0 0.46696752E+03</rscale>
<asrwt>0</asrwt>
<pdfrwt beam="1">  1        2 0.16566227E+00 0.66138570E+03</pdfrwt>
<pdfrwt beam="2">  1       -2 0.27029086E-01 0.66138570E+03</pdfrwt>
<totfact> 0.28387937E+02</totfact>
</mgrwt>
</event>
<event>
 4    1  0.2089815E-007  0.7245781E+03  0.7818608E-02  0.9907389E-01
          2   -1    0    0  501    0  0.00000000000E+00  0.00000000000E+00  0.60590090954E+03  0.60590090954E+03  0.25500000000E-02 0. -1.
         -2   -1    0    0    0  501 -0.00000000000E+00 -0.00000000000E+00 -0.10587998011E+04  0.10587998011E+04  0.25500000000E-02 0.  1.
    8880023    1    1    2    0    0  0.25241474917E+02  0.30094191132E+03  0.34161919024E+03  0.80107243333E+03  0.65864270000E+03 0. -1.
    8880022    1    1    2    0    0 -0.25241474917E+02 -0.30094191132E+03 -0.79451808179E+03  0.86362827730E+03  0.15294330000E+03 0.  0.
<mgrwt>
<rscale>  0 0.59904509E+03</rscale>
<asrwt>0</asrwt>
<pdfrwt beam="1">  1        2 0.93215525E-01 0.72457807E+03</pdfrwt>
<pdfrwt beam="2">  1       -2 0.16289228E+00 0.72457807E+03</pdfrwt>
<totfact> 0.11969608E+01</totfact>
</mgrwt>
</event>
<event>
 4    1  0.2089815E-007  0.1267020E+04  0.7818608E-02  0.9094576E-01
          2   -1    0    0  501    0  0.00000000000E+00  0.00000000000E+00  0.32293934881E+04  0.32293934881E+04  0.25500000000E-02 0. -1.
         -2   -1    0    0    0  501 -0.00000000000E+00 -0.00000000000E+00 -0.11646070985E+04  0.11646070985E+04  0.25500000000E-02 0.  1.
    8880023    1    1    2    0    0 -0.10389231700E+04  0.30359274460E+03  0.28022482953E+04  0.30753756880E+04  0.65864270000E+03 0.  0.
    8880022    1    1    2    0    0  0.10389231700E+04 -0.30359274460E+03 -0.73746190579E+03  0.13186248986E+04  0.15294330000E+03 0.  1.
<mgrwt>
<rscale>  0 0.12211108E+04</rscale>
<asrwt>0</asrwt>
<pdfrwt beam="1">  1        2 0.49682976E+00 0.12670202E+04</pdfrwt>
<pdfrwt beam="2">  1       -2 0.17917032E+00 0.12670202E+04</pdfrwt>
<totfact> 0.22272454E-01</totfact>
</mgrwt>
</event>
<event>
 4    1  0.2089815E-007  0.8314047E+03  0.7818608E-02  0.9646605E-01
          2   -1    0    0  501    0  0.00000000000E+00  0.00000000000E+00  0.48739933250E+03  0.48739933250E+03  0.25500000000E-02 0. -1.
         -2   -1    0    0    0  501 -0.00000000000E+00 -0.00000000000E+00 -0.11420817044E+04  0.11420817044E+04  0.25500000000E-02 0.  1.
    8880023    1    1    2    0    0  0.90921730516E+02 -0.49915608354E+03 -0.60916126214E+02  0.83363333517E+03  0.65864270000E+03 0.  0.
    8880022    1    1    2    0    0 -0.90921730516E+02  0.49915608354E+03 -0.59376624567E+03  0.79584770172E+03  0.15294330000E+03 0.  0.
<mgrwt>
<rscale>  0 0.74286848E+03</rscale>
<asrwt>0</asrwt>
<pdfrwt beam="1">  1        2 0.74984513E-01 0.83140469E+03</pdfrwt>
<pdfrwt beam="2">  1       -2 0.17570488E+00 0.83140469E+03</pdfrwt>
<totfact> 0.12424034E+01</totfact>
</mgrwt>
</event>
<event>
 4    1  0.2089815E-007  0.1301462E+04  0.7818608E-02  0.9064299E-01
         -2   -1    0    0    0  501 -0.00000000000E+00  0.00000000000E+00  0.11097539380E+04  0.11097539380E+04  0.25500000000E-02 0.  1.
          2   -1    0    0  501    0  0.00000000000E+00 -0.00000000000E+00 -0.21804383576E+04  0.21804383576E+04  0.25500000000E-02 0. -1.
    8880023    1    1    2    0    0  0.97361395817E+03 -0.55863101834E+03 -0.15809338409E+04  0.20477194070E+04  0.65864270000E+03 0.  0.
    8880022    1    1    2    0    0 -0.97361395817E+03  0.55863101834E+03  0.51024942125E+03  0.12424728887E+04  0.15294330000E+03 0.  1.
<mgrwt>
<rscale>  0 0.12570952E+04</rscale>
<asrwt>0</asrwt>
<pdfrwt beam="1">  1        2 0.33545205E+00 0.13014619E+04</pdfrwt>
<pdfrwt beam="2">  1       -2 0.17073138E+00 0.13014619E+04</pdfrwt>
<totfact> 0.10726257E+00</totfact>
</mgrwt>
</event>
<event>
 4    1  0.2089815E-007  0.7656568E+03  0.7818608E-02  0.9790677E-01
          2   -1    0    0  501    0  0.00000000000E+00  0.00000000000E+00  0.48726166463E+03  0.48726166463E+03  0.25500000000E-02 0. -1.
         -2   -1    0    0    0  501 -0.00000000000E+00 -0.00000000000E+00 -0.13300911676E+04  0.13300911676E+04  0.25500000000E-02 0.  1.
    8880023    1    1    2    0    0  0.19401310193E+03 -0.33879050288E+03  0.11266905137E+03  0.77390219664E+03  0.65864270000E+03 0. -1.
    8880022    1    1    2    0    0 -0.19401310193E+03  0.33879050288E+03 -0.95549855435E+03  0.10434506356E+04  0.15294330000E+03 0.  0.
<mgrwt>
<rscale>  0 0.65865286E+03</rscale>
<asrwt>0</asrwt>
<pdfrwt beam="1">  1        2 0.74963333E-01 0.76565677E+03</pdfrwt>
<pdfrwt beam="2">  1       -2 0.20462941E+00 0.76565677E+03</pdfrwt>
<totfact> 0.80152051E+00</totfact>
</mgrwt>
</event>
<event>
 4    1  0.2089815E-007  0.1075312E+04  0.7818608E-02  0.9289054E-01
         -2   -1    0    0    0  501 -0.00000000000E+00  0.00000000000E+00  0.23479757924E+04  0.23479757924E+04  0.25500000000E-02 0.  1.
          2   -1    0    0  501    0  0.00000000000E+00 -0.00000000000E+00 -0.11193952802E+04  0.11193952802E+04  0.25500000000E-02 0. -1.
    8880023    1    1    2    0    0  0.83072444748E+03  0.17995303861E+03 -0.74831085386E+03  0.13100631832E+04  0.65864270000E+03 0.  0.
    8880022    1    1    2    0    0 -0.83072444748E+03 -0.17995303861E+03  0.19768913660E+04  0.21573078894E+04  0.15294330000E+03 0.  0.
<mgrwt>
<rscale>  0 0.10179687E+04</rscale>
<asrwt>0</asrwt>
<pdfrwt beam="1">  1        2 0.17221466E+00 0.10753122E+04</pdfrwt>
<pdfrwt beam="2">  1       -2 0.36122705E+00 0.10753122E+04</pdfrwt>
<totfact> 0.28012432E-01</totfact>
</mgrwt>
</event>
<event>
 4    1  0.2089815E-007  0.9683080E+03  0.7818608E-02  0.9424248E-01
         -2   -1    0    0    0  501 -0.00000000000E+00  0.00000000000E+00  0.41107463605E+03  0.41107463606E+03  0.25500000000E-02 0.  1.
          2   -1    0    0  501    0  0.00000000000E+00 -0.00000000000E+00 -0.33561999159E+04  0.33561999159E+04  0.25500000000E-02 0. -1.
    8880023    1    1    2    0    0  0.54441720505E+03 -0.45543390521E+03 -0.28798242416E+04  0.30382573959E+04  0.65864270000E+03 0. -1.
    8880022    1    1    2    0    0 -0.54441720505E+03  0.45543390521E+03 -0.65301038241E+02  0.72901715602E+03  0.15294330000E+03 0.  0.
<mgrwt>
<rscale>  0 0.90106733E+03</rscale>
<asrwt>0</asrwt>
<pdfrwt beam="1">  1        2 0.51633843E+00 0.96830798E+03</pdfrwt>
<pdfrwt beam="2">  1       -2 0.63242254E-01 0.96830798E+03</pdfrwt>
<totfact> 0.24529509E+00</totfact>
</mgrwt>
</event>
<event>
 4    1  0.2089815E-007  0.7753133E+03  0.7818608E-02  0.9766964E-01
         -2   -1    0    0    0  501 -0.00000000000E+00  0.00000000000E+00  0.52357835424E+03  0.52357835425E+03  0.25500000000E-02 0.  1.
          2   -1    0    0  501    0  0.00000000000E+00 -0.00000000000E+00 -0.17202860945E+04  0.17202860945E+04  0.25500000000E-02 0. -1.
    8880023    1    1    2    0    0 -0.40888027563E+03  0.10836282736E+02 -0.15161012610E+04  0.17028428420E+04  0.65864270000E+03 0.  0.
    8880022    1    1    2    0    0  0.40888027563E+03 -0.10836282736E+02  0.31939352074E+03  0.54102160671E+03  0.15294330000E+03 0.  0.
<mgrwt>
<rscale>  0 0.67166007E+03</rscale>
<asrwt>0</asrwt>
<pdfrwt beam="1">  1        2 0.26465940E+00 0.77531330E+03</pdfrwt>
<pdfrwt beam="2">  1       -2 0.80550517E-01 0.77531330E+03</pdfrwt>
<totfact> 0.13334037E+01</totfact>
</mgrwt>
</event>
<event>
 4    1  0.2089815E-007  0.6893263E+03  0.7818608E-02  0.1004474E+00
          2   -1    0    0  501    0  0.00000000000E+00  0.00000000000E+00  0.36059968066E+04  0.36059968066E+04  0.25500000000E-02 0. -1.
         -2   -1    0    0    0  501 -0.00000000000E+00 -0.00000000000E+00 -0.96291028349E+02  0.96291028383E+02  0.25500000000E-02 0.  1.
    8880023    1    1    2    0    0 -0.18365560287E+03  0.87356179861E+02  0.33038126734E+04  0.33749590916E+04  0.65864270000E+03 0. -1.
    8880022    1    1    2    0    0  0.18365560287E+03 -0.87356179861E+02  0.20589310487E+03  0.32732874343E+03  0.15294330000E+03 0.  0.
<mgrwt>
<rscale>  0 0.53731056E+03</rscale>
<asrwt>0</asrwt>
<pdfrwt beam="1">  1        2 0.55476877E+00 0.68932626E+03</pdfrwt>
<pdfrwt beam="2">  1       -2 0.14814004E-01 0.68932626E+03</pdfrwt>
<totfact> 0.26726376E+01</totfact>
</mgrwt>
</event>
<event>
 4    1  0.2089815E-007  0.1963595E+04  0.7818608E-02  0.8637062E-01
          2   -1    0    0  501    0  0.00000000000E+00  0.00000000000E+00  0.25148068336E+04  0.25148068336E+04  0.25500000000E-02 0. -1.
         -2   -1    0    0    0  501 -0.00000000000E+00 -0.00000000000E+00 -0.21974995131E+04  0.21974995131E+04  0.25500000000E-02 0.  1.
    8880023    1    1    2    0    0 -0.17493186817E+04 -0.60148065922E+03  0.15350069631E+04  0.24923786663E+04  0.65864270000E+03 0.  0.
    8880022    1    1    2    0    0  0.17493186817E+04  0.60148065922E+03 -0.12176996426E+04  0.22199276804E+04  0.15294330000E+03 0.  0.
<mgrwt>
<rscale>  0 0.19361638E+04</rscale>
<asrwt>0</asrwt>
<pdfrwt beam="1">  1        2 0.38689336E+00 0.19635949E+04</pdfrwt>
<pdfrwt beam="2">  1       -2 0.33807685E+00 0.19635949E+04</pdfrwt>
<totfact> 0.56023153E-02</totfact>
</mgrwt>
</event>
<event>
 4    1  0.2089815E-007  0.7419109E+03  0.7818608E-02  0.9854415E-01
         -2   -1    0    0    0  501 -0.00000000000E+00  0.00000000000E+00  0.14135392008E+04  0.14135392008E+04  0.25500000000E-02 0.  1.
          2   -1    0    0  501    0  0.00000000000E+00 -0.00000000000E+00 -0.88768801397E+03  0.88768801397E+03  0.25500000000E-02 0. -1.
    8880023    1    1    2    0    0  0.32932743052E+03 -0.90360131053E+02 -0.69970997641E+03  0.10198165360E+04  0.65864270000E+03 0. -1.
    8880022    1    1    2    0    0 -0.32932743052E+03  0.90360131053E+02  0.12255611633E+04  0.12814106788E+04  0.15294330000E+03 0.  0.
<mgrwt>
<rscale>  0 0.62522294E+03</rscale>
<asrwt>0</asrwt>
<pdfrwt beam="1">  1        2 0.13656739E+00 0.74191085E+03</pdfrwt>
<pdfrwt beam="2">  1       -2 0.21746757E+00 0.74191085E+03</pdfrwt>
<totfact> 0.31489562E+00</totfact>
</mgrwt>
</event>
<event>
 4    1  0.2089815E-007  0.1349637E+04  0.7818608E-02  0.9023838E-01
          2   -1    0    0  501    0  0.00000000000E+00  0.00000000000E+00  0.24782798176E+04  0.24782798176E+04  0.25500000000E-02 0. -1.
         -2   -1    0    0    0  501 -0.00000000000E+00 -0.00000000000E+00 -0.86197425812E+03  0.86197425812E+03  0.25500000000E-02 0.  1.
    8880023    1    1    2    0    0  0.20118197283E+02  0.11778396220E+04  0.16747901950E+04  0.21509168558E+04  0.65864270000E+03 0.  0.
    8880022    1    1    2    0    0 -0.20118197283E+02 -0.11778396220E+04 -0.58484635557E+02  0.11893372199E+04  0.15294330000E+03 0.  0.
<mgrwt>
<rscale>  0 0.13072470E+04</rscale>
<asrwt>0</asrwt>
<pdfrwt beam="1">  1        2 0.38127381E+00 0.13496374E+04</pdfrwt>
<pdfrwt beam="2">  1       -2 0.13261143E+00 0.13496374E+04</pdfrwt>
<totfact> 0.14238154E+00</totfact>
</mgrwt>
</event>
<event>
 4    1  0.2089815E-007  0.1135430E+04  0.7818608E-02  0.9222597E-01
         -2   -1    0    0    0  501 -0.00000000000E+00  0.00000000000E+00  0.92120679131E+03  0.92120679131E+03  0.25500000000E-02 0.  1.
          2   -1    0    0  501    0  0.00000000000E+00 -0.00000000000E+00 -0.14663077606E+04  0.14663077606E+04  0.25500000000E-02 0. -1.
    8880023    1    1    2    0    0  0.50470259896E+03  0.77502732604E+03 -0.83146645293E+03  0.14073161472E+04  0.65864270000E+03 0.  0.
    8880022    1    1    2    0    0 -0.50470259896E+03 -0.77502732604E+03  0.28636548360E+03  0.98019840477E+03  0.15294330000E+03 0.  0.
<mgrwt>
<rscale>  0 0.10823199E+04</rscale>
<asrwt>0</asrwt>
<pdfrwt beam="1">  1        2 0.22558581E+00 0.11354304E+04</pdfrwt>
<pdfrwt beam="2">  1       -2 0.14172412E+00 0.11354304E+04</pdfrwt>
<totfact> 0.45164409E+00</totfact>
</mgrwt>
</event>
<event>
 4    1  0.6104873E-007  0.1376504E+04  0.7818608E-02  0.9002158E-01
         -2   -1    0    0    0  501 -0.00000000000E+00  0.00000000000E+00  0.19065847167E+04  0.19065847167E+04  0.25500000000E-02 0.  1.
          2   -1    0    0  501    0  0.00000000000E+00 -0.00000000000E+00 -0.23318534478E+04  0.23318534478E+04  0.25500000000E-02 0. -1.
    8880023    1    1    2    0    0  0.11581205955E+04  0.34599277252E+03 -0.18868960387E+04  0.23356243661E+04  0.65864270000E+03 0. -1.
    8880022    1    1    2    0    0 -0.11581205955E+04 -0.34599277252E+03  0.14616273075E+04  0.19028137984E+04  0.15294330000E+03 0.  0.
<mgrwt>
<rscale>  0 0.13351348E+04</rscale>
<asrwt>0</asrwt>
<pdfrwt beam="1">  1        2 0.35874668E+00 0.13765045E+04</pdfrwt>
<pdfrwt beam="2">  1       -2 0.29332073E+00 0.13765045E+04</pdfrwt>
<totfact> 0.14476223E-01</totfact>
</mgrwt>
</event>
<event>
 4    1  0.2089815E-007  0.9439925E+03  0.7818608E-02  0.9458811E-01
          2   -1    0    0  501    0  0.00000000000E+00  0.00000000000E+00  0.11263031929E+04  0.11263031929E+04  0.25500000000E-02 0. -1.
         -2   -1    0    0    0  501 -0.00000000000E+00 -0.00000000000E+00 -0.83604323914E+03  0.83604323915E+03  0.25500000000E-02 0.  1.
    8880023    1    1    2    0    0  0.48390651894E+03  0.47238334338E+03  0.68331935608E+03  0.11653527753E+04  0.65864270000E+03 0. -1.
    8880022    1    1    2    0    0 -0.48390651894E+03 -0.47238334338E+03 -0.39305940233E+03  0.79699365678E+03  0.15294330000E+03 0.  0.
<mgrwt>
<rscale>  0 0.87389855E+03</rscale>
<asrwt>0</asrwt>
<pdfrwt beam="1">  1        2 0.17327741E+00 0.94399245E+03</pdfrwt>
<pdfrwt beam="2">  1       -2 0.12862204E+00 0.94399245E+03</pdfrwt>
<totfact> 0.93407084E+00</totfact>
</mgrwt>
</event>
<event>
 4    1  0.2089815E-007  0.7149728E+03  0.7818608E-02  0.9939978E-01
          2   -1    0    0  501    0  0.00000000000E+00  0.00000000000E+00  0.80201154373E+03  0.80201154374E+03  0.25500000000E-02 0. -1.
         -2   -1    0    0    0  501 -0.00000000000E+00 -0.00000000000E+00 -0.83149681515E+03  0.83149681516E+03  0.25500000000E-02 0.  1.
    8880023    1    1    2    0    0 -0.26696974140E+03  0.78121933206E+02  0.59683167553E+03  0.93133996717E+03  0.65864270000E+03 0.  0.
    8880022    1    1    2    0    0  0.26696974140E+03 -0.78121933206E+02 -0.62631694696E+03  0.70216839172E+03  0.15294330000E+03 0.  0.
<mgrwt>
<rscale>  0 0.58362275E+03</rscale>
<asrwt>0</asrwt>
<pdfrwt beam="1">  1        2 0.12338639E+00 0.71497279E+03</pdfrwt>
<pdfrwt beam="2">  1       -2 0.12792259E+00 0.71497279E+03</pdfrwt>
<totfact> 0.15820937E+01</totfact>
</mgrwt>
</event>
<event>
 4    1  0.2089815E-007  0.8650944E+03  0.7818608E-02  0.9584565E-01
         -2   -1    0    0    0  501 -0.00000000000E+00  0.00000000000E+00  0.18094312551E+04  0.18094312551E+04  0.25500000000E-02 0.  1.
          2   -1    0    0  501    0  0.00000000000E+00 -0.00000000000E+00 -0.77981652655E+03  0.77981652655E+03  0.25500000000E-02 0. -1.
    8880023    1    1    2    0    0 -0.32713652239E+03  0.45558736550E+03 -0.46742006996E+03  0.98329541845E+03  0.65864270000E+03 0. -1.
    8880022    1    1    2    0    0  0.32713652239E+03 -0.45558736550E+03  0.14970347985E+04  0.16059523632E+04  0.15294330000E+03 0.  0.
<mgrwt>
<rscale>  0 0.78326257E+03</rscale>
<asrwt>0</asrwt>
<pdfrwt beam="1">  1        2 0.11997178E+00 0.86509442E+03</pdfrwt>
<pdfrwt beam="2">  1       -2 0.27837403E+00 0.86509442E+03</pdfrwt>
<totfact> 0.15656241E+00</totfact>
</mgrwt>
</event>
<event>
 4    1  0.2089815E-007  0.1582763E+04  0.7818608E-02  0.8853302E-01
         -2   -1    0    0    0  501 -0.00000000000E+00  0.00000000000E+00  0.26649862641E+04  0.26649862641E+04  0.25500000000E-02 0.  1.
          2   -1    0    0  501    0  0.00000000000E+00 -0.00000000000E+00 -0.93280229502E+03  0.93280229502E+03  0.25500000000E-02 0. -1.
    8880023    1    1    2    0    0 -0.13892583687E+04 -0.37588630242E+03  0.40423993673E+03  0.16335695455E+04  0.65864270000E+03 0.  0.
    8880022    1    1    2    0    0  0.13892583687E+04  0.37588630242E+03  0.13279440323E+04  0.19642190136E+04  0.15294330000E+03 0.  0.
<mgrwt>
<rscale>  0 0.15477569E+04</rscale>
<asrwt>0</asrwt>
<pdfrwt beam="1">  1        2 0.14350805E+00 0.15827633E+04</pdfrwt>
<pdfrwt beam="2">  1       -2 0.40999789E+00 0.15827633E+04</pdfrwt>
<totfact> 0.16768205E-01</totfact>
</mgrwt>
</event>
<event>
 4    1  0.2089815E-007  0.7786546E+03  0.7818608E-02  0.9759007E-01
          2   -1    0    0  501    0  0.00000000000E+00  0.00000000000E+00  0.12778524265E+04  0.12778524265E+04  0.25500000000E-02 0. -1.
         -2   -1    0    0    0  501 -0.00000000000E+00 -0.00000000000E+00 -0.78554431081E+03  0.78554431082E+03  0.25500000000E-02 0.  1.
    8880023    1    1    2    0    0  0.24695403111E+03  0.33392598055E+03  0.10776755827E+04  0.13295441782E+04  0.65864270000E+03 0. -1.
    8880022    1    1    2    0    0 -0.24695403111E+03 -0.33392598055E+03 -0.58536746706E+03  0.73385255908E+03  0.15294330000E+03 0.  0.
<mgrwt>
<rscale>  0 0.67609647E+03</rscale>
<asrwt>0</asrwt>
<pdfrwt beam="1">  1        2 0.19659268E+00 0.77865465E+03</pdfrwt>
<pdfrwt beam="2">  1       -2 0.12085297E+00 0.77865465E+03</pdfrwt>
<totfact> 0.90402415E+00</totfact>
</mgrwt>
</event>
<event>
 4    1  0.2089815E-007  0.1201825E+04  0.7818608E-02  0.9155350E-01
         -2   -1    0    0    0  501 -0.00000000000E+00  0.00000000000E+00  0.12472080413E+04  0.12472080413E+04  0.25500000000E-02 0.  1.
          2   -1    0    0  501    0  0.00000000000E+00 -0.00000000000E+00 -0.17351534569E+04  0.17351534569E+04  0.25500000000E-02 0. -1.
    8880023    1    1    2    0    0 -0.26538976303E+03  0.96960936174E+03 -0.12329654533E+04  0.17217979138E+04  0.65864270000E+03 0.  0.
    8880022    1    1    2    0    0  0.26538976303E+03 -0.96960936174E+03  0.74502003772E+03  0.12605635844E+04  0.15294330000E+03 0.  0.
<mgrwt>
<rscale>  0 0.11526416E+04</rscale>
<asrwt>0</asrwt>
<pdfrwt beam="1">  1        2 0.26694669E+00 0.12018254E+04</pdfrwt>
<pdfrwt beam="2">  1       -2 0.19187816E+00 0.12018254E+04</pdfrwt>
<totfact> 0.13694732E+00</totfact>
</mgrwt>
</event>
<event>
 4    1  0.2089815E-007  0.9953805E+03  0.7818608E-02  0.9387626E-01
          2   -1    0    0  501    0  0.00000000000E+00  0.00000000000E+00  0.15801229557E+04  0.15801229557E+04  0.25500000000E-02 0. -1.
         -2   -1    0    0    0  501 -0.00000000000E+00 -0.00000000000E+00 -0.14768061522E+04  0.14768061522E+04  0.25500000000E-02 0.  1.
    8880023    1    1    2    0    0  0.73691732099E+03  0.11800454533E+03  0.13006250449E+04  0.16378058262E+04  0.65864270000E+03 0.  0.
    8880022    1    1    2    0    0 -0.73691732099E+03 -0.11800454533E+03 -0.11973082414E+04  0.14191232817E+04  0.15294330000E+03 0.  0.
<mgrwt>
<rscale>  0 0.93101013E+03</rscale>
<asrwt>0</asrwt>
<pdfrwt beam="1">  1        2 0.24309584E+00 0.99538054E+03</pdfrwt>
<pdfrwt beam="2">  1       -2 0.22720095E+00 0.99538054E+03</pdfrwt>
<totfact> 0.10155092E+00</totfact>
</mgrwt>
</event>
<event>
 4    1  0.2157548E-007  0.1235680E+04  0.7818608E-02  0.9123196E-01
          2   -1    0    0  501    0  0.00000000000E+00  0.00000000000E+00  0.24095760519E+04  0.24095760519E+04  0.25500000000E-02 0. -1.
         -2   -1    0    0    0  501 -0.00000000000E+00 -0.00000000000E+00 -0.14322832523E+04  0.14322832523E+04  0.25500000000E-02 0.  1.
    8880023    1    1    2    0    0  0.24335496702E+03  0.10167957290E+04  0.20131715895E+04  0.23621526728E+04  0.65864270000E+03 0. -1.
    8880022    1    1    2    0    0 -0.24335496702E+03 -0.10167957290E+04 -0.10358787899E+04  0.14797066314E+04  0.15294330000E+03 0.  0.
<mgrwt>
<rscale>  0 0.11882594E+04</rscale>
<asrwt>0</asrwt>
<pdfrwt beam="1">  1        2 0.37070401E+00 0.12356801E+04</pdfrwt>
<pdfrwt beam="2">  1       -2 0.22035127E+00 0.12356801E+04</pdfrwt>
<totfact> 0.37444838E-01</totfact>
</mgrwt>
</event>
<event>
 4    1  0.2089815E-007  0.6919703E+03  0.7818608E-02  0.1003230E+00
         -2   -1    0    0    0  501 -0.00000000000E+00  0.00000000000E+00  0.52593916015E+03  0.52593916015E+03  0.25500000000E-02 0.  1.
          2   -1    0    0  501    0  0.00000000000E+00 -0.00000000000E+00 -0.19676569568E+04  0.19676569568E+04  0.25500000000E-02 0. -1.
    8880023    1    1    2    0    0  0.13042768420E+03  0.16733575540E+03 -0.18687984183E+04  0.19927946132E+04  0.65864270000E+03 0. -1.
    8880022    1    1    2    0    0 -0.13042768420E+03 -0.16733575540E+03  0.42708062161E+03  0.50080150380E+03  0.15294330000E+03 0.  0.
<mgrwt>
<rscale>  0 0.54256402E+03</rscale>
<asrwt>0</asrwt>
<pdfrwt beam="1">  1        2 0.30271645E+00 0.69197026E+03</pdfrwt>
<pdfrwt beam="2">  1       -2 0.80913718E-01 0.69197026E+03</pdfrwt>
<totfact> 0.97971964E+00</totfact>
</mgrwt>
</event>
<event>
 4    1  0.2089815E-007  0.8848664E+03  0.7818608E-02  0.9550776E-01
          2   -1    0    0  501    0  0.00000000000E+00  0.00000000000E+00  0.15621792580E+04  0.15621792580E+04  0.25500000000E-02 0. -1.
         -2   -1    0    0    0  501 -0.00000000000E+00 -0.00000000000E+00 -0.10449366548E+04  0.10449366548E+04  0.25500000000E-02 0.  1.
    8880023    1    1    2    0    0 -0.33711911868E+02 -0.58995074972E+03  0.13258404062E+04  0.15940016842E+04  0.65864270000E+03 0.  0.
    8880022    1    1    2    0    0  0.33711911868E+02  0.58995074972E+03 -0.80859780301E+03  0.10131142286E+04  0.15294330000E+03 0.  0.
<mgrwt>
<rscale>  0 0.80641626E+03</rscale>
<asrwt>0</asrwt>
<pdfrwt beam="1">  1        2 0.24033527E+00 0.88486642E+03</pdfrwt>
<pdfrwt beam="2">  1       -2 0.16075949E+00 0.88486642E+03</pdfrwt>
<totfact> 0.29349912E+00</totfact>
</mgrwt>
</event>
<event>
 4    1  0.2089815E-007  0.7909015E+03  0.7818608E-02  0.9730826E-01
          2   -1    0    0  501    0  0.00000000000E+00  0.00000000000E+00  0.12899542342E+04  0.12899542342E+04  0.25500000000E-02 0. -1.
         -2   -1    0    0    0  501 -0.00000000000E+00 -0.00000000000E+00 -0.65759978541E+03  0.65759978541E+03  0.25500000000E-02 0.  1.
    8880023    1    1    2    0    0  0.40791864833E+03 -0.15911419280E+03  0.10560373525E+04  0.13193710798E+04  0.65864270000E+03 0. -1.
    8880022    1    1    2    0    0 -0.40791864833E+03  0.15911419280E+03 -0.42368290371E+03  0.62818293985E+03  0.15294330000E+03 0.  0.
<mgrwt>
<rscale>  0 0.69210743E+03</rscale>
<asrwt>0</asrwt>
<pdfrwt beam="1">  1        2 0.19845450E+00 0.79090148E+03</pdfrwt>
<pdfrwt beam="2">  1       -2 0.10116920E+00 0.79090148E+03</pdfrwt>
<totfact> 0.13676760E+01</totfact>
</mgrwt>
</event>
<event>
 4    1  0.2089815E-007  0.1134495E+04  0.7818608E-02  0.9223588E-01
         -2   -1    0    0    0  501 -0.00000000000E+00  0.00000000000E+00  0.91002841881E+03  0.91002841881E+03  0.25500000000E-02 0.  1.
          2   -1    0    0  501    0  0.00000000000E+00 -0.00000000000E+00 -0.16936317517E+04  0.16936317517E+04  0.25500000000E-02 0. -1.
    8880023    1    1    2    0    0  0.68348531705E+03  0.62138262819E+03 -0.11338798985E+04  0.16039832854E+04  0.65864270000E+03 0.  0.
    8880022    1    1    2    0    0 -0.68348531705E+03 -0.62138262819E+03  0.35027656563E+03  0.99967688514E+03  0.15294330000E+03 0.  0.
<mgrwt>
<rscale>  0 0.10813240E+04</rscale>
<asrwt>0</asrwt>
<pdfrwt beam="1">  1        2 0.26055873E+00 0.11344949E+04</pdfrwt>
<pdfrwt beam="2">  1       -2 0.14000437E+00 0.11344949E+04</pdfrwt>
<totfact> 0.34782936E+00</totfact>
</mgrwt>
</event>
<event>
 4    1  0.2089815E-007  0.7161107E+03  0.7818608E-02  0.9935973E-01
         -2   -1    0    0    0  501 -0.00000000000E+00  0.00000000000E+00  0.22120319334E+03  0.22120319335E+03  0.25500000000E-02 0.  1.
          2   -1    0    0  501    0  0.00000000000E+00 -0.00000000000E+00 -0.25919873897E+04  0.25919873897E+04  0.25500000000E-02 0. -1.
    8880023    1    1    2    0    0  0.26558383631E+03  0.92029962810E+02 -0.23876756694E+04  0.24927514109E+04  0.65864270000E+03 0. -1.
    8880022    1    1    2    0    0 -0.26558383631E+03 -0.92029962810E+02  0.16891473028E+02  0.32043917214E+03  0.15294330000E+03 0.  0.
<mgrwt>
<rscale>  0 0.58549131E+03</rscale>
<asrwt>0</asrwt>
<pdfrwt beam="1">  1        2 0.39876727E+00 0.71611067E+03</pdfrwt>
<pdfrwt beam="2">  1       -2 0.34031262E-01 0.71611067E+03</pdfrwt>
<totfact> 0.26156232E+01</totfact>
</mgrwt>
</event>
<event>
 4    1  0.2089815E-007  0.1196298E+04  0.7818608E-02  0.9160729E-01
          2   -1    0    0  501    0  0.00000000000E+00  0.00000000000E+00  0.31063944048E+04  0.31063944048E+04  0.25500000000E-02 0. -1.
         -2   -1    0    0    0  501 -0.00000000000E+00 -0.00000000000E+00 -0.72674569719E+03  0.72674569720E+03  0.25500000000E-02 0.  1.
    8880023    1    1    2    0    0  0.44577944755E+02  0.99766346899E+03  0.25424199296E+04  0.28098094055E+04  0.65864270000E+03 0.  0.
    8880022    1    1    2    0    0 -0.44577944755E+02 -0.99766346899E+03 -0.16277122207E+03  0.10233306964E+04  0.15294330000E+03 0.  0.
<mgrwt>
<rscale>  0 0.11468127E+04</rscale>
<asrwt>0</asrwt>
<pdfrwt beam="1">  1        2 0.47790683E+00 0.11962984E+04</pdfrwt>
<pdfrwt beam="2">  1       -2 0.11180703E+00 0.11962984E+04</pdfrwt>
<totfact> 0.93330816E-01</totfact>
</mgrwt>
</event>
<event>
 4    1  0.2089815E-007  0.1304625E+04  0.7818608E-02  0.9061576E-01
         -2   -1    0    0    0  501 -0.00000000000E+00  0.00000000000E+00  0.23016341956E+04  0.23016341956E+04  0.25500000000E-02 0.  1.
          2   -1    0    0  501    0  0.00000000000E+00 -0.00000000000E+00 -0.14613841558E+04  0.14613841558E+04  0.25500000000E-02 0. -1.
    8880023    1    1    2    0    0  0.10893943743E+04 -0.28540642531E+03 -0.96990837884E+03  0.16256596815E+04  0.65864270000E+03 0.  0.
    8880022    1    1    2    0    0 -0.10893943743E+04  0.28540642531E+03  0.18101584186E+04  0.21373586699E+04  0.15294330000E+03 0.  0.
<mgrwt>
<rscale>  0 0.12603946E+04</rscale>
<asrwt>0</asrwt>
<pdfrwt beam="1">  1        2 0.22482833E+00 0.13046253E+04</pdfrwt>
<pdfrwt beam="2">  1       -2 0.35409757E+00 0.13046253E+04</pdfrwt>
<totfact> 0.18905176E-01</totfact>
</mgrwt>
</event>
<event>
 4    1  0.2089815E-007  0.7900015E+03  0.7818608E-02  0.9732847E-01
          2   -1    0    0  501    0  0.00000000000E+00  0.00000000000E+00  0.24430956882E+03  0.24430956884E+03  0.25500000000E-02 0. -1.
         -2   -1    0    0    0  501 -0.00000000000E+00 -0.00000000000E+00 -0.17360599972E+04  0.17360599972E+04  0.25500000000E-02 0.  1.
    8880023    1    1    2    0    0  0.95657309616E+02 -0.42560765506E+03 -0.66268580251E+03  0.10311425101E+04  0.65864270000E+03 0. -1.
    8880022    1    1    2    0    0 -0.95657309616E+02  0.42560765506E+03 -0.82906462586E+03  0.94922705598E+03  0.15294330000E+03 0.  0.
<mgrwt>
<rscale>  0 0.69094330E+03</rscale>
<asrwt>0</asrwt>
<pdfrwt beam="1">  1        2 0.37586089E-01 0.79000152E+03</pdfrwt>
<pdfrwt beam="2">  1       -2 0.26708615E+00 0.79000152E+03</pdfrwt>
<totfact> 0.71543110E+00</totfact>
</mgrwt>
</event>
<event>
 4    1  0.2089815E-007  0.6623199E+03  0.7818608E-02  0.1021896E+00
          2   -1    0    0  501    0  0.00000000000E+00  0.00000000000E+00  0.12047951703E+04  0.12047951703E+04  0.25500000000E-02 0. -1.
         -2   -1    0    0    0  501 -0.00000000000E+00 -0.00000000000E+00 -0.50443049169E+03  0.50443049169E+03  0.25500000000E-02 0.  1.
    8880023    1    1    2    0    0  0.47504488892E+02 -0.50998030034E+02  0.10953186789E+04  0.12799963633E+04  0.65864270000E+03 0. -1.
    8880022    1    1    2    0    0 -0.47504488892E+02  0.50998030034E+02 -0.39495400025E+03  0.42922929870E+03  0.15294330000E+03 0.  0.
<mgrwt>
<rscale>  0 0.47008511E+03</rscale>
<asrwt>0</asrwt>
<pdfrwt beam="1">  1        2 0.18535310E+00 0.66231992E+03</pdfrwt>
<pdfrwt beam="2">  1       -2 0.77604691E-01 0.66231992E+03</pdfrwt>
<totfact> 0.28649476E+01</totfact>
</mgrwt>
</event>
<event>
 4    1  0.2089815E-007  0.1281352E+04  0.7818608E-02  0.9081833E-01
         -2   -1    0    0    0  501 -0.00000000000E+00  0.00000000000E+00  0.54796701160E+03  0.54796701160E+03  0.25500000000E-02 0.  1.
          2   -1    0    0  501    0  0.00000000000E+00 -0.00000000000E+00 -0.27971931783E+04  0.27971931783E+04  0.25500000000E-02 0. -1.
    8880023    1    1    2    0    0  0.10849663807E+04 -0.17578848370E+03 -0.76635243540E+03  0.14930371394E+04  0.65864270000E+03 0.  1.
    8880022    1    1    2    0    0 -0.10849663807E+04  0.17578848370E+03 -0.14828737313E+04  0.18521230505E+04  0.15294330000E+03 0.  0.
<mgrwt>
<rscale>  0 0.12360992E+04</rscale>
<asrwt>0</asrwt>
<pdfrwt beam="1">  1        2 0.43033740E+00 0.12813523E+04</pdfrwt>
<pdfrwt beam="2">  1       -2 0.84302619E-01 0.12813523E+04</pdfrwt>
<totfact> 0.27939157E+00</totfact>
</mgrwt>
</event>
<event>
 4    1  0.2089815E-007  0.6589867E+03  0.7818608E-02  0.1025219E+00
         -2   -1    0    0    0  501 -0.00000000000E+00  0.00000000000E+00  0.27935009711E+03  0.27935009713E+03  0.25500000000E-02 0.  1.
          2   -1    0    0  501    0  0.00000000000E+00 -0.00000000000E+00 -0.18510935855E+04  0.18510935855E+04  0.25500000000E-02 0. -1.
    8880023    1    1    2    0    0 -0.78673835696E+00 -0.21274731184E+02 -0.17644544517E+04  0.18834975316E+04  0.65864270000E+03 0. -1.
    8880022    1    1    2    0    0  0.78673835696E+00  0.21274731184E+02  0.19271096328E+03  0.24694615107E+03  0.15294330000E+03 0.  0.
<mgrwt>
<rscale>  0 0.45849213E+03</rscale>
<asrwt>0</asrwt>
<pdfrwt beam="1">  1        2 0.28478362E+00 0.65898668E+03</pdfrwt>
<pdfrwt beam="2">  1       -2 0.42976939E-01 0.65898668E+03</pdfrwt>
<totfact> 0.43153693E+01</totfact>
</mgrwt>
</event>
<event>
 4    1  0.2089815E-007  0.1048795E+04  0.7818608E-02  0.9320331E-01
         -2   -1    0    0    0  501 -0.00000000000E+00  0.00000000000E+00  0.52504869898E+03  0.52504869898E+03  0.25500000000E-02 0.  1.
          2   -1    0    0  501    0  0.00000000000E+00 -0.00000000000E+00 -0.26897028099E+04  0.26897028099E+04  0.25500000000E-02 0. -1.
    8880023    1    1    2    0    0 -0.77663212616E+03  0.25100406096E+03 -0.21409297531E+04  0.23840199060E+04  0.65864270000E+03 0.  0.
    8880022    1    1    2    0    0  0.77663212616E+03 -0.25100406096E+03 -0.23724357867E+02  0.83073160298E+03  0.15294330000E+03 0.  0.
<mgrwt>
<rscale>  0 0.98932460E+03</rscale>
<asrwt>0</asrwt>
<pdfrwt beam="1">  1        2 0.41380043E+00 0.10487949E+04</pdfrwt>
<pdfrwt beam="2">  1       -2 0.80776724E-01 0.10487949E+04</pdfrwt>
<totfact> 0.36690520E+00</totfact>
</mgrwt>
</event>
<event>
 4    1  0.2089815E-007  0.9376033E+03  0.7818608E-02  0.9468179E-01
         -2   -1    0    0    0  501 -0.00000000000E+00  0.00000000000E+00  0.93368614737E+03  0.93368614737E+03  0.25500000000E-02 0.  1.
          2   -1    0    0  501    0  0.00000000000E+00 -0.00000000000E+00 -0.10665529164E+04  0.10665529164E+04  0.25500000000E-02 0. -1.
    8880023    1    1    2    0    0 -0.20640283959E+03 -0.63457669796E+03 -0.65118880279E+03  0.11415545458E+04  0.65864270000E+03 0.  0.
    8880022    1    1    2    0    0  0.20640283959E+03  0.63457669796E+03  0.51832203376E+03  0.85868451802E+03  0.15294330000E+03 0.  0.
<mgrwt>
<rscale>  0 0.86671049E+03</rscale>
<asrwt>0</asrwt>
<pdfrwt beam="1">  1        2 0.16408506E+00 0.93760329E+03</pdfrwt>
<pdfrwt beam="2">  1       -2 0.14364402E+00 0.93760329E+03</pdfrwt>
<totfact> 0.76567286E+00</totfact>
</mgrwt>
</event>
<event>
 4    1  0.2089815E-007  0.9256588E+03  0.7818608E-02  0.9486036E-01
          2   -1    0    0  501    0  0.00000000000E+00  0.00000000000E+00  0.83528809381E+03  0.83528809382E+03  0.25500000000E-02 0. -1.
         -2   -1    0    0    0  501 -0.00000000000E+00 -0.00000000000E+00 -0.17427589199E+04  0.17427589199E+04  0.25500000000E-02 0.  1.
    8880023    1    1    2    0    0  0.24268813146E+03 -0.60343719947E+03  0.47659450706E+03  0.10411467299E+04  0.65864270000E+03 0. -1.
    8880022    1    1    2    0    0 -0.24268813146E+03  0.60343719947E+03 -0.13840653331E+04  0.15369002838E+04  0.15294330000E+03 0.  0.
<mgrwt>
<rscale>  0 0.85321177E+03</rscale>
<asrwt>0</asrwt>
<pdfrwt beam="1">  1        2 0.12850586E+00 0.92565879E+03</pdfrwt>
<pdfrwt beam="2">  1       -2 0.26811676E+00 0.92565879E+03</pdfrwt>
<totfact> 0.16327875E+00</totfact>
</mgrwt>
</event>
<event>
 4    1  0.2089815E-007  0.6677405E+03  0.7818608E-02  0.1017337E+00
          2   -1    0    0  501    0  0.00000000000E+00  0.00000000000E+00  0.10806164496E+04  0.10806164496E+04  0.25500000000E-02 0. -1.
         -2   -1    0    0    0  501 -0.00000000000E+00 -0.00000000000E+00 -0.45882754139E+03  0.45882754139E+03  0.25500000000E-02 0.  1.
    8880023    1    1    2    0    0  0.72519218899E+02  0.82511202912E+02  0.94991362356E+03  0.11611258477E+04  0.65864270000E+03 0. -1.
    8880022    1    1    2    0    0 -0.72519218899E+02 -0.82511202912E+02 -0.32812471534E+03  0.37831814330E+03  0.15294330000E+03 0.  0.
<mgrwt>
<rscale>  0 0.48659906E+03</rscale>
<asrwt>0</asrwt>
<pdfrwt beam="1">  1        2 0.16624868E+00 0.66774048E+03</pdfrwt>
<pdfrwt beam="2">  1       -2 0.70588852E-01 0.66774048E+03</pdfrwt>
<totfact> 0.41900485E+01</totfact>
</mgrwt>
</event>
<event>
 4    1  0.2089815E-007  0.7192661E+03  0.7818608E-02  0.9925077E-01
          2   -1    0    0  501    0  0.00000000000E+00  0.00000000000E+00  0.10317270290E+04  0.10317270290E+04  0.25500000000E-02 0. -1.
         -2   -1    0    0    0  501 -0.00000000000E+00 -0.00000000000E+00 -0.10690670395E+04  0.10690670395E+04  0.25500000000E-02 0.  1.
    8880023    1    1    2    0    0  0.26221616736E+03 -0.12155725907E+03  0.87438294102E+03  0.11322054670E+04  0.65864270000E+03 0. -1.
    8880022    1    1    2    0    0 -0.26221616736E+03  0.12155725907E+03 -0.91172295156E+03  0.96858860156E+03  0.15294330000E+03 0.  0.
<mgrwt>
<rscale>  0 0.59061186E+03</rscale>
<asrwt>0</asrwt>
<pdfrwt beam="1">  1        2 0.15872724E+00 0.71926608E+03</pdfrwt>
<pdfrwt beam="2">  1       -2 0.16447185E+00 0.71926608E+03</pdfrwt>
<totfact> 0.57517674E+00</totfact>
</mgrwt>
</event>
<event>
 4    1  0.2089815E-007  0.1153986E+04  0.7818608E-02  0.9203203E-01
          2   -1    0    0  501    0  0.00000000000E+00  0.00000000000E+00  0.31066959793E+04  0.31066959793E+04  0.25500000000E-02 0. -1.
         -2   -1    0    0    0  501 -0.00000000000E+00 -0.00000000000E+00 -0.60546306655E+03  0.60546306655E+03  0.25500000000E-02 0.  1.
    8880023    1    1    2    0    0 -0.68108751874E+03 -0.65878182727E+03  0.24987270720E+04  0.27523300839E+04  0.65864270000E+03 0.  0.
    8880022    1    1    2    0    0  0.68108751874E+03  0.65878182727E+03  0.25058408347E+01  0.95982896204E+03  0.15294330000E+03 0.  0.
<mgrwt>
<rscale>  0 0.11020430E+04</rscale>
<asrwt>0</asrwt>
<pdfrwt beam="1">  1        2 0.47795323E+00 0.11539861E+04</pdfrwt>
<pdfrwt beam="2">  1       -2 0.93148163E-01 0.11539861E+04</pdfrwt>
<totfact> 0.14535441E+00</totfact>
</mgrwt>
</event>
<event>
 4    1  0.2089815E-007  0.1246707E+04  0.7818608E-02  0.9113005E-01
          2   -1    0    0  501    0  0.00000000000E+00  0.00000000000E+00  0.12826722575E+04  0.12826722575E+04  0.25500000000E-02 0. -1.
         -2   -1    0    0    0  501 -0.00000000000E+00 -0.00000000000E+00 -0.12577245759E+04  0.12577245759E+04  0.25500000000E-02 0.  1.
    8880023    1    1    2    0    0 -0.91202899576E+03  0.53728104845E+03 -0.50705152805E+03  0.13458749097E+04  0.65864270000E+03 0.  0.
    8880022    1    1    2    0    0  0.91202899576E+03 -0.53728104845E+03  0.53199920961E+03  0.11945219237E+04  0.15294330000E+03 0.  0.
<mgrwt>
<rscale>  0 0.11998304E+04</rscale>
<asrwt>0</asrwt>
<pdfrwt beam="1">  1        2 0.19733419E+00 0.12467069E+04</pdfrwt>
<pdfrwt beam="2">  1       -2 0.19349609E+00 0.12467069E+04</pdfrwt>
<totfact> 0.24014012E+00</totfact>
</mgrwt>
</event>
<event>
 4    1  0.2089815E-007  0.9310725E+03  0.7818608E-02  0.9477886E-01
          2   -1    0    0  501    0  0.00000000000E+00  0.00000000000E+00  0.15084339936E+04  0.15084339936E+04  0.25500000000E-02 0. -1.
         -2   -1    0    0    0  501 -0.00000000000E+00 -0.00000000000E+00 -0.63638817291E+03  0.63638817291E+03  0.25500000000E-02 0.  1.
    8880023    1    1    2    0    0  0.55412696276E+03  0.35500588221E+03  0.10912915146E+04  0.14345080144E+04  0.65864270000E+03 0. -1.
    8880022    1    1    2    0    0 -0.55412696276E+03 -0.35500588221E+03 -0.21924569398E+03  0.71031415205E+03  0.15294330000E+03 0.  0.
<mgrwt>
<rscale>  0 0.85934007E+03</rscale>
<asrwt>0</asrwt>
<pdfrwt beam="1">  1        2 0.23206677E+00 0.93107254E+03</pdfrwt>
<pdfrwt beam="2">  1       -2 0.97905872E-01 0.93107254E+03</pdfrwt>
<totfact> 0.10933148E+01</totfact>
</mgrwt>
</event>
<event>
 4    1  0.2089815E-007  0.7143714E+03  0.7818608E-02  0.9942113E-01
          2   -1    0    0  501    0  0.00000000000E+00  0.00000000000E+00  0.25486505178E+04  0.25486505178E+04  0.25500000000E-02 0. -1.
         -2   -1    0    0    0  501 -0.00000000000E+00 -0.00000000000E+00 -0.77767311033E+03  0.77767311033E+03  0.25500000000E-02 0.  1.
    8880023    1    1    2    0    0 -0.11660508304E+03 -0.25083782049E+03  0.24635483798E+04  0.25650335638E+04  0.65864270000E+03 0. -1.
    8880022    1    1    2    0    0  0.11660508304E+03  0.25083782049E+03 -0.69257097224E+03  0.76129006442E+03  0.15294330000E+03 0.  0.
<mgrwt>
<rscale>  0 0.58263035E+03</rscale>
<asrwt>0</asrwt>
<pdfrwt beam="1">  1        2 0.39210008E+00 0.71437145E+03</pdfrwt>
<pdfrwt beam="2">  1       -2 0.11964202E+00 0.71437145E+03</pdfrwt>
<totfact> 0.18495914E+00</totfact>
</mgrwt>
</event>
<event>
 4    1  0.2089815E-007  0.9540857E+03  0.7818608E-02  0.9444260E-01
          2   -1    0    0  501    0  0.00000000000E+00  0.00000000000E+00  0.59612531619E+03  0.59612531619E+03  0.25500000000E-02 0. -1.
         -2   -1    0    0    0  501 -0.00000000000E+00 -0.00000000000E+00 -0.12333341180E+04  0.12333341180E+04  0.25500000000E-02 0.  1.
    8880023    1    1    2    0    0  0.66377217754E+03  0.18940904460E+03 -0.58803517699E+03  0.11207429971E+04  0.65864270000E+03 0.  1.
    8880022    1    1    2    0    0 -0.66377217754E+03 -0.18940904460E+03 -0.49173624822E+02  0.70871643712E+03  0.15294330000E+03 0.  0.
<mgrwt>
<rscale>  0 0.88521076E+03</rscale>
<asrwt>0</asrwt>
<pdfrwt beam="1">  1        2 0.91711587E-01 0.95408569E+03</pdfrwt>
<pdfrwt beam="2">  1       -2 0.18974371E+00 0.95408569E+03</pdfrwt>
<totfact> 0.77622187E+00</totfact>
</mgrwt>
</event>
<event>
 4    1  0.2089815E-007  0.1258054E+04  0.7818608E-02  0.9102656E-01
         -2   -1    0    0    0  501 -0.00000000000E+00  0.00000000000E+00  0.45973898435E+03  0.45973898436E+03  0.25500000000E-02 0.  1.
          2   -1    0    0  501    0  0.00000000000E+00 -0.00000000000E+00 -0.44653961618E+04  0.44653961618E+04  0.25500000000E-02 0. -1.
    8880023    1    1    2    0    0 -0.46494727695E+03  0.96577136700E+03 -0.35207908771E+04  0.37388058134E+04  0.65864270000E+03 0.  0.
    8880022    1    1    2    0    0  0.46494727695E+03 -0.96577136700E+03 -0.48486630041E+03  0.11863293328E+04  0.15294330000E+03 0.  0.
<mgrwt>
<rscale>  0 0.12117235E+04</rscale>
<asrwt>0</asrwt>
<pdfrwt beam="1">  1        2 0.68698399E+00 0.12580543E+04</pdfrwt>
<pdfrwt beam="2">  1       -2 0.70729078E-01 0.12580543E+04</pdfrwt>
<totfact> 0.24718870E-01</totfact>
</mgrwt>
</event>
<event>
 4    1  0.2089815E-007  0.8044853E+03  0.7818608E-02  0.9701181E-01
          2   -1    0    0  501    0  0.00000000000E+00  0.00000000000E+00  0.23634764625E+04  0.23634764625E+04  0.25500000000E-02 0. -1.
         -2   -1    0    0    0  501 -0.00000000000E+00 -0.00000000000E+00 -0.28774948291E+03  0.28774948292E+03  0.25500000000E-02 0.  1.
    8880023    1    1    2    0    0  0.44384610376E+03 -0.12801162489E+03  0.20039005639E+04  0.21593550000E+04  0.65864270000E+03 0.  0.
    8880022    1    1    2    0    0 -0.44384610376E+03  0.12801162489E+03  0.71826415725E+02  0.49187094541E+03  0.15294330000E+03 0.  0.
<mgrwt>
<rscale>  0 0.70946543E+03</rscale>
<asrwt>0</asrwt>
<pdfrwt beam="1">  1        2 0.36361178E+00 0.80448527E+03</pdfrwt>
<pdfrwt beam="2">  1       -2 0.44269149E-01 0.80448527E+03</pdfrwt>
<totfact> 0.20875334E+01</totfact>
</mgrwt>
</event>
<event>
 4    1  0.2089815E-007  0.6657015E+03  0.7818608E-02  0.1018952E+00
         -2   -1    0    0    0  501 -0.00000000000E+00  0.00000000000E+00  0.41387395688E+03  0.41387395689E+03  0.25500000000E-02 0.  1.
          2   -1    0    0  501    0  0.00000000000E+00 -0.00000000000E+00 -0.12366924481E+04  0.12366924481E+04  0.25500000000E-02 0. -1.
    8880023    1    1    2    0    0  0.32003132842E+02 -0.91236160274E+02 -0.11198427149E+04  0.13027686478E+04  0.65864270000E+03 0. -1.
    8880022    1    1    2    0    0 -0.32003132842E+02  0.91236160274E+02  0.29702422364E+03  0.34779775718E+03  0.15294330000E+03 0.  0.
<mgrwt>
<rscale>  0 0.48066698E+03</rscale>
<asrwt>0</asrwt>
<pdfrwt beam="1">  1        2 0.19026037E+00 0.66570147E+03</pdfrwt>
<pdfrwt beam="2">  1       -2 0.63672917E-01 0.66570147E+03</pdfrwt>
<totfact> 0.42239804E+01</totfact>
</mgrwt>
</event>
<event>
 4    1  0.2089815E-007  0.1367923E+04  0.7818608E-02  0.9009017E-01
         -2   -1    0    0    0  501 -0.00000000000E+00  0.00000000000E+00  0.11093558604E+04  0.11093558604E+04  0.25500000000E-02 0.  1.
          2   -1    0    0  501    0  0.00000000000E+00 -0.00000000000E+00 -0.15574854248E+04  0.15574854248E+04  0.25500000000E-02 0. -1.
    8880023    1    1    2    0    0  0.67912331417E+03  0.98802516198E+03 -0.50169707305E+03  0.14570217417E+04  0.65864270000E+03 0.  0.
    8880022    1    1    2    0    0 -0.67912331417E+03 -0.98802516198E+03  0.53567508640E+02  0.12098195434E+04  0.15294330000E+03 0.  0.
<mgrwt>
<rscale>  0 0.13262328E+04</rscale>
<asrwt>0</asrwt>
<pdfrwt beam="1">  1        2 0.23961314E+00 0.13679227E+04</pdfrwt>
<pdfrwt beam="2">  1       -2 0.17067013E+00 0.13679227E+04</pdfrwt>
<totfact> 0.23723114E+00</totfact>
</mgrwt>
</event>
<event>
 4    1  0.2089815E-007  0.1774666E+04  0.7818608E-02  0.8736681E-01
         -2   -1    0    0    0  501 -0.00000000000E+00  0.00000000000E+00  0.10431121625E+04  0.10431121625E+04  0.25500000000E-02 0.  1.
          2   -1    0    0  501    0  0.00000000000E+00 -0.00000000000E+00 -0.31560184185E+04  0.31560184185E+04  0.25500000000E-02 0. -1.
    8880023    1    1    2    0    0 -0.14442365924E+04  0.79360479279E+03 -0.40376715757E+03  0.18200181388E+04  0.65864270000E+03 0.  0.
    8880022    1    1    2    0    0  0.14442365924E+04 -0.79360479279E+03 -0.17091390984E+04  0.23791124422E+04  0.15294330000E+03 0.  0.
<mgrwt>
<rscale>  0 0.17439611E+04</rscale>
<asrwt>0</asrwt>
<pdfrwt beam="1">  1        2 0.48554129E+00 0.17746656E+04</pdfrwt>
<pdfrwt beam="2">  1       -2 0.16047880E+00 0.17746656E+04</pdfrwt>
<totfact> 0.31826475E-01</totfact>
</mgrwt>
</event>
<event>
 4    1  0.2089815E-007  0.6989880E+03  0.7818608E-02  0.1000143E+00
         -2   -1    0    0    0  501 -0.00000000000E+00  0.00000000000E+00  0.83462807314E+03  0.83462807315E+03  0.25500000000E-02 0.  1.
          2   -1    0    0  501    0  0.00000000000E+00 -0.00000000000E+00 -0.35657924155E+03  0.35657924156E+03  0.25500000000E-02 0. -1.
    8880023    1    1    2    0    0  0.21637053707E+03 -0.89206464596E+02  0.78256074186E+02  0.70335497585E+03  0.65864270000E+03 0. -1.
    8880022    1    1    2    0    0 -0.21637053707E+03  0.89206464596E+02  0.39979275741E+03  0.48785233886E+03  0.15294330000E+03 0.  0.
<mgrwt>
<rscale>  0 0.55587774E+03</rscale>
<asrwt>0</asrwt>
<pdfrwt beam="1">  1        2 0.54858345E-01 0.69898799E+03</pdfrwt>
<pdfrwt beam="2">  1       -2 0.12840432E+00 0.69898799E+03</pdfrwt>
<totfact> 0.41149629E+01</totfact>
</mgrwt>
</event>
<event>
 4    1  0.2089815E-007  0.7265360E+03  0.7818608E-02  0.9901060E-01
         -2   -1    0    0    0  501 -0.00000000000E+00  0.00000000000E+00  0.16295040569E+03  0.16295040571E+03  0.25500000000E-02 0.  1.
          2   -1    0    0  501    0  0.00000000000E+00 -0.00000000000E+00 -0.32475265669E+04  0.32475265669E+04  0.25500000000E-02 0. -1.
    8880023    1    1    2    0    0 -0.60072283884E+02  0.30072534003E+03 -0.29567806744E+04  0.30447342367E+04  0.65864270000E+03 0. -1.
    8880022    1    1    2    0    0  0.60072283884E+02 -0.30072534003E+03 -0.12779548688E+03  0.36574273596E+03  0.15294330000E+03 0.  0.
<mgrwt>
<rscale>  0 0.60209921E+03</rscale>
<asrwt>0</asrwt>
<pdfrwt beam="1">  1        2 0.49961942E+00 0.72653604E+03</pdfrwt>
<pdfrwt beam="2">  1       -2 0.25069296E-01 0.72653604E+03</pdfrwt>
<totfact> 0.18452824E+01</totfact>
</mgrwt>
</event>
<event>
 4    1  0.2392496E-007  0.7001793E+03  0.7818608E-02  0.9996458E-01
          2   -1    0    0  501    0  0.00000000000E+00  0.00000000000E+00  0.16570461049E+04  0.16570461049E+04  0.25500000000E-02 0. -1.
         -2   -1    0    0    0  501 -0.00000000000E+00 -0.00000000000E+00 -0.18511802545E+04  0.18511802545E+04  0.25500000000E-02 0.  1.
    8880023    1    1    2    0    0 -0.19114409598E+03  0.14108420753E+03  0.15713434880E+04  0.17202823555E+04  0.65864270000E+03 0. -1.
    8880022    1    1    2    0    0  0.19114409598E+03 -0.14108420753E+03 -0.17654776376E+04  0.17879440039E+04  0.15294330000E+03 0.  0.
<mgrwt>
<rscale>  0 0.55805806E+03</rscale>
<asrwt>0</asrwt>
<pdfrwt beam="1">  1        2 0.25493017E+00 0.70017928E+03</pdfrwt>
<pdfrwt beam="2">  1       -2 0.28479696E+00 0.70017928E+03</pdfrwt>
<totfact> 0.43512186E-01</totfact>
</mgrwt>
</event>
<event>
 4    1  0.2089815E-007  0.7646868E+03  0.7818608E-02  0.9793122E-01
          2   -1    0    0  501    0  0.00000000000E+00  0.00000000000E+00  0.19630793205E+04  0.19630793205E+04  0.25500000000E-02 0. -1.
         -2   -1    0    0    0  501 -0.00000000000E+00 -0.00000000000E+00 -0.22727989017E+03  0.22727989019E+03  0.25500000000E-02 0.  1.
    8880023    1    1    2    0    0  0.18985349490E+03 -0.33895617546E+03  0.15599888073E+04  0.17373286746E+04  0.65864270000E+03 0.  0.
    8880022    1    1    2    0    0 -0.18985349490E+03  0.33895617546E+03  0.17581062294E+03  0.45303053601E+03  0.15294330000E+03 0.  0.
<mgrwt>
<rscale>  0 0.65732985E+03</rscale>
<asrwt>0</asrwt>
<pdfrwt beam="1">  1        2 0.30201220E+00 0.76468676E+03</pdfrwt>
<pdfrwt beam="2">  1       -2 0.34966137E-01 0.76468676E+03</pdfrwt>
<totfact> 0.55206279E+01</totfact>
</mgrwt>
</event>
<event>
 4    1  0.2089815E-007  0.8360941E+03  0.7818608E-02  0.9637590E-01
         -2   -1    0    0    0  501 -0.00000000000E+00  0.00000000000E+00  0.20649219825E+03  0.20649219826E+03  0.25500000000E-02 0.  1.
          2   -1    0    0  501    0  0.00000000000E+00 -0.00000000000E+00 -0.40833055333E+04  0.40833055333E+04  0.25500000000E-02 0. -1.
    8880023    1    1    2    0    0  0.16047769691E+03 -0.48937724584E+03 -0.35793364524E+04  0.36756907957E+04  0.65864270000E+03 0. -1.
    8880022    1    1    2    0    0 -0.16047769691E+03  0.48937724584E+03 -0.29747688268E+03  0.61410693588E+03  0.15294330000E+03 0.  0.
<mgrwt>
<rscale>  0 0.74857440E+03</rscale>
<asrwt>0</asrwt>
<pdfrwt beam="1">  1        2 0.62820079E+00 0.83609413E+03</pdfrwt>
<pdfrwt beam="2">  1       -2 0.31768034E-01 0.83609413E+03</pdfrwt>
<totfact> 0.29342173E+00</totfact>
</mgrwt>
</event>
<event>
 4    1  0.2089815E-007  0.7165455E+03  0.7818608E-02  0.9934453E-01
         -2   -1    0    0    0  501 -0.00000000000E+00  0.00000000000E+00  0.62641376069E+03  0.62641376069E+03  0.25500000000E-02 0.  1.
          2   -1    0    0  501    0  0.00000000000E+00 -0.00000000000E+00 -0.78652669897E+03  0.78652669898E+03  0.25500000000E-02 0. -1.
    8880023    1    1    2    0    0 -0.16431991318E+03 -0.22940415517E+03 -0.55335546682E+03  0.90533959330E+03  0.65864270000E+03 0.  0.
    8880022    1    1    2    0    0  0.16431991318E+03  0.22940415517E+03  0.39324252853E+03  0.50760086637E+03  0.15294330000E+03 0.  0.
<mgrwt>
<rscale>  0 0.58620226E+03</rscale>
<asrwt>0</asrwt>
<pdfrwt beam="1">  1        2 0.12100411E+00 0.71654554E+03</pdfrwt>
<pdfrwt beam="2">  1       -2 0.96371348E-01 0.71654554E+03</pdfrwt>
<totfact> 0.32292478E+01</totfact>
</mgrwt>
</event>
<event>
 4    1  0.2089815E-007  0.1047745E+04  0.7818608E-02  0.9321597E-01
          2   -1    0    0  501    0  0.00000000000E+00  0.00000000000E+00  0.15015280768E+04  0.15015280768E+04  0.25500000000E-02 0. -1.
         -2   -1    0    0    0  501 -0.00000000000E+00 -0.00000000000E+00 -0.96480222831E+03  0.96480222831E+03  0.25500000000E-02 0.  1.
    8880023    1    1    2    0    0 -0.81469593203E+03  0.15169229902E+02  0.10563902567E+04  0.14878609303E+04  0.65864270000E+03 0.  0.
    8880022    1    1    2    0    0  0.81469593203E+03 -0.15169229902E+02 -0.51966440824E+03  0.97846937479E+03  0.15294330000E+03 0.  0.
<mgrwt>
<rscale>  0 0.98818684E+03</rscale>
<asrwt>0</asrwt>
<pdfrwt beam="1">  1        2 0.23100432E+00 0.10477451E+04</pdfrwt>
<pdfrwt beam="2">  1       -2 0.14843111E+00 0.10477451E+04</pdfrwt>
<totfact> 0.38537777E+00</totfact>
</mgrwt>
</event>
<event>
 4    1  0.2089815E-007  0.7857165E+03  0.7818608E-02  0.9742576E-01
          2   -1    0    0  501    0  0.00000000000E+00  0.00000000000E+00  0.14376263405E+04  0.14376263405E+04  0.25500000000E-02 0. -1.
         -2   -1    0    0    0  501 -0.00000000000E+00 -0.00000000000E+00 -0.35477997495E+03  0.35477997496E+03  0.25500000000E-02 0.  1.
    8880023    1    1    2    0    0 -0.13821628542E+03 -0.40550769990E+03  0.10823947234E+04  0.13375084223E+04  0.65864270000E+03 0. -1.
    8880022    1    1    2    0    0  0.13821628542E+03  0.40550769990E+03  0.45164217913E+00  0.45489789319E+03  0.15294330000E+03 0.  0.
<mgrwt>
<rscale>  0 0.68537434E+03</rscale>
<asrwt>0</asrwt>
<pdfrwt beam="1">  1        2 0.22117328E+00 0.78571652E+03</pdfrwt>
<pdfrwt beam="2">  1       -2 0.54581535E-01 0.78571652E+03</pdfrwt>
<totfact> 0.44263112E+01</totfact>
</mgrwt>
</event>
<event>
 4    1  0.2089815E-007  0.1026169E+04  0.7818608E-02  0.9348094E-01
          2   -1    0    0  501    0  0.00000000000E+00  0.00000000000E+00  0.15206801980E+04  0.15206801980E+04  0.25500000000E-02 0. -1.
         -2   -1    0    0    0  501 -0.00000000000E+00 -0.00000000000E+00 -0.14913986971E+04  0.14913986971E+04  0.25500000000E-02 0.  1.
    8880023    1    1    2    0    0  0.43634607372E+03 -0.65483925834E+03  0.12089964686E+04  0.15857789939E+04  0.65864270000E+03 0.  0.
    8880022    1    1    2    0    0 -0.43634607372E+03  0.65483925834E+03 -0.11797149676E+04  0.14262999012E+04  0.15294330000E+03 0.  0.
<mgrwt>
<rscale>  0 0.96473283E+03</rscale>
<asrwt>0</asrwt>
<pdfrwt beam="1">  1        2 0.23395080E+00 0.10261689E+04</pdfrwt>
<pdfrwt beam="2">  1       -2 0.22944595E+00 0.10261689E+04</pdfrwt>
<totfact> 0.10569057E+00</totfact>
</mgrwt>
</event>
<event>
 4    1  0.2089815E-007  0.1389564E+04  0.7818608E-02  0.8991835E-01
         -2   -1    0    0    0  501 -0.00000000000E+00  0.00000000000E+00  0.12495593826E+04  0.12495593826E+04  0.25500000000E-02 0.  1.
          2   -1    0    0  501    0  0.00000000000E+00 -0.00000000000E+00 -0.27178484034E+04  0.27178484034E+04  0.25500000000E-02 0. -1.
    8880023    1    1    2    0    0 -0.16168517180E+03  0.12128211253E+04 -0.21488502526E+04  0.25589929252E+04  0.65864270000E+03 0.  0.
    8880022    1    1    2    0    0  0.16168517180E+03 -0.12128211253E+04  0.68056123181E+03  0.14084148608E+04  0.15294330000E+03 0.  0.
<mgrwt>
<rscale>  0 0.13486711E+04</rscale>
<asrwt>0</asrwt>
<pdfrwt beam="1">  1        2 0.41813052E+00 0.13895637E+04</pdfrwt>
<pdfrwt beam="2">  1       -2 0.19223991E+00 0.13895637E+04</pdfrwt>
<totfact> 0.37008473E-01</totfact>
</mgrwt>
</event>
<event>
 4    1  0.2089815E-007  0.9547998E+03  0.7818608E-02  0.9443242E-01
          2   -1    0    0  501    0  0.00000000000E+00  0.00000000000E+00  0.21630774266E+04  0.21630774266E+04  0.25500000000E-02 0. -1.
         -2   -1    0    0    0  501 -0.00000000000E+00 -0.00000000000E+00 -0.10847080076E+04  0.10847080076E+04  0.25500000000E-02 0.  1.
    8880023    1    1    2    0    0 -0.59415080564E+03  0.35329485884E+03  0.19222140834E+04  0.21462874052E+04  0.65864270000E+03 0.  0.
    8880022    1    1    2    0    0  0.59415080564E+03 -0.35329485884E+03 -0.84384466445E+03  0.11014980290E+04  0.15294330000E+03 0.  0.
<mgrwt>
<rscale>  0 0.88600919E+03</rscale>
<asrwt>0</asrwt>
<pdfrwt beam="1">  1        2 0.33278114E+00 0.95479979E+03</pdfrwt>
<pdfrwt beam="2">  1       -2 0.16687815E+00 0.95479979E+03</pdfrwt>
<totfact> 0.12237212E+00</totfact>
</mgrwt>
</event>
<event>
 4    1  0.2089815E-007  0.7097009E+03  0.7818608E-02  0.9959113E-01
          2   -1    0    0  501    0  0.00000000000E+00  0.00000000000E+00  0.25446699774E+04  0.25446699774E+04  0.25500000000E-02 0. -1.
         -2   -1    0    0    0  501 -0.00000000000E+00 -0.00000000000E+00 -0.14029467634E+03  0.14029467636E+03  0.25500000000E-02 0.  1.
    8880023    1    1    2    0    0  0.51118890179E+02 -0.25933001980E+03  0.22143237775E+04  0.23252752951E+04  0.65864270000E+03 0.  0.
    8880022    1    1    2    0    0 -0.51118890179E+02  0.25933001980E+03  0.19005152351E+03  0.35968935862E+03  0.15294330000E+03 0.  0.
<mgrwt>
<rscale>  0 0.57479982E+03</rscale>
<asrwt>0</asrwt>
<pdfrwt beam="1">  1        2 0.39148769E+00 0.70970093E+03</pdfrwt>
<pdfrwt beam="2">  1       -2 0.21583796E-01 0.70970093E+03</pdfrwt>
<totfact> 0.64007166E+01</totfact>
</mgrwt>
</event>
<event>
 4    1  0.2089815E-007  0.6922586E+03  0.7818608E-02  0.1003097E+00
          2   -1    0    0  501    0  0.00000000000E+00  0.00000000000E+00  0.14348393326E+04  0.14348393327E+04  0.25500000000E-02 0. -1.
         -2   -1    0    0    0  501 -0.00000000000E+00 -0.00000000000E+00 -0.81507284602E+03  0.81507284603E+03  0.25500000000E-02 0.  1.
    8880023    1    1    2    0    0 -0.14986501514E+03 -0.15150005843E+03  0.13263911381E+04  0.14961736022E+04  0.65864270000E+03 0. -1.
    8880022    1    1    2    0    0  0.14986501514E+03  0.15150005843E+03 -0.70662465151E+03  0.75373857643E+03  0.15294330000E+03 0.  0.
<mgrwt>
<rscale>  0 0.54312845E+03</rscale>
<asrwt>0</asrwt>
<pdfrwt beam="1">  1        2 0.22074451E+00 0.69225862E+03</pdfrwt>
<pdfrwt beam="2">  1       -2 0.12539582E+00 0.69225862E+03</pdfrwt>
<totfact> 0.67908217E+00</totfact>
</mgrwt>
</event>
<event>
 4    1  0.2089815E-007  0.7704779E+03  0.7818608E-02  0.9778700E-01
          2   -1    0    0  501    0  0.00000000000E+00  0.00000000000E+00  0.12200545693E+04  0.12200545693E+04  0.25500000000E-02 0. -1.
         -2   -1    0    0    0  501 -0.00000000000E+00 -0.00000000000E+00 -0.44645946284E+03  0.44645946285E+03  0.25500000000E-02 0.  1.
    8880023    1    1    2    0    0  0.18463546541E+03 -0.35459225670E+03  0.93277322574E+03  0.12098355345E+04  0.65864270000E+03 0.  0.
    8880022    1    1    2    0    0 -0.18463546541E+03  0.35459225670E+03 -0.15917811925E+03  0.45667849770E+03  0.15294330000E+03 0.  0.
<mgrwt>
<rscale>  0 0.66518280E+03</rscale>
<asrwt>0</asrwt>
<pdfrwt beam="1">  1        2 0.18770070E+00 0.77047786E+03</pdfrwt>
<pdfrwt beam="2">  1       -2 0.68686071E-01 0.77047786E+03</pdfrwt>
<totfact> 0.36290116E+01</totfact>
</mgrwt>
</event>
<event>
 4    1  0.2089815E-007  0.1013626E+04  0.7818608E-02  0.9363944E-01
         -2   -1    0    0    0  501 -0.00000000000E+00  0.00000000000E+00  0.13458549345E+04  0.13458549346E+04  0.25500000000E-02 0.  1.
          2   -1    0    0  501    0  0.00000000000E+00 -0.00000000000E+00 -0.83975806131E+03  0.83975806131E+03  0.25500000000E-02 0. -1.
    8880023    1    1    2    0    0 -0.74071608566E+03  0.21205484680E+03 -0.30299073476E+03  0.10579419498E+04  0.65864270000E+03 0.  0.
    8880022    1    1    2    0    0  0.74071608566E+03 -0.21205484680E+03  0.80908760800E+03  0.11276710460E+04  0.15294330000E+03 0.  0.
<mgrwt>
<rscale>  0 0.95103317E+03</rscale>
<asrwt>0</asrwt>
<pdfrwt beam="1">  1        2 0.12919355E+00 0.10136261E+04</pdfrwt>
<pdfrwt beam="2">  1       -2 0.20705460E+00 0.10136261E+04</pdfrwt>
<totfact> 0.38282867E+00</totfact>
</mgrwt>
</event>
<event>
 4    1  0.2089815E-007  0.8167115E+03  0.7818608E-02  0.9675763E-01
          2   -1    0    0  501    0  0.00000000000E+00  0.00000000000E+00  0.83629206955E+03  0.83629206956E+03  0.25500000000E-02 0. -1.
         -2   -1    0    0    0  501 -0.00000000000E+00 -0.00000000000E+00 -0.55678657137E+03  0.55678657137E+03  0.25500000000E-02 0.  1.
    8880023    1    1    2    0    0  0.28795863513E+03 -0.38766897914E+03  0.33651780460E+03  0.88332431870E+03  0.65864270000E+03 0. -1.
    8880022    1    1    2    0    0 -0.28795863513E+03  0.38766897914E+03 -0.57012306410E+02  0.50975432223E+03  0.15294330000E+03 0.  0.
<mgrwt>
<rscale>  0 0.72478363E+03</rscale>
<asrwt>0</asrwt>
<pdfrwt beam="1">  1        2 0.12866032E+00 0.81671147E+03</pdfrwt>
<pdfrwt beam="2">  1       -2 0.85659473E-01 0.81671147E+03</pdfrwt>
<totfact> 0.38750684E+01</totfact>
</mgrwt>
</event>
<event>
 4    1  0.2089815E-007  0.7075204E+03  0.7818608E-02  0.9967327E-01
          2   -1    0    0  501    0  0.00000000000E+00  0.00000000000E+00  0.10304824417E+04  0.10304824417E+04  0.25500000000E-02 0. -1.
         -2   -1    0    0    0  501 -0.00000000000E+00 -0.00000000000E+00 -0.50610129278E+03  0.50610129279E+03  0.25500000000E-02 0.  1.
    8880023    1    1    2    0    0  0.62712314817E+01  0.25833217580E+03  0.84179766340E+03  0.10996401019E+04  0.65864270000E+03 0. -1.
    8880022    1    1    2    0    0 -0.62712314817E+01 -0.25833217580E+03 -0.31741651446E+03  0.43694363259E+03  0.15294330000E+03 0.  0.
<mgrwt>
<rscale>  0 0.57106409E+03</rscale>
<asrwt>0</asrwt>
<pdfrwt beam="1">  1        2 0.15853576E+00 0.70752035E+03</pdfrwt>
<pdfrwt beam="2">  1       -2 0.77861739E-01 0.70752035E+03</pdfrwt>
<totfact> 0.36102050E+01</totfact>
</mgrwt>
</event>
<event>
 4    1  0.2089815E-007  0.1013001E+04  0.7818608E-02  0.9364742E-01
         -2   -1    0    0    0  501 -0.00000000000E+00  0.00000000000E+00  0.65452391209E+03  0.65452391210E+03  0.25500000000E-02 0.  1.
          2   -1    0    0  501    0  0.00000000000E+00 -0.00000000000E+00 -0.21638629778E+04  0.21638629778E+04  0.25500000000E-02 0. -1.
    8880023    1    1    2    0    0  0.31429724971E+03 -0.70255182125E+03 -0.17286668195E+04  0.20036119889E+04  0.65864270000E+03 0.  1.
    8880022    1    1    2    0    0 -0.31429724971E+03  0.70255182125E+03  0.21932775384E+03  0.81477490102E+03  0.15294330000E+03 0.  0.
<mgrwt>
<rscale>  0 0.95034966E+03</rscale>
<asrwt>0</asrwt>
<pdfrwt beam="1">  1        2 0.33290199E+00 0.10130015E+04</pdfrwt>
<pdfrwt beam="2">  1       -2 0.10069599E+00 0.10130015E+04</pdfrwt>
<totfact> 0.44014740E+00</totfact>
</mgrwt>
</event>
<event>
 4    1  0.2089815E-007  0.1269546E+04  0.7818608E-02  0.9092315E-01
          2   -1    0    0  501    0  0.00000000000E+00  0.00000000000E+00  0.24425629857E+04  0.24425629857E+04  0.25500000000E-02 0. -1.
         -2   -1    0    0    0  501 -0.00000000000E+00 -0.00000000000E+00 -0.86195924632E+03  0.86195924633E+03  0.25500000000E-02 0.  1.
    8880023    1    1    2    0    0 -0.44959905220E+03  0.98782464626E+03  0.17841462049E+04  0.21897316562E+04  0.65864270000E+03 0.  0.
    8880022    1    1    2    0    0  0.44959905220E+03 -0.98782464626E+03 -0.20354246558E+03  0.11147905758E+04  0.15294330000E+03 0.  0.
<mgrwt>
<rscale>  0 0.12237538E+04</rscale>
<asrwt>0</asrwt>
<pdfrwt beam="1">  1        2 0.37577892E+00 0.12695460E+04</pdfrwt>
<pdfrwt beam="2">  1       -2 0.13260912E+00 0.12695460E+04</pdfrwt>
<totfact> 0.15060049E+00</totfact>
</mgrwt>
</event>
<event>
 4    1  0.2089815E-007  0.1076963E+04  0.7818608E-02  0.9287148E-01
          2   -1    0    0  501    0  0.00000000000E+00  0.00000000000E+00  0.14604711610E+04  0.14604711610E+04  0.25500000000E-02 0. -1.
         -2   -1    0    0    0  501 -0.00000000000E+00 -0.00000000000E+00 -0.98056776121E+03  0.98056776121E+03  0.25500000000E-02 0.  1.
    8880023    1    1    2    0    0  0.22342512022E+03 -0.82226597597E+03 -0.45299207466E+03  0.11683544606E+04  0.65864270000E+03 0.  0.
    8880022    1    1    2    0    0 -0.22342512022E+03  0.82226597597E+03  0.93289547442E+03  0.12726844616E+04  0.15294330000E+03 0.  0.
<mgrwt>
<rscale>  0 0.10197465E+04</rscale>
<asrwt>0</asrwt>
<pdfrwt beam="1">  1        2 0.22468787E+00 0.10769635E+04</pdfrwt>
<pdfrwt beam="2">  1       -2 0.15085658E+00 0.10769635E+04</pdfrwt>
<totfact> 0.38815756E+00</totfact>
</mgrwt>
</event>
<event>
 4    1  0.2089815E-007  0.6893764E+03  0.7818608E-02  0.1004450E+00
          2   -1    0    0  501    0  0.00000000000E+00  0.00000000000E+00  0.50208221508E+03  0.50208221508E+03  0.25500000000E-02 0. -1.
         -2   -1    0    0    0  501 -0.00000000000E+00 -0.00000000000E+00 -0.80891712977E+03  0.80891712977E+03  0.25500000000E-02 0.  1.
    8880023    1    1    2    0    0  0.17130410738E+03 -0.10992944915E+03  0.22185799554E+03  0.72419662899E+03  0.65864270000E+03 0. -1.
    8880022    1    1    2    0    0 -0.17130410738E+03  0.10992944915E+03 -0.52869291024E+03  0.58680271586E+03  0.15294330000E+03 0.  0.
<mgrwt>
<rscale>  0 0.53741150E+03</rscale>
<asrwt>0</asrwt>
<pdfrwt beam="1">  1        2 0.77243418E-01 0.68937638E+03</pdfrwt>
<pdfrwt beam="2">  1       -2 0.12444879E+00 0.68937638E+03</pdfrwt>
<totfact> 0.30225756E+01</totfact>
</mgrwt>
</event>
<event>
 4    1  0.2089815E-007  0.1027107E+04  0.7818608E-02  0.9346922E-01
          2   -1    0    0  501    0  0.00000000000E+00  0.00000000000E+00  0.18110164183E+04  0.18110164183E+04  0.25500000000E-02 0. -1.
         -2   -1    0    0    0  501 -0.00000000000E+00 -0.00000000000E+00 -0.56765681000E+03  0.56765681001E+03  0.25500000000E-02 0.  1.
    8880023    1    1    2    0    0 -0.28728441572E+03  0.73389752090E+03  0.17439704549E+03  0.10418072962E+04  0.65864270000E+03 0.  0.
    8880022    1    1    2    0    0  0.28728441572E+03 -0.73389752090E+03  0.10689625628E+04  0.13368659321E+04  0.15294330000E+03 0.  0.
<mgrwt>
<rscale>  0 0.96575512E+03</rscale>
<asrwt>0</asrwt>
<pdfrwt beam="1">  1        2 0.27861791E+00 0.10271067E+04</pdfrwt>
<pdfrwt beam="2">  1       -2 0.87331816E-01 0.10271067E+04</pdfrwt>
<totfact> 0.96012961E+00</totfact>
</mgrwt>
</event>
<event>
 4    1  0.2089815E-007  0.8337840E+03  0.7818608E-02  0.9642014E-01
         -2   -1    0    0    0  501 -0.00000000000E+00  0.00000000000E+00  0.48439993662E+03  0.48439993662E+03  0.25500000000E-02 0.  1.
          2   -1    0    0  501    0  0.00000000000E+00 -0.00000000000E+00 -0.28969049330E+04  0.28969049330E+04  0.25500000000E-02 0. -1.
    8880023    1    1    2    0    0 -0.49980340943E+03 -0.10762028288E+03 -0.26639528599E+04  0.27913868630E+04  0.65864270000E+03 0. -1.
    8880022    1    1    2    0    0  0.49980340943E+03  0.10762028288E+03  0.25144786351E+03  0.58991800654E+03  0.15294330000E+03 0.  0.
<mgrwt>
<rscale>  0 0.74576729E+03</rscale>
<asrwt>0</asrwt>
<pdfrwt beam="1">  1        2 0.44567767E+00 0.83378401E+03</pdfrwt>
<pdfrwt beam="2">  1       -2 0.74523069E-01 0.83378401E+03</pdfrwt>
<totfact> 0.34207134E+00</totfact>
</mgrwt>
</event>
<event>
 4    1  0.2089815E-007  0.2150870E+04  0.7818608E-02  0.8549860E-01
          2   -1    0    0  501    0  0.00000000000E+00  0.00000000000E+00  0.53887947781E+04  0.53887947781E+04  0.25500000000E-02 0. -1.
         -2   -1    0    0    0  501 -0.00000000000E+00 -0.00000000000E+00 -0.25181266690E+04  0.25181266690E+04  0.25500000000E-02 0.  1.
    8880023    1    1    2    0    0  0.18242298186E+04  0.92984748079E+03  0.46924927578E+04  0.51619501409E+04  0.65864270000E+03 0.  0.
    8880022    1    1    2    0    0 -0.18242298186E+04 -0.92984748079E+03 -0.18218246487E+04  0.27449713062E+04  0.15294330000E+03 0.  0.
<mgrwt>
<rscale>  0 0.21260373E+04</rscale>
<asrwt>0</asrwt>
<pdfrwt beam="1">  1        2 0.82904534E+00 0.21508698E+04</pdfrwt>
<pdfrwt beam="2">  1       -2 0.38740411E+00 0.21508698E+04</pdfrwt>
<totfact> 0.73816623E-05</totfact>
</mgrwt>
</event>
<event>
 4    1  0.2089815E-007  0.1074294E+04  0.7818608E-02  0.9290231E-01
          2   -1    0    0  501    0  0.00000000000E+00  0.00000000000E+00  0.15567213115E+04  0.15567213115E+04  0.25500000000E-02 0. -1.
         -2   -1    0    0    0  501 -0.00000000000E+00 -0.00000000000E+00 -0.78638070477E+03  0.78638070477E+03  0.25500000000E-02 0.  1.
    8880023    1    1    2    0    0  0.56901258957E+03  0.62970043373E+03  0.98161581518E+03  0.14552243051E+04  0.65864270000E+03 0.  1.
    8880022    1    1    2    0    0 -0.56901258957E+03 -0.62970043373E+03 -0.21127520841E+03  0.88787771119E+03  0.15294330000E+03 0.  0.
<mgrwt>
<rscale>  0 0.10168723E+04</rscale>
<asrwt>0</asrwt>
<pdfrwt beam="1">  1        2 0.23949559E+00 0.10742943E+04</pdfrwt>
<pdfrwt beam="2">  1       -2 0.12098165E+00 0.10742943E+04</pdfrwt>
<totfact> 0.60542320E+00</totfact>
</mgrwt>
</event>
<event>
 4    1  0.2089815E-007  0.1105501E+04  0.7818608E-02  0.9254956E-01
          2   -1    0    0  501    0  0.00000000000E+00  0.00000000000E+00  0.16963936716E+04  0.16963936716E+04  0.25500000000E-02 0. -1.
         -2   -1    0    0    0  501 -0.00000000000E+00 -0.00000000000E+00 -0.13108646933E+04  0.13108646933E+04  0.25500000000E-02 0.  1.
    8880023    1    1    2    0    0  0.76675766690E+03 -0.44766696478E+03  0.13115225035E+04  0.17152913789E+04  0.65864270000E+03 0.  0.
    8880022    1    1    2    0    0 -0.76675766690E+03  0.44766696478E+03 -0.92599352517E+03  0.12919669859E+04  0.15294330000E+03 0.  0.
<mgrwt>
<rscale>  0 0.10503762E+04</rscale>
<asrwt>0</asrwt>
<pdfrwt beam="1">  1        2 0.26098364E+00 0.11055014E+04</pdfrwt>
<pdfrwt beam="2">  1       -2 0.20167149E+00 0.11055014E+04</pdfrwt>
<totfact> 0.12538944E+00</totfact>
</mgrwt>
</event>
<event>
 4    1  0.2089815E-007  0.1096597E+04  0.7818608E-02  0.9264854E-01
         -2   -1    0    0    0  501 -0.00000000000E+00  0.00000000000E+00  0.94410543975E+03  0.94410543975E+03  0.25500000000E-02 0.  1.
          2   -1    0    0  501    0  0.00000000000E+00 -0.00000000000E+00 -0.14049696068E+04  0.14049696068E+04  0.25500000000E-02 0. -1.
    8880023    1    1    2    0    0 -0.87672065307E+03  0.86914710780E+01 -0.84033249443E+03  0.13815511401E+04  0.65864270000E+03 0.  0.
    8880022    1    1    2    0    0  0.87672065307E+03 -0.86914710780E+01  0.37946832735E+03  0.96752390651E+03  0.15294330000E+03 0.  0.
<mgrwt>
<rscale>  0 0.10408382E+04</rscale>
<asrwt>0</asrwt>
<pdfrwt beam="1">  1        2 0.21614917E+00 0.10965969E+04</pdfrwt>
<pdfrwt beam="2">  1       -2 0.14524699E+00 0.10965969E+04</pdfrwt>
<totfact> 0.46064106E+00</totfact>
</mgrwt>
</event>
<event>
 4    1  0.2089815E-007  0.8289554E+03  0.7818608E-02  0.9651368E-01
          2   -1    0    0  501    0  0.00000000000E+00  0.00000000000E+00  0.91601835779E+03  0.91601835779E+03  0.25500000000E-02 0. -1.
         -2   -1    0    0    0  501 -0.00000000000E+00 -0.00000000000E+00 -0.10008043709E+04  0.10008043709E+04  0.25500000000E-02 0.  1.
    8880023    1    1    2    0    0  0.99809735800E+02 -0.49335067639E+03  0.62155947786E+03  0.10361000261E+04  0.65864270000E+03 0.  0.
    8880022    1    1    2    0    0 -0.99809735800E+02  0.49335067639E+03 -0.70634549096E+03  0.88072270260E+03  0.15294330000E+03 0.  0.
<mgrwt>
<rscale>  0 0.73987618E+03</rscale>
<asrwt>0</asrwt>
<pdfrwt beam="1">  1        2 0.14092590E+00 0.82895541E+03</pdfrwt>
<pdfrwt beam="2">  1       -2 0.15396990E+00 0.82895541E+03</pdfrwt>
<totfact> 0.80607876E+00</totfact>
</mgrwt>
</event>
<event>
 4    1  0.2089815E-007  0.1035972E+04  0.7818608E-02  0.9335938E-01
          2   -1    0    0  501    0  0.00000000000E+00  0.00000000000E+00  0.13483208369E+04  0.13483208369E+04  0.25500000000E-02 0. -1.
         -2   -1    0    0    0  501 -0.00000000000E+00 -0.00000000000E+00 -0.73442956802E+03  0.73442956802E+03  0.25500000000E-02 0.  1.
    8880023    1    1    2    0    0  0.71278700921E+03  0.36243946273E+03  0.72018041402E+03  0.12617042917E+04  0.65864270000E+03 0. -1.
    8880022    1    1    2    0    0 -0.71278700921E+03 -0.36243946273E+03 -0.10628914515E+03  0.82104611322E+03  0.15294330000E+03 0.  0.
<mgrwt>
<rscale>  0 0.97540594E+03</rscale>
<asrwt>0</asrwt>
<pdfrwt beam="1">  1        2 0.20743397E+00 0.10359720E+04</pdfrwt>
<pdfrwt beam="2">  1       -2 0.11298917E+00 0.10359720E+04</pdfrwt>
<totfact> 0.94461070E+00</totfact>
</mgrwt>
</event>
<event>
 4    1  0.2089815E-007  0.9034285E+03  0.7818608E-02  0.9520550E-01
         -2   -1    0    0    0  501 -0.00000000000E+00  0.00000000000E+00  0.94361473075E+03  0.94361473075E+03  0.25500000000E-02 0.  1.
          2   -1    0    0  501    0  0.00000000000E+00 -0.00000000000E+00 -0.12377856489E+04  0.12377856489E+04  0.25500000000E-02 0. -1.
    8880023    1    1    2    0    0  0.56077152684E+03 -0.26059193569E+03 -0.91929351811E+03  0.12889079257E+04  0.65864270000E+03 0. -1.
    8880022    1    1    2    0    0 -0.56077152684E+03  0.26059193569E+03  0.62512259999E+03  0.89249245392E+03  0.15294330000E+03 0.  0.
<mgrwt>
<rscale>  0 0.82785562E+03</rscale>
<asrwt>0</asrwt>
<pdfrwt beam="1">  1        2 0.19042856E+00 0.90342851E+03</pdfrwt>
<pdfrwt beam="2">  1       -2 0.14517150E+00 0.90342851E+03</pdfrwt>
<totfact> 0.58868097E+00</totfact>
</mgrwt>
</event>
<event>
 4    1  0.2089815E-007  0.1286000E+04  0.7818608E-02  0.9077745E-01
          2   -1    0    0  501    0  0.00000000000E+00  0.00000000000E+00  0.22151115769E+04  0.22151115769E+04  0.25500000000E-02 0. -1.
         -2   -1    0    0    0  501 -0.00000000000E+00 -0.00000000000E+00 -0.11157821752E+04  0.11157821752E+04  0.25500000000E-02 0.  1.
    8880023    1    1    2    0    0  0.38620686045E+03 -0.10348086852E+04  0.16461824196E+04  0.20889498603E+04  0.65864270000E+03 0. -1.
    8880022    1    1    2    0    0 -0.38620686045E+03  0.10348086852E+04 -0.54685301791E+03  0.12419438917E+04  0.15294330000E+03 0.  0.
<mgrwt>
<rscale>  0 0.12409548E+04</rscale>
<asrwt>0</asrwt>
<pdfrwt beam="1">  1        2 0.34078640E+00 0.12859996E+04</pdfrwt>
<pdfrwt beam="2">  1       -2 0.17165880E+00 0.12859996E+04</pdfrwt>
<totfact> 0.10119855E+00</totfact>
</mgrwt>
</event>
<event>
 4    1  0.2089815E-007  0.7324421E+03  0.7818608E-02  0.9882536E-01
          2   -1    0    0  501    0  0.00000000000E+00  0.00000000000E+00  0.15280816719E+04  0.15280816719E+04  0.25500000000E-02 0. -1.
         -2   -1    0    0    0  501 -0.00000000000E+00 -0.00000000000E+00 -0.10739779989E+04  0.10739779989E+04  0.25500000000E-02 0.  1.
    8880023    1    1    2    0    0  0.13852397083E+03  0.28891588971E+03  0.14064198165E+04  0.15857137789E+04  0.65864270000E+03 0. -1.
    8880022    1    1    2    0    0 -0.13852397083E+03 -0.28891588971E+03 -0.95231614351E+03  0.10163458919E+04  0.15294330000E+03 0.  0.
<mgrwt>
<rscale>  0 0.61115182E+03</rscale>
<asrwt>0</asrwt>
<pdfrwt beam="1">  1        2 0.23508949E+00 0.73244214E+03</pdfrwt>
<pdfrwt beam="2">  1       -2 0.16522738E+00 0.73244214E+03</pdfrwt>
<totfact> 0.29116106E+00</totfact>
</mgrwt>
</event>
<event>
 4    1  0.2089815E-007  0.7742774E+03  0.7818608E-02  0.9769455E-01
          2   -1    0    0  501    0  0.00000000000E+00  0.00000000000E+00  0.28912032383E+04  0.28912032383E+04  0.25500000000E-02 0. -1.
         -2   -1    0    0    0  501 -0.00000000000E+00 -0.00000000000E+00 -0.37159595325E+03  0.37159595326E+03  0.25500000000E-02 0.  1.
    8880023    1    1    2    0    0  0.39869717670E+03 -0.82072565336E+02  0.26873930921E+04  0.27967100640E+04  0.65864270000E+03 0. -1.
    8880022    1    1    2    0    0 -0.39869717670E+03  0.82072565336E+02 -0.16778580707E+03  0.46608912748E+03  0.15294330000E+03 0.  0.
<mgrwt>
<rscale>  0 0.67027830E+03</rscale>
<asrwt>0</asrwt>
<pdfrwt beam="1">  1        2 0.44480051E+00 0.77427744E+03</pdfrwt>
<pdfrwt beam="2">  1       -2 0.57168607E-01 0.77427744E+03</pdfrwt>
<totfact> 0.61664660E+00</totfact>
</mgrwt>
</event>
<event>
 4    1  0.2089815E-007  0.7883139E+03  0.7818608E-02  0.9736658E-01
          2   -1    0    0  501    0  0.00000000000E+00  0.00000000000E+00  0.46466712816E+04  0.46466712816E+04  0.25500000000E-02 0. -1.
         -2   -1    0    0    0  501 -0.00000000000E+00 -0.00000000000E+00 -0.35752340128E+03  0.35752340128E+03  0.25500000000E-02 0.  1.
    8880023    1    1    2    0    0  0.38817676678E+03  0.19221690729E+03  0.44486241705E+04  0.45179304729E+04  0.65864270000E+03 0.  0.
    8880022    1    1    2    0    0 -0.38817676678E+03 -0.19221690729E+03 -0.15947629018E+03  0.48626420993E+03  0.15294330000E+03 0.  0.
<mgrwt>
<rscale>  0 0.68875518E+03</rscale>
<asrwt>0</asrwt>
<pdfrwt beam="1">  1        2 0.71487247E+00 0.78831386E+03</pdfrwt>
<pdfrwt beam="2">  1       -2 0.55003603E-01 0.78831386E+03</pdfrwt>
<totfact> 0.31010248E-01</totfact>
</mgrwt>
</event>
<event>
 4    1  0.2089815E-007  0.8692400E+03  0.7818608E-02  0.9577334E-01
         -2   -1    0    0    0  501 -0.00000000000E+00  0.00000000000E+00  0.51422688492E+03  0.51422688492E+03  0.25500000000E-02 0.  1.
          2   -1    0    0  501    0  0.00000000000E+00 -0.00000000000E+00 -0.21824407462E+04  0.21824407462E+04  0.25500000000E-02 0. -1.
    8880023    1    1    2    0    0 -0.39328036467E+03 -0.40877684344E+03 -0.18807465358E+04  0.20719038808E+04  0.65864270000E+03 0. -1.
    8880022    1    1    2    0    0  0.39328036467E+03  0.40877684344E+03  0.21253267453E+03  0.62476375033E+03  0.15294330000E+03 0.  0.
<mgrwt>
<rscale>  0 0.78814708E+03</rscale>
<asrwt>0</asrwt>
<pdfrwt beam="1">  1        2 0.33576011E+00 0.86923999E+03</pdfrwt>
<pdfrwt beam="2">  1       -2 0.79111830E-01 0.86923999E+03</pdfrwt>
<totfact> 0.76513911E+00</totfact>
</mgrwt>
</event>
<event>
 4    1  0.2089815E-007  0.6703880E+03  0.7818608E-02  0.1015386E+00
         -2   -1    0    0    0  501 -0.00000000000E+00  0.00000000000E+00  0.68319271693E+03  0.68319271693E+03  0.25500000000E-02 0.  1.
          2   -1    0    0  501    0  0.00000000000E+00 -0.00000000000E+00 -0.23037563777E+04  0.23037563777E+04  0.25500000000E-02 0. -1.
    8880023    1    1    2    0    0 -0.10267991176E+03  0.71180530948E+02 -0.22392814727E+04  0.23374776047E+04  0.65864270000E+03 0. -1.
    8880022    1    1    2    0    0  0.10267991176E+03 -0.71180530948E+02  0.61871781199E+03  0.64947148987E+03  0.15294330000E+03 0.  0.
<mgrwt>
<rscale>  0 0.49388951E+03</rscale>
<asrwt>0</asrwt>
<pdfrwt beam="1">  1        2 0.35442406E+00 0.67038798E+03</pdfrwt>
<pdfrwt beam="2">  1       -2 0.10510657E+00 0.67038798E+03</pdfrwt>
<totfact> 0.35087077E+00</totfact>
</mgrwt>
</event>
<event>
 4    1  0.2089815E-007  0.1040069E+04  0.7818608E-02  0.9330916E-01
         -2   -1    0    0    0  501 -0.00000000000E+00  0.00000000000E+00  0.75402069848E+03  0.75402069848E+03  0.25500000000E-02 0.  1.
          2   -1    0    0  501    0  0.00000000000E+00 -0.00000000000E+00 -0.19757209528E+04  0.19757209528E+04  0.25500000000E-02 0. -1.
    8880023    1    1    2    0    0  0.34586311530E+03 -0.72685140843E+03 -0.15336183467E+04  0.18530325696E+04  0.65864270000E+03 0. -1.
    8880022    1    1    2    0    0 -0.34586311530E+03  0.72685140843E+03  0.31191809240E+03  0.87670908165E+03  0.15294330000E+03 0.  0.
<mgrwt>
<rscale>  0 0.97985866E+03</rscale>
<asrwt>0</asrwt>
<pdfrwt beam="1">  1        2 0.30395707E+00 0.10400695E+04</pdfrwt>
<pdfrwt beam="2">  1       -2 0.11600319E+00 0.10400695E+04</pdfrwt>
<totfact> 0.39550563E+00</totfact>
</mgrwt>
</event>
<event>
 4    1  0.2089815E-007  0.7314122E+03  0.7818608E-02  0.9885708E-01
         -2   -1    0    0    0  501 -0.00000000000E+00  0.00000000000E+00  0.93250204660E+03  0.93250204660E+03  0.25500000000E-02 0.  1.
          2   -1    0    0  501    0  0.00000000000E+00 -0.00000000000E+00 -0.53885132273E+03  0.53885132274E+03  0.25500000000E-02 0. -1.
    8880023    1    1    2    0    0  0.55080701797E+02  0.31324072402E+03 -0.21972094931E+03  0.76370225659E+03  0.65864270000E+03 0. -1.
    8880022    1    1    2    0    0 -0.55080701797E+02 -0.31324072402E+03  0.61337167318E+03  0.70765111274E+03  0.15294330000E+03 0.  1.
<mgrwt>
<rscale>  0 0.60958963E+03</rscale>
<asrwt>0</asrwt>
<pdfrwt beam="1">  1        2 0.82900204E-01 0.73141222E+03</pdfrwt>
<pdfrwt beam="2">  1       -2 0.14346185E+00 0.73141222E+03</pdfrwt>
<totfact> 0.19295718E+01</totfact>
</mgrwt>
</event>
<event>
 4    1  0.2089815E-007  0.1076815E+04  0.7818608E-02  0.9287319E-01
          2   -1    0    0  501    0  0.00000000000E+00  0.00000000000E+00  0.20262638772E+04  0.20262638773E+04  0.25500000000E-02 0. -1.
         -2   -1    0    0    0  501 -0.00000000000E+00 -0.00000000000E+00 -0.71317962262E+03  0.71317962263E+03  0.25500000000E-02 0.  1.
    8880023    1    1    2    0    0 -0.40579332952E+03  0.74903453469E+03  0.15072817354E+04  0.18524117784E+04  0.65864270000E+03 0.  0.
    8880022    1    1    2    0    0  0.40579332952E+03 -0.74903453469E+03 -0.19419748078E+03  0.88703172153E+03  0.15294330000E+03 0.  0.
<mgrwt>
<rscale>  0 0.10195870E+04</rscale>
<asrwt>0</asrwt>
<pdfrwt beam="1">  1        2 0.31173290E+00 0.10768153E+04</pdfrwt>
<pdfrwt beam="2">  1       -2 0.10971994E+00 0.10768153E+04</pdfrwt>
<totfact> 0.42319552E+00</totfact>
</mgrwt>
</event>
<event>
 4    1  0.2089815E-007  0.1626881E+04  0.7818608E-02  0.8824876E-01
         -2   -1    0    0    0  501 -0.00000000000E+00  0.00000000000E+00  0.32052245679E+04  0.32052245679E+04  0.25500000000E-02 0.  1.
          2   -1    0    0  501    0  0.00000000000E+00 -0.00000000000E+00 -0.16696453624E+04  0.16696453624E+04  0.25500000000E-02 0. -1.
    8880023    1    1    2    0    0  0.80726627262E+03 -0.12495007683E+04 -0.10154874709E+04  0.19177997849E+04  0.65864270000E+03 0. -1.
    8880022    1    1    2    0    0 -0.80726627262E+03  0.12495007683E+04  0.25510666764E+04  0.29570701455E+04  0.15294330000E+03 0.  0.
<mgrwt>
<rscale>  0 0.15929737E+04</rscale>
<asrwt>0</asrwt>
<pdfrwt beam="1">  1        2 0.25686852E+00 0.16268808E+04</pdfrwt>
<pdfrwt beam="2">  1       -2 0.49311147E+00 0.16268808E+04</pdfrwt>
<totfact> 0.17061555E-02</totfact>
</mgrwt>
</event>
<event>
 4    1  0.2089815E-007  0.7988524E+03  0.7818608E-02  0.9713283E-01
          2   -1    0    0  501    0  0.00000000000E+00  0.00000000000E+00  0.26427224164E+04  0.26427224164E+04  0.25500000000E-02 0. -1.
         -2   -1    0    0    0  501 -0.00000000000E+00 -0.00000000000E+00 -0.23220831593E+03  0.23220831594E+03  0.25500000000E-02 0.  1.
    8880023    1    1    2    0    0 -0.38445506200E+03  0.23780103853E+03  0.22230086764E+04  0.23621881403E+04  0.65864270000E+03 0. -1.
    8880022    1    1    2    0    0  0.38445506200E+03 -0.23780103853E+03  0.18750542408E+03  0.51274259204E+03  0.15294330000E+03 0.  0.
<mgrwt>
<rscale>  0 0.70231418E+03</rscale>
<asrwt>0</asrwt>
<pdfrwt beam="1">  1        2 0.40657270E+00 0.79885245E+03</pdfrwt>
<pdfrwt beam="2">  1       -2 0.35724355E-01 0.79885245E+03</pdfrwt>
<totfact> 0.22022329E+01</totfact>
</mgrwt>
</event>
<event>
 4    1  0.2089815E-007  0.1757162E+04  0.7818608E-02  0.8746610E-01
          2   -1    0    0  501    0  0.00000000000E+00  0.00000000000E+00  0.24903692752E+04  0.24903692752E+04  0.25500000000E-02 0. -1.
         -2   -1    0    0    0  501 -0.00000000000E+00 -0.00000000000E+00 -0.14950704643E+04  0.14950704643E+04  0.25500000000E-02 0.  1.
    8880023    1    1    2    0    0 -0.13437046922E+04 -0.92101292468E+03  0.14599496534E+04  0.22845284643E+04  0.65864270000E+03 0.  0.
    8880022    1    1    2    0    0  0.13437046922E+04  0.92101292468E+03 -0.46465084253E+03  0.17009112751E+04  0.15294330000E+03 0.  0.
<mgrwt>
<rscale>  0 0.17261116E+04</rscale>
<asrwt>0</asrwt>
<pdfrwt beam="1">  1        2 0.38313373E+00 0.17571617E+04</pdfrwt>
<pdfrwt beam="2">  1       -2 0.23001084E+00 0.17571617E+04</pdfrwt>
<totfact> 0.27505266E-01</totfact>
</mgrwt>
</event>
<event>
 4    1  0.2089815E-007  0.9676264E+03  0.7818608E-02  0.9425195E-01
         -2   -1    0    0    0  501 -0.00000000000E+00  0.00000000000E+00  0.49379594731E+03  0.49379594732E+03  0.25500000000E-02 0.  1.
          2   -1    0    0  501    0  0.00000000000E+00 -0.00000000000E+00 -0.22270258235E+04  0.22270258235E+04  0.25500000000E-02 0. -1.
    8880023    1    1    2    0    0  0.44057418653E+03  0.55532425685E+03 -0.17452501045E+04  0.19955447321E+04  0.65864270000E+03 0.  0.
    8880022    1    1    2    0    0 -0.44057418653E+03 -0.55532425685E+03  0.12020228312E+02  0.72527703878E+03  0.15294330000E+03 0.  0.
<mgrwt>
<rscale>  0 0.90030954E+03</rscale>
<asrwt>0</asrwt>
<pdfrwt beam="1">  1        2 0.34261935E+00 0.96762640E+03</pdfrwt>
<pdfrwt beam="2">  1       -2 0.75968609E-01 0.96762640E+03</pdfrwt>
<totfact> 0.78135303E+00</totfact>
</mgrwt>
</event>
<event>
 4    1  0.2089815E-007  0.1083234E+04  0.7818608E-02  0.9279956E-01
          2   -1    0    0  501    0  0.00000000000E+00  0.00000000000E+00  0.29570510031E+04  0.29570510031E+04  0.25500000000E-02 0. -1.
         -2   -1    0    0    0  501 -0.00000000000E+00 -0.00000000000E+00 -0.61444151023E+03  0.61444151023E+03  0.25500000000E-02 0.  1.
    8880023    1    1    2    0    0  0.81708789861E+03  0.26824129888E+03  0.24621134227E+04  0.26898696513E+04  0.65864270000E+03 0. -1.
    8880022    1    1    2    0    0 -0.81708789861E+03 -0.26824129888E+03 -0.11950392990E+03  0.88162286197E+03  0.15294330000E+03 0.  0.
<mgrwt>
<rscale>  0 0.10264924E+04</rscale>
<asrwt>0</asrwt>
<pdfrwt beam="1">  1        2 0.45493092E+00 0.10832342E+04</pdfrwt>
<pdfrwt beam="2">  1       -2 0.94529463E-01 0.10832342E+04</pdfrwt>
<totfact> 0.17574677E+00</totfact>
</mgrwt>
</event>
<event>
 4    1  0.2089815E-007  0.7386113E+03  0.7818608E-02  0.9864011E-01
         -2   -1    0    0    0  501 -0.00000000000E+00  0.00000000000E+00  0.12372807046E+04  0.12372807046E+04  0.25500000000E-02 0.  1.
          2   -1    0    0  501    0  0.00000000000E+00 -0.00000000000E+00 -0.50225871896E+03  0.50225871897E+03  0.25500000000E-02 0. -1.
    8880023    1    1    2    0    0 -0.27926658740E+03  0.18370261895E+03 -0.17415089001E+03  0.75886442650E+03  0.65864270000E+03 0. -1.
    8880022    1    1    2    0    0  0.27926658740E+03 -0.18370261895E+03  0.90917287564E+03  0.98067499706E+03  0.15294330000E+03 0.  0.
<mgrwt>
<rscale>  0 0.62037629E+03</rscale>
<asrwt>0</asrwt>
<pdfrwt beam="1">  1        2 0.77270572E-01 0.73861132E+03</pdfrwt>
<pdfrwt beam="2">  1       -2 0.19035088E+00 0.73861132E+03</pdfrwt>
<totfact> 0.96247854E+00</totfact>
</mgrwt>
</event>
<event>
 4    1  0.2089815E-007  0.1197514E+04  0.7818608E-02  0.9159543E-01
         -2   -1    0    0    0  501 -0.00000000000E+00  0.00000000000E+00  0.69606079386E+03  0.69606079387E+03  0.25500000000E-02 0.  1.
          2   -1    0    0  501    0  0.00000000000E+00 -0.00000000000E+00 -0.19895037036E+04  0.19895037036E+04  0.25500000000E-02 0. -1.
    8880023    1    1    2    0    0 -0.96079607348E+03 -0.27766952214E+03 -0.23312511809E+03  0.12199946661E+04  0.65864270000E+03 0.  0.
    8880022    1    1    2    0    0  0.96079607348E+03  0.27766952214E+03 -0.10603177916E+04  0.14655698313E+04  0.15294330000E+03 0.  0.
<mgrwt>
<rscale>  0 0.11480950E+04</rscale>
<asrwt>0</asrwt>
<pdfrwt beam="1">  1        2 0.30607749E+00 0.11975140E+04</pdfrwt>
<pdfrwt beam="2">  1       -2 0.10708628E+00 0.11975140E+04</pdfrwt>
<totfact> 0.46437987E+00</totfact>
</mgrwt>
</event>
<event>
 4    1  0.2089815E-007  0.1369567E+04  0.7818608E-02  0.9007698E-01
          2   -1    0    0  501    0  0.00000000000E+00  0.00000000000E+00  0.16469642917E+04  0.16469642917E+04  0.25500000000E-02 0. -1.
         -2   -1    0    0    0  501 -0.00000000000E+00 -0.00000000000E+00 -0.10475810506E+04  0.10475810506E+04  0.25500000000E-02 0.  1.
    8880023    1    1    2    0    0  0.76961578757E+03 -0.92173502360E+03  0.57068839475E+03  0.14837113481E+04  0.65864270000E+03 0.  0.
    8880022    1    1    2    0    0 -0.76961578757E+03  0.92173502360E+03  0.28694846370E+02  0.12108339942E+04  0.15294330000E+03 0.  0.
<mgrwt>
<rscale>  0 0.13279391E+04</rscale>
<asrwt>0</asrwt>
<pdfrwt beam="1">  1        2 0.25337912E+00 0.13695671E+04</pdfrwt>
<pdfrwt beam="2">  1       -2 0.16116632E+00 0.13695671E+04</pdfrwt>
<totfact> 0.24770657E+00</totfact>
</mgrwt>
</event>
<event>
 4    1  0.2089815E-007  0.6588111E+03  0.7818608E-02  0.1025409E+00
          2   -1    0    0  501    0  0.00000000000E+00  0.00000000000E+00  0.13904961803E+04  0.13904961803E+04  0.25500000000E-02 0. -1.
         -2   -1    0    0    0  501 -0.00000000000E+00 -0.00000000000E+00 -0.25915747540E+03  0.25915747542E+03  0.25500000000E-02 0.  1.
    8880023    1    1    2    0    0  0.31181027675E+01 -0.14564335435E+02  0.12776297262E+04  0.14374873098E+04  0.65864270000E+03 0. -1.
    8880022    1    1    2    0    0 -0.31181027675E+01  0.14564335435E+02 -0.14629102125E+03  0.21216634593E+03  0.15294330000E+03 0.  0.
<mgrwt>
<rscale>  0 0.45784208E+03</rscale>
<asrwt>0</asrwt>
<pdfrwt beam="1">  1        2 0.21392249E+00 0.65881109E+03</pdfrwt>
<pdfrwt beam="2">  1       -2 0.39870380E-01 0.65881109E+03</pdfrwt>
<totfact> 0.89530228E+01</totfact>
</mgrwt>
</event>
<event>
 4    1  0.2089815E-007  0.1322239E+04  0.7818608E-02  0.9046589E-01
         -2   -1    0    0    0  501 -0.00000000000E+00  0.00000000000E+00  0.12179022674E+04  0.12179022674E+04  0.25500000000E-02 0.  1.
          2   -1    0    0  501    0  0.00000000000E+00 -0.00000000000E+00 -0.20744525271E+04  0.20744525271E+04  0.25500000000E-02 0. -1.
    8880023    1    1    2    0    0 -0.17737472970E+03  0.11327152310E+04 -0.14748596342E+04  0.19807894225E+04  0.65864270000E+03 0. -1.
    8880022    1    1    2    0    0  0.17737472970E+03 -0.11327152310E+04  0.61830937451E+03  0.13115653720E+04  0.15294330000E+03 0.  0.
<mgrwt>
<rscale>  0 0.12787490E+04</rscale>
<asrwt>0</asrwt>
<pdfrwt beam="1">  1        2 0.31914654E+00 0.13222389E+04</pdfrwt>
<pdfrwt beam="2">  1       -2 0.18736958E+00 0.13222389E+04</pdfrwt>
<totfact> 0.93925455E-01</totfact>
</mgrwt>
</event>
<event>
 4    1  0.2089815E-007  0.9839708E+03  0.7818608E-02  0.9402836E-01
          2   -1    0    0  501    0  0.00000000000E+00  0.00000000000E+00  0.93492978360E+03  0.93492978360E+03  0.25500000000E-02 0. -1.
         -2   -1    0    0    0  501 -0.00000000000E+00 -0.00000000000E+00 -0.13382874982E+04  0.13382874982E+04  0.25500000000E-02 0.  1.
    8880023    1    1    2    0    0 -0.32468211928E+03  0.65495792919E+03 -0.93429994330E+03  0.13568769133E+04  0.65864270000E+03 0.  1.
    8880022    1    1    2    0    0  0.32468211928E+03 -0.65495792919E+03  0.53094222873E+03  0.91634036845E+03  0.15294330000E+03 0.  0.
<mgrwt>
<rscale>  0 0.91842677E+03</rscale>
<asrwt>0</asrwt>
<pdfrwt beam="1">  1        2 0.14383535E+00 0.98397082E+03</pdfrwt>
<pdfrwt beam="2">  1       -2 0.20589038E+00 0.98397082E+03</pdfrwt>
<totfact> 0.33629165E+00</totfact>
</mgrwt>
</event>
<event>
 4    1  0.2089815E-007  0.1002035E+04  0.7818608E-02  0.9378900E-01
         -2   -1    0    0    0  501 -0.00000000000E+00  0.00000000000E+00  0.18631824044E+04  0.18631824044E+04  0.25500000000E-02 0.  1.
          2   -1    0    0  501    0  0.00000000000E+00 -0.00000000000E+00 -0.90420020734E+03  0.90420020735E+03  0.25500000000E-02 0. -1.
    8880023    1    1    2    0    0  0.35843025442E+03  0.66467461057E+03 -0.49819010739E+03  0.11190478875E+04  0.65864270000E+03 0. -1.
    8880022    1    1    2    0    0 -0.35843025442E+03 -0.66467461057E+03  0.14571723044E+04  0.16483347242E+04  0.15294330000E+03 0.  0.
<mgrwt>
<rscale>  0 0.93832687E+03</rscale>
<asrwt>0</asrwt>
<pdfrwt beam="1">  1        2 0.13910773E+00 0.10020353E+04</pdfrwt>
<pdfrwt beam="2">  1       -2 0.28664344E+00 0.10020353E+04</pdfrwt>
<totfact> 0.11194262E+00</totfact>
</mgrwt>
</event>
<event>
 4    1  0.2089815E-007  0.8131419E+03  0.7818608E-02  0.9683069E-01
          2   -1    0    0  501    0  0.00000000000E+00  0.00000000000E+00  0.14478903777E+04  0.14478903777E+04  0.25500000000E-02 0. -1.
         -2   -1    0    0    0  501 -0.00000000000E+00 -0.00000000000E+00 -0.29878977966E+03  0.29878977968E+03  0.25500000000E-02 0.  1.
    8880023    1    1    2    0    0  0.45667267957E+03 -0.13725768041E+03  0.75194527849E+03  0.11075294647E+04  0.65864270000E+03 0. -1.
    8880022    1    1    2    0    0 -0.45667267957E+03  0.13725768041E+03  0.39715531957E+03  0.63915069269E+03  0.15294330000E+03 0.  1.
<mgrwt>
<rscale>  0 0.72033855E+03</rscale>
<asrwt>0</asrwt>
<pdfrwt beam="1">  1        2 0.22275237E+00 0.81314194E+03</pdfrwt>
<pdfrwt beam="2">  1       -2 0.45967658E-01 0.81314194E+03</pdfrwt>
<totfact> 0.61828222E+01</totfact>
</mgrwt>
</event>
<event>
 4    1  0.2089815E-007  0.6603815E+03  0.7818608E-02  0.1023769E+00
          2   -1    0    0  501    0  0.00000000000E+00  0.00000000000E+00  0.11937952199E+04  0.11937952199E+04  0.25500000000E-02 0. -1.
         -2   -1    0    0    0  501 -0.00000000000E+00 -0.00000000000E+00 -0.40388330337E+03  0.40388330338E+03  0.25500000000E-02 0.  1.
    8880023    1    1    2    0    0 -0.23429249525E+02 -0.41767524581E+02  0.10802098470E+04  0.12660793718E+04  0.65864270000E+03 0. -1.
    8880022    1    1    2    0    0  0.23429249525E+02  0.41767524581E+02 -0.29029793045E+03  0.33159915151E+03  0.15294330000E+03 0.  0.
<mgrwt>
<rscale>  0 0.46350703E+03</rscale>
<asrwt>0</asrwt>
<pdfrwt beam="1">  1        2 0.18366080E+00 0.66038145E+03</pdfrwt>
<pdfrwt beam="2">  1       -2 0.62135894E-01 0.66038145E+03</pdfrwt>
<totfact> 0.47178676E+01</totfact>
</mgrwt>
</event>
<event>
 4    1  0.2184577E-007  0.1145319E+04  0.7818608E-02  0.9212201E-01
          2   -1    0    0  501    0  0.00000000000E+00  0.00000000000E+00  0.27693017171E+04  0.27693017171E+04  0.25500000000E-02 0. -1.
         -2   -1    0    0    0  501 -0.00000000000E+00 -0.00000000000E+00 -0.10959765168E+04  0.10959765168E+04  0.25500000000E-02 0.  1.
    8880023    1    1    2    0    0 -0.80819029228E+03 -0.47410279129E+03  0.24068957359E+04  0.26655022594E+04  0.65864270000E+03 0.  0.
    8880022    1    1    2    0    0  0.80819029228E+03  0.47410279129E+03 -0.73357053558E+03  0.11997759745E+04  0.15294330000E+03 0.  0.
<mgrwt>
<rscale>  0 0.10928377E+04</rscale>
<asrwt>0</asrwt>
<pdfrwt beam="1">  1        2 0.42604641E+00 0.11453188E+04</pdfrwt>
<pdfrwt beam="2">  1       -2 0.16861177E+00 0.11453188E+04</pdfrwt>
<totfact> 0.51988671E-01</totfact>
</mgrwt>
</event>
<event>
 4    1  0.2089815E-007  0.7095727E+03  0.7818608E-02  0.9959591E-01
          2   -1    0    0  501    0  0.00000000000E+00  0.00000000000E+00  0.14555247908E+04  0.14555247908E+04  0.25500000000E-02 0. -1.
         -2   -1    0    0    0  501 -0.00000000000E+00 -0.00000000000E+00 -0.37424059496E+03  0.37424059496E+03  0.25500000000E-02 0.  1.
    8880023    1    1    2    0    0 -0.26379700246E+03  0.97107296879E+01  0.12815139509E+04  0.14648451691E+04  0.65864270000E+03 0. -1.
    8880022    1    1    2    0    0  0.26379700246E+03 -0.97107296879E+01 -0.20022975500E+03  0.36492021673E+03  0.15294330000E+03 0.  0.
<mgrwt>
<rscale>  0 0.57458155E+03</rscale>
<asrwt>0</asrwt>
<pdfrwt beam="1">  1        2 0.22392689E+00 0.70957266E+03</pdfrwt>
<pdfrwt beam="2">  1       -2 0.57575476E-01 0.70957266E+03</pdfrwt>
<totfact> 0.39013362E+01</totfact>
</mgrwt>
</event>
<event>
 4    1  0.2089815E-007  0.9932121E+03  0.7818608E-02  0.9390493E-01
          2   -1    0    0  501    0  0.00000000000E+00  0.00000000000E+00  0.24040502500E+04  0.24040502500E+04  0.25500000000E-02 0. -1.
         -2   -1    0    0    0  501 -0.00000000000E+00 -0.00000000000E+00 -0.45183077105E+03  0.45183077105E+03  0.25500000000E-02 0.  1.
    8880023    1    1    2    0    0 -0.11619966372E+03  0.73427356844E+03  0.18368552042E+04  0.20881827704E+04  0.65864270000E+03 0.  0.
    8880022    1    1    2    0    0  0.11619966372E+03 -0.73427356844E+03  0.11536427476E+03  0.76769825066E+03  0.15294330000E+03 0.  0.
<mgrwt>
<rscale>  0 0.92862245E+03</rscale>
<asrwt>0</asrwt>
<pdfrwt beam="1">  1        2 0.36985389E+00 0.99321208E+03</pdfrwt>
<pdfrwt beam="2">  1       -2 0.69512425E-01 0.99321208E+03</pdfrwt>
<totfact> 0.75399241E+00</totfact>
</mgrwt>
</event>
<event>
 4    1  0.2089815E-007  0.8273666E+03  0.7818608E-02  0.9654478E-01
          2   -1    0    0  501    0  0.00000000000E+00  0.00000000000E+00  0.34423521679E+04  0.34423521679E+04  0.25500000000E-02 0. -1.
         -2   -1    0    0    0  501 -0.00000000000E+00 -0.00000000000E+00 -0.19915797759E+03  0.19915797761E+03  0.25500000000E-02 0.  1.
    8880023    1    1    2    0    0  0.38155658059E+03 -0.32425281821E+03  0.82912005640E+03  0.11713136166E+04  0.65864270000E+03 0.  1.
    8880022    1    1    2    0    0 -0.38155658059E+03  0.32425281821E+03  0.24140741339E+04  0.24701965289E+04  0.15294330000E+03 0.  0.
<mgrwt>
<rscale>  0 0.73793054E+03</rscale>
<asrwt>0</asrwt>
<pdfrwt beam="1">  1        2 0.52959266E+00 0.82736662E+03</pdfrwt>
<pdfrwt beam="2">  1       -2 0.30639688E-01 0.82736662E+03</pdfrwt>
<totfact> 0.93403998E+00</totfact>
</mgrwt>
</event>
<event>
 4    1  0.2089815E-007  0.7303601E+03  0.7818608E-02  0.9888973E-01
          2   -1    0    0  501    0  0.00000000000E+00  0.00000000000E+00  0.94548776148E+03  0.94548776148E+03  0.25500000000E-02 0. -1.
         -2   -1    0    0    0  501 -0.00000000000E+00 -0.00000000000E+00 -0.43078168575E+03  0.43078168576E+03  0.25500000000E-02 0.  1.
    8880023    1    1    2    0    0  0.11673497803E+03 -0.29323813005E+03  0.67145826010E+03  0.99210990184E+03  0.65864270000E+03 0. -1.
    8880022    1    1    2    0    0 -0.11673497803E+03  0.29323813005E+03 -0.15675218437E+03  0.38415954541E+03  0.15294330000E+03 0.  0.
<mgrwt>
<rscale>  0 0.60798679E+03</rscale>
<asrwt>0</asrwt>
<pdfrwt beam="1">  1        2 0.14545966E+00 0.73036009E+03</pdfrwt>
<pdfrwt beam="2">  1       -2 0.66274106E-01 0.73036009E+03</pdfrwt>
<totfact> 0.58167252E+01</totfact>
</mgrwt>
</event>
<event>
 4    1  0.2089815E-007  0.6940420E+03  0.7818608E-02  0.1002288E+00
         -2   -1    0    0    0  501 -0.00000000000E+00  0.00000000000E+00  0.21497592614E+03  0.21497592616E+03  0.25500000000E-02 0.  1.
          2   -1    0    0  501    0  0.00000000000E+00 -0.00000000000E+00 -0.12120724689E+04  0.12120724689E+04  0.25500000000E-02 0. -1.
    8880023    1    1    2    0    0  0.39296252294E+02  0.21526707563E+03 -0.91358784973E+03  0.11473173383E+04  0.65864270000E+03 0.  0.
    8880022    1    1    2    0    0 -0.39296252294E+02 -0.21526707563E+03 -0.83508693016E+02  0.27973105676E+03  0.15294330000E+03 0.  0.
<mgrwt>
<rscale>  0 0.54658418E+03</rscale>
<asrwt>0</asrwt>
<pdfrwt beam="1">  1        2 0.18647268E+00 0.69404201E+03</pdfrwt>
<pdfrwt beam="2">  1       -2 0.33073220E-01 0.69404201E+03</pdfrwt>
<totfact> 0.16164065E+02</totfact>
</mgrwt>
</event>
<event>
 4    1  0.2089815E-007  0.1485082E+04  0.7818608E-02  0.8920242E-01
         -2   -1    0    0    0  501 -0.00000000000E+00  0.00000000000E+00  0.17645600731E+04  0.17645600731E+04  0.25500000000E-02 0.  1.
          2   -1    0    0  501    0  0.00000000000E+00 -0.00000000000E+00 -0.33614481915E+04  0.33614481915E+04  0.25500000000E-02 0. -1.
    8880023    1    1    2    0    0 -0.64925106895E+03 -0.11619516385E+04 -0.28992893990E+04  0.32575063755E+04  0.65864270000E+03 0. -1.
    8880022    1    1    2    0    0  0.64925106895E+03  0.11619516385E+04  0.13024012806E+04  0.18685018891E+04  0.15294330000E+03 0.  0.
<mgrwt>
<rscale>  0 0.14473462E+04</rscale>
<asrwt>0</asrwt>
<pdfrwt beam="1">  1        2 0.51714587E+00 0.14850821E+04</pdfrwt>
<pdfrwt beam="2">  1       -2 0.27147078E+00 0.14850821E+04</pdfrwt>
<totfact> 0.45503515E-02</totfact>
</mgrwt>
</event>
<event>
 4    1  0.2089815E-007  0.9022518E+03  0.7818608E-02  0.9522426E-01
          2   -1    0    0  501    0  0.00000000000E+00  0.00000000000E+00  0.12299012723E+04  0.12299012723E+04  0.25500000000E-02 0. -1.
         -2   -1    0    0    0  501 -0.00000000000E+00 -0.00000000000E+00 -0.53740738067E+03  0.53740738067E+03  0.25500000000E-02 0.  1.
    8880023    1    1    2    0    0 -0.21069583789E+03 -0.57953028300E+03  0.68350672833E+03  0.11319186097E+04  0.65864270000E+03 0.  1.
    8880022    1    1    2    0    0  0.21069583789E+03  0.57953028300E+03  0.89871633251E+01  0.63539004331E+03  0.15294330000E+03 0.  0.
<mgrwt>
<rscale>  0 0.82650418E+03</rscale>
<asrwt>0</asrwt>
<pdfrwt beam="1">  1        2 0.18921558E+00 0.90225179E+03</pdfrwt>
<pdfrwt beam="2">  1       -2 0.82678059E-01 0.90225179E+03</pdfrwt>
<totfact> 0.23421489E+01</totfact>
</mgrwt>
</event>
<event>
 4    1  0.2089815E-007  0.7240737E+03  0.7818608E-02  0.9909035E-01
          2   -1    0    0  501    0  0.00000000000E+00  0.00000000000E+00  0.20717494475E+04  0.20717494475E+04  0.25500000000E-02 0. -1.
         -2   -1    0    0    0  501 -0.00000000000E+00 -0.00000000000E+00 -0.43428167557E+03  0.43428167557E+03  0.25500000000E-02 0.  1.
    8880023    1    1    2    0    0  0.28964596033E+03  0.81103640718E+02  0.19287992578E+04  0.20602304158E+04  0.65864270000E+03 0. -1.
    8880022    1    1    2    0    0 -0.28964596033E+03 -0.81103640718E+02 -0.29133148593E+03  0.44580070725E+03  0.15294330000E+03 0.  0.
<mgrwt>
<rscale>  0 0.59825387E+03</rscale>
<asrwt>0</asrwt>
<pdfrwt beam="1">  1        2 0.31873069E+00 0.72407375E+03</pdfrwt>
<pdfrwt beam="2">  1       -2 0.66812565E-01 0.72407375E+03</pdfrwt>
<totfact> 0.13047060E+01</totfact>
</mgrwt>
</event>
<event>
 4    1  0.2089815E-007  0.8792835E+03  0.7818608E-02  0.9560142E-01
         -2   -1    0    0    0  501 -0.00000000000E+00  0.00000000000E+00  0.15330817129E+04  0.15330817129E+04  0.25500000000E-02 0.  1.
          2   -1    0    0  501    0  0.00000000000E+00 -0.00000000000E+00 -0.91773643920E+03  0.91773643921E+03  0.25500000000E-02 0. -1.
    8880023    1    1    2    0    0 -0.56161483930E+03  0.15465437635E+03 -0.62040150135E+03  0.10761214769E+04  0.65864270000E+03 0.  0.
    8880022    1    1    2    0    0  0.56161483930E+03 -0.15465437635E+03  0.12357467750E+04  0.13746966752E+04  0.15294330000E+03 0.  0.
<mgrwt>
<rscale>  0 0.79991390E+03</rscale>
<asrwt>0</asrwt>
<pdfrwt beam="1">  1        2 0.14119022E+00 0.87928346E+03</pdfrwt>
<pdfrwt beam="2">  1       -2 0.23585872E+00 0.87928346E+03</pdfrwt>
<totfact> 0.22656096E+00</totfact>
</mgrwt>
</event>
<event>
 4    1  0.2089815E-007  0.8737793E+03  0.7818608E-02  0.9569508E-01
         -2   -1    0    0    0  501 -0.00000000000E+00  0.00000000000E+00  0.26206361758E+04  0.26206361758E+04  0.25500000000E-02 0.  1.
          2   -1    0    0  501    0  0.00000000000E+00 -0.00000000000E+00 -0.22852442013E+03  0.22852442015E+03  0.25500000000E-02 0. -1.
    8880023    1    1    2    0    0 -0.45605361916E+03 -0.34884841428E+03  0.95696196780E+03  0.12958651681E+04  0.65864270000E+03 0.  0.
    8880022    1    1    2    0    0  0.45605361916E+03  0.34884841428E+03  0.14351497879E+04  0.15532954279E+04  0.15294330000E+03 0.  0.
<mgrwt>
<rscale>  0 0.79347674E+03</rscale>
<asrwt>0</asrwt>
<pdfrwt beam="1">  1        2 0.35157604E-01 0.87377933E+03</pdfrwt>
<pdfrwt beam="2">  1       -2 0.40317479E+00 0.87377933E+03</pdfrwt>
<totfact> 0.10965032E+00</totfact>
</mgrwt>
</event>
<event>
 4    1  0.2089815E-007  0.9075750E+03  0.7818608E-02  0.9513979E-01
         -2   -1    0    0    0  501 -0.00000000000E+00  0.00000000000E+00  0.77702148693E+03  0.77702148693E+03  0.25500000000E-02 0.  1.
          2   -1    0    0  501    0  0.00000000000E+00 -0.00000000000E+00 -0.23674514510E+04  0.23674514510E+04  0.25500000000E-02 0. -1.
    8880023    1    1    2    0    0  0.62251180619E+03 -0.48591725884E+02 -0.21235185164E+04  0.23093339301E+04  0.65864270000E+03 0.  0.
    8880022    1    1    2    0    0 -0.62251180619E+03  0.48591725884E+02  0.53308855240E+03  0.83513900782E+03  0.15294330000E+03 0.  0.
<mgrwt>
<rscale>  0 0.83260997E+03</rscale>
<asrwt>0</asrwt>
<pdfrwt beam="1">  1        2 0.36422330E+00 0.90757496E+03</pdfrwt>
<pdfrwt beam="2">  1       -2 0.11954177E+00 0.90757496E+03</pdfrwt>
<totfact> 0.22659923E+00</totfact>
</mgrwt>
</event>
<event>
 4    1  0.2089815E-007  0.1245544E+04  0.7818608E-02  0.9114074E-01
          2   -1    0    0  501    0  0.00000000000E+00  0.00000000000E+00  0.20770212870E+04  0.20770212870E+04  0.25500000000E-02 0. -1.
         -2   -1    0    0    0  501 -0.00000000000E+00 -0.00000000000E+00 -0.14606368613E+04  0.14606368613E+04  0.25500000000E-02 0.  1.
    8880023    1    1    2    0    0  0.92507738152E+03 -0.51166482267E+03  0.16392285468E+04  0.20587494960E+04  0.65864270000E+03 0.  0.
    8880022    1    1    2    0    0 -0.92507738152E+03  0.51166482267E+03 -0.10228441212E+04  0.14789086523E+04  0.15294330000E+03 0.  0.
<mgrwt>
<rscale>  0 0.11986105E+04</rscale>
<asrwt>0</asrwt>
<pdfrwt beam="1">  1        2 0.31954174E+00 0.12455438E+04</pdfrwt>
<pdfrwt beam="2">  1       -2 0.22471336E+00 0.12455438E+04</pdfrwt>
<totfact> 0.53976243E-01</totfact>
</mgrwt>
</event>
<event>
 4    1  0.2089815E-007  0.1260916E+04  0.7818608E-02  0.9100069E-01
         -2   -1    0    0    0  501 -0.00000000000E+00  0.00000000000E+00  0.10350436579E+04  0.10350436579E+04  0.25500000000E-02 0.  1.
          2   -1    0    0  501    0  0.00000000000E+00 -0.00000000000E+00 -0.13892149647E+04  0.13892149647E+04  0.25500000000E-02 0. -1.
    8880023    1    1    2    0    0 -0.11146503700E+03 -0.10694266108E+04 -0.43840050709E+03  0.13349542843E+04  0.65864270000E+03 0.  0.
    8880022    1    1    2    0    0  0.11146503700E+03  0.10694266108E+04  0.84229200259E+02  0.10893043383E+04  0.15294330000E+03 0.  0.
<mgrwt>
<rscale>  0 0.12147202E+04</rscale>
<asrwt>0</asrwt>
<pdfrwt beam="1">  1        2 0.21372538E+00 0.12609155E+04</pdfrwt>
<pdfrwt beam="2">  1       -2 0.15923749E+00 0.12609155E+04</pdfrwt>
<totfact> 0.36188682E+00</totfact>
</mgrwt>
</event>
<event>
 4    1  0.2089815E-007  0.9144204E+03  0.7818608E-02  0.9503268E-01
          2   -1    0    0  501    0  0.00000000000E+00  0.00000000000E+00  0.11238762515E+04  0.11238762515E+04  0.25500000000E-02 0. -1.
         -2   -1    0    0    0  501 -0.00000000000E+00 -0.00000000000E+00 -0.86362573442E+03  0.86362573442E+03  0.25500000000E-02 0.  1.
    8880023    1    1    2    0    0 -0.47676515646E+03 -0.41838921814E+03  0.74105273151E+03  0.11769978375E+04  0.65864270000E+03 0.  0.
    8880022    1    1    2    0    0  0.47676515646E+03  0.41838921814E+03 -0.48080221441E+03  0.81050414846E+03  0.15294330000E+03 0.  0.
<mgrwt>
<rscale>  0 0.84043338E+03</rscale>
<asrwt>0</asrwt>
<pdfrwt beam="1">  1        2 0.17290404E+00 0.91442045E+03</pdfrwt>
<pdfrwt beam="2">  1       -2 0.13286550E+00 0.91442045E+03</pdfrwt>
<totfact> 0.86561208E+00</totfact>
</mgrwt>
</event>
<event>
 4    1  0.2089815E-007  0.6935646E+03  0.7818608E-02  0.1002502E+00
          2   -1    0    0  501    0  0.00000000000E+00  0.00000000000E+00  0.24440388347E+04  0.24440388347E+04  0.25500000000E-02 0. -1.
         -2   -1    0    0    0  501 -0.00000000000E+00 -0.00000000000E+00 -0.39812421256E+03  0.39812421256E+03  0.25500000000E-02 0.  1.
    8880023    1    1    2    0    0  0.46180062524E+02  0.21234185059E+03  0.23430449309E+04  0.24435407535E+04  0.65864270000E+03 0. -1.
    8880022    1    1    2    0    0 -0.46180062524E+02 -0.21234185059E+03 -0.29713030874E+03  0.39862229375E+03  0.15294330000E+03 0.  0.
<mgrwt>
<rscale>  0 0.54566490E+03</rscale>
<asrwt>0</asrwt>
<pdfrwt beam="1">  1        2 0.37600597E+00 0.69356461E+03</pdfrwt>
<pdfrwt beam="2">  1       -2 0.61249880E-01 0.69356461E+03</pdfrwt>
<totfact> 0.98300258E+00</totfact>
</mgrwt>
</event>
<event>
 4    1  0.2089815E-007  0.6593775E+03  0.7818608E-02  0.1024803E+00
         -2   -1    0    0    0  501 -0.00000000000E+00  0.00000000000E+00  0.89524870068E+02  0.89524870105E+02  0.25500000000E-02 0.  1.
          2   -1    0    0  501    0  0.00000000000E+00 -0.00000000000E+00 -0.28397790738E+04  0.28397790738E+04  0.25500000000E-02 0. -1.
    8880023    1    1    2    0    0 -0.27388406951E+02 -0.14777525249E+02 -0.26767801223E+04  0.27567971506E+04  0.65864270000E+03 0. -1.
    8880022    1    1    2    0    0  0.27388406951E+02  0.14777525249E+02 -0.73474081453E+02  0.17250679334E+03  0.15294330000E+03 0.  0.
<mgrwt>
<rscale>  0 0.45992350E+03</rscale>
<asrwt>0</asrwt>
<pdfrwt beam="1">  1        2 0.43688902E+00 0.65937751E+03</pdfrwt>
<pdfrwt beam="2">  1       -2 0.13773059E-01 0.65937751E+03</pdfrwt>
<totfact> 0.93984099E+01</totfact>
</mgrwt>
</event>
<event>
 4    1  0.2089815E-007  0.7069768E+03  0.7818608E-02  0.9969403E-01
         -2   -1    0    0    0  501 -0.00000000000E+00  0.00000000000E+00  0.25837530286E+03  0.25837530287E+03  0.25500000000E-02 0.  1.
          2   -1    0    0  501    0  0.00000000000E+00 -0.00000000000E+00 -0.20987110859E+04  0.20987110859E+04  0.25500000000E-02 0. -1.
    8880023    1    1    2    0    0 -0.79401760603E+02 -0.24433853344E+03 -0.19213661851E+04  0.20473065677E+04  0.65864270000E+03 0. -1.
    8880022    1    1    2    0    0  0.79401760603E+02  0.24433853344E+03  0.81030402034E+02  0.30977982113E+03  0.15294330000E+03 0.  0.
<mgrwt>
<rscale>  0 0.57012436E+03</rscale>
<asrwt>0</asrwt>
<pdfrwt beam="1">  1        2 0.32287862E+00 0.70697678E+03</pdfrwt>
<pdfrwt beam="2">  1       -2 0.39750048E-01 0.70697678E+03</pdfrwt>
<totfact> 0.36630501E+01</totfact>
</mgrwt>
</event>
<event>
 4    1  0.2089815E-007  0.7320990E+03  0.7818608E-02  0.9883590E-01
         -2   -1    0    0    0  501 -0.00000000000E+00  0.00000000000E+00  0.60172162625E+03  0.60172162626E+03  0.25500000000E-02 0.  1.
          2   -1    0    0  501    0  0.00000000000E+00 -0.00000000000E+00 -0.15742525314E+04  0.15742525314E+04  0.25500000000E-02 0. -1.
    8880023    1    1    2    0    0 -0.15114430717E+03  0.28162762792E+03 -0.14245324654E+04  0.16016434290E+04  0.65864270000E+03 0. -1.
    8880022    1    1    2    0    0  0.15114430717E+03 -0.28162762792E+03  0.45200156026E+03  0.57433072866E+03  0.15294330000E+03 0.  0.
<mgrwt>
<rscale>  0 0.61063207E+03</rscale>
<asrwt>0</asrwt>
<pdfrwt beam="1">  1        2 0.24219270E+00 0.73209899E+03</pdfrwt>
<pdfrwt beam="2">  1       -2 0.92572559E-01 0.73209899E+03</pdfrwt>
<totfact> 0.11737902E+01</totfact>
</mgrwt>
</event>
<event>
 4    1  0.2089815E-007  0.9533874E+03  0.7818608E-02  0.9445257E-01
          2   -1    0    0  501    0  0.00000000000E+00  0.00000000000E+00  0.20070091930E+04  0.20070091930E+04  0.25500000000E-02 0. -1.
         -2   -1    0    0    0  501 -0.00000000000E+00 -0.00000000000E+00 -0.75247724315E+03  0.75247724315E+03  0.25500000000E-02 0.  1.
    8880023    1    1    2    0    0 -0.53002376822E+02 -0.68726134893E+03  0.16824996417E+04  0.19338440124E+04  0.65864270000E+03 0. -1.
    8880022    1    1    2    0    0  0.53002376822E+02  0.68726134893E+03 -0.42796769183E+03  0.82564242378E+03  0.15294330000E+03 0.  0.
<mgrwt>
<rscale>  0 0.88442983E+03</rscale>
<asrwt>0</asrwt>
<pdfrwt beam="1">  1        2 0.30877064E+00 0.95338744E+03</pdfrwt>
<pdfrwt beam="2">  1       -2 0.11576573E+00 0.95338744E+03</pdfrwt>
<totfact> 0.38624587E+00</totfact>
</mgrwt>
</event>
<event>
 4    1  0.2089815E-007  0.9880573E+03  0.7818608E-02  0.9397352E-01
          2   -1    0    0  501    0  0.00000000000E+00  0.00000000000E+00  0.17875687498E+04  0.17875687498E+04  0.25500000000E-02 0. -1.
         -2   -1    0    0    0  501 -0.00000000000E+00 -0.00000000000E+00 -0.48273625977E+03  0.48273625977E+03  0.25500000000E-02 0.  1.
    8880023    1    1    2    0    0 -0.48433729436E+03  0.55485524438E+03  0.11242156347E+04  0.14967023607E+04  0.65864270000E+03 0.  0.
    8880022    1    1    2    0    0  0.48433729436E+03 -0.55485524438E+03  0.18061685534E+03  0.77360264889E+03  0.15294330000E+03 0.  0.
<mgrwt>
<rscale>  0 0.92293934E+03</rscale>
<asrwt>0</asrwt>
<pdfrwt beam="1">  1        2 0.27501058E+00 0.98805727E+03</pdfrwt>
<pdfrwt beam="2">  1       -2 0.74267116E-01 0.98805727E+03</pdfrwt>
<totfact> 0.14326324E+01</totfact>
</mgrwt>
</event>
<event>
 4    1  0.2089815E-007  0.1175878E+04  0.7818608E-02  0.9180935E-01
         -2   -1    0    0    0  501 -0.00000000000E+00  0.00000000000E+00  0.13542264409E+04  0.13542264409E+04  0.25500000000E-02 0.  1.
          2   -1    0    0  501    0  0.00000000000E+00 -0.00000000000E+00 -0.11302334950E+04  0.11302334950E+04  0.25500000000E-02 0. -1.
    8880023    1    1    2    0    0  0.13731087549E+03  0.96437731775E+03 -0.48294208204E+03  0.12711888720E+04  0.65864270000E+03 0. -1.
    8880022    1    1    2    0    0 -0.13731087549E+03 -0.96437731775E+03  0.70693502795E+03  0.12132710638E+04  0.15294330000E+03 0.  0.
<mgrwt>
<rscale>  0 0.11252394E+04</rscale>
<asrwt>0</asrwt>
<pdfrwt beam="1">  1        2 0.17388208E+00 0.11758776E+04</pdfrwt>
<pdfrwt beam="2">  1       -2 0.20834253E+00 0.11758776E+04</pdfrwt>
<totfact> 0.23857998E+00</totfact>
</mgrwt>
</event>
<event>
 4    1  0.2089815E-007  0.9424444E+03  0.7818608E-02  0.9461069E-01
          2   -1    0    0  501    0  0.00000000000E+00  0.00000000000E+00  0.26444483593E+04  0.26444483593E+04  0.25500000000E-02 0. -1.
         -2   -1    0    0    0  501 -0.00000000000E+00 -0.00000000000E+00 -0.59172980482E+03  0.59172980483E+03  0.25500000000E-02 0.  1.
    8880023    1    1    2    0    0 -0.60679783446E+03 -0.29357736268E+03  0.23129574415E+04  0.24975935643E+04  0.65864270000E+03 0. -1.
    8880022    1    1    2    0    0  0.60679783446E+03  0.29357736268E+03 -0.26023888705E+03  0.73858459985E+03  0.15294330000E+03 0.  0.
<mgrwt>
<rscale>  0 0.87215895E+03</rscale>
<asrwt>0</asrwt>
<pdfrwt beam="1">  1        2 0.40683822E+00 0.94244442E+03</pdfrwt>
<pdfrwt beam="2">  1       -2 0.91035353E-01 0.94244442E+03</pdfrwt>
<totfact> 0.30101855E+00</totfact>
</mgrwt>
</event>
<event>
 4    1  0.2089815E-007  0.1107529E+04  0.7818608E-02  0.9252719E-01
          2   -1    0    0  501    0  0.00000000000E+00  0.00000000000E+00  0.43339153170E+03  0.43339153171E+03  0.25500000000E-02 0. -1.
         -2   -1    0    0    0  501 -0.00000000000E+00 -0.00000000000E+00 -0.25244757606E+04  0.25244757606E+04  0.25500000000E-02 0.  1.
    8880023    1    1    2    0    0  0.85528433665E+03  0.24758764832E+03 -0.73797858863E+03  0.13308769829E+04  0.65864270000E+03 0.  0.
    8880022    1    1    2    0    0 -0.85528433665E+03 -0.24758764832E+03 -0.13531056403E+04  0.16269903094E+04  0.15294330000E+03 0.  0.
<mgrwt>
<rscale>  0 0.10525462E+04</rscale>
<asrwt>0</asrwt>
<pdfrwt beam="1">  1        2 0.66675622E-01 0.11075293E+04</pdfrwt>
<pdfrwt beam="2">  1       -2 0.38838088E+00 0.11075293E+04</pdfrwt>
<totfact> 0.64535119E-01</totfact>
</mgrwt>
</event>
<event>
 4    1  0.2089815E-007  0.9134305E+03  0.7818608E-02  0.9504806E-01
         -2   -1    0    0    0  501 -0.00000000000E+00  0.00000000000E+00  0.10345979510E+04  0.10345979510E+04  0.25500000000E-02 0.  1.
          2   -1    0    0  501    0  0.00000000000E+00 -0.00000000000E+00 -0.24387794006E+04  0.24387794006E+04  0.25500000000E-02 0. -1.
    8880023    1    1    2    0    0 -0.62817773133E+03  0.77057141405E+02 -0.22369671374E+04  0.24162734211E+04  0.65864270000E+03 0.  0.
    8880022    1    1    2    0    0  0.62817773133E+03 -0.77057141405E+02  0.83278568775E+03  0.10571039305E+04  0.15294330000E+03 0.  0.
<mgrwt>
<rscale>  0 0.83930394E+03</rscale>
<asrwt>0</asrwt>
<pdfrwt beam="1">  1        2 0.37519683E+00 0.91343050E+03</pdfrwt>
<pdfrwt beam="2">  1       -2 0.15916892E+00 0.91343050E+03</pdfrwt>
<totfact> 0.98313424E-01</totfact>
</mgrwt>
</event>
<event>
 4    1  0.2089815E-007  0.7287807E+03  0.7818608E-02  0.9893923E-01
         -2   -1    0    0    0  501 -0.00000000000E+00  0.00000000000E+00  0.11801375640E+04  0.11801375640E+04  0.25500000000E-02 0.  1.
          2   -1    0    0  501    0  0.00000000000E+00 -0.00000000000E+00 -0.37164695559E+03  0.37164695560E+03  0.25500000000E-02 0. -1.
    8880023    1    1    2    0    0 -0.28528651825E+03  0.12618496305E+03  0.65671005112E+02  0.73173350994E+03  0.65864270000E+03 0.  0.
    8880022    1    1    2    0    0  0.28528651825E+03 -0.12618496305E+03  0.74281960328E+03  0.82005100965E+03  0.15294330000E+03 0.  0.
<mgrwt>
<rscale>  0 0.60556707E+03</rscale>
<asrwt>0</asrwt>
<pdfrwt beam="1">  1        2 0.57176456E-01 0.72878066E+03</pdfrwt>
<pdfrwt beam="2">  1       -2 0.18155962E+00 0.72878066E+03</pdfrwt>
<totfact> 0.15550907E+01</totfact>
</mgrwt>
</event>
<event>
 4    1  0.2089815E-007  0.1574068E+04  0.7818608E-02  0.8859030E-01
          2   -1    0    0  501    0  0.00000000000E+00  0.00000000000E+00  0.16036072252E+04  0.16036072252E+04  0.25500000000E-02 0. -1.
         -2   -1    0    0    0  501 -0.00000000000E+00 -0.00000000000E+00 -0.17367024840E+04  0.17367024840E+04  0.25500000000E-02 0.  1.
    8880023    1    1    2    0    0 -0.49449333988E+03 -0.13414011746E+04 -0.78810166089E+03  0.17603395151E+04  0.65864270000E+03 0.  1.
    8880022    1    1    2    0    0  0.49449333988E+03  0.13414011746E+04  0.65500640212E+03  0.15799701941E+04  0.15294330000E+03 0.  0.
<mgrwt>
<rscale>  0 0.15388362E+04</rscale>
<asrwt>0</asrwt>
<pdfrwt beam="1">  1        2 0.24670880E+00 0.15740683E+04</pdfrwt>
<pdfrwt beam="2">  1       -2 0.26718500E+00 0.15740683E+04</pdfrwt>
<totfact> 0.52198181E-01</totfact>
</mgrwt>
</event>
<event>
 4    1  0.2089815E-007  0.6661756E+03  0.7818608E-02  0.1018567E+00
          2   -1    0    0  501    0  0.00000000000E+00  0.00000000000E+00  0.22923091999E+04  0.22923091999E+04  0.25500000000E-02 0. -1.
         -2   -1    0    0    0  501 -0.00000000000E+00 -0.00000000000E+00 -0.54179296331E+03  0.54179296332E+03  0.25500000000E-02 0.  1.
    8880023    1    1    2    0    0 -0.80498118791E+02 -0.59158710907E+02  0.22266279338E+04  0.23241475560E+04  0.65864270000E+03 0. -1.
    8880022    1    1    2    0    0  0.80498118791E+02  0.59158710907E+02 -0.47611169720E+03  0.50995460723E+03  0.15294330000E+03 0.  0.
<mgrwt>
<rscale>  0 0.48207350E+03</rscale>
<asrwt>0</asrwt>
<pdfrwt beam="1">  1        2 0.35266295E+00 0.66617558E+03</pdfrwt>
<pdfrwt beam="2">  1       -2 0.83352764E-01 0.66617558E+03</pdfrwt>
<totfact> 0.61125560E+00</totfact>
</mgrwt>
</event>
<event>
 4    1  0.2089815E-007  0.1660927E+04  0.7818608E-02  0.8803637E-01
          2   -1    0    0  501    0  0.00000000000E+00  0.00000000000E+00  0.19654261581E+04  0.19654261581E+04  0.25500000000E-02 0. -1.
         -2   -1    0    0    0  501 -0.00000000000E+00 -0.00000000000E+00 -0.26445910203E+04  0.26445910203E+04  0.25500000000E-02 0.  1.
    8880023    1    1    2    0    0 -0.11884430269E+04 -0.95523442922E+03  0.12984066952E+04  0.21082077211E+04  0.65864270000E+03 0. -1.
    8880022    1    1    2    0    0  0.11884430269E+04  0.95523442922E+03 -0.19775715574E+04  0.25018094573E+04  0.15294330000E+03 0.  0.
<mgrwt>
<rscale>  0 0.16278197E+04</rscale>
<asrwt>0</asrwt>
<pdfrwt beam="1">  1        2 0.30237326E+00 0.16609274E+04</pdfrwt>
<pdfrwt beam="2">  1       -2 0.40686016E+00 0.16609274E+04</pdfrwt>
<totfact> 0.43016722E-02</totfact>
</mgrwt>
</event>
<event>
 4    1  0.2089815E-007  0.1361773E+04  0.7818608E-02  0.9013970E-01
         -2   -1    0    0    0  501 -0.00000000000E+00  0.00000000000E+00  0.54507689547E+03  0.54507689548E+03  0.25500000000E-02 0.  1.
          2   -1    0    0  501    0  0.00000000000E+00 -0.00000000000E+00 -0.36270633084E+04  0.36270633084E+04  0.25500000000E-02 0. -1.
    8880023    1    1    2    0    0 -0.10421565208E+04 -0.57838124418E+03 -0.24772844933E+04  0.28269000238E+04  0.65864270000E+03 0.  0.
    8880022    1    1    2    0    0  0.10421565208E+04  0.57838124418E+03 -0.60470191964E+03  0.13452401801E+04  0.15294330000E+03 0.  0.
<mgrwt>
<rscale>  0 0.13198502E+04</rscale>
<asrwt>0</asrwt>
<pdfrwt beam="1">  1        2 0.55800973E+00 0.13617728E+04</pdfrwt>
<pdfrwt beam="2">  1       -2 0.83857986E-01 0.13617728E+04</pdfrwt>
<totfact> 0.80686209E-01</totfact>
</mgrwt>
</event>
<event>
 4    1  0.2089815E-007  0.7421804E+03  0.7818608E-02  0.9853641E-01
         -2   -1    0    0    0  501 -0.00000000000E+00  0.00000000000E+00  0.24712019201E+03  0.24712019203E+03  0.25500000000E-02 0.  1.
          2   -1    0    0  501    0  0.00000000000E+00 -0.00000000000E+00 -0.19736578459E+04  0.19736578459E+04  0.25500000000E-02 0. -1.
    8880023    1    1    2    0    0 -0.31106449910E+03  0.14233895120E+03 -0.16881568734E+04  0.18441001424E+04  0.65864270000E+03 0. -1.
    8880022    1    1    2    0    0  0.31106449910E+03 -0.14233895120E+03 -0.38380780427E+02  0.37667789549E+03  0.15294330000E+03 0.  0.
<mgrwt>
<rscale>  0 0.62561632E+03</rscale>
<asrwt>0</asrwt>
<pdfrwt beam="1">  1        2 0.30363966E+00 0.74218037E+03</pdfrwt>
<pdfrwt beam="2">  1       -2 0.38018492E-01 0.74218037E+03</pdfrwt>
<totfact> 0.46520602E+01</totfact>
</mgrwt>
</event>
<event>
 4    1  0.2089815E-007  0.1285681E+04  0.7818608E-02  0.9078025E-01
         -2   -1    0    0    0  501 -0.00000000000E+00  0.00000000000E+00  0.13139941803E+04  0.13139941803E+04  0.25500000000E-02 0.  1.
          2   -1    0    0  501    0  0.00000000000E+00 -0.00000000000E+00 -0.11074286272E+04  0.11074286272E+04  0.25500000000E-02 0. -1.
    8880023    1    1    2    0    0 -0.96100007671E+03  0.54373123174E+03  0.23193676125E+03  0.13064339506E+04  0.65864270000E+03 0.  0.
    8880022    1    1    2    0    0  0.96100007671E+03 -0.54373123174E+03 -0.25371208137E+02  0.11149888569E+04  0.15294330000E+03 0.  0.
<mgrwt>
<rscale>  0 0.12406217E+04</rscale>
<asrwt>0</asrwt>
<pdfrwt beam="1">  1        2 0.17037363E+00 0.12856808E+04</pdfrwt>
<pdfrwt beam="2">  1       -2 0.20215295E+00 0.12856808E+04</pdfrwt>
<totfact> 0.26756511E+00</totfact>
</mgrwt>
</event>
<event>
 4    1  0.2089815E-007  0.7158879E+03  0.7818608E-02  0.9936753E-01
          2   -1    0    0  501    0  0.00000000000E+00  0.00000000000E+00  0.15883457340E+04  0.15883457340E+04  0.25500000000E-02 0. -1.
         -2   -1    0    0    0  501 -0.00000000000E+00 -0.00000000000E+00 -0.15569913947E+04  0.15569913947E+04  0.25500000000E-02 0.  1.
    8880023    1    1    2    0    0  0.26761294171E+03  0.84075347429E+02  0.14894966399E+04  0.16526027342E+04  0.65864270000E+03 0. -1.
    8880022    1    1    2    0    0 -0.26761294171E+03 -0.84075347429E+02 -0.14581423007E+04  0.14927343945E+04  0.15294330000E+03 0.  0.
<mgrwt>
<rscale>  0 0.58512651E+03</rscale>
<asrwt>0</asrwt>
<pdfrwt beam="1">  1        2 0.24436088E+00 0.71588795E+03</pdfrwt>
<pdfrwt beam="2">  1       -2 0.23953714E+00 0.71588795E+03</pdfrwt>
<totfact> 0.88559761E-01</totfact>
</mgrwt>
</event>
<event>
 4    1  0.2089815E-007  0.7023114E+03  0.7818608E-02  0.9987745E-01
         -2   -1    0    0    0  501 -0.00000000000E+00  0.00000000000E+00  0.42733862531E+03  0.42733862531E+03  0.25500000000E-02 0.  1.
          2   -1    0    0  501    0  0.00000000000E+00 -0.00000000000E+00 -0.16383487251E+04  0.16383487251E+04  0.25500000000E-02 0. -1.
    8880023    1    1    2    0    0 -0.11474168908E+03  0.21509389236E+03 -0.15009713921E+04  0.16571530901E+04  0.65864270000E+03 0. -1.
    8880022    1    1    2    0    0  0.11474168908E+03 -0.21509389236E+03  0.28996129237E+03  0.40853426029E+03  0.15294330000E+03 0.  0.
<mgrwt>
<rscale>  0 0.56190893E+03</rscale>
<asrwt>0</asrwt>
<pdfrwt beam="1">  1        2 0.25205365E+00 0.70231136E+03</pdfrwt>
<pdfrwt beam="2">  1       -2 0.65744405E-01 0.70231136E+03</pdfrwt>
<totfact> 0.23347801E+01</totfact>
</mgrwt>
</event>
<event>
 4    1  0.2089815E-007  0.1108289E+04  0.7818608E-02  0.9251883E-01
          2   -1    0    0  501    0  0.00000000000E+00  0.00000000000E+00  0.36578599780E+04  0.36578599780E+04  0.25500000000E-02 0. -1.
         -2   -1    0    0    0  501 -0.00000000000E+00 -0.00000000000E+00 -0.34045411331E+03  0.34045411332E+03  0.25500000000E-02 0.  1.
    8880023    1    1    2    0    0  0.86786851647E+03  0.20322238971E+03  0.26558035909E+04  0.28777765760E+04  0.65864270000E+03 0.  0.
    8880022    1    1    2    0    0 -0.86786851647E+03 -0.20322238971E+03  0.66160227376E+03  0.11205375153E+04  0.15294330000E+03 0.  0.
<mgrwt>
<rscale>  0 0.10533593E+04</rscale>
<asrwt>0</asrwt>
<pdfrwt beam="1">  1        2 0.56274771E+00 0.11082894E+04</pdfrwt>
<pdfrwt beam="2">  1       -2 0.52377554E-01 0.11082894E+04</pdfrwt>
<totfact> 0.22096585E+00</totfact>
</mgrwt>
</event>
<event>
 4    1  0.2089815E-007  0.1814869E+04  0.7818608E-02  0.8714356E-01
         -2   -1    0    0    0  501 -0.00000000000E+00  0.00000000000E+00  0.11963382832E+04  0.11963382832E+04  0.25500000000E-02 0.  1.
          2   -1    0    0  501    0  0.00000000000E+00 -0.00000000000E+00 -0.44967510007E+04  0.44967510007E+04  0.25500000000E-02 0. -1.
    8880023    1    1    2    0    0 -0.38184848279E+03 -0.16474619813E+04 -0.35401203968E+04  0.39782159159E+04  0.65864270000E+03 0.  0.
    8880022    1    1    2    0    0  0.38184848279E+03  0.16474619813E+04  0.23970767930E+03  0.17148733680E+04  0.15294330000E+03 0.  0.
<mgrwt>
<rscale>  0 0.17849283E+04</rscale>
<asrwt>0</asrwt>
<pdfrwt beam="1">  1        2 0.69180784E+00 0.18148690E+04</pdfrwt>
<pdfrwt beam="2">  1       -2 0.18405205E+00 0.18148690E+04</pdfrwt>
<totfact> 0.19473980E-02</totfact>
</mgrwt>
</event>
<event>
 4    1  0.2089815E-007  0.7480937E+03  0.7818608E-02  0.9836968E-01
          2   -1    0    0  501    0  0.00000000000E+00  0.00000000000E+00  0.13665413506E+04  0.13665413506E+04  0.25500000000E-02 0. -1.
         -2   -1    0    0    0  501 -0.00000000000E+00 -0.00000000000E+00 -0.15088576267E+04  0.15088576267E+04  0.25500000000E-02 0.  1.
    8880023    1    1    2    0    0 -0.34776027908E+03  0.69976927717E+02  0.12355653238E+04  0.14443911720E+04  0.65864270000E+03 0. -1.
    8880022    1    1    2    0    0  0.34776027908E+03 -0.69976927717E+02 -0.13778816000E+04  0.14310078053E+04  0.15294330000E+03 0.  0.
<mgrwt>
<rscale>  0 0.63415793E+03</rscale>
<asrwt>0</asrwt>
<pdfrwt beam="1">  1        2 0.21023713E+00 0.74809370E+03</pdfrwt>
<pdfrwt beam="2">  1       -2 0.23213194E+00 0.74809370E+03</pdfrwt>
<totfact> 0.12995079E+00</totfact>
</mgrwt>
</event>
<event>
 4    1  0.2089815E-007  0.8157173E+03  0.7818608E-02  0.9677789E-01
          2   -1    0    0  501    0  0.00000000000E+00  0.00000000000E+00  0.57545911915E+03  0.57545911915E+03  0.25500000000E-02 0. -1.
         -2   -1    0    0    0  501 -0.00000000000E+00 -0.00000000000E+00 -0.12437302707E+04  0.12437302707E+04  0.25500000000E-02 0.  1.
    8880023    1    1    2    0    0 -0.40804933396E+03 -0.25510826059E+03 -0.94096044996E+03  0.12453117113E+04  0.65864270000E+03 0.  1.
    8880022    1    1    2    0    0  0.40804933396E+03  0.25510826059E+03  0.27268929837E+03  0.57387767863E+03  0.15294330000E+03 0.  0.
<mgrwt>
<rscale>  0 0.72354774E+03</rscale>
<asrwt>0</asrwt>
<pdfrwt beam="1">  1        2 0.88532172E-01 0.81571729E+03</pdfrwt>
<pdfrwt beam="2">  1       -2 0.19134312E+00 0.81571729E+03</pdfrwt>
<totfact> 0.80090266E+00</totfact>
</mgrwt>
</event>
<event>
 4    1  0.2089815E-007  0.8913279E+03  0.7818608E-02  0.9540099E-01
          2   -1    0    0  501    0  0.00000000000E+00  0.00000000000E+00  0.76704472982E+03  0.76704472983E+03  0.25500000000E-02 0. -1.
         -2   -1    0    0    0  501 -0.00000000000E+00 -0.00000000000E+00 -0.92811683893E+03  0.92811683894E+03  0.25500000000E-02 0.  1.
    8880023    1    1    2    0    0 -0.36257815682E+03  0.47874034342E+03  0.28026922743E+03  0.93435340334E+03  0.65864270000E+03 0. -1.
    8880022    1    1    2    0    0  0.36257815682E+03 -0.47874034342E+03 -0.44134133654E+03  0.76080816542E+03  0.15294330000E+03 0.  0.
<mgrwt>
<rscale>  0 0.81390958E+03</rscale>
<asrwt>0</asrwt>
<pdfrwt beam="1">  1        2 0.11800688E+00 0.89132791E+03</pdfrwt>
<pdfrwt beam="2">  1       -2 0.14278721E+00 0.89132791E+03</pdfrwt>
<totfact> 0.12442058E+01</totfact>
</mgrwt>
</event>
<event>
 4    1  0.2089815E-007  0.7061778E+03  0.7818608E-02  0.9972478E-01
          2   -1    0    0  501    0  0.00000000000E+00  0.00000000000E+00  0.13144272539E+04  0.13144272539E+04  0.25500000000E-02 0. -1.
         -2   -1    0    0    0  501 -0.00000000000E+00 -0.00000000000E+00 -0.56472804605E+03  0.56472804606E+03  0.25500000000E-02 0.  1.
    8880023    1    1    2    0    0  0.20031862005E+03  0.15731916020E+03  0.11687162703E+04  0.13654980023E+04  0.65864270000E+03 0. -1.
    8880022    1    1    2    0    0 -0.20031862005E+03 -0.15731916020E+03 -0.41901706247E+03  0.51365729759E+03  0.15294330000E+03 0.  0.
<mgrwt>
<rscale>  0 0.56873672E+03</rscale>
<asrwt>0</asrwt>
<pdfrwt beam="1">  1        2 0.20221958E+00 0.70617779E+03</pdfrwt>
<pdfrwt beam="2">  1       -2 0.86881237E-01 0.70617779E+03</pdfrwt>
<totfact> 0.19071992E+01</totfact>
</mgrwt>
</event>
<event>
 4    1  0.2089815E-007  0.7441651E+03  0.7818608E-02  0.9847976E-01
         -2   -1    0    0    0  501 -0.00000000000E+00  0.00000000000E+00  0.25440673563E+03  0.25440673564E+03  0.25500000000E-02 0.  1.
          2   -1    0    0  501    0  0.00000000000E+00 -0.00000000000E+00 -0.15970820674E+04  0.15970820674E+04  0.25500000000E-02 0. -1.
    8880023    1    1    2    0    0 -0.32430912300E+03  0.12163528308E+03 -0.12609066276E+04  0.14641267975E+04  0.65864270000E+03 0. -1.
    8880022    1    1    2    0    0  0.32430912300E+03 -0.12163528308E+03 -0.81768704171E+02  0.38736200555E+03  0.15294330000E+03 0.  0.
<mgrwt>
<rscale>  0 0.62850206E+03</rscale>
<asrwt>0</asrwt>
<pdfrwt beam="1">  1        2 0.24570493E+00 0.74416514E+03</pdfrwt>
<pdfrwt beam="2">  1       -2 0.39139499E-01 0.74416514E+03</pdfrwt>
<totfact> 0.70605698E+01</totfact>
</mgrwt>
</event>
<event>
 4    1  0.2089815E-007  0.7313853E+03  0.7818608E-02  0.9885791E-01
          2   -1    0    0  501    0  0.00000000000E+00  0.00000000000E+00  0.12086413238E+04  0.12086413238E+04  0.25500000000E-02 0. -1.
         -2   -1    0    0    0  501 -0.00000000000E+00 -0.00000000000E+00 -0.50756710243E+03  0.50756710243E+03  0.25500000000E-02 0.  1.
    8880023    1    1    2    0    0 -0.29665975698E+03  0.11448703697E+03  0.10101521309E+04  0.12471294347E+04  0.65864270000E+03 0.  0.
    8880022    1    1    2    0    0  0.29665975698E+03 -0.11448703697E+03 -0.30907790959E+03  0.46907899149E+03  0.15294330000E+03 0.  0.
<mgrwt>
<rscale>  0 0.60954875E+03</rscale>
<asrwt>0</asrwt>
<pdfrwt beam="1">  1        2 0.18594482E+00 0.73138533E+03</pdfrwt>
<pdfrwt beam="2">  1       -2 0.78087246E-01 0.73138533E+03</pdfrwt>
<totfact> 0.27888099E+01</totfact>
</mgrwt>
</event>
<event>
 4    1  0.2120835E-007  0.1078693E+04  0.7818608E-02  0.9285158E-01
          2   -1    0    0  501    0  0.00000000000E+00  0.00000000000E+00  0.21903674198E+04  0.21903674198E+04  0.25500000000E-02 0. -1.
         -2   -1    0    0    0  501 -0.00000000000E+00 -0.00000000000E+00 -0.16338364594E+04  0.16338364594E+04  0.25500000000E-02 0.  1.
    8880023    1    1    2    0    0 -0.87831690594E+02  0.84973763278E+03  0.19233244864E+04  0.22051656937E+04  0.65864270000E+03 0. -1.
    8880022    1    1    2    0    0  0.87831690594E+02 -0.84973763278E+03 -0.13667935260E+04  0.16190381855E+04  0.15294330000E+03 0.  0.
<mgrwt>
<rscale>  0 0.10216081E+04</rscale>
<asrwt>0</asrwt>
<pdfrwt beam="1">  1        2 0.33697960E+00 0.10786930E+04</pdfrwt>
<pdfrwt beam="2">  1       -2 0.25135946E+00 0.10786930E+04</pdfrwt>
<totfact> 0.32721893E-01</totfact>
</mgrwt>
</event>
<event>
 4    1  0.2089815E-007  0.1029868E+04  0.7818608E-02  0.9343484E-01
         -2   -1    0    0    0  501 -0.00000000000E+00  0.00000000000E+00  0.66230665871E+03  0.66230665871E+03  0.25500000000E-02 0.  1.
          2   -1    0    0  501    0  0.00000000000E+00 -0.00000000000E+00 -0.13022408601E+04  0.13022408601E+04  0.25500000000E-02 0. -1.
    8880023    1    1    2    0    0 -0.27889434808E+03  0.74096938586E+03 -0.21120561538E+03  0.10513019102E+04  0.65864270000E+03 0.  1.
    8880022    1    1    2    0    0  0.27889434808E+03 -0.74096938586E+03 -0.42872858602E+03  0.91324560861E+03  0.15294330000E+03 0.  0.
<mgrwt>
<rscale>  0 0.96876356E+03</rscale>
<asrwt>0</asrwt>
<pdfrwt beam="1">  1        2 0.20034475E+00 0.10298679E+04</pdfrwt>
<pdfrwt beam="2">  1       -2 0.10189333E+00 0.10298679E+04</pdfrwt>
<totfact> 0.12909824E+01</totfact>
</mgrwt>
</event>
<event>
 4    1  0.2089815E-007  0.9728683E+03  0.7818608E-02  0.9417948E-01
          2   -1    0    0  501    0  0.00000000000E+00  0.00000000000E+00  0.13629532051E+04  0.13629532051E+04  0.25500000000E-02 0. -1.
         -2   -1    0    0    0  501 -0.00000000000E+00 -0.00000000000E+00 -0.14760107814E+04  0.14760107814E+04  0.25500000000E-02 0.  1.
    8880023    1    1    2    0    0  0.37280575316E+03  0.61129236566E+03  0.10709551476E+04  0.14468647554E+04  0.65864270000E+03 0.  0.
    8880022    1    1    2    0    0 -0.37280575316E+03 -0.61129236566E+03 -0.11840127239E+04  0.13920992311E+04  0.15294330000E+03 0.  0.
<mgrwt>
<rscale>  0 0.90613231E+03</rscale>
<asrwt>0</asrwt>
<pdfrwt beam="1">  1        2 0.20968511E+00 0.97286828E+03</pdfrwt>
<pdfrwt beam="2">  1       -2 0.22707858E+00 0.97286828E+03</pdfrwt>
<totfact> 0.13535630E+00</totfact>
</mgrwt>
</event>
<event>
 4    1  0.2089815E-007  0.6610637E+03  0.7818608E-02  0.1023092E+00
          2   -1    0    0  501    0  0.00000000000E+00  0.00000000000E+00  0.38406475591E+04  0.38406475591E+04  0.25500000000E-02 0. -1.
         -2   -1    0    0    0  501 -0.00000000000E+00 -0.00000000000E+00 -0.72900858099E+02  0.72900858143E+02  0.25500000000E-02 0.  1.
    8880023    1    1    2    0    0  0.50733860076E+02  0.24921123706E+02  0.36574062341E+04  0.37166686097E+04  0.65864270000E+03 0. -1.
    8880022    1    1    2    0    0 -0.50733860076E+02 -0.24921123706E+02  0.11034046693E+03  0.19687980755E+03  0.15294330000E+03 0.  0.
<mgrwt>
<rscale>  0 0.46587071E+03</rscale>
<asrwt>0</asrwt>
<pdfrwt beam="1">  1        2 0.59086885E+00 0.66106368E+03</pdfrwt>
<pdfrwt beam="2">  1       -2 0.11215517E-01 0.66106368E+03</pdfrwt>
<totfact> 0.28889308E+01</totfact>
</mgrwt>
</event>
<event>
 4    1  0.2089815E-007  0.1299840E+04  0.7818608E-02  0.9065698E-01
          2   -1    0    0  501    0  0.00000000000E+00  0.00000000000E+00  0.19868241587E+04  0.19868241587E+04  0.25500000000E-02 0. -1.
         -2   -1    0    0    0  501 -0.00000000000E+00 -0.00000000000E+00 -0.82027549811E+03  0.82027549811E+03  0.25500000000E-02 0.  1.
    8880023    1    1    2    0    0  0.50284477996E+03 -0.10014597568E+04  0.10483898952E+04  0.16699419438E+04  0.65864270000E+03 0.  0.
    8880022    1    1    2    0    0 -0.50284477996E+03  0.10014597568E+04  0.11815876544E+03  0.11371577130E+04  0.15294330000E+03 0.  0.
<mgrwt>
<rscale>  0 0.12554036E+04</rscale>
<asrwt>0</asrwt>
<pdfrwt beam="1">  1        2 0.30566525E+00 0.12998403E+04</pdfrwt>
<pdfrwt beam="2">  1       -2 0.12619623E+00 0.12998403E+04</pdfrwt>
<totfact> 0.30717758E+00</totfact>
</mgrwt>
</event>
<event>
 4    1  0.2089815E-007  0.1584586E+04  0.7818608E-02  0.8852106E-01
          2   -1    0    0  501    0  0.00000000000E+00  0.00000000000E+00  0.25170930476E+04  0.25170930476E+04  0.25500000000E-02 0. -1.
         -2   -1    0    0    0  501 -0.00000000000E+00 -0.00000000000E+00 -0.10326535419E+04  0.10326535419E+04  0.25500000000E-02 0.  1.
    8880023    1    1    2    0    0 -0.10993767066E+04 -0.93191971437E+03  0.13721100391E+04  0.20960915206E+04  0.65864270000E+03 0.  0.
    8880022    1    1    2    0    0  0.10993767066E+04  0.93191971437E+03  0.11232946655E+03  0.14536550688E+04  0.15294330000E+03 0.  0.
<mgrwt>
<rscale>  0 0.15496268E+04</rscale>
<asrwt>0</asrwt>
<pdfrwt beam="1">  1        2 0.38724508E+00 0.15845863E+04</pdfrwt>
<pdfrwt beam="2">  1       -2 0.15886978E+00 0.15845863E+04</pdfrwt>
<totfact> 0.81762536E-01</totfact>
</mgrwt>
</event>
<event>
 4    1  0.2089815E-007  0.9578010E+03  0.7818608E-02  0.9438978E-01
         -2   -1    0    0    0  501 -0.00000000000E+00  0.00000000000E+00  0.13381024853E+04  0.13381024853E+04  0.25500000000E-02 0.  1.
          2   -1    0    0  501    0  0.00000000000E+00 -0.00000000000E+00 -0.91193172202E+03  0.91193172202E+03  0.25500000000E-02 0. -1.
    8880023    1    1    2    0    0  0.23758050570E+03  0.65355037233E+03 -0.50107581722E+03  0.10809531751E+04  0.65864270000E+03 0.  0.
    8880022    1    1    2    0    0 -0.23758050570E+03 -0.65355037233E+03  0.92724658047E+03  0.11690810322E+04  0.15294330000E+03 0.  0.
<mgrwt>
<rscale>  0 0.88936214E+03</rscale>
<asrwt>0</asrwt>
<pdfrwt beam="1">  1        2 0.14029719E+00 0.95780102E+03</pdfrwt>
<pdfrwt beam="2">  1       -2 0.20586192E+00 0.95780102E+03</pdfrwt>
<totfact> 0.34959346E+00</totfact>
</mgrwt>
</event>
<event>
 4    1  0.2089815E-007  0.1544793E+04  0.7818608E-02  0.8878637E-01
         -2   -1    0    0    0  501 -0.00000000000E+00  0.00000000000E+00  0.12429655902E+04  0.12429655902E+04  0.25500000000E-02 0.  1.
          2   -1    0    0  501    0  0.00000000000E+00 -0.00000000000E+00 -0.21590890382E+04  0.21590890382E+04  0.25500000000E-02 0. -1.
    8880023    1    1    2    0    0 -0.13831581493E+04 -0.19861319527E+03  0.26335404333E+03  0.15670798402E+04  0.65864270000E+03 0.  0.
    8880022    1    1    2    0    0  0.13831581493E+04  0.19861319527E+03 -0.11794774913E+04  0.18349747881E+04  0.15294330000E+03 0.  0.
<mgrwt>
<rscale>  0 0.15087769E+04</rscale>
<asrwt>0</asrwt>
<pdfrwt beam="1">  1        2 0.33216754E+00 0.15447925E+04</pdfrwt>
<pdfrwt beam="2">  1       -2 0.19122548E+00 0.15447925E+04</pdfrwt>
<totfact> 0.77478662E-01</totfact>
</mgrwt>
</event>
<event>
 4    1  0.2089815E-007  0.7603293E+03  0.7818608E-02  0.9804256E-01
         -2   -1    0    0    0  501 -0.00000000000E+00  0.00000000000E+00  0.36984116328E+03  0.36984116328E+03  0.25500000000E-02 0.  1.
          2   -1    0    0  501    0  0.00000000000E+00 -0.00000000000E+00 -0.16980732951E+04  0.16980732951E+04  0.25500000000E-02 0. -1.
    8880023    1    1    2    0    0  0.28645974932E+03 -0.24946199353E+03 -0.14529378910E+04  0.16398564558E+04  0.65864270000E+03 0. -1.
    8880022    1    1    2    0    0 -0.28645974932E+03  0.24946199353E+03  0.12470575919E+03  0.42805800259E+03  0.15294330000E+03 0.  0.
<mgrwt>
<rscale>  0 0.65134660E+03</rscale>
<asrwt>0</asrwt>
<pdfrwt beam="1">  1        2 0.26124204E+00 0.76032932E+03</pdfrwt>
<pdfrwt beam="2">  1       -2 0.56898641E-01 0.76032932E+03</pdfrwt>
<totfact> 0.29200245E+01</totfact>
</mgrwt>
</event>
<event>
 4    1  0.2089815E-007  0.7859867E+03  0.7818608E-02  0.9741957E-01
         -2   -1    0    0    0  501 -0.00000000000E+00  0.00000000000E+00  0.96506141284E+03  0.96506141285E+03  0.25500000000E-02 0.  1.
          2   -1    0    0  501    0  0.00000000000E+00 -0.00000000000E+00 -0.57975888814E+03  0.57975888815E+03  0.25500000000E-02 0. -1.
    8880023    1    1    2    0    0 -0.34725811542E+03 -0.25174734048E+03 -0.19243396578E+03  0.80920081538E+03  0.65864270000E+03 0. -1.
    8880022    1    1    2    0    0  0.34725811542E+03  0.25174734048E+03  0.57773649048E+03  0.73561948561E+03  0.15294330000E+03 0.  0.
<mgrwt>
<rscale>  0 0.68572682E+03</rscale>
<asrwt>0</asrwt>
<pdfrwt beam="1">  1        2 0.89193676E-01 0.78598672E+03</pdfrwt>
<pdfrwt beam="2">  1       -2 0.14847099E+00 0.78598672E+03</pdfrwt>
<totfact> 0.16086550E+01</totfact>
</mgrwt>
</event>
<event>
 4    1  0.2089815E-007  0.7078923E+03  0.7818608E-02  0.9965912E-01
         -2   -1    0    0    0  501 -0.00000000000E+00  0.00000000000E+00  0.46039133833E+03  0.46039133834E+03  0.25500000000E-02 0.  1.
          2   -1    0    0  501    0  0.00000000000E+00 -0.00000000000E+00 -0.12158092945E+04  0.12158092945E+04  0.25500000000E-02 0. -1.
    8880023    1    1    2    0    0  0.17026671951E+03 -0.19573086667E+03 -0.10425070784E+04  0.12601319545E+04  0.65864270000E+03 0. -1.
    8880022    1    1    2    0    0 -0.17026671951E+03  0.19573086667E+03  0.28708912227E+03  0.41606867832E+03  0.15294330000E+03 0.  0.
<mgrwt>
<rscale>  0 0.57170516E+03</rscale>
<asrwt>0</asrwt>
<pdfrwt beam="1">  1        2 0.18704758E+00 0.70789232E+03</pdfrwt>
<pdfrwt beam="2">  1       -2 0.70829437E-01 0.70789232E+03</pdfrwt>
<totfact> 0.34354392E+01</totfact>
</mgrwt>
</event>
<event>
 4    1  0.2089815E-007  0.6697661E+03  0.7818608E-02  0.1015831E+00
          2   -1    0    0  501    0  0.00000000000E+00  0.00000000000E+00  0.20106105641E+04  0.20106105641E+04  0.25500000000E-02 0. -1.
         -2   -1    0    0    0  501 -0.00000000000E+00 -0.00000000000E+00 -0.39726974414E+03  0.39726974415E+03  0.25500000000E-02 0.  1.
    8880023    1    1    2    0    0 -0.67824603872E+02  0.10087760401E+03  0.19260384471E+04  0.20391691381E+04  0.65864270000E+03 0. -1.
    8880022    1    1    2    0    0  0.67824603872E+02 -0.10087760401E+03 -0.31269762719E+03  0.36871117009E+03  0.15294330000E+03 0.  0.
<mgrwt>
<rscale>  0 0.49221516E+03</rscale>
<asrwt>0</asrwt>
<pdfrwt beam="1">  1        2 0.30932470E+00 0.66976613E+03</pdfrwt>
<pdfrwt beam="2">  1       -2 0.61118422E-01 0.66976613E+03</pdfrwt>
<totfact> 0.17190493E+01</totfact>
</mgrwt>
</event>
<event>
 4    1  0.2089815E-007  0.1642012E+04  0.7818608E-02  0.8815365E-01
          2   -1    0    0  501    0  0.00000000000E+00  0.00000000000E+00  0.31937251231E+04  0.31937251231E+04  0.25500000000E-02 0. -1.
         -2   -1    0    0    0  501 -0.00000000000E+00 -0.00000000000E+00 -0.12772107657E+04  0.12772107657E+04  0.25500000000E-02 0.  1.
    8880023    1    1    2    0    0 -0.14946054912E+04 -0.16895671170E+03  0.23783291500E+04  0.28900954476E+04  0.65864270000E+03 0.  0.
    8880022    1    1    2    0    0  0.14946054912E+04  0.16895671170E+03 -0.46181479257E+03  0.15808404411E+04  0.15294330000E+03 0.  0.
<mgrwt>
<rscale>  0 0.16084648E+04</rscale>
<asrwt>0</asrwt>
<pdfrwt beam="1">  1        2 0.49134233E+00 0.16420116E+04</pdfrwt>
<pdfrwt beam="2">  1       -2 0.19649396E+00 0.16420116E+04</pdfrwt>
<totfact> 0.17048147E-01</totfact>
</mgrwt>
</event>
<event>
 4    1  0.2089815E-007  0.1339373E+04  0.7818608E-02  0.9032283E-01
          2   -1    0    0  501    0  0.00000000000E+00  0.00000000000E+00  0.30471798940E+04  0.30471798940E+04  0.25500000000E-02 0. -1.
         -2   -1    0    0    0  501 -0.00000000000E+00 -0.00000000000E+00 -0.70391091457E+03  0.70391091458E+03  0.25500000000E-02 0.  1.
    8880023    1    1    2    0    0  0.27759548588E+03 -0.11327187991E+04  0.21869815976E+04  0.25645291666E+04  0.65864270000E+03 0.  0.
    8880022    1    1    2    0    0 -0.27759548588E+03  0.11327187991E+04  0.15628738181E+03  0.11865616420E+04  0.15294330000E+03 0.  0.
<mgrwt>
<rscale>  0 0.12965784E+04</rscale>
<asrwt>0</asrwt>
<pdfrwt beam="1">  1        2 0.46879691E+00 0.13393735E+04</pdfrwt>
<pdfrwt beam="2">  1       -2 0.10829399E+00 0.13393735E+04</pdfrwt>
<totfact> 0.10793338E+00</totfact>
</mgrwt>
</event>
<event>
 4    1  0.2089815E-007  0.8219385E+03  0.7818608E-02  0.9665226E-01
         -2   -1    0    0    0  501 -0.00000000000E+00  0.00000000000E+00  0.17622004007E+04  0.17622004007E+04  0.25500000000E-02 0.  1.
          2   -1    0    0  501    0  0.00000000000E+00 -0.00000000000E+00 -0.50294295769E+03  0.50294295770E+03  0.25500000000E-02 0. -1.
    8880023    1    1    2    0    0  0.39860874126E+03 -0.28789547279E+03 -0.84334377304E+02  0.82625372938E+03  0.65864270000E+03 0.  0.
    8880022    1    1    2    0    0 -0.39860874126E+03  0.28789547279E+03  0.13435918203E+04  0.14388896290E+04  0.15294330000E+03 0.  0.
<mgrwt>
<rscale>  0 0.73125509E+03</rscale>
<asrwt>0</asrwt>
<pdfrwt beam="1">  1        2 0.77375840E-01 0.82193852E+03</pdfrwt>
<pdfrwt beam="2">  1       -2 0.27110775E+00 0.82193852E+03</pdfrwt>
<totfact> 0.29886813E+00</totfact>
</mgrwt>
</event>
<event>
 4    1  0.2089815E-007  0.7000823E+03  0.7818608E-02  0.9996860E-01
          2   -1    0    0  501    0  0.00000000000E+00  0.00000000000E+00  0.15732388061E+04  0.15732388061E+04  0.25500000000E-02 0. -1.
         -2   -1    0    0    0  501 -0.00000000000E+00 -0.00000000000E+00 -0.29669540223E+03  0.29669540224E+03  0.25500000000E-02 0.  1.
    8880023    1    1    2    0    0 -0.18957637040E+03 -0.14270895921E+03  0.13973121310E+04  0.15628808160E+04  0.65864270000E+03 0. -1.
    8880022    1    1    2    0    0  0.18957637040E+03  0.14270895921E+03 -0.12076872718E+03  0.30705339231E+03  0.15294330000E+03 0.  0.
<mgrwt>
<rscale>  0 0.55788139E+03</rscale>
<asrwt>0</asrwt>
<pdfrwt beam="1">  1        2 0.24203674E+00 0.70008232E+03</pdfrwt>
<pdfrwt beam="2">  1       -2 0.45645447E-01 0.70008232E+03</pdfrwt>
<totfact> 0.54014171E+01</totfact>
</mgrwt>
</event>
<event>
 4    1  0.2089815E-007  0.1541885E+04  0.7818608E-02  0.8880612E-01
         -2   -1    0    0    0  501 -0.00000000000E+00  0.00000000000E+00  0.15065083693E+04  0.15065083693E+04  0.25500000000E-02 0.  1.
          2   -1    0    0  501    0  0.00000000000E+00 -0.00000000000E+00 -0.21626179334E+04  0.21626179334E+04  0.25500000000E-02 0. -1.
    8880023    1    1    2    0    0 -0.71910963381E+03 -0.11943531289E+04 -0.13990501400E+04  0.20820061389E+04  0.65864270000E+03 0.  0.
    8880022    1    1    2    0    0  0.71910963381E+03  0.11943531289E+04  0.74294057585E+03  0.15871201638E+04  0.15294330000E+03 0.  0.
<mgrwt>
<rscale>  0 0.15057892E+04</rscale>
<asrwt>0</asrwt>
<pdfrwt beam="1">  1        2 0.33271045E+00 0.15418846E+04</pdfrwt>
<pdfrwt beam="2">  1       -2 0.23177052E+00 0.15418846E+04</pdfrwt>
<totfact> 0.42163179E-01</totfact>
</mgrwt>
</event>
<event>
 4    1  0.2089815E-007  0.1003173E+04  0.7818608E-02  0.9377418E-01
          2   -1    0    0  501    0  0.00000000000E+00  0.00000000000E+00  0.24953752297E+04  0.24953752297E+04  0.25500000000E-02 0. -1.
         -2   -1    0    0    0  501 -0.00000000000E+00 -0.00000000000E+00 -0.41268034998E+03  0.41268034999E+03  0.25500000000E-02 0.  1.
    8880023    1    1    2    0    0 -0.51806008730E+03 -0.55150633360E+03  0.18453932142E+04  0.21004361003E+04  0.65864270000E+03 0.  0.
    8880022    1    1    2    0    0  0.51806008730E+03  0.55150633360E+03  0.23730166552E+03  0.80761947941E+03  0.15294330000E+03 0.  0.
<mgrwt>
<rscale>  0 0.93957591E+03</rscale>
<asrwt>0</asrwt>
<pdfrwt beam="1">  1        2 0.38390388E+00 0.10031728E+04</pdfrwt>
<pdfrwt beam="2">  1       -2 0.63489284E-01 0.10031728E+04</pdfrwt>
<totfact> 0.81318531E+00</totfact>
</mgrwt>
</event>
<event>
 4    1  0.2089815E-007  0.9442578E+03  0.7818608E-02  0.9458424E-01
         -2   -1    0    0    0  501 -0.00000000000E+00  0.00000000000E+00  0.11334245494E+04  0.11334245494E+04  0.25500000000E-02 0.  1.
          2   -1    0    0  501    0  0.00000000000E+00 -0.00000000000E+00 -0.18597104998E+04  0.18597104998E+04  0.25500000000E-02 0. -1.
    8880023    1    1    2    0    0 -0.28286364299E+03  0.61465493613E+03 -0.16119429032E+04  0.18681495284E+04  0.65864270000E+03 0.  0.
    8880022    1    1    2    0    0  0.28286364299E+03 -0.61465493613E+03  0.88565695273E+03  0.11249855208E+04  0.15294330000E+03 0.  0.
<mgrwt>
<rscale>  0 0.87419657E+03</rscale>
<asrwt>0</asrwt>
<pdfrwt beam="1">  1        2 0.28610931E+00 0.94425777E+03</pdfrwt>
<pdfrwt beam="2">  1       -2 0.17437301E+00 0.94425777E+03</pdfrwt>
<totfact> 0.15930315E+00</totfact>
</mgrwt>
</event>
<event>
 4    1  0.2089815E-007  0.7060106E+03  0.7818608E-02  0.9973125E-01
          2   -1    0    0  501    0  0.00000000000E+00  0.00000000000E+00  0.11169824318E+04  0.11169824319E+04  0.25500000000E-02 0. -1.
         -2   -1    0    0    0  501 -0.00000000000E+00 -0.00000000000E+00 -0.41735570729E+03  0.41735570729E+03  0.25500000000E-02 0.  1.
    8880023    1    1    2    0    0 -0.25335797048E+03  0.21223651248E+02  0.92363957716E+03  0.11625665483E+04  0.65864270000E+03 0.  0.
    8880022    1    1    2    0    0  0.25335797048E+03 -0.21223651248E+02 -0.22401285260E+03  0.37177159080E+03  0.15294330000E+03 0.  0.
<mgrwt>
<rscale>  0 0.56844531E+03</rscale>
<asrwt>0</asrwt>
<pdfrwt beam="1">  1        2 0.17184345E+00 0.70601056E+03</pdfrwt>
<pdfrwt beam="2">  1       -2 0.64208571E-01 0.70601056E+03</pdfrwt>
<totfact> 0.48672194E+01</totfact>
</mgrwt>
</event>
<event>
 4    1  0.2089815E-007  0.9289144E+03  0.7818608E-02  0.9481124E-01
         -2   -1    0    0    0  501 -0.00000000000E+00  0.00000000000E+00  0.62884710079E+03  0.62884710080E+03  0.25500000000E-02 0.  1.
          2   -1    0    0  501    0  0.00000000000E+00 -0.00000000000E+00 -0.12274132174E+04  0.12274132174E+04  0.25500000000E-02 0. -1.
    8880023    1    1    2    0    0  0.18582439004E+03  0.62812509118E+03 -0.71676465027E+03  0.11733003044E+04  0.65864270000E+03 0.  0.
    8880022    1    1    2    0    0 -0.18582439004E+03 -0.62812509118E+03  0.11819853366E+03  0.68296001382E+03  0.15294330000E+03 0.  0.
<mgrwt>
<rscale>  0 0.85689918E+03</rscale>
<asrwt>0</asrwt>
<pdfrwt beam="1">  1        2 0.18883280E+00 0.92891444E+03</pdfrwt>
<pdfrwt beam="2">  1       -2 0.96745708E-01 0.92891444E+03</pdfrwt>
<totfact> 0.16304391E+01</totfact>
</mgrwt>
</event>
<event>
 4    1  0.2089815E-007  0.7049987E+03  0.7818608E-02  0.9977064E-01
         -2   -1    0    0    0  501 -0.00000000000E+00  0.00000000000E+00  0.17672385033E+03  0.17672385035E+03  0.25500000000E-02 0.  1.
          2   -1    0    0  501    0  0.00000000000E+00 -0.00000000000E+00 -0.46301838755E+04  0.46301838755E+04  0.25500000000E-02 0. -1.
    8880023    1    1    2    0    0 -0.39014973284E+02  0.24837631254E+03 -0.44571866846E+04  0.45125975123E+04  0.65864270000E+03 0. -1.
    8880022    1    1    2    0    0  0.39014973284E+02 -0.24837631254E+03  0.37266594337E+01  0.29431021351E+03  0.15294330000E+03 0.  0.
<mgrwt>
<rscale>  0 0.56667476E+03</rscale>
<asrwt>0</asrwt>
<pdfrwt beam="1">  1        2 0.71233589E+00 0.70499870E+03</pdfrwt>
<pdfrwt beam="2">  1       -2 0.27188288E-01 0.70499870E+03</pdfrwt>
<totfact> 0.12963316E+00</totfact>
</mgrwt>
</event>
<event>
 4    1  0.2089815E-007  0.1178377E+04  0.7818608E-02  0.9178433E-01
          2   -1    0    0  501    0  0.00000000000E+00  0.00000000000E+00  0.20204188827E+04  0.20204188827E+04  0.25500000000E-02 0. -1.
         -2   -1    0    0    0  501 -0.00000000000E+00 -0.00000000000E+00 -0.97065327754E+03  0.97065327755E+03  0.25500000000E-02 0.  1.
    8880023    1    1    2    0    0  0.11839440101E+03  0.96992049666E+03 -0.39271965006E+03  0.12420957829E+04  0.65864270000E+03 0.  1.
    8880022    1    1    2    0    0 -0.11839440101E+03 -0.96992049666E+03  0.14424852552E+04  0.17489763773E+04  0.15294330000E+03 0.  0.
<mgrwt>
<rscale>  0 0.11278835E+04</rscale>
<asrwt>0</asrwt>
<pdfrwt beam="1">  1        2 0.31083368E+00 0.11783774E+04</pdfrwt>
<pdfrwt beam="2">  1       -2 0.14933127E+00 0.11783774E+04</pdfrwt>
<totfact> 0.19258490E+00</totfact>
</mgrwt>
</event>
<event>
 4    1  0.2089815E-007  0.1546805E+04  0.7818608E-02  0.8877273E-01
         -2   -1    0    0    0  501 -0.00000000000E+00  0.00000000000E+00  0.96376187634E+03  0.96376187635E+03  0.25500000000E-02 0.  1.
          2   -1    0    0  501    0  0.00000000000E+00 -0.00000000000E+00 -0.25492371720E+04  0.25492371720E+04  0.25500000000E-02 0. -1.
    8880023    1    1    2    0    0 -0.13970218608E+04 -0.84411757151E+02 -0.14121609458E+04  0.20944699012E+04  0.65864270000E+03 0.  0.
    8880022    1    1    2    0    0  0.13970218608E+04  0.84411757151E+02 -0.17331434984E+03  0.14185291471E+04  0.15294330000E+03 0.  0.
<mgrwt>
<rscale>  0 0.15108444E+04</rscale>
<asrwt>0</asrwt>
<pdfrwt beam="1">  1        2 0.39219033E+00 0.15468050E+04</pdfrwt>
<pdfrwt beam="2">  1       -2 0.14827106E+00 0.15468050E+04</pdfrwt>
<totfact> 0.94730506E-01</totfact>
</mgrwt>
</event>
<event>
 4    1  0.2089815E-007  0.1158381E+04  0.7818608E-02  0.9198680E-01
         -2   -1    0    0    0  501 -0.00000000000E+00  0.00000000000E+00  0.12959010248E+04  0.12959010248E+04  0.25500000000E-02 0.  1.
          2   -1    0    0  501    0  0.00000000000E+00 -0.00000000000E+00 -0.21497702183E+04  0.21497702183E+04  0.25500000000E-02 0. -1.
    8880023    1    1    2    0    0  0.90745699112E+03  0.29078971744E+03 -0.17697546793E+04  0.21151545290E+04  0.65864270000E+03 0.  0.
    8880022    1    1    2    0    0 -0.90745699112E+03 -0.29078971744E+03  0.91588548578E+03  0.13305167141E+04  0.15294330000E+03 0.  0.
<mgrwt>
<rscale>  0 0.11067061E+04</rscale>
<asrwt>0</asrwt>
<pdfrwt beam="1">  1        2 0.33073388E+00 0.11583812E+04</pdfrwt>
<pdfrwt beam="2">  1       -2 0.19936939E+00 0.11583812E+04</pdfrwt>
<totfact> 0.72352058E-01</totfact>
</mgrwt>
</event>
<event>
 4    1  0.2089815E-007  0.8826253E+03  0.7818608E-02  0.9554520E-01
          2   -1    0    0  501    0  0.00000000000E+00  0.00000000000E+00  0.62603628162E+03  0.62603628163E+03  0.25500000000E-02 0. -1.
         -2   -1    0    0    0  501 -0.00000000000E+00 -0.00000000000E+00 -0.10617357827E+04  0.10617357827E+04  0.25500000000E-02 0.  1.
    8880023    1    1    2    0    0 -0.48525649149E+03 -0.33127530691E+03  0.86640657836E+02  0.88686752187E+03  0.65864270000E+03 0. -1.
    8880022    1    1    2    0    0  0.48525649149E+03  0.33127530691E+03 -0.52234015888E+03  0.80090454244E+03  0.15294330000E+03 0.  0.
<mgrwt>
<rscale>  0 0.80380924E+03</rscale>
<asrwt>0</asrwt>
<pdfrwt beam="1">  1        2 0.96313274E-01 0.88262529E+03</pdfrwt>
<pdfrwt beam="2">  1       -2 0.16334397E+00 0.88262529E+03</pdfrwt>
<totfact> 0.11241470E+01</totfact>
</mgrwt>
</event>
<event>
 4    1  0.2089815E-007  0.7212991E+03  0.7818608E-02  0.9918214E-01
         -2   -1    0    0    0  501 -0.00000000000E+00  0.00000000000E+00  0.40943933843E+03  0.40943933844E+03  0.25500000000E-02 0.  1.
          2   -1    0    0  501    0  0.00000000000E+00 -0.00000000000E+00 -0.35710450379E+04  0.35710450379E+04  0.25500000000E-02 0. -1.
    8880023    1    1    2    0    0 -0.24059559853E+03  0.16904438059E+03 -0.34600763242E+04  0.35344590279E+04  0.65864270000E+03 0. -1.
    8880022    1    1    2    0    0  0.24059559853E+03 -0.16904438059E+03  0.29847062468E+03  0.44602534844E+03  0.15294330000E+03 0.  0.
<mgrwt>
<rscale>  0 0.59386605E+03</rscale>
<asrwt>0</asrwt>
<pdfrwt beam="1">  1        2 0.54939152E+00 0.72129914E+03</pdfrwt>
<pdfrwt beam="2">  1       -2 0.62990670E-01 0.72129914E+03</pdfrwt>
<totfact> 0.18566286E+00</totfact>
</mgrwt>
</event>
<event>
 4    1  0.2089815E-007  0.1233961E+04  0.7818608E-02  0.9124796E-01
          2   -1    0    0  501    0  0.00000000000E+00  0.00000000000E+00  0.40443135843E+04  0.40443135843E+04  0.25500000000E-02 0. -1.
         -2   -1    0    0    0  501 -0.00000000000E+00 -0.00000000000E+00 -0.53910433906E+03  0.53910433907E+03  0.25500000000E-02 0.  1.
    8880023    1    1    2    0    0  0.69325292206E+03 -0.77990425653E+03  0.32807928268E+04  0.35051764638E+04  0.65864270000E+03 0.  0.
    8880022    1    1    2    0    0 -0.69325292206E+03  0.77990425653E+03  0.22441641840E+03  0.10782414596E+04  0.15294330000E+03 0.  0.
<mgrwt>
<rscale>  0 0.11864544E+04</rscale>
<asrwt>0</asrwt>
<pdfrwt beam="1">  1        2 0.62220208E+00 0.12339613E+04</pdfrwt>
<pdfrwt beam="2">  1       -2 0.82939130E-01 0.12339613E+04</pdfrwt>
<totfact> 0.40582629E-01</totfact>
</mgrwt>
</event>
<event>
 4    1  0.2169295E-007  0.7808568E+03  0.7818608E-02  0.9753828E-01
         -2   -1    0    0    0  501 -0.00000000000E+00  0.00000000000E+00  0.12817321832E+04  0.12817321832E+04  0.25500000000E-02 0.  1.
          2   -1    0    0  501    0  0.00000000000E+00 -0.00000000000E+00 -0.22353079967E+04  0.22353079967E+04  0.25500000000E-02 0. -1.
    8880023    1    1    2    0    0  0.41008634084E+03 -0.88069776798E+02 -0.21247318603E+04  0.22636746182E+04  0.65864270000E+03 0. -1.
    8880022    1    1    2    0    0 -0.41008634084E+03  0.88069776798E+02  0.11711560467E+04  0.12533655617E+04  0.15294330000E+03 0.  0.
<mgrwt>
<rscale>  0 0.67900356E+03</rscale>
<asrwt>0</asrwt>
<pdfrwt beam="1">  1        2 0.34389354E+00 0.78085677E+03</pdfrwt>
<pdfrwt beam="2">  1       -2 0.19718957E+00 0.78085677E+03</pdfrwt>
<totfact> 0.71402123E-01</totfact>
</mgrwt>
</event>
<event>
 4    1  0.2089815E-007  0.6979175E+03  0.7818608E-02  0.1000595E+00
          2   -1    0    0  501    0  0.00000000000E+00  0.00000000000E+00  0.11419477495E+04  0.11419477495E+04  0.25500000000E-02 0. -1.
         -2   -1    0    0    0  501 -0.00000000000E+00 -0.00000000000E+00 -0.42312330646E+03  0.42312330647E+03  0.25500000000E-02 0.  1.
    8880023    1    1    2    0    0 -0.19074891635E+03 -0.12997488299E+03  0.96746319423E+03  0.11929265936E+04  0.65864270000E+03 0.  0.
    8880022    1    1    2    0    0  0.19074891635E+03  0.12997488299E+03 -0.24863875116E+03  0.37214446239E+03  0.15294330000E+03 0.  0.
<mgrwt>
<rscale>  0 0.55390009E+03</rscale>
<asrwt>0</asrwt>
<pdfrwt beam="1">  1        2 0.17568427E+00 0.69791749E+03</pdfrwt>
<pdfrwt beam="2">  1       -2 0.65095893E-01 0.69791749E+03</pdfrwt>
<totfact> 0.45684981E+01</totfact>
</mgrwt>
</event>
<event>
 4    1  0.2089815E-007  0.1483662E+04  0.7818608E-02  0.8921259E-01
          2   -1    0    0  501    0  0.00000000000E+00  0.00000000000E+00  0.17599829457E+04  0.17599829457E+04  0.25500000000E-02 0. -1.
         -2   -1    0    0    0  501 -0.00000000000E+00 -0.00000000000E+00 -0.18283765314E+04  0.18283765314E+04  0.25500000000E-02 0.  1.
    8880023    1    1    2    0    0 -0.13238431450E+04 -0.12199774104E+03  0.10717734781E+04  0.18302876048E+04  0.65864270000E+03 0. -1.
    8880022    1    1    2    0    0  0.13238431450E+04  0.12199774104E+03 -0.11401670639E+04  0.17580718723E+04  0.15294330000E+03 0.  0.
<mgrwt>
<rscale>  0 0.14458835E+04</rscale>
<asrwt>0</asrwt>
<pdfrwt beam="1">  1        2 0.27076661E+00 0.14836625E+04</pdfrwt>
<pdfrwt beam="2">  1       -2 0.28128870E+00 0.14836625E+04</pdfrwt>
<totfact> 0.35318613E-01</totfact>
</mgrwt>
</event>
<event>
 4    1  0.2089815E-007  0.8656665E+03  0.7818608E-02  0.9583562E-01
         -2   -1    0    0    0  501 -0.00000000000E+00  0.00000000000E+00  0.11001255769E+04  0.11001255769E+04  0.25500000000E-02 0.  1.
          2   -1    0    0  501    0  0.00000000000E+00 -0.00000000000E+00 -0.10471378123E+04  0.10471378123E+04  0.25500000000E-02 0. -1.
    8880023    1    1    2    0    0 -0.53386882883E+03 -0.17479256496E+03 -0.75684890865E+03  0.11498690551E+04  0.65864270000E+03 0. -1.
    8880022    1    1    2    0    0  0.53386882883E+03  0.17479256496E+03  0.80983667333E+03  0.99739433407E+03  0.15294330000E+03 0.  0.
<mgrwt>
<rscale>  0 0.78393767E+03</rscale>
<asrwt>0</asrwt>
<pdfrwt beam="1">  1        2 0.16109813E+00 0.86566655E+03</pdfrwt>
<pdfrwt beam="2">  1       -2 0.16925009E+00 0.86566655E+03</pdfrwt>
<totfact> 0.51014374E+00</totfact>
</mgrwt>
</event>
<event>
 4    1  0.2089815E-007  0.7569746E+03  0.7818608E-02  0.9813004E-01
         -2   -1    0    0    0  501 -0.00000000000E+00  0.00000000000E+00  0.83628600497E+03  0.83628600498E+03  0.25500000000E-02 0.  1.
          2   -1    0    0  501    0  0.00000000000E+00 -0.00000000000E+00 -0.65006023365E+03  0.65006023366E+03  0.25500000000E-02 0. -1.
    8880023    1    1    2    0    0 -0.33852180025E+03 -0.15685427806E+03 -0.33463727181E+03  0.82764278752E+03  0.65864270000E+03 0.  0.
    8880022    1    1    2    0    0  0.33852180025E+03  0.15685427806E+03  0.52086304313E+03  0.65870345111E+03  0.15294330000E+03 0.  0.
<mgrwt>
<rscale>  0 0.64669326E+03</rscale>
<asrwt>0</asrwt>
<pdfrwt beam="1">  1        2 0.10000927E+00 0.75697456E+03</pdfrwt>
<pdfrwt beam="2">  1       -2 0.12865938E+00 0.75697456E+03</pdfrwt>
<totfact> 0.20304926E+01</totfact>
</mgrwt>
</event>
<event>
 4    1  0.2089815E-007  0.7941638E+03  0.7818608E-02  0.9723560E-01
         -2   -1    0    0    0  501 -0.00000000000E+00  0.00000000000E+00  0.97737298074E+03  0.97737298074E+03  0.25500000000E-02 0.  1.
          2   -1    0    0  501    0  0.00000000000E+00 -0.00000000000E+00 -0.89359393893E+03  0.89359393893E+03  0.25500000000E-02 0. -1.
    8880023    1    1    2    0    0 -0.44196571270E+03  0.39397887583E+02 -0.63206032339E+03  0.10149858834E+04  0.65864270000E+03 0. -1.
    8880022    1    1    2    0    0  0.44196571270E+03 -0.39397887583E+02  0.71583936520E+03  0.85598103631E+03  0.15294330000E+03 0.  0.
<mgrwt>
<rscale>  0 0.69631192E+03</rscale>
<asrwt>0</asrwt>
<pdfrwt beam="1">  1        2 0.13747599E+00 0.79416377E+03</pdfrwt>
<pdfrwt beam="2">  1       -2 0.15036507E+00 0.79416377E+03</pdfrwt>
<totfact> 0.89227279E+00</totfact>
</mgrwt>
</event>
<event>
 4    1  0.2089815E-007  0.1266391E+04  0.7818608E-02  0.9095140E-01
          2   -1    0    0  501    0  0.00000000000E+00  0.00000000000E+00  0.12572659261E+04  0.12572659261E+04  0.25500000000E-02 0. -1.
         -2   -1    0    0    0  501 -0.00000000000E+00 -0.00000000000E+00 -0.13548630235E+04  0.13548630235E+04  0.25500000000E-02 0.  1.
    8880023    1    1    2    0    0 -0.66927172147E+03 -0.84971319224E+03  0.50638414716E+03  0.13638813207E+04  0.65864270000E+03 0. -1.
    8880022    1    1    2    0    0  0.66927172147E+03  0.84971319224E+03 -0.60398124461E+03  0.12482476289E+04  0.15294330000E+03 0.  0.
<mgrwt>
<rscale>  0 0.12204528E+04</rscale>
<asrwt>0</asrwt>
<pdfrwt beam="1">  1        2 0.19342553E+00 0.12663915E+04</pdfrwt>
<pdfrwt beam="2">  1       -2 0.20844047E+00 0.12663915E+04</pdfrwt>
<totfact> 0.19793052E+00</totfact>
</mgrwt>
</event>
<event>
 4    1  0.2089815E-007  0.1236235E+04  0.7818608E-02  0.9122680E-01
          2   -1    0    0  501    0  0.00000000000E+00  0.00000000000E+00  0.32354141030E+04  0.32354141030E+04  0.25500000000E-02 0. -1.
         -2   -1    0    0    0  501 -0.00000000000E+00 -0.00000000000E+00 -0.69942061448E+03  0.69942061448E+03  0.25500000000E-02 0.  1.
    8880023    1    1    2    0    0  0.95801773089E+03 -0.42031860085E+03  0.25965426732E+04  0.28758146252E+04  0.65864270000E+03 0.  0.
    8880022    1    1    2    0    0 -0.95801773089E+03  0.42031860085E+03 -0.60549184670E+02  0.10590200922E+04  0.15294330000E+03 0.  0.
<mgrwt>
<rscale>  0 0.11888415E+04</rscale>
<asrwt>0</asrwt>
<pdfrwt beam="1">  1        2 0.49775601E+00 0.12362346E+04</pdfrwt>
<pdfrwt beam="2">  1       -2 0.10760317E+00 0.12362346E+04</pdfrwt>
<totfact> 0.84231389E-01</totfact>
</mgrwt>
</event>
<event>
 4    1  0.2089815E-007  0.1019809E+04  0.7818608E-02  0.9356088E-01
         -2   -1    0    0    0  501 -0.00000000000E+00  0.00000000000E+00  0.50955822920E+03  0.50955822920E+03  0.25500000000E-02 0.  1.
          2   -1    0    0  501    0  0.00000000000E+00 -0.00000000000E+00 -0.28765160856E+04  0.28765160856E+04  0.25500000000E-02 0. -1.
    8880023    1    1    2    0    0  0.41488919171E+03  0.65883807026E+03 -0.23834236285E+04  0.25924349642E+04  0.65864270000E+03 0. -1.
    8880022    1    1    2    0    0 -0.41488919171E+03 -0.65883807026E+03  0.16465772112E+02  0.79363935064E+03  0.15294330000E+03 0.  1.
<mgrwt>
<rscale>  0 0.95779293E+03</rscale>
<asrwt>0</asrwt>
<pdfrwt beam="1">  1        2 0.44254093E+00 0.10198092E+04</pdfrwt>
<pdfrwt beam="2">  1       -2 0.78393575E-01 0.10198092E+04</pdfrwt>
<totfact> 0.30512500E+00</totfact>
</mgrwt>
</event>
<event>
 4    1  0.2089815E-007  0.9047722E+03  0.7818608E-02  0.9518414E-01
         -2   -1    0    0    0  501 -0.00000000000E+00  0.00000000000E+00  0.28905637307E+03  0.28905637308E+03  0.25500000000E-02 0.  1.
          2   -1    0    0  501    0  0.00000000000E+00 -0.00000000000E+00 -0.33890647610E+04  0.33890647610E+04  0.25500000000E-02 0. -1.
    8880023    1    1    2    0    0  0.61471090940E+03  0.83265240285E+02 -0.28531773378E+04  0.29931979101E+04  0.65864270000E+03 0.  0.
    8880022    1    1    2    0    0 -0.61471090940E+03 -0.83265240285E+02 -0.24683105022E+03  0.68492322397E+03  0.15294330000E+03 0.  0.
<mgrwt>
<rscale>  0 0.82939767E+03</rscale>
<asrwt>0</asrwt>
<pdfrwt beam="1">  1        2 0.52139455E+00 0.90477224E+03</pdfrwt>
<pdfrwt beam="2">  1       -2 0.44470214E-01 0.90477224E+03</pdfrwt>
<totfact> 0.48812094E+00</totfact>
</mgrwt>
</event>
<event>
 4    1  0.2089815E-007  0.7057973E+03  0.7818608E-02  0.9973952E-01
          2   -1    0    0  501    0  0.00000000000E+00  0.00000000000E+00  0.17805124358E+04  0.17805124358E+04  0.25500000000E-02 0. -1.
         -2   -1    0    0    0  501 -0.00000000000E+00 -0.00000000000E+00 -0.37894414916E+03  0.37894414916E+03  0.25500000000E-02 0.  1.
    8880023    1    1    2    0    0 -0.48291137757E+02 -0.24901311351E+03  0.16359742999E+04  0.17817299686E+04  0.65864270000E+03 0. -1.
    8880022    1    1    2    0    0  0.48291137757E+02  0.24901311351E+03 -0.23440601324E+03  0.37772661641E+03  0.15294330000E+03 0.  0.
<mgrwt>
<rscale>  0 0.56807313E+03</rscale>
<asrwt>0</asrwt>
<pdfrwt beam="1">  1        2 0.27392499E+00 0.70579726E+03</pdfrwt>
<pdfrwt beam="2">  1       -2 0.58299100E-01 0.70579726E+03</pdfrwt>
<totfact> 0.25192812E+01</totfact>
</mgrwt>
</event>
<event>
 4    1  0.2089815E-007  0.7445430E+03  0.7818608E-02  0.9846906E-01
         -2   -1    0    0    0  501 -0.00000000000E+00  0.00000000000E+00  0.21132779321E+03  0.21132779322E+03  0.25500000000E-02 0.  1.
          2   -1    0    0  501    0  0.00000000000E+00 -0.00000000000E+00 -0.47951382397E+04  0.47951382397E+04  0.25500000000E-02 0. -1.
    8880023    1    1    2    0    0  0.22615911223E+03  0.26341249709E+03 -0.45663906906E+04  0.46266908513E+04  0.65864270000E+03 0.  0.
    8880022    1    1    2    0    0 -0.22615911223E+03 -0.26341249709E+03 -0.17419755858E+02  0.37977518163E+03  0.15294330000E+03 0.  0.
<mgrwt>
<rscale>  0 0.62904925E+03</rscale>
<asrwt>0</asrwt>
<pdfrwt beam="1">  1        2 0.73771350E+00 0.74454301E+03</pdfrwt>
<pdfrwt beam="2">  1       -2 0.32511972E-01 0.74454301E+03</pdfrwt>
<totfact> 0.61707795E-01</totfact>
</mgrwt>
</event>
<event>
 4    1  0.2089815E-007  0.8826185E+03  0.7818608E-02  0.9554531E-01
         -2   -1    0    0    0  501 -0.00000000000E+00  0.00000000000E+00  0.19335294921E+04  0.19335294921E+04  0.25500000000E-02 0.  1.
          2   -1    0    0  501    0  0.00000000000E+00 -0.00000000000E+00 -0.14059341553E+04  0.14059341553E+04  0.25500000000E-02 0. -1.
    8880023    1    1    2    0    0  0.14249529588E+03 -0.57000028349E+03 -0.12106581922E+04  0.14982351942E+04  0.65864270000E+03 0.  0.
    8880022    1    1    2    0    0 -0.14249529588E+03  0.57000028349E+03  0.17382535291E+04  0.18412284532E+04  0.15294330000E+03 0.  0.
<mgrwt>
<rscale>  0 0.80380135E+03</rscale>
<asrwt>0</asrwt>
<pdfrwt beam="1">  1        2 0.21629756E+00 0.88261851E+03</pdfrwt>
<pdfrwt beam="2">  1       -2 0.29746608E+00 0.88261851E+03</pdfrwt>
<totfact> 0.48463174E-01</totfact>
</mgrwt>
</event>
<event>
 4    1  0.2089815E-007  0.8152365E+03  0.7818608E-02  0.9678771E-01
          2   -1    0    0  501    0  0.00000000000E+00  0.00000000000E+00  0.13171377560E+04  0.13171377560E+04  0.25500000000E-02 0. -1.
         -2   -1    0    0    0  501 -0.00000000000E+00 -0.00000000000E+00 -0.10685846705E+04  0.10685846705E+04  0.25500000000E-02 0.  1.
    8880023    1    1    2    0    0 -0.25796089987E+03  0.40528581326E+03  0.11162082611E+04  0.13822197744E+04  0.65864270000E+03 0. -1.
    8880022    1    1    2    0    0  0.25796089987E+03 -0.40528581326E+03 -0.86765517550E+03  0.10035026521E+04  0.15294330000E+03 0.  0.
<mgrwt>
<rscale>  0 0.72294953E+03</rscale>
<asrwt>0</asrwt>
<pdfrwt beam="1">  1        2 0.20263658E+00 0.81523654E+03</pdfrwt>
<pdfrwt beam="2">  1       -2 0.16439764E+00 0.81523654E+03</pdfrwt>
<totfact> 0.38340099E+00</totfact>
</mgrwt>
</event>
<event>
 4    1  0.2089815E-007  0.6766511E+03  0.7818608E-02  0.1011285E+00
         -2   -1    0    0    0  501 -0.00000000000E+00  0.00000000000E+00  0.28850788289E+03  0.28850788290E+03  0.25500000000E-02 0.  1.
          2   -1    0    0  501    0  0.00000000000E+00 -0.00000000000E+00 -0.97941054082E+03  0.97941054082E+03  0.25500000000E-02 0. -1.
    8880023    1    1    2    0    0 -0.14038558974E+03  0.65866649726E+02 -0.77999927809E+03  0.10325965376E+04  0.65864270000E+03 0. -1.
    8880022    1    1    2    0    0  0.14038558974E+03 -0.65866649726E+02  0.89096620163E+02  0.23532188613E+03  0.15294330000E+03 0.  0.
<mgrwt>
<rscale>  0 0.50967063E+03</rscale>
<asrwt>0</asrwt>
<pdfrwt beam="1">  1        2 0.15067854E+00 0.67665112E+03</pdfrwt>
<pdfrwt beam="2">  1       -2 0.44385829E-01 0.67665112E+03</pdfrwt>
<totfact> 0.12723808E+02</totfact>
</mgrwt>
</event>
<event>
 4    1  0.2089815E-007  0.2227860E+04  0.7818608E-02  0.8516785E-01
          2   -1    0    0  501    0  0.00000000000E+00  0.00000000000E+00  0.35081058192E+04  0.35081058192E+04  0.25500000000E-02 0. -1.
         -2   -1    0    0    0  501 -0.00000000000E+00 -0.00000000000E+00 -0.18367116048E+04  0.18367116048E+04  0.25500000000E-02 0.  1.
    8880023    1    1    2    0    0 -0.16764397502E+04 -0.13111439249E+04 -0.51836493064E+03  0.22873698947E+04  0.65864270000E+03 0. -1.
    8880022    1    1    2    0    0  0.16764397502E+04  0.13111439249E+04  0.21897591451E+04  0.30574475293E+04  0.15294330000E+03 0.  0.
<mgrwt>
<rscale>  0 0.22039532E+04</rscale>
<asrwt>0</asrwt>
<pdfrwt beam="1">  1        2 0.53970859E+00 0.22278597E+04</pdfrwt>
<pdfrwt beam="2">  1       -2 0.28257102E+00 0.22278597E+04</pdfrwt>
<totfact> 0.28171663E-02</totfact>
</mgrwt>
</event>
<event>
 4    1  0.2089815E-007  0.9107132E+03  0.7818608E-02  0.9509048E-01
          2   -1    0    0  501    0  0.00000000000E+00  0.00000000000E+00  0.94516163465E+03  0.94516163465E+03  0.25500000000E-02 0. -1.
         -2   -1    0    0    0  501 -0.00000000000E+00 -0.00000000000E+00 -0.99239425768E+03  0.99239425768E+03  0.25500000000E-02 0.  1.
    8880023    1    1    2    0    0  0.30745890372E+02  0.62820624990E+03  0.54406410193E+03  0.10608507696E+04  0.65864270000E+03 0.  0.
    8880022    1    1    2    0    0 -0.30745890372E+02 -0.62820624990E+03 -0.59129672495E+03  0.87670512269E+03  0.15294330000E+03 0.  0.
<mgrwt>
<rscale>  0 0.83620047E+03</rscale>
<asrwt>0</asrwt>
<pdfrwt beam="1">  1        2 0.14540948E+00 0.91071324E+03</pdfrwt>
<pdfrwt beam="2">  1       -2 0.15267604E+00 0.91071324E+03</pdfrwt>
<totfact> 0.78172018E+00</totfact>
</mgrwt>
</event>
<event>
 4    1  0.2089815E-007  0.7349555E+03  0.7818608E-02  0.9874893E-01
          2   -1    0    0  501    0  0.00000000000E+00  0.00000000000E+00  0.34188769987E+03  0.34188769988E+03  0.25500000000E-02 0. -1.
         -2   -1    0    0    0  501 -0.00000000000E+00 -0.00000000000E+00 -0.13756217914E+04  0.13756217914E+04  0.25500000000E-02 0.  1.
    8880023    1    1    2    0    0  0.18125322759E+03 -0.27110272843E+03 -0.13229045008E+03  0.74676662440E+03  0.65864270000E+03 0. -1.
    8880022    1    1    2    0    0 -0.18125322759E+03  0.27110272843E+03 -0.90144364149E+03  0.97074286692E+03  0.15294330000E+03 0.  0.
<mgrwt>
<rscale>  0 0.61493680E+03</rscale>
<asrwt>0</asrwt>
<pdfrwt beam="1">  1        2 0.52598108E-01 0.73495553E+03</pdfrwt>
<pdfrwt beam="2">  1       -2 0.21163412E+00 0.73495553E+03</pdfrwt>
<totfact> 0.10831319E+01</totfact>
</mgrwt>
</event>
<event>
 4    1  0.2089815E-007  0.6690145E+03  0.7818608E-02  0.1016379E+00
         -2   -1    0    0    0  501 -0.00000000000E+00  0.00000000000E+00  0.15558807070E+03  0.15558807072E+03  0.25500000000E-02 0.  1.
          2   -1    0    0  501    0  0.00000000000E+00 -0.00000000000E+00 -0.15375472467E+04  0.15375472467E+04  0.25500000000E-02 0. -1.
    8880023    1    1    2    0    0 -0.72393179102E+02  0.92355009771E+02 -0.13372190111E+04  0.14952374761E+04  0.65864270000E+03 0. -1.
    8880022    1    1    2    0    0  0.72393179102E+02 -0.92355009771E+02 -0.44740164930E+02  0.19789784128E+03  0.15294330000E+03 0.  0.
<mgrwt>
<rscale>  0 0.49016112E+03</rscale>
<asrwt>0</asrwt>
<pdfrwt beam="1">  1        2 0.23654572E+00 0.66901452E+03</pdfrwt>
<pdfrwt beam="2">  1       -2 0.23936627E-01 0.66901452E+03</pdfrwt>
<totfact> 0.19161674E+02</totfact>
</mgrwt>
</event>
<event>
 4    1  0.2089815E-007  0.8917480E+03  0.7818608E-02  0.9539411E-01
         -2   -1    0    0    0  501 -0.00000000000E+00  0.00000000000E+00  0.72882457375E+03  0.72882457376E+03  0.25500000000E-02 0.  1.
          2   -1    0    0  501    0  0.00000000000E+00 -0.00000000000E+00 -0.13694187864E+04  0.13694187864E+04  0.25500000000E-02 0. -1.
    8880023    1    1    2    0    0  0.57714373524E+03  0.16825401208E+03 -0.10326637483E+04  0.13644079035E+04  0.65864270000E+03 0.  0.
    8880022    1    1    2    0    0 -0.57714373524E+03 -0.16825401208E+03  0.39206953566E+03  0.73383545670E+03  0.15294330000E+03 0.  0.
<mgrwt>
<rscale>  0 0.81439561E+03</rscale>
<asrwt>0</asrwt>
<pdfrwt beam="1">  1        2 0.21067981E+00 0.89174801E+03</pdfrwt>
<pdfrwt beam="2">  1       -2 0.11212686E+00 0.89174801E+03</pdfrwt>
<totfact> 0.94981831E+00</totfact>
</mgrwt>
</event>
<event>
 4    1  0.2089815E-007  0.2170888E+04  0.7818608E-02  0.8541116E-01
          2   -1    0    0  501    0  0.00000000000E+00  0.00000000000E+00  0.32536291580E+04  0.32536291580E+04  0.25500000000E-02 0. -1.
         -2   -1    0    0    0  501 -0.00000000000E+00 -0.00000000000E+00 -0.21691835605E+04  0.21691835605E+04  0.25500000000E-02 0.  1.
    8880023    1    1    2    0    0  0.19244727057E+04 -0.75851855897E+03  0.21804305534E+04  0.30768544333E+04  0.65864270000E+03 0. -1.
    8880022    1    1    2    0    0 -0.19244727057E+04  0.75851855897E+03 -0.10959849559E+04  0.23459582852E+04  0.15294330000E+03 0.  0.
<mgrwt>
<rscale>  0 0.21463036E+04</rscale>
<asrwt>0</asrwt>
<pdfrwt beam="1">  1        2 0.50055833E+00 0.21708883E+04</pdfrwt>
<pdfrwt beam="2">  1       -2 0.33372055E+00 0.21708883E+04</pdfrwt>
<totfact> 0.20381377E-02</totfact>
</mgrwt>
</event>
<event>
 4    1  0.2089815E-007  0.6640455E+03  0.7818608E-02  0.1020348E+00
          2   -1    0    0  501    0  0.00000000000E+00  0.00000000000E+00  0.16035446488E+04  0.16035446489E+04  0.25500000000E-02 0. -1.
         -2   -1    0    0    0  501 -0.00000000000E+00 -0.00000000000E+00 -0.32337595190E+03  0.32337595191E+03  0.25500000000E-02 0.  1.
    8880023    1    1    2    0    0 -0.83364660419E+02 -0.14018895925E+02  0.15033420858E+04  0.16434700573E+04  0.65864270000E+03 0. -1.
    8880022    1    1    2    0    0  0.83364660419E+02  0.14018895925E+02 -0.22317338888E+03  0.28345054343E+03  0.15294330000E+03 0.  0.
<mgrwt>
<rscale>  0 0.47561241E+03</rscale>
<asrwt>0</asrwt>
<pdfrwt beam="1">  1        2 0.24669918E+00 0.66404548E+03</pdfrwt>
<pdfrwt beam="2">  1       -2 0.49750146E-01 0.66404548E+03</pdfrwt>
<totfact> 0.43895158E+01</totfact>
</mgrwt>
</event>
<event>
 4    1  0.2089815E-007  0.6651354E+03  0.7818608E-02  0.1019420E+00
          2   -1    0    0  501    0  0.00000000000E+00  0.00000000000E+00  0.11027337077E+04  0.11027337077E+04  0.25500000000E-02 0. -1.
         -2   -1    0    0    0  501 -0.00000000000E+00 -0.00000000000E+00 -0.28670228564E+03  0.28670228565E+03  0.25500000000E-02 0.  1.
    8880023    1    1    2    0    0  0.13518779531E+02 -0.91717569060E+02  0.95440260965E+03  0.11633096825E+04  0.65864270000E+03 0. -1.
    8880022    1    1    2    0    0 -0.13518779531E+02  0.91717569060E+02 -0.13837118760E+03  0.22612631082E+03  0.15294330000E+03 0.  0.
<mgrwt>
<rscale>  0 0.47896460E+03</rscale>
<asrwt>0</asrwt>
<pdfrwt beam="1">  1        2 0.16965134E+00 0.66513538E+03</pdfrwt>
<pdfrwt beam="2">  1       -2 0.44108045E-01 0.66513538E+03</pdfrwt>
<totfact> 0.10799485E+02</totfact>
</mgrwt>
</event>
<event>
 4    1  0.2089815E-007  0.7407068E+03  0.7818608E-02  0.9857893E-01
          2   -1    0    0  501    0  0.00000000000E+00  0.00000000000E+00  0.71400589257E+03  0.71400589258E+03  0.25500000000E-02 0. -1.
         -2   -1    0    0    0  501 -0.00000000000E+00 -0.00000000000E+00 -0.64779050651E+03  0.64779050652E+03  0.25500000000E-02 0.  1.
    8880023    1    1    2    0    0  0.91535517802E+02 -0.32627832215E+03  0.41752841022E+03  0.85028023270E+03  0.65864270000E+03 0. -1.
    8880022    1    1    2    0    0 -0.91535517802E+02  0.32627832215E+03 -0.35131302415E+03  0.51151616639E+03  0.15294330000E+03 0.  0.
<mgrwt>
<rscale>  0 0.62346089E+03</rscale>
<asrwt>0</asrwt>
<pdfrwt beam="1">  1        2 0.10984706E+00 0.74070676E+03</pdfrwt>
<pdfrwt beam="2">  1       -2 0.99660078E-01 0.74070676E+03</pdfrwt>
<totfact> 0.33740380E+01</totfact>
</mgrwt>
</event>
<event>
 4    1  0.2089815E-007  0.7017935E+03  0.7818608E-02  0.9989841E-01
         -2   -1    0    0    0  501 -0.00000000000E+00  0.00000000000E+00  0.32702826466E+03  0.32702826467E+03  0.25500000000E-02 0.  1.
          2   -1    0    0  501    0  0.00000000000E+00 -0.00000000000E+00 -0.81532374838E+03  0.81532374838E+03  0.25500000000E-02 0. -1.
    8880023    1    1    2    0    0 -0.24042764633E+03 -0.29973775041E+02 -0.48981830948E+03  0.85582478515E+03  0.65864270000E+03 0.  0.
    8880022    1    1    2    0    0  0.24042764633E+03  0.29973775041E+02  0.15228257619E+01  0.28652722790E+03  0.15294330000E+03 0.  0.
<mgrwt>
<rscale>  0 0.56097943E+03</rscale>
<asrwt>0</asrwt>
<pdfrwt beam="1">  1        2 0.12543442E+00 0.70179348E+03</pdfrwt>
<pdfrwt beam="2">  1       -2 0.50312041E-01 0.70179348E+03</pdfrwt>
<totfact> 0.12732492E+02</totfact>
</mgrwt>
</event>
<event>
 4    1  0.2089815E-007  0.6661490E+03  0.7818608E-02  0.1018588E+00
          2   -1    0    0  501    0  0.00000000000E+00  0.00000000000E+00  0.75901962762E+03  0.75901962763E+03  0.25500000000E-02 0. -1.
         -2   -1    0    0    0  501 -0.00000000000E+00 -0.00000000000E+00 -0.33198513280E+03  0.33198513281E+03  0.25500000000E-02 0.  1.
    8880023    1    1    2    0    0  0.96093688372E+02  0.26652311714E+02  0.55581653436E+03  0.86757510845E+03  0.65864270000E+03 0. -1.
    8880022    1    1    2    0    0 -0.96093688372E+02 -0.26652311714E+02 -0.12878203954E+03  0.22342965199E+03  0.15294330000E+03 0.  0.
<mgrwt>
<rscale>  0 0.48199522E+03</rscale>
<asrwt>0</asrwt>
<pdfrwt beam="1">  1        2 0.11677225E+00 0.66614904E+03</pdfrwt>
<pdfrwt beam="2">  1       -2 0.51074636E-01 0.66614904E+03</pdfrwt>
<totfact> 0.13595866E+02</totfact>
</mgrwt>
</event>
<event>
 4    1  0.2089815E-007  0.9515815E+03  0.7818608E-02  0.9447842E-01
         -2   -1    0    0    0  501 -0.00000000000E+00  0.00000000000E+00  0.14193349782E+04  0.14193349782E+04  0.25500000000E-02 0.  1.
          2   -1    0    0  501    0  0.00000000000E+00 -0.00000000000E+00 -0.12478346376E+04  0.12478346376E+04  0.25500000000E-02 0. -1.
    8880023    1    1    2    0    0  0.68259610414E+03  0.75892254162E+02 -0.94909545041E+03  0.13439826844E+04  0.65864270000E+03 0. -1.
    8880022    1    1    2    0    0 -0.68259610414E+03 -0.75892254162E+02  0.11205957910E+04  0.13231869314E+04  0.15294330000E+03 0.  0.
<mgrwt>
<rscale>  0 0.88240886E+03</rscale>
<asrwt>0</asrwt>
<pdfrwt beam="1">  1        2 0.19197456E+00 0.95158146E+03</pdfrwt>
<pdfrwt beam="2">  1       -2 0.21835923E+00 0.95158146E+03</pdfrwt>
<totfact> 0.17959425E+00</totfact>
</mgrwt>
</event>
<event>
 4    1  0.2089815E-007  0.7112228E+03  0.7818608E-02  0.9953488E-01
          2   -1    0    0  501    0  0.00000000000E+00  0.00000000000E+00  0.28139372994E+03  0.28139372995E+03  0.25500000000E-02 0. -1.
         -2   -1    0    0    0  501 -0.00000000000E+00 -0.00000000000E+00 -0.25668064047E+04  0.25668064047E+04  0.25500000000E-02 0.  1.
    8880023    1    1    2    0    0 -0.26618337146E+03  0.34265551788E+02 -0.19829715523E+03  0.73834929628E+03  0.65864270000E+03 0. -1.
    8880022    1    1    2    0    0  0.26618337146E+03 -0.34265551788E+02 -0.20871155195E+04  0.21098508383E+04  0.15294330000E+03 0.  1.
<mgrwt>
<rscale>  0 0.57737614E+03</rscale>
<asrwt>0</asrwt>
<pdfrwt beam="1">  1        2 0.43291345E-01 0.71122284E+03</pdfrwt>
<pdfrwt beam="2">  1       -2 0.39489328E+00 0.71122284E+03</pdfrwt>
<totfact> 0.10094355E+00</totfact>
</mgrwt>
</event>
<event>
 4    1  0.2089815E-007  0.7708084E+03  0.7818608E-02  0.9777889E-01
         -2   -1    0    0    0  501 -0.00000000000E+00  0.00000000000E+00  0.84149463550E+02  0.84149463588E+02  0.25500000000E-02 0.  1.
          2   -1    0    0  501    0  0.00000000000E+00 -0.00000000000E+00 -0.43477623913E+04  0.43477623913E+04  0.25500000000E-02 0. -1.
    8880023    1    1    2    0    0 -0.36868679156E+03 -0.15622255471E+03 -0.24530569444E+04  0.25713097860E+04  0.65864270000E+03 0.  0.
    8880022    1    1    2    0    0  0.36868679156E+03  0.15622255471E+03 -0.18105559833E+04  0.18606020688E+04  0.15294330000E+03 0.  1.
<mgrwt>
<rscale>  0 0.66562786E+03</rscale>
<asrwt>0</asrwt>
<pdfrwt beam="1">  1        2 0.66888635E+00 0.77080843E+03</pdfrwt>
<pdfrwt beam="2">  1       -2 0.12946075E-01 0.77080843E+03</pdfrwt>
<totfact> 0.85983680E+00</totfact>
</mgrwt>
</event>
<event>
 4    1  0.2089815E-007  0.6934668E+03  0.7818608E-02  0.1002547E+00
         -2   -1    0    0    0  501 -0.00000000000E+00  0.00000000000E+00  0.29581141939E+03  0.29581141940E+03  0.25500000000E-02 0.  1.
          2   -1    0    0  501    0  0.00000000000E+00 -0.00000000000E+00 -0.15010526582E+04  0.15010526582E+04  0.25500000000E-02 0. -1.
    8880023    1    1    2    0    0  0.21588052000E+03  0.21944204870E+02 -0.13327372284E+04  0.15023597017E+04  0.65864270000E+03 0. -1.
    8880022    1    1    2    0    0 -0.21588052000E+03 -0.21944204870E+02  0.12749598960E+03  0.29450437590E+03  0.15294330000E+03 0.  0.
<mgrwt>
<rscale>  0 0.54547597E+03</rscale>
<asrwt>0</asrwt>
<pdfrwt beam="1">  1        2 0.23093117E+00 0.69346676E+03</pdfrwt>
<pdfrwt beam="2">  1       -2 0.45509450E-01 0.69346676E+03</pdfrwt>
<totfact> 0.59614076E+01</totfact>
</mgrwt>
</event>
<event>
 4    1  0.3274081E-007  0.1629497E+04  0.7818608E-02  0.8823223E-01
         -2   -1    0    0    0  501 -0.00000000000E+00  0.00000000000E+00  0.21989674934E+04  0.21989674934E+04  0.25500000000E-02 0.  1.
          2   -1    0    0  501    0  0.00000000000E+00 -0.00000000000E+00 -0.22531446545E+04  0.22531446545E+04  0.25500000000E-02 0. -1.
    8880023    1    1    2    0    0  0.21229703641E+03 -0.14752558642E+04 -0.16110121544E+04  0.22914231962E+04  0.65864270000E+03 0. -1.
    8880022    1    1    2    0    0 -0.21229703641E+03  0.14752558642E+04  0.15568349934E+04  0.21606889517E+04  0.15294330000E+03 0.  0.
<mgrwt>
<rscale>  0 0.15956527E+04</rscale>
<asrwt>0</asrwt>
<pdfrwt beam="1">  1        2 0.34663764E+00 0.16294969E+04</pdfrwt>
<pdfrwt beam="2">  1       -2 0.33830269E+00 0.16294969E+04</pdfrwt>
<totfact> 0.81996014E-02</totfact>
</mgrwt>
</event>
<event>
 4    1  0.2089815E-007  0.8258293E+03  0.7818608E-02  0.9657502E-01
         -2   -1    0    0    0  501 -0.00000000000E+00  0.00000000000E+00  0.55119594933E+03  0.55119594933E+03  0.25500000000E-02 0.  1.
          2   -1    0    0  501    0  0.00000000000E+00 -0.00000000000E+00 -0.26063026414E+04  0.26063026414E+04  0.25500000000E-02 0. -1.
    8880023    1    1    2    0    0  0.20766576542E+03  0.45283412513E+03 -0.23963010159E+04  0.25346109327E+04  0.65864270000E+03 0. -1.
    8880022    1    1    2    0    0 -0.20766576542E+03 -0.45283412513E+03  0.34119432378E+03  0.62288765809E+03  0.15294330000E+03 0.  0.
<mgrwt>
<rscale>  0 0.73604443E+03</rscale>
<asrwt>0</asrwt>
<pdfrwt beam="1">  1        2 0.40096963E+00 0.82582929E+03</pdfrwt>
<pdfrwt beam="2">  1       -2 0.84799378E-01 0.82582929E+03</pdfrwt>
<totfact> 0.37988918E+00</totfact>
</mgrwt>
</event>
<event>
 4    1  0.2089815E-007  0.1879492E+04  0.7818608E-02  0.8679793E-01
          2   -1    0    0  501    0  0.00000000000E+00  0.00000000000E+00  0.20179144544E+04  0.20179144544E+04  0.25500000000E-02 0. -1.
         -2   -1    0    0    0  501 -0.00000000000E+00 -0.00000000000E+00 -0.29289278029E+04  0.29289278029E+04  0.25500000000E-02 0.  1.
    8880023    1    1    2    0    0 -0.16850720066E+04  0.50913044999E+03  0.11723015964E+04  0.22151258929E+04  0.65864270000E+03 0.  0.
    8880022    1    1    2    0    0  0.16850720066E+04 -0.50913044999E+03 -0.20833149449E+04  0.27317163643E+04  0.15294330000E+03 0.  0.
<mgrwt>
<rscale>  0 0.18506991E+04</rscale>
<asrwt>0</asrwt>
<pdfrwt beam="1">  1        2 0.31044838E+00 0.18794924E+04</pdfrwt>
<pdfrwt beam="2">  1       -2 0.45060428E+00 0.18794924E+04</pdfrwt>
<totfact> 0.20071436E-02</totfact>
</mgrwt>
</event>
<event>
 4    1  0.2089815E-007  0.1009640E+04  0.7818608E-02  0.9369053E-01
          2   -1    0    0  501    0  0.00000000000E+00  0.00000000000E+00  0.17495462655E+04  0.17495462655E+04  0.25500000000E-02 0. -1.
         -2   -1    0    0    0  501 -0.00000000000E+00 -0.00000000000E+00 -0.77305918159E+03  0.77305918159E+03  0.25500000000E-02 0.  1.
    8880023    1    1    2    0    0 -0.46875019511E+03  0.60484347715E+03  0.13267684825E+04  0.16672393918E+04  0.65864270000E+03 0.  0.
    8880022    1    1    2    0    0  0.46875019511E+03 -0.60484347715E+03 -0.35028139859E+03  0.85536605525E+03  0.15294330000E+03 0.  0.
<mgrwt>
<rscale>  0 0.94666848E+03</rscale>
<asrwt>0</asrwt>
<pdfrwt beam="1">  1        2 0.26916096E+00 0.10096398E+04</pdfrwt>
<pdfrwt beam="2">  1       -2 0.11893218E+00 0.10096398E+04</pdfrwt>
<totfact> 0.49724316E+00</totfact>
</mgrwt>
</event>
<event>
 4    1  0.2089815E-007  0.7034462E+03  0.7818608E-02  0.9983194E-01
         -2   -1    0    0    0  501 -0.00000000000E+00  0.00000000000E+00  0.22244453169E+03  0.22244453170E+03  0.25500000000E-02 0.  1.
          2   -1    0    0  501    0  0.00000000000E+00 -0.00000000000E+00 -0.24314653367E+04  0.24314653367E+04  0.25500000000E-02 0. -1.
    8880023    1    1    2    0    0  0.21973048406E+03 -0.11289321863E+03 -0.22528084640E+04  0.23600810465E+04  0.65864270000E+03 0.  0.
    8880022    1    1    2    0    0 -0.21973048406E+03  0.11289321863E+03  0.43787659036E+02  0.29382882183E+03  0.15294330000E+03 0.  1.
<mgrwt>
<rscale>  0 0.56393307E+03</rscale>
<asrwt>0</asrwt>
<pdfrwt beam="1">  1        2 0.37407157E+00 0.70344621E+03</pdfrwt>
<pdfrwt beam="2">  1       -2 0.34222237E-01 0.70344621E+03</pdfrwt>
<totfact> 0.31976394E+01</totfact>
</mgrwt>
</event>
<event>
 4    1  0.2089815E-007  0.7416647E+03  0.7818608E-02  0.9855124E-01
          2   -1    0    0  501    0  0.00000000000E+00  0.00000000000E+00  0.13574733004E+04  0.13574733004E+04  0.25500000000E-02 0. -1.
         -2   -1    0    0    0  501 -0.00000000000E+00 -0.00000000000E+00 -0.11622818006E+04  0.11622818006E+04  0.25500000000E-02 0.  1.
    8880023    1    1    2    0    0 -0.26696225942E+03 -0.21210246366E+03  0.12206632630E+04  0.14283155502E+04  0.65864270000E+03 0. -1.
    8880022    1    1    2    0    0  0.26696225942E+03  0.21210246366E+03 -0.10254717631E+04  0.10914395508E+04  0.15294330000E+03 0.  0.
<mgrwt>
<rscale>  0 0.62486331E+03</rscale>
<asrwt>0</asrwt>
<pdfrwt beam="1">  1        2 0.20884205E+00 0.74166469E+03</pdfrwt>
<pdfrwt beam="2">  1       -2 0.17881258E+00 0.74166469E+03</pdfrwt>
<totfact> 0.29085406E+00</totfact>
</mgrwt>
</event>
<event>
 4    1  0.2089815E-007  0.7434841E+03  0.7818608E-02  0.9849912E-01
          2   -1    0    0  501    0  0.00000000000E+00  0.00000000000E+00  0.24906407322E+04  0.24906407322E+04  0.25500000000E-02 0. -1.
         -2   -1    0    0    0  501 -0.00000000000E+00 -0.00000000000E+00 -0.79441380209E+03  0.79441380210E+03  0.25500000000E-02 0.  1.
    8880023    1    1    2    0    0 -0.12122085977E+03 -0.32289928496E+03  0.23858279858E+04  0.24989885612E+04  0.65864270000E+03 0. -1.
    8880022    1    1    2    0    0  0.12122085977E+03  0.32289928496E+03 -0.68960105566E+03  0.78606597309E+03  0.15294330000E+03 0.  0.
<mgrwt>
<rscale>  0 0.62751411E+03</rscale>
<asrwt>0</asrwt>
<pdfrwt beam="1">  1        2 0.38317550E+00 0.74348413E+03</pdfrwt>
<pdfrwt beam="2">  1       -2 0.12221751E+00 0.74348413E+03</pdfrwt>
<totfact> 0.18811340E+00</totfact>
</mgrwt>
</event>
<event>
 4    1  0.2089815E-007  0.8875787E+03  0.7818608E-02  0.9546273E-01
          2   -1    0    0  501    0  0.00000000000E+00  0.00000000000E+00  0.23716578988E+04  0.23716578988E+04  0.25500000000E-02 0. -1.
         -2   -1    0    0    0  501 -0.00000000000E+00 -0.00000000000E+00 -0.39313159129E+03  0.39313159130E+03  0.25500000000E-02 0.  1.
    8880023    1    1    2    0    0  0.78434173632E+02  0.58977434254E+03  0.19584042549E+04  0.21501495591E+04  0.65864270000E+03 0.  0.
    8880022    1    1    2    0    0 -0.78434173632E+02 -0.58977434254E+03  0.20122052597E+02  0.61463993096E+03  0.15294330000E+03 0.  0.
<mgrwt>
<rscale>  0 0.80956574E+03</rscale>
<asrwt>0</asrwt>
<pdfrwt beam="1">  1        2 0.36487045E+00 0.88757867E+03</pdfrwt>
<pdfrwt beam="2">  1       -2 0.60481783E-01 0.88757867E+03</pdfrwt>
<totfact> 0.10758890E+01</totfact>
</mgrwt>
</event>
<event>
 4    1  0.2089815E-007  0.7626101E+03  0.7818608E-02  0.9798397E-01
         -2   -1    0    0    0  501 -0.00000000000E+00  0.00000000000E+00  0.41415597959E+03  0.41415597960E+03  0.25500000000E-02 0.  1.
          2   -1    0    0  501    0  0.00000000000E+00 -0.00000000000E+00 -0.97991666760E+03  0.97991666760E+03  0.25500000000E-02 0. -1.
    8880023    1    1    2    0    0 -0.23847166737E+03  0.30148823242E+03 -0.61196503284E+03  0.97779102988E+03  0.65864270000E+03 0. -1.
    8880022    1    1    2    0    0  0.23847166737E+03 -0.30148823242E+03  0.46204344835E+02  0.41628161732E+03  0.15294330000E+03 0.  0.
<mgrwt>
<rscale>  0 0.65448661E+03</rscale>
<asrwt>0</asrwt>
<pdfrwt beam="1">  1        2 0.15075641E+00 0.76261006E+03</pdfrwt>
<pdfrwt beam="2">  1       -2 0.63716305E-01 0.76261006E+03</pdfrwt>
<totfact> 0.59959903E+01</totfact>
</mgrwt>
</event>
<event>
 4    1  0.2089815E-007  0.6832564E+03  0.7818608E-02  0.1007539E+00
          2   -1    0    0  501    0  0.00000000000E+00  0.00000000000E+00  0.28526991982E+04  0.28526991982E+04  0.25500000000E-02 0. -1.
         -2   -1    0    0    0  501 -0.00000000000E+00 -0.00000000000E+00 -0.20470366324E+03  0.20470366325E+03  0.25500000000E-02 0.  1.
    8880023    1    1    2    0    0 -0.17174653354E+03  0.59432357468E+02  0.27237062731E+04  0.28080981367E+04  0.65864270000E+03 0. -1.
    8880022    1    1    2    0    0  0.17174653354E+03 -0.59432357468E+02 -0.75710738149E+02  0.24930472475E+03  0.15294330000E+03 0.  0.
<mgrwt>
<rscale>  0 0.52464750E+03</rscale>
<asrwt>0</asrwt>
<pdfrwt beam="1">  1        2 0.43887680E+00 0.68325638E+03</pdfrwt>
<pdfrwt beam="2">  1       -2 0.31492871E-01 0.68325638E+03</pdfrwt>
<totfact> 0.21442773E+01</totfact>
</mgrwt>
</event>
<event>
 4    1  0.2089815E-007  0.6915804E+03  0.7818608E-02  0.1003410E+00
          2   -1    0    0  501    0  0.00000000000E+00  0.00000000000E+00  0.18078909758E+04  0.18078909758E+04  0.25500000000E-02 0. -1.
         -2   -1    0    0    0  501 -0.00000000000E+00 -0.00000000000E+00 -0.97417013940E+03  0.97417013940E+03  0.25500000000E-02 0.  1.
    8880023    1    1    2    0    0  0.18068245733E+03  0.10875269661E+03  0.17223625775E+04  0.18560216470E+04  0.65864270000E+03 0. -1.
    8880022    1    1    2    0    0 -0.18068245733E+03 -0.10875269661E+03 -0.88864174118E+03  0.92603946815E+03  0.15294330000E+03 0.  0.
<mgrwt>
<rscale>  0 0.54179840E+03</rscale>
<asrwt>0</asrwt>
<pdfrwt beam="1">  1        2 0.27813707E+00 0.69158044E+03</pdfrwt>
<pdfrwt beam="2">  1       -2 0.14987233E+00 0.69158044E+03</pdfrwt>
<totfact> 0.26787326E+00</totfact>
</mgrwt>
</event>
<event>
 4    1  0.2089815E-007  0.6727459E+03  0.7818608E-02  0.1013766E+00
          2   -1    0    0  501    0  0.00000000000E+00  0.00000000000E+00  0.93484129443E+03  0.93484129443E+03  0.25500000000E-02 0. -1.
         -2   -1    0    0    0  501 -0.00000000000E+00 -0.00000000000E+00 -0.45651229052E+03  0.45651229053E+03  0.25500000000E-02 0.  1.
    8880023    1    1    2    0    0  0.13590855964E+03  0.17482919213E+02  0.77771330382E+03  0.10283117126E+04  0.65864270000E+03 0. -1.
    8880022    1    1    2    0    0 -0.13590855964E+03 -0.17482919213E+02 -0.29938429991E+03  0.36304187237E+03  0.15294330000E+03 0.  0.
<mgrwt>
<rscale>  0 0.50004803E+03</rscale>
<asrwt>0</asrwt>
<pdfrwt beam="1">  1        2 0.14382174E+00 0.67274586E+03</pdfrwt>
<pdfrwt beam="2">  1       -2 0.70232660E-01 0.67274586E+03</pdfrwt>
<totfact> 0.52389106E+01</totfact>
</mgrwt>
</event>
<event>
 4    1  0.2089815E-007  0.9328754E+03  0.7818608E-02  0.9475193E-01
          2   -1    0    0  501    0  0.00000000000E+00  0.00000000000E+00  0.14327792777E+04  0.14327792777E+04  0.25500000000E-02 0. -1.
         -2   -1    0    0    0  501 -0.00000000000E+00 -0.00000000000E+00 -0.63220524859E+03  0.63220524860E+03  0.25500000000E-02 0.  1.
    8880023    1    1    2    0    0 -0.34824191344E+03  0.56140352231E+03  0.99063408409E+03  0.13607396665E+04  0.65864270000E+03 0.  0.
    8880022    1    1    2    0    0  0.34824191344E+03 -0.56140352231E+03 -0.19006005494E+03  0.70424485985E+03  0.15294330000E+03 0.  0.
<mgrwt>
<rscale>  0 0.86137715E+03</rscale>
<asrwt>0</asrwt>
<pdfrwt beam="1">  1        2 0.22042758E+00 0.93287542E+03</pdfrwt>
<pdfrwt beam="2">  1       -2 0.97262345E-01 0.93287542E+03</pdfrwt>
<totfact> 0.12247251E+01</totfact>
</mgrwt>
</event>
<event>
 4    1  0.2089815E-007  0.1125033E+04  0.7818608E-02  0.9233684E-01
          2   -1    0    0  501    0  0.00000000000E+00  0.00000000000E+00  0.17825685419E+04  0.17825685419E+04  0.25500000000E-02 0. -1.
         -2   -1    0    0    0  501 -0.00000000000E+00 -0.00000000000E+00 -0.10477645669E+04  0.10477645669E+04  0.25500000000E-02 0.  1.
    8880023    1    1    2    0    0  0.91023049320E+03  0.58046107437E+02  0.13211841935E+04  0.17352886736E+04  0.65864270000E+03 0. -1.
    8880022    1    1    2    0    0 -0.91023049320E+03 -0.58046107437E+02 -0.58638021846E+03  0.10950444351E+04  0.15294330000E+03 0.  0.
<mgrwt>
<rscale>  0 0.10712418E+04</rscale>
<asrwt>0</asrwt>
<pdfrwt beam="1">  1        2 0.27424131E+00 0.11250329E+04</pdfrwt>
<pdfrwt beam="2">  1       -2 0.16119455E+00 0.11250329E+04</pdfrwt>
<totfact> 0.21338499E+00</totfact>
</mgrwt>
</event>
<event>
 4    1  0.2089815E-007  0.1209359E+04  0.7818608E-02  0.9148078E-01
         -2   -1    0    0    0  501 -0.00000000000E+00  0.00000000000E+00  0.16273365296E+04  0.16273365296E+04  0.25500000000E-02 0.  1.
          2   -1    0    0  501    0  0.00000000000E+00 -0.00000000000E+00 -0.15933319947E+04  0.15933319947E+04  0.25500000000E-02 0. -1.
    8880023    1    1    2    0    0 -0.29554580448E+03 -0.97025380195E+03 -0.11398033251E+04  0.16618368118E+04  0.65864270000E+03 0.  0.
    8880022    1    1    2    0    0  0.29554580448E+03  0.97025380195E+03  0.11738078600E+04  0.15588317125E+04  0.15294330000E+03 0.  0.
<mgrwt>
<rscale>  0 0.11605805E+04</rscale>
<asrwt>0</asrwt>
<pdfrwt beam="1">  1        2 0.24512800E+00 0.12093593E+04</pdfrwt>
<pdfrwt beam="2">  1       -2 0.25035947E+00 0.12093593E+04</pdfrwt>
<totfact> 0.69797271E-01</totfact>
</mgrwt>
</event>
<event>
 4    1  0.2089815E-007  0.8617109E+03  0.7818608E-02  0.9590527E-01
         -2   -1    0    0    0  501 -0.00000000000E+00  0.00000000000E+00  0.57185580768E+03  0.57185580769E+03  0.25500000000E-02 0.  1.
          2   -1    0    0  501    0  0.00000000000E+00 -0.00000000000E+00 -0.20606633292E+04  0.20606633292E+04  0.25500000000E-02 0. -1.
    8880023    1    1    2    0    0 -0.43766848859E+03  0.34231821716E+03 -0.17867975830E+04  0.19837316543E+04  0.65864270000E+03 0.  0.
    8880022    1    1    2    0    0  0.43766848859E+03 -0.34231821716E+03  0.29799006148E+03  0.64878748251E+03  0.15294330000E+03 0.  1.
<mgrwt>
<rscale>  0 0.77926332E+03</rscale>
<asrwt>0</asrwt>
<pdfrwt beam="1">  1        2 0.31702512E+00 0.86171090E+03</pdfrwt>
<pdfrwt beam="2">  1       -2 0.87977817E-01 0.86171090E+03</pdfrwt>
<totfact> 0.70216718E+00</totfact>
</mgrwt>
</event>
<event>
 4    1  0.2089815E-007  0.8383116E+03  0.7818608E-02  0.9633372E-01
          2   -1    0    0  501    0  0.00000000000E+00  0.00000000000E+00  0.41517306084E+03  0.41517306085E+03  0.25500000000E-02 0. -1.
         -2   -1    0    0    0  501 -0.00000000000E+00 -0.00000000000E+00 -0.27602049100E+04  0.27602049100E+04  0.25500000000E-02 0.  1.
    8880023    1    1    2    0    0  0.44854606018E+03  0.26031246302E+03 -0.74794484670E+02  0.84164159100E+03  0.65864270000E+03 0. -1.
    8880022    1    1    2    0    0 -0.44854606018E+03 -0.26031246302E+03 -0.22702373645E+04  0.23337363799E+04  0.15294330000E+03 0.  0.
<mgrwt>
<rscale>  0 0.75126229E+03</rscale>
<asrwt>0</asrwt>
<pdfrwt beam="1">  1        2 0.63872780E-01 0.83831161E+03</pdfrwt>
<pdfrwt beam="2">  1       -2 0.42464690E+00 0.83831161E+03</pdfrwt>
<totfact> 0.40839029E-01</totfact>
</mgrwt>
</event>
<event>
 4    1  0.2089815E-007  0.8824252E+03  0.7818608E-02  0.9554855E-01
          2   -1    0    0  501    0  0.00000000000E+00  0.00000000000E+00  0.88352284524E+03  0.88352284524E+03  0.25500000000E-02 0. -1.
         -2   -1    0    0    0  501 -0.00000000000E+00 -0.00000000000E+00 -0.90405283832E+03  0.90405283833E+03  0.25500000000E-02 0.  1.
    8880023    1    1    2    0    0 -0.81818071031E+02  0.58152365334E+03  0.47677909331E+03  0.10029917578E+04  0.65864270000E+03 0.  0.
    8880022    1    1    2    0    0  0.81818071031E+02 -0.58152365334E+03 -0.49730908640E+03  0.78458392577E+03  0.15294330000E+03 0.  0.
<mgrwt>
<rscale>  0 0.80357623E+03</rscale>
<asrwt>0</asrwt>
<pdfrwt beam="1">  1        2 0.13592659E+00 0.88242516E+03</pdfrwt>
<pdfrwt beam="2">  1       -2 0.13908505E+00 0.88242516E+03</pdfrwt>
<totfact> 0.11019305E+01</totfact>
</mgrwt>
</event>
<event>
 4    1  0.2089815E-007  0.1009874E+04  0.7818608E-02  0.9368752E-01
          2   -1    0    0  501    0  0.00000000000E+00  0.00000000000E+00  0.77842557547E+03  0.77842557548E+03  0.25500000000E-02 0. -1.
         -2   -1    0    0    0  501 -0.00000000000E+00 -0.00000000000E+00 -0.12585084632E+04  0.12585084632E+04  0.25500000000E-02 0.  1.
    8880023    1    1    2    0    0  0.23408841370E+03 -0.72886063288E+03  0.16621460687E+03  0.10234611421E+04  0.65864270000E+03 0.  0.
    8880022    1    1    2    0    0 -0.23408841370E+03  0.72886063288E+03 -0.64629749463E+03  0.10134728966E+04  0.15294330000E+03 0.  0.
<mgrwt>
<rscale>  0 0.94692499E+03</rscale>
<asrwt>0</asrwt>
<pdfrwt beam="1">  1        2 0.11975778E+00 0.10098740E+04</pdfrwt>
<pdfrwt beam="2">  1       -2 0.19361669E+00 0.10098740E+04</pdfrwt>
<totfact> 0.51926177E+00</totfact>
</mgrwt>
</event>
<event>
 4    1  0.2089815E-007  0.9290507E+03  0.7818608E-02  0.9480919E-01
          2   -1    0    0  501    0  0.00000000000E+00  0.00000000000E+00  0.12662641767E+04  0.12662641767E+04  0.25500000000E-02 0. -1.
         -2   -1    0    0    0  501 -0.00000000000E+00 -0.00000000000E+00 -0.11204146758E+04  0.11204146758E+04  0.25500000000E-02 0.  1.
    8880023    1    1    2    0    0 -0.27190903359E+03 -0.59614631703E+03  0.95633039025E+03  0.13333052822E+04  0.65864270000E+03 0. -1.
    8880022    1    1    2    0    0  0.27190903359E+03  0.59614631703E+03 -0.81048088933E+03  0.10533735704E+04  0.15294330000E+03 0.  0.
<mgrwt>
<rscale>  0 0.85705335E+03</rscale>
<asrwt>0</asrwt>
<pdfrwt beam="1">  1        2 0.19480987E+00 0.92905068E+03</pdfrwt>
<pdfrwt beam="2">  1       -2 0.17237149E+00 0.92905068E+03</pdfrwt>
<totfact> 0.35466041E+00</totfact>
</mgrwt>
</event>
<event>
 4    1  0.2089815E-007  0.7376311E+03  0.7818608E-02  0.9866902E-01
          2   -1    0    0  501    0  0.00000000000E+00  0.00000000000E+00  0.22186207904E+04  0.22186207904E+04  0.25500000000E-02 0. -1.
         -2   -1    0    0    0  501 -0.00000000000E+00 -0.00000000000E+00 -0.44865262415E+03  0.44865262416E+03  0.25500000000E-02 0.  1.
    8880023    1    1    2    0    0  0.31101539268E+03  0.11644262739E+03  0.20679716471E+04  0.21955879394E+04  0.65864270000E+03 0. -1.
    8880022    1    1    2    0    0 -0.31101539268E+03 -0.11644262739E+03 -0.29800348082E+03  0.47168547524E+03  0.15294330000E+03 0.  0.
<mgrwt>
<rscale>  0 0.61892522E+03</rscale>
<asrwt>0</asrwt>
<pdfrwt beam="1">  1        2 0.34132628E+00 0.73763112E+03</pdfrwt>
<pdfrwt beam="2">  1       -2 0.69023480E-01 0.73763112E+03</pdfrwt>
<totfact> 0.10076675E+01</totfact>
</mgrwt>
</event>
<event>
 4    1  0.2089815E-007  0.1066313E+04  0.7818608E-02  0.9299524E-01
         -2   -1    0    0    0  501 -0.00000000000E+00  0.00000000000E+00  0.45158155212E+03  0.45158155213E+03  0.25500000000E-02 0.  1.
          2   -1    0    0  501    0  0.00000000000E+00 -0.00000000000E+00 -0.25103103644E+04  0.25103103644E+04  0.25500000000E-02 0. -1.
    8880023    1    1    2    0    0  0.27229592365E+02 -0.83813541245E+03 -0.17615830505E+04  0.20591739777E+04  0.65864270000E+03 0. -1.
    8880022    1    1    2    0    0 -0.27229592365E+02  0.83813541245E+03 -0.29714576172E+03  0.90271793880E+03  0.15294330000E+03 0.  0.
<mgrwt>
<rscale>  0 0.10082672E+04</rscale>
<asrwt>0</asrwt>
<pdfrwt beam="1">  1        2 0.38620159E+00 0.10663126E+04</pdfrwt>
<pdfrwt beam="2">  1       -2 0.69474086E-01 0.10663126E+04</pdfrwt>
<totfact> 0.65080076E+00</totfact>
</mgrwt>
</event>
<event>
 4    1  0.2089815E-007  0.8733842E+03  0.7818608E-02  0.9570185E-01
          2   -1    0    0  501    0  0.00000000000E+00  0.00000000000E+00  0.90322543365E+03  0.90322543365E+03  0.25500000000E-02 0. -1.
         -2   -1    0    0    0  501 -0.00000000000E+00 -0.00000000000E+00 -0.18209796756E+04  0.18209796756E+04  0.25500000000E-02 0.  1.
    8880023    1    1    2    0    0  0.43835393928E+03  0.36991303638E+03  0.62315776255E+03  0.10729052306E+04  0.65864270000E+03 0. -1.
    8880022    1    1    2    0    0 -0.43835393928E+03 -0.36991303638E+03 -0.15409120045E+04  0.16512998786E+04  0.15294330000E+03 0.  0.
<mgrwt>
<rscale>  0 0.79301363E+03</rscale>
<asrwt>0</asrwt>
<pdfrwt beam="1">  1        2 0.13895776E+00 0.87338424E+03</pdfrwt>
<pdfrwt beam="2">  1       -2 0.28015072E+00 0.87338424E+03</pdfrwt>
<totfact> 0.12495231E+00</totfact>
</mgrwt>
</event>
<event>
 4    1  0.2089815E-007  0.1357519E+04  0.7818608E-02  0.9017415E-01
         -2   -1    0    0    0  501 -0.00000000000E+00  0.00000000000E+00  0.46677686651E+03  0.46677686652E+03  0.25500000000E-02 0.  1.
          2   -1    0    0  501    0  0.00000000000E+00 -0.00000000000E+00 -0.35859223012E+04  0.35859223012E+04  0.25500000000E-02 0. -1.
    8880023    1    1    2    0    0  0.11677753713E+04 -0.21295364319E+03 -0.19779326971E+04  0.23989740583E+04  0.65864270000E+03 0.  0.
    8880022    1    1    2    0    0 -0.11677753713E+04  0.21295364319E+03 -0.11412127376E+04  0.16537251094E+04  0.15294330000E+03 0.  0.
<mgrwt>
<rscale>  0 0.13154341E+04</rscale>
<asrwt>0</asrwt>
<pdfrwt beam="1">  1        2 0.55168034E+00 0.13575193E+04</pdfrwt>
<pdfrwt beam="2">  1       -2 0.71811828E-01 0.13575193E+04</pdfrwt>
<totfact> 0.12246070E+00</totfact>
</mgrwt>
</event>
<event>
 4    1  0.2089815E-007  0.7084871E+03  0.7818608E-02  0.9963662E-01
          2   -1    0    0  501    0  0.00000000000E+00  0.00000000000E+00  0.24173664161E+04  0.24173664161E+04  0.25500000000E-02 0. -1.
         -2   -1    0    0    0  501 -0.00000000000E+00 -0.00000000000E+00 -0.11974824413E+03  0.11974824416E+03  0.25500000000E-02 0.  1.
    8880023    1    1    2    0    0 -0.47089753200E+02 -0.25676130293E+03  0.19582051979E+04  0.20824316591E+04  0.65864270000E+03 0. -1.
    8880022    1    1    2    0    0  0.47089753200E+02  0.25676130293E+03  0.33941297403E+03  0.45468300110E+03  0.15294330000E+03 0.  0.
<mgrwt>
<rscale>  0 0.57272699E+03</rscale>
<asrwt>0</asrwt>
<pdfrwt beam="1">  1        2 0.37190253E+00 0.70848713E+03</pdfrwt>
<pdfrwt beam="2">  1       -2 0.18422807E-01 0.70848713E+03</pdfrwt>
<totfact> 0.99636551E+01</totfact>
</mgrwt>
</event>
<event>
 4    1  0.2089815E-007  0.1079245E+04  0.7818608E-02  0.9284523E-01
          2   -1    0    0  501    0  0.00000000000E+00  0.00000000000E+00  0.29810842536E+04  0.29810842536E+04  0.25500000000E-02 0. -1.
         -2   -1    0    0    0  501 -0.00000000000E+00 -0.00000000000E+00 -0.58206440032E+03  0.58206440033E+03  0.25500000000E-02 0.  1.
    8880023    1    1    2    0    0  0.29013658463E+03 -0.80422709779E+03  0.24662108626E+04  0.26920190727E+04  0.65864270000E+03 0. -1.
    8880022    1    1    2    0    0 -0.29013658463E+03  0.80422709779E+03 -0.67191009341E+02  0.87112958124E+03  0.15294330000E+03 0.  0.
<mgrwt>
<rscale>  0 0.10222025E+04</rscale>
<asrwt>0</asrwt>
<pdfrwt beam="1">  1        2 0.45862834E+00 0.10792454E+04</pdfrwt>
<pdfrwt beam="2">  1       -2 0.89548371E-01 0.10792454E+04</pdfrwt>
<totfact> 0.19283189E+00</totfact>
</mgrwt>
</event>
<event>
 4    1  0.2089815E-007  0.8903339E+03  0.7818608E-02  0.9541730E-01
         -2   -1    0    0    0  501 -0.00000000000E+00  0.00000000000E+00  0.60262152501E+03  0.60262152501E+03  0.25500000000E-02 0.  1.
          2   -1    0    0  501    0  0.00000000000E+00 -0.00000000000E+00 -0.10431878122E+04  0.10431878122E+04  0.25500000000E-02 0. -1.
    8880023    1    1    2    0    0 -0.47714499913E+03  0.36223864131E+03 -0.64790433085E+01  0.89035743818E+03  0.65864270000E+03 0.  0.
    8880022    1    1    2    0    0  0.47714499913E+03 -0.36223864131E+03 -0.43408724389E+03  0.75545189905E+03  0.15294330000E+03 0.  0.
<mgrwt>
<rscale>  0 0.81275898E+03</rscale>
<asrwt>0</asrwt>
<pdfrwt beam="1">  1        2 0.16049043E+00 0.89033386E+03</pdfrwt>
<pdfrwt beam="2">  1       -2 0.92711004E-01 0.89033386E+03</pdfrwt>
<totfact> 0.23405562E+01</totfact>
</mgrwt>
</event>
<event>
 4    1  0.2089815E-007  0.7901059E+03  0.7818608E-02  0.9732612E-01
         -2   -1    0    0    0  501 -0.00000000000E+00  0.00000000000E+00  0.95198672608E+03  0.95198672608E+03  0.25500000000E-02 0.  1.
          2   -1    0    0  501    0  0.00000000000E+00 -0.00000000000E+00 -0.27169629574E+04  0.27169629574E+04  0.25500000000E-02 0. -1.
    8880023    1    1    2    0    0  0.11627499536E+03  0.42063915638E+03 -0.25983761780E+04  0.27158472238E+04  0.65864270000E+03 0. -1.
    8880022    1    1    2    0    0 -0.11627499536E+03 -0.42063915638E+03  0.83339994670E+03  0.95310245965E+03  0.15294330000E+03 0.  0.
<mgrwt>
<rscale>  0 0.69107845E+03</rscale>
<asrwt>0</asrwt>
<pdfrwt beam="1">  1        2 0.41799430E+00 0.79010593E+03</pdfrwt>
<pdfrwt beam="2">  1       -2 0.14645950E+00 0.79010593E+03</pdfrwt>
<totfact> 0.86959656E-01</totfact>
</mgrwt>
</event>
<event>
 4    1  0.2089815E-007  0.1237587E+04  0.7818608E-02  0.9121424E-01
          2   -1    0    0  501    0  0.00000000000E+00  0.00000000000E+00  0.20285387114E+04  0.20285387114E+04  0.25500000000E-02 0. -1.
         -2   -1    0    0    0  501 -0.00000000000E+00 -0.00000000000E+00 -0.29089698567E+04  0.29089698567E+04  0.25500000000E-02 0.  1.
    8880023    1    1    2    0    0  0.55109778287E+03  0.89112443925E+03  0.17262087077E+04  0.21240099438E+04  0.65864270000E+03 0.  0.
    8880022    1    1    2    0    0 -0.55109778287E+03 -0.89112443925E+03 -0.26066398531E+04  0.28134986243E+04  0.15294330000E+03 0.  0.
<mgrwt>
<rscale>  0 0.11902614E+04</rscale>
<asrwt>0</asrwt>
<pdfrwt beam="1">  1        2 0.31208288E+00 0.12375871E+04</pdfrwt>
<pdfrwt beam="2">  1       -2 0.44753383E+00 0.12375871E+04</pdfrwt>
<totfact> 0.22693307E-02</totfact>
</mgrwt>
</event>
<event>
 4    1  0.2089815E-007  0.9503906E+03  0.7818608E-02  0.9449552E-01
         -2   -1    0    0    0  501 -0.00000000000E+00  0.00000000000E+00  0.10012875596E+04  0.10012875597E+04  0.25500000000E-02 0.  1.
          2   -1    0    0  501    0  0.00000000000E+00 -0.00000000000E+00 -0.23245322256E+04  0.23245322256E+04  0.25500000000E-02 0. -1.
    8880023    1    1    2    0    0  0.67427933406E+03  0.12157112304E+03 -0.20841045651E+04  0.22905750812E+04  0.65864270000E+03 0. -1.
    8880022    1    1    2    0    0 -0.67427933406E+03 -0.12157112304E+03  0.76085989907E+03  0.10352447041E+04  0.15294330000E+03 0.  0.
<mgrwt>
<rscale>  0 0.88107539E+03</rscale>
<asrwt>0</asrwt>
<pdfrwt beam="1">  1        2 0.35762034E+00 0.95039064E+03</pdfrwt>
<pdfrwt beam="2">  1       -2 0.15404424E+00 0.95039064E+03</pdfrwt>
<totfact> 0.12380128E+00</totfact>
</mgrwt>
</event>
<event>
 4    1  0.2089815E-007  0.7066449E+03  0.7818608E-02  0.9970677E-01
          2   -1    0    0  501    0  0.00000000000E+00  0.00000000000E+00  0.15477362210E+04  0.15477362210E+04  0.25500000000E-02 0. -1.
         -2   -1    0    0    0  501 -0.00000000000E+00 -0.00000000000E+00 -0.54842364648E+03  0.54842364649E+03  0.25500000000E-02 0.  1.
    8880023    1    1    2    0    0 -0.25591225191E+03  0.67618304392E+01  0.14167178468E+04  0.15831729112E+04  0.65864270000E+03 0. -1.
    8880022    1    1    2    0    0  0.25591225191E+03 -0.67618304392E+01 -0.41740527226E+03  0.51298695632E+03  0.15294330000E+03 0.  0.
<mgrwt>
<rscale>  0 0.56954890E+03</rscale>
<asrwt>0</asrwt>
<pdfrwt beam="1">  1        2 0.23811327E+00 0.70664490E+03</pdfrwt>
<pdfrwt beam="2">  1       -2 0.84372868E-01 0.70664490E+03</pdfrwt>
<totfact> 0.15075223E+01</totfact>
</mgrwt>
</event>
<event>
 4    1  0.2089815E-007  0.1214088E+04  0.7818608E-02  0.9143548E-01
         -2   -1    0    0    0  501 -0.00000000000E+00  0.00000000000E+00  0.84395279458E+03  0.84395279458E+03  0.25500000000E-02 0.  1.
          2   -1    0    0  501    0  0.00000000000E+00 -0.00000000000E+00 -0.22172755958E+04  0.22172755958E+04  0.25500000000E-02 0. -1.
    8880023    1    1    2    0    0 -0.97744846949E+03  0.29119427016E+03 -0.15968509011E+04  0.20059767247E+04  0.65864270000E+03 0. -1.
    8880022    1    1    2    0    0  0.97744846949E+03 -0.29119427016E+03  0.22352809985E+03  0.10552516657E+04  0.15294330000E+03 0.  0.
<mgrwt>
<rscale>  0 0.11655596E+04</rscale>
<asrwt>0</asrwt>
<pdfrwt beam="1">  1        2 0.34111932E+00 0.12140881E+04</pdfrwt>
<pdfrwt beam="2">  1       -2 0.12983889E+00 0.12140881E+04</pdfrwt>
<totfact> 0.21453080E+00</totfact>
</mgrwt>
</event>
<event>
 4    1  0.2089815E-007  0.7319104E+03  0.7818608E-02  0.9884171E-01
         -2   -1    0    0    0  501 -0.00000000000E+00  0.00000000000E+00  0.29179950055E+03  0.29179950056E+03  0.25500000000E-02 0.  1.
          2   -1    0    0  501    0  0.00000000000E+00 -0.00000000000E+00 -0.19120158181E+04  0.19120158181E+04  0.25500000000E-02 0. -1.
    8880023    1    1    2    0    0 -0.31624353266E+03  0.43274065414E+02 -0.16912387390E+04  0.18428188450E+04  0.65864270000E+03 0. -1.
    8880022    1    1    2    0    0  0.31624353266E+03 -0.43274065414E+02  0.71022421452E+02  0.36099647373E+03  0.15294330000E+03 0.  0.
<mgrwt>
<rscale>  0 0.61034610E+03</rscale>
<asrwt>0</asrwt>
<pdfrwt beam="1">  1        2 0.29415627E+00 0.73191039E+03</pdfrwt>
<pdfrwt beam="2">  1       -2 0.44892232E-01 0.73191039E+03</pdfrwt>
<totfact> 0.36324225E+01</totfact>
</mgrwt>
</event>
<event>
 4    1  0.2089815E-007  0.6816238E+03  0.7818608E-02  0.1008420E+00
          2   -1    0    0  501    0  0.00000000000E+00  0.00000000000E+00  0.25025945556E+04  0.25025945556E+04  0.25500000000E-02 0. -1.
         -2   -1    0    0    0  501 -0.00000000000E+00 -0.00000000000E+00 -0.14854525456E+03  0.14854525458E+03  0.25500000000E-02 0.  1.
    8880023    1    1    2    0    0 -0.72571083522E+02 -0.15979454654E+03  0.23172939805E+04  0.24154631973E+04  0.65864270000E+03 0. -1.
    8880022    1    1    2    0    0  0.72571083522E+02  0.15979454654E+03  0.36755320589E+02  0.23567661291E+03  0.15294330000E+03 0.  0.
<mgrwt>
<rscale>  0 0.52107591E+03</rscale>
<asrwt>0</asrwt>
<pdfrwt beam="1">  1        2 0.38501454E+00 0.68162384E+03</pdfrwt>
<pdfrwt beam="2">  1       -2 0.22853116E-01 0.68162384E+03</pdfrwt>
<totfact> 0.61351401E+01</totfact>
</mgrwt>
</event>
<event>
 4    1  0.2089815E-007  0.1383756E+04  0.7818608E-02  0.8996409E-01
          2   -1    0    0  501    0  0.00000000000E+00  0.00000000000E+00  0.16243501626E+04  0.16243501626E+04  0.25500000000E-02 0. -1.
         -2   -1    0    0    0  501 -0.00000000000E+00 -0.00000000000E+00 -0.16477989812E+04  0.16477989812E+04  0.25500000000E-02 0.  1.
    8880023    1    1    2    0    0  0.93011377771E+03  0.78476666367E+03  0.97322675722E+03  0.16917301449E+04  0.65864270000E+03 0.  0.
    8880022    1    1    2    0    0 -0.93011377771E+03 -0.78476666367E+03 -0.99667557578E+03  0.15804189990E+04  0.15294330000E+03 0.  0.
<mgrwt>
<rscale>  0 0.13426527E+04</rscale>
<asrwt>0</asrwt>
<pdfrwt beam="1">  1        2 0.24990003E+00 0.13837560E+04</pdfrwt>
<pdfrwt beam="2">  1       -2 0.25350753E+00 0.13837560E+04</pdfrwt>
<totfact> 0.62847940E-01</totfact>
</mgrwt>
</event>
<event>
 4    1  0.2089815E-007  0.1011849E+04  0.7818608E-02  0.9366217E-01
         -2   -1    0    0    0  501 -0.00000000000E+00  0.00000000000E+00  0.79409227599E+03  0.79409227599E+03  0.25500000000E-02 0.  1.
          2   -1    0    0  501    0  0.00000000000E+00 -0.00000000000E+00 -0.17468320542E+04  0.17468320542E+04  0.25500000000E-02 0. -1.
    8880023    1    1    2    0    0 -0.17574609886E+03 -0.74775742466E+03 -0.13303575316E+04  0.16714332848E+04  0.65864270000E+03 0.  0.
    8880022    1    1    2    0    0  0.17574609886E+03  0.74775742466E+03  0.37761775336E+03  0.86949104542E+03  0.15294330000E+03 0.  0.
<mgrwt>
<rscale>  0 0.94908787E+03</rscale>
<asrwt>0</asrwt>
<pdfrwt beam="1">  1        2 0.26874339E+00 0.10118488E+04</pdfrwt>
<pdfrwt beam="2">  1       -2 0.12216804E+00 0.10118488E+04</pdfrwt>
<totfact> 0.46647410E+00</totfact>
</mgrwt>
</event>
<event>
 4    1  0.2089815E-007  0.8928385E+03  0.7818608E-02  0.9537627E-01
          2   -1    0    0  501    0  0.00000000000E+00  0.00000000000E+00  0.20343692830E+04  0.20343692830E+04  0.25500000000E-02 0. -1.
         -2   -1    0    0    0  501 -0.00000000000E+00 -0.00000000000E+00 -0.91750177845E+03  0.91750177845E+03  0.25500000000E-02 0.  1.
    8880023    1    1    2    0    0 -0.12050160600E+03  0.59061809865E+03  0.18114722898E+04  0.20195525342E+04  0.65864270000E+03 0. -1.
    8880022    1    1    2    0    0  0.12050160600E+03 -0.59061809865E+03 -0.69460478525E+03  0.93231852723E+03  0.15294330000E+03 0.  0.
<mgrwt>
<rscale>  0 0.81565660E+03</rscale>
<asrwt>0</asrwt>
<pdfrwt beam="1">  1        2 0.31297989E+00 0.89283850E+03</pdfrwt>
<pdfrwt beam="2">  1       -2 0.14115412E+00 0.89283850E+03</pdfrwt>
<totfact> 0.22787297E+00</totfact>
</mgrwt>
</event>
<event>
 4    1  0.2089815E-007  0.7738036E+03  0.7818608E-02  0.9770599E-01
          2   -1    0    0  501    0  0.00000000000E+00  0.00000000000E+00  0.12745288045E+04  0.12745288045E+04  0.25500000000E-02 0. -1.
         -2   -1    0    0    0  501 -0.00000000000E+00 -0.00000000000E+00 -0.90673851294E+03  0.90673851295E+03  0.25500000000E-02 0.  1.
    8880023    1    1    2    0    0  0.10723264313E+03 -0.39174342399E+03  0.10911647445E+04  0.13376892225E+04  0.65864270000E+03 0. -1.
    8880022    1    1    2    0    0 -0.10723264313E+03  0.39174342399E+03 -0.72337445299E+03  0.84357809494E+03  0.15294330000E+03 0.  0.
<mgrwt>
<rscale>  0 0.66964515E+03</rscale>
<asrwt>0</asrwt>
<pdfrwt beam="1">  1        2 0.19608135E+00 0.77380356E+03</pdfrwt>
<pdfrwt beam="2">  1       -2 0.13949823E+00 0.77380356E+03</pdfrwt>
<totfact> 0.63174434E+00</totfact>
</mgrwt>
</event>
<event>
 4    1  0.2089815E-007  0.1110676E+04  0.7818608E-02  0.9249262E-01
         -2   -1    0    0    0  501 -0.00000000000E+00  0.00000000000E+00  0.72081721777E+03  0.72081721778E+03  0.25500000000E-02 0.  1.
          2   -1    0    0  501    0  0.00000000000E+00 -0.00000000000E+00 -0.15926725430E+04  0.15926725430E+04  0.25500000000E-02 0. -1.
    8880023    1    1    2    0    0 -0.82337613668E+03  0.34905841702E+03 -0.86234989315E+03  0.14061463599E+04  0.65864270000E+03 0.  0.
    8880022    1    1    2    0    0  0.82337613668E+03 -0.34905841702E+03 -0.95054321086E+01  0.90734340093E+03  0.15294330000E+03 0.  0.
<mgrwt>
<rscale>  0 0.10559112E+04</rscale>
<asrwt>0</asrwt>
<pdfrwt beam="1">  1        2 0.24502654E+00 0.11106756E+04</pdfrwt>
<pdfrwt beam="2">  1       -2 0.11089496E+00 0.11106756E+04</pdfrwt>
<totfact> 0.71382156E+00</totfact>
</mgrwt>
</event>
<event>
 4    1  0.2089815E-007  0.1001398E+04  0.7818608E-02  0.9379731E-01
         -2   -1    0    0    0  501 -0.00000000000E+00  0.00000000000E+00  0.11879801146E+04  0.11879801146E+04  0.25500000000E-02 0.  1.
          2   -1    0    0  501    0  0.00000000000E+00 -0.00000000000E+00 -0.16754727061E+04  0.16754727061E+04  0.25500000000E-02 0. -1.
    8880023    1    1    2    0    0  0.75431313833E+03  0.26731659660E+00 -0.13671176523E+04  0.16946413378E+04  0.65864270000E+03 0. -1.
    8880022    1    1    2    0    0 -0.75431313833E+03 -0.26731659660E+00  0.87962506075E+03  0.11688114829E+04  0.15294330000E+03 0.  0.
<mgrwt>
<rscale>  0 0.93762719E+03</rscale>
<asrwt>0</asrwt>
<pdfrwt beam="1">  1        2 0.25776503E+00 0.10013983E+04</pdfrwt>
<pdfrwt beam="2">  1       -2 0.18276617E+00 0.10013983E+04</pdfrwt>
<totfact> 0.17458963E+00</totfact>
</mgrwt>
</event>
<event>
 4    1  0.2089815E-007  0.8222823E+03  0.7818608E-02  0.9664540E-01
         -2   -1    0    0    0  501 -0.00000000000E+00  0.00000000000E+00  0.90150210288E+03  0.90150210288E+03  0.25500000000E-02 0.  1.
          2   -1    0    0  501    0  0.00000000000E+00 -0.00000000000E+00 -0.23172286975E+04  0.23172286975E+04  0.25500000000E-02 0. -1.
    8880023    1    1    2    0    0  0.15985665938E+03  0.46560043554E+03 -0.21612242802E+04  0.23123664314E+04  0.65864270000E+03 0. -1.
    8880022    1    1    2    0    0 -0.15985665938E+03 -0.46560043554E+03  0.74549768563E+03  0.90636436901E+03  0.15294330000E+03 0.  0.
<mgrwt>
<rscale>  0 0.73167915E+03</rscale>
<asrwt>0</asrwt>
<pdfrwt beam="1">  1        2 0.35649672E+00 0.82228227E+03</pdfrwt>
<pdfrwt beam="2">  1       -2 0.13869263E+00 0.82228227E+03</pdfrwt>
<totfact> 0.16833944E+00</totfact>
</mgrwt>
</event>
<event>
 4    1  0.2089815E-007  0.1223164E+04  0.7818608E-02  0.9134928E-01
         -2   -1    0    0    0  501 -0.00000000000E+00  0.00000000000E+00  0.13550742699E+04  0.13550742699E+04  0.25500000000E-02 0.  1.
          2   -1    0    0  501    0  0.00000000000E+00 -0.00000000000E+00 -0.13500739400E+04  0.13500739400E+04  0.25500000000E-02 0. -1.
    8880023    1    1    2    0    0  0.86083572645E+03 -0.56681686830E+03 -0.73511733419E+03  0.14270694487E+04  0.65864270000E+03 0.  0.
    8880022    1    1    2    0    0 -0.86083572645E+03  0.56681686830E+03  0.74011766403E+03  0.12780787612E+04  0.15294330000E+03 0.  0.
<mgrwt>
<rscale>  0 0.11751079E+04</rscale>
<asrwt>0</asrwt>
<pdfrwt beam="1">  1        2 0.20770368E+00 0.12231638E+04</pdfrwt>
<pdfrwt beam="2">  1       -2 0.20847297E+00 0.12231638E+04</pdfrwt>
<totfact> 0.17531043E+00</totfact>
</mgrwt>
</event>
<event>
 4    1  0.2089815E-007  0.7553711E+03  0.7818608E-02  0.9817242E-01
          2   -1    0    0  501    0  0.00000000000E+00  0.00000000000E+00  0.75869397241E+03  0.75869397241E+03  0.25500000000E-02 0. -1.
         -2   -1    0    0    0  501 -0.00000000000E+00 -0.00000000000E+00 -0.56701926232E+03  0.56701926232E+03  0.25500000000E-02 0.  1.
    8880023    1    1    2    0    0  0.10046185577E+03  0.35592521062E+03  0.42068239759E+03  0.86461507385E+03  0.65864270000E+03 0. -1.
    8880022    1    1    2    0    0 -0.10046185577E+03 -0.35592521062E+03 -0.22900768750E+03  0.46109816088E+03  0.15294330000E+03 0.  0.
<mgrwt>
<rscale>  0 0.64445399E+03</rscale>
<asrwt>0</asrwt>
<pdfrwt beam="1">  1        2 0.11672215E+00 0.75537113E+03</pdfrwt>
<pdfrwt beam="2">  1       -2 0.87233733E-01 0.75537113E+03</pdfrwt>
<totfact> 0.42496177E+01</totfact>
</mgrwt>
</event>
<event>
 4    1  0.2089815E-007  0.6979268E+03  0.7818608E-02  0.1000591E+00
          2   -1    0    0  501    0  0.00000000000E+00  0.00000000000E+00  0.17001988197E+04  0.17001988197E+04  0.25500000000E-02 0. -1.
         -2   -1    0    0    0  501 -0.00000000000E+00 -0.00000000000E+00 -0.35192443187E+03  0.35192443188E+03  0.25500000000E-02 0.  1.
    8880023    1    1    2    0    0  0.16440272858E+01  0.23084391889E+03  0.15563954713E+04  0.17057164732E+04  0.65864270000E+03 0. -1.
    8880022    1    1    2    0    0 -0.16440272858E+01 -0.23084391889E+03 -0.20812108345E+03  0.34640677838E+03  0.15294330000E+03 0.  0.
<mgrwt>
<rscale>  0 0.55391737E+03</rscale>
<asrwt>0</asrwt>
<pdfrwt beam="1">  1        2 0.26156905E+00 0.69792680E+03</pdfrwt>
<pdfrwt beam="2">  1       -2 0.54142219E-01 0.69792680E+03</pdfrwt>
<totfact> 0.32539080E+01</totfact>
</mgrwt>
</event>
<event>
 4    1  0.2089815E-007  0.7463326E+03  0.7818608E-02  0.9841870E-01
         -2   -1    0    0    0  501 -0.00000000000E+00  0.00000000000E+00  0.61003281548E+03  0.61003281549E+03  0.25500000000E-02 0.  1.
          2   -1    0    0  501    0  0.00000000000E+00 -0.00000000000E+00 -0.11462541181E+04  0.11462541181E+04  0.25500000000E-02 0. -1.
    8880023    1    1    2    0    0  0.34167485394E+03 -0.80377123787E+02 -0.93972608627E+03  0.12000406290E+04  0.65864270000E+03 0. -1.
    8880022    1    1    2    0    0 -0.34167485394E+03  0.80377123787E+02  0.40350478368E+03  0.55624630453E+03  0.15294330000E+03 0.  0.
<mgrwt>
<rscale>  0 0.63163151E+03</rscale>
<asrwt>0</asrwt>
<pdfrwt beam="1">  1        2 0.17634679E+00 0.74633263E+03</pdfrwt>
<pdfrwt beam="2">  1       -2 0.93851203E-01 0.74633263E+03</pdfrwt>
<totfact> 0.19937134E+01</totfact>
</mgrwt>
</event>
<event>
 4    1  0.2089815E-007  0.8799982E+03  0.7818608E-02  0.9558935E-01
         -2   -1    0    0    0  501 -0.00000000000E+00  0.00000000000E+00  0.10133095974E+04  0.10133095974E+04  0.25500000000E-02 0.  1.
          2   -1    0    0  501    0  0.00000000000E+00 -0.00000000000E+00 -0.76194681793E+03  0.76194681793E+03  0.25500000000E-02 0. -1.
    8880023    1    1    2    0    0  0.25195147460E+03 -0.52640955427E+03 -0.32768663049E+03  0.93902891247E+03  0.65864270000E+03 0.  0.
    8880022    1    1    2    0    0 -0.25195147460E+03  0.52640955427E+03  0.57904941001E+03  0.83622750291E+03  0.15294330000E+03 0.  0.
<mgrwt>
<rscale>  0 0.80074779E+03</rscale>
<asrwt>0</asrwt>
<pdfrwt beam="1">  1        2 0.11722259E+00 0.87999817E+03</pdfrwt>
<pdfrwt beam="2">  1       -2 0.15589378E+00 0.87999817E+03</pdfrwt>
<totfact> 0.99566580E+00</totfact>
</mgrwt>
</event>
<event>
 4    1  0.2089815E-007  0.1003743E+04  0.7818608E-02  0.9376677E-01
          2   -1    0    0  501    0  0.00000000000E+00  0.00000000000E+00  0.10205382814E+04  0.10205382814E+04  0.25500000000E-02 0. -1.
         -2   -1    0    0    0  501 -0.00000000000E+00 -0.00000000000E+00 -0.95116313857E+03  0.95116313858E+03  0.25500000000E-02 0.  1.
    8880023    1    1    2    0    0 -0.68572766807E+03  0.32166224283E+03  0.46200034271E+03  0.11049631470E+04  0.65864270000E+03 0. -1.
    8880022    1    1    2    0    0  0.68572766807E+03 -0.32166224283E+03 -0.39262519993E+03  0.86673827298E+03  0.15294330000E+03 0.  0.
<mgrwt>
<rscale>  0 0.94020142E+03</rscale>
<asrwt>0</asrwt>
<pdfrwt beam="1">  1        2 0.15700589E+00 0.10037426E+04</pdfrwt>
<pdfrwt beam="2">  1       -2 0.14633279E+00 0.10037426E+04</pdfrwt>
<totfact> 0.77466970E+00</totfact>
</mgrwt>
</event>
<event>
 4    1  0.2089815E-007  0.1544984E+04  0.7818608E-02  0.8878508E-01
          2   -1    0    0  501    0  0.00000000000E+00  0.00000000000E+00  0.22115773890E+04  0.22115773890E+04  0.25500000000E-02 0. -1.
         -2   -1    0    0    0  501 -0.00000000000E+00 -0.00000000000E+00 -0.12484244191E+04  0.12484244191E+04  0.25500000000E-02 0.  1.
    8880023    1    1    2    0    0  0.61543001869E+03 -0.12547551224E+04  0.12944624266E+04  0.20155911553E+04  0.65864270000E+03 0. -1.
    8880022    1    1    2    0    0 -0.61543001869E+03  0.12547551224E+04 -0.33130945673E+03  0.14444106529E+04  0.15294330000E+03 0.  0.
<mgrwt>
<rscale>  0 0.15089734E+04</rscale>
<asrwt>0</asrwt>
<pdfrwt beam="1">  1        2 0.34024267E+00 0.15449837E+04</pdfrwt>
<pdfrwt beam="2">  1       -2 0.19206530E+00 0.15449837E+04</pdfrwt>
<totfact> 0.71444807E-01</totfact>
</mgrwt>
</event>
<event>
 4    1  0.2952689E-007  0.1474580E+04  0.7818608E-02  0.8927797E-01
          2   -1    0    0  501    0  0.00000000000E+00  0.00000000000E+00  0.43838312704E+04  0.43838312704E+04  0.25500000000E-02 0. -1.
         -2   -1    0    0    0  501 -0.00000000000E+00 -0.00000000000E+00 -0.10224710630E+04  0.10224710630E+04  0.25500000000E-02 0.  1.
    8880023    1    1    2    0    0  0.11223885991E+04  0.69341257035E+03  0.37441803355E+04  0.40240866977E+04  0.65864270000E+03 0.  0.
    8880022    1    1    2    0    0 -0.11223885991E+04 -0.69341257035E+03 -0.38282012801E+03  0.13822156357E+04  0.15294330000E+03 0.  0.
<mgrwt>
<rscale>  0 0.14365234E+04</rscale>
<asrwt>0</asrwt>
<pdfrwt beam="1">  1        2 0.67443557E+00 0.14745804E+04</pdfrwt>
<pdfrwt beam="2">  1       -2 0.15730324E+00 0.14745804E+04</pdfrwt>
<totfact> 0.40731417E-02</totfact>
</mgrwt>
</event>
<event>
 4    1  0.2089815E-007  0.1247376E+04  0.7818608E-02  0.9112391E-01
         -2   -1    0    0    0  501 -0.00000000000E+00  0.00000000000E+00  0.12454110189E+04  0.12454110189E+04  0.25500000000E-02 0.  1.
          2   -1    0    0  501    0  0.00000000000E+00 -0.00000000000E+00 -0.18884073692E+04  0.18884073692E+04  0.25500000000E-02 0. -1.
    8880023    1    1    2    0    0 -0.73080341918E+03  0.76685315594E+03 -0.13601098760E+04  0.18454935603E+04  0.65864270000E+03 0.  0.
    8880022    1    1    2    0    0  0.73080341918E+03 -0.76685315594E+03  0.71711352564E+03  0.12883248278E+04  0.15294330000E+03 0.  0.
<mgrwt>
<rscale>  0 0.12005324E+04</rscale>
<asrwt>0</asrwt>
<pdfrwt beam="1">  1        2 0.29052421E+00 0.12473763E+04</pdfrwt>
<pdfrwt beam="2">  1       -2 0.19160170E+00 0.12473763E+04</pdfrwt>
<totfact> 0.11251251E+00</totfact>
</mgrwt>
</event>
<event>
 4    1  0.2089815E-007  0.7179560E+03  0.7818608E-02  0.9929564E-01
          2   -1    0    0  501    0  0.00000000000E+00  0.00000000000E+00  0.15112958769E+04  0.15112958769E+04  0.25500000000E-02 0. -1.
         -2   -1    0    0    0  501 -0.00000000000E+00 -0.00000000000E+00 -0.44949201692E+03  0.44949201693E+03  0.25500000000E-02 0.  1.
    8880023    1    1    2    0    0  0.28170626586E+03  0.47876440176E+02  0.13487356160E+04  0.15279229502E+04  0.65864270000E+03 0.  0.
    8880022    1    1    2    0    0 -0.28170626586E+03 -0.47876440176E+02 -0.28693175602E+03  0.43286494358E+03  0.15294330000E+03 0.  0.
<mgrwt>
<rscale>  0 0.58849645E+03</rscale>
<asrwt>0</asrwt>
<pdfrwt beam="1">  1        2 0.23250706E+00 0.71795597E+03</pdfrwt>
<pdfrwt beam="2">  1       -2 0.69152618E-01 0.71795597E+03</pdfrwt>
<totfact> 0.24544134E+01</totfact>
</mgrwt>
</event>
<event>
 4    1  0.2089815E-007  0.1221159E+04  0.7818608E-02  0.9136824E-01
         -2   -1    0    0    0  501 -0.00000000000E+00  0.00000000000E+00  0.20371186048E+04  0.20371186048E+04  0.25500000000E-02 0.  1.
          2   -1    0    0  501    0  0.00000000000E+00 -0.00000000000E+00 -0.13002043564E+04  0.13002043564E+04  0.25500000000E-02 0. -1.
    8880023    1    1    2    0    0  0.48177294587E+03 -0.90846779260E+03 -0.81588260594E+03  0.14686366244E+04  0.65864270000E+03 0.  0.
    8880022    1    1    2    0    0 -0.48177294587E+03  0.90846779260E+03  0.15527968543E+04  0.18686863368E+04  0.15294330000E+03 0.  0.
<mgrwt>
<rscale>  0 0.11729995E+04</rscale>
<asrwt>0</asrwt>
<pdfrwt beam="1">  1        2 0.20003144E+00 0.12211589E+04</pdfrwt>
<pdfrwt beam="2">  1       -2 0.31340286E+00 0.12211589E+04</pdfrwt>
<totfact> 0.42357035E-01</totfact>
</mgrwt>
</event>
<event>
 4    1  0.2089815E-007  0.8283701E+03  0.7818608E-02  0.9652512E-01
          2   -1    0    0  501    0  0.00000000000E+00  0.00000000000E+00  0.22693701254E+04  0.22693701254E+04  0.25500000000E-02 0. -1.
         -2   -1    0    0    0  501 -0.00000000000E+00 -0.00000000000E+00 -0.56584295355E+03  0.56584295356E+03  0.25500000000E-02 0.  1.
    8880023    1    1    2    0    0  0.25571754242E+03  0.43242964548E+03  0.20466321782E+04  0.22079176476E+04  0.65864270000E+03 0. -1.
    8880022    1    1    2    0    0 -0.25571754242E+03 -0.43242964548E+03 -0.34310500631E+03  0.62729543133E+03  0.15294330000E+03 0.  0.
<mgrwt>
<rscale>  0 0.73915986E+03</rscale>
<asrwt>0</asrwt>
<pdfrwt beam="1">  1        2 0.34913387E+00 0.82837013E+03</pdfrwt>
<pdfrwt beam="2">  1       -2 0.87052761E-01 0.82837013E+03</pdfrwt>
<totfact> 0.55444234E+00</totfact>
</mgrwt>
</event>
<event>
 4    1  0.2089815E-007  0.6789297E+03  0.7818608E-02  0.1009936E+00
          2   -1    0    0  501    0  0.00000000000E+00  0.00000000000E+00  0.32614443160E+04  0.32614443160E+04  0.25500000000E-02 0. -1.
         -2   -1    0    0    0  501 -0.00000000000E+00 -0.00000000000E+00 -0.14070079168E+03  0.14070079170E+03  0.25500000000E-02 0.  1.
    8880023    1    1    2    0    0 -0.15988098598E+03 -0.39666174764E+02  0.31032869085E+04  0.31766861945E+04  0.65864270000E+03 0. -1.
    8880022    1    1    2    0    0  0.15988098598E+03  0.39666174764E+02  0.17456615757E+02  0.22545891321E+03  0.15294330000E+03 0.  0.
<mgrwt>
<rscale>  0 0.51500214E+03</rscale>
<asrwt>0</asrwt>
<pdfrwt beam="1">  1        2 0.50176061E+00 0.67892970E+03</pdfrwt>
<pdfrwt beam="2">  1       -2 0.21646278E-01 0.67892970E+03</pdfrwt>
<totfact> 0.23696917E+01</totfact>
</mgrwt>
</event>
<event>
 4    1  0.2089815E-007  0.9547048E+03  0.7818608E-02  0.9443377E-01
          2   -1    0    0  501    0  0.00000000000E+00  0.00000000000E+00  0.31560486537E+04  0.31560486537E+04  0.25500000000E-02 0. -1.
         -2   -1    0    0    0  501 -0.00000000000E+00 -0.00000000000E+00 -0.72263934034E+03  0.72263934034E+03  0.25500000000E-02 0.  1.
    8880023    1    1    2    0    0 -0.48485017773E+03 -0.49251531998E+03  0.28851320208E+04  0.30389879925E+04  0.65864270000E+03 0. -1.
    8880022    1    1    2    0    0  0.48485017773E+03  0.49251531998E+03 -0.45172270735E+03  0.83970000156E+03  0.15294330000E+03 0.  0.
<mgrwt>
<rscale>  0 0.88590299E+03</rscale>
<asrwt>0</asrwt>
<pdfrwt beam="1">  1        2 0.48554595E+00 0.95470479E+03</pdfrwt>
<pdfrwt beam="2">  1       -2 0.11117528E+00 0.95470479E+03</pdfrwt>
<totfact> 0.91408755E-01</totfact>
</mgrwt>
</event>
<event>
 4    1  0.2089815E-007  0.8043202E+03  0.7818608E-02  0.9701532E-01
         -2   -1    0    0    0  501 -0.00000000000E+00  0.00000000000E+00  0.44856125646E+03  0.44856125647E+03  0.25500000000E-02 0.  1.
          2   -1    0    0  501    0  0.00000000000E+00 -0.00000000000E+00 -0.18558523296E+04  0.18558523296E+04  0.25500000000E-02 0. -1.
    8880023    1    1    2    0    0  0.68371955753E+00 -0.46164955645E+03 -0.15924375859E+04  0.17840371217E+04  0.65864270000E+03 0.  0.
    8880022    1    1    2    0    0 -0.68371955753E+00  0.46164955645E+03  0.18514651276E+03  0.52037646435E+03  0.15294330000E+03 0.  0.
<mgrwt>
<rscale>  0 0.70925675E+03</rscale>
<asrwt>0</asrwt>
<pdfrwt beam="1">  1        2 0.28551574E+00 0.80432020E+03</pdfrwt>
<pdfrwt beam="2">  1       -2 0.69009425E-01 0.80432020E+03</pdfrwt>
<totfact> 0.15776391E+01</totfact>
</mgrwt>
</event>
<event>
 4    1  0.2089815E-007  0.8147487E+03  0.7818608E-02  0.9679769E-01
          2   -1    0    0  501    0  0.00000000000E+00  0.00000000000E+00  0.18572664482E+04  0.18572664482E+04  0.25500000000E-02 0. -1.
         -2   -1    0    0    0  501 -0.00000000000E+00 -0.00000000000E+00 -0.98254073731E+03  0.98254073731E+03  0.25500000000E-02 0.  1.
    8880023    1    1    2    0    0 -0.29097854299E+03  0.38123061297E+03  0.16931411687E+04  0.18789737934E+04  0.65864270000E+03 0. -1.
    8880022    1    1    2    0    0  0.29097854299E+03 -0.38123061297E+03 -0.81841545785E+03  0.96083339211E+03  0.15294330000E+03 0.  0.
<mgrwt>
<rscale>  0 0.72234213E+03</rscale>
<asrwt>0</asrwt>
<pdfrwt beam="1">  1        2 0.28573330E+00 0.81474873E+03</pdfrwt>
<pdfrwt beam="2">  1       -2 0.15116011E+00 0.81474873E+03</pdfrwt>
<totfact> 0.24088198E+00</totfact>
</mgrwt>
</event>
<event>
 4    1  0.2089815E-007  0.6969349E+03  0.7818608E-02  0.1001016E+00
         -2   -1    0    0    0  501 -0.00000000000E+00  0.00000000000E+00  0.10921221605E+04  0.10921221605E+04  0.25500000000E-02 0.  1.
          2   -1    0    0  501    0  0.00000000000E+00 -0.00000000000E+00 -0.81643257307E+03  0.81643257308E+03  0.25500000000E-02 0. -1.
    8880023    1    1    2    0    0  0.12702547837E+03 -0.18913630236E+03 -0.64392523752E+03  0.94887192540E+03  0.65864270000E+03 0. -1.
    8880022    1    1    2    0    0 -0.12702547837E+03  0.18913630236E+03  0.91961482496E+03  0.95968280819E+03  0.15294330000E+03 0.  0.
<mgrwt>
<rscale>  0 0.55206890E+03</rscale>
<asrwt>0</asrwt>
<pdfrwt beam="1">  1        2 0.12560501E+00 0.69693487E+03</pdfrwt>
<pdfrwt beam="2">  1       -2 0.16801879E+00 0.69693487E+03</pdfrwt>
<totfact> 0.75637306E+00</totfact>
</mgrwt>
</event>
<event>
 4    1  0.2089815E-007  0.8177732E+03  0.7818608E-02  0.9673607E-01
         -2   -1    0    0    0  501 -0.00000000000E+00  0.00000000000E+00  0.48128028131E+03  0.48128028132E+03  0.25500000000E-02 0.  1.
          2   -1    0    0  501    0  0.00000000000E+00 -0.00000000000E+00 -0.26556043562E+04  0.26556043562E+04  0.25500000000E-02 0. -1.
    8880023    1    1    2    0    0 -0.40814071858E+03 -0.26146495542E+03 -0.24328734556E+04  0.25666371435E+04  0.65864270000E+03 0.  0.
    8880022    1    1    2    0    0  0.40814071858E+03  0.26146495542E+03  0.25854938077E+03  0.57024749398E+03  0.15294330000E+03 0.  0.
<mgrwt>
<rscale>  0 0.72610166E+03</rscale>
<asrwt>0</asrwt>
<pdfrwt beam="1">  1        2 0.40855451E+00 0.81777318E+03</pdfrwt>
<pdfrwt beam="2">  1       -2 0.74043122E-01 0.81777318E+03</pdfrwt>
<totfact> 0.48315984E+00</totfact>
</mgrwt>
</event>
<event>
 4    1  0.2089815E-007  0.8137361E+03  0.7818608E-02  0.9681847E-01
         -2   -1    0    0    0  501 -0.00000000000E+00  0.00000000000E+00  0.70903171208E+03  0.70903171209E+03  0.25500000000E-02 0.  1.
          2   -1    0    0  501    0  0.00000000000E+00 -0.00000000000E+00 -0.36944840691E+04  0.36944840691E+04  0.25500000000E-02 0. -1.
    8880023    1    1    2    0    0  0.15129104975E+03 -0.45328504625E+03 -0.35535731662E+04  0.36455519155E+04  0.65864270000E+03 0.  0.
    8880022    1    1    2    0    0 -0.15129104975E+03  0.45328504625E+03  0.56812080916E+03  0.75796386570E+03  0.15294330000E+03 0.  0.
<mgrwt>
<rscale>  0 0.72108001E+03</rscale>
<asrwt>0</asrwt>
<pdfrwt beam="1">  1        2 0.56838215E+00 0.81373615E+03</pdfrwt>
<pdfrwt beam="2">  1       -2 0.10908180E+00 0.81373615E+03</pdfrwt>
<totfact> 0.42711102E-01</totfact>
</mgrwt>
</event>
<event>
 4    1  0.2089815E-007  0.1206227E+04  0.7818608E-02  0.9151093E-01
          2   -1    0    0  501    0  0.00000000000E+00  0.00000000000E+00  0.15123669111E+04  0.15123669111E+04  0.25500000000E-02 0. -1.
         -2   -1    0    0    0  501 -0.00000000000E+00 -0.00000000000E+00 -0.11739616995E+04  0.11739616995E+04  0.25500000000E-02 0.  1.
    8880023    1    1    2    0    0  0.71729736885E+02 -0.10079821114E+04  0.91395623762E+03  0.15133734842E+04  0.65864270000E+03 0.  0.
    8880022    1    1    2    0    0 -0.71729736885E+02  0.10079821114E+04 -0.57555102600E+03  0.11729551264E+04  0.15294330000E+03 0.  0.
<mgrwt>
<rscale>  0 0.11572806E+04</rscale>
<asrwt>0</asrwt>
<pdfrwt beam="1">  1        2 0.23267183E+00 0.12062269E+04</pdfrwt>
<pdfrwt beam="2">  1       -2 0.18060949E+00 0.12062269E+04</pdfrwt>
<totfact> 0.21753048E+00</totfact>
</mgrwt>
</event>
<event>
 4    1  0.2089815E-007  0.7607805E+03  0.7818608E-02  0.9803091E-01
         -2   -1    0    0    0  501 -0.00000000000E+00  0.00000000000E+00  0.58874901772E+03  0.58874901772E+03  0.25500000000E-02 0.  1.
          2   -1    0    0  501    0  0.00000000000E+00 -0.00000000000E+00 -0.28448073490E+04  0.28448073490E+04  0.25500000000E-02 0. -1.
    8880023    1    1    2    0    0 -0.68996201434E+02  0.37445464743E+03 -0.27140359734E+04  0.28186482984E+04  0.65864270000E+03 0. -1.
    8880022    1    1    2    0    0  0.68996201434E+02 -0.37445464743E+03  0.45797764213E+03  0.61490806833E+03  0.15294330000E+03 0.  0.
<mgrwt>
<rscale>  0 0.65196924E+03</rscale>
<asrwt>0</asrwt>
<pdfrwt beam="1">  1        2 0.43766266E+00 0.76078050E+03</pdfrwt>
<pdfrwt beam="2">  1       -2 0.90576773E-01 0.76078050E+03</pdfrwt>
<totfact> 0.23962138E+00</totfact>
</mgrwt>
</event>
<event>
 4    1  0.2089815E-007  0.7335145E+03  0.7818608E-02  0.9879258E-01
          2   -1    0    0  501    0  0.00000000000E+00  0.00000000000E+00  0.19054573237E+04  0.19054573237E+04  0.25500000000E-02 0. -1.
         -2   -1    0    0    0  501 -0.00000000000E+00 -0.00000000000E+00 -0.34026560940E+03  0.34026560941E+03  0.25500000000E-02 0.  1.
    8880023    1    1    2    0    0  0.16053035333E+03 -0.28011306925E+03  0.17096599254E+04  0.18603710901E+04  0.65864270000E+03 0.  0.
    8880022    1    1    2    0    0 -0.16053035333E+03  0.28011306925E+03 -0.14446821111E+03  0.38535184305E+03  0.15294330000E+03 0.  0.
<mgrwt>
<rscale>  0 0.61277141E+03</rscale>
<asrwt>0</asrwt>
<pdfrwt beam="1">  1        2 0.29314729E+00 0.73351451E+03</pdfrwt>
<pdfrwt beam="2">  1       -2 0.52348554E-01 0.73351451E+03</pdfrwt>
<totfact> 0.26835125E+01</totfact>
</mgrwt>
</event>
<event>
 4    1  0.2089815E-007  0.1068900E+04  0.7818608E-02  0.9296499E-01
         -2   -1    0    0    0  501 -0.00000000000E+00  0.00000000000E+00  0.13165846821E+04  0.13165846821E+04  0.25500000000E-02 0.  1.
          2   -1    0    0  501    0  0.00000000000E+00 -0.00000000000E+00 -0.78942818752E+03  0.78942818752E+03  0.25500000000E-02 0. -1.
    8880023    1    1    2    0    0 -0.78540552596E+03  0.30310762326E+03 -0.56287221614E+02  0.10703805534E+04  0.65864270000E+03 0. -1.
    8880022    1    1    2    0    0  0.78540552596E+03 -0.30310762326E+03  0.58344371621E+03  0.10356323163E+04  0.15294330000E+03 0.  0.
<mgrwt>
<rscale>  0 0.10110579E+04</rscale>
<asrwt>0</asrwt>
<pdfrwt beam="1">  1        2 0.12145049E+00 0.10688996E+04</pdfrwt>
<pdfrwt beam="2">  1       -2 0.20255149E+00 0.10688996E+04</pdfrwt>
<totfact> 0.44262789E+00</totfact>
</mgrwt>
</event>
<event>
 4    1  0.2089815E-007  0.1164634E+04  0.7818608E-02  0.9192292E-01
          2   -1    0    0  501    0  0.00000000000E+00  0.00000000000E+00  0.22301028562E+04  0.22301028562E+04  0.25500000000E-02 0. -1.
         -2   -1    0    0    0  501 -0.00000000000E+00 -0.00000000000E+00 -0.77415645133E+03  0.77415645133E+03  0.25500000000E-02 0.  1.
    8880023    1    1    2    0    0  0.66765635708E+03  0.69050416211E+03 -0.10045310289E+03  0.11689576730E+04  0.65864270000E+03 0.  0.
    8880022    1    1    2    0    0 -0.66765635708E+03 -0.69050416211E+03  0.15563995077E+04  0.18353016345E+04  0.15294330000E+03 0.  0.
<mgrwt>
<rscale>  0 0.11133344E+04</rscale>
<asrwt>0</asrwt>
<pdfrwt beam="1">  1        2 0.34309275E+00 0.11646335E+04</pdfrwt>
<pdfrwt beam="2">  1       -2 0.11910099E+00 0.11646335E+04</pdfrwt>
<totfact> 0.26384642E+00</totfact>
</mgrwt>
</event>
<event>
 4    1  0.2089815E-007  0.1102388E+04  0.7818608E-02  0.9258402E-01
         -2   -1    0    0    0  501 -0.00000000000E+00  0.00000000000E+00  0.47904962634E+03  0.47904962635E+03  0.25500000000E-02 0.  1.
          2   -1    0    0  501    0  0.00000000000E+00 -0.00000000000E+00 -0.37186683378E+04  0.37186683378E+04  0.25500000000E-02 0. -1.
    8880023    1    1    2    0    0  0.88398239198E+03 -0.50211993805E+01 -0.30995084757E+04  0.32897132214E+04  0.65864270000E+03 0.  0.
    8880022    1    1    2    0    0 -0.88398239198E+03  0.50211993805E+01 -0.14011023581E+03  0.90800474281E+03  0.15294330000E+03 0.  1.
<mgrwt>
<rscale>  0 0.10470437E+04</rscale>
<asrwt>0</asrwt>
<pdfrwt beam="1">  1        2 0.57210280E+00 0.11023884E+04</pdfrwt>
<pdfrwt beam="2">  1       -2 0.73699945E-01 0.11023884E+04</pdfrwt>
<totfact> 0.96198535E-01</totfact>
</mgrwt>
</event>
<event>
 4    1  0.2089815E-007  0.1081324E+04  0.7818608E-02  0.9282140E-01
         -2   -1    0    0    0  501 -0.00000000000E+00  0.00000000000E+00  0.11635567987E+04  0.11635567987E+04  0.25500000000E-02 0.  1.
          2   -1    0    0  501    0  0.00000000000E+00 -0.00000000000E+00 -0.13135897761E+04  0.13135897761E+04  0.25500000000E-02 0. -1.
    8880023    1    1    2    0    0 -0.19119079550E+03 -0.83600128356E+03 -0.83726737660E+03  0.13675814172E+04  0.65864270000E+03 0.  0.
    8880022    1    1    2    0    0  0.19119079550E+03  0.83600128356E+03  0.68723439923E+03  0.11095651576E+04  0.15294330000E+03 0.  0.
<mgrwt>
<rscale>  0 0.10244388E+04</rscale>
<asrwt>0</asrwt>
<pdfrwt beam="1">  1        2 0.20209074E+00 0.10813243E+04</pdfrwt>
<pdfrwt beam="2">  1       -2 0.17900874E+00 0.10813243E+04</pdfrwt>
<totfact> 0.29386311E+00</totfact>
</mgrwt>
</event>
<event>
 4    1  0.2089815E-007  0.7511662E+03  0.7818608E-02  0.9828538E-01
          2   -1    0    0  501    0  0.00000000000E+00  0.00000000000E+00  0.13953531556E+04  0.13953531556E+04  0.25500000000E-02 0. -1.
         -2   -1    0    0    0  501 -0.00000000000E+00 -0.00000000000E+00 -0.50872998527E+03  0.50872998527E+03  0.25500000000E-02 0.  1.
    8880023    1    1    2    0    0 -0.28557435211E+03 -0.22110589115E+03  0.11906730812E+04  0.14078185672E+04  0.65864270000E+03 0. -1.
    8880022    1    1    2    0    0  0.28557435211E+03  0.22110589115E+03 -0.30404991090E+03  0.49626457361E+03  0.15294330000E+03 0.  0.
<mgrwt>
<rscale>  0 0.63853241E+03</rscale>
<asrwt>0</asrwt>
<pdfrwt beam="1">  1        2 0.21466971E+00 0.75116625E+03</pdfrwt>
<pdfrwt beam="2">  1       -2 0.78266152E-01 0.75116625E+03</pdfrwt>
<totfact> 0.21604377E+01</totfact>
</mgrwt>
</event>
<event>
 4    1  0.2089815E-007  0.7686437E+03  0.7818608E-02  0.9783223E-01
         -2   -1    0    0    0  501 -0.00000000000E+00  0.00000000000E+00  0.57344117463E+03  0.57344117463E+03  0.25500000000E-02 0.  1.
          2   -1    0    0  501    0  0.00000000000E+00 -0.00000000000E+00 -0.10244156398E+04  0.10244156398E+04  0.25500000000E-02 0. -1.
    8880023    1    1    2    0    0 -0.30753892976E+03  0.24984529263E+03 -0.75352310987E+03  0.10763875450E+04  0.65864270000E+03 0. -1.
    8880022    1    1    2    0    0  0.30753892976E+03 -0.24984529263E+03  0.30254864472E+03  0.52146926947E+03  0.15294330000E+03 0.  0.
<mgrwt>
<rscale>  0 0.66270722E+03</rscale>
<asrwt>0</asrwt>
<pdfrwt beam="1">  1        2 0.15760241E+00 0.76864366E+03</pdfrwt>
<pdfrwt beam="2">  1       -2 0.88221719E-01 0.76864366E+03</pdfrwt>
<totfact> 0.27281061E+01</totfact>
</mgrwt>
</event>
<event>
 4    1  0.2089815E-007  0.8043843E+03  0.7818608E-02  0.9701395E-01
          2   -1    0    0  501    0  0.00000000000E+00  0.00000000000E+00  0.21255606534E+04  0.21255606534E+04  0.25500000000E-02 0. -1.
         -2   -1    0    0    0  501 -0.00000000000E+00 -0.00000000000E+00 -0.37728146937E+03  0.37728146938E+03  0.25500000000E-02 0.  1.
    8880023    1    1    2    0    0 -0.23760965441E+03 -0.39593630849E+03  0.18397247436E+04  0.20078897497E+04  0.65864270000E+03 0. -1.
    8880022    1    1    2    0    0  0.23760965441E+03  0.39593630849E+03 -0.91445559614E+02  0.49495237310E+03  0.15294330000E+03 0.  0.
<mgrwt>
<rscale>  0 0.70933780E+03</rscale>
<asrwt>0</asrwt>
<pdfrwt beam="1">  1        2 0.32700934E+00 0.80438431E+03</pdfrwt>
<pdfrwt beam="2">  1       -2 0.58043302E-01 0.80438431E+03</pdfrwt>
<totfact> 0.16259076E+01</totfact>
</mgrwt>
</event>
<event>
 4    1  0.2089815E-007  0.6977014E+03  0.7818608E-02  0.1000687E+00
          2   -1    0    0  501    0  0.00000000000E+00  0.00000000000E+00  0.93214563934E+03  0.93214563934E+03  0.25500000000E-02 0. -1.
         -2   -1    0    0    0  501 -0.00000000000E+00 -0.00000000000E+00 -0.41662212674E+03  0.41662212675E+03  0.25500000000E-02 0.  1.
    8880023    1    1    2    0    0 -0.25170613604E+02  0.22878698902E+03  0.72182897839E+03  0.10039045405E+04  0.65864270000E+03 0. -1.
    8880022    1    1    2    0    0  0.25170613604E+02 -0.22878698902E+03 -0.20630546579E+03  0.34486322559E+03  0.15294330000E+03 0.  0.
<mgrwt>
<rscale>  0 0.55349872E+03</rscale>
<asrwt>0</asrwt>
<pdfrwt beam="1">  1        2 0.14340702E+00 0.69770141E+03</pdfrwt>
<pdfrwt beam="2">  1       -2 0.64095713E-01 0.69770141E+03</pdfrwt>
<totfact> 0.63947874E+01</totfact>
</mgrwt>
</event>
<event>
 4    1  0.2089815E-007  0.8638422E+03  0.7818608E-02  0.9586765E-01
         -2   -1    0    0    0  501 -0.00000000000E+00  0.00000000000E+00  0.25411021322E+03  0.25411021323E+03  0.25500000000E-02 0.  1.
          2   -1    0    0  501    0  0.00000000000E+00 -0.00000000000E+00 -0.21987516422E+04  0.21987516422E+04  0.25500000000E-02 0. -1.
    8880023    1    1    2    0    0 -0.39855078527E+03  0.39188055660E+03 -0.14645742883E+04  0.17003532431E+04  0.65864270000E+03 0.  1.
    8880022    1    1    2    0    0  0.39855078527E+03 -0.39188055660E+03 -0.48006714070E+03  0.75250861236E+03  0.15294330000E+03 0.  0.
<mgrwt>
<rscale>  0 0.78178378E+03</rscale>
<asrwt>0</asrwt>
<pdfrwt beam="1">  1        2 0.33826947E+00 0.86384218E+03</pdfrwt>
<pdfrwt beam="2">  1       -2 0.39093880E-01 0.86384218E+03</pdfrwt>
<totfact> 0.32680469E+01</totfact>
</mgrwt>
</event>
<event>
 4    1  0.2089815E-007  0.6735046E+03  0.7818608E-02  0.1013266E+00
         -2   -1    0    0    0  501 -0.00000000000E+00  0.00000000000E+00  0.24284451021E+04  0.24284451021E+04  0.25500000000E-02 0.  1.
          2   -1    0    0  501    0  0.00000000000E+00 -0.00000000000E+00 -0.17521613765E+03  0.17521613767E+03  0.25500000000E-02 0. -1.
    8880023    1    1    2    0    0 -0.62817470802E+02 -0.12590557000E+03  0.50165449917E+03  0.83980098237E+03  0.65864270000E+03 0. -1.
    8880022    1    1    2    0    0  0.62817470802E+02  0.12590557000E+03  0.17515744652E+04  0.17638602574E+04  0.15294330000E+03 0.  0.
<mgrwt>
<rscale>  0 0.50197051E+03</rscale>
<asrwt>0</asrwt>
<pdfrwt beam="1">  1        2 0.26956331E-01 0.67350461E+03</pdfrwt>
<pdfrwt beam="2">  1       -2 0.37360691E+00 0.67350461E+03</pdfrwt>
<totfact> 0.23651028E+00</totfact>
</mgrwt>
</event>
<event>
 4    1  0.2089815E-007  0.7789953E+03  0.7818608E-02  0.9758202E-01
         -2   -1    0    0    0  501 -0.00000000000E+00  0.00000000000E+00  0.12898286851E+04  0.12898286851E+04  0.25500000000E-02 0.  1.
          2   -1    0    0  501    0  0.00000000000E+00 -0.00000000000E+00 -0.14391477813E+04  0.14391477813E+04  0.25500000000E-02 0. -1.
    8880023    1    1    2    0    0 -0.38047810428E+03  0.16810656219E+03 -0.12890286112E+04  0.15061302636E+04  0.65864270000E+03 0. -1.
    8880022    1    1    2    0    0  0.38047810428E+03 -0.16810656219E+03  0.11397095150E+04  0.12228462028E+04  0.15294330000E+03 0.  0.
<mgrwt>
<rscale>  0 0.67654698E+03</rscale>
<asrwt>0</asrwt>
<pdfrwt beam="1">  1        2 0.22140735E+00 0.77899526E+03</pdfrwt>
<pdfrwt beam="2">  1       -2 0.19843518E+00 0.77899526E+03</pdfrwt>
<totfact> 0.19203138E+00</totfact>
</mgrwt>
</event>
<event>
 4    1  0.2089815E-007  0.7484414E+03  0.7818608E-02  0.9836007E-01
          2   -1    0    0  501    0  0.00000000000E+00  0.00000000000E+00  0.11108449615E+04  0.11108449615E+04  0.25500000000E-02 0. -1.
         -2   -1    0    0    0  501 -0.00000000000E+00 -0.00000000000E+00 -0.58384059791E+03  0.58384059792E+03  0.25500000000E-02 0.  1.
    8880023    1    1    2    0    0 -0.19975183055E+03 -0.29402984849E+03  0.89085482864E+03  0.11635234753E+04  0.65864270000E+03 0. -1.
    8880022    1    1    2    0    0  0.19975183055E+03  0.29402984849E+03 -0.36385046508E+03  0.53116208408E+03  0.15294330000E+03 0.  0.
<mgrwt>
<rscale>  0 0.63465508E+03</rscale>
<asrwt>0</asrwt>
<pdfrwt beam="1">  1        2 0.17089923E+00 0.74844142E+03</pdfrwt>
<pdfrwt beam="2">  1       -2 0.89821630E-01 0.74844142E+03</pdfrwt>
<totfact> 0.23184062E+01</totfact>
</mgrwt>
</event>
<event>
 4    1  0.2722238E-007  0.1205127E+04  0.7818608E-02  0.9152154E-01
         -2   -1    0    0    0  501 -0.00000000000E+00  0.00000000000E+00  0.18126050136E+04  0.18126050136E+04  0.25500000000E-02 0.  1.
          2   -1    0    0  501    0  0.00000000000E+00 -0.00000000000E+00 -0.20565169062E+04  0.20565169062E+04  0.25500000000E-02 0. -1.
    8880023    1    1    2    0    0  0.15927019372E+03  0.99657127229E+03 -0.17043199032E+04  0.20873518712E+04  0.65864270000E+03 0.  0.
    8880022    1    1    2    0    0 -0.15927019372E+03 -0.99657127229E+03  0.14604080107E+04  0.17817700486E+04  0.15294330000E+03 0.  0.
<mgrwt>
<rscale>  0 0.11561218E+04</rscale>
<asrwt>0</asrwt>
<pdfrwt beam="1">  1        2 0.31638722E+00 0.12051272E+04</pdfrwt>
<pdfrwt beam="2">  1       -2 0.27886231E+00 0.12051272E+04</pdfrwt>
<totfact> 0.25916609E-01</totfact>
</mgrwt>
</event>
<event>
 4    1  0.2089815E-007  0.2628460E+04  0.7818608E-02  0.8365348E-01
          2   -1    0    0  501    0  0.00000000000E+00  0.00000000000E+00  0.31611124083E+04  0.31611124083E+04  0.25500000000E-02 0. -1.
         -2   -1    0    0    0  501 -0.00000000000E+00 -0.00000000000E+00 -0.23496565414E+04  0.23496565414E+04  0.25500000000E-02 0.  1.
    8880023    1    1    2    0    0  0.25401903631E+04  0.14975449134E+03 -0.44972901123E+03  0.26666570605E+04  0.65864270000E+03 0.  0.
    8880022    1    1    2    0    0 -0.25401903631E+04 -0.14975449134E+03  0.12611848781E+04  0.28441118892E+04  0.15294330000E+03 0.  0.
<mgrwt>
<rscale>  0 0.26084154E+04</rscale>
<asrwt>0</asrwt>
<pdfrwt beam="1">  1        2 0.48632498E+00 0.26284603E+04</pdfrwt>
<pdfrwt beam="2">  1       -2 0.36148562E+00 0.26284603E+04</pdfrwt>
<totfact> 0.14956802E-02</totfact>
</mgrwt>
</event>
<event>
 4    1  0.2089815E-007  0.1475719E+04  0.7818608E-02  0.8926974E-01
          2   -1    0    0  501    0  0.00000000000E+00  0.00000000000E+00  0.14518090599E+04  0.14518090599E+04  0.25500000000E-02 0. -1.
         -2   -1    0    0    0  501 -0.00000000000E+00 -0.00000000000E+00 -0.15857274707E+04  0.15857274707E+04  0.25500000000E-02 0.  1.
    8880023    1    1    2    0    0  0.13273591390E+03 -0.13138944203E+04  0.50872657057E+03  0.15609453227E+04  0.65864270000E+03 0.  0.
    8880022    1    1    2    0    0 -0.13273591390E+03  0.13138944203E+04 -0.64264498136E+03  0.14765912080E+04  0.15294330000E+03 0.  0.
<mgrwt>
<rscale>  0 0.14376975E+04</rscale>
<asrwt>0</asrwt>
<pdfrwt beam="1">  1        2 0.22335524E+00 0.14757193E+04</pdfrwt>
<pdfrwt beam="2">  1       -2 0.24395807E+00 0.14757193E+04</pdfrwt>
<totfact> 0.89272505E-01</totfact>
</mgrwt>
</event>
<event>
 4    1  0.2089815E-007  0.7230543E+03  0.7818608E-02  0.9912383E-01
          2   -1    0    0  501    0  0.00000000000E+00  0.00000000000E+00  0.60771729284E+03  0.60771729284E+03  0.25500000000E-02 0. -1.
         -2   -1    0    0    0  501 -0.00000000000E+00 -0.00000000000E+00 -0.80602890241E+03  0.80602890241E+03  0.25500000000E-02 0.  1.
    8880023    1    1    2    0    0 -0.90600223567E+02  0.28423403169E+03  0.32461925099E+03  0.79258138362E+03  0.65864270000E+03 0. -1.
    8880022    1    1    2    0    0  0.90600223567E+02 -0.28423403169E+03 -0.52293086056E+03  0.62116481164E+03  0.15294330000E+03 0.  0.
<mgrwt>
<rscale>  0 0.59664870E+03</rscale>
<asrwt>0</asrwt>
<pdfrwt beam="1">  1        2 0.93494968E-01 0.72305435E+03</pdfrwt>
<pdfrwt beam="2">  1       -2 0.12400445E+00 0.72305435E+03</pdfrwt>
<totfact> 0.24259830E+01</totfact>
</mgrwt>
</event>
<event>
 4    1  0.2089815E-007  0.9977218E+03  0.7818608E-02  0.9384544E-01
          2   -1    0    0  501    0  0.00000000000E+00  0.00000000000E+00  0.11803678185E+04  0.11803678185E+04  0.25500000000E-02 0. -1.
         -2   -1    0    0    0  501 -0.00000000000E+00 -0.00000000000E+00 -0.10259006978E+04  0.10259006978E+04  0.25500000000E-02 0.  1.
    8880023    1    1    2    0    0  0.24195516069E+03  0.70929287189E+03  0.74067154482E+03  0.12425953571E+04  0.65864270000E+03 0.  0.
    8880022    1    1    2    0    0 -0.24195516069E+03 -0.70929287189E+03 -0.58620442418E+03  0.96367315924E+03  0.15294330000E+03 0.  0.
<mgrwt>
<rscale>  0 0.93358617E+03</rscale>
<asrwt>0</asrwt>
<pdfrwt beam="1">  1        2 0.18159505E+00 0.99772185E+03</pdfrwt>
<pdfrwt beam="2">  1       -2 0.15783088E+00 0.99772185E+03</pdfrwt>
<totfact> 0.50441653E+00</totfact>
</mgrwt>
</event>
<event>
 4    1  0.2357757E-007  0.1501661E+04  0.7818608E-02  0.8908464E-01
          2   -1    0    0  501    0  0.00000000000E+00  0.00000000000E+00  0.30591371549E+04  0.30591371549E+04  0.25500000000E-02 0. -1.
         -2   -1    0    0    0  501 -0.00000000000E+00 -0.00000000000E+00 -0.14511279539E+04  0.14511279539E+04  0.25500000000E-02 0.  1.
    8880023    1    1    2    0    0  0.31969592382E+03  0.13110949586E+04  0.24779067541E+04  0.28974139439E+04  0.65864270000E+03 0.  0.
    8880022    1    1    2    0    0 -0.31969592382E+03 -0.13110949586E+04 -0.86989755305E+03  0.16128511649E+04  0.15294330000E+03 0.  0.
<mgrwt>
<rscale>  0 0.14644203E+04</rscale>
<asrwt>0</asrwt>
<pdfrwt beam="1">  1        2 0.47063647E+00 0.15016610E+04</pdfrwt>
<pdfrwt beam="2">  1       -2 0.22325046E+00 0.15016610E+04</pdfrwt>
<totfact> 0.14182507E-01</totfact>
</mgrwt>
</event>
<event>
 4    1  0.2089815E-007  0.7056907E+03  0.7818608E-02  0.9974366E-01
          2   -1    0    0  501    0  0.00000000000E+00  0.00000000000E+00  0.19704117583E+04  0.19704117583E+04  0.25500000000E-02 0. -1.
         -2   -1    0    0    0  501 -0.00000000000E+00 -0.00000000000E+00 -0.82292167160E+03  0.82292167161E+03  0.25500000000E-02 0.  1.
    8880023    1    1    2    0    0  0.20242019487E+03  0.15236520095E+03  0.18774329514E+04  0.20056803791E+04  0.65864270000E+03 0. -1.
    8880022    1    1    2    0    0 -0.20242019487E+03 -0.15236520095E+03 -0.72994286470E+03  0.78765305084E+03  0.15294330000E+03 0.  0.
<mgrwt>
<rscale>  0 0.56788690E+03</rscale>
<asrwt>0</asrwt>
<pdfrwt beam="1">  1        2 0.30314027E+00 0.70569065E+03</pdfrwt>
<pdfrwt beam="2">  1       -2 0.12660333E+00 0.70569065E+03</pdfrwt>
<totfact> 0.33645222E+00</totfact>
</mgrwt>
</event>
<event>
 4    1  0.2089815E-007  0.1019285E+04  0.7818608E-02  0.9356750E-01
          2   -1    0    0  501    0  0.00000000000E+00  0.00000000000E+00  0.39831244433E+04  0.39831244433E+04  0.25500000000E-02 0. -1.
         -2   -1    0    0    0  501 -0.00000000000E+00 -0.00000000000E+00 -0.27525452282E+03  0.27525452283E+03  0.25500000000E-02 0.  1.
    8880023    1    1    2    0    0  0.77000972589E+03 -0.11053211832E+03  0.30884300202E+04  0.32522826635E+04  0.65864270000E+03 0.  0.
    8880022    1    1    2    0    0 -0.77000972589E+03  0.11053211832E+03  0.61943990027E+03  0.10060963027E+04  0.15294330000E+03 0.  0.
<mgrwt>
<rscale>  0 0.95722064E+03</rscale>
<asrwt>0</asrwt>
<pdfrwt beam="1">  1        2 0.61278837E+00 0.10192853E+04</pdfrwt>
<pdfrwt beam="2">  1       -2 0.42346850E-01 0.10192853E+04</pdfrwt>
<totfact> 0.19604973E+00</totfact>
</mgrwt>
</event>
<event>
 4    1  0.2089815E-007  0.6879490E+03  0.7818608E-02  0.1005143E+00
          2   -1    0    0  501    0  0.00000000000E+00  0.00000000000E+00  0.45582461468E+03  0.45582461469E+03  0.25500000000E-02 0. -1.
         -2   -1    0    0    0  501 -0.00000000000E+00 -0.00000000000E+00 -0.90855418188E+03  0.90855418188E+03  0.25500000000E-02 0.  1.
    8880023    1    1    2    0    0  0.18150095676E+03  0.80752921768E+02  0.15654755623E+03  0.70553594898E+03  0.65864270000E+03 0. -1.
    8880022    1    1    2    0    0 -0.18150095676E+03 -0.80752921768E+02 -0.60927712343E+03  0.65884284759E+03  0.15294330000E+03 0.  0.
<mgrwt>
<rscale>  0 0.53451502E+03</rscale>
<asrwt>0</asrwt>
<pdfrwt beam="1">  1        2 0.70126864E-01 0.68794901E+03</pdfrwt>
<pdfrwt beam="2">  1       -2 0.13977757E+00 0.68794901E+03</pdfrwt>
<totfact> 0.25158409E+01</totfact>
</mgrwt>
</event>
<event>
 4    1  0.2089815E-007  0.1215308E+04  0.7818608E-02  0.9142384E-01
          2   -1    0    0  501    0  0.00000000000E+00  0.00000000000E+00  0.15315828433E+04  0.15315828433E+04  0.25500000000E-02 0. -1.
         -2   -1    0    0    0  501 -0.00000000000E+00 -0.00000000000E+00 -0.97127886465E+03  0.97127886465E+03  0.25500000000E-02 0.  1.
    8880023    1    1    2    0    0 -0.19125992969E+03  0.10032860586E+04  0.78389983997E+03  0.14461923943E+04  0.65864270000E+03 0. -1.
    8880022    1    1    2    0    0  0.19125992969E+03 -0.10032860586E+04 -0.22359586134E+03  0.10566693136E+04  0.15294330000E+03 0.  0.
<mgrwt>
<rscale>  0 0.11668436E+04</rscale>
<asrwt>0</asrwt>
<pdfrwt beam="1">  1        2 0.23562813E+00 0.12153080E+04</pdfrwt>
<pdfrwt beam="2">  1       -2 0.14942752E+00 0.12153080E+04</pdfrwt>
<totfact> 0.35792949E+00</totfact>
</mgrwt>
</event>
<event>
 4    1  0.2089815E-007  0.8473215E+03  0.7818608E-02  0.9616527E-01
         -2   -1    0    0    0  501 -0.00000000000E+00  0.00000000000E+00  0.60414420232E+03  0.60414420232E+03  0.25500000000E-02 0.  1.
          2   -1    0    0  501    0  0.00000000000E+00 -0.00000000000E+00 -0.18092287931E+04  0.18092287931E+04  0.25500000000E-02 0. -1.
    8880023    1    1    2    0    0 -0.49912015360E+03 -0.18714313941E+03 -0.15455957113E+04  0.17626173128E+04  0.65864270000E+03 0.  0.
    8880022    1    1    2    0    0  0.49912015360E+03  0.18714313941E+03  0.34051112046E+03  0.65075568267E+03  0.15294330000E+03 0.  0.
<mgrwt>
<rscale>  0 0.76211938E+03</rscale>
<asrwt>0</asrwt>
<pdfrwt beam="1">  1        2 0.27834289E+00 0.84732148E+03</pdfrwt>
<pdfrwt beam="2">  1       -2 0.92945263E-01 0.84732148E+03</pdfrwt>
<totfact> 0.85076761E+00</totfact>
</mgrwt>
</event>
<event>
 4    1  0.2089815E-007  0.1141115E+04  0.7818608E-02  0.9216603E-01
          2   -1    0    0  501    0  0.00000000000E+00  0.00000000000E+00  0.18639266516E+04  0.18639266516E+04  0.25500000000E-02 0. -1.
         -2   -1    0    0    0  501 -0.00000000000E+00 -0.00000000000E+00 -0.58414334046E+03  0.58414334047E+03  0.25500000000E-02 0.  1.
    8880023    1    1    2    0    0  0.14645492723E+03 -0.92026344704E+03  0.74614680851E+03  0.13634071746E+04  0.65864270000E+03 0. -1.
    8880022    1    1    2    0    0 -0.14645492723E+03  0.92026344704E+03  0.53363650267E+03  0.10846628175E+04  0.15294330000E+03 0.  1.
<mgrwt>
<rscale>  0 0.10883687E+04</rscale>
<asrwt>0</asrwt>
<pdfrwt beam="1">  1        2 0.28675795E+00 0.11411153E+04</pdfrwt>
<pdfrwt beam="2">  1       -2 0.89868205E-01 0.11411153E+04</pdfrwt>
<totfact> 0.83067867E+00</totfact>
</mgrwt>
</event>
<event>
 4    1  0.2089815E-007  0.7759606E+03  0.7818608E-02  0.9765413E-01
          2   -1    0    0  501    0  0.00000000000E+00  0.00000000000E+00  0.20402915065E+04  0.20402915065E+04  0.25500000000E-02 0. -1.
         -2   -1    0    0    0  501 -0.00000000000E+00 -0.00000000000E+00 -0.22724282977E+03  0.22724282979E+03  0.25500000000E-02 0.  1.
    8880023    1    1    2    0    0  0.26929828359E+03 -0.30948842129E+03  0.16051116136E+04  0.17828343015E+04  0.65864270000E+03 0.  0.
    8880022    1    1    2    0    0 -0.26929828359E+03  0.30948842129E+03  0.20793706319E+03  0.48470003478E+03  0.15294330000E+03 0.  0.
<mgrwt>
<rscale>  0 0.67252196E+03</rscale>
<asrwt>0</asrwt>
<pdfrwt beam="1">  1        2 0.31389100E+00 0.77596060E+03</pdfrwt>
<pdfrwt beam="2">  1       -2 0.34960435E-01 0.77596060E+03</pdfrwt>
<totfact> 0.50046523E+01</totfact>
</mgrwt>
</event>
<event>
 4    1  0.2089815E-007  0.7016733E+03  0.7818608E-02  0.9990329E-01
          2   -1    0    0  501    0  0.00000000000E+00  0.00000000000E+00  0.66861887551E+03  0.66861887551E+03  0.25500000000E-02 0. -1.
         -2   -1    0    0    0  501 -0.00000000000E+00 -0.00000000000E+00 -0.51054264216E+03  0.51054264217E+03  0.25500000000E-02 0.  1.
    8880023    1    1    2    0    0  0.67052070737E+02 -0.23246328973E+03  0.39710741564E+03  0.80625037493E+03  0.65864270000E+03 0. -1.
    8880022    1    1    2    0    0 -0.67052070737E+02  0.23246328973E+03 -0.23903118229E+03  0.37291114275E+03  0.15294330000E+03 0.  0.
<mgrwt>
<rscale>  0 0.56076313E+03</rscale>
<asrwt>0</asrwt>
<pdfrwt beam="1">  1        2 0.10286444E+00 0.70167326E+03</pdfrwt>
<pdfrwt beam="2">  1       -2 0.78545022E-01 0.70167326E+03</pdfrwt>
<totfact> 0.63528908E+01</totfact>
</mgrwt>
</event>
<event>
 4    1  0.2089815E-007  0.7616544E+03  0.7818608E-02  0.9800843E-01
         -2   -1    0    0    0  501 -0.00000000000E+00  0.00000000000E+00  0.10809690392E+04  0.10809690392E+04  0.25500000000E-02 0.  1.
          2   -1    0    0  501    0  0.00000000000E+00 -0.00000000000E+00 -0.23521085492E+04  0.23521085492E+04  0.25500000000E-02 0. -1.
    8880023    1    1    2    0    0 -0.27076983928E+03 -0.27016837558E+03 -0.22476707963E+04  0.23732133220E+04  0.65864270000E+03 0. -1.
    8880022    1    1    2    0    0  0.27076983928E+03  0.27016837558E+03  0.97653128626E+03  0.10598642664E+04  0.15294330000E+03 0.  0.
<mgrwt>
<rscale>  0 0.65317320E+03</rscale>
<asrwt>0</asrwt>
<pdfrwt beam="1">  1        2 0.36186285E+00 0.76165443E+03</pdfrwt>
<pdfrwt beam="2">  1       -2 0.16630293E+00 0.76165443E+03</pdfrwt>
<totfact> 0.10040869E+00</totfact>
</mgrwt>
</event>
<event>
 4    1  0.2089815E-007  0.1309783E+04  0.7818608E-02  0.9057157E-01
         -2   -1    0    0    0  501 -0.00000000000E+00  0.00000000000E+00  0.64040102688E+03  0.64040102689E+03  0.25500000000E-02 0.  1.
          2   -1    0    0  501    0  0.00000000000E+00 -0.00000000000E+00 -0.27728095989E+04  0.27728095989E+04  0.25500000000E-02 0. -1.
    8880023    1    1    2    0    0 -0.73516076648E+03 -0.86096496097E+03 -0.46072164793E+03  0.13884511730E+04  0.65864270000E+03 0.  1.
    8880022    1    1    2    0    0  0.73516076648E+03  0.86096496097E+03 -0.16716869241E+04  0.20247594528E+04  0.15294330000E+03 0.  0.
<mgrwt>
<rscale>  0 0.12657724E+04</rscale>
<asrwt>0</asrwt>
<pdfrwt beam="1">  1        2 0.42658609E+00 0.13097833E+04</pdfrwt>
<pdfrwt beam="2">  1       -2 0.98523237E-01 0.13097833E+04</pdfrwt>
<totfact> 0.20022885E+00</totfact>
</mgrwt>
</event>
<event>
 4    1  0.2089815E-007  0.6984040E+03  0.7818608E-02  0.1000389E+00
          2   -1    0    0  501    0  0.00000000000E+00  0.00000000000E+00  0.75950560968E+03  0.75950560969E+03  0.25500000000E-02 0. -1.
         -2   -1    0    0    0  501 -0.00000000000E+00 -0.00000000000E+00 -0.14053199271E+04  0.14053199271E+04  0.25500000000E-02 0.  1.
    8880023    1    1    2    0    0 -0.18551707899E+03 -0.13979054705E+03  0.58001221529E+03  0.90784489853E+03  0.65864270000E+03 0. -1.
    8880022    1    1    2    0    0  0.18551707899E+03  0.13979054705E+03 -0.12258265327E+04  0.12569806383E+04  0.15294330000E+03 0.  0.
<mgrwt>
<rscale>  0 0.55480113E+03</rscale>
<asrwt>0</asrwt>
<pdfrwt beam="1">  1        2 0.11684702E+00 0.69840403E+03</pdfrwt>
<pdfrwt beam="2">  1       -2 0.21620306E+00 0.69840403E+03</pdfrwt>
<totfact> 0.39774877E+00</totfact>
</mgrwt>
</event>
<event>
 4    1  0.2089815E-007  0.9168597E+03  0.7818608E-02  0.9499491E-01
         -2   -1    0    0    0  501 -0.00000000000E+00  0.00000000000E+00  0.10337967700E+04  0.10337967700E+04  0.25500000000E-02 0.  1.
          2   -1    0    0  501    0  0.00000000000E+00 -0.00000000000E+00 -0.22234426358E+04  0.22234426358E+04  0.25500000000E-02 0. -1.
    8880023    1    1    2    0    0  0.63079138851E+03 -0.94465086893E+02 -0.20086224560E+04  0.22079845574E+04  0.65864270000E+03 0.  0.
    8880022    1    1    2    0    0 -0.63079138851E+03  0.94465086893E+02  0.81897659022E+03  0.10492548484E+04  0.15294330000E+03 0.  0.
<mgrwt>
<rscale>  0 0.84321360E+03</rscale>
<asrwt>0</asrwt>
<pdfrwt beam="1">  1        2 0.34206810E+00 0.91685966E+03</pdfrwt>
<pdfrwt beam="2">  1       -2 0.15904566E+00 0.91685966E+03</pdfrwt>
<totfact> 0.13002082E+00</totfact>
</mgrwt>
</event>
<event>
 4    1  0.2189291E-007  0.8656013E+03  0.7818608E-02  0.9583676E-01
          2   -1    0    0  501    0  0.00000000000E+00  0.00000000000E+00  0.18616830850E+04  0.18616830850E+04  0.25500000000E-02 0. -1.
         -2   -1    0    0    0  501 -0.00000000000E+00 -0.00000000000E+00 -0.84234607290E+03  0.84234607291E+03  0.25500000000E-02 0.  1.
    8880023    1    1    2    0    0  0.51533644890E+03  0.22334651124E+03  0.16391872177E+04  0.18536990750E+04  0.65864270000E+03 0.  0.
    8880022    1    1    2    0    0 -0.51533644890E+03 -0.22334651124E+03 -0.61985020556E+03  0.85033008297E+03  0.15294330000E+03 0.  0.
<mgrwt>
<rscale>  0 0.78386064E+03</rscale>
<asrwt>0</asrwt>
<pdfrwt beam="1">  1        2 0.28641278E+00 0.86560125E+03</pdfrwt>
<pdfrwt beam="2">  1       -2 0.12959170E+00 0.86560125E+03</pdfrwt>
<totfact> 0.35429818E+00</totfact>
</mgrwt>
</event>
<event>
 4    1  0.2089815E-007  0.2278570E+04  0.7818608E-02  0.8495783E-01
          2   -1    0    0  501    0  0.00000000000E+00  0.00000000000E+00  0.24926653246E+04  0.24926653246E+04  0.25500000000E-02 0. -1.
         -2   -1    0    0    0  501 -0.00000000000E+00 -0.00000000000E+00 -0.28624289491E+04  0.28624289491E+04  0.25500000000E-02 0.  1.
    8880023    1    1    2    0    0  0.18765466070E+04  0.11120440841E+04  0.12822152754E+04  0.26145660122E+04  0.65864270000E+03 0.  0.
    8880022    1    1    2    0    0 -0.18765466070E+04 -0.11120440841E+04 -0.16519788999E+04  0.27405282615E+04  0.15294330000E+03 0.  0.
<mgrwt>
<rscale>  0 0.22552350E+04</rscale>
<asrwt>0</asrwt>
<pdfrwt beam="1">  1        2 0.38348697E+00 0.22785696E+04</pdfrwt>
<pdfrwt beam="2">  1       -2 0.44037369E+00 0.22785696E+04</pdfrwt>
<totfact> 0.12061864E-02</totfact>
</mgrwt>
</event>
<event>
 4    1  0.2089815E-007  0.6896736E+03  0.7818608E-02  0.1004308E+00
         -2   -1    0    0    0  501 -0.00000000000E+00  0.00000000000E+00  0.38363587456E+03  0.38363587457E+03  0.25500000000E-02 0.  1.
          2   -1    0    0  501    0  0.00000000000E+00 -0.00000000000E+00 -0.10885879124E+04  0.10885879124E+04  0.25500000000E-02 0. -1.
    8880023    1    1    2    0    0 -0.13931507475E+03 -0.14976892405E+03 -0.91201758312E+03  0.11434271725E+04  0.65864270000E+03 0. -1.
    8880022    1    1    2    0    0  0.13931507475E+03  0.14976892405E+03  0.20706554523E+03  0.32879661450E+03  0.15294330000E+03 0.  0.
<mgrwt>
<rscale>  0 0.53800895E+03</rscale>
<asrwt>0</asrwt>
<pdfrwt beam="1">  1        2 0.16747506E+00 0.68967357E+03</pdfrwt>
<pdfrwt beam="2">  1       -2 0.59020904E-01 0.68967357E+03</pdfrwt>
<totfact> 0.60657495E+01</totfact>
</mgrwt>
</event>
<event>
 4    1  0.2089815E-007  0.1021211E+04  0.7818608E-02  0.9354318E-01
          2   -1    0    0  501    0  0.00000000000E+00  0.00000000000E+00  0.30951570012E+04  0.30951570012E+04  0.25500000000E-02 0. -1.
         -2   -1    0    0    0  501 -0.00000000000E+00 -0.00000000000E+00 -0.51547917024E+03  0.51547917025E+03  0.25500000000E-02 0.  1.
    8880023    1    1    2    0    0 -0.27418942967E+03  0.73067234806E+03  0.26223964248E+04  0.28142201653E+04  0.65864270000E+03 0. -1.
    8880022    1    1    2    0    0  0.27418942967E+03 -0.73067234806E+03 -0.42718593878E+02  0.79641600614E+03  0.15294330000E+03 0.  0.
<mgrwt>
<rscale>  0 0.95932382E+03</rscale>
<asrwt>0</asrwt>
<pdfrwt beam="1">  1        2 0.47617800E+00 0.10212111E+04</pdfrwt>
<pdfrwt beam="2">  1       -2 0.79304488E-01 0.10212111E+04</pdfrwt>
<totfact> 0.21800531E+00</totfact>
</mgrwt>
</event>
<event>
 4    1  0.2089815E-007  0.7299744E+03  0.7818608E-02  0.9890177E-01
          2   -1    0    0  501    0  0.00000000000E+00  0.00000000000E+00  0.73996591082E+03  0.73996591082E+03  0.25500000000E-02 0. -1.
         -2   -1    0    0    0  501 -0.00000000000E+00 -0.00000000000E+00 -0.94875718814E+03  0.94875718814E+03  0.25500000000E-02 0.  1.
    8880023    1    1    2    0    0  0.35693153002E+02  0.31269539802E+03  0.50918324885E+03  0.89001696629E+03  0.65864270000E+03 0. -1.
    8880022    1    1    2    0    0 -0.35693153002E+02 -0.31269539802E+03 -0.71797452617E+03  0.79870613267E+03  0.15294330000E+03 0.  0.
<mgrwt>
<rscale>  0 0.60739741E+03</rscale>
<asrwt>0</asrwt>
<pdfrwt beam="1">  1        2 0.11384091E+00 0.72997440E+03</pdfrwt>
<pdfrwt beam="2">  1       -2 0.14596264E+00 0.72997440E+03</pdfrwt>
<totfact> 0.12503804E+01</totfact>
</mgrwt>
</event>
<event>
 4    1  0.2089815E-007  0.1164667E+04  0.7818608E-02  0.9192258E-01
          2   -1    0    0  501    0  0.00000000000E+00  0.00000000000E+00  0.16662970511E+04  0.16662970511E+04  0.25500000000E-02 0. -1.
         -2   -1    0    0    0  501 -0.00000000000E+00 -0.00000000000E+00 -0.93835471474E+03  0.93835471474E+03  0.25500000000E-02 0.  1.
    8880023    1    1    2    0    0  0.76024137135E+03  0.58708736018E+03  0.10620791337E+04  0.15762172451E+04  0.65864270000E+03 0.  0.
    8880022    1    1    2    0    0 -0.76024137135E+03 -0.58708736018E+03 -0.33413679731E+03  0.10284345208E+04  0.15294330000E+03 0.  0.
<mgrwt>
<rscale>  0 0.11133697E+04</rscale>
<asrwt>0</asrwt>
<pdfrwt beam="1">  1        2 0.25635339E+00 0.11646668E+04</pdfrwt>
<pdfrwt beam="2">  1       -2 0.14436226E+00 0.11646668E+04</pdfrwt>
<totfact> 0.33133020E+00</totfact>
</mgrwt>
</event>
<event>
 4    1  0.2089815E-007  0.8650196E+03  0.7818608E-02  0.9584696E-01
         -2   -1    0    0    0  501 -0.00000000000E+00  0.00000000000E+00  0.73069262018E+03  0.73069262019E+03  0.25500000000E-02 0.  1.
          2   -1    0    0  501    0  0.00000000000E+00 -0.00000000000E+00 -0.99109626304E+03  0.99109626304E+03  0.25500000000E-02 0. -1.
    8880023    1    1    2    0    0 -0.55895465609E+03  0.44927494597E+02 -0.59614757999E+03  0.10505479193E+04  0.65864270000E+03 0. -1.
    8880022    1    1    2    0    0  0.55895465609E+03 -0.44927494597E+02  0.33574393714E+03  0.67124096394E+03  0.15294330000E+03 0.  0.
<mgrwt>
<rscale>  0 0.78317431E+03</rscale>
<asrwt>0</asrwt>
<pdfrwt beam="1">  1        2 0.15247635E+00 0.86501965E+03</pdfrwt>
<pdfrwt beam="2">  1       -2 0.11241425E+00 0.86501965E+03</pdfrwt>
<totfact> 0.15986031E+01</totfact>
</mgrwt>
</event>
<event>
 4    1  0.2089815E-007  0.7589721E+03  0.7818608E-02  0.9807776E-01
          2   -1    0    0  501    0  0.00000000000E+00  0.00000000000E+00  0.12885917337E+04  0.12885917337E+04  0.25500000000E-02 0. -1.
         -2   -1    0    0    0  501 -0.00000000000E+00 -0.00000000000E+00 -0.69457051016E+03  0.69457051016E+03  0.25500000000E-02 0.  1.
    8880023    1    1    2    0    0 -0.37497771270E+03  0.40250637657E+02  0.10983771178E+04  0.13350920935E+04  0.65864270000E+03 0. -1.
    8880022    1    1    2    0    0  0.37497771270E+03 -0.40250637657E+02 -0.50435589422E+03  0.64807015045E+03  0.15294330000E+03 0.  0.
<mgrwt>
<rscale>  0 0.64946905E+03</rscale>
<asrwt>0</asrwt>
<pdfrwt beam="1">  1        2 0.19824488E+00 0.75897207E+03</pdfrwt>
<pdfrwt beam="2">  1       -2 0.10685700E+00 0.75897207E+03</pdfrwt>
<totfact> 0.12064318E+01</totfact>
</mgrwt>
</event>
<event>
 4    1  0.2097516E-007  0.1160462E+04  0.7818608E-02  0.9196548E-01
          2   -1    0    0  501    0  0.00000000000E+00  0.00000000000E+00  0.31327964137E+04  0.31327964137E+04  0.25500000000E-02 0. -1.
         -2   -1    0    0    0  501 -0.00000000000E+00 -0.00000000000E+00 -0.11424551994E+04  0.11424551994E+04  0.25500000000E-02 0.  1.
    8880023    1    1    2    0    0 -0.36720512359E+03 -0.88205562673E+03  0.27888865769E+04  0.30206887090E+04  0.65864270000E+03 0.  0.
    8880022    1    1    2    0    0  0.36720512359E+03  0.88205562673E+03 -0.79854536258E+03  0.12545629042E+04  0.15294330000E+03 0.  0.
<mgrwt>
<rscale>  0 0.11089127E+04</rscale>
<asrwt>0</asrwt>
<pdfrwt beam="1">  1        2 0.48196869E+00 0.11604620E+04</pdfrwt>
<pdfrwt beam="2">  1       -2 0.17576234E+00 0.11604620E+04</pdfrwt>
<totfact> 0.27599694E-01</totfact>
</mgrwt>
</event>
<event>
 4    1  0.2089815E-007  0.9264424E+03  0.7818608E-02  0.9484851E-01
          2   -1    0    0  501    0  0.00000000000E+00  0.00000000000E+00  0.21481377206E+04  0.21481377206E+04  0.25500000000E-02 0. -1.
         -2   -1    0    0    0  501 -0.00000000000E+00 -0.00000000000E+00 -0.50787503153E+03  0.50787503153E+03  0.25500000000E-02 0.  1.
    8880023    1    1    2    0    0  0.65152304970E+03 -0.17614424886E+01  0.17478344762E+04  0.19781862778E+04  0.65864270000E+03 0.  0.
    8880022    1    1    2    0    0 -0.65152304970E+03  0.17614424886E+01 -0.10757178714E+03  0.67782647438E+03  0.15294330000E+03 0.  0.
<mgrwt>
<rscale>  0 0.85409992E+03</rscale>
<asrwt>0</asrwt>
<pdfrwt beam="1">  1        2 0.33048273E+00 0.92644244E+03</pdfrwt>
<pdfrwt beam="2">  1       -2 0.78134620E-01 0.92644244E+03</pdfrwt>
<totfact> 0.81574735E+00</totfact>
</mgrwt>
</event>
<event>
 4    1  0.2089815E-007  0.1158280E+04  0.7818608E-02  0.9198784E-01
          2   -1    0    0  501    0  0.00000000000E+00  0.00000000000E+00  0.12226373017E+04  0.12226373017E+04  0.25500000000E-02 0. -1.
         -2   -1    0    0    0  501 -0.00000000000E+00 -0.00000000000E+00 -0.17324667949E+04  0.17324667949E+04  0.25500000000E-02 0.  1.
    8880023    1    1    2    0    0  0.57271693053E+03  0.76144397427E+03  0.74121007066E+03  0.13751378780E+04  0.65864270000E+03 0.  0.
    8880022    1    1    2    0    0 -0.57271693053E+03 -0.76144397427E+03 -0.12510395639E+04  0.15799662186E+04  0.15294330000E+03 0.  0.
<mgrwt>
<rscale>  0 0.11065984E+04</rscale>
<asrwt>0</asrwt>
<pdfrwt beam="1">  1        2 0.18809805E+00 0.11582797E+04</pdfrwt>
<pdfrwt beam="2">  1       -2 0.26653335E+00 0.11582797E+04</pdfrwt>
<totfact> 0.91434292E-01</totfact>
</mgrwt>
</event>
<event>
 4    1  0.2089815E-007  0.7707561E+03  0.7818608E-02  0.9778017E-01
          2   -1    0    0  501    0  0.00000000000E+00  0.00000000000E+00  0.25814223955E+04  0.25814223955E+04  0.25500000000E-02 0. -1.
         -2   -1    0    0    0  501 -0.00000000000E+00 -0.00000000000E+00 -0.60893342911E+03  0.60893342911E+03  0.25500000000E-02 0.  1.
    8880023    1    1    2    0    0  0.37103109256E+03 -0.15030222818E+03  0.24384099165E+04  0.25573243750E+04  0.65864270000E+03 0. -1.
    8880022    1    1    2    0    0 -0.37103109256E+03  0.15030222818E+03 -0.46592095014E+03  0.63303144965E+03  0.15294330000E+03 0.  0.
<mgrwt>
<rscale>  0 0.66555749E+03</rscale>
<asrwt>0</asrwt>
<pdfrwt beam="1">  1        2 0.39714189E+00 0.77075615E+03</pdfrwt>
<pdfrwt beam="2">  1       -2 0.93682069E-01 0.77075615E+03</pdfrwt>
<totfact> 0.31513832E+00</totfact>
</mgrwt>
</event>
<event>
 4    1  0.2089815E-007  0.7373539E+03  0.7818608E-02  0.9867723E-01
         -2   -1    0    0    0  501 -0.00000000000E+00  0.00000000000E+00  0.27075361946E+03  0.27075361947E+03  0.25500000000E-02 0.  1.
          2   -1    0    0  501    0  0.00000000000E+00 -0.00000000000E+00 -0.18869243386E+04  0.18869243386E+04  0.25500000000E-02 0. -1.
    8880023    1    1    2    0    0 -0.21419638000E+03 -0.25298317177E+03 -0.16334929259E+04  0.17922025331E+04  0.65864270000E+03 0. -1.
    8880022    1    1    2    0    0  0.21419638000E+03  0.25298317177E+03  0.17322206753E+02  0.36547542499E+03  0.15294330000E+03 0.  0.
<mgrwt>
<rscale>  0 0.61851387E+03</rscale>
<asrwt>0</asrwt>
<pdfrwt beam="1">  1        2 0.29029604E+00 0.73735390E+03</pdfrwt>
<pdfrwt beam="2">  1       -2 0.41654404E-01 0.73735390E+03</pdfrwt>
<totfact> 0.43439426E+01</totfact>
</mgrwt>
</event>
<event>
 4    1  0.2089815E-007  0.1840030E+04  0.7818608E-02  0.8700711E-01
          2   -1    0    0  501    0  0.00000000000E+00  0.00000000000E+00  0.16214784484E+04  0.16214784484E+04  0.25500000000E-02 0. -1.
         -2   -1    0    0    0  501 -0.00000000000E+00 -0.00000000000E+00 -0.20303265737E+04  0.20303265737E+04  0.25500000000E-02 0.  1.
    8880023    1    1    2    0    0  0.12393206735E+04 -0.11899513428E+04  0.13021110387E+03  0.18446314179E+04  0.65864270000E+03 0. -1.
    8880022    1    1    2    0    0 -0.12393206735E+04  0.11899513428E+04 -0.53905922910E+03  0.18071736042E+04  0.15294330000E+03 0.  0.
<mgrwt>
<rscale>  0 0.18105472E+04</rscale>
<asrwt>0</asrwt>
<pdfrwt beam="1">  1        2 0.24945822E+00 0.18400299E+04</pdfrwt>
<pdfrwt beam="2">  1       -2 0.31235793E+00 0.18400299E+04</pdfrwt>
<totfact> 0.26296707E-01</totfact>
</mgrwt>
</event>
<event>
 4    1  0.2089815E-007  0.1002111E+04  0.7818608E-02  0.9378801E-01
          2   -1    0    0  501    0  0.00000000000E+00  0.00000000000E+00  0.35741527536E+04  0.35741527536E+04  0.25500000000E-02 0. -1.
         -2   -1    0    0    0  501 -0.00000000000E+00 -0.00000000000E+00 -0.48448508945E+03  0.48448508945E+03  0.25500000000E-02 0.  1.
    8880023    1    1    2    0    0  0.50947833572E+03 -0.55753799869E+03  0.31304841879E+04  0.32869679420E+04  0.65864270000E+03 0.  0.
    8880022    1    1    2    0    0 -0.50947833572E+03  0.55753799869E+03 -0.40816523781E+02  0.77166990105E+03  0.15294330000E+03 0.  0.
<mgrwt>
<rscale>  0 0.93841028E+03</rscale>
<asrwt>0</asrwt>
<pdfrwt beam="1">  1        2 0.54986966E+00 0.10021113E+04</pdfrwt>
<pdfrwt beam="2">  1       -2 0.74536167E-01 0.10021113E+04</pdfrwt>
<totfact> 0.12103471E+00</totfact>
</mgrwt>
</event>
<event>
 4    1  0.2089815E-007  0.6943308E+03  0.7818608E-02  0.1002158E+00
         -2   -1    0    0    0  501 -0.00000000000E+00  0.00000000000E+00  0.69338100965E+03  0.69338100965E+03  0.25500000000E-02 0.  1.
          2   -1    0    0  501    0  0.00000000000E+00 -0.00000000000E+00 -0.91689431935E+03  0.91689431935E+03  0.25500000000E-02 0. -1.
    8880023    1    1    2    0    0  0.10363633385E+03 -0.19376409589E+03 -0.74850611518E+03  0.10209586795E+04  0.65864270000E+03 0. -1.
    8880022    1    1    2    0    0 -0.10363633385E+03  0.19376409589E+03  0.52499280548E+03  0.58931664949E+03  0.15294330000E+03 0.  0.
<mgrwt>
<rscale>  0 0.54713820E+03</rscale>
<asrwt>0</asrwt>
<pdfrwt beam="1">  1        2 0.14106067E+00 0.69433077E+03</pdfrwt>
<pdfrwt beam="2">  1       -2 0.10667400E+00 0.69433077E+03</pdfrwt>
<totfact> 0.20647596E+01</totfact>
</mgrwt>
</event>
<event>
 4    1  0.2089815E-007  0.7798605E+03  0.7818608E-02  0.9756165E-01
          2   -1    0    0  501    0  0.00000000000E+00  0.00000000000E+00  0.42134511552E+03  0.42134511553E+03  0.25500000000E-02 0. -1.
         -2   -1    0    0    0  501 -0.00000000000E+00 -0.00000000000E+00 -0.11307269017E+04  0.11307269017E+04  0.25500000000E-02 0.  1.
    8880023    1    1    2    0    0  0.35984394493E+03  0.21185959113E+03 -0.83541782472E+02  0.78432237424E+03  0.65864270000E+03 0. -1.
    8880022    1    1    2    0    0 -0.35984394493E+03 -0.21185959113E+03 -0.62584000368E+03  0.76774964297E+03  0.15294330000E+03 0.  0.
<mgrwt>
<rscale>  0 0.67768993E+03</rscale>
<asrwt>0</asrwt>
<pdfrwt beam="1">  1        2 0.64822326E-01 0.77986047E+03</pdfrwt>
<pdfrwt beam="2">  1       -2 0.17395798E+00 0.77986047E+03</pdfrwt>
<totfact> 0.15168429E+01</totfact>
</mgrwt>
</event>
<event>
 4    1  0.2089815E-007  0.1879465E+04  0.7818608E-02  0.8679808E-01
         -2   -1    0    0    0  501 -0.00000000000E+00  0.00000000000E+00  0.15703867724E+04  0.15703867724E+04  0.25500000000E-02 0.  1.
          2   -1    0    0  501    0  0.00000000000E+00 -0.00000000000E+00 -0.29028516996E+04  0.29028516996E+04  0.25500000000E-02 0. -1.
    8880023    1    1    2    0    0  0.40571255650E+03  0.17128850939E+04 -0.18447817141E+04  0.26335542148E+04  0.65864270000E+03 0. -1.
    8880022    1    1    2    0    0 -0.40571255650E+03 -0.17128850939E+04  0.51231678693E+03  0.18396842573E+04  0.15294330000E+03 0.  0.
<mgrwt>
<rscale>  0 0.18506711E+04</rscale>
<asrwt>0</asrwt>
<pdfrwt beam="1">  1        2 0.44659257E+00 0.18794649E+04</pdfrwt>
<pdfrwt beam="2">  1       -2 0.24159797E+00 0.18794649E+04</pdfrwt>
<totfact> 0.13035976E-01</totfact>
</mgrwt>
</event>
<event>
 4    1  0.2089815E-007  0.1610903E+04  0.7818608E-02  0.8835050E-01
          2   -1    0    0  501    0  0.00000000000E+00  0.00000000000E+00  0.33688616186E+04  0.33688616186E+04  0.25500000000E-02 0. -1.
         -2   -1    0    0    0  501 -0.00000000000E+00 -0.00000000000E+00 -0.15521233243E+04  0.15521233243E+04  0.25500000000E-02 0.  1.
    8880023    1    1    2    0    0 -0.11548164657E+04  0.90972423791E+03  0.27398740962E+04  0.31783516998E+04  0.65864270000E+03 0.  0.
    8880022    1    1    2    0    0  0.11548164657E+04 -0.90972423791E+03 -0.92313580185E+03  0.17426332431E+04  0.15294330000E+03 0.  0.
<mgrwt>
<rscale>  0 0.15766067E+04</rscale>
<asrwt>0</asrwt>
<pdfrwt beam="1">  1        2 0.51828640E+00 0.16109033E+04</pdfrwt>
<pdfrwt beam="2">  1       -2 0.23878820E+00 0.16109033E+04</pdfrwt>
<totfact> 0.70202191E-02</totfact>
</mgrwt>
</event>
<event>
 4    1  0.2089815E-007  0.9918948E+03  0.7818608E-02  0.9392239E-01
         -2   -1    0    0    0  501 -0.00000000000E+00  0.00000000000E+00  0.83508404735E+03  0.83508404736E+03  0.25500000000E-02 0.  1.
          2   -1    0    0  501    0  0.00000000000E+00 -0.00000000000E+00 -0.31176851756E+04  0.31176851756E+04  0.25500000000E-02 0. -1.
    8880023    1    1    2    0    0 -0.69837066528E+03  0.24964667698E+03 -0.28427674424E+04  0.30108440656E+04  0.65864270000E+03 0.  0.
    8880022    1    1    2    0    0  0.69837066528E+03 -0.24964667698E+03  0.56016631419E+03  0.94192515734E+03  0.15294330000E+03 0.  0.
<mgrwt>
<rscale>  0 0.92717111E+03</rscale>
<asrwt>0</asrwt>
<pdfrwt beam="1">  1        2 0.47964387E+00 0.99189478E+03</pdfrwt>
<pdfrwt beam="2">  1       -2 0.12847447E+00 0.99189478E+03</pdfrwt>
<totfact> 0.67047203E-01</totfact>
</mgrwt>
</event>
<event>
 4    1  0.2089815E-007  0.1048227E+04  0.7818608E-02  0.9321015E-01
         -2   -1    0    0    0  501 -0.00000000000E+00  0.00000000000E+00  0.91253260735E+03  0.91253260735E+03  0.25500000000E-02 0.  1.
          2   -1    0    0  501    0  0.00000000000E+00 -0.00000000000E+00 -0.13160792360E+04  0.13160792360E+04  0.25500000000E-02 0. -1.
    8880023    1    1    2    0    0  0.73280443024E+03 -0.35772617569E+03 -0.79074407172E+03  0.13130334127E+04  0.65864270000E+03 0.  0.
    8880022    1    1    2    0    0 -0.73280443024E+03  0.35772617569E+03  0.38719744303E+03  0.91557843064E+03  0.15294330000E+03 0. -1.
<mgrwt>
<rscale>  0 0.98870954E+03</rscale>
<asrwt>0</asrwt>
<pdfrwt beam="1">  1        2 0.20247373E+00 0.10482273E+04</pdfrwt>
<pdfrwt beam="2">  1       -2 0.14038963E+00 0.10482273E+04</pdfrwt>
<totfact> 0.56943370E+00</totfact>
</mgrwt>
</event>
<event>
 4    1  0.2089815E-007  0.7442654E+03  0.7818608E-02  0.9847692E-01
          2   -1    0    0  501    0  0.00000000000E+00  0.00000000000E+00  0.13193297556E+04  0.13193297556E+04  0.25500000000E-02 0. -1.
         -2   -1    0    0    0  501 -0.00000000000E+00 -0.00000000000E+00 -0.28787139942E+03  0.28787139943E+03  0.25500000000E-02 0.  1.
    8880023    1    1    2    0    0 -0.20443539497E+03 -0.27986954673E+03  0.97123639678E+03  0.12236139663E+04  0.65864270000E+03 0.  0.
    8880022    1    1    2    0    0  0.20443539497E+03  0.27986954673E+03  0.60221959367E+02  0.38358718867E+03  0.15294330000E+03 0.  0.
<mgrwt>
<rscale>  0 0.62864733E+03</rscale>
<asrwt>0</asrwt>
<pdfrwt beam="1">  1        2 0.20297381E+00 0.74426541E+03</pdfrwt>
<pdfrwt beam="2">  1       -2 0.44287907E-01 0.74426541E+03</pdfrwt>
<totfact> 0.79280608E+01</totfact>
</mgrwt>
</event>
<event>
 4    1  0.2089815E-007  0.7297968E+03  0.7818608E-02  0.9890732E-01
          2   -1    0    0  501    0  0.00000000000E+00  0.00000000000E+00  0.19181124829E+04  0.19181124829E+04  0.25500000000E-02 0. -1.
         -2   -1    0    0    0  501 -0.00000000000E+00 -0.00000000000E+00 -0.37918032650E+03  0.37918032651E+03  0.25500000000E-02 0.  1.
    8880023    1    1    2    0    0  0.83280030946E+02 -0.30308012915E+03  0.17450430193E+04  0.18915016451E+04  0.65864270000E+03 0.  0.
    8880022    1    1    2    0    0 -0.83280030946E+02  0.30308012915E+03 -0.20611086282E+03  0.40579116430E+03  0.15294330000E+03 0.  1.
<mgrwt>
<rscale>  0 0.60712567E+03</rscale>
<asrwt>0</asrwt>
<pdfrwt beam="1">  1        2 0.29509423E+00 0.72979678E+03</pdfrwt>
<pdfrwt beam="2">  1       -2 0.58335435E-01 0.72979678E+03</pdfrwt>
<totfact> 0.21104835E+01</totfact>
</mgrwt>
</event>
<event>
 4    1  0.2089815E-007  0.1212955E+04  0.7818608E-02  0.9144630E-01
          2   -1    0    0  501    0  0.00000000000E+00  0.00000000000E+00  0.23191069213E+04  0.23191069213E+04  0.25500000000E-02 0. -1.
         -2   -1    0    0    0  501 -0.00000000000E+00 -0.00000000000E+00 -0.10178236780E+04  0.10178236780E+04  0.25500000000E-02 0.  1.
    8880023    1    1    2    0    0  0.44758516364E+03 -0.91494170676E+03  0.18173105747E+04  0.21849207621E+04  0.65864270000E+03 0.  0.
    8880022    1    1    2    0    0 -0.44758516364E+03  0.91494170676E+03 -0.51602733136E+03  0.11520098373E+04  0.15294330000E+03 0.  0.
<mgrwt>
<rscale>  0 0.11643673E+04</rscale>
<asrwt>0</asrwt>
<pdfrwt beam="1">  1        2 0.35678567E+00 0.12129555E+04</pdfrwt>
<pdfrwt beam="2">  1       -2 0.15658826E+00 0.12129555E+04</pdfrwt>
<totfact> 0.11499435E+00</totfact>
</mgrwt>
</event>
<event>
 4    1  0.2089815E-007  0.1213196E+04  0.7818608E-02  0.9144400E-01
         -2   -1    0    0    0  501 -0.00000000000E+00  0.00000000000E+00  0.15814017520E+04  0.15814017520E+04  0.25500000000E-02 0.  1.
          2   -1    0    0  501    0  0.00000000000E+00 -0.00000000000E+00 -0.11947764504E+04  0.11947764504E+04  0.25500000000E-02 0. -1.
    8880023    1    1    2    0    0  0.41811205613E+03 -0.92909471772E+03 -0.59668052596E+03  0.13519883662E+04  0.65864270000E+03 0.  0.
    8880022    1    1    2    0    0 -0.41811205613E+03  0.92909471772E+03  0.98330582753E+03  0.14241898362E+04  0.15294330000E+03 0.  0.
<mgrwt>
<rscale>  0 0.11646207E+04</rscale>
<asrwt>0</asrwt>
<pdfrwt beam="1">  1        2 0.18381176E+00 0.12131961E+04</pdfrwt>
<pdfrwt beam="2">  1       -2 0.24329258E+00 0.12131961E+04</pdfrwt>
<totfact> 0.13092333E+00</totfact>
</mgrwt>
</event>
<event>
 4    1  0.2089815E-007  0.9754971E+03  0.7818608E-02  0.9414341E-01
         -2   -1    0    0    0  501 -0.00000000000E+00  0.00000000000E+00  0.14491064562E+04  0.14491064562E+04  0.25500000000E-02 0.  1.
          2   -1    0    0  501    0  0.00000000000E+00 -0.00000000000E+00 -0.15747789565E+04  0.15747789565E+04  0.25500000000E-02 0. -1.
    8880023    1    1    2    0    0 -0.70669255849E+03  0.13553593887E+03 -0.13078029418E+04  0.16315462310E+04  0.65864270000E+03 0. -1.
    8880022    1    1    2    0    0  0.70669255849E+03 -0.13553593887E+03  0.11821304416E+04  0.13923391817E+04  0.15294330000E+03 0.  0.
<mgrwt>
<rscale>  0 0.90904797E+03</rscale>
<asrwt>0</asrwt>
<pdfrwt beam="1">  1        2 0.24227369E+00 0.97549709E+03</pdfrwt>
<pdfrwt beam="2">  1       -2 0.22293945E+00 0.97549709E+03</pdfrwt>
<totfact> 0.10903267E+00</totfact>
</mgrwt>
</event>
<event>
 4    1  0.2089815E-007  0.8759055E+03  0.7818608E-02  0.9565874E-01
          2   -1    0    0  501    0  0.00000000000E+00  0.00000000000E+00  0.52715304351E+03  0.52715304352E+03  0.25500000000E-02 0. -1.
         -2   -1    0    0    0  501 -0.00000000000E+00 -0.00000000000E+00 -0.15838289444E+04  0.15838289444E+04  0.25500000000E-02 0.  1.
    8880023    1    1    2    0    0 -0.36175833304E+03  0.45003467916E+03  0.23977364527E+02  0.87623365848E+03  0.65864270000E+03 0. -1.
    8880022    1    1    2    0    0  0.36175833304E+03 -0.45003467916E+03 -0.10806532654E+04  0.12347483294E+04  0.15294330000E+03 0.  0.
<mgrwt>
<rscale>  0 0.79596658E+03</rscale>
<asrwt>0</asrwt>
<pdfrwt beam="1">  1        2 0.81100469E-01 0.87590554E+03</pdfrwt>
<pdfrwt beam="2">  1       -2 0.24366599E+00 0.87590554E+03</pdfrwt>
<totfact> 0.41190671E+00</totfact>
</mgrwt>
</event>
<event>
 4    1  0.2089815E-007  0.7207066E+03  0.7818608E-02  0.9920202E-01
         -2   -1    0    0    0  501 -0.00000000000E+00  0.00000000000E+00  0.33220224791E+03  0.33220224791E+03  0.25500000000E-02 0.  1.
          2   -1    0    0  501    0  0.00000000000E+00 -0.00000000000E+00 -0.94508503659E+03  0.94508503659E+03  0.25500000000E-02 0. -1.
    8880023    1    1    2    0    0  0.14465280510E+03  0.25432922848E+03 -0.61452590344E+03  0.94713255817E+03  0.65864270000E+03 0. -1.
    8880022    1    1    2    0    0 -0.14465280510E+03 -0.25432922848E+03  0.16431147578E+01  0.33015472634E+03  0.15294330000E+03 0.  0.
<mgrwt>
<rscale>  0 0.59292110E+03</rscale>
<asrwt>0</asrwt>
<pdfrwt beam="1">  1        2 0.14539770E+00 0.72070660E+03</pdfrwt>
<pdfrwt beam="2">  1       -2 0.51108039E-01 0.72070660E+03</pdfrwt>
<totfact> 0.10048539E+02</totfact>
</mgrwt>
</event>
<event>
 4    1  0.2089815E-007  0.1173125E+04  0.7818608E-02  0.9183699E-01
         -2   -1    0    0    0  501 -0.00000000000E+00  0.00000000000E+00  0.11781540587E+04  0.11781540587E+04  0.25500000000E-02 0.  1.
          2   -1    0    0  501    0  0.00000000000E+00 -0.00000000000E+00 -0.12400484835E+04  0.12400484835E+04  0.25500000000E-02 0. -1.
    8880023    1    1    2    0    0  0.14065596705E+03  0.96053580151E+03 -0.57842321308E+03  0.13079742913E+04  0.65864270000E+03 0. -1.
    8880022    1    1    2    0    0 -0.14065596705E+03 -0.96053580151E+03  0.51652878824E+03  0.11102282509E+04  0.15294330000E+03 0.  0.
<mgrwt>
<rscale>  0 0.11223273E+04</rscale>
<asrwt>0</asrwt>
<pdfrwt beam="1">  1        2 0.19077669E+00 0.11731255E+04</pdfrwt>
<pdfrwt beam="2">  1       -2 0.18125447E+00 0.11731255E+04</pdfrwt>
<totfact> 0.31029215E+00</totfact>
</mgrwt>
</event>
<event>
 4    1  0.2089815E-007  0.6613144E+03  0.7818608E-02  0.1022848E+00
          2   -1    0    0  501    0  0.00000000000E+00  0.00000000000E+00  0.21892064342E+04  0.21892064342E+04  0.25500000000E-02 0. -1.
         -2   -1    0    0    0  501 -0.00000000000E+00 -0.00000000000E+00 -0.42164039506E+03  0.42164039506E+03  0.25500000000E-02 0.  1.
    8880023    1    1    2    0    0  0.38693286977E+02  0.45049096713E+02  0.21207218541E+04  0.22214405192E+04  0.65864270000E+03 0.  0.
    8880022    1    1    2    0    0 -0.38693286977E+02 -0.45049096713E+02 -0.35315581503E+03  0.38940631001E+03  0.15294330000E+03 0.  1.
<mgrwt>
<rscale>  0 0.46672584E+03</rscale>
<asrwt>0</asrwt>
<pdfrwt beam="1">  1        2 0.33680098E+00 0.66131445E+03</pdfrwt>
<pdfrwt beam="2">  1       -2 0.64867755E-01 0.66131445E+03</pdfrwt>
<totfact> 0.12115006E+01</totfact>
</mgrwt>
</event>
<event>
 4    1  0.2089815E-007  0.6820772E+03  0.7818608E-02  0.1008172E+00
         -2   -1    0    0    0  501 -0.00000000000E+00  0.00000000000E+00  0.50967502174E+03  0.50967502175E+03  0.25500000000E-02 0.  1.
          2   -1    0    0  501    0  0.00000000000E+00 -0.00000000000E+00 -0.11690315287E+04  0.11690315287E+04  0.25500000000E-02 0. -1.
    8880023    1    1    2    0    0 -0.16645263112E+02  0.17647124599E+03 -0.10329446581E+04  0.12378222968E+04  0.65864270000E+03 0. -1.
    8880022    1    1    2    0    0  0.16645263112E+02 -0.17647124599E+03  0.37358815114E+03  0.44088425367E+03  0.15294330000E+03 0.  0.
<mgrwt>
<rscale>  0 0.52207567E+03</rscale>
<asrwt>0</asrwt>
<pdfrwt beam="1">  1        2 0.17985100E+00 0.68207725E+03</pdfrwt>
<pdfrwt beam="2">  1       -2 0.78411542E-01 0.68207725E+03</pdfrwt>
<totfact> 0.29326290E+01</totfact>
</mgrwt>
</event>
<event>
 4    1  0.2089815E-007  0.1016193E+04  0.7818608E-02  0.9360672E-01
         -2   -1    0    0    0  501 -0.00000000000E+00  0.00000000000E+00  0.81852855247E+03  0.81852855247E+03  0.25500000000E-02 0.  1.
          2   -1    0    0  501    0  0.00000000000E+00 -0.00000000000E+00 -0.20301993700E+04  0.20301993700E+04  0.25500000000E-02 0. -1.
    8880023    1    1    2    0    0 -0.61176562637E+03  0.47389977428E+03 -0.16563321925E+04  0.19432150462E+04  0.65864270000E+03 0.  0.
    8880022    1    1    2    0    0  0.61176562637E+03 -0.47389977428E+03  0.44466137496E+03  0.90551287626E+03  0.15294330000E+03 0.  0.
<mgrwt>
<rscale>  0 0.95384110E+03</rscale>
<asrwt>0</asrwt>
<pdfrwt beam="1">  1        2 0.31233836E+00 0.10161931E+04</pdfrwt>
<pdfrwt beam="2">  1       -2 0.12592747E+00 0.10161931E+04</pdfrwt>
<totfact> 0.30159942E+00</totfact>
</mgrwt>
</event>
<event>
 4    1  0.2089815E-007  0.8433298E+03  0.7818608E-02  0.9623933E-01
          2   -1    0    0  501    0  0.00000000000E+00  0.00000000000E+00  0.83330220488E+03  0.83330220489E+03  0.25500000000E-02 0. -1.
         -2   -1    0    0    0  501 -0.00000000000E+00 -0.00000000000E+00 -0.67847587175E+03  0.67847587175E+03  0.25500000000E-02 0.  1.
    8880023    1    1    2    0    0 -0.27201813871E+03 -0.45100008613E+03  0.37222377069E+03  0.92182193899E+03  0.65864270000E+03 0. -1.
    8880022    1    1    2    0    0  0.27201813871E+03  0.45100008613E+03 -0.21739743755E+03  0.58995613765E+03  0.15294330000E+03 0.  0.
<mgrwt>
<rscale>  0 0.75732169E+03</rscale>
<asrwt>0</asrwt>
<pdfrwt beam="1">  1        2 0.12820034E+00 0.84332980E+03</pdfrwt>
<pdfrwt beam="2">  1       -2 0.10438090E+00 0.84332980E+03</pdfrwt>
<totfact> 0.24464779E+01</totfact>
</mgrwt>
</event>
<event>
 4    1  0.2089815E-007  0.1569105E+04  0.7818608E-02  0.8862319E-01
         -2   -1    0    0    0  501 -0.00000000000E+00  0.00000000000E+00  0.11998487751E+04  0.11998487751E+04  0.25500000000E-02 0.  1.
          2   -1    0    0  501    0  0.00000000000E+00 -0.00000000000E+00 -0.30437252114E+04  0.30437252114E+04  0.25500000000E-02 0. -1.
    8880023    1    1    2    0    0 -0.41910614720E+03 -0.13611140210E+04 -0.22606175809E+04  0.27518145639E+04  0.65864270000E+03 0.  0.
    8880022    1    1    2    0    0  0.41910614720E+03  0.13611140210E+04  0.41674114454E+03  0.14917594227E+04  0.15294330000E+03 0.  0.
<mgrwt>
<rscale>  0 0.15337430E+04</rscale>
<asrwt>0</asrwt>
<pdfrwt beam="1">  1        2 0.46826541E+00 0.15691053E+04</pdfrwt>
<pdfrwt beam="2">  1       -2 0.18459212E+00 0.15691053E+04</pdfrwt>
<totfact> 0.25804130E-01</totfact>
</mgrwt>
</event>
<event>
 4    1  0.2089815E-007  0.1051190E+04  0.7818608E-02  0.9317452E-01
          2   -1    0    0  501    0  0.00000000000E+00  0.00000000000E+00  0.31662543944E+04  0.31662543945E+04  0.25500000000E-02 0. -1.
         -2   -1    0    0    0  501 -0.00000000000E+00 -0.00000000000E+00 -0.45867744498E+03  0.45867744499E+03  0.25500000000E-02 0.  1.
    8880023    1    1    2    0    0  0.60386734677E+03  0.55365601406E+03  0.25746582278E+04  0.27809829109E+04  0.65864270000E+03 0.  0.
    8880022    1    1    2    0    0 -0.60386734677E+03 -0.55365601406E+03  0.13291872166E+03  0.84394892854E+03  0.15294330000E+03 0.  0.
<mgrwt>
<rscale>  0 0.99191959E+03</rscale>
<asrwt>0</asrwt>
<pdfrwt beam="1">  1        2 0.48711605E+00 0.10511903E+04</pdfrwt>
<pdfrwt beam="2">  1       -2 0.70565763E-01 0.10511903E+04</pdfrwt>
<totfact> 0.25370298E+00</totfact>
</mgrwt>
</event>
<event>
 4    1  0.2089815E-007  0.7381661E+03  0.7818608E-02  0.9865322E-01
          2   -1    0    0  501    0  0.00000000000E+00  0.00000000000E+00  0.20333767712E+04  0.20333767712E+04  0.25500000000E-02 0. -1.
         -2   -1    0    0    0  501 -0.00000000000E+00 -0.00000000000E+00 -0.37951553156E+03  0.37951553157E+03  0.25500000000E-02 0.  1.
    8880023    1    1    2    0    0 -0.26176564018E+03  0.20629512324E+03  0.18537036362E+04  0.19952709854E+04  0.65864270000E+03 0.  0.
    8880022    1    1    2    0    0  0.26176564018E+03 -0.20629512324E+03 -0.19984239652E+03  0.41762131736E+03  0.15294330000E+03 0.  1.
<mgrwt>
<rscale>  0 0.61971779E+03</rscale>
<asrwt>0</asrwt>
<pdfrwt beam="1">  1        2 0.31282719E+00 0.73816606E+03</pdfrwt>
<pdfrwt beam="2">  1       -2 0.58387006E-01 0.73816606E+03</pdfrwt>
<totfact> 0.18206506E+01</totfact>
</mgrwt>
</event>
<event>
 4    1  0.2089815E-007  0.1377615E+04  0.7818608E-02  0.9001274E-01
          2   -1    0    0  501    0  0.00000000000E+00  0.00000000000E+00  0.22096978210E+04  0.22096978210E+04  0.25500000000E-02 0. -1.
         -2   -1    0    0    0  501 -0.00000000000E+00 -0.00000000000E+00 -0.17776192039E+04  0.17776192039E+04  0.25500000000E-02 0.  1.
    8880023    1    1    2    0    0 -0.61191124587E+03  0.10438286250E+04  0.17265612535E+04  0.22088090772E+04  0.65864270000E+03 0.  0.
    8880022    1    1    2    0    0  0.61191124587E+03 -0.10438286250E+04 -0.12944826364E+04  0.17785079477E+04  0.15294330000E+03 0.  0.
<mgrwt>
<rscale>  0 0.13362866E+04</rscale>
<asrwt>0</asrwt>
<pdfrwt beam="1">  1        2 0.33995351E+00 0.13776153E+04</pdfrwt>
<pdfrwt beam="2">  1       -2 0.27347988E+00 0.13776153E+04</pdfrwt>
<totfact> 0.22403122E-01</totfact>
</mgrwt>
</event>
<event>
 4    1  0.2089815E-007  0.7014876E+03  0.7818608E-02  0.9991085E-01
          2   -1    0    0  501    0  0.00000000000E+00  0.00000000000E+00  0.29715370566E+03  0.29715370568E+03  0.25500000000E-02 0. -1.
         -2   -1    0    0    0  501 -0.00000000000E+00 -0.00000000000E+00 -0.13771671227E+04  0.13771671227E+04  0.25500000000E-02 0.  1.
    8880023    1    1    2    0    0  0.23368153079E+03 -0.60560384435E+02 -0.17181444937E+03  0.72222228522E+03  0.65864270000E+03 0.  0.
    8880022    1    1    2    0    0 -0.23368153079E+03  0.60560384435E+02 -0.90819896765E+03  0.95209854314E+03  0.15294330000E+03 0.  0.
<mgrwt>
<rscale>  0 0.56042865E+03</rscale>
<asrwt>0</asrwt>
<pdfrwt beam="1">  1        2 0.45715955E-01 0.70148758E+03</pdfrwt>
<pdfrwt beam="2">  1       -2 0.21187186E+00 0.70148758E+03</pdfrwt>
<totfact> 0.12659298E+01</totfact>
</mgrwt>
</event>
<event>
 4    1  0.2089815E-007  0.1431001E+04  0.7818608E-02  0.8959961E-01
          2   -1    0    0  501    0  0.00000000000E+00  0.00000000000E+00  0.12316885907E+04  0.12316885907E+04  0.25500000000E-02 0. -1.
         -2   -1    0    0    0  501 -0.00000000000E+00 -0.00000000000E+00 -0.17535804789E+04  0.17535804789E+04  0.25500000000E-02 0.  1.
    8880023    1    1    2    0    0  0.10630022891E+04  0.69568714045E+03  0.30314822384E+03  0.14627588714E+04  0.65864270000E+03 0.  0.
    8880022    1    1    2    0    0 -0.10630022891E+04 -0.69568714045E+03 -0.82504011196E+03  0.15225101981E+04  0.15294330000E+03 0.  0.
<mgrwt>
<rscale>  0 0.13915460E+04</rscale>
<asrwt>0</asrwt>
<pdfrwt beam="1">  1        2 0.18949055E+00 0.14310013E+04</pdfrwt>
<pdfrwt beam="2">  1       -2 0.26978161E+00 0.14310013E+04</pdfrwt>
<totfact> 0.83749715E-01</totfact>
</mgrwt>
</event>
<event>
 4    1  0.2089815E-007  0.8811685E+03  0.7818608E-02  0.9556965E-01
          2   -1    0    0  501    0  0.00000000000E+00  0.00000000000E+00  0.90957259682E+03  0.90957259682E+03  0.25500000000E-02 0. -1.
         -2   -1    0    0    0  501 -0.00000000000E+00 -0.00000000000E+00 -0.12317072011E+04  0.12317072011E+04  0.25500000000E-02 0.  1.
    8880023    1    1    2    0    0 -0.45849038943E+03 -0.36391527550E+03  0.58009654328E+03  0.10549739195E+04  0.65864270000E+03 0. -1.
    8880022    1    1    2    0    0  0.45849038943E+03  0.36391527550E+03 -0.90223114756E+03  0.10863058785E+04  0.15294330000E+03 0.  0.
<mgrwt>
<rscale>  0 0.80211237E+03</rscale>
<asrwt>0</asrwt>
<pdfrwt beam="1">  1        2 0.13993425E+00 0.88116853E+03</pdfrwt>
<pdfrwt beam="2">  1       -2 0.18949342E+00 0.88116853E+03</pdfrwt>
<totfact> 0.45343146E+00</totfact>
</mgrwt>
</event>
<event>
 4    1  0.2089815E-007  0.7907274E+03  0.7818608E-02  0.9731216E-01
          2   -1    0    0  501    0  0.00000000000E+00  0.00000000000E+00  0.14892778806E+04  0.14892778806E+04  0.25500000000E-02 0. -1.
         -2   -1    0    0    0  501 -0.00000000000E+00 -0.00000000000E+00 -0.43752839761E+03  0.43752839762E+03  0.25500000000E-02 0.  1.
    8880023    1    1    2    0    0 -0.37733409658E+03 -0.22149169551E+03  0.12026940756E+04  0.14393480598E+04  0.65864270000E+03 0. -1.
    8880022    1    1    2    0    0  0.37733409658E+03  0.22149169551E+03 -0.15094459261E+03  0.48745821839E+03  0.15294330000E+03 0.  0.
<mgrwt>
<rscale>  0 0.69188237E+03</rscale>
<asrwt>0</asrwt>
<pdfrwt beam="1">  1        2 0.22911967E+00 0.79072739E+03</pdfrwt>
<pdfrwt beam="2">  1       -2 0.67312061E-01 0.79072739E+03</pdfrwt>
<totfact> 0.26543720E+01</totfact>
</mgrwt>
</event>
<event>
 4    1  0.2089815E-007  0.7972674E+03  0.7818608E-02  0.9716736E-01
          2   -1    0    0  501    0  0.00000000000E+00  0.00000000000E+00  0.15262097217E+04  0.15262097217E+04  0.25500000000E-02 0. -1.
         -2   -1    0    0    0  501 -0.00000000000E+00 -0.00000000000E+00 -0.13965004462E+04  0.13965004462E+04  0.25500000000E-02 0.  1.
    8880023    1    1    2    0    0 -0.36466581369E+03 -0.26238126292E+03  0.13753529474E+04  0.15897267121E+04  0.65864270000E+03 0. -1.
    8880022    1    1    2    0    0  0.36466581369E+03  0.26238126292E+03 -0.12456436720E+04  0.13329834558E+04  0.15294330000E+03 0.  0.
<mgrwt>
<rscale>  0 0.70029025E+03</rscale>
<asrwt>0</asrwt>
<pdfrwt beam="1">  1        2 0.23480150E+00 0.79726739E+03</pdfrwt>
<pdfrwt beam="2">  1       -2 0.21484622E+00 0.79726739E+03</pdfrwt>
<totfact> 0.13426100E+00</totfact>
</mgrwt>
</event>
<event>
 4    1  0.2089815E-007  0.8989108E+03  0.7818608E-02  0.9527782E-01
          2   -1    0    0  501    0  0.00000000000E+00  0.00000000000E+00  0.10446071310E+04  0.10446071310E+04  0.25500000000E-02 0. -1.
         -2   -1    0    0    0  501 -0.00000000000E+00 -0.00000000000E+00 -0.20290868804E+04  0.20290868804E+04  0.25500000000E-02 0.  1.
    8880023    1    1    2    0    0  0.15167237474E+02  0.61155565136E+03  0.78611857308E+03  0.11941620397E+04  0.65864270000E+03 0. -1.
    8880022    1    1    2    0    0 -0.15167237474E+02 -0.61155565136E+03 -0.17705983225E+04  0.18795319717E+04  0.15294330000E+03 0.  0.
<mgrwt>
<rscale>  0 0.82266162E+03</rscale>
<asrwt>0</asrwt>
<pdfrwt beam="1">  1        2 0.16070879E+00 0.89891077E+03</pdfrwt>
<pdfrwt beam="2">  1       -2 0.31216721E+00 0.89891077E+03</pdfrwt>
<totfact> 0.64514355E-01</totfact>
</mgrwt>
</event>
<event>
 4    1  0.2089815E-007  0.1057987E+04  0.7818608E-02  0.9309342E-01
         -2   -1    0    0    0  501 -0.00000000000E+00  0.00000000000E+00  0.74802779534E+03  0.74802779534E+03  0.25500000000E-02 0.  1.
          2   -1    0    0  501    0  0.00000000000E+00 -0.00000000000E+00 -0.13947127486E+04  0.13947127486E+04  0.25500000000E-02 0. -1.
    8880023    1    1    2    0    0 -0.34010222498E+03 -0.75488795342E+03 -0.74655409348E+03  0.12948662349E+04  0.65864270000E+03 0.  0.
    8880022    1    1    2    0    0  0.34010222498E+03  0.75488795342E+03  0.99869140236E+02  0.84787430898E+03  0.15294330000E+03 0.  0.
<mgrwt>
<rscale>  0 0.99927388E+03</rscale>
<asrwt>0</asrwt>
<pdfrwt beam="1">  1        2 0.21457119E+00 0.10579866E+04</pdfrwt>
<pdfrwt beam="2">  1       -2 0.11508120E+00 0.10579866E+04</pdfrwt>
<totfact> 0.84756110E+00</totfact>
</mgrwt>
</event>
<event>
 4    1  0.2089815E-007  0.1338557E+04  0.7818608E-02  0.9032959E-01
         -2   -1    0    0    0  501 -0.00000000000E+00  0.00000000000E+00  0.13998833283E+04  0.13998833283E+04  0.25500000000E-02 0.  1.
          2   -1    0    0  501    0  0.00000000000E+00 -0.00000000000E+00 -0.27718579762E+04  0.27718579762E+04  0.25500000000E-02 0. -1.
    8880023    1    1    2    0    0 -0.33957652497E+03  0.11147248018E+04 -0.23087976397E+04  0.26687600768E+04  0.65864270000E+03 0. -1.
    8880022    1    1    2    0    0  0.33957652497E+03 -0.11147248018E+04  0.93682299175E+03  0.15029812278E+04  0.15294330000E+03 0.  0.
<mgrwt>
<rscale>  0 0.12957289E+04</rscale>
<asrwt>0</asrwt>
<pdfrwt beam="1">  1        2 0.42643969E+00 0.13385566E+04</pdfrwt>
<pdfrwt beam="2">  1       -2 0.21536667E+00 0.13385566E+04</pdfrwt>
<totfact> 0.24417844E-01</totfact>
</mgrwt>
</event>
<event>
 4    1  0.2089815E-007  0.8766303E+03  0.7818608E-02  0.9564640E-01
          2   -1    0    0  501    0  0.00000000000E+00  0.00000000000E+00  0.40303683342E+04  0.40303683342E+04  0.25500000000E-02 0. -1.
         -2   -1    0    0    0  501 -0.00000000000E+00 -0.00000000000E+00 -0.30301582781E+03  0.30301582782E+03  0.25500000000E-02 0.  1.
    8880023    1    1    2    0    0  0.55066913807E+03 -0.17729622919E+03  0.36210251218E+04  0.37256279459E+04  0.65864270000E+03 0.  1.
    8880022    1    1    2    0    0 -0.55066913807E+03  0.17729622919E+03  0.10632738462E+03  0.60775621613E+03  0.15294330000E+03 0.  0.
<mgrwt>
<rscale>  0 0.79681435E+03</rscale>
<asrwt>0</asrwt>
<pdfrwt beam="1">  1        2 0.62005663E+00 0.87663029E+03</pdfrwt>
<pdfrwt beam="2">  1       -2 0.46617823E-01 0.87663029E+03</pdfrwt>
<totfact> 0.15243035E+00</totfact>
</mgrwt>
</event>
<event>
 4    1  0.2089815E-007  0.8446830E+03  0.7818608E-02  0.9621412E-01
          2   -1    0    0  501    0  0.00000000000E+00  0.00000000000E+00  0.20405472550E+04  0.20405472550E+04  0.25500000000E-02 0. -1.
         -2   -1    0    0    0  501 -0.00000000000E+00 -0.00000000000E+00 -0.91266616344E+03  0.91266616345E+03  0.25500000000E-02 0.  1.
    8880023    1    1    2    0    0  0.47962533650E+03  0.22279739079E+03  0.18567186761E+04  0.20398268527E+04  0.65864270000E+03 0. -1.
    8880022    1    1    2    0    0 -0.47962533650E+03 -0.22279739079E+03 -0.72883758454E+03  0.91338656570E+03  0.15294330000E+03 0.  0.
<mgrwt>
<rscale>  0 0.75895027E+03</rscale>
<asrwt>0</asrwt>
<pdfrwt beam="1">  1        2 0.31393034E+00 0.84468299E+03</pdfrwt>
<pdfrwt beam="2">  1       -2 0.14041018E+00 0.84468299E+03</pdfrwt>
<totfact> 0.23096796E+00</totfact>
</mgrwt>
</event>
<event>
 4    1  0.2089815E-007  0.6763196E+03  0.7818608E-02  0.1011487E+00
          2   -1    0    0  501    0  0.00000000000E+00  0.00000000000E+00  0.12282541394E+04  0.12282541394E+04  0.25500000000E-02 0. -1.
         -2   -1    0    0    0  501 -0.00000000000E+00 -0.00000000000E+00 -0.46428088050E+03  0.46428088051E+03  0.25500000000E-02 0.  1.
    8880023    1    1    2    0    0 -0.15197965776E+03  0.22364413858E+02  0.11008117366E+04  0.12919731689E+04  0.65864270000E+03 0. -1.
    8880022    1    1    2    0    0  0.15197965776E+03 -0.22364413858E+02 -0.33683847774E+03  0.40056185101E+03  0.15294330000E+03 0.  0.
<mgrwt>
<rscale>  0 0.50887866E+03</rscale>
<asrwt>0</asrwt>
<pdfrwt beam="1">  1        2 0.18896217E+00 0.67631959E+03</pdfrwt>
<pdfrwt beam="2">  1       -2 0.71427828E-01 0.67631959E+03</pdfrwt>
<totfact> 0.33282865E+01</totfact>
</mgrwt>
</event>
<event>
 4    1  0.2089815E-007  0.7267937E+03  0.7818608E-02  0.9900235E-01
          2   -1    0    0  501    0  0.00000000000E+00  0.00000000000E+00  0.21268222740E+04  0.21268222740E+04  0.25500000000E-02 0. -1.
         -2   -1    0    0    0  501 -0.00000000000E+00 -0.00000000000E+00 -0.23605713365E+03  0.23605713366E+03  0.25500000000E-02 0.  1.
    8880023    1    1    2    0    0 -0.23397900541E+03  0.19918000955E+03  0.18842730957E+04  0.20195826689E+04  0.65864270000E+03 0.  0.
    8880022    1    1    2    0    0  0.23397900541E+03 -0.19918000955E+03  0.64920446644E+01  0.34329673875E+03  0.15294330000E+03 0.  0.
<mgrwt>
<rscale>  0 0.60249904E+03</rscale>
<asrwt>0</asrwt>
<pdfrwt beam="1">  1        2 0.32720341E+00 0.72679368E+03</pdfrwt>
<pdfrwt beam="2">  1       -2 0.36316484E-01 0.72679368E+03</pdfrwt>
<totfact> 0.41980115E+01</totfact>
</mgrwt>
</event>
<event>
 4    1  0.2089815E-007  0.7204603E+03  0.7818608E-02  0.9921032E-01
         -2   -1    0    0    0  501 -0.00000000000E+00  0.00000000000E+00  0.49340588439E+03  0.49340588439E+03  0.25500000000E-02 0.  1.
          2   -1    0    0  501    0  0.00000000000E+00 -0.00000000000E+00 -0.19149509932E+04  0.19149509932E+04  0.25500000000E-02 0. -1.
    8880023    1    1    2    0    0  0.22618904035E+03  0.18463839137E+03 -0.17806706871E+04  0.19208985188E+04  0.65864270000E+03 0. -1.
    8880022    1    1    2    0    0 -0.22618904035E+03 -0.18463839137E+03  0.35912557827E+03  0.48745835876E+03  0.15294330000E+03 0.  0.
<mgrwt>
<rscale>  0 0.59252747E+03</rscale>
<asrwt>0</asrwt>
<pdfrwt beam="1">  1        2 0.29460784E+00 0.72046029E+03</pdfrwt>
<pdfrwt beam="2">  1       -2 0.75908599E-01 0.72046029E+03</pdfrwt>
<totfact> 0.12017822E+01</totfact>
</mgrwt>
</event>
<event>
 4    1  0.2089815E-007  0.1098080E+04  0.7818608E-02  0.9263197E-01
         -2   -1    0    0    0  501 -0.00000000000E+00  0.00000000000E+00  0.25340428821E+04  0.25340428821E+04  0.25500000000E-02 0.  1.
          2   -1    0    0  501    0  0.00000000000E+00 -0.00000000000E+00 -0.47972298922E+03  0.47972298923E+03  0.25500000000E-02 0. -1.
    8880023    1    1    2    0    0  0.85097503426E+01 -0.87857610547E+03  0.46740030527E+03  0.11934159546E+04  0.65864270000E+03 0. -1.
    8880022    1    1    2    0    0 -0.85097503426E+01  0.87857610547E+03  0.15869195876E+04  0.18203499168E+04  0.15294330000E+03 0.  0.
<mgrwt>
<rscale>  0 0.10424274E+04</rscale>
<asrwt>0</asrwt>
<pdfrwt beam="1">  1        2 0.73803539E-01 0.10980795E+04</pdfrwt>
<pdfrwt beam="2">  1       -2 0.38985274E+00 0.10980795E+04</pdfrwt>
<totfact> 0.56205091E-01</totfact>
</mgrwt>
</event>
<event>
 4    1  0.2089815E-007  0.1213851E+04  0.7818608E-02  0.9143774E-01
         -2   -1    0    0    0  501 -0.00000000000E+00  0.00000000000E+00  0.56905649580E+03  0.56905649581E+03  0.25500000000E-02 0.  1.
          2   -1    0    0  501    0  0.00000000000E+00 -0.00000000000E+00 -0.22522799877E+04  0.22522799877E+04  0.25500000000E-02 0. -1.
    8880023    1    1    2    0    0  0.71953796996E+02 -0.10170780678E+04 -0.72559085945E+03  0.14141843750E+04  0.65864270000E+03 0.  1.
    8880022    1    1    2    0    0 -0.71953796996E+02  0.10170780678E+04 -0.95763263242E+03  0.14071521085E+04  0.15294330000E+03 0. -1.
<mgrwt>
<rscale>  0 0.11653105E+04</rscale>
<asrwt>0</asrwt>
<pdfrwt beam="1">  1        2 0.34650461E+00 0.12138515E+04</pdfrwt>
<pdfrwt beam="2">  1       -2 0.87547155E-01 0.12138515E+04</pdfrwt>
<totfact> 0.53315506E+00</totfact>
</mgrwt>
</event>
<event>
 4    1  0.2089815E-007  0.6925756E+03  0.7818608E-02  0.1002952E+00
         -2   -1    0    0    0  501 -0.00000000000E+00  0.00000000000E+00  0.16713593489E+03  0.16713593491E+03  0.25500000000E-02 0.  1.
          2   -1    0    0  501    0  0.00000000000E+00 -0.00000000000E+00 -0.17888845564E+04  0.17888845564E+04  0.25500000000E-02 0. -1.
    8880023    1    1    2    0    0 -0.12253212606E+03 -0.17560350829E+03 -0.15263390715E+04  0.16761180989E+04  0.65864270000E+03 0. -1.
    8880022    1    1    2    0    0  0.12253212606E+03  0.17560350829E+03 -0.95409550047E+02  0.27990239244E+03  0.15294330000E+03 0.  0.
<mgrwt>
<rscale>  0 0.54374699E+03</rscale>
<asrwt>0</asrwt>
<pdfrwt beam="1">  1        2 0.27521299E+00 0.69257557E+03</pdfrwt>
<pdfrwt beam="2">  1       -2 0.25713222E-01 0.69257557E+03</pdfrwt>
<totfact> 0.12245509E+02</totfact>
</mgrwt>
</event>
<event>
 4    1  0.2089815E-007  0.6614942E+03  0.7818608E-02  0.1022675E+00
         -2   -1    0    0    0  501 -0.00000000000E+00  0.00000000000E+00  0.12709702344E+03  0.12709702347E+03  0.25500000000E-02 0.  1.
          2   -1    0    0  501    0  0.00000000000E+00 -0.00000000000E+00 -0.14428119309E+04  0.14428119309E+04  0.25500000000E-02 0. -1.
    8880023    1    1    2    0    0 -0.52637188224E+02  0.31521980736E+02 -0.11941683121E+04  0.13651419240E+04  0.65864270000E+03 0. -1.
    8880022    1    1    2    0    0  0.52637188224E+02 -0.31521980736E+02 -0.12154659533E+03  0.20476703032E+03  0.15294330000E+03 0.  1.
<mgrwt>
<rscale>  0 0.46733430E+03</rscale>
<asrwt>0</asrwt>
<pdfrwt beam="1">  1        2 0.22197105E+00 0.66149415E+03</pdfrwt>
<pdfrwt beam="2">  1       -2 0.19553389E-01 0.66149415E+03</pdfrwt>
<totfact> 0.30928322E+02</totfact>
</mgrwt>
</event>
<event>
 4    1  0.2089815E-007  0.1092770E+04  0.7818608E-02  0.9269149E-01
         -2   -1    0    0    0  501 -0.00000000000E+00  0.00000000000E+00  0.61875409584E+03  0.61875409585E+03  0.25500000000E-02 0.  1.
          2   -1    0    0  501    0  0.00000000000E+00 -0.00000000000E+00 -0.21438122924E+04  0.21438122924E+04  0.25500000000E-02 0. -1.
    8880023    1    1    2    0    0  0.82297548282E+03  0.28818023698E+03 -0.15264460555E+04  0.18772810820E+04  0.65864270000E+03 0.  0.
    8880022    1    1    2    0    0 -0.82297548282E+03 -0.28818023698E+03  0.13878589032E+01  0.88528530626E+03  0.15294330000E+03 0.  0.
<mgrwt>
<rscale>  0 0.10367339E+04</rscale>
<asrwt>0</asrwt>
<pdfrwt beam="1">  1        2 0.32981727E+00 0.10927702E+04</pdfrwt>
<pdfrwt beam="2">  1       -2 0.95192939E-01 0.10927702E+04</pdfrwt>
<totfact> 0.51096143E+00</totfact>
</mgrwt>
</event>
<event>
 4    1  0.2089815E-007  0.8379945E+03  0.7818608E-02  0.9633974E-01
         -2   -1    0    0    0  501 -0.00000000000E+00  0.00000000000E+00  0.27515548043E+03  0.27515548044E+03  0.25500000000E-02 0.  1.
          2   -1    0    0  501    0  0.00000000000E+00 -0.00000000000E+00 -0.21072677586E+04  0.21072677586E+04  0.25500000000E-02 0. -1.
    8880023    1    1    2    0    0  0.36218387959E+03 -0.37046908918E+03 -0.15752197118E+04  0.17842510629E+04  0.65864270000E+03 0.  0.
    8880022    1    1    2    0    0 -0.36218387959E+03  0.37046908918E+03 -0.25689256640E+03  0.59817217618E+03  0.15294330000E+03 0.  0.
<mgrwt>
<rscale>  0 0.75087826E+03</rscale>
<asrwt>0</asrwt>
<pdfrwt beam="1">  1        2 0.32419503E+00 0.83799446E+03</pdfrwt>
<pdfrwt beam="2">  1       -2 0.42331614E-01 0.83799446E+03</pdfrwt>
<totfact> 0.31503310E+01</totfact>
</mgrwt>
</event>
<event>
 4    1  0.2089815E-007  0.7878303E+03  0.7818608E-02  0.9737755E-01
          2   -1    0    0  501    0  0.00000000000E+00  0.00000000000E+00  0.16935217966E+04  0.16935217966E+04  0.25500000000E-02 0. -1.
         -2   -1    0    0    0  501 -0.00000000000E+00 -0.00000000000E+00 -0.34167673894E+03  0.34167673895E+03  0.25500000000E-02 0.  1.
    8880023    1    1    2    0    0  0.39594087956E+03 -0.17348530240E+03  0.13654814754E+04  0.15764568488E+04  0.65864270000E+03 0.  0.
    8880022    1    1    2    0    0 -0.39594087956E+03  0.17348530240E+03 -0.13636417718E+02  0.45874168674E+03  0.15294330000E+03 0.  0.
<mgrwt>
<rscale>  0 0.68812694E+03</rscale>
<asrwt>0</asrwt>
<pdfrwt beam="1">  1        2 0.26054182E+00 0.78783027E+03</pdfrwt>
<pdfrwt beam="2">  1       -2 0.52565651E-01 0.78783027E+03</pdfrwt>
<totfact> 0.34501514E+01</totfact>
</mgrwt>
</event>
<event>
 4    1  0.2089815E-007  0.9087031E+03  0.7818608E-02  0.9512202E-01
         -2   -1    0    0    0  501 -0.00000000000E+00  0.00000000000E+00  0.81987171602E+03  0.81987171603E+03  0.25500000000E-02 0.  1.
          2   -1    0    0  501    0  0.00000000000E+00 -0.00000000000E+00 -0.17271169996E+04  0.17271169996E+04  0.25500000000E-02 0. -1.
    8880023    1    1    2    0    0  0.38685325858E+03  0.49221512236E+03 -0.14454478760E+04  0.17073549539E+04  0.65864270000E+03 0. -1.
    8880022    1    1    2    0    0 -0.38685325858E+03 -0.49221512236E+03  0.53820259237E+03  0.83963376170E+03  0.15294330000E+03 0.  0.
<mgrwt>
<rscale>  0 0.83390148E+03</rscale>
<asrwt>0</asrwt>
<pdfrwt beam="1">  1        2 0.26571031E+00 0.90870313E+03</pdfrwt>
<pdfrwt beam="2">  1       -2 0.12613411E+00 0.90870313E+03</pdfrwt>
<totfact> 0.44700955E+00</totfact>
</mgrwt>
</event>
<event>
 4    1  0.2089815E-007  0.6934014E+03  0.7818608E-02  0.1002576E+00
         -2   -1    0    0    0  501 -0.00000000000E+00  0.00000000000E+00  0.48665264180E+03  0.48665264181E+03  0.25500000000E-02 0.  1.
          2   -1    0    0  501    0  0.00000000000E+00 -0.00000000000E+00 -0.11323141342E+04  0.11323141342E+04  0.25500000000E-02 0. -1.
    8880023    1    1    2    0    0 -0.20903796113E+03 -0.57431662921E+02 -0.97477108846E+03  0.11962374958E+04  0.65864270000E+03 0. -1.
    8880022    1    1    2    0    0  0.20903796113E+03  0.57431662921E+02  0.32910959610E+03  0.42272928022E+03  0.15294330000E+03 0.  0.
<mgrwt>
<rscale>  0 0.54534963E+03</rscale>
<asrwt>0</asrwt>
<pdfrwt beam="1">  1        2 0.17420217E+00 0.69340138E+03</pdfrwt>
<pdfrwt beam="2">  1       -2 0.74869638E-01 0.69340138E+03</pdfrwt>
<totfact> 0.34148237E+01</totfact>
</mgrwt>
</event>
<event>
 4    1  0.2089815E-007  0.8115823E+03  0.7818608E-02  0.9686290E-01
         -2   -1    0    0    0  501 -0.00000000000E+00  0.00000000000E+00  0.72909208165E+03  0.72909208165E+03  0.25500000000E-02 0.  1.
          2   -1    0    0  501    0  0.00000000000E+00 -0.00000000000E+00 -0.61921815865E+03  0.61921815865E+03  0.25500000000E-02 0. -1.
    8880023    1    1    2    0    0  0.10244953976E+03  0.46298991563E+03 -0.79110948369E+02  0.81542891694E+03  0.65864270000E+03 0.  0.
    8880022    1    1    2    0    0 -0.10244953976E+03 -0.46298991563E+03  0.18898487137E+03  0.53288132336E+03  0.15294330000E+03 0.  0.
<mgrwt>
<rscale>  0 0.71838948E+03</rscale>
<asrwt>0</asrwt>
<pdfrwt beam="1">  1        2 0.95264332E-01 0.81158227E+03</pdfrwt>
<pdfrwt beam="2">  1       -2 0.11216801E+00 0.81158227E+03</pdfrwt>
<totfact> 0.30146477E+01</totfact>
</mgrwt>
</event>
<event>
 4    1  0.2089815E-007  0.1081773E+04  0.7818608E-02  0.9281626E-01
          2   -1    0    0  501    0  0.00000000000E+00  0.00000000000E+00  0.16911769815E+04  0.16911769815E+04  0.25500000000E-02 0. -1.
         -2   -1    0    0    0  501 -0.00000000000E+00 -0.00000000000E+00 -0.15807900469E+04  0.15807900469E+04  0.25500000000E-02 0.  1.
    8880023    1    1    2    0    0 -0.58020195632E+03 -0.63228785338E+03  0.13666099548E+04  0.17429444095E+04  0.65864270000E+03 0.  0.
    8880022    1    1    2    0    0  0.58020195632E+03  0.63228785338E+03 -0.12562230203E+04  0.15290226190E+04  0.15294330000E+03 0.  0.
<mgrwt>
<rscale>  0 0.10249211E+04</rscale>
<asrwt>0</asrwt>
<pdfrwt beam="1">  1        2 0.26018107E+00 0.10817728E+04</pdfrwt>
<pdfrwt beam="2">  1       -2 0.24319847E+00 0.10817728E+04</pdfrwt>
<totfact> 0.69282055E-01</totfact>
</mgrwt>
</event>
<event>
 4    1  0.2089815E-007  0.9523396E+03  0.7818608E-02  0.9446756E-01
         -2   -1    0    0    0  501 -0.00000000000E+00  0.00000000000E+00  0.12081683636E+04  0.12081683636E+04  0.25500000000E-02 0.  1.
          2   -1    0    0  501    0  0.00000000000E+00 -0.00000000000E+00 -0.14011572935E+04  0.14011572935E+04  0.25500000000E-02 0. -1.
    8880023    1    1    2    0    0 -0.45962534238E+03  0.51174706318E+03 -0.11037406421E+04  0.14578045560E+04  0.65864270000E+03 0.  0.
    8880022    1    1    2    0    0  0.45962534238E+03 -0.51174706318E+03  0.91075171227E+03  0.11515211012E+04  0.15294330000E+03 0.  0.
<mgrwt>
<rscale>  0 0.88325744E+03</rscale>
<asrwt>0</asrwt>
<pdfrwt beam="1">  1        2 0.21556266E+00 0.95233960E+03</pdfrwt>
<pdfrwt beam="2">  1       -2 0.18587206E+00 0.95233960E+03</pdfrwt>
<totfact> 0.23841571E+00</totfact>
</mgrwt>
</event>
<event>
 4    1  0.2089815E-007  0.7939715E+03  0.7818608E-02  0.9723986E-01
         -2   -1    0    0    0  501 -0.00000000000E+00  0.00000000000E+00  0.56757039872E+03  0.56757039873E+03  0.25500000000E-02 0.  1.
          2   -1    0    0  501    0  0.00000000000E+00 -0.00000000000E+00 -0.16600954373E+04  0.16600954373E+04  0.25500000000E-02 0. -1.
    8880023    1    1    2    0    0  0.36803607798E+03 -0.24724472171E+03 -0.14397142555E+04  0.16441313363E+04  0.65864270000E+03 0. -1.
    8880022    1    1    2    0    0 -0.36803607798E+03  0.24724472171E+03  0.34718921690E+03  0.58353449980E+03  0.15294330000E+03 0.  0.
<mgrwt>
<rscale>  0 0.69606475E+03</rscale>
<asrwt>0</asrwt>
<pdfrwt beam="1">  1        2 0.25539930E+00 0.79397148E+03</pdfrwt>
<pdfrwt beam="2">  1       -2 0.87318523E-01 0.79397148E+03</pdfrwt>
<totfact> 0.11947745E+01</totfact>
</mgrwt>
</event>
<event>
 4    1  0.2089815E-007  0.7747925E+03  0.7818608E-02  0.9768215E-01
          2   -1    0    0  501    0  0.00000000000E+00  0.00000000000E+00  0.13861031572E+04  0.13861031572E+04  0.25500000000E-02 0. -1.
         -2   -1    0    0    0  501 -0.00000000000E+00 -0.00000000000E+00 -0.31257235308E+03  0.31257235309E+03  0.25500000000E-02 0.  1.
    8880023    1    1    2    0    0 -0.23044714287E+03 -0.33673023865E+03  0.98637332361E+03  0.12542869206E+04  0.65864270000E+03 0.  0.
    8880022    1    1    2    0    0  0.23044714287E+03  0.33673023865E+03  0.87157480523E+02  0.44438858976E+03  0.15294330000E+03 0.  0.
<mgrwt>
<rscale>  0 0.67096568E+03</rscale>
<asrwt>0</asrwt>
<pdfrwt beam="1">  1        2 0.21324664E+00 0.77479245E+03</pdfrwt>
<pdfrwt beam="2">  1       -2 0.48088054E-01 0.77479245E+03</pdfrwt>
<totfact> 0.61404716E+01</totfact>
</mgrwt>
</event>
<event>
 4    1  0.2089815E-007  0.1246322E+04  0.7818608E-02  0.9113359E-01
          2   -1    0    0  501    0  0.00000000000E+00  0.00000000000E+00  0.12339086399E+04  0.12339086399E+04  0.25500000000E-02 0. -1.
         -2   -1    0    0    0  501 -0.00000000000E+00 -0.00000000000E+00 -0.13963328750E+04  0.13963328750E+04  0.25500000000E-02 0.  1.
    8880023    1    1    2    0    0  0.23999551787E+03  0.10304902451E+04  0.53234207029E+03  0.13552513714E+04  0.65864270000E+03 0.  1.
    8880022    1    1    2    0    0 -0.23999551787E+03 -0.10304902451E+04 -0.69476630537E+03  0.12749901434E+04  0.15294330000E+03 0.  0.
<mgrwt>
<rscale>  0 0.11994266E+04</rscale>
<asrwt>0</asrwt>
<pdfrwt beam="1">  1        2 0.18983210E+00 0.12463219E+04</pdfrwt>
<pdfrwt beam="2">  1       -2 0.21482044E+00 0.12463219E+04</pdfrwt>
<totfact> 0.18632126E+00</totfact>
</mgrwt>
</event>
<event>
 4    1  0.2089815E-007  0.1061519E+04  0.7818608E-02  0.9305161E-01
         -2   -1    0    0    0  501 -0.00000000000E+00  0.00000000000E+00  0.10446969185E+04  0.10446969185E+04  0.25500000000E-02 0.  1.
          2   -1    0    0  501    0  0.00000000000E+00 -0.00000000000E+00 -0.10254208744E+04  0.10254208744E+04  0.25500000000E-02 0. -1.
    8880023    1    1    2    0    0 -0.70322586024E+02  0.82949774843E+03 -0.38879158845E+03  0.11304781671E+04  0.65864270000E+03 0.  0.
    8880022    1    1    2    0    0  0.70322586024E+02 -0.82949774843E+03  0.40806763255E+03  0.93963962587E+03  0.15294330000E+03 0.  0.
<mgrwt>
<rscale>  0 0.10030913E+04</rscale>
<asrwt>0</asrwt>
<pdfrwt beam="1">  1        2 0.15775706E+00 0.10615187E+04</pdfrwt>
<pdfrwt beam="2">  1       -2 0.16072260E+00 0.10615187E+04</pdfrwt>
<totfact> 0.59482146E+00</totfact>
</mgrwt>
</event>
<event>
 4    1  0.2089815E-007  0.7687014E+03  0.7818608E-02  0.9783080E-01
         -2   -1    0    0    0  501 -0.00000000000E+00  0.00000000000E+00  0.96741464513E+03  0.96741464513E+03  0.25500000000E-02 0.  1.
          2   -1    0    0  501    0  0.00000000000E+00 -0.00000000000E+00 -0.95802017480E+03  0.95802017481E+03  0.25500000000E-02 0. -1.
    8880023    1    1    2    0    0 -0.24771443423E+03  0.30940127012E+03 -0.73807444523E+03  0.10656714690E+04  0.65864270000E+03 0.  0.
    8880022    1    1    2    0    0  0.24771443423E+03 -0.30940127012E+03  0.74746891556E+03  0.85976335094E+03  0.15294330000E+03 0.  0.
<mgrwt>
<rscale>  0 0.66278527E+03</rscale>
<asrwt>0</asrwt>
<pdfrwt beam="1">  1        2 0.14738772E+00 0.76870137E+03</pdfrwt>
<pdfrwt beam="2">  1       -2 0.14883302E+00 0.76870137E+03</pdfrwt>
<totfact> 0.83320391E+00</totfact>
</mgrwt>
</event>
<event>
 4    1  0.2089815E-007  0.1168100E+04  0.7818608E-02  0.9188772E-01
          2   -1    0    0  501    0  0.00000000000E+00  0.00000000000E+00  0.40493501595E+04  0.40493501595E+04  0.25500000000E-02 0. -1.
         -2   -1    0    0    0  501 -0.00000000000E+00 -0.00000000000E+00 -0.47109660750E+03  0.47109660751E+03  0.25500000000E-02 0.  1.
    8880023    1    1    2    0    0 -0.91116824326E+03  0.31689219572E+03  0.33062521055E+04  0.35065312522E+04  0.65864270000E+03 0.  0.
    8880022    1    1    2    0    0  0.91116824326E+03 -0.31689219572E+03  0.27200144646E+03  0.10139155148E+04  0.15294330000E+03 0.  0.
<mgrwt>
<rscale>  0 0.11170071E+04</rscale>
<asrwt>0</asrwt>
<pdfrwt beam="1">  1        2 0.62297694E+00 0.11681004E+04</pdfrwt>
<pdfrwt beam="2">  1       -2 0.72476402E-01 0.11681004E+04</pdfrwt>
<totfact> 0.55019311E-01</totfact>
</mgrwt>
</event>
<event>
 4    1  0.2089815E-007  0.1511266E+04  0.7818608E-02  0.8901721E-01
          2   -1    0    0  501    0  0.00000000000E+00  0.00000000000E+00  0.13227247712E+04  0.13227247712E+04  0.25500000000E-02 0. -1.
         -2   -1    0    0    0  501 -0.00000000000E+00 -0.00000000000E+00 -0.18736047866E+04  0.18736047866E+04  0.25500000000E-02 0.  1.
    8880023    1    1    2    0    0 -0.60684604235E+03 -0.12173138641E+04  0.35825843285E+03  0.15531498556E+04  0.65864270000E+03 0. -1.
    8880022    1    1    2    0    0  0.60684604235E+03  0.12173138641E+04 -0.90913844823E+03  0.16431797023E+04  0.15294330000E+03 0.  0.
<mgrwt>
<rscale>  0 0.14743060E+04</rscale>
<asrwt>0</asrwt>
<pdfrwt beam="1">  1        2 0.20349612E+00 0.15112661E+04</pdfrwt>
<pdfrwt beam="2">  1       -2 0.28824689E+00 0.15112661E+04</pdfrwt>
<totfact> 0.56622387E-01</totfact>
</mgrwt>
</event>
<event>
 4    1  0.2089815E-007  0.1749217E+04  0.7818608E-02  0.8751160E-01
         -2   -1    0    0    0  501 -0.00000000000E+00  0.00000000000E+00  0.12216020866E+04  0.12216020866E+04  0.25500000000E-02 0.  1.
          2   -1    0    0  501    0  0.00000000000E+00 -0.00000000000E+00 -0.28188618025E+04  0.28188618025E+04  0.25500000000E-02 0. -1.
    8880023    1    1    2    0    0  0.69169725153E+03 -0.14654371894E+04  0.15242483438E+02  0.17492837915E+04  0.65864270000E+03 0.  0.
    8880022    1    1    2    0    0 -0.69169725153E+03  0.14654371894E+04 -0.16125021993E+04  0.22911800976E+04  0.15294330000E+03 0.  0.
<mgrwt>
<rscale>  0 0.17180077E+04</rscale>
<asrwt>0</asrwt>
<pdfrwt beam="1">  1        2 0.43367104E+00 0.17492174E+04</pdfrwt>
<pdfrwt beam="2">  1       -2 0.18793878E+00 0.17492174E+04</pdfrwt>
<totfact> 0.33061223E-01</totfact>
</mgrwt>
</event>
<event>
 4    1  0.2089815E-007  0.1262284E+04  0.7818608E-02  0.9098834E-01
          2   -1    0    0  501    0  0.00000000000E+00  0.00000000000E+00  0.28989907441E+04  0.28989907441E+04  0.25500000000E-02 0. -1.
         -2   -1    0    0    0  501 -0.00000000000E+00 -0.00000000000E+00 -0.64733967476E+03  0.64733967476E+03  0.25500000000E-02 0.  1.
    8880023    1    1    2    0    0  0.48346169583E+03  0.96219321748E+03  0.20972147844E+04  0.24477890140E+04  0.65864270000E+03 0.  0.
    8880022    1    1    2    0    0 -0.48346169583E+03 -0.96219321748E+03  0.15443628501E+03  0.10985414049E+04  0.15294330000E+03 0.  0.
<mgrwt>
<rscale>  0 0.12161532E+04</rscale>
<asrwt>0</asrwt>
<pdfrwt beam="1">  1        2 0.44599858E+00 0.12622841E+04</pdfrwt>
<pdfrwt beam="2">  1       -2 0.99590718E-01 0.12622841E+04</pdfrwt>
<totfact> 0.16466205E+00</totfact>
</mgrwt>
</event>
<event>
 4    1  0.2089816E-007  0.8628841E+03  0.7818608E-02  0.9588454E-01
          2   -1    0    0  501    0  0.00000000000E+00  0.00000000000E+00  0.17707617064E+04  0.17707617064E+04  0.25500000000E-02 0. -1.
         -2   -1    0    0    0  501 -0.00000000000E+00 -0.00000000000E+00 -0.14767470497E+04  0.14767470497E+04  0.25500000000E-02 0.  1.
    8880023    1    1    2    0    0  0.44281915916E+03  0.33862952401E+03  0.16008156847E+04  0.18185653205E+04  0.65864270000E+03 0.  0.
    8880022    1    1    2    0    0 -0.44281915916E+03 -0.33862952401E+03 -0.13068010280E+04  0.14289434356E+04  0.15294330000E+03 0.  0.
<mgrwt>
<rscale>  0 0.78065132E+03</rscale>
<asrwt>0</asrwt>
<pdfrwt beam="1">  1        2 0.27242488E+00 0.86288410E+03</pdfrwt>
<pdfrwt beam="2">  1       -2 0.22719186E+00 0.86288410E+03</pdfrwt>
<totfact> 0.81411040E-01</totfact>
</mgrwt>
</event>
<event>
 4    1  0.2089815E-007  0.9276183E+03  0.7818608E-02  0.9483075E-01
          2   -1    0    0  501    0  0.00000000000E+00  0.00000000000E+00  0.21676242885E+04  0.21676242885E+04  0.25500000000E-02 0. -1.
         -2   -1    0    0    0  501 -0.00000000000E+00 -0.00000000000E+00 -0.57986926694E+03  0.57986926694E+03  0.25500000000E-02 0.  1.
    8880023    1    1    2    0    0  0.26230360805E+03 -0.59821598446E+03  0.18157255383E+04  0.20389543848E+04  0.65864270000E+03 0.  0.
    8880022    1    1    2    0    0 -0.26230360805E+03  0.59821598446E+03 -0.22797051666E+03  0.70853917065E+03  0.15294330000E+03 0.  1.
<mgrwt>
<rscale>  0 0.85543192E+03</rscale>
<asrwt>0</asrwt>
<pdfrwt beam="1">  1        2 0.33348066E+00 0.92761832E+03</pdfrwt>
<pdfrwt beam="2">  1       -2 0.89210657E-01 0.92761832E+03</pdfrwt>
<totfact> 0.58838445E+00</totfact>
</mgrwt>
</event>
<event>
 4    1  0.2089815E-007  0.1165178E+04  0.7818608E-02  0.9191738E-01
         -2   -1    0    0    0  501 -0.00000000000E+00  0.00000000000E+00  0.11574070278E+04  0.11574070278E+04  0.25500000000E-02 0.  1.
          2   -1    0    0  501    0  0.00000000000E+00 -0.00000000000E+00 -0.15999075222E+04  0.15999075222E+04  0.25500000000E-02 0. -1.
    8880023    1    1    2    0    0 -0.80939006714E+03 -0.51838058444E+03 -0.10841769258E+04  0.15915654318E+04  0.65864270000E+03 0.  0.
    8880022    1    1    2    0    0  0.80939006714E+03  0.51838058444E+03  0.64167643137E+03  0.11657491182E+04  0.15294330000E+03 0.  0.
<mgrwt>
<rscale>  0 0.11139119E+04</rscale>
<asrwt>0</asrwt>
<pdfrwt beam="1">  1        2 0.24613962E+00 0.11651785E+04</pdfrwt>
<pdfrwt beam="2">  1       -2 0.17806262E+00 0.11651785E+04</pdfrwt>
<totfact> 0.20319931E+00</totfact>
</mgrwt>
</event>
<event>
 4    1  0.2089815E-007  0.8993088E+03  0.7818608E-02  0.9527142E-01
         -2   -1    0    0    0  501 -0.00000000000E+00  0.00000000000E+00  0.16425223064E+04  0.16425223064E+04  0.25500000000E-02 0.  1.
          2   -1    0    0  501    0  0.00000000000E+00 -0.00000000000E+00 -0.42548046782E+03  0.42548046783E+03  0.25500000000E-02 0. -1.
    8880023    1    1    2    0    0  0.46206001739E+03 -0.40180424545E+03  0.28693255203E+03  0.94397383810E+03  0.65864270000E+03 0. -1.
    8880022    1    1    2    0    0 -0.46206001739E+03  0.40180424545E+03  0.93010928657E+03  0.11240289362E+04  0.15294330000E+03 0.  0.
<mgrwt>
<rscale>  0 0.82311984E+03</rscale>
<asrwt>0</asrwt>
<pdfrwt beam="1">  1        2 0.65458533E-01 0.89930880E+03</pdfrwt>
<pdfrwt beam="2">  1       -2 0.25269574E+00 0.89930880E+03</pdfrwt>
<totfact> 0.46385220E+00</totfact>
</mgrwt>
</event>
<event>
 4    1  0.2272724E-007  0.1116515E+04  0.7818608E-02  0.9242888E-01
         -2   -1    0    0    0  501 -0.00000000000E+00  0.00000000000E+00  0.12750000464E+04  0.12750000464E+04  0.25500000000E-02 0.  1.
          2   -1    0    0  501    0  0.00000000000E+00 -0.00000000000E+00 -0.26405094777E+04  0.26405094777E+04  0.25500000000E-02 0. -1.
    8880023    1    1    2    0    0 -0.75120134164E+03 -0.49848903905E+03 -0.23316826587E+04  0.25852173999E+04  0.65864270000E+03 0.  0.
    8880022    1    1    2    0    0  0.75120134164E+03  0.49848903905E+03  0.96617322734E+03  0.13302921243E+04  0.15294330000E+03 0.  0.
<mgrwt>
<rscale>  0 0.10621509E+04</rscale>
<asrwt>0</asrwt>
<pdfrwt beam="1">  1        2 0.40623223E+00 0.11165147E+04</pdfrwt>
<pdfrwt beam="2">  1       -2 0.19615385E+00 0.11165147E+04</pdfrwt>
<totfact> 0.40208370E-01</totfact>
</mgrwt>
</event>
<event>
 4    1  0.2089815E-007  0.8818591E+03  0.7818608E-02  0.9555804E-01
          2   -1    0    0  501    0  0.00000000000E+00  0.00000000000E+00  0.19889265068E+04  0.19889265068E+04  0.25500000000E-02 0. -1.
         -2   -1    0    0    0  501 -0.00000000000E+00 -0.00000000000E+00 -0.40744338349E+03  0.40744338349E+03  0.25500000000E-02 0.  1.
    8880023    1    1    2    0    0 -0.46613753957E+03  0.35578239562E+03  0.15575612777E+04  0.17898806270E+04  0.65864270000E+03 0.  0.
    8880022    1    1    2    0    0  0.46613753957E+03 -0.35578239562E+03  0.23921845653E+02  0.60648926334E+03  0.15294330000E+03 0.  0.
<mgrwt>
<rscale>  0 0.80291703E+03</rscale>
<asrwt>0</asrwt>
<pdfrwt beam="1">  1        2 0.30598869E+00 0.88185913E+03</pdfrwt>
<pdfrwt beam="2">  1       -2 0.62683598E-01 0.88185913E+03</pdfrwt>
<totfact> 0.16258247E+01</totfact>
</mgrwt>
</event>
<event>
 4    1  0.2089815E-007  0.8582687E+03  0.7818608E-02  0.9596650E-01
         -2   -1    0    0    0  501 -0.00000000000E+00  0.00000000000E+00  0.49891132733E+03  0.49891132734E+03  0.25500000000E-02 0.  1.
          2   -1    0    0  501    0  0.00000000000E+00 -0.00000000000E+00 -0.26436523277E+04  0.26436523277E+04  0.25500000000E-02 0. -1.
    8880023    1    1    2    0    0 -0.53734617150E+03 -0.11863444263E+03 -0.23760862824E+04  0.25263434577E+04  0.65864270000E+03 0.  0.
    8880022    1    1    2    0    0  0.53734617150E+03  0.11863444263E+03  0.23134528201E+03  0.61622019727E+03  0.15294330000E+03 0.  0.
<mgrwt>
<rscale>  0 0.77518272E+03</rscale>
<asrwt>0</asrwt>
<pdfrwt beam="1">  1        2 0.40671573E+00 0.85826875E+03</pdfrwt>
<pdfrwt beam="2">  1       -2 0.76755590E-01 0.85826875E+03</pdfrwt>
<totfact> 0.45016684E+00</totfact>
</mgrwt>
</event>
<event>
 4    1  0.2089815E-007  0.1198027E+04  0.7818608E-02  0.9159043E-01
          2   -1    0    0  501    0  0.00000000000E+00  0.00000000000E+00  0.43433606586E+04  0.43433606586E+04  0.25500000000E-02 0. -1.
         -2   -1    0    0    0  501 -0.00000000000E+00 -0.00000000000E+00 -0.56214222946E+03  0.56214222947E+03  0.25500000000E-02 0.  1.
    8880023    1    1    2    0    0  0.90165216408E+03  0.43414416322E+03  0.37008945405E+04  0.38899728001E+04  0.65864270000E+03 0.  0.
    8880022    1    1    2    0    0 -0.90165216408E+03 -0.43414416322E+03  0.80323888641E+02  0.10155300880E+04  0.15294330000E+03 0.  0.
<mgrwt>
<rscale>  0 0.11486359E+04</rscale>
<asrwt>0</asrwt>
<pdfrwt beam="1">  1        2 0.66820931E+00 0.11980267E+04</pdfrwt>
<pdfrwt beam="2">  1       -2 0.86483423E-01 0.11980267E+04</pdfrwt>
<totfact> 0.20598712E-01</totfact>
</mgrwt>
</event>
<event>
 4    1  0.2089815E-007  0.8444880E+03  0.7818608E-02  0.9621775E-01
         -2   -1    0    0    0  501 -0.00000000000E+00  0.00000000000E+00  0.64514639343E+03  0.64514639344E+03  0.25500000000E-02 0.  1.
          2   -1    0    0  501    0  0.00000000000E+00 -0.00000000000E+00 -0.35128706459E+04  0.35128706459E+04  0.25500000000E-02 0. -1.
    8880023    1    1    2    0    0  0.73263189713E+02  0.52343323842E+03 -0.33324581829E+04  0.34377954560E+04  0.65864270000E+03 0. -1.
    8880022    1    1    2    0    0 -0.73263189713E+02 -0.52343323842E+03  0.46473393043E+03  0.72022158337E+03  0.15294330000E+03 0.  0.
<mgrwt>
<rscale>  0 0.75871579E+03</rscale>
<asrwt>0</asrwt>
<pdfrwt beam="1">  1        2 0.54044163E+00 0.84448804E+03</pdfrwt>
<pdfrwt beam="2">  1       -2 0.99253294E-01 0.84448804E+03</pdfrwt>
<totfact> 0.71365857E-01</totfact>
</mgrwt>
</event>
<event>
 4    1  0.2089815E-007  0.1736083E+04  0.7818608E-02  0.8758742E-01
         -2   -1    0    0    0  501 -0.00000000000E+00  0.00000000000E+00  0.20464635486E+04  0.20464635486E+04  0.25500000000E-02 0.  1.
          2   -1    0    0  501    0  0.00000000000E+00 -0.00000000000E+00 -0.15976798818E+04  0.15976798818E+04  0.25500000000E-02 0. -1.
    8880023    1    1    2    0    0  0.11861658173E+04  0.10831357489E+04  0.91786377134E+03  0.19637862678E+04  0.65864270000E+03 0.  1.
    8880022    1    1    2    0    0 -0.11861658173E+04 -0.10831357489E+04 -0.46908010457E+03  0.16803571626E+04  0.15294330000E+03 0.  0.
<mgrwt>
<rscale>  0 0.17046052E+04</rscale>
<asrwt>0</asrwt>
<pdfrwt beam="1">  1        2 0.24579691E+00 0.17360825E+04</pdfrwt>
<pdfrwt beam="2">  1       -2 0.31484055E+00 0.17360825E+04</pdfrwt>
<totfact> 0.26444158E-01</totfact>
</mgrwt>
</event>
<event>
 4    1  0.2089815E-007  0.1990356E+04  0.7818608E-02  0.8623959E-01
         -2   -1    0    0    0  501 -0.00000000000E+00  0.00000000000E+00  0.11669945012E+04  0.11669945012E+04  0.25500000000E-02 0.  1.
          2   -1    0    0  501    0  0.00000000000E+00 -0.00000000000E+00 -0.44089951290E+04  0.44089951290E+04  0.25500000000E-02 0. -1.
    8880023    1    1    2    0    0 -0.16800993571E+04  0.83962742411E+03 -0.31029413029E+04  0.36864295730E+04  0.65864270000E+03 0.  0.
    8880022    1    1    2    0    0  0.16800993571E+04 -0.83962742411E+03 -0.13905932485E+03  0.18895600572E+04  0.15294330000E+03 0.  0.
<mgrwt>
<rscale>  0 0.19633308E+04</rscale>
<asrwt>0</asrwt>
<pdfrwt beam="1">  1        2 0.67830693E+00 0.19903563E+04</pdfrwt>
<pdfrwt beam="2">  1       -2 0.17953762E+00 0.19903563E+04</pdfrwt>
<totfact> 0.24841166E-02</totfact>
</mgrwt>
</event>
<event>
 4    1  0.2089815E-007  0.1425047E+04  0.7818608E-02  0.8964461E-01
          2   -1    0    0  501    0  0.00000000000E+00  0.00000000000E+00  0.33495162486E+04  0.33495162486E+04  0.25500000000E-02 0. -1.
         -2   -1    0    0    0  501 -0.00000000000E+00 -0.00000000000E+00 -0.72767250301E+03  0.72767250302E+03  0.25500000000E-02 0.  1.
    8880023    1    1    2    0    0  0.12453332806E+04 -0.21469640596E+03  0.23910614299E+04  0.27835111810E+04  0.65864270000E+03 0.  0.
    8880022    1    1    2    0    0 -0.12453332806E+04  0.21469640596E+03  0.23078231568E+03  0.12936775707E+04  0.15294330000E+03 0.  0.
<mgrwt>
<rscale>  0 0.13853923E+04</rscale>
<asrwt>0</asrwt>
<pdfrwt beam="1">  1        2 0.51531019E+00 0.14250473E+04</pdfrwt>
<pdfrwt beam="2">  1       -2 0.11194962E+00 0.14250473E+04</pdfrwt>
<totfact> 0.62766089E-01</totfact>
</mgrwt>
</event>
<event>
 4    1  0.2089815E-007  0.9125558E+03  0.7818608E-02  0.9506169E-01
          2   -1    0    0  501    0  0.00000000000E+00  0.00000000000E+00  0.26311487287E+04  0.26311487287E+04  0.25500000000E-02 0. -1.
         -2   -1    0    0    0  501 -0.00000000000E+00 -0.00000000000E+00 -0.37275492118E+03  0.37275492119E+03  0.25500000000E-02 0.  1.
    8880023    1    1    2    0    0  0.61328458753E+03  0.15109560238E+03  0.21622799203E+04  0.23469581433E+04  0.65864270000E+03 0.  0.
    8880022    1    1    2    0    0 -0.61328458753E+03 -0.15109560238E+03  0.96113887257E+02  0.65694550664E+03  0.15294330000E+03 0.  1.
<mgrwt>
<rscale>  0 0.83830544E+03</rscale>
<asrwt>0</asrwt>
<pdfrwt beam="1">  1        2 0.40479211E+00 0.91255579E+03</pdfrwt>
<pdfrwt beam="2">  1       -2 0.57346912E-01 0.91255579E+03</pdfrwt>
<totfact> 0.85311588E+00</totfact>
</mgrwt>
</event>
<event>
 4    1  0.2089815E-007  0.7000517E+03  0.7818608E-02  0.9996987E-01
          2   -1    0    0  501    0  0.00000000000E+00  0.00000000000E+00  0.23226578130E+04  0.23226578130E+04  0.25500000000E-02 0. -1.
         -2   -1    0    0    0  501 -0.00000000000E+00 -0.00000000000E+00 -0.74407993323E+03  0.74407993323E+03  0.25500000000E-02 0.  1.
    8880023    1    1    2    0    0  0.21637313184E+03  0.97184639899E+02  0.22404135075E+04  0.23472377548E+04  0.65864270000E+03 0. -1.
    8880022    1    1    2    0    0 -0.21637313184E+03 -0.97184639899E+02 -0.66183562780E+03  0.71949999142E+03  0.15294330000E+03 0.  0.
<mgrwt>
<rscale>  0 0.55782558E+03</rscale>
<asrwt>0</asrwt>
<pdfrwt beam="1">  1        2 0.35733198E+00 0.70005171E+03</pdfrwt>
<pdfrwt beam="2">  1       -2 0.11447383E+00 0.70005171E+03</pdfrwt>
<totfact> 0.27697109E+00</totfact>
</mgrwt>
</event>
<event>
 4    1  0.2089815E-007  0.1016173E+04  0.7818608E-02  0.9360697E-01
          2   -1    0    0  501    0  0.00000000000E+00  0.00000000000E+00  0.20550443167E+04  0.20550443167E+04  0.25500000000E-02 0. -1.
         -2   -1    0    0    0  501 -0.00000000000E+00 -0.00000000000E+00 -0.88557671381E+03  0.88557671382E+03  0.25500000000E-02 0.  1.
    8880023    1    1    2    0    0 -0.19092788261E+03  0.74989615434E+03  0.17066627757E+04  0.19862793698E+04  0.65864270000E+03 0.  0.
    8880022    1    1    2    0    0  0.19092788261E+03 -0.74989615434E+03 -0.53719517282E+03  0.95434166071E+03  0.15294330000E+03 0.  0.
<mgrwt>
<rscale>  0 0.95381932E+03</rscale>
<asrwt>0</asrwt>
<pdfrwt beam="1">  1        2 0.31616067E+00 0.10161732E+04</pdfrwt>
<pdfrwt beam="2">  1       -2 0.13624257E+00 0.10161732E+04</pdfrwt>
<totfact> 0.23913284E+00</totfact>
</mgrwt>
</event>
<event>
 4    1  0.2089815E-007  0.8306809E+03  0.7818608E-02  0.9648009E-01
         -2   -1    0    0    0  501 -0.00000000000E+00  0.00000000000E+00  0.22352539175E+04  0.22352539175E+04  0.25500000000E-02 0.  1.
          2   -1    0    0  501    0  0.00000000000E+00 -0.00000000000E+00 -0.68002555928E+03  0.68002555928E+03  0.25500000000E-02 0. -1.
    8880023    1    1    2    0    0  0.50053045749E+03 -0.75430358228E+02 -0.37683643616E+03  0.91216028399E+03  0.65864270000E+03 0. -1.
    8880022    1    1    2    0    0 -0.50053045749E+03  0.75430358228E+02  0.19320647944E+04  0.20031191928E+04  0.15294330000E+03 0.  0.
<mgrwt>
<rscale>  0 0.74198505E+03</rscale>
<asrwt>0</asrwt>
<pdfrwt beam="1">  1        2 0.10461932E+00 0.83068086E+03</pdfrwt>
<pdfrwt beam="2">  1       -2 0.34388522E+00 0.83068086E+03</pdfrwt>
<totfact> 0.75053474E-01</totfact>
</mgrwt>
</event>
<event>
 4    1  0.2089815E-007  0.9013280E+03  0.7818608E-02  0.9523903E-01
          2   -1    0    0  501    0  0.00000000000E+00  0.00000000000E+00  0.83400718276E+03  0.83400718276E+03  0.25500000000E-02 0. -1.
         -2   -1    0    0    0  501 -0.00000000000E+00 -0.00000000000E+00 -0.99151550297E+03  0.99151550298E+03  0.25500000000E-02 0.  1.
    8880023    1    1    2    0    0 -0.10544742260E+03  0.60618717125E+03  0.39543981630E+03  0.98425855348E+03  0.65864270000E+03 0.  0.
    8880022    1    1    2    0    0  0.10544742260E+03 -0.60618717125E+03 -0.55294813651E+03  0.84126413225E+03  0.15294330000E+03 0.  0.
<mgrwt>
<rscale>  0 0.82544258E+03</rscale>
<asrwt>0</asrwt>
<pdfrwt beam="1">  1        2 0.12830880E+00 0.90132805E+03</pdfrwt>
<pdfrwt beam="2">  1       -2 0.15254085E+00 0.90132805E+03</pdfrwt>
<totfact> 0.93384579E+00</totfact>
</mgrwt>
</event>
<event>
 4    1  0.2089815E-007  0.6661299E+03  0.7818608E-02  0.1018604E+00
          2   -1    0    0  501    0  0.00000000000E+00  0.00000000000E+00  0.23227029791E+04  0.23227029791E+04  0.25500000000E-02 0. -1.
         -2   -1    0    0    0  501 -0.00000000000E+00 -0.00000000000E+00 -0.36044734063E+03  0.36044734063E+03  0.25500000000E-02 0.  1.
    8880023    1    1    2    0    0 -0.54361016290E+02 -0.83449043275E+02  0.22477082211E+04  0.23443381403E+04  0.65864270000E+03 0. -1.
    8880022    1    1    2    0    0  0.54361016290E+02  0.83449043275E+02 -0.28545258265E+03  0.33881217934E+03  0.15294330000E+03 0.  0.
<mgrwt>
<rscale>  0 0.48193878E+03</rscale>
<asrwt>0</asrwt>
<pdfrwt beam="1">  1        2 0.35733891E+00 0.66612992E+03</pdfrwt>
<pdfrwt beam="2">  1       -2 0.55453438E-01 0.66612992E+03</pdfrwt>
<totfact> 0.14220812E+01</totfact>
</mgrwt>
</event>
<event>
 4    1  0.2089815E-007  0.6638109E+03  0.7818608E-02  0.1020553E+00
         -2   -1    0    0    0  501 -0.00000000000E+00  0.00000000000E+00  0.21066114211E+03  0.21066114213E+03  0.25500000000E-02 0.  1.
          2   -1    0    0  501    0  0.00000000000E+00 -0.00000000000E+00 -0.26872249455E+04  0.26872249455E+04  0.25500000000E-02 0. -1.
    8880023    1    1    2    0    0 -0.76126118105E+02 -0.32241300418E+02 -0.26008160753E+04  0.26841924579E+04  0.65864270000E+03 0. -1.
    8880022    1    1    2    0    0  0.76126118105E+02  0.32241300418E+02  0.12425227188E+03  0.21369362974E+03  0.15294330000E+03 0.  0.
<mgrwt>
<rscale>  0 0.47487737E+03</rscale>
<asrwt>0</asrwt>
<pdfrwt beam="1">  1        2 0.41341920E+00 0.66381089E+03</pdfrwt>
<pdfrwt beam="2">  1       -2 0.32409408E-01 0.66381089E+03</pdfrwt>
<totfact> 0.25497295E+01</totfact>
</mgrwt>
</event>
<event>
 4    1  0.2089815E-007  0.7470342E+03  0.7818608E-02  0.9839911E-01
         -2   -1    0    0    0  501 -0.00000000000E+00  0.00000000000E+00  0.25037320616E+03  0.25037320617E+03  0.25500000000E-02 0.  1.
          2   -1    0    0  501    0  0.00000000000E+00 -0.00000000000E+00 -0.27104978311E+04  0.27104978311E+04  0.25500000000E-02 0. -1.
    8880023    1    1    2    0    0 -0.34130682774E+03 -0.88088148728E+02 -0.24659146245E+04  0.25765859222E+04  0.65864270000E+03 0.  0.
    8880022    1    1    2    0    0  0.34130682774E+03  0.88088148728E+02  0.57899995477E+01  0.38428511514E+03  0.15294330000E+03 0.  1.
<mgrwt>
<rscale>  0 0.63263967E+03</rscale>
<asrwt>0</asrwt>
<pdfrwt beam="1">  1        2 0.41699965E+00 0.74703419E+03</pdfrwt>
<pdfrwt beam="2">  1       -2 0.38518957E-01 0.74703419E+03</pdfrwt>
<totfact> 0.17537531E+01</totfact>
</mgrwt>
</event>
<event>
 4    1  0.2089815E-007  0.1216256E+04  0.7818608E-02  0.9141480E-01
         -2   -1    0    0    0  501 -0.00000000000E+00  0.00000000000E+00  0.58562500118E+03  0.58562500119E+03  0.25500000000E-02 0.  1.
          2   -1    0    0  501    0  0.00000000000E+00 -0.00000000000E+00 -0.37578934498E+04  0.37578934498E+04  0.25500000000E-02 0. -1.
    8880023    1    1    2    0    0  0.59202531883E+03 -0.83365168250E+03 -0.30729633718E+04  0.33049029027E+04  0.65864270000E+03 0. -1.
    8880022    1    1    2    0    0 -0.59202531883E+03  0.83365168250E+03 -0.99305076874E+02  0.10386155483E+04  0.15294330000E+03 0.  0.
<mgrwt>
<rscale>  0 0.11678417E+04</rscale>
<asrwt>0</asrwt>
<pdfrwt beam="1">  1        2 0.57813744E+00 0.12162563E+04</pdfrwt>
<pdfrwt beam="2">  1       -2 0.90096156E-01 0.12162563E+04</pdfrwt>
<totfact> 0.56034379E-01</totfact>
</mgrwt>
</event>
<event>
 4    1  0.2089815E-007  0.7449662E+03  0.7818608E-02  0.9845710E-01
          2   -1    0    0  501    0  0.00000000000E+00  0.00000000000E+00  0.51708621511E+03  0.51708621511E+03  0.25500000000E-02 0. -1.
         -2   -1    0    0    0  501 -0.00000000000E+00 -0.00000000000E+00 -0.12351632836E+04  0.12351632836E+04  0.25500000000E-02 0.  1.
    8880023    1    1    2    0    0  0.33218827380E+03  0.10399685825E+03  0.18912441353E+03  0.76859784402E+03  0.65864270000E+03 0. -1.
    8880022    1    1    2    0    0 -0.33218827380E+03 -0.10399685825E+03 -0.90720148207E+03  0.98365165474E+03  0.15294330000E+03 0.  0.
<mgrwt>
<rscale>  0 0.62966122E+03</rscale>
<asrwt>0</asrwt>
<pdfrwt beam="1">  1        2 0.79551726E-01 0.74496618E+03</pdfrwt>
<pdfrwt beam="2">  1       -2 0.19002512E+00 0.74496618E+03</pdfrwt>
<totfact> 0.93441435E+00</totfact>
</mgrwt>
</event>
<event>
 4    1  0.2089815E-007  0.9722285E+03  0.7818608E-02  0.9418829E-01
         -2   -1    0    0    0  501 -0.00000000000E+00  0.00000000000E+00  0.62688892654E+03  0.62688892655E+03  0.25500000000E-02 0.  1.
          2   -1    0    0  501    0  0.00000000000E+00 -0.00000000000E+00 -0.22345747427E+04  0.22345747427E+04  0.25500000000E-02 0. -1.
    8880023    1    1    2    0    0  0.63749943116E+02 -0.71228786544E+03 -0.18509549770E+04  0.20907564640E+04  0.65864270000E+03 0. -1.
    8880022    1    1    2    0    0 -0.63749943116E+02  0.71228786544E+03  0.24326916091E+03  0.77070720521E+03  0.15294330000E+03 0.  0.
<mgrwt>
<rscale>  0 0.90542227E+03</rscale>
<asrwt>0</asrwt>
<pdfrwt beam="1">  1        2 0.34378073E+00 0.97222850E+03</pdfrwt>
<pdfrwt beam="2">  1       -2 0.96444451E-01 0.97222850E+03</pdfrwt>
<totfact> 0.44766092E+00</totfact>
</mgrwt>
</event>
<event>
 4    1  0.2089815E-007  0.9819672E+03  0.7818608E-02  0.9405540E-01
          2   -1    0    0  501    0  0.00000000000E+00  0.00000000000E+00  0.12585067807E+04  0.12585067807E+04  0.25500000000E-02 0. -1.
         -2   -1    0    0    0  501 -0.00000000000E+00 -0.00000000000E+00 -0.87212955419E+03  0.87212955420E+03  0.25500000000E-02 0.  1.
    8880023    1    1    2    0    0 -0.44723419764E+03  0.57483115502E+03  0.81121499247E+03  0.12737068951E+04  0.65864270000E+03 0.  0.
    8880022    1    1    2    0    0  0.44723419764E+03 -0.57483115502E+03 -0.42483776600E+03  0.85692943978E+03  0.15294330000E+03 0.  0.
<mgrwt>
<rscale>  0 0.91621174E+03</rscale>
<asrwt>0</asrwt>
<pdfrwt beam="1">  1        2 0.19361643E+00 0.98196715E+03</pdfrwt>
<pdfrwt beam="2">  1       -2 0.13417378E+00 0.98196715E+03</pdfrwt>
<totfact> 0.69640890E+00</totfact>
</mgrwt>
</event>
<event>
 4    1  0.2089815E-007  0.1355620E+04  0.7818608E-02  0.9018958E-01
          2   -1    0    0  501    0  0.00000000000E+00  0.00000000000E+00  0.20567699461E+04  0.20567699461E+04  0.25500000000E-02 0. -1.
         -2   -1    0    0    0  501 -0.00000000000E+00 -0.00000000000E+00 -0.14105795497E+04  0.14105795497E+04  0.25500000000E-02 0.  1.
    8880023    1    1    2    0    0 -0.51947366261E+03  0.10649142490E+04  0.14826296325E+04  0.20089539759E+04  0.65864270000E+03 0.  0.
    8880022    1    1    2    0    0  0.51947366261E+03 -0.10649142490E+04 -0.83643923613E+03  0.14583955199E+04  0.15294330000E+03 0.  0.
<mgrwt>
<rscale>  0 0.13134616E+04</rscale>
<asrwt>0</asrwt>
<pdfrwt beam="1">  1        2 0.31642615E+00 0.13556200E+04</pdfrwt>
<pdfrwt beam="2">  1       -2 0.21701224E+00 0.13556200E+04</pdfrwt>
<totfact> 0.61149095E-01</totfact>
</mgrwt>
</event>
<event>
 4    1  0.2089815E-007  0.7226917E+03  0.7818608E-02  0.9913581E-01
         -2   -1    0    0    0  501 -0.00000000000E+00  0.00000000000E+00  0.12441336249E+04  0.12441336249E+04  0.25500000000E-02 0.  1.
          2   -1    0    0  501    0  0.00000000000E+00 -0.00000000000E+00 -0.29391088017E+03  0.29391088018E+03  0.25500000000E-02 0. -1.
    8880023    1    1    2    0    0  0.22846467062E+03  0.19046504787E+03  0.25466152240E+03  0.76624783030E+03  0.65864270000E+03 0.  0.
    8880022    1    1    2    0    0 -0.22846467062E+03 -0.19046504787E+03  0.69556122233E+03  0.77179667479E+03  0.15294330000E+03 0.  0.
<mgrwt>
<rscale>  0 0.59607570E+03</rscale>
<asrwt>0</asrwt>
<pdfrwt beam="1">  1        2 0.45217059E-01 0.72269167E+03</pdfrwt>
<pdfrwt beam="2">  1       -2 0.19140517E+00 0.72269167E+03</pdfrwt>
<totfact> 0.17353545E+01</totfact>
</mgrwt>
</event>
<event>
 4    1  0.2222453E-007  0.1194918E+04  0.7818608E-02  0.9162079E-01
         -2   -1    0    0    0  501 -0.00000000000E+00  0.00000000000E+00  0.13885876322E+04  0.13885876322E+04  0.25500000000E-02 0.  1.
          2   -1    0    0  501    0  0.00000000000E+00 -0.00000000000E+00 -0.27721535194E+04  0.27721535194E+04  0.25500000000E-02 0. -1.
    8880023    1    1    2    0    0  0.96162735350E+03  0.26323118506E+03 -0.24296405648E+04  0.27075784945E+04  0.65864270000E+03 0.  0.
    8880022    1    1    2    0    0 -0.96162735350E+03 -0.26323118506E+03  0.10460746776E+04  0.14531626571E+04  0.15294330000E+03 0.  0.
<mgrwt>
<rscale>  0 0.11453558E+04</rscale>
<asrwt>0</asrwt>
<pdfrwt beam="1">  1        2 0.42648516E+00 0.11949176E+04</pdfrwt>
<pdfrwt beam="2">  1       -2 0.21362887E+00 0.11949176E+04</pdfrwt>
<totfact> 0.25570687E-01</totfact>
</mgrwt>
</event>
<event>
 4    1  0.2089815E-007  0.8457733E+03  0.7818608E-02  0.9619389E-01
         -2   -1    0    0    0  501 -0.00000000000E+00  0.00000000000E+00  0.49688035570E+03  0.49688035571E+03  0.25500000000E-02 0.  1.
          2   -1    0    0  501    0  0.00000000000E+00 -0.00000000000E+00 -0.31965739719E+04  0.31965739719E+04  0.25500000000E-02 0. -1.
    8880023    1    1    2    0    0  0.87089434504E+02  0.52339052577E+03 -0.29632528713E+04  0.30815904980E+04  0.65864270000E+03 0. -1.
    8880022    1    1    2    0    0 -0.87089434504E+02 -0.52339052577E+03  0.26355925505E+03  0.61186382963E+03  0.15294330000E+03 0.  0.
<mgrwt>
<rscale>  0 0.76026082E+03</rscale>
<asrwt>0</asrwt>
<pdfrwt beam="1">  1        2 0.49178060E+00 0.84577327E+03</pdfrwt>
<pdfrwt beam="2">  1       -2 0.76443134E-01 0.84577327E+03</pdfrwt>
<totfact> 0.21034043E+00</totfact>
</mgrwt>
</event>
<event>
 4    1  0.2089815E-007  0.8211787E+03  0.7818608E-02  0.9666746E-01
          2   -1    0    0  501    0  0.00000000000E+00  0.00000000000E+00  0.14469204604E+04  0.14469204604E+04  0.25500000000E-02 0. -1.
         -2   -1    0    0    0  501 -0.00000000000E+00 -0.00000000000E+00 -0.56904176188E+03  0.56904176189E+03  0.25500000000E-02 0.  1.
    8880023    1    1    2    0    0 -0.20218946551E+03 -0.44681510190E+03  0.11666191522E+04  0.14266515930E+04  0.65864270000E+03 0. -1.
    8880022    1    1    2    0    0  0.20218946551E+03  0.44681510190E+03 -0.28874045365E+03  0.58931062933E+03  0.15294330000E+03 0.  0.
<mgrwt>
<rscale>  0 0.73031712E+03</rscale>
<asrwt>0</asrwt>
<pdfrwt beam="1">  1        2 0.22260315E+00 0.82117874E+03</pdfrwt>
<pdfrwt beam="2">  1       -2 0.87544886E-01 0.82117874E+03</pdfrwt>
<totfact> 0.15547394E+01</totfact>
</mgrwt>
</event>
<event>
 4    1  0.2089815E-007  0.7208161E+03  0.7818608E-02  0.9919834E-01
         -2   -1    0    0    0  501 -0.00000000000E+00  0.00000000000E+00  0.69646951348E+03  0.69646951349E+03  0.25500000000E-02 0.  1.
          2   -1    0    0  501    0  0.00000000000E+00 -0.00000000000E+00 -0.24113350091E+04  0.24113350091E+04  0.25500000000E-02 0. -1.
    8880023    1    1    2    0    0  0.11896415609E+02  0.29261593246E+03 -0.23139688121E+04  0.24236393045E+04  0.65864270000E+03 0. -1.
    8880022    1    1    2    0    0 -0.11896415609E+02 -0.29261593246E+03  0.59910331656E+03  0.68416521803E+03  0.15294330000E+03 0.  0.
<mgrwt>
<rscale>  0 0.59309591E+03</rscale>
<asrwt>0</asrwt>
<pdfrwt beam="1">  1        2 0.37097461E+00 0.72081608E+03</pdfrwt>
<pdfrwt beam="2">  1       -2 0.10714916E+00 0.72081608E+03</pdfrwt>
<totfact> 0.28887427E+00</totfact>
</mgrwt>
</event>
<event>
 4    1  0.2089815E-007  0.9436306E+03  0.7818608E-02  0.9459338E-01
          2   -1    0    0  501    0  0.00000000000E+00  0.00000000000E+00  0.20531715592E+04  0.20531715592E+04  0.25500000000E-02 0. -1.
         -2   -1    0    0    0  501 -0.00000000000E+00 -0.00000000000E+00 -0.13074848964E+04  0.13074848964E+04  0.25500000000E-02 0.  1.
    8880023    1    1    2    0    0 -0.25416611948E+02  0.67526475928E+03  0.18386154048E+04  0.20666265537E+04  0.65864270000E+03 0. -1.
    8880022    1    1    2    0    0  0.25416611948E+02 -0.67526475928E+03 -0.10929287420E+04  0.12940299020E+04  0.15294330000E+03 0.  0.
<mgrwt>
<rscale>  0 0.87349203E+03</rscale>
<asrwt>0</asrwt>
<pdfrwt beam="1">  1        2 0.31587255E+00 0.94363060E+03</pdfrwt>
<pdfrwt beam="2">  1       -2 0.20115152E+00 0.94363060E+03</pdfrwt>
<totfact> 0.82260216E-01</totfact>
</mgrwt>
</event>
<event>
 4    1  0.2089815E-007  0.6709576E+03  0.7818608E-02  0.1014985E+00
         -2   -1    0    0    0  501 -0.00000000000E+00  0.00000000000E+00  0.77705517725E+03  0.77705517725E+03  0.25500000000E-02 0.  1.
          2   -1    0    0  501    0  0.00000000000E+00 -0.00000000000E+00 -0.89039356022E+03  0.89039356022E+03  0.25500000000E-02 0. -1.
    8880023    1    1    2    0    0  0.53966750910E+01 -0.12784681109E+03 -0.74644743736E+03  0.10036771962E+04  0.65864270000E+03 0. -1.
    8880022    1    1    2    0    0 -0.53966750910E+01  0.12784681109E+03  0.63310905439E+03  0.66377154125E+03  0.15294330000E+03 0.  0.
<mgrwt>
<rscale>  0 0.49540427E+03</rscale>
<asrwt>0</asrwt>
<pdfrwt beam="1">  1        2 0.13698362E+00 0.67095763E+03</pdfrwt>
<pdfrwt beam="2">  1       -2 0.11954695E+00 0.67095763E+03</pdfrwt>
<totfact> 0.16347047E+01</totfact>
</mgrwt>
</event>
<event>
 4    1  0.2089815E-007  0.9636137E+03  0.7818608E-02  0.9430792E-01
          2   -1    0    0  501    0  0.00000000000E+00  0.00000000000E+00  0.14590527622E+04  0.14590527622E+04  0.25500000000E-02 0. -1.
         -2   -1    0    0    0  501 -0.00000000000E+00 -0.00000000000E+00 -0.88770794371E+03  0.88770794371E+03  0.25500000000E-02 0.  1.
    8880023    1    1    2    0    0 -0.16642177238E+03  0.68340683048E+03  0.10935056997E+04  0.14574999224E+04  0.65864270000E+03 0.  0.
    8880022    1    1    2    0    0  0.16642177238E+03 -0.68340683048E+03 -0.52216088119E+03  0.88926078353E+03  0.15294330000E+03 0.  0.
<mgrwt>
<rscale>  0 0.89584391E+03</rscale>
<asrwt>0</asrwt>
<pdfrwt beam="1">  1        2 0.22446965E+00 0.96361367E+03</pdfrwt>
<pdfrwt beam="2">  1       -2 0.13657045E+00 0.96361367E+03</pdfrwt>
<totfact> 0.51128143E+00</totfact>
</mgrwt>
</event>
<event>
 4    1  0.2089815E-007  0.1104985E+04  0.7818608E-02  0.9255526E-01
         -2   -1    0    0    0  501 -0.00000000000E+00  0.00000000000E+00  0.60139012612E+03  0.60139012612E+03  0.25500000000E-02 0.  1.
          2   -1    0    0  501    0  0.00000000000E+00 -0.00000000000E+00 -0.28024453694E+04  0.28024453694E+04  0.25500000000E-02 0. -1.
    8880023    1    1    2    0    0  0.40072948128E+03 -0.79157888696E+03 -0.22452569571E+04  0.25024328685E+04  0.65864270000E+03 0.  0.
    8880022    1    1    2    0    0 -0.40072948128E+03  0.79157888696E+03  0.44201713883E+02  0.90140262700E+03  0.15294330000E+03 0.  0.
<mgrwt>
<rscale>  0 0.10498234E+04</rscale>
<asrwt>0</asrwt>
<pdfrwt beam="1">  1        2 0.43114544E+00 0.11049848E+04</pdfrwt>
<pdfrwt beam="2">  1       -2 0.92521559E-01 0.11049848E+04</pdfrwt>
<totfact> 0.22857350E+00</totfact>
</mgrwt>
</event>
<event>
 4    1  0.2089815E-007  0.8380558E+03  0.7818608E-02  0.9633857E-01
          2   -1    0    0  501    0  0.00000000000E+00  0.00000000000E+00  0.23192126902E+04  0.23192126902E+04  0.25500000000E-02 0. -1.
         -2   -1    0    0    0  501 -0.00000000000E+00 -0.00000000000E+00 -0.58884069741E+03  0.58884069742E+03  0.25500000000E-02 0.  1.
    8880023    1    1    2    0    0  0.16157546628E+03 -0.49236232598E+03  0.20948831486E+04  0.22562962802E+04  0.65864270000E+03 0. -1.
    8880022    1    1    2    0    0 -0.16157546628E+03  0.49236232598E+03 -0.36451115583E+03  0.65175710743E+03  0.15294330000E+03 0.  0.
<mgrwt>
<rscale>  0 0.75095252E+03</rscale>
<asrwt>0</asrwt>
<pdfrwt beam="1">  1        2 0.35680195E+00 0.83805578E+03</pdfrwt>
<pdfrwt beam="2">  1       -2 0.90590878E-01 0.83805578E+03</pdfrwt>
<totfact> 0.47377505E+00</totfact>
</mgrwt>
</event>
<event>
 4    1  0.2089815E-007  0.9159623E+03  0.7818608E-02  0.9500878E-01
         -2   -1    0    0    0  501 -0.00000000000E+00  0.00000000000E+00  0.33524198015E+03  0.33524198016E+03  0.25500000000E-02 0.  1.
          2   -1    0    0  501    0  0.00000000000E+00 -0.00000000000E+00 -0.18510974410E+04  0.18510974410E+04  0.25500000000E-02 0. -1.
    8880023    1    1    2    0    0 -0.52936107803E+03  0.35348780557E+03 -0.79823625393E+03  0.12149765854E+04  0.65864270000E+03 0. -1.
    8880022    1    1    2    0    0  0.52936107803E+03 -0.35348780557E+03 -0.71761920689E+03  0.97136283578E+03  0.15294330000E+03 0.  0.
<mgrwt>
<rscale>  0 0.84219126E+03</rscale>
<asrwt>0</asrwt>
<pdfrwt beam="1">  1        2 0.28478422E+00 0.91596233E+03</pdfrwt>
<pdfrwt beam="2">  1       -2 0.51575690E-01 0.91596233E+03</pdfrwt>
<totfact> 0.29004236E+01</totfact>
</mgrwt>
</event>
<event>
 4    1  0.2089815E-007  0.1523694E+04  0.7818608E-02  0.8893083E-01
         -2   -1    0    0    0  501 -0.00000000000E+00  0.00000000000E+00  0.15464413863E+04  0.15464413863E+04  0.25500000000E-02 0.  1.
          2   -1    0    0  501    0  0.00000000000E+00 -0.00000000000E+00 -0.17202919641E+04  0.17202919641E+04  0.25500000000E-02 0. -1.
    8880023    1    1    2    0    0 -0.13497157424E+04  0.25710043491E+03 -0.83149973800E+03  0.17358096784E+04  0.65864270000E+03 0.  0.
    8880022    1    1    2    0    0  0.13497157424E+04 -0.25710043491E+03  0.65764916021E+03  0.15309236721E+04  0.15294330000E+03 0.  0.
<mgrwt>
<rscale>  0 0.14870901E+04</rscale>
<asrwt>0</asrwt>
<pdfrwt beam="1">  1        2 0.26466030E+00 0.15236940E+04</pdfrwt>
<pdfrwt beam="2">  1       -2 0.23791406E+00 0.15236940E+04</pdfrwt>
<totfact> 0.68304960E-01</totfact>
</mgrwt>
</event>
<event>
 4    1  0.2089815E-007  0.8006290E+03  0.7818608E-02  0.9709438E-01
         -2   -1    0    0    0  501 -0.00000000000E+00  0.00000000000E+00  0.20140760608E+04  0.20140760608E+04  0.25500000000E-02 0.  1.
          2   -1    0    0  501    0  0.00000000000E+00 -0.00000000000E+00 -0.86944010210E+03  0.86944010210E+03  0.25500000000E-02 0. -1.
    8880023    1    1    2    0    0  0.23174612614E+03  0.39177839397E+03 -0.64654113514E+03  0.10290880539E+04  0.65864270000E+03 0.  0.
    8880022    1    1    2    0    0 -0.23174612614E+03 -0.39177839397E+03  0.17911770939E+04  0.18544281090E+04  0.15294330000E+03 0.  0.
<mgrwt>
<rscale>  0 0.70457646E+03</rscale>
<asrwt>0</asrwt>
<pdfrwt beam="1">  1        2 0.13376002E+00 0.80062899E+03</pdfrwt>
<pdfrwt beam="2">  1       -2 0.30985785E+00 0.80062899E+03</pdfrwt>
<totfact> 0.88284032E-01</totfact>
</mgrwt>
</event>
<event>
 4    1  0.2089815E-007  0.8522965E+03  0.7818608E-02  0.9607416E-01
         -2   -1    0    0    0  501 -0.00000000000E+00  0.00000000000E+00  0.58914894547E+03  0.58914894548E+03  0.25500000000E-02 0.  1.
          2   -1    0    0  501    0  0.00000000000E+00 -0.00000000000E+00 -0.15998291986E+04  0.15998291986E+04  0.25500000000E-02 0. -1.
    8880023    1    1    2    0    0  0.46888804151E+03 -0.26970918083E+03 -0.13017620054E+04  0.15559542289E+04  0.65864270000E+03 0.  0.
    8880022    1    1    2    0    0 -0.46888804151E+03  0.26970918083E+03  0.29108175220E+03  0.63302391517E+03  0.15294330000E+03 0.  0.
<mgrwt>
<rscale>  0 0.76807264E+03</rscale>
<asrwt>0</asrwt>
<pdfrwt beam="1">  1        2 0.24612757E+00 0.85229645E+03</pdfrwt>
<pdfrwt beam="2">  1       -2 0.90638300E-01 0.85229645E+03</pdfrwt>
<totfact> 0.11749740E+01</totfact>
</mgrwt>
</event>
<event>
 4    1  0.2177086E-007  0.1748881E+04  0.7818608E-02  0.8751353E-01
          2   -1    0    0  501    0  0.00000000000E+00  0.00000000000E+00  0.23405954650E+04  0.23405954650E+04  0.25500000000E-02 0. -1.
         -2   -1    0    0    0  501 -0.00000000000E+00 -0.00000000000E+00 -0.20261328150E+04  0.20261328150E+04  0.25500000000E-02 0.  1.
    8880023    1    1    2    0    0 -0.90086092370E+03 -0.13465605986E+04  0.15394221723E+04  0.23298941350E+04  0.65864270000E+03 0.  0.
    8880022    1    1    2    0    0  0.90086092370E+03  0.13465605986E+04 -0.12249595223E+04  0.20368341449E+04  0.15294330000E+03 0.  0.
<mgrwt>
<rscale>  0 0.17176649E+04</rscale>
<asrwt>0</asrwt>
<pdfrwt beam="1">  1        2 0.36009161E+00 0.17488814E+04</pdfrwt>
<pdfrwt beam="2">  1       -2 0.31171274E+00 0.17488814E+04</pdfrwt>
<totfact> 0.10541240E-01</totfact>
</mgrwt>
</event>
<event>
 4    1  0.2089815E-007  0.9231648E+03  0.7818608E-02  0.9489823E-01
         -2   -1    0    0    0  501 -0.00000000000E+00  0.00000000000E+00  0.61434239787E+03  0.61434239787E+03  0.25500000000E-02 0.  1.
          2   -1    0    0  501    0  0.00000000000E+00 -0.00000000000E+00 -0.25576537272E+04  0.25576537272E+04  0.25500000000E-02 0. -1.
    8880023    1    1    2    0    0 -0.43073209404E+03 -0.48258978156E+03 -0.22558923273E+04  0.24374748066E+04  0.65864270000E+03 0.  0.
    8880022    1    1    2    0    0  0.43073209404E+03  0.48258978156E+03  0.31258099792E+03  0.73452131854E+03  0.15294330000E+03 0.  0.
<mgrwt>
<rscale>  0 0.85038276E+03</rscale>
<asrwt>0</asrwt>
<pdfrwt beam="1">  1        2 0.39348519E+00 0.92316480E+03</pdfrwt>
<pdfrwt beam="2">  1       -2 0.94514216E-01 0.92316480E+03</pdfrwt>
<totfact> 0.31049362E+00</totfact>
</mgrwt>
</event>
<event>
 4    1  0.2089815E-007  0.6760298E+03  0.7818608E-02  0.1011665E+00
         -2   -1    0    0    0  501 -0.00000000000E+00  0.00000000000E+00  0.20745919495E+03  0.20745919497E+03  0.25500000000E-02 0.  1.
          2   -1    0    0  501    0  0.00000000000E+00 -0.00000000000E+00 -0.19320357220E+04  0.19320357220E+04  0.25500000000E-02 0. -1.
    8880023    1    1    2    0    0 -0.37829232251E+02  0.14756363243E+03 -0.17904314217E+04  0.19138079732E+04  0.65864270000E+03 0. -1.
    8880022    1    1    2    0    0  0.37829232251E+02 -0.14756363243E+03  0.65854894596E+02  0.22568694377E+03  0.15294330000E+03 0.  0.
<mgrwt>
<rscale>  0 0.50818281E+03</rscale>
<asrwt>0</asrwt>
<pdfrwt beam="1">  1        2 0.29723625E+00 0.67602979E+03</pdfrwt>
<pdfrwt beam="2">  1       -2 0.31916801E-01 0.67602979E+03</pdfrwt>
<totfact> 0.68911763E+01</totfact>
</mgrwt>
</event>
<event>
 4    1  0.2089815E-007  0.7189465E+03  0.7818608E-02  0.9926167E-01
          2   -1    0    0  501    0  0.00000000000E+00  0.00000000000E+00  0.15048030447E+04  0.15048030447E+04  0.25500000000E-02 0. -1.
         -2   -1    0    0    0  501 -0.00000000000E+00 -0.00000000000E+00 -0.53428182149E+03  0.53428182150E+03  0.25500000000E-02 0.  1.
    8880023    1    1    2    0    0 -0.17268173741E+03  0.23077030984E+03  0.13555431607E+04  0.15343993565E+04  0.65864270000E+03 0. -1.
    8880022    1    1    2    0    0  0.17268173741E+03 -0.23077030984E+03 -0.38502193751E+03  0.50468550972E+03  0.15294330000E+03 0.  0.
<mgrwt>
<rscale>  0 0.59009726E+03</rscale>
<asrwt>0</asrwt>
<pdfrwt beam="1">  1        2 0.23150816E+00 0.71894654E+03</pdfrwt>
<pdfrwt beam="2">  1       -2 0.82197204E-01 0.71894654E+03</pdfrwt>
<totfact> 0.16867219E+01</totfact>
</mgrwt>
</event>
<event>
 4    1  0.2089815E-007  0.1202052E+04  0.7818608E-02  0.9155131E-01
          2   -1    0    0  501    0  0.00000000000E+00  0.00000000000E+00  0.28885864175E+04  0.28885864175E+04  0.25500000000E-02 0. -1.
         -2   -1    0    0    0  501 -0.00000000000E+00 -0.00000000000E+00 -0.63213243275E+03  0.63213243276E+03  0.25500000000E-02 0.  1.
    8880023    1    1    2    0    0  0.96682616139E+03 -0.27634185020E+03  0.21939788191E+04  0.25016936082E+04  0.65864270000E+03 0. -1.
    8880022    1    1    2    0    0 -0.96682616139E+03  0.27634185020E+03  0.62475165617E+02  0.10190252420E+04  0.15294330000E+03 0.  0.
<mgrwt>
<rscale>  0 0.11528800E+04</rscale>
<asrwt>0</asrwt>
<pdfrwt beam="1">  1        2 0.44439790E+00 0.12020515E+04</pdfrwt>
<pdfrwt beam="2">  1       -2 0.97251146E-01 0.12020515E+04</pdfrwt>
<totfact> 0.17811968E+00</totfact>
</mgrwt>
</event>
<event>
 4    1  0.2089815E-007  0.9353409E+03  0.7818608E-02  0.9471527E-01
         -2   -1    0    0    0  501 -0.00000000000E+00  0.00000000000E+00  0.10713935222E+04  0.10713935222E+04  0.25500000000E-02 0.  1.
          2   -1    0    0  501    0  0.00000000000E+00 -0.00000000000E+00 -0.13189287703E+04  0.13189287703E+04  0.25500000000E-02 0. -1.
    8880023    1    1    2    0    0 -0.18087019461E+03  0.63901362749E+03 -0.10039767529E+04  0.13721632447E+04  0.65864270000E+03 0. -1.
    8880022    1    1    2    0    0  0.18087019461E+03 -0.63901362749E+03  0.75644150478E+03  0.10181590478E+04  0.15294330000E+03 0.  0.
<mgrwt>
<rscale>  0 0.86415995E+03</rscale>
<asrwt>0</asrwt>
<pdfrwt beam="1">  1        2 0.20291212E+00 0.93534093E+03</pdfrwt>
<pdfrwt beam="2">  1       -2 0.16482977E+00 0.93534093E+03</pdfrwt>
<totfact> 0.37386944E+00</totfact>
</mgrwt>
</event>
<event>
 4    1  0.2089815E-007  0.1598312E+04  0.7818608E-02  0.8843163E-01
          2   -1    0    0  501    0  0.00000000000E+00  0.00000000000E+00  0.23938983400E+04  0.23938983400E+04  0.25500000000E-02 0. -1.
         -2   -1    0    0    0  501 -0.00000000000E+00 -0.00000000000E+00 -0.23775184554E+04  0.23775184554E+04  0.25500000000E-02 0.  1.
    8880023    1    1    2    0    0  0.13667664151E+04  0.50273370029E+03  0.18370076146E+04  0.24349946179E+04  0.65864270000E+03 0.  0.
    8880022    1    1    2    0    0 -0.13667664151E+04 -0.50273370029E+03 -0.18206277301E+04  0.23364221775E+04  0.15294330000E+03 0.  0.
<mgrwt>
<rscale>  0 0.15637018E+04</rscale>
<asrwt>0</asrwt>
<pdfrwt beam="1">  1        2 0.36829205E+00 0.15983122E+04</pdfrwt>
<pdfrwt beam="2">  1       -2 0.36577207E+00 0.15983122E+04</pdfrwt>
<totfact> 0.45902330E-02</totfact>
</mgrwt>
</event>
<event>
 4    1  0.2089815E-007  0.1400860E+04  0.7818608E-02  0.8983015E-01
          2   -1    0    0  501    0  0.00000000000E+00  0.00000000000E+00  0.28680873029E+04  0.28680873029E+04  0.25500000000E-02 0. -1.
         -2   -1    0    0    0  501 -0.00000000000E+00 -0.00000000000E+00 -0.10206537285E+04  0.10206537285E+04  0.25500000000E-02 0.  1.
    8880023    1    1    2    0    0  0.78343415136E+03 -0.95646678364E+03 -0.27509947349E+03  0.14276160914E+04  0.65864270000E+03 0.  0.
    8880022    1    1    2    0    0 -0.78343415136E+03  0.95646678364E+03  0.21225330480E+04  0.24611249400E+04  0.15294330000E+03 0.  0.
<mgrwt>
<rscale>  0 0.13603701E+04</rscale>
<asrwt>0</asrwt>
<pdfrwt beam="1">  1        2 0.44124420E+00 0.14008597E+04</pdfrwt>
<pdfrwt beam="2">  1       -2 0.15702365E+00 0.14008597E+04</pdfrwt>
<totfact> 0.53309060E-01</totfact>
</mgrwt>
</event>
<event>
 4    1  0.2089815E-007  0.7792870E+03  0.7818608E-02  0.9757515E-01
         -2   -1    0    0    0  501 -0.00000000000E+00  0.00000000000E+00  0.16524476038E+03  0.16524476040E+03  0.25500000000E-02 0.  1.
          2   -1    0    0  501    0  0.00000000000E+00 -0.00000000000E+00 -0.30208307137E+04  0.30208307137E+04  0.25500000000E-02 0. -1.
    8880023    1    1    2    0    0 -0.34371164786E+03  0.23524514705E+03 -0.24964216895E+04  0.26152264595E+04  0.65864270000E+03 0.  0.
    8880022    1    1    2    0    0  0.34371164786E+03 -0.23524514705E+03 -0.35916426375E+03  0.57084901458E+03  0.15294330000E+03 0.  1.
<mgrwt>
<rscale>  0 0.67693256E+03</rscale>
<asrwt>0</asrwt>
<pdfrwt beam="1">  1        2 0.46474314E+00 0.77928697E+03</pdfrwt>
<pdfrwt beam="2">  1       -2 0.25422273E-01 0.77928697E+03</pdfrwt>
<totfact> 0.24759301E+01</totfact>
</mgrwt>
</event>
<event>
 4    1  0.2089815E-007  0.7851557E+03  0.7818608E-02  0.9743863E-01
         -2   -1    0    0    0  501 -0.00000000000E+00  0.00000000000E+00  0.31494474063E+03  0.31494474064E+03  0.25500000000E-02 0.  1.
          2   -1    0    0  501    0  0.00000000000E+00 -0.00000000000E+00 -0.24924680829E+04  0.24924680829E+04  0.25500000000E-02 0. -1.
    8880023    1    1    2    0    0 -0.29044217286E+03 -0.31353239368E+03 -0.22168490711E+04  0.23517842648E+04  0.65864270000E+03 0. -1.
    8880022    1    1    2    0    0  0.29044217286E+03  0.31353239368E+03  0.39325728791E+02  0.45562855883E+03  0.15294330000E+03 0.  0.
<mgrwt>
<rscale>  0 0.68464215E+03</rscale>
<asrwt>0</asrwt>
<pdfrwt beam="1">  1        2 0.38345662E+00 0.78515567E+03</pdfrwt>
<pdfrwt beam="2">  1       -2 0.48453039E-01 0.78515567E+03</pdfrwt>
<totfact> 0.14772358E+01</totfact>
</mgrwt>
</event>
<event>
 4    1  0.2089815E-007  0.7235134E+03  0.7818608E-02  0.9910872E-01
          2   -1    0    0  501    0  0.00000000000E+00  0.00000000000E+00  0.35402083014E+04  0.35402083014E+04  0.25500000000E-02 0. -1.
         -2   -1    0    0    0  501 -0.00000000000E+00 -0.00000000000E+00 -0.14724978754E+03  0.14724978756E+03  0.25500000000E-02 0.  1.
    8880023    1    1    2    0    0 -0.28490236206E+02 -0.29807670685E+03  0.32368975133E+04  0.33167720956E+04  0.65864270000E+03 0. -1.
    8880022    1    1    2    0    0  0.28490236206E+02  0.29807670685E+03  0.15606100059E+03  0.37068599332E+03  0.15294330000E+03 0.  0.
<mgrwt>
<rscale>  0 0.59737250E+03</rscale>
<asrwt>0</asrwt>
<pdfrwt beam="1">  1        2 0.54464741E+00 0.72351339E+03</pdfrwt>
<pdfrwt beam="2">  1       -2 0.22653815E-01 0.72351339E+03</pdfrwt>
<totfact> 0.14144094E+01</totfact>
</mgrwt>
</event>
<event>
 4    1  0.2089815E-007  0.1792807E+04  0.7818608E-02  0.8726526E-01
         -2   -1    0    0    0  501 -0.00000000000E+00  0.00000000000E+00  0.14124396083E+04  0.14124396083E+04  0.25500000000E-02 0.  1.
          2   -1    0    0  501    0  0.00000000000E+00 -0.00000000000E+00 -0.24108530704E+04  0.24108530704E+04  0.25500000000E-02 0. -1.
    8880023    1    1    2    0    0 -0.65065309792E+03  0.15352521113E+04 -0.11688869961E+04  0.21401998774E+04  0.65864270000E+03 0. -1.
    8880022    1    1    2    0    0  0.65065309792E+03 -0.15352521113E+04  0.17047353400E+03  0.16830928013E+04  0.15294330000E+03 0.  0.
<mgrwt>
<rscale>  0 0.17624527E+04</rscale>
<asrwt>0</asrwt>
<pdfrwt beam="1">  1        2 0.37090047E+00 0.17928075E+04</pdfrwt>
<pdfrwt beam="2">  1       -2 0.21729840E+00 0.17928075E+04</pdfrwt>
<totfact> 0.36692720E-01</totfact>
</mgrwt>
</event>
<event>
 4    1  0.2089815E-007  0.1274769E+04  0.7818608E-02  0.9087660E-01
          2   -1    0    0  501    0  0.00000000000E+00  0.00000000000E+00  0.17378668508E+04  0.17378668508E+04  0.25500000000E-02 0. -1.
         -2   -1    0    0    0  501 -0.00000000000E+00 -0.00000000000E+00 -0.27378101746E+04  0.27378101746E+04  0.25500000000E-02 0.  1.
    8880023    1    1    2    0    0  0.86448283420E+03 -0.66625527073E+03  0.13643006578E+04  0.18671778564E+04  0.65864270000E+03 0.  0.
    8880022    1    1    2    0    0 -0.86448283420E+03  0.66625527073E+03 -0.23642439816E+04  0.26084991689E+04  0.15294330000E+03 0.  0.
<mgrwt>
<rscale>  0 0.12292174E+04</rscale>
<asrwt>0</asrwt>
<pdfrwt beam="1">  1        2 0.26736413E+00 0.12747693E+04</pdfrwt>
<pdfrwt beam="2">  1       -2 0.42120156E+00 0.12747693E+04</pdfrwt>
<totfact> 0.48877886E-02</totfact>
</mgrwt>
</event>
<event>
 4    1  0.2089815E-007  0.9544579E+03  0.7818608E-02  0.9443729E-01
          2   -1    0    0  501    0  0.00000000000E+00  0.00000000000E+00  0.97096077037E+03  0.97096077037E+03  0.25500000000E-02 0. -1.
         -2   -1    0    0    0  501 -0.00000000000E+00 -0.00000000000E+00 -0.15185832974E+04  0.15185832974E+04  0.25500000000E-02 0.  1.
    8880023    1    1    2    0    0  0.21044680597E+03 -0.65794515640E+03  0.61007096650E+03  0.11327737980E+04  0.65864270000E+03 0. -1.
    8880022    1    1    2    0    0 -0.21044680597E+03  0.65794515640E+03 -0.11576934935E+04  0.13567702697E+04  0.15294330000E+03 0.  0.
<mgrwt>
<rscale>  0 0.88562697E+03</rscale>
<asrwt>0</asrwt>
<pdfrwt beam="1">  1        2 0.14937858E+00 0.95445791E+03</pdfrwt>
<pdfrwt beam="2">  1       -2 0.23362820E+00 0.95445791E+03</pdfrwt>
<totfact> 0.21357935E+00</totfact>
</mgrwt>
</event>
<event>
 4    1  0.2089815E-007  0.9275718E+03  0.7818608E-02  0.9483145E-01
         -2   -1    0    0    0  501 -0.00000000000E+00  0.00000000000E+00  0.79950286596E+03  0.79950286597E+03  0.25500000000E-02 0.  1.
          2   -1    0    0  501    0  0.00000000000E+00 -0.00000000000E+00 -0.18523030901E+04  0.18523030901E+04  0.25500000000E-02 0. -1.
    8880023    1    1    2    0    0  0.12991383401E+03 -0.64007940891E+03 -0.15571982876E+04  0.18125275080E+04  0.65864270000E+03 0.  0.
    8880022    1    1    2    0    0 -0.12991383401E+03  0.64007940891E+03  0.50439806347E+03  0.83927844809E+03  0.15294330000E+03 0.  0.
<mgrwt>
<rscale>  0 0.85537925E+03</rscale>
<asrwt>0</asrwt>
<pdfrwt beam="1">  1        2 0.28496970E+00 0.92757181E+03</pdfrwt>
<pdfrwt beam="2">  1       -2 0.12300044E+00 0.92757181E+03</pdfrwt>
<totfact> 0.40546411E+00</totfact>
</mgrwt>
</event>
<event>
 4    1  0.2089815E-007  0.8945470E+03  0.7818608E-02  0.9534843E-01
          2   -1    0    0  501    0  0.00000000000E+00  0.00000000000E+00  0.32106723556E+04  0.32106723556E+04  0.25500000000E-02 0. -1.
         -2   -1    0    0    0  501 -0.00000000000E+00 -0.00000000000E+00 -0.74000307240E+03  0.74000307240E+03  0.25500000000E-02 0.  1.
    8880023    1    1    2    0    0  0.39966506015E+03 -0.45461183786E+03  0.30010084039E+04  0.31314957656E+04  0.65864270000E+03 0. -1.
    8880022    1    1    2    0    0 -0.39966506015E+03  0.45461183786E+03 -0.53033912067E+03  0.81917966244E+03  0.15294330000E+03 0.  0.
<mgrwt>
<rscale>  0 0.81763034E+03</rscale>
<asrwt>0</asrwt>
<pdfrwt beam="1">  1        2 0.49394959E+00 0.89454697E+03</pdfrwt>
<pdfrwt beam="2">  1       -2 0.11384663E+00 0.89454697E+03</pdfrwt>
<totfact> 0.80502004E-01</totfact>
</mgrwt>
</event>
<event>
 4    1  0.2089815E-007  0.9061434E+03  0.7818608E-02  0.9516241E-01
         -2   -1    0    0    0  501 -0.00000000000E+00  0.00000000000E+00  0.68742929864E+03  0.68742929864E+03  0.25500000000E-02 0.  1.
          2   -1    0    0  501    0  0.00000000000E+00 -0.00000000000E+00 -0.26412723031E+04  0.26412723031E+04  0.25500000000E-02 0. -1.
    8880023    1    1    2    0    0  0.61966697781E+03 -0.57431997629E+02 -0.23883338769E+04  0.25544538578E+04  0.65864270000E+03 0.  0.
    8880022    1    1    2    0    0 -0.61966697781E+03  0.57431997629E+02  0.43449087246E+03  0.77424774395E+03  0.15294330000E+03 0.  0.
<mgrwt>
<rscale>  0 0.83096985E+03</rscale>
<asrwt>0</asrwt>
<pdfrwt beam="1">  1        2 0.40634958E+00 0.90614337E+03</pdfrwt>
<pdfrwt beam="2">  1       -2 0.10575835E+00 0.90614337E+03</pdfrwt>
<totfact> 0.21325078E+00</totfact>
</mgrwt>
</event>
<event>
 4    1  0.2089815E-007  0.6871869E+03  0.7818608E-02  0.1005519E+00
          2   -1    0    0  501    0  0.00000000000E+00  0.00000000000E+00  0.14615462303E+04  0.14615462303E+04  0.25500000000E-02 0. -1.
         -2   -1    0    0    0  501 -0.00000000000E+00 -0.00000000000E+00 -0.41584281076E+03  0.41584281077E+03  0.25500000000E-02 0.  1.
    8880023    1    1    2    0    0  0.12930930337E+03  0.14729125315E+03  0.13316342051E+04  0.14984910650E+04  0.65864270000E+03 0. -1.
    8880022    1    1    2    0    0 -0.12930930337E+03 -0.14729125315E+03 -0.28593078556E+03  0.37889797616E+03  0.15294330000E+03 0.  0.
<mgrwt>
<rscale>  0 0.53294953E+03</rscale>
<asrwt>0</asrwt>
<pdfrwt beam="1">  1        2 0.22485327E+00 0.68718689E+03</pdfrwt>
<pdfrwt beam="2">  1       -2 0.63975817E-01 0.68718689E+03</pdfrwt>
<totfact> 0.31059535E+01</totfact>
</mgrwt>
</event>
<event>
 4    1  0.2089815E-007  0.1066769E+04  0.7818608E-02  0.9298989E-01
          2   -1    0    0  501    0  0.00000000000E+00  0.00000000000E+00  0.20615181301E+04  0.20615181301E+04  0.25500000000E-02 0. -1.
         -2   -1    0    0    0  501 -0.00000000000E+00 -0.00000000000E+00 -0.10213484610E+04  0.10213484611E+04  0.25500000000E-02 0.  1.
    8880023    1    1    2    0    0  0.11763913145E+03 -0.83087148394E+03  0.16982692893E+04  0.20055211725E+04  0.65864270000E+03 0.  0.
    8880022    1    1    2    0    0 -0.11763913145E+03  0.83087148394E+03 -0.65809962020E+03  0.10773454187E+04  0.15294330000E+03 0.  0.
<mgrwt>
<rscale>  0 0.10087599E+04</rscale>
<asrwt>0</asrwt>
<pdfrwt beam="1">  1        2 0.31715663E+00 0.10667692E+04</pdfrwt>
<pdfrwt beam="2">  1       -2 0.15713054E+00 0.10667692E+04</pdfrwt>
<totfact> 0.16161836E+00</totfact>
</mgrwt>
</event>
<event>
 4    1  0.2089815E-007  0.7245503E+03  0.7818608E-02  0.9907480E-01
          2   -1    0    0  501    0  0.00000000000E+00  0.00000000000E+00  0.19414226341E+04  0.19414226341E+04  0.25500000000E-02 0. -1.
         -2   -1    0    0    0  501 -0.00000000000E+00 -0.00000000000E+00 -0.33044235662E+03  0.33044235663E+03  0.25500000000E-02 0.  1.
    8880023    1    1    2    0    0  0.28227440436E+03 -0.10716364815E+03  0.17590550587E+04  0.19024320731E+04  0.65864270000E+03 0. -1.
    8880022    1    1    2    0    0 -0.28227440436E+03  0.10716364815E+03 -0.14807478119E+03  0.36943291770E+03  0.15294330000E+03 0.  0.
<mgrwt>
<rscale>  0 0.59900153E+03</rscale>
<asrwt>0</asrwt>
<pdfrwt beam="1">  1        2 0.29868040E+00 0.72455027E+03</pdfrwt>
<pdfrwt beam="2">  1       -2 0.50837286E-01 0.72455027E+03</pdfrwt>
<totfact> 0.27269976E+01</totfact>
</mgrwt>
</event>
<event>
 4    1  0.2089815E-007  0.6604344E+03  0.7818608E-02  0.1023716E+00
          2   -1    0    0  501    0  0.00000000000E+00  0.00000000000E+00  0.20407638091E+04  0.20407638091E+04  0.25500000000E-02 0. -1.
         -2   -1    0    0    0  501 -0.00000000000E+00 -0.00000000000E+00 -0.15439029137E+03  0.15439029139E+03  0.25500000000E-02 0.  1.
    8880023    1    1    2    0    0 -0.47530716028E+02  0.10206364781E+02  0.19206708279E+04  0.20310465219E+04  0.65864270000E+03 0. -1.
    8880022    1    1    2    0    0  0.47530716028E+02 -0.10206364781E+02 -0.34297310157E+02  0.16410757858E+03  0.15294330000E+03 0.  0.
<mgrwt>
<rscale>  0 0.46369234E+03</rscale>
<asrwt>0</asrwt>
<pdfrwt beam="1">  1        2 0.31396366E+00 0.66043436E+03</pdfrwt>
<pdfrwt beam="2">  1       -2 0.23752353E-01 0.66043436E+03</pdfrwt>
<totfact> 0.10341744E+02</totfact>
</mgrwt>
</event>
<event>
 4    1  0.2089815E-007  0.8642842E+03  0.7818608E-02  0.9585988E-01
          2   -1    0    0  501    0  0.00000000000E+00  0.00000000000E+00  0.11450101069E+04  0.11450101069E+04  0.25500000000E-02 0. -1.
         -2   -1    0    0    0  501 -0.00000000000E+00 -0.00000000000E+00 -0.11343093347E+04  0.11343093347E+04  0.25500000000E-02 0.  1.
    8880023    1    1    2    0    0 -0.27224550796E+03  0.48893703981E+03  0.88049604510E+03  0.12337992289E+04  0.65864270000E+03 0. -1.
    8880022    1    1    2    0    0  0.27224550796E+03 -0.48893703981E+03 -0.86979527284E+03  0.10455202127E+04  0.15294330000E+03 0.  0.
<mgrwt>
<rscale>  0 0.78230600E+03</rscale>
<asrwt>0</asrwt>
<pdfrwt beam="1">  1        2 0.17615540E+00 0.86428424E+03</pdfrwt>
<pdfrwt beam="2">  1       -2 0.17450913E+00 0.86428424E+03</pdfrwt>
<totfact> 0.40773657E+00</totfact>
</mgrwt>
</event>
<event>
 4    1  0.2089815E-007  0.1013184E+04  0.7818608E-02  0.9364509E-01
          2   -1    0    0  501    0  0.00000000000E+00  0.00000000000E+00  0.11994204778E+04  0.11994204778E+04  0.25500000000E-02 0. -1.
         -2   -1    0    0    0  501 -0.00000000000E+00 -0.00000000000E+00 -0.11323178735E+04  0.11323178735E+04  0.25500000000E-02 0.  1.
    8880023    1    1    2    0    0 -0.76756173582E+03 -0.59836782863E+02  0.77432440630E+03  0.12751940838E+04  0.65864270000E+03 0.  1.
    8880022    1    1    2    0    0  0.76756173582E+03  0.59836782863E+02 -0.70722180202E+03  0.10565442675E+04  0.15294330000E+03 0.  0.
<mgrwt>
<rscale>  0 0.95054932E+03</rscale>
<asrwt>0</asrwt>
<pdfrwt beam="1">  1        2 0.18452623E+00 0.10131839E+04</pdfrwt>
<pdfrwt beam="2">  1       -2 0.17420275E+00 0.10131839E+04</pdfrwt>
<totfact> 0.37346374E+00</totfact>
</mgrwt>
</event>
<event>
 4    1  0.2089815E-007  0.7318239E+03  0.7818608E-02  0.9884437E-01
         -2   -1    0    0    0  501 -0.00000000000E+00  0.00000000000E+00  0.73755178604E+03  0.73755178605E+03  0.25500000000E-02 0.  1.
          2   -1    0    0  501    0  0.00000000000E+00 -0.00000000000E+00 -0.49023642555E+03  0.49023642556E+03  0.25500000000E-02 0. -1.
    8880023    1    1    2    0    0 -0.24241423986E+03 -0.20734358402E+03 -0.92021882649E+02  0.73758678044E+03  0.65864270000E+03 0.  0.
    8880022    1    1    2    0    0  0.24241423986E+03  0.20734358402E+03  0.33933724314E+03  0.49020143117E+03  0.15294330000E+03 0.  0.
<mgrwt>
<rscale>  0 0.61021488E+03</rscale>
<asrwt>0</asrwt>
<pdfrwt beam="1">  1        2 0.75420989E-01 0.73182391E+03</pdfrwt>
<pdfrwt beam="2">  1       -2 0.11346950E+00 0.73182391E+03</pdfrwt>
<totfact> 0.38897220E+01</totfact>
</mgrwt>
</event>
<event>
 4    1  0.2089815E-007  0.1391721E+04  0.7818608E-02  0.8990143E-01
          2   -1    0    0  501    0  0.00000000000E+00  0.00000000000E+00  0.80735864414E+03  0.80735864415E+03  0.25500000000E-02 0. -1.
         -2   -1    0    0    0  501 -0.00000000000E+00 -0.00000000000E+00 -0.22205954441E+04  0.22205954441E+04  0.25500000000E-02 0.  1.
    8880023    1    1    2    0    0  0.24076099277E+03  0.12021275656E+04 -0.45435638855E+03  0.14640104077E+04  0.65864270000E+03 0.  0.
    8880022    1    1    2    0    0 -0.24076099277E+03 -0.12021275656E+04 -0.95888041140E+03  0.15639436806E+04  0.15294330000E+03 0.  0.
<mgrwt>
<rscale>  0 0.13509058E+04</rscale>
<asrwt>0</asrwt>
<pdfrwt beam="1">  1        2 0.12420902E+00 0.13917208E+04</pdfrwt>
<pdfrwt beam="2">  1       -2 0.34163007E+00 0.13917208E+04</pdfrwt>
<totfact> 0.57586768E-01</totfact>
</mgrwt>
</event>
<event>
 4    1  0.2089815E-007  0.1088020E+04  0.7818608E-02  0.9274513E-01
          2   -1    0    0  501    0  0.00000000000E+00  0.00000000000E+00  0.25446155183E+04  0.25446155183E+04  0.25500000000E-02 0. -1.
         -2   -1    0    0    0  501 -0.00000000000E+00 -0.00000000000E+00 -0.89953736197E+03  0.89953736198E+03  0.25500000000E-02 0.  1.
    8880023    1    1    2    0    0 -0.41010155050E+02 -0.86504071852E+03  0.21646615056E+04  0.24227147826E+04  0.65864270000E+03 0. -1.
    8880022    1    1    2    0    0  0.41010155050E+02  0.86504071852E+03 -0.51958334931E+03  0.10214380977E+04  0.15294330000E+03 0.  0.
<mgrwt>
<rscale>  0 0.10316348E+04</rscale>
<asrwt>0</asrwt>
<pdfrwt beam="1">  1        2 0.39147931E+00 0.10880200E+04</pdfrwt>
<pdfrwt beam="2">  1       -2 0.13839036E+00 0.10880200E+04</pdfrwt>
<totfact> 0.12064196E+00</totfact>
</mgrwt>
</event>
<event>
 4    1  0.2089815E-007  0.1381754E+04  0.7818608E-02  0.8997992E-01
          2   -1    0    0  501    0  0.00000000000E+00  0.00000000000E+00  0.16757984865E+04  0.16757984865E+04  0.25500000000E-02 0. -1.
         -2   -1    0    0    0  501 -0.00000000000E+00 -0.00000000000E+00 -0.14845754343E+04  0.14845754343E+04  0.25500000000E-02 0.  1.
    8880023    1    1    2    0    0  0.96224881441E+03  0.74129000484E+03  0.98890396614E+03  0.16991688888E+04  0.65864270000E+03 0. -1.
    8880022    1    1    2    0    0 -0.96224881441E+03 -0.74129000484E+03 -0.79768091399E+03  0.14612050320E+04  0.15294330000E+03 0.  0.
<mgrwt>
<rscale>  0 0.13405774E+04</rscale>
<asrwt>0</asrwt>
<pdfrwt beam="1">  1        2 0.25781515E+00 0.13817539E+04</pdfrwt>
<pdfrwt beam="2">  1       -2 0.22839622E+00 0.13817539E+04</pdfrwt>
<totfact> 0.84164444E-01</totfact>
</mgrwt>
</event>
<event>
 4    1  0.2089815E-007  0.1230684E+04  0.7818608E-02  0.9127858E-01
          2   -1    0    0  501    0  0.00000000000E+00  0.00000000000E+00  0.26089343793E+04  0.26089343793E+04  0.25500000000E-02 0. -1.
         -2   -1    0    0    0  501 -0.00000000000E+00 -0.00000000000E+00 -0.80500652708E+03  0.80500652708E+03  0.25500000000E-02 0.  1.
    8880023    1    1    2    0    0 -0.91416583900E+03 -0.49504853015E+03  0.19968045399E+04  0.23455939131E+04  0.65864270000E+03 0.  0.
    8880022    1    1    2    0    0  0.91416583900E+03  0.49504853015E+03 -0.19287668767E+03  0.10683469933E+04  0.15294330000E+03 0.  0.
<mgrwt>
<rscale>  0 0.11830117E+04</rscale>
<asrwt>0</asrwt>
<pdfrwt beam="1">  1        2 0.40137452E+00 0.12306837E+04</pdfrwt>
<pdfrwt beam="2">  1       -2 0.12384716E+00 0.12306837E+04</pdfrwt>
<totfact> 0.14429247E+00</totfact>
</mgrwt>
</event>
<event>
 4    1  0.2089815E-007  0.1382597E+04  0.7818608E-02  0.8997325E-01
          2   -1    0    0  501    0  0.00000000000E+00  0.00000000000E+00  0.29212918868E+04  0.29212918868E+04  0.25500000000E-02 0. -1.
         -2   -1    0    0    0  501 -0.00000000000E+00 -0.00000000000E+00 -0.80166880439E+03  0.80166880439E+03  0.25500000000E-02 0.  1.
    8880023    1    1    2    0    0  0.56084798543E+03 -0.10785233584E+04  0.20793882118E+04  0.24970840272E+04  0.65864270000E+03 0.  0.
    8880022    1    1    2    0    0 -0.56084798543E+03  0.10785233584E+04  0.40234870615E+02  0.12258766640E+04  0.15294330000E+03 0.  0.
<mgrwt>
<rscale>  0 0.13414509E+04</rscale>
<asrwt>0</asrwt>
<pdfrwt beam="1">  1        2 0.44942953E+00 0.13825966E+04</pdfrwt>
<pdfrwt beam="2">  1       -2 0.12333366E+00 0.13825966E+04</pdfrwt>
<totfact> 0.93177807E-01</totfact>
</mgrwt>
</event>
<event>
 4    1  0.2089815E-007  0.1572375E+04  0.7818608E-02  0.8860151E-01
         -2   -1    0    0    0  501 -0.00000000000E+00  0.00000000000E+00  0.98526257983E+03  0.98526257983E+03  0.25500000000E-02 0.  1.
          2   -1    0    0  501    0  0.00000000000E+00 -0.00000000000E+00 -0.24182130412E+04  0.24182130412E+04  0.25500000000E-02 0. -1.
    8880023    1    1    2    0    0 -0.11133897333E+04  0.89382111706E+03 -0.36567613949E+03  0.16143364373E+04  0.65864270000E+03 0.  0.
    8880022    1    1    2    0    0  0.11133897333E+04 -0.89382111706E+03 -0.10672743218E+04  0.17891391837E+04  0.15294330000E+03 0.  0.
<mgrwt>
<rscale>  0 0.15370986E+04</rscale>
<asrwt>0</asrwt>
<pdfrwt beam="1">  1        2 0.37203277E+00 0.15723750E+04</pdfrwt>
<pdfrwt beam="2">  1       -2 0.15157886E+00 0.15723750E+04</pdfrwt>
<totfact> 0.10605454E+00</totfact>
</mgrwt>
</event>
<event>
 4    1  0.2089815E-007  0.1187336E+04  0.7818608E-02  0.9169532E-01
          2   -1    0    0  501    0  0.00000000000E+00  0.00000000000E+00  0.87954591885E+03  0.87954591886E+03  0.25500000000E-02 0. -1.
         -2   -1    0    0    0  501 -0.00000000000E+00 -0.00000000000E+00 -0.26318245996E+04  0.26318245996E+04  0.25500000000E-02 0.  1.
    8880023    1    1    2    0    0 -0.80171858447E+03  0.57723860301E+03  0.30341888012E+03  0.12254918672E+04  0.65864270000E+03 0. -1.
    8880022    1    1    2    0    0  0.80171858447E+03 -0.57723860301E+03 -0.20556975608E+04  0.22858786512E+04  0.15294330000E+03 0.  0.
<mgrwt>
<rscale>  0 0.11373521E+04</rscale>
<asrwt>0</asrwt>
<pdfrwt beam="1">  1        2 0.13531476E+00 0.11873362E+04</pdfrwt>
<pdfrwt beam="2">  1       -2 0.40489609E+00 0.11873362E+04</pdfrwt>
<totfact> 0.20647961E-01</totfact>
</mgrwt>
</event>
<event>
 4    1  0.2089815E-007  0.6896449E+03  0.7818608E-02  0.1004322E+00
          2   -1    0    0  501    0  0.00000000000E+00  0.00000000000E+00  0.14132191425E+04  0.14132191425E+04  0.25500000000E-02 0. -1.
         -2   -1    0    0    0  501 -0.00000000000E+00 -0.00000000000E+00 -0.39782528185E+03  0.39782528186E+03  0.25500000000E-02 0.  1.
    8880023    1    1    2    0    0 -0.12356026964E+03  0.16288860702E+03  0.12733383955E+04  0.14481024529E+04  0.65864270000E+03 0. -1.
    8880022    1    1    2    0    0  0.12356026964E+03 -0.16288860702E+03 -0.25794453485E+03  0.36294197140E+03  0.15294330000E+03 0.  0.
<mgrwt>
<rscale>  0 0.53795134E+03</rscale>
<asrwt>0</asrwt>
<pdfrwt beam="1">  1        2 0.21741834E+00 0.68964487E+03</pdfrwt>
<pdfrwt beam="2">  1       -2 0.61203888E-01 0.68964487E+03</pdfrwt>
<totfact> 0.36314324E+01</totfact>
</mgrwt>
</event>
<event>
 4    1  0.2089815E-007  0.9372783E+03  0.7818608E-02  0.9468659E-01
          2   -1    0    0  501    0  0.00000000000E+00  0.00000000000E+00  0.83671308095E+03  0.83671308095E+03  0.25500000000E-02 0. -1.
         -2   -1    0    0    0  501 -0.00000000000E+00 -0.00000000000E+00 -0.15572420693E+04  0.15572420693E+04  0.25500000000E-02 0.  1.
    8880023    1    1    2    0    0 -0.62667389355E+03  0.22794806408E+03  0.44879744604E+03  0.10391871066E+04  0.65864270000E+03 0.  0.
    8880022    1    1    2    0    0  0.62667389355E+03 -0.22794806408E+03 -0.11693264344E+04  0.13547680436E+04  0.15294330000E+03 0.  0.
<mgrwt>
<rscale>  0 0.86634433E+03</rscale>
<asrwt>0</asrwt>
<pdfrwt beam="1">  1        2 0.12872509E+00 0.93727834E+03</pdfrwt>
<pdfrwt beam="2">  1       -2 0.23957570E+00 0.93727834E+03</pdfrwt>
<totfact> 0.24253036E+00</totfact>
</mgrwt>
</event>
<event>
 4    1  0.2089815E-007  0.9242662E+03  0.7818608E-02  0.9488148E-01
         -2   -1    0    0    0  501 -0.00000000000E+00  0.00000000000E+00  0.35081218793E+03  0.35081218794E+03  0.25500000000E-02 0.  1.
          2   -1    0    0  501    0  0.00000000000E+00 -0.00000000000E+00 -0.29135817135E+04  0.29135817135E+04  0.25500000000E-02 0. -1.
    8880023    1    1    2    0    0  0.15305698440E+03  0.63010430440E+03 -0.24096140237E+04  0.25807959672E+04  0.65864270000E+03 0. -1.
    8880022    1    1    2    0    0 -0.15305698440E+03 -0.63010430440E+03 -0.15315550186E+03  0.68359793422E+03  0.15294330000E+03 0.  0.
<mgrwt>
<rscale>  0 0.85163262E+03</rscale>
<asrwt>0</asrwt>
<pdfrwt beam="1">  1        2 0.44824332E+00 0.92426624E+03</pdfrwt>
<pdfrwt beam="2">  1       -2 0.53971108E-01 0.92426624E+03</pdfrwt>
<totfact> 0.65759635E+00</totfact>
</mgrwt>
</event>
<event>
 4    1  0.2089815E-007  0.9166964E+03  0.7818608E-02  0.9499743E-01
         -2   -1    0    0    0  501 -0.00000000000E+00  0.00000000000E+00  0.44052291011E+03  0.44052291012E+03  0.25500000000E-02 0.  1.
          2   -1    0    0  501    0  0.00000000000E+00 -0.00000000000E+00 -0.38028783451E+04  0.38028783451E+04  0.25500000000E-02 0. -1.
    8880023    1    1    2    0    0  0.56793410167E+03  0.28978083168E+03 -0.34610015383E+04  0.35803441076E+04  0.65864270000E+03 0. -1.
    8880022    1    1    2    0    0 -0.56793410167E+03 -0.28978083168E+03  0.98646103364E+02  0.66305714760E+03  0.15294330000E+03 0.  0.
<mgrwt>
<rscale>  0 0.84302763E+03</rscale>
<asrwt>0</asrwt>
<pdfrwt beam="1">  1        2 0.58505818E+00 0.91669639E+03</pdfrwt>
<pdfrwt beam="2">  1       -2 0.67772758E-01 0.91669639E+03</pdfrwt>
<totfact> 0.10360478E+00</totfact>
</mgrwt>
</event>
<event>
 4    1  0.2089815E-007  0.6881095E+03  0.7818608E-02  0.1005064E+00
          2   -1    0    0  501    0  0.00000000000E+00  0.00000000000E+00  0.16284773043E+04  0.16284773043E+04  0.25500000000E-02 0. -1.
         -2   -1    0    0    0  501 -0.00000000000E+00 -0.00000000000E+00 -0.17738733397E+03  0.17738733399E+03  0.25500000000E-02 0.  1.
    8880023    1    1    2    0    0 -0.40754993663E+02 -0.19499610381E+03  0.13844473445E+04  0.15460236434E+04  0.65864270000E+03 0. -1.
    8880022    1    1    2    0    0  0.40754993663E+02  0.19499610381E+03  0.66642625772E+02  0.25984099483E+03  0.15294330000E+03 0.  0.
<mgrwt>
<rscale>  0 0.53484293E+03</rscale>
<asrwt>0</asrwt>
<pdfrwt beam="1">  1        2 0.25053497E+00 0.68810948E+03</pdfrwt>
<pdfrwt beam="2">  1       -2 0.27290359E-01 0.68810948E+03</pdfrwt>
<totfact> 0.13450354E+02</totfact>
</mgrwt>
</event>
<event>
 4    1  0.2089815E-007  0.7113893E+03  0.7818608E-02  0.9952878E-01
         -2   -1    0    0    0  501 -0.00000000000E+00  0.00000000000E+00  0.60823948432E+03  0.60823948433E+03  0.25500000000E-02 0.  1.
          2   -1    0    0  501    0  0.00000000000E+00 -0.00000000000E+00 -0.84700834719E+03  0.84700834720E+03  0.25500000000E-02 0. -1.
    8880023    1    1    2    0    0 -0.89815273890E+02 -0.25337281498E+03 -0.63433097406E+03  0.95312672699E+03  0.65864270000E+03 0. -1.
    8880022    1    1    2    0    0  0.89815273890E+02  0.25337281498E+03  0.39556211119E+03  0.50212110453E+03  0.15294330000E+03 0.  0.
<mgrwt>
<rscale>  0 0.57765649E+03</rscale>
<asrwt>0</asrwt>
<pdfrwt beam="1">  1        2 0.13030898E+00 0.71138933E+03</pdfrwt>
<pdfrwt beam="2">  1       -2 0.93575306E-01 0.71138933E+03</pdfrwt>
<totfact> 0.31350372E+01</totfact>
</mgrwt>
</event>
<event>
 4    1  0.2089815E-007  0.1247163E+04  0.7818608E-02  0.9112586E-01
          2   -1    0    0  501    0  0.00000000000E+00  0.00000000000E+00  0.21223154239E+04  0.21223154239E+04  0.25500000000E-02 0. -1.
         -2   -1    0    0    0  501 -0.00000000000E+00 -0.00000000000E+00 -0.12030031142E+04  0.12030031142E+04  0.25500000000E-02 0.  1.
    8880023    1    1    2    0    0  0.18851006761E+03 -0.10421465581E+04  0.16213516164E+04  0.20455309248E+04  0.65864270000E+03 0.  0.
    8880022    1    1    2    0    0 -0.18851006761E+03  0.10421465581E+04 -0.70203930669E+03  0.12797876133E+04  0.15294330000E+03 0.  0.
<mgrwt>
<rscale>  0 0.12003088E+04</rscale>
<asrwt>0</asrwt>
<pdfrwt beam="1">  1        2 0.32651007E+00 0.12471631E+04</pdfrwt>
<pdfrwt beam="2">  1       -2 0.18507740E+00 0.12471631E+04</pdfrwt>
<totfact> 0.92363320E-01</totfact>
</mgrwt>
</event>
<event>
 4    1  0.2089815E-007  0.9748911E+03  0.7818608E-02  0.9415171E-01
          2   -1    0    0  501    0  0.00000000000E+00  0.00000000000E+00  0.29297522856E+04  0.29297522856E+04  0.25500000000E-02 0. -1.
         -2   -1    0    0    0  501 -0.00000000000E+00 -0.00000000000E+00 -0.31385225657E+03  0.31385225658E+03  0.25500000000E-02 0.  1.
    8880023    1    1    2    0    0  0.62226023725E+03  0.35971478407E+03  0.21828367996E+04  0.23906461948E+04  0.65864270000E+03 0.  0.
    8880022    1    1    2    0    0 -0.62226023725E+03 -0.35971478407E+03  0.43306322950E+03  0.85295834745E+03  0.15294330000E+03 0.  0.
<mgrwt>
<rscale>  0 0.90837616E+03</rscale>
<asrwt>0</asrwt>
<pdfrwt beam="1">  1        2 0.45073109E+00 0.97489114E+03</pdfrwt>
<pdfrwt beam="2">  1       -2 0.48284966E-01 0.97489114E+03</pdfrwt>
<totfact> 0.80199758E+00</totfact>
</mgrwt>
</event>
<event>
 4    1  0.2089815E-007  0.1883252E+04  0.7818608E-02  0.8677830E-01
          2   -1    0    0  501    0  0.00000000000E+00  0.00000000000E+00  0.26593781037E+04  0.26593781037E+04  0.25500000000E-02 0. -1.
         -2   -1    0    0    0  501 -0.00000000000E+00 -0.00000000000E+00 -0.16818027914E+04  0.16818027914E+04  0.25500000000E-02 0.  1.
    8880023    1    1    2    0    0 -0.91791409537E+03 -0.15067389887E+04  0.15927137606E+04  0.24664500798E+04  0.65864270000E+03 0.  0.
    8880022    1    1    2    0    0  0.91791409537E+03  0.15067389887E+04 -0.61513844823E+03  0.18747308154E+04  0.15294330000E+03 0.  0.
<mgrwt>
<rscale>  0 0.18545228E+04</rscale>
<asrwt>0</asrwt>
<pdfrwt beam="1">  1        2 0.40913509E+00 0.18832522E+04</pdfrwt>
<pdfrwt beam="2">  1       -2 0.25873889E+00 0.18832522E+04</pdfrwt>
<totfact> 0.14326703E-01</totfact>
</mgrwt>
</event>
<event>
 4    1  0.2089815E-007  0.1004242E+04  0.7818608E-02  0.9376029E-01
         -2   -1    0    0    0  501 -0.00000000000E+00  0.00000000000E+00  0.14152057531E+04  0.14152057531E+04  0.25500000000E-02 0.  1.
          2   -1    0    0  501    0  0.00000000000E+00 -0.00000000000E+00 -0.10764802209E+04  0.10764802209E+04  0.25500000000E-02 0. -1.
    8880023    1    1    2    0    0  0.39696772243E+03  0.64583878429E+03 -0.67989814976E+03  0.12127501013E+04  0.65864270000E+03 0.  0.
    8880022    1    1    2    0    0 -0.39696772243E+03 -0.64583878429E+03  0.10186236819E+04  0.12789358727E+04  0.15294330000E+03 0.  0.
<mgrwt>
<rscale>  0 0.94074915E+03</rscale>
<asrwt>0</asrwt>
<pdfrwt beam="1">  1        2 0.16561234E+00 0.10042417E+04</pdfrwt>
<pdfrwt beam="2">  1       -2 0.21772396E+00 0.10042417E+04</pdfrwt>
<totfact> 0.22858747E+00</totfact>
</mgrwt>
</event>
<event>
 4    1  0.2089815E-007  0.7573585E+03  0.7818608E-02  0.9811995E-01
          2   -1    0    0  501    0  0.00000000000E+00  0.00000000000E+00  0.24010512689E+04  0.24010512689E+04  0.25500000000E-02 0. -1.
         -2   -1    0    0    0  501 -0.00000000000E+00 -0.00000000000E+00 -0.38260720860E+03  0.38260720861E+03  0.25500000000E-02 0.  1.
    8880023    1    1    2    0    0  0.36599890752E+03  0.76331689245E+02  0.22103078251E+04  0.23364615586E+04  0.65864270000E+03 0. -1.
    8880022    1    1    2    0    0 -0.36599890752E+03 -0.76331689245E+02 -0.19186376471E+03  0.44719691895E+03  0.15294330000E+03 0.  1.
<mgrwt>
<rscale>  0 0.64722801E+03</rscale>
<asrwt>0</asrwt>
<pdfrwt beam="1">  1        2 0.36939250E+00 0.75735852E+03</pdfrwt>
<pdfrwt beam="2">  1       -2 0.58862647E-01 0.75735852E+03</pdfrwt>
<totfact> 0.11180375E+01</totfact>
</mgrwt>
</event>
<event>
 4    1  0.2089815E-007  0.9245447E+03  0.7818608E-02  0.9487725E-01
          2   -1    0    0  501    0  0.00000000000E+00  0.00000000000E+00  0.39593018571E+03  0.39593018572E+03  0.25500000000E-02 0. -1.
         -2   -1    0    0    0  501 -0.00000000000E+00 -0.00000000000E+00 -0.20704344602E+04  0.20704344602E+04  0.25500000000E-02 0.  1.
    8880023    1    1    2    0    0  0.12734087879E+03 -0.63620518189E+03 -0.15247307291E+04  0.17831395726E+04  0.65864270000E+03 0.  0.
    8880022    1    1    2    0    0 -0.12734087879E+03  0.63620518189E+03 -0.14977354538E+03  0.68322507330E+03  0.15294330000E+03 0.  0.
<mgrwt>
<rscale>  0 0.85194851E+03</rscale>
<asrwt>0</asrwt>
<pdfrwt beam="1">  1        2 0.60912337E-01 0.92454472E+03</pdfrwt>
<pdfrwt beam="2">  1       -2 0.31852837E+00 0.92454472E+03</pdfrwt>
<totfact> 0.20069922E+00</totfact>
</mgrwt>
</event>
<event>
 4    1  0.2089815E-007  0.9618512E+03  0.7818608E-02  0.9433264E-01
         -2   -1    0    0    0  501 -0.00000000000E+00  0.00000000000E+00  0.71078454816E+03  0.71078454816E+03  0.25500000000E-02 0.  1.
          2   -1    0    0  501    0  0.00000000000E+00 -0.00000000000E+00 -0.29017108068E+04  0.29017108068E+04  0.25500000000E-02 0. -1.
    8880023    1    1    2    0    0  0.65667628576E+03 -0.24520134120E+03 -0.26100156067E+04  0.27816072899E+04  0.65864270000E+03 0.  0.
    8880022    1    1    2    0    0 -0.65667628576E+03  0.24520134120E+03  0.41908934802E+03  0.83088806505E+03  0.15294330000E+03 0.  0.
<mgrwt>
<rscale>  0 0.89388016E+03</rscale>
<asrwt>0</asrwt>
<pdfrwt beam="1">  1        2 0.44641704E+00 0.96185116E+03</pdfrwt>
<pdfrwt beam="2">  1       -2 0.10935147E+00 0.96185116E+03</pdfrwt>
<totfact> 0.13662260E+00</totfact>
</mgrwt>
</event>
<event>
 4    1  0.2089815E-007  0.8144997E+03  0.7818608E-02  0.9680279E-01
          2   -1    0    0  501    0  0.00000000000E+00  0.00000000000E+00  0.18722423628E+04  0.18722423628E+04  0.25500000000E-02 0. -1.
         -2   -1    0    0    0  501 -0.00000000000E+00 -0.00000000000E+00 -0.98005165475E+03  0.98005165475E+03  0.25500000000E-02 0.  1.
    8880023    1    1    2    0    0 -0.44464256009E+03 -0.17858504636E+03  0.17089260392E+04  0.18931027544E+04  0.65864270000E+03 0. -1.
    8880022    1    1    2    0    0  0.44464256009E+03  0.17858504636E+03 -0.81673533118E+03  0.95919126312E+03  0.15294330000E+03 0.  0.
<mgrwt>
<rscale>  0 0.72203194E+03</rscale>
<asrwt>0</asrwt>
<pdfrwt beam="1">  1        2 0.28803728E+00 0.81449974E+03</pdfrwt>
<pdfrwt beam="2">  1       -2 0.15077718E+00 0.81449974E+03</pdfrwt>
<totfact> 0.23799140E+00</totfact>
</mgrwt>
</event>
<event>
 4    1  0.2089815E-007  0.1536491E+04  0.7818608E-02  0.8884289E-01
         -2   -1    0    0    0  501 -0.00000000000E+00  0.00000000000E+00  0.12657945868E+04  0.12657945868E+04  0.25500000000E-02 0.  1.
          2   -1    0    0  501    0  0.00000000000E+00 -0.00000000000E+00 -0.38495329241E+04  0.38495329241E+04  0.25500000000E-02 0. -1.
    8880023    1    1    2    0    0  0.13869558175E+04 -0.57870734414E+02 -0.32297387502E+04  0.35765930803E+04  0.65864270000E+03 0. -1.
    8880022    1    1    2    0    0 -0.13869558175E+04  0.57870734414E+02  0.64600041286E+03  0.15387344306E+04  0.15294330000E+03 0.  0.
<mgrwt>
<rscale>  0 0.15002467E+04</rscale>
<asrwt>0</asrwt>
<pdfrwt beam="1">  1        2 0.59223583E+00 0.15364913E+04</pdfrwt>
<pdfrwt beam="2">  1       -2 0.19473763E+00 0.15364913E+04</pdfrwt>
<totfact> 0.61502661E-02</totfact>
</mgrwt>
</event>
<event>
 4    1  0.2089815E-007  0.1053983E+04  0.7818608E-02  0.9314109E-01
          2   -1    0    0  501    0  0.00000000000E+00  0.00000000000E+00  0.11204562865E+04  0.11204562865E+04  0.25500000000E-02 0. -1.
         -2   -1    0    0    0  501 -0.00000000000E+00 -0.00000000000E+00 -0.95197385194E+03  0.95197385195E+03  0.25500000000E-02 0.  1.
    8880023    1    1    2    0    0 -0.82062801790E+03 -0.60320500062E+02  0.50705163734E+03  0.11696069749E+04  0.65864270000E+03 0. -1.
    8880022    1    1    2    0    0  0.82062801790E+03  0.60320500062E+02 -0.33856920283E+03  0.90282316353E+03  0.15294330000E+03 0.  1.
<mgrwt>
<rscale>  0 0.99494257E+03</rscale>
<asrwt>0</asrwt>
<pdfrwt beam="1">  1        2 0.17237789E+00 0.10539825E+04</pdfrwt>
<pdfrwt beam="2">  1       -2 0.14645752E+00 0.10539825E+04</pdfrwt>
<totfact> 0.66616684E+00</totfact>
</mgrwt>
</event>
<event>
 4    1  0.2089815E-007  0.8157480E+03  0.7818608E-02  0.9677726E-01
          2   -1    0    0  501    0  0.00000000000E+00  0.00000000000E+00  0.14175254817E+04  0.14175254817E+04  0.25500000000E-02 0. -1.
         -2   -1    0    0    0  501 -0.00000000000E+00 -0.00000000000E+00 -0.40689401535E+03  0.40689401536E+03  0.25500000000E-02 0.  1.
    8880023    1    1    2    0    0 -0.41963448105E+03 -0.23567236807E+03  0.10362013060E+04  0.13187713659E+04  0.65864270000E+03 0.  0.
    8880022    1    1    2    0    0  0.41963448105E+03  0.23567236807E+03 -0.25569839691E+02  0.50564813109E+03  0.15294330000E+03 0.  0.
<mgrwt>
<rscale>  0 0.72358592E+03</rscale>
<asrwt>0</asrwt>
<pdfrwt beam="1">  1        2 0.21808084E+00 0.81574798E+03</pdfrwt>
<pdfrwt beam="2">  1       -2 0.62599079E-01 0.81574798E+03</pdfrwt>
<totfact> 0.33954899E+01</totfact>
</mgrwt>
</event>
<event>
 4    1  0.2089815E-007  0.1117014E+04  0.7818608E-02  0.9242346E-01
          2   -1    0    0  501    0  0.00000000000E+00  0.00000000000E+00  0.73276019538E+03  0.73276019538E+03  0.25500000000E-02 0. -1.
         -2   -1    0    0    0  501 -0.00000000000E+00 -0.00000000000E+00 -0.18289495819E+04  0.18289495819E+04  0.25500000000E-02 0.  1.
    8880023    1    1    2    0    0 -0.43525471417E+03  0.79022953128E+03  0.21508045314E+02  0.11172207394E+04  0.65864270000E+03 0.  0.
    8880022    1    1    2    0    0  0.43525471417E+03 -0.79022953128E+03 -0.11176974318E+04  0.14444890378E+04  0.15294330000E+03 0.  0.
<mgrwt>
<rscale>  0 0.10626838E+04</rscale>
<asrwt>0</asrwt>
<pdfrwt beam="1">  1        2 0.11273234E+00 0.11170137E+04</pdfrwt>
<pdfrwt beam="2">  1       -2 0.28137686E+00 0.11170137E+04</pdfrwt>
<totfact> 0.15781541E+00</totfact>
</mgrwt>
</event>
<event>
 4    1  0.2089815E-007  0.8311255E+03  0.7818608E-02  0.9647147E-01
         -2   -1    0    0    0  501 -0.00000000000E+00  0.00000000000E+00  0.17323979310E+04  0.17323979310E+04  0.25500000000E-02 0.  1.
          2   -1    0    0  501    0  0.00000000000E+00 -0.00000000000E+00 -0.93045969474E+03  0.93045969474E+03  0.25500000000E-02 0. -1.
    8880023    1    1    2    0    0  0.47020055912E+03 -0.18939576666E+03 -0.68970422528E+03  0.10800284472E+04  0.65864270000E+03 0. -1.
    8880022    1    1    2    0    0 -0.47020055912E+03  0.18939576666E+03  0.14916424615E+04  0.15828291785E+04  0.15294330000E+03 0.  0.
<mgrwt>
<rscale>  0 0.74252777E+03</rscale>
<asrwt>0</asrwt>
<pdfrwt beam="1">  1        2 0.14314765E+00 0.83112546E+03</pdfrwt>
<pdfrwt beam="2">  1       -2 0.26652276E+00 0.83112546E+03</pdfrwt>
<totfact> 0.14568573E+00</totfact>
</mgrwt>
</event>
<event>
 4    1  0.2204061E-007  0.1434455E+04  0.7818608E-02  0.8957362E-01
          2   -1    0    0  501    0  0.00000000000E+00  0.00000000000E+00  0.41499464020E+04  0.41499464020E+04  0.25500000000E-02 0. -1.
         -2   -1    0    0    0  501 -0.00000000000E+00 -0.00000000000E+00 -0.17751762524E+04  0.17751762524E+04  0.25500000000E-02 0.  1.
    8880023    1    1    2    0    0  0.12261282322E+04 -0.34707538099E+03  0.37674154741E+04  0.40312629935E+04  0.65864270000E+03 0. -1.
    8880022    1    1    2    0    0 -0.12261282322E+04  0.34707538099E+03 -0.13926453245E+04  0.18938596608E+04  0.15294330000E+03 0.  0.
<mgrwt>
<rscale>  0 0.13951149E+04</rscale>
<asrwt>0</asrwt>
<pdfrwt beam="1">  1        2 0.63845329E+00 0.14344553E+04</pdfrwt>
<pdfrwt beam="2">  1       -2 0.27310404E+00 0.14344553E+04</pdfrwt>
<totfact> 0.11531234E-02</totfact>
</mgrwt>
</event>
<event>
 4    1  0.2089815E-007  0.9660467E+03  0.7818608E-02  0.9427393E-01
         -2   -1    0    0    0  501 -0.00000000000E+00  0.00000000000E+00  0.72800329955E+03  0.72800329955E+03  0.25500000000E-02 0.  1.
          2   -1    0    0  501    0  0.00000000000E+00 -0.00000000000E+00 -0.22330997297E+04  0.22330997297E+04  0.25500000000E-02 0. -1.
    8880023    1    1    2    0    0 -0.42356544572E+03  0.56571054749E+03 -0.19041772538E+04  0.21352136498E+04  0.65864270000E+03 0. -1.
    8880022    1    1    2    0    0  0.42356544572E+03 -0.56571054749E+03  0.39908082358E+03  0.82588937947E+03  0.15294330000E+03 0.  0.
<mgrwt>
<rscale>  0 0.89855246E+03</rscale>
<asrwt>0</asrwt>
<pdfrwt beam="1">  1        2 0.34355380E+00 0.96604675E+03</pdfrwt>
<pdfrwt beam="2">  1       -2 0.11200051E+00 0.96604675E+03</pdfrwt>
<totfact> 0.31347511E+00</totfact>
</mgrwt>
</event>
<event>
 4    1  0.2499829E-007  0.9921268E+03  0.7818608E-02  0.9391931E-01
          2   -1    0    0  501    0  0.00000000000E+00  0.00000000000E+00  0.15647858233E+04  0.15647858233E+04  0.25500000000E-02 0. -1.
         -2   -1    0    0    0  501 -0.00000000000E+00 -0.00000000000E+00 -0.21614482712E+04  0.21614482712E+04  0.25500000000E-02 0.  1.
    8880023    1    1    2    0    0 -0.70184118868E+03 -0.24067481364E+03  0.13280973821E+04  0.16577570035E+04  0.65864270000E+03 0. -1.
    8880022    1    1    2    0    0  0.70184118868E+03  0.24067481364E+03 -0.19247598299E+04  0.20684770910E+04  0.15294330000E+03 0.  0.
<mgrwt>
<rscale>  0 0.92742680E+03</rscale>
<asrwt>0</asrwt>
<pdfrwt beam="1">  1        2 0.24073628E+00 0.99212682E+03</pdfrwt>
<pdfrwt beam="2">  1       -2 0.33253050E+00 0.99212682E+03</pdfrwt>
<totfact> 0.23648877E-01</totfact>
</mgrwt>
</event>
<event>
 4    1  0.2089815E-007  0.7251497E+03  0.7818608E-02  0.9905531E-01
          2   -1    0    0  501    0  0.00000000000E+00  0.00000000000E+00  0.61125993155E+03  0.61125993155E+03  0.25500000000E-02 0. -1.
         -2   -1    0    0    0  501 -0.00000000000E+00 -0.00000000000E+00 -0.53235993229E+03  0.53235993230E+03  0.25500000000E-02 0.  1.
    8880023    1    1    2    0    0 -0.17401668553E+03 -0.24849567624E+03  0.24503950962E+03  0.76543221483E+03  0.65864270000E+03 0.  0.
    8880022    1    1    2    0    0  0.17401668553E+03  0.24849567624E+03 -0.16613951037E+03  0.37818764903E+03  0.15294330000E+03 0.  0.
<mgrwt>
<rscale>  0 0.59993966E+03</rscale>
<asrwt>0</asrwt>
<pdfrwt beam="1">  1        2 0.94039989E-01 0.72514972E+03</pdfrwt>
<pdfrwt beam="2">  1       -2 0.81901528E-01 0.72514972E+03</pdfrwt>
<totfact> 0.64441727E+01</totfact>
</mgrwt>
</event>
<event>
 4    1  0.2089815E-007  0.7923167E+03  0.7818608E-02  0.9727662E-01
          2   -1    0    0  501    0  0.00000000000E+00  0.00000000000E+00  0.21245144572E+04  0.21245144572E+04  0.25500000000E-02 0. -1.
         -2   -1    0    0    0  501 -0.00000000000E+00 -0.00000000000E+00 -0.40535468207E+03  0.40535468207E+03  0.25500000000E-02 0.  1.
    8880023    1    1    2    0    0 -0.39358713641E+03 -0.19759722861E+03  0.18772373464E+04  0.20375931290E+04  0.65864270000E+03 0. -1.
    8880022    1    1    2    0    0  0.39358713641E+03  0.19759722861E+03 -0.15807757123E+03  0.49227601022E+03  0.15294330000E+03 0.  0.
<mgrwt>
<rscale>  0 0.69393428E+03</rscale>
<asrwt>0</asrwt>
<pdfrwt beam="1">  1        2 0.32684838E+00 0.79231667E+03</pdfrwt>
<pdfrwt beam="2">  1       -2 0.62362259E-01 0.79231667E+03</pdfrwt>
<totfact> 0.14011075E+01</totfact>
</mgrwt>
</event>
<event>
 4    1  0.2089815E-007  0.8248113E+03  0.7818608E-02  0.9659514E-01
         -2   -1    0    0    0  501 -0.00000000000E+00  0.00000000000E+00  0.53290813159E+03  0.53290813159E+03  0.25500000000E-02 0.  1.
          2   -1    0    0  501    0  0.00000000000E+00 -0.00000000000E+00 -0.16252110684E+04  0.16252110684E+04  0.25500000000E-02 0. -1.
    8880023    1    1    2    0    0 -0.49373802526E+03  0.52212804104E+02 -0.13470469687E+04  0.15795091506E+04  0.65864270000E+03 0.  0.
    8880022    1    1    2    0    0  0.49373802526E+03 -0.52212804104E+02  0.25474403191E+03  0.57861004944E+03  0.15294330000E+03 0.  0.
<mgrwt>
<rscale>  0 0.73479350E+03</rscale>
<asrwt>0</asrwt>
<pdfrwt beam="1">  1        2 0.25003247E+00 0.82481126E+03</pdfrwt>
<pdfrwt beam="2">  1       -2 0.81985867E-01 0.82481126E+03</pdfrwt>
<totfact> 0.14360159E+01</totfact>
</mgrwt>
</event>
<event>
 4    1  0.2089815E-007  0.8368344E+03  0.7818608E-02  0.9636178E-01
          2   -1    0    0  501    0  0.00000000000E+00  0.00000000000E+00  0.24777623584E+04  0.24777623584E+04  0.25500000000E-02 0. -1.
         -2   -1    0    0    0  501 -0.00000000000E+00 -0.00000000000E+00 -0.22573855201E+03  0.22573855202E+03  0.25500000000E-02 0.  1.
    8880023    1    1    2    0    0  0.30792992726E+03 -0.41431964571E+03  0.81164556612E+03  0.11657874335E+04  0.65864270000E+03 0.  1.
    8880022    1    1    2    0    0 -0.30792992726E+03  0.41431964571E+03  0.14403782402E+04  0.15377134769E+04  0.15294330000E+03 0.  0.
<mgrwt>
<rscale>  0 0.74947243E+03</rscale>
<asrwt>0</asrwt>
<pdfrwt beam="1">  1        2 0.38119418E+00 0.83683440E+03</pdfrwt>
<pdfrwt beam="2">  1       -2 0.34729010E-01 0.83683440E+03</pdfrwt>
<totfact> 0.28741743E+01</totfact>
</mgrwt>
</event>
<event>
 4    1  0.2089815E-007  0.1162844E+04  0.7818608E-02  0.9194115E-01
          2   -1    0    0  501    0  0.00000000000E+00  0.00000000000E+00  0.57374477708E+03  0.57374477708E+03  0.25500000000E-02 0. -1.
         -2   -1    0    0    0  501 -0.00000000000E+00 -0.00000000000E+00 -0.20397001982E+04  0.20397001982E+04  0.25500000000E-02 0.  1.
    8880023    1    1    2    0    0  0.33079943460E+03  0.89942664991E+03 -0.10142187124E+04  0.15429991469E+04  0.65864270000E+03 0.  0.
    8880022    1    1    2    0    0 -0.33079943460E+03 -0.89942664991E+03 -0.45173670875E+03  0.10704458284E+04  0.15294330000E+03 0.  0.
<mgrwt>
<rscale>  0 0.11114382E+04</rscale>
<asrwt>0</asrwt>
<pdfrwt beam="1">  1        2 0.88268428E-01 0.11628443E+04</pdfrwt>
<pdfrwt beam="2">  1       -2 0.31380003E+00 0.11628443E+04</pdfrwt>
<totfact> 0.13546470E+00</totfact>
</mgrwt>
</event>
<event>
 4    1  0.2089815E-007  0.1257593E+04  0.7818608E-02  0.9103074E-01
         -2   -1    0    0    0  501 -0.00000000000E+00  0.00000000000E+00  0.12802422854E+04  0.12802422854E+04  0.25500000000E-02 0.  1.
          2   -1    0    0  501    0  0.00000000000E+00 -0.00000000000E+00 -0.16744322639E+04  0.16744322639E+04  0.25500000000E-02 0. -1.
    8880023    1    1    2    0    0  0.10692491199E+04  0.66604861096E+02 -0.10932381436E+04  0.16663462224E+04  0.65864270000E+03 0.  0.
    8880022    1    1    2    0    0 -0.10692491199E+04 -0.66604861096E+02  0.69904816512E+03  0.12883283270E+04  0.15294330000E+03 0.  0.
<mgrwt>
<rscale>  0 0.12112403E+04</rscale>
<asrwt>0</asrwt>
<pdfrwt beam="1">  1        2 0.25760496E+00 0.12575930E+04</pdfrwt>
<pdfrwt beam="2">  1       -2 0.19696035E+00 0.12575930E+04</pdfrwt>
<totfact> 0.13605384E+00</totfact>
</mgrwt>
</event>
<event>
 4    1  0.2089815E-007  0.7207157E+03  0.7818608E-02  0.9920172E-01
          2   -1    0    0  501    0  0.00000000000E+00  0.00000000000E+00  0.17800681972E+04  0.17800681972E+04  0.25500000000E-02 0. -1.
         -2   -1    0    0    0  501 -0.00000000000E+00 -0.00000000000E+00 -0.61483017262E+03  0.61483017262E+03  0.25500000000E-02 0.  1.
    8880023    1    1    2    0    0 -0.27235405122E+03  0.10697770139E+03  0.16544952601E+04  0.18046566792E+04  0.65864270000E+03 0. -1.
    8880022    1    1    2    0    0  0.27235405122E+03 -0.10697770139E+03 -0.48925723553E+03  0.59024169061E+03  0.15294330000E+03 0.  0.
<mgrwt>
<rscale>  0 0.59293569E+03</rscale>
<asrwt>0</asrwt>
<pdfrwt beam="1">  1        2 0.27385664E+00 0.72071573E+03</pdfrwt>
<pdfrwt beam="2">  1       -2 0.94589258E-01 0.72071573E+03</pdfrwt>
<totfact> 0.86253251E+00</totfact>
</mgrwt>
</event>
<event>
 4    1  0.2089815E-007  0.6587280E+03  0.7818608E-02  0.1025499E+00
         -2   -1    0    0    0  501 -0.00000000000E+00  0.00000000000E+00  0.45126824605E+03  0.45126824606E+03  0.25500000000E-02 0.  1.
          2   -1    0    0  501    0  0.00000000000E+00 -0.00000000000E+00 -0.19264483616E+04  0.19264483616E+04  0.25500000000E-02 0. -1.
    8880023    1    1    2    0    0  0.59347692673E+01  0.87837017232E+01 -0.18548042603E+04  0.19683042004E+04  0.65864270000E+03 0. -1.
    8880022    1    1    2    0    0 -0.59347692673E+01 -0.87837017232E+01  0.37962414478E+03  0.40941240726E+03  0.15294330000E+03 0.  0.
<mgrwt>
<rscale>  0 0.45753296E+03</rscale>
<asrwt>0</asrwt>
<pdfrwt beam="1">  1        2 0.29637667E+00 0.65872800E+03</pdfrwt>
<pdfrwt beam="2">  1       -2 0.69425885E-01 0.65872800E+03</pdfrwt>
<totfact> 0.14555744E+01</totfact>
</mgrwt>
</event>
<event>
 4    1  0.2089815E-007  0.1384506E+04  0.7818608E-02  0.8995816E-01
         -2   -1    0    0    0  501 -0.00000000000E+00  0.00000000000E+00  0.17218191804E+04  0.17218191804E+04  0.25500000000E-02 0.  1.
          2   -1    0    0  501    0  0.00000000000E+00 -0.00000000000E+00 -0.15895093456E+04  0.15895093456E+04  0.25500000000E-02 0. -1.
    8880023    1    1    2    0    0 -0.47383919289E+03 -0.11218392066E+04  0.10838651725E+04  0.17583005160E+04  0.65864270000E+03 0.  0.
    8880022    1    1    2    0    0  0.47383919289E+03  0.11218392066E+04 -0.95155533764E+03  0.15530280100E+04  0.15294330000E+03 0.  0.
<mgrwt>
<rscale>  0 0.13434301E+04</rscale>
<asrwt>0</asrwt>
<pdfrwt beam="1">  1        2 0.24453990E+00 0.13845060E+04</pdfrwt>
<pdfrwt beam="2">  1       -2 0.26489526E+00 0.13845060E+04</pdfrwt>
<totfact> 0.56002941E-01</totfact>
</mgrwt>
</event>
<event>
 4    1  0.2089815E-007  0.7503916E+03  0.7818608E-02  0.9830649E-01
         -2   -1    0    0    0  501 -0.00000000000E+00  0.00000000000E+00  0.77319332757E+03  0.77319332757E+03  0.25500000000E-02 0.  1.
          2   -1    0    0  501    0  0.00000000000E+00 -0.00000000000E+00 -0.53928258932E+03  0.53928258933E+03  0.25500000000E-02 0. -1.
    8880023    1    1    2    0    0 -0.34642192985E+03 -0.96277016419E+02 -0.14940281377E+03  0.76512013723E+03  0.65864270000E+03 0.  0.
    8880022    1    1    2    0    0  0.34642192985E+03  0.96277016419E+02  0.38331355201E+03  0.54735577967E+03  0.15294330000E+03 0.  0.
<mgrwt>
<rscale>  0 0.63743349E+03</rscale>
<asrwt>0</asrwt>
<pdfrwt beam="1">  1        2 0.82966553E-01 0.75039165E+03</pdfrwt>
<pdfrwt beam="2">  1       -2 0.11895282E+00 0.75039165E+03</pdfrwt>
<totfact> 0.30959752E+01</totfact>
</mgrwt>
</event>
<event>
 4    1  0.2089815E-007  0.7386061E+03  0.7818608E-02  0.9864026E-01
          2   -1    0    0  501    0  0.00000000000E+00  0.00000000000E+00  0.30992375276E+03  0.30992375277E+03  0.25500000000E-02 0. -1.
         -2   -1    0    0    0  501 -0.00000000000E+00 -0.00000000000E+00 -0.24632506642E+04  0.24632506642E+04  0.25500000000E-02 0.  1.
    8880023    1    1    2    0    0 -0.11650589276E+03 -0.31329724468E+03 -0.17243792447E+03  0.75846808148E+03  0.65864270000E+03 0. -1.
    8880022    1    1    2    0    0  0.11650589276E+03  0.31329724468E+03 -0.19808889870E+04  0.20147063355E+04  0.15294330000E+03 0.  0.
<mgrwt>
<rscale>  0 0.62036860E+03</rscale>
<asrwt>0</asrwt>
<pdfrwt beam="1">  1        2 0.47680579E-01 0.73860611E+03</pdfrwt>
<pdfrwt beam="2">  1       -2 0.37896163E+00 0.73860611E+03</pdfrwt>
<totfact> 0.11416085E+00</totfact>
</mgrwt>
</event>
<event>
 4    1  0.2089815E-007  0.1098683E+04  0.7818608E-02  0.9262523E-01
          2   -1    0    0  501    0  0.00000000000E+00  0.00000000000E+00  0.26734800986E+04  0.26734800986E+04  0.25500000000E-02 0. -1.
         -2   -1    0    0    0  501 -0.00000000000E+00 -0.00000000000E+00 -0.88854496890E+03  0.88854496890E+03  0.25500000000E-02 0.  1.
    8880023    1    1    2    0    0  0.86130440889E+02 -0.87514370430E+03  0.22875169435E+04  0.25376837725E+04  0.65864270000E+03 0.  0.
    8880022    1    1    2    0    0 -0.86130440889E+02  0.87514370430E+03 -0.50258181384E+03  0.10243412950E+04  0.15294330000E+03 0.  0.
<mgrwt>
<rscale>  0 0.10430746E+04</rscale>
<asrwt>0</asrwt>
<pdfrwt beam="1">  1        2 0.41130463E+00 0.10986834E+04</pdfrwt>
<pdfrwt beam="2">  1       -2 0.13669923E+00 0.10986834E+04</pdfrwt>
<totfact> 0.10466579E+00</totfact>
</mgrwt>
</event>
<event>
 4    1  0.2089815E-007  0.1362209E+04  0.7818608E-02  0.9013618E-01
          2   -1    0    0  501    0  0.00000000000E+00  0.00000000000E+00  0.19168304740E+04  0.19168304740E+04  0.25500000000E-02 0. -1.
         -2   -1    0    0    0  501 -0.00000000000E+00 -0.00000000000E+00 -0.13077863562E+04  0.13077863562E+04  0.25500000000E-02 0.  1.
    8880023    1    1    2    0    0 -0.22443302448E+03 -0.11710814349E+04  0.12616754393E+04  0.18567275056E+04  0.65864270000E+03 0.  0.
    8880022    1    1    2    0    0  0.22443302448E+03  0.11710814349E+04 -0.65263132146E+03  0.13678893246E+04  0.15294330000E+03 0.  0.
<mgrwt>
<rscale>  0 0.13203025E+04</rscale>
<asrwt>0</asrwt>
<pdfrwt beam="1">  1        2 0.29489699E+00 0.13622085E+04</pdfrwt>
<pdfrwt beam="2">  1       -2 0.20119790E+00 0.13622085E+04</pdfrwt>
<totfact> 0.92504420E-01</totfact>
</mgrwt>
</event>
<event>
 4    1  0.2089815E-007  0.1415241E+04  0.7818608E-02  0.8971930E-01
         -2   -1    0    0    0  501 -0.00000000000E+00  0.00000000000E+00  0.10034611857E+04  0.10034611857E+04  0.25500000000E-02 0.  1.
          2   -1    0    0  501    0  0.00000000000E+00 -0.00000000000E+00 -0.38378862239E+04  0.38378862239E+04  0.25500000000E-02 0. -1.
    8880023    1    1    2    0    0 -0.35341735823E+03 -0.12017456051E+04 -0.32237482383E+04  0.35207185685E+04  0.65864270000E+03 0.  0.
    8880022    1    1    2    0    0  0.35341735823E+03  0.12017456051E+04  0.38932320011E+03  0.13206288410E+04  0.15294330000E+03 0.  0.
<mgrwt>
<rscale>  0 0.13752520E+04</rscale>
<asrwt>0</asrwt>
<pdfrwt beam="1">  1        2 0.59044402E+00 0.14152408E+04</pdfrwt>
<pdfrwt beam="2">  1       -2 0.15437865E+00 0.14152408E+04</pdfrwt>
<totfact> 0.12355677E-01</totfact>
</mgrwt>
</event>
<event>
 4    1  0.2089815E-007  0.9949132E+03  0.7818608E-02  0.9388243E-01
          2   -1    0    0  501    0  0.00000000000E+00  0.00000000000E+00  0.10201642036E+04  0.10201642036E+04  0.25500000000E-02 0. -1.
         -2   -1    0    0    0  501 -0.00000000000E+00 -0.00000000000E+00 -0.15371821509E+04  0.15371821509E+04  0.25500000000E-02 0.  1.
    8880023    1    1    2    0    0 -0.71778247043E+03 -0.20206531273E+03  0.63227984783E+03  0.11788257198E+04  0.65864270000E+03 0.  0.
    8880022    1    1    2    0    0  0.71778247043E+03  0.20206531273E+03 -0.11492977951E+04  0.13785206347E+04  0.15294330000E+03 0.  0.
<mgrwt>
<rscale>  0 0.93049569E+03</rscale>
<asrwt>0</asrwt>
<pdfrwt beam="1">  1        2 0.15694834E+00 0.99491320E+03</pdfrwt>
<pdfrwt beam="2">  1       -2 0.23648956E+00 0.99491320E+03</pdfrwt>
<totfact> 0.18964859E+00</totfact>
</mgrwt>
</event>
<event>
 4    1  0.2089815E-007  0.9498852E+03  0.7818608E-02  0.9450279E-01
          2   -1    0    0  501    0  0.00000000000E+00  0.00000000000E+00  0.25470054428E+04  0.25470054428E+04  0.25500000000E-02 0. -1.
         -2   -1    0    0    0  501 -0.00000000000E+00 -0.00000000000E+00 -0.67253514919E+03  0.67253514919E+03  0.25500000000E-02 0.  1.
    8880023    1    1    2    0    0 -0.56699187110E+03  0.38339522847E+03  0.22368069025E+04  0.24301413556E+04  0.65864270000E+03 0.  0.
    8880022    1    1    2    0    0  0.56699187110E+03 -0.38339522847E+03 -0.36233660892E+03  0.78939923631E+03  0.15294330000E+03 0.  0.
<mgrwt>
<rscale>  0 0.88050920E+03</rscale>
<asrwt>0</asrwt>
<pdfrwt beam="1">  1        2 0.39184699E+00 0.94988520E+03</pdfrwt>
<pdfrwt beam="2">  1       -2 0.10346695E+00 0.94988520E+03</pdfrwt>
<totfact> 0.25306578E+00</totfact>
</mgrwt>
</event>
<event>
 4    1  0.2089815E-007  0.6896617E+03  0.7818608E-02  0.1004314E+00
         -2   -1    0    0    0  501 -0.00000000000E+00  0.00000000000E+00  0.32106729180E+03  0.32106729181E+03  0.25500000000E-02 0.  1.
          2   -1    0    0  501    0  0.00000000000E+00 -0.00000000000E+00 -0.15009763452E+04  0.15009763452E+04  0.25500000000E-02 0. -1.
    8880023    1    1    2    0    0  0.49939613018E+02  0.19831561719E+03 -0.13494824436E+04  0.15154986377E+04  0.65864270000E+03 0. -1.
    8880022    1    1    2    0    0 -0.49939613018E+02 -0.19831561719E+03  0.16957339017E+03  0.30654499937E+03  0.15294330000E+03 0.  0.
<mgrwt>
<rscale>  0 0.53798513E+03</rscale>
<asrwt>0</asrwt>
<pdfrwt beam="1">  1        2 0.23091943E+00 0.68966170E+03</pdfrwt>
<pdfrwt beam="2">  1       -2 0.49394969E-01 0.68966170E+03</pdfrwt>
<totfact> 0.50581610E+01</totfact>
</mgrwt>
</event>
<event>
 4    1  0.2089815E-007  0.1874911E+04  0.7818608E-02  0.8682192E-01
         -2   -1    0    0    0  501 -0.00000000000E+00  0.00000000000E+00  0.11581774134E+04  0.11581774134E+04  0.25500000000E-02 0.  1.
          2   -1    0    0  501    0  0.00000000000E+00 -0.00000000000E+00 -0.28676992075E+04  0.28676992075E+04  0.25500000000E-02 0. -1.
    8880023    1    1    2    0    0 -0.91245687914E+03  0.14996343312E+04 -0.74865785225E+03  0.20188559804E+04  0.65864270000E+03 0.  1.
    8880022    1    1    2    0    0  0.91245687914E+03 -0.14996343312E+04 -0.96086394178E+03  0.20070206405E+04  0.15294330000E+03 0. -1.
<mgrwt>
<rscale>  0 0.18460393E+04</rscale>
<asrwt>0</asrwt>
<pdfrwt beam="1">  1        2 0.44118449E+00 0.18749109E+04</pdfrwt>
<pdfrwt beam="2">  1       -2 0.17818114E+00 0.18749109E+04</pdfrwt>
<totfact> 0.35630301E-01</totfact>
</mgrwt>
</event>
<event>
 4    1  0.2089815E-007  0.7728253E+03  0.7818608E-02  0.9772969E-01
          2   -1    0    0  501    0  0.00000000000E+00  0.00000000000E+00  0.96218998843E+03  0.96218998843E+03  0.25500000000E-02 0. -1.
         -2   -1    0    0    0  501 -0.00000000000E+00 -0.00000000000E+00 -0.15121046416E+04  0.15121046416E+04  0.25500000000E-02 0.  1.
    8880023    1    1    2    0    0 -0.36547957897E+03  0.17283911788E+03  0.76665354120E+03  0.10885846507E+04  0.65864270000E+03 0.  0.
    8880022    1    1    2    0    0  0.36547957897E+03 -0.17283911788E+03 -0.13165681943E+04  0.13857099793E+04  0.15294330000E+03 0.  0.
<mgrwt>
<rscale>  0 0.66833594E+03</rscale>
<asrwt>0</asrwt>
<pdfrwt beam="1">  1        2 0.14802923E+00 0.77282526E+03</pdfrwt>
<pdfrwt beam="2">  1       -2 0.23263148E+00 0.77282526E+03</pdfrwt>
<totfact> 0.22512566E+00</totfact>
</mgrwt>
</event>
<event>
 4    1  0.2089815E-007  0.7378282E+03  0.7818608E-02  0.9866319E-01
          2   -1    0    0  501    0  0.00000000000E+00  0.00000000000E+00  0.99121944418E+03  0.99121944419E+03  0.25500000000E-02 0. -1.
         -2   -1    0    0    0  501 -0.00000000000E+00 -0.00000000000E+00 -0.31377023608E+03  0.31377023609E+03  0.25500000000E-02 0.  1.
    8880023    1    1    2    0    0 -0.71287377259E+02 -0.32480504192E+03  0.53867615354E+03  0.91354387419E+03  0.65864270000E+03 0.  0.
    8880022    1    1    2    0    0  0.71287377259E+02  0.32480504192E+03  0.13877305457E+03  0.39144580609E+03  0.15294330000E+03 0.  0.
<mgrwt>
<rscale>  0 0.61921736E+03</rscale>
<asrwt>0</asrwt>
<pdfrwt beam="1">  1        2 0.15249530E+00 0.73782817E+03</pdfrwt>
<pdfrwt beam="2">  1       -2 0.48272344E-01 0.73782817E+03</pdfrwt>
<totfact> 0.10520899E+02</totfact>
</mgrwt>
</event>
<event>
 4    1  0.2089815E-007  0.8014478E+03  0.7818608E-02  0.9707674E-01
          2   -1    0    0  501    0  0.00000000000E+00  0.00000000000E+00  0.15562876408E+04  0.15562876408E+04  0.25500000000E-02 0. -1.
         -2   -1    0    0    0  501 -0.00000000000E+00 -0.00000000000E+00 -0.35545561329E+03  0.35545561330E+03  0.25500000000E-02 0.  1.
    8880023    1    1    2    0    0  0.93065613942E+02  0.44704271756E+03  0.11841800049E+04  0.14298954123E+04  0.65864270000E+03 0. -1.
    8880022    1    1    2    0    0 -0.93065613942E+02 -0.44704271756E+03  0.16652022652E+02  0.48184784185E+03  0.15294330000E+03 0.  0.
<mgrwt>
<rscale>  0 0.70561701E+03</rscale>
<asrwt>0</asrwt>
<pdfrwt beam="1">  1        2 0.23942886E+00 0.80144782E+03</pdfrwt>
<pdfrwt beam="2">  1       -2 0.54685480E-01 0.80144782E+03</pdfrwt>
<totfact> 0.37789344E+01</totfact>
</mgrwt>
</event>
<event>
 4    1  0.2089815E-007  0.7270699E+03  0.7818608E-02  0.9899352E-01
          2   -1    0    0  501    0  0.00000000000E+00  0.00000000000E+00  0.86774282696E+03  0.86774282697E+03  0.25500000000E-02 0. -1.
         -2   -1    0    0    0  501 -0.00000000000E+00 -0.00000000000E+00 -0.42126424317E+03  0.42126424318E+03  0.25500000000E-02 0.  1.
    8880023    1    1    2    0    0 -0.29669615636E+03 -0.82412709670E+02  0.56979559344E+03  0.92374113716E+03  0.65864270000E+03 0.  0.
    8880022    1    1    2    0    0  0.29669615636E+03  0.82412709670E+02 -0.12331700965E+03  0.36526593298E+03  0.15294330000E+03 0.  0.
<mgrwt>
<rscale>  0 0.60292721E+03</rscale>
<asrwt>0</asrwt>
<pdfrwt beam="1">  1        2 0.13349890E+00 0.72706992E+03</pdfrwt>
<pdfrwt beam="2">  1       -2 0.64809884E-01 0.72706992E+03</pdfrwt>
<totfact> 0.68825274E+01</totfact>
</mgrwt>
</event>
<event>
 4    1  0.2089815E-007  0.8070209E+03  0.7818608E-02  0.9695816E-01
          2   -1    0    0  501    0  0.00000000000E+00  0.00000000000E+00  0.22719021654E+04  0.22719021654E+04  0.25500000000E-02 0. -1.
         -2   -1    0    0    0  501 -0.00000000000E+00 -0.00000000000E+00 -0.49273352113E+03  0.49273352114E+03  0.25500000000E-02 0.  1.
    8880023    1    1    2    0    0  0.39594696036E+03  0.24637070482E+03  0.20506772432E+04  0.22037603957E+04  0.65864270000E+03 0. -1.
    8880022    1    1    2    0    0 -0.39594696036E+03 -0.24637070482E+03 -0.27150859890E+03  0.56087529087E+03  0.15294330000E+03 0.  0.
<mgrwt>
<rscale>  0 0.71266447E+03</rscale>
<asrwt>0</asrwt>
<pdfrwt beam="1">  1        2 0.34952341E+00 0.80702090E+03</pdfrwt>
<pdfrwt beam="2">  1       -2 0.75805157E-01 0.80702090E+03</pdfrwt>
<totfact> 0.75784146E+00</totfact>
</mgrwt>
</event>
<event>
 4    1  0.2089815E-007  0.7170727E+03  0.7818608E-02  0.9932618E-01
          2   -1    0    0  501    0  0.00000000000E+00  0.00000000000E+00  0.23892828751E+04  0.23892828751E+04  0.25500000000E-02 0. -1.
         -2   -1    0    0    0  501 -0.00000000000E+00 -0.00000000000E+00 -0.47378632474E+03  0.47378632475E+03  0.25500000000E-02 0.  1.
    8880023    1    1    2    0    0 -0.12161692051E+03  0.25611020822E+03  0.22720633798E+04  0.23825333833E+04  0.65864270000E+03 0. -1.
    8880022    1    1    2    0    0  0.12161692051E+03 -0.25611020822E+03 -0.35656682949E+03  0.48053581658E+03  0.15294330000E+03 0.  0.
<mgrwt>
<rscale>  0 0.58706188E+03</rscale>
<asrwt>0</asrwt>
<pdfrwt beam="1">  1        2 0.36758197E+00 0.71707274E+03</pdfrwt>
<pdfrwt beam="2">  1       -2 0.72890205E-01 0.71707274E+03</pdfrwt>
<totfact> 0.72151327E+00</totfact>
</mgrwt>
</event>
<event>
 4    1  0.2089815E-007  0.7696600E+03  0.7818608E-02  0.9780712E-01
          2   -1    0    0  501    0  0.00000000000E+00  0.00000000000E+00  0.62277937513E+03  0.62277937513E+03  0.25500000000E-02 0. -1.
         -2   -1    0    0    0  501 -0.00000000000E+00 -0.00000000000E+00 -0.73423285569E+03  0.73423285570E+03  0.25500000000E-02 0.  1.
    8880023    1    1    2    0    0 -0.30507929865E+03 -0.25591576568E+03  0.23796084701E+03  0.80560649734E+03  0.65864270000E+03 0.  0.
    8880022    1    1    2    0    0  0.30507929865E+03  0.25591576568E+03 -0.34941432757E+03  0.55140573348E+03  0.15294330000E+03 0.  0.
<mgrwt>
<rscale>  0 0.66408021E+03</rscale>
<asrwt>0</asrwt>
<pdfrwt beam="1">  1        2 0.95812212E-01 0.76965997E+03</pdfrwt>
<pdfrwt beam="2">  1       -2 0.11295890E+00 0.76965997E+03</pdfrwt>
<totfact> 0.29525113E+01</totfact>
</mgrwt>
</event>
<event>
 4    1  0.2089815E-007  0.1907799E+04  0.7818608E-02  0.8665138E-01
         -2   -1    0    0    0  501 -0.00000000000E+00  0.00000000000E+00  0.13955307009E+04  0.13955307009E+04  0.25500000000E-02 0.  1.
          2   -1    0    0  501    0  0.00000000000E+00 -0.00000000000E+00 -0.31239176747E+04  0.31239176747E+04  0.25500000000E-02 0. -1.
    8880023    1    1    2    0    0 -0.80420591671E+03  0.15997313347E+04 -0.19268049380E+04  0.27115078785E+04  0.65864270000E+03 0. -1.
    8880022    1    1    2    0    0  0.80420591671E+03 -0.15997313347E+04  0.19841796426E+03  0.18079404971E+04  0.15294330000E+03 0.  0.
<mgrwt>
<rscale>  0 0.18794799E+04</rscale>
<asrwt>0</asrwt>
<pdfrwt beam="1">  1        2 0.48060272E+00 0.19077992E+04</pdfrwt>
<pdfrwt beam="2">  1       -2 0.21469703E+00 0.19077992E+04</pdfrwt>
<totfact> 0.13963778E-01</totfact>
</mgrwt>
</event>
<event>
 4    1  0.2089815E-007  0.7411805E+03  0.7818608E-02  0.9856522E-01
         -2   -1    0    0    0  501 -0.00000000000E+00  0.00000000000E+00  0.92604138018E+03  0.92604138018E+03  0.25500000000E-02 0.  1.
          2   -1    0    0  501    0  0.00000000000E+00 -0.00000000000E+00 -0.39108618944E+03  0.39108618945E+03  0.25500000000E-02 0. -1.
    8880023    1    1    2    0    0  0.33679915267E+03 -0.45876360451E+02  0.10578136706E+03  0.74869100006E+03  0.65864270000E+03 0.  0.
    8880022    1    1    2    0    0 -0.33679915267E+03  0.45876360451E+02  0.42917382368E+03  0.56843656958E+03  0.15294330000E+03 0.  0.
<mgrwt>
<rscale>  0 0.62415503E+03</rscale>
<asrwt>0</asrwt>
<pdfrwt beam="1">  1        2 0.60167106E-01 0.74118049E+03</pdfrwt>
<pdfrwt beam="2">  1       -2 0.14246790E+00 0.74118049E+03</pdfrwt>
<totfact> 0.28353923E+01</totfact>
</mgrwt>
</event>
<event>
 4    1  0.2089815E-007  0.8199775E+03  0.7818608E-02  0.9669157E-01
         -2   -1    0    0    0  501 -0.00000000000E+00  0.00000000000E+00  0.70502762020E+03  0.70502762021E+03  0.25500000000E-02 0.  1.
          2   -1    0    0  501    0  0.00000000000E+00 -0.00000000000E+00 -0.94954027898E+03  0.94954027899E+03  0.25500000000E-02 0. -1.
    8880023    1    1    2    0    0  0.41212385671E+03 -0.26211977370E+03 -0.61310848169E+03  0.10238481653E+04  0.65864270000E+03 0.  1.
    8880022    1    1    2    0    0 -0.41212385671E+03  0.26211977370E+03  0.36859582291E+03  0.63071973388E+03  0.15294330000E+03 0.  0.
<mgrwt>
<rscale>  0 0.72883228E+03</rscale>
<asrwt>0</asrwt>
<pdfrwt beam="1">  1        2 0.14608312E+00 0.81997747E+03</pdfrwt>
<pdfrwt beam="2">  1       -2 0.10846579E+00 0.81997747E+03</pdfrwt>
<totfact> 0.18633963E+01</totfact>
</mgrwt>
</event>
<event>
 4    1  0.2089815E-007  0.7684937E+03  0.7818608E-02  0.9783594E-01
          2   -1    0    0  501    0  0.00000000000E+00  0.00000000000E+00  0.13074931421E+04  0.13074931421E+04  0.25500000000E-02 0. -1.
         -2   -1    0    0    0  501 -0.00000000000E+00 -0.00000000000E+00 -0.14839375507E+04  0.14839375507E+04  0.25500000000E-02 0.  1.
    8880023    1    1    2    0    0 -0.32727392685E+03  0.22285460694E+03  0.11587312776E+04  0.13904102916E+04  0.65864270000E+03 0. -1.
    8880022    1    1    2    0    0  0.32727392685E+03 -0.22285460694E+03 -0.13351756861E+04  0.14010204013E+04  0.15294330000E+03 0.  0.
<mgrwt>
<rscale>  0 0.66250439E+03</rscale>
<asrwt>0</asrwt>
<pdfrwt beam="1">  1        2 0.20115279E+00 0.76849372E+03</pdfrwt>
<pdfrwt beam="2">  1       -2 0.22829808E+00 0.76849372E+03</pdfrwt>
<totfact> 0.14779477E+00</totfact>
</mgrwt>
</event>
<event>
 4    1  0.2089815E-007  0.7191906E+03  0.7818608E-02  0.9925334E-01
         -2   -1    0    0    0  501 -0.00000000000E+00  0.00000000000E+00  0.15447852058E+04  0.15447852058E+04  0.25500000000E-02 0.  1.
          2   -1    0    0  501    0  0.00000000000E+00 -0.00000000000E+00 -0.13214079803E+04  0.13214079803E+04  0.25500000000E-02 0. -1.
    8880023    1    1    2    0    0  0.22072939263E+03  0.18628863904E+03 -0.12036902521E+04  0.14021787871E+04  0.65864270000E+03 0. -1.
    8880022    1    1    2    0    0 -0.22072939263E+03 -0.18628863904E+03  0.14270674776E+04  0.14640143990E+04  0.15294330000E+03 0.  0.
<mgrwt>
<rscale>  0 0.59049039E+03</rscale>
<asrwt>0</asrwt>
<pdfrwt beam="1">  1        2 0.20329354E+00 0.71919061E+03</pdfrwt>
<pdfrwt beam="2">  1       -2 0.23765926E+00 0.71919061E+03</pdfrwt>
<totfact> 0.12823112E+00</totfact>
</mgrwt>
</event>
<event>
 4    1  0.2089815E-007  0.7474227E+03  0.7818608E-02  0.9838830E-01
         -2   -1    0    0    0  501 -0.00000000000E+00  0.00000000000E+00  0.45568021857E+03  0.45568021857E+03  0.25500000000E-02 0.  1.
          2   -1    0    0  501    0  0.00000000000E+00 -0.00000000000E+00 -0.27350224550E+04  0.27350224550E+04  0.25500000000E-02 0. -1.
    8880023    1    1    2    0    0  0.31307813875E+03 -0.16374546258E+03 -0.25901957729E+04  0.26958773795E+04  0.65864270000E+03 0. -1.
    8880022    1    1    2    0    0 -0.31307813875E+03  0.16374546258E+03  0.31085353644E+03  0.49482529403E+03  0.15294330000E+03 0.  0.
<mgrwt>
<rscale>  0 0.63319701E+03</rscale>
<asrwt>0</asrwt>
<pdfrwt beam="1">  1        2 0.42077267E+00 0.74742271E+03</pdfrwt>
<pdfrwt beam="2">  1       -2 0.70104651E-01 0.74742271E+03</pdfrwt>
<totfact> 0.49593572E+00</totfact>
</mgrwt>
</event>
<event>
 4    1  0.2089815E-007  0.8471312E+03  0.7818608E-02  0.9616878E-01
          2   -1    0    0  501    0  0.00000000000E+00  0.00000000000E+00  0.93341501674E+03  0.93341501674E+03  0.25500000000E-02 0. -1.
         -2   -1    0    0    0  501 -0.00000000000E+00 -0.00000000000E+00 -0.75821703907E+03  0.75821703908E+03  0.25500000000E-02 0.  1.
    8880023    1    1    2    0    0 -0.52836896979E+03 -0.68170788186E+02  0.56123638249E+03  0.10161778919E+04  0.65864270000E+03 0. -1.
    8880022    1    1    2    0    0  0.52836896979E+03  0.68170788186E+02 -0.38603840483E+03  0.67545416396E+03  0.15294330000E+03 0.  0.
<mgrwt>
<rscale>  0 0.76189108E+03</rscale>
<asrwt>0</asrwt>
<pdfrwt beam="1">  1        2 0.14360231E+00 0.84713118E+03</pdfrwt>
<pdfrwt beam="2">  1       -2 0.11664878E+00 0.84713118E+03</pdfrwt>
<totfact> 0.15954756E+01</totfact>
</mgrwt>
</event>
<event>
 4    1  0.2089815E-007  0.6943426E+03  0.7818608E-02  0.1002153E+00
         -2   -1    0    0    0  501 -0.00000000000E+00  0.00000000000E+00  0.13545333454E+04  0.13545333454E+04  0.25500000000E-02 0.  1.
          2   -1    0    0  501    0  0.00000000000E+00 -0.00000000000E+00 -0.91790051081E+03  0.91790051081E+03  0.25500000000E-02 0. -1.
    8880023    1    1    2    0    0  0.49979336162E+02 -0.21401742427E+03 -0.76978034195E+03  0.10366645422E+04  0.65864270000E+03 0. -1.
    8880022    1    1    2    0    0 -0.49979336162E+02  0.21401742427E+03  0.12064131765E+04  0.12357693140E+04  0.15294330000E+03 0.  0.
<mgrwt>
<rscale>  0 0.54716079E+03</rscale>
<asrwt>0</asrwt>
<pdfrwt beam="1">  1        2 0.14121546E+00 0.69434257E+03</pdfrwt>
<pdfrwt beam="2">  1       -2 0.20838975E+00 0.69434257E+03</pdfrwt>
<totfact> 0.34558372E+00</totfact>
</mgrwt>
</event>
<event>
 4    1  0.2089815E-007  0.7164563E+03  0.7818608E-02  0.9934764E-01
         -2   -1    0    0    0  501 -0.00000000000E+00  0.00000000000E+00  0.75324792901E+03  0.75324792901E+03  0.25500000000E-02 0.  1.
          2   -1    0    0  501    0  0.00000000000E+00 -0.00000000000E+00 -0.11050493973E+04  0.11050493973E+04  0.25500000000E-02 0. -1.
    8880023    1    1    2    0    0  0.12806467240E+02 -0.28166541697E+03 -0.94382886559E+03  0.11849567699E+04  0.65864270000E+03 0.  0.
    8880022    1    1    2    0    0 -0.12806467240E+02  0.28166541697E+03  0.59202739731E+03  0.67334055641E+03  0.15294330000E+03 0.  0.
<mgrwt>
<rscale>  0 0.58605650E+03</rscale>
<asrwt>0</asrwt>
<pdfrwt beam="1">  1        2 0.17000760E+00 0.71645629E+03</pdfrwt>
<pdfrwt beam="2">  1       -2 0.11588430E+00 0.71645629E+03</pdfrwt>
<totfact> 0.12797521E+01</totfact>
</mgrwt>
</event>
<event>
 4    1  0.2089815E-007  0.9748522E+03  0.7818608E-02  0.9415224E-01
          2   -1    0    0  501    0  0.00000000000E+00  0.00000000000E+00  0.28924055940E+04  0.28924055940E+04  0.25500000000E-02 0. -1.
         -2   -1    0    0    0  501 -0.00000000000E+00 -0.00000000000E+00 -0.86607891817E+03  0.86607891818E+03  0.25500000000E-02 0.  1.
    8880023    1    1    2    0    0 -0.39705863419E+03 -0.59905846822E+03  0.26316892437E+04  0.28064434947E+04  0.65864270000E+03 0. -1.
    8880022    1    1    2    0    0  0.39705863419E+03  0.59905846822E+03 -0.60536256788E+03  0.95204101746E+03  0.15294330000E+03 0.  0.
<mgrwt>
<rscale>  0 0.90833298E+03</rscale>
<asrwt>0</asrwt>
<pdfrwt beam="1">  1        2 0.44498547E+00 0.97485220E+03</pdfrwt>
<pdfrwt beam="2">  1       -2 0.13324291E+00 0.97485220E+03</pdfrwt>
<totfact> 0.84421694E-01</totfact>
</mgrwt>
</event>
<event>
 4    1  0.2089815E-007  0.7287713E+03  0.7818608E-02  0.9893953E-01
          2   -1    0    0  501    0  0.00000000000E+00  0.00000000000E+00  0.13803581976E+04  0.13803581976E+04  0.25500000000E-02 0. -1.
         -2   -1    0    0    0  501 -0.00000000000E+00 -0.00000000000E+00 -0.22446677770E+03  0.22446677772E+03  0.25500000000E-02 0.  1.
    8880023    1    1    2    0    0 -0.78540511737E+02 -0.30187539835E+03  0.96232359831E+03  0.12071347407E+04  0.65864270000E+03 0.  0.
    8880022    1    1    2    0    0  0.78540511737E+02  0.30187539835E+03  0.19356782154E+03  0.39769023456E+03  0.15294330000E+03 0. -1.
<mgrwt>
<rscale>  0 0.60555265E+03</rscale>
<asrwt>0</asrwt>
<pdfrwt beam="1">  1        2 0.21236280E+00 0.72877128E+03</pdfrwt>
<pdfrwt beam="2">  1       -2 0.34533350E-01 0.72877128E+03</pdfrwt>
<totfact> 0.11879634E+02</totfact>
</mgrwt>
</event>
<event>
 4    1  0.2089815E-007  0.8002980E+03  0.7818608E-02  0.9710152E-01
          2   -1    0    0  501    0  0.00000000000E+00  0.00000000000E+00  0.16665004703E+04  0.16665004703E+04  0.25500000000E-02 0. -1.
         -2   -1    0    0    0  501 -0.00000000000E+00 -0.00000000000E+00 -0.64516597947E+03  0.64516597948E+03  0.25500000000E-02 0.  1.
    8880023    1    1    2    0    0  0.27926080056E+02  0.45374758001E+03  0.14578860679E+04  0.16631021393E+04  0.65864270000E+03 0. -1.
    8880022    1    1    2    0    0 -0.27926080056E+02 -0.45374758001E+03 -0.43655157713E+03  0.64856431048E+03  0.15294330000E+03 0.  0.
<mgrwt>
<rscale>  0 0.70415549E+03</rscale>
<asrwt>0</asrwt>
<pdfrwt beam="1">  1        2 0.25638469E+00 0.80029803E+03</pdfrwt>
<pdfrwt beam="2">  1       -2 0.99256303E-01 0.80029803E+03</pdfrwt>
<totfact> 0.87868423E+00</totfact>
</mgrwt>
</event>
