<event>
 4    1  0.2051094E-007  0.7519422E+03  0.7818608E-02  0.9826433E-01
          2   -1    0    0  501    0  0.00000000000E+00  0.00000000000E+00  0.15748397045E+04  0.15748397045E+04  0.25500000000E-02 0. -1.
         -2   -1    0    0    0  501 -0.00000000000E+00 -0.00000000000E+00 -0.41402436926E+03  0.41402436927E+03  0.25500000000E-02 0.  1.
    8880023    1    1    2    0    0 -0.26292341584E+03 -0.24995624327E+03  0.13551687751E+04  0.15498062658E+04  0.65864270000E+03 0. -1.
    8880022    1    1    2    0    0  0.26292341584E+03  0.24995624327E+03 -0.19435343987E+03  0.43905780798E+03  0.15294330000E+03 0.  0.
<mgrwt>
<rscale>  0 0.63963066E+03</rscale>
<asrwt>0</asrwt>
<pdfrwt beam="1">  1        2 0.24228303E+00 0.75194219E+03</pdfrwt>
<pdfrwt beam="2">  1       -2 0.63696058E-01 0.75194219E+03</pdfrwt>
<totfact> 0.26913915E+01</totfact>
</mgrwt>
</event>
<event>
 4    1  0.2051094E-007  0.1053193E+04  0.7818608E-02  0.9315052E-01
          2   -1    0    0  501    0  0.00000000000E+00  0.00000000000E+00  0.13344473538E+04  0.13344473538E+04  0.25500000000E-02 0. -1.
         -2   -1    0    0    0  501 -0.00000000000E+00 -0.00000000000E+00 -0.11273861709E+04  0.11273861709E+04  0.25500000000E-02 0.  1.
    8880023    1    1    2    0    0 -0.45558401705E+03  0.68399506339E+03  0.89273984126E+03  0.13806522639E+04  0.65864270000E+03 0. -1.
    8880022    1    1    2    0    0  0.45558401705E+03 -0.68399506339E+03 -0.68567865832E+03  0.10811812609E+04  0.15294330000E+03 0.  0.
<mgrwt>
<rscale>  0 0.99408842E+03</rscale>
<asrwt>0</asrwt>
<pdfrwt beam="1">  1        2 0.20529959E+00 0.10531934E+04</pdfrwt>
<pdfrwt beam="2">  1       -2 0.17344403E+00 0.10531934E+04</pdfrwt>
<totfact> 0.31354851E+00</totfact>
</mgrwt>
</event>
<event>
 4    1  0.2051094E-007  0.1240153E+04  0.7818608E-02  0.9119046E-01
         -2   -1    0    0    0  501 -0.00000000000E+00  0.00000000000E+00  0.28214350726E+04  0.28214350726E+04  0.25500000000E-02 0.  1.
          2   -1    0    0  501    0  0.00000000000E+00 -0.00000000000E+00 -0.18993968985E+04  0.18993968985E+04  0.25500000000E-02 0. -1.
    8880023    1    1    2    0    0 -0.29979002314E+03  0.10071218533E+04 -0.15766094180E+04  0.20059102544E+04  0.65864270000E+03 0.  0.
    8880022    1    1    2    0    0  0.29979002314E+03 -0.10071218533E+04  0.24986475921E+04  0.27149217167E+04  0.15294330000E+03 0.  0.
<mgrwt>
<rscale>  0 0.11929544E+04</rscale>
<asrwt>0</asrwt>
<pdfrwt beam="1">  1        2 0.29221491E+00 0.12401527E+04</pdfrwt>
<pdfrwt beam="2">  1       -2 0.43406694E+00 0.12401527E+04</pdfrwt>
<totfact> 0.32867832E-02</totfact>
</mgrwt>
</event>
<event>
 4    1  0.2051094E-007  0.7045483E+03  0.7818608E-02  0.9978831E-01
          2   -1    0    0  501    0  0.00000000000E+00  0.00000000000E+00  0.77836038120E+03  0.77836038120E+03  0.25500000000E-02 0. -1.
         -2   -1    0    0    0  501 -0.00000000000E+00 -0.00000000000E+00 -0.11020812631E+04  0.11020812631E+04  0.25500000000E-02 0.  1.
    8880023    1    1    2    0    0 -0.15527656274E+03 -0.19613090525E+03  0.59117201173E+03  0.91971337744E+03  0.65864270000E+03 0. -1.
    8880022    1    1    2    0    0  0.15527656274E+03  0.19613090525E+03 -0.91489289358E+03  0.96072826682E+03  0.15294330000E+03 0.  0.
<mgrwt>
<rscale>  0 0.56588259E+03</rscale>
<asrwt>0</asrwt>
<pdfrwt beam="1">  1        2 0.11974775E+00 0.70454833E+03</pdfrwt>
<pdfrwt beam="2">  1       -2 0.16955096E+00 0.70454833E+03</pdfrwt>
<totfact> 0.78491423E+00</totfact>
</mgrwt>
</event>
<event>
 4    1  0.2051094E-007  0.7078961E+03  0.7818608E-02  0.9965898E-01
         -2   -1    0    0    0  501 -0.00000000000E+00  0.00000000000E+00  0.19564542734E+03  0.19564542736E+03  0.25500000000E-02 0.  1.
          2   -1    0    0  501    0  0.00000000000E+00 -0.00000000000E+00 -0.44919687679E+04  0.44919687679E+04  0.25500000000E-02 0. -1.
    8880023    1    1    2    0    0  0.12323103168E+03  0.22829964454E+03 -0.43273406334E+04  0.43848596076E+04  0.65864270000E+03 0. -1.
    8880022    1    1    2    0    0 -0.12323103168E+03 -0.22829964454E+03  0.31017292838E+02  0.30275458763E+03  0.15294330000E+03 0.  0.
<mgrwt>
<rscale>  0 0.57171158E+03</rscale>
<asrwt>0</asrwt>
<pdfrwt beam="1">  1        2 0.69107204E+00 0.70789605E+03</pdfrwt>
<pdfrwt beam="2">  1       -2 0.30099300E-01 0.70789605E+03</pdfrwt>
<totfact> 0.14664593E+00</totfact>
</mgrwt>
</event>
<event>
 4    1  0.2051094E-007  0.9930046E+03  0.7818608E-02  0.9390768E-01
          2   -1    0    0  501    0  0.00000000000E+00  0.00000000000E+00  0.77104059092E+03  0.77104059092E+03  0.25500000000E-02 0. -1.
         -2   -1    0    0    0  501 -0.00000000000E+00 -0.00000000000E+00 -0.15063519473E+04  0.15063519473E+04  0.25500000000E-02 0.  1.
    8880023    1    1    2    0    0 -0.24654468122E+03 -0.70104468590E+03  0.25942878133E+03  0.10263339760E+04  0.65864270000E+03 0.  0.
    8880022    1    1    2    0    0  0.24654468122E+03  0.70104468590E+03 -0.99474013769E+03  0.12510585622E+04  0.15294330000E+03 0.  0.
<mgrwt>
<rscale>  0 0.92839390E+03</rscale>
<asrwt>0</asrwt>
<pdfrwt beam="1">  1        2 0.11862163E+00 0.99300460E+03</pdfrwt>
<pdfrwt beam="2">  1       -2 0.23174645E+00 0.99300460E+03</pdfrwt>
<totfact> 0.30045977E+00</totfact>
</mgrwt>
</event>
<event>
 4    1  0.2051094E-007  0.1375314E+04  0.7818608E-02  0.9003106E-01
         -2   -1    0    0    0  501 -0.00000000000E+00  0.00000000000E+00  0.89102177133E+03  0.89102177133E+03  0.25500000000E-02 0.  1.
          2   -1    0    0  501    0  0.00000000000E+00 -0.00000000000E+00 -0.21407832419E+04  0.21407832419E+04  0.25500000000E-02 0. -1.
    8880023    1    1    2    0    0 -0.10777493401E+04  0.54418193543E+03 -0.13586796385E+03  0.13820086573E+04  0.65864270000E+03 0.  0.
    8880022    1    1    2    0    0  0.10777493401E+04 -0.54418193543E+03 -0.11138935067E+04  0.16497963560E+04  0.15294330000E+03 0.  0.
<mgrwt>
<rscale>  0 0.13338999E+04</rscale>
<asrwt>0</asrwt>
<pdfrwt beam="1">  1        2 0.32935127E+00 0.13753137E+04</pdfrwt>
<pdfrwt beam="2">  1       -2 0.13708027E+00 0.13753137E+04</pdfrwt>
<totfact> 0.20249119E+00</totfact>
</mgrwt>
</event>
<event>
 4    1  0.2051094E-007  0.7833165E+03  0.7818608E-02  0.9748103E-01
          2   -1    0    0  501    0  0.00000000000E+00  0.00000000000E+00  0.23094444471E+04  0.23094444471E+04  0.25500000000E-02 0. -1.
         -2   -1    0    0    0  501 -0.00000000000E+00 -0.00000000000E+00 -0.23317207121E+03  0.23317207122E+03  0.25500000000E-02 0.  1.
    8880023    1    1    2    0    0  0.21462021641E+03 -0.36566749669E+03  0.19061806609E+04  0.20608516379E+04  0.65864270000E+03 0. -1.
    8880022    1    1    2    0    0 -0.21462021641E+03  0.36566749669E+03  0.17009171499E+03  0.48176488036E+03  0.15294330000E+03 0.  0.
<mgrwt>
<rscale>  0 0.68223563E+03</rscale>
<asrwt>0</asrwt>
<pdfrwt beam="1">  1        2 0.35529913E+00 0.78331651E+03</pdfrwt>
<pdfrwt beam="2">  1       -2 0.35872628E-01 0.78331651E+03</pdfrwt>
<totfact> 0.33824814E+01</totfact>
</mgrwt>
</event>
<event>
 4    1  0.2051094E-007  0.1291421E+04  0.7818608E-02  0.9073004E-01
         -2   -1    0    0    0  501 -0.00000000000E+00  0.00000000000E+00  0.77607295742E+03  0.77607295742E+03  0.25500000000E-02 0.  1.
          2   -1    0    0  501    0  0.00000000000E+00 -0.00000000000E+00 -0.23893661540E+04  0.23893661540E+04  0.25500000000E-02 0. -1.
    8880023    1    1    2    0    0  0.44984838751E+03 -0.10156740881E+04 -0.15840172160E+04  0.20437412194E+04  0.65864270000E+03 0.  0.
    8880022    1    1    2    0    0 -0.44984838751E+03  0.10156740881E+04 -0.29275980632E+02  0.11216978921E+04  0.15294330000E+03 0.  0.
<mgrwt>
<rscale>  0 0.12466163E+04</rscale>
<asrwt>0</asrwt>
<pdfrwt beam="1">  1        2 0.36759479E+00 0.12914208E+04</pdfrwt>
<pdfrwt beam="2">  1       -2 0.11939584E+00 0.12914208E+04</pdfrwt>
<totfact> 0.21018149E+00</totfact>
</mgrwt>
</event>
<event>
 4    1  0.2051094E-007  0.1018274E+04  0.7818608E-02  0.9358031E-01
         -2   -1    0    0    0  501 -0.00000000000E+00  0.00000000000E+00  0.21035240515E+04  0.21035240515E+04  0.25500000000E-02 0.  1.
          2   -1    0    0  501    0  0.00000000000E+00 -0.00000000000E+00 -0.68778321393E+03  0.68778321393E+03  0.25500000000E-02 0. -1.
    8880023    1    1    2    0    0  0.28716212533E+03 -0.72153227562E+03 -0.15731217118E+03  0.10303534522E+04  0.65864270000E+03 0.  0.
    8880022    1    1    2    0    0 -0.28716212533E+03  0.72153227562E+03  0.15730530088E+04  0.17609538133E+04  0.15294330000E+03 0.  0.
<mgrwt>
<rscale>  0 0.95611527E+03</rscale>
<asrwt>0</asrwt>
<pdfrwt beam="1">  1        2 0.10581280E+00 0.10182736E+04</pdfrwt>
<pdfrwt beam="2">  1       -2 0.32361908E+00 0.10182736E+04</pdfrwt>
<totfact> 0.95888742E-01</totfact>
</mgrwt>
</event>
<event>
 4    1  0.2051094E-007  0.1861552E+04  0.7818608E-02  0.8689231E-01
         -2   -1    0    0    0  501 -0.00000000000E+00  0.00000000000E+00  0.13114700331E+04  0.13114700331E+04  0.25500000000E-02 0.  1.
          2   -1    0    0  501    0  0.00000000000E+00 -0.00000000000E+00 -0.32326660705E+04  0.32326660705E+04  0.25500000000E-02 0. -1.
    8880023    1    1    2    0    0  0.56813426606E+03 -0.16458398450E+04 -0.20772658657E+04  0.27893384561E+04  0.65864270000E+03 0.  0.
    8880022    1    1    2    0    0 -0.56813426606E+03  0.16458398450E+04  0.15606982835E+03  0.17547976476E+04  0.15294330000E+03 0.  0.
<mgrwt>
<rscale>  0 0.18324494E+04</rscale>
<asrwt>0</asrwt>
<pdfrwt beam="1">  1        2 0.49733324E+00 0.18615519E+04</pdfrwt>
<pdfrwt beam="2">  1       -2 0.20176462E+00 0.18615519E+04</pdfrwt>
<totfact> 0.14479574E-01</totfact>
</mgrwt>
</event>
<event>
 4    1  0.2051094E-007  0.8389664E+03  0.7818608E-02  0.9632132E-01
         -2   -1    0    0    0  501 -0.00000000000E+00  0.00000000000E+00  0.15639121177E+04  0.15639121177E+04  0.25500000000E-02 0.  1.
          2   -1    0    0  501    0  0.00000000000E+00 -0.00000000000E+00 -0.32556136549E+03  0.32556136550E+03  0.25500000000E-02 0. -1.
    8880023    1    1    2    0    0 -0.29100023581E+03 -0.43055001204E+03  0.51019604253E+03  0.98191886538E+03  0.65864270000E+03 0.  1.
    8880022    1    1    2    0    0  0.29100023581E+03  0.43055001204E+03  0.72815470971E+03  0.90755461786E+03  0.15294330000E+03 0.  0.
<mgrwt>
<rscale>  0 0.75205478E+03</rscale>
<asrwt>0</asrwt>
<pdfrwt beam="1">  1        2 0.50086363E-01 0.83896642E+03</pdfrwt>
<pdfrwt beam="2">  1       -2 0.24060187E+00 0.83896642E+03</pdfrwt>
<totfact> 0.74764321E+00</totfact>
</mgrwt>
</event>
<event>
 4    1  0.2051094E-007  0.8844337E+03  0.7818608E-02  0.9551497E-01
          2   -1    0    0  501    0  0.00000000000E+00  0.00000000000E+00  0.23791631757E+04  0.23791631757E+04  0.25500000000E-02 0. -1.
         -2   -1    0    0    0  501 -0.00000000000E+00 -0.00000000000E+00 -0.24238227125E+03  0.24238227126E+03  0.25500000000E-02 0.  1.
    8880023    1    1    2    0    0 -0.58703280618E+03 -0.61686752523E+02  0.14894825458E+04  0.17322763150E+04  0.65864270000E+03 0.  0.
    8880022    1    1    2    0    0  0.58703280618E+03  0.61686752523E+02  0.64729835866E+03  0.88926913199E+03  0.15294330000E+03 0.  0.
<mgrwt>
<rscale>  0 0.80591322E+03</rscale>
<asrwt>0</asrwt>
<pdfrwt beam="1">  1        2 0.36602511E+00 0.88443370E+03</pdfrwt>
<pdfrwt beam="2">  1       -2 0.37289579E-01 0.88443370E+03</pdfrwt>
<totfact> 0.28339286E+01</totfact>
</mgrwt>
</event>
<event>
 4    1  0.2051094E-007  0.7687620E+03  0.7818608E-02  0.9782930E-01
          2   -1    0    0  501    0  0.00000000000E+00  0.00000000000E+00  0.22296372583E+04  0.22296372583E+04  0.25500000000E-02 0. -1.
         -2   -1    0    0    0  501 -0.00000000000E+00 -0.00000000000E+00 -0.16569417197E+03  0.16569417199E+03  0.25500000000E-02 0.  1.
    8880023    1    1    2    0    0 -0.12479003704E+03  0.37631401039E+03  0.15357682387E+04  0.17174338639E+04  0.65864270000E+03 0.  0.
    8880022    1    1    2    0    0  0.12479003704E+03 -0.37631401039E+03  0.52817484759E+03  0.67789756630E+03  0.15294330000E+03 0.  0.
<mgrwt>
<rscale>  0 0.66286725E+03</rscale>
<asrwt>0</asrwt>
<pdfrwt beam="1">  1        2 0.34302111E+00 0.76876199E+03</pdfrwt>
<pdfrwt beam="2">  1       -2 0.25491412E-01 0.76876199E+03</pdfrwt>
<totfact> 0.70844250E+01</totfact>
</mgrwt>
</event>
<event>
 4    1  0.2051094E-007  0.7061123E+03  0.7818608E-02  0.9972731E-01
         -2   -1    0    0    0  501 -0.00000000000E+00  0.00000000000E+00  0.53474174227E+03  0.53474174227E+03  0.25500000000E-02 0.  1.
          2   -1    0    0  501    0  0.00000000000E+00 -0.00000000000E+00 -0.11247088915E+04  0.11247088915E+04  0.25500000000E-02 0. -1.
    8880023    1    1    2    0    0  0.25446216342E+03 -0.57715512543E+01 -0.95575777551E+03  0.11883044371E+04  0.65864270000E+03 0. -1.
    8880022    1    1    2    0    0 -0.25446216342E+03  0.57715512543E+01  0.36579062627E+03  0.47114619673E+03  0.15294330000E+03 0.  0.
<mgrwt>
<rscale>  0 0.56862255E+03</rscale>
<asrwt>0</asrwt>
<pdfrwt beam="1">  1        2 0.17303214E+00 0.70611225E+03</pdfrwt>
<pdfrwt beam="2">  1       -2 0.82267961E-01 0.70611225E+03</pdfrwt>
<totfact> 0.27913768E+01</totfact>
</mgrwt>
</event>
<event>
 4    1  0.2601637E-007  0.9604540E+03  0.7818608E-02  0.9435230E-01
          2   -1    0    0  501    0  0.00000000000E+00  0.00000000000E+00  0.19526313499E+04  0.19526313499E+04  0.25500000000E-02 0. -1.
         -2   -1    0    0    0  501 -0.00000000000E+00 -0.00000000000E+00 -0.15306546687E+04  0.15306546687E+04  0.25500000000E-02 0.  1.
    8880023    1    1    2    0    0  0.23035530826E+03 -0.65999850390E+03  0.17377543147E+04  0.19855129961E+04  0.65864270000E+03 0.  0.
    8880022    1    1    2    0    0 -0.23035530826E+03  0.65999850390E+03 -0.13157776335E+04  0.14977730225E+04  0.15294330000E+03 0.  0.
<mgrwt>
<rscale>  0 0.89232241E+03</rscale>
<asrwt>0</asrwt>
<pdfrwt beam="1">  1        2 0.30040482E+00 0.96045395E+03</pdfrwt>
<pdfrwt beam="2">  1       -2 0.23548533E+00 0.96045395E+03</pdfrwt>
<totfact> 0.56521188E-01</totfact>
</mgrwt>
</event>
<event>
 4    1  0.2051094E-007  0.1117596E+04  0.7818608E-02  0.9241714E-01
         -2   -1    0    0    0  501 -0.00000000000E+00  0.00000000000E+00  0.15090097581E+04  0.15090097581E+04  0.25500000000E-02 0.  1.
          2   -1    0    0  501    0  0.00000000000E+00 -0.00000000000E+00 -0.13419927979E+04  0.13419927979E+04  0.25500000000E-02 0. -1.
    8880023    1    1    2    0    0 -0.59119942297E+03 -0.68241705454E+03 -0.90718010430E+03  0.14394428582E+04  0.65864270000E+03 0.  0.
    8880022    1    1    2    0    0  0.59119942297E+03  0.68241705454E+03  0.10741970645E+04  0.14115596978E+04  0.15294330000E+03 0.  0.
<mgrwt>
<rscale>  0 0.10633053E+04</rscale>
<asrwt>0</asrwt>
<pdfrwt beam="1">  1        2 0.20646043E+00 0.11175956E+04</pdfrwt>
<pdfrwt beam="2">  1       -2 0.23215535E+00 0.11175956E+04</pdfrwt>
<totfact> 0.12700174E+00</totfact>
</mgrwt>
</event>
<event>
 4    1  0.2051094E-007  0.8972362E+03  0.7818608E-02  0.9530483E-01
         -2   -1    0    0    0  501 -0.00000000000E+00  0.00000000000E+00  0.10921619092E+04  0.10921619092E+04  0.25500000000E-02 0.  1.
          2   -1    0    0  501    0  0.00000000000E+00 -0.00000000000E+00 -0.10933900975E+04  0.10933900976E+04  0.25500000000E-02 0. -1.
    8880023    1    1    2    0    0 -0.30086546055E+03 -0.52981366826E+03 -0.77729529842E+03  0.11871060339E+04  0.65864270000E+03 0. -1.
    8880022    1    1    2    0    0  0.30086546055E+03  0.52981366826E+03  0.77606711005E+03  0.99844597287E+03  0.15294330000E+03 0.  0.
<mgrwt>
<rscale>  0 0.82073257E+03</rscale>
<asrwt>0</asrwt>
<pdfrwt beam="1">  1        2 0.16821386E+00 0.89723618E+03</pdfrwt>
<pdfrwt beam="2">  1       -2 0.16802491E+00 0.89723618E+03</pdfrwt>
<totfact> 0.48534425E+00</totfact>
</mgrwt>
</event>
<event>
 4    1  0.2051094E-007  0.8418137E+03  0.7818608E-02  0.9626770E-01
         -2   -1    0    0    0  501 -0.00000000000E+00  0.00000000000E+00  0.33059079142E+03  0.33059079143E+03  0.25500000000E-02 0.  1.
          2   -1    0    0  501    0  0.00000000000E+00 -0.00000000000E+00 -0.21097724181E+04  0.21097724181E+04  0.25500000000E-02 0. -1.
    8880023    1    1    2    0    0 -0.23012314443E+03 -0.47104512304E+03 -0.16885920767E+04  0.18867945244E+04  0.65864270000E+03 0.  0.
    8880022    1    1    2    0    0  0.23012314443E+03  0.47104512304E+03 -0.90589549941E+02  0.55356868510E+03  0.15294330000E+03 0. -1.
<mgrwt>
<rscale>  0 0.75549441E+03</rscale>
<asrwt>0</asrwt>
<pdfrwt beam="1">  1        2 0.32458036E+00 0.84181374E+03</pdfrwt>
<pdfrwt beam="2">  1       -2 0.50860123E-01 0.84181374E+03</pdfrwt>
<totfact> 0.21706635E+01</totfact>
</mgrwt>
</event>
<event>
 4    1  0.2051094E-007  0.6787096E+03  0.7818608E-02  0.1010063E+00
          2   -1    0    0  501    0  0.00000000000E+00  0.00000000000E+00  0.21401325774E+04  0.21401325774E+04  0.25500000000E-02 0. -1.
         -2   -1    0    0    0  501 -0.00000000000E+00 -0.00000000000E+00 -0.77132223064E+03  0.77132223064E+03  0.25500000000E-02 0.  1.
    8880023    1    1    2    0    0  0.14146883414E+03  0.82602245328E+02  0.20683664282E+04  0.21768753868E+04  0.65864270000E+03 0. -1.
    8880022    1    1    2    0    0 -0.14146883414E+03 -0.82602245328E+02 -0.69955608147E+03  0.73457942124E+03  0.15294330000E+03 0.  0.
<mgrwt>
<rscale>  0 0.51449538E+03</rscale>
<asrwt>0</asrwt>
<pdfrwt beam="1">  1        2 0.32925116E+00 0.67870963E+03</pdfrwt>
<pdfrwt beam="2">  1       -2 0.11866496E+00 0.67870963E+03</pdfrwt>
<totfact> 0.32113699E+00</totfact>
</mgrwt>
</event>
<event>
 4    1  0.2051094E-007  0.7655217E+03  0.7818608E-02  0.9791017E-01
          2   -1    0    0  501    0  0.00000000000E+00  0.00000000000E+00  0.60008962841E+03  0.60008962842E+03  0.25500000000E-02 0. -1.
         -2   -1    0    0    0  501 -0.00000000000E+00 -0.00000000000E+00 -0.90518112923E+03  0.90518112923E+03  0.25500000000E-02 0.  1.
    8880023    1    1    2    0    0 -0.25920946861E+03  0.29158830916E+03  0.25400517982E+03  0.80656191845E+03  0.65864270000E+03 0. -1.
    8880022    1    1    2    0    0  0.25920946861E+03 -0.29158830916E+03 -0.55909668064E+03  0.69870883920E+03  0.15294330000E+03 0.  0.
<mgrwt>
<rscale>  0 0.65846884E+03</rscale>
<asrwt>0</asrwt>
<pdfrwt beam="1">  1        2 0.92321482E-01 0.76552172E+03</pdfrwt>
<pdfrwt beam="2">  1       -2 0.13925863E+00 0.76552172E+03</pdfrwt>
<totfact> 0.18279540E+01</totfact>
</mgrwt>
</event>
<event>
 4    1  0.2051094E-007  0.8287760E+03  0.7818608E-02  0.9651719E-01
          2   -1    0    0  501    0  0.00000000000E+00  0.00000000000E+00  0.18798277907E+04  0.18798277907E+04  0.25500000000E-02 0. -1.
         -2   -1    0    0    0  501 -0.00000000000E+00 -0.00000000000E+00 -0.73170359993E+03  0.73170359994E+03  0.25500000000E-02 0.  1.
    8880023    1    1    2    0    0 -0.81533639602E+02  0.49639874098E+03  0.16739804012E+04  0.18679079298E+04  0.65864270000E+03 0.  0.
    8880022    1    1    2    0    0  0.81533639602E+02 -0.49639874098E+03 -0.52585621042E+03  0.74362346083E+03  0.15294330000E+03 0.  0.
<mgrwt>
<rscale>  0 0.73965664E+03</rscale>
<asrwt>0</asrwt>
<pdfrwt beam="1">  1        2 0.28920428E+00 0.82877600E+03</pdfrwt>
<pdfrwt beam="2">  1       -2 0.11256978E+00 0.82877600E+03</pdfrwt>
<totfact> 0.49409956E+00</totfact>
</mgrwt>
</event>
<event>
 4    1  0.2051094E-007  0.7437366E+03  0.7818608E-02  0.9849193E-01
          2   -1    0    0  501    0  0.00000000000E+00  0.00000000000E+00  0.37217566495E+03  0.37217566496E+03  0.25500000000E-02 0. -1.
         -2   -1    0    0    0  501 -0.00000000000E+00 -0.00000000000E+00 -0.10881324546E+04  0.10881324546E+04  0.25500000000E-02 0.  1.
    8880023    1    1    2    0    0  0.29859486551E+03  0.17370945690E+03 -0.11804984394E+03  0.75304703774E+03  0.65864270000E+03 0. -1.
    8880022    1    1    2    0    0 -0.29859486551E+03 -0.17370945690E+03 -0.59790694569E+03  0.70726108181E+03  0.15294330000E+03 0.  0.
<mgrwt>
<rscale>  0 0.62788059E+03</rscale>
<asrwt>0</asrwt>
<pdfrwt beam="1">  1        2 0.57257795E-01 0.74373656E+03</pdfrwt>
<pdfrwt beam="2">  1       -2 0.16740499E+00 0.74373656E+03</pdfrwt>
<totfact> 0.19466213E+01</totfact>
</mgrwt>
</event>
<event>
 4    1  0.2051094E-007  0.9363007E+03  0.7818608E-02  0.9470104E-01
         -2   -1    0    0    0  501 -0.00000000000E+00  0.00000000000E+00  0.24377654223E+04  0.24377654223E+04  0.25500000000E-02 0.  1.
          2   -1    0    0  501    0  0.00000000000E+00 -0.00000000000E+00 -0.73312936271E+03  0.73312936271E+03  0.25500000000E-02 0. -1.
    8880023    1    1    2    0    0 -0.61092937380E+03 -0.26384497020E+03 -0.35475637065E+03  0.10012547912E+04  0.65864270000E+03 0.  0.
    8880022    1    1    2    0    0  0.61092937380E+03  0.26384497020E+03  0.20593924302E+04  0.21696399938E+04  0.15294330000E+03 0.  0.
<mgrwt>
<rscale>  0 0.86524237E+03</rscale>
<asrwt>0</asrwt>
<pdfrwt beam="1">  1        2 0.11278913E+00 0.93630074E+03</pdfrwt>
<pdfrwt beam="2">  1       -2 0.37504084E+00 0.93630074E+03</pdfrwt>
<totfact> 0.42699092E-01</totfact>
</mgrwt>
</event>
<event>
 4    1  0.2051094E-007  0.2059484E+04  0.7818608E-02  0.8591139E-01
          2   -1    0    0  501    0  0.00000000000E+00  0.00000000000E+00  0.35464565894E+04  0.35464565894E+04  0.25500000000E-02 0. -1.
         -2   -1    0    0    0  501 -0.00000000000E+00 -0.00000000000E+00 -0.14566562606E+04  0.14566562606E+04  0.25500000000E-02 0.  1.
    8880023    1    1    2    0    0  0.17580833376E+04  0.84664514066E+03  0.22365212341E+04  0.30403128874E+04  0.65864270000E+03 0.  0.
    8880022    1    1    2    0    0 -0.17580833376E+04 -0.84664514066E+03 -0.14672090528E+03  0.19627999626E+04  0.15294330000E+03 0.  0.
<mgrwt>
<rscale>  0 0.20334508E+04</rscale>
<asrwt>0</asrwt>
<pdfrwt beam="1">  1        2 0.54560870E+00 0.20594842E+04</pdfrwt>
<pdfrwt beam="2">  1       -2 0.22410097E+00 0.20594842E+04</pdfrwt>
<totfact> 0.62168545E-02</totfact>
</mgrwt>
</event>
<event>
 4    1  0.2051094E-007  0.7028011E+03  0.7818608E-02  0.9985774E-01
         -2   -1    0    0    0  501 -0.00000000000E+00  0.00000000000E+00  0.13797165198E+04  0.13797165198E+04  0.25500000000E-02 0.  1.
          2   -1    0    0  501    0  0.00000000000E+00 -0.00000000000E+00 -0.71917949273E+03  0.71917949274E+03  0.25500000000E-02 0. -1.
    8880023    1    1    2    0    0  0.10683622224E+03  0.22069241322E+03 -0.52589410204E+03  0.87777783776E+03  0.65864270000E+03 0. -1.
    8880022    1    1    2    0    0 -0.10683622224E+03 -0.22069241322E+03  0.11864311291E+04  0.12211181748E+04  0.15294330000E+03 0.  0.
<mgrwt>
<rscale>  0 0.56278449E+03</rscale>
<asrwt>0</asrwt>
<pdfrwt beam="1">  1        2 0.11064300E+00 0.70280106E+03</pdfrwt>
<pdfrwt beam="2">  1       -2 0.21226408E+00 0.70280106E+03</pdfrwt>
<totfact> 0.45144605E+00</totfact>
</mgrwt>
</event>
<event>
 4    1  0.2051094E-007  0.6870942E+03  0.7818608E-02  0.1005565E+00
          2   -1    0    0  501    0  0.00000000000E+00  0.00000000000E+00  0.54301263648E+03  0.54301263649E+03  0.25500000000E-02 0. -1.
         -2   -1    0    0    0  501 -0.00000000000E+00 -0.00000000000E+00 -0.40610153211E+03  0.40610153212E+03  0.25500000000E-02 0.  1.
    8880023    1    1    2    0    0 -0.17492768625E+03  0.87684622289E+02  0.13770935480E+03  0.70075841848E+03  0.65864270000E+03 0. -1.
    8880022    1    1    2    0    0  0.17492768625E+03 -0.87684622289E+02 -0.79825043298E+00  0.24835575013E+03  0.15294330000E+03 0.  1.
<mgrwt>
<rscale>  0 0.53275830E+03</rscale>
<asrwt>0</asrwt>
<pdfrwt beam="1">  1        2 0.83540405E-01 0.68709424E+03</pdfrwt>
<pdfrwt beam="2">  1       -2 0.62477159E-01 0.68709424E+03</pdfrwt>
<totfact> 0.13467543E+02</totfact>
</mgrwt>
</event>
<event>
 4    1  0.2659042E-007  0.1410348E+04  0.7818608E-02  0.8975684E-01
         -2   -1    0    0    0  501 -0.00000000000E+00  0.00000000000E+00  0.21347516595E+04  0.21347516595E+04  0.25500000000E-02 0.  1.
          2   -1    0    0  501    0  0.00000000000E+00 -0.00000000000E+00 -0.23058134883E+04  0.23058134883E+04  0.25500000000E-02 0. -1.
    8880023    1    1    2    0    0 -0.11174667762E+04  0.55365973315E+03 -0.18608056598E+04  0.23348830818E+04  0.65864270000E+03 0.  0.
    8880022    1    1    2    0    0  0.11174667762E+04 -0.55365973315E+03  0.16897438310E+04  0.21056820660E+04  0.15294330000E+03 0.  0.
<mgrwt>
<rscale>  0 0.13701902E+04</rscale>
<asrwt>0</asrwt>
<pdfrwt beam="1">  1        2 0.35474054E+00 0.14103479E+04</pdfrwt>
<pdfrwt beam="2">  1       -2 0.32842333E+00 0.14103479E+04</pdfrwt>
<totfact> 0.90786118E-02</totfact>
</mgrwt>
</event>
<event>
 4    1  0.2051094E-007  0.7909051E+03  0.7818608E-02  0.9730817E-01
         -2   -1    0    0    0  501 -0.00000000000E+00  0.00000000000E+00  0.30193184814E+03  0.30193184815E+03  0.25500000000E-02 0.  1.
          2   -1    0    0  501    0  0.00000000000E+00 -0.00000000000E+00 -0.14767615551E+04  0.14767615551E+04  0.25500000000E-02 0. -1.
    8880023    1    1    2    0    0  0.41580624023E+03 -0.13720741275E+03 -0.10179235816E+04  0.12890691711E+04  0.65864270000E+03 0. -1.
    8880022    1    1    2    0    0 -0.41580624023E+03  0.13720741275E+03 -0.15690612531E+03  0.48962423215E+03  0.15294330000E+03 0.  1.
<mgrwt>
<rscale>  0 0.69211213E+03</rscale>
<asrwt>0</asrwt>
<pdfrwt beam="1">  1        2 0.22719408E+00 0.79090512E+03</pdfrwt>
<pdfrwt beam="2">  1       -2 0.46451055E-01 0.79090512E+03</pdfrwt>
<totfact> 0.58448245E+01</totfact>
</mgrwt>
</event>
<event>
 4    1  0.2051094E-007  0.7946947E+03  0.7818608E-02  0.9722387E-01
         -2   -1    0    0    0  501 -0.00000000000E+00  0.00000000000E+00  0.44933425886E+03  0.44933425887E+03  0.25500000000E-02 0.  1.
          2   -1    0    0  501    0  0.00000000000E+00 -0.00000000000E+00 -0.20383629780E+04  0.20383629780E+04  0.25500000000E-02 0. -1.
    8880023    1    1    2    0    0  0.25718861050E+02 -0.44392349706E+03 -0.18035273348E+04  0.19708502188E+04  0.65864270000E+03 0. -1.
    8880022    1    1    2    0    0 -0.25718861050E+02  0.44392349706E+03  0.21449861564E+03  0.51684701816E+03  0.15294330000E+03 0.  0.
<mgrwt>
<rscale>  0 0.69699402E+03</rscale>
<asrwt>0</asrwt>
<pdfrwt beam="1">  1        2 0.31359430E+00 0.79469474E+03</pdfrwt>
<pdfrwt beam="2">  1       -2 0.69128349E-01 0.79469474E+03</pdfrwt>
<totfact> 0.12508234E+01</totfact>
</mgrwt>
</event>
<event>
 4    1  0.2051094E-007  0.1330831E+04  0.7818608E-02  0.9039382E-01
          2   -1    0    0  501    0  0.00000000000E+00  0.00000000000E+00  0.13561635924E+04  0.13561635924E+04  0.25500000000E-02 0. -1.
         -2   -1    0    0    0  501 -0.00000000000E+00 -0.00000000000E+00 -0.29388014010E+04  0.29388014010E+04  0.25500000000E-02 0.  1.
    8880023    1    1    2    0    0 -0.11191716729E+04  0.29113015213E+03  0.86246729392E+03  0.15858631839E+04  0.65864270000E+03 0.  0.
    8880022    1    1    2    0    0  0.11191716729E+04 -0.29113015213E+03 -0.24451051025E+04  0.27091018095E+04  0.15294330000E+03 0.  0.
<mgrwt>
<rscale>  0 0.12876930E+04</rscale>
<asrwt>0</asrwt>
<pdfrwt beam="1">  1        2 0.20864055E+00 0.13308314E+04</pdfrwt>
<pdfrwt beam="2">  1       -2 0.45212329E+00 0.13308314E+04</pdfrwt>
<totfact> 0.49658555E-02</totfact>
</mgrwt>
</event>
<event>
 4    1  0.2051094E-007  0.9886877E+03  0.7818608E-02  0.9396509E-01
         -2   -1    0    0    0  501 -0.00000000000E+00  0.00000000000E+00  0.78033105315E+03  0.78033105315E+03  0.25500000000E-02 0.  1.
          2   -1    0    0  501    0  0.00000000000E+00 -0.00000000000E+00 -0.13542858496E+04  0.13542858496E+04  0.25500000000E-02 0. -1.
    8880023    1    1    2    0    0  0.71361177409E+03 -0.18561091307E+03  0.24854811146E+03  0.10194506095E+04  0.65864270000E+03 0.  0.
    8880022    1    1    2    0    0 -0.71361177409E+03  0.18561091307E+03 -0.82250290791E+03  0.11151662933E+04  0.15294330000E+03 0.  0.
<mgrwt>
<rscale>  0 0.92363494E+03</rscale>
<asrwt>0</asrwt>
<pdfrwt beam="1">  1        2 0.20835167E+00 0.98868771E+03</pdfrwt>
<pdfrwt beam="2">  1       -2 0.12005093E+00 0.98868771E+03</pdfrwt>
<totfact> 0.81087711E+00</totfact>
</mgrwt>
</event>
<event>
 4    1  0.2051094E-007  0.8198899E+03  0.7818608E-02  0.9669333E-01
         -2   -1    0    0    0  501 -0.00000000000E+00  0.00000000000E+00  0.14094129777E+04  0.14094129777E+04  0.25500000000E-02 0.  1.
          2   -1    0    0  501    0  0.00000000000E+00 -0.00000000000E+00 -0.71045914027E+03  0.71045914028E+03  0.25500000000E-02 0. -1.
    8880023    1    1    2    0    0  0.29187813713E+03  0.39142874381E+03 -0.39656199284E+03  0.91075843606E+03  0.65864270000E+03 0.  0.
    8880022    1    1    2    0    0 -0.29187813713E+03 -0.39142874381E+03  0.10955158303E+04  0.12091136819E+04  0.15294330000E+03 0.  0.
<mgrwt>
<rscale>  0 0.72872400E+03</rscale>
<asrwt>0</asrwt>
<pdfrwt beam="1">  1        2 0.10930141E+00 0.81988994E+03</pdfrwt>
<pdfrwt beam="2">  1       -2 0.21683277E+00 0.81988994E+03</pdfrwt>
<totfact> 0.42238757E+00</totfact>
</mgrwt>
</event>
<event>
 4    1  0.2051094E-007  0.6620100E+03  0.7818608E-02  0.1022185E+00
         -2   -1    0    0    0  501 -0.00000000000E+00  0.00000000000E+00  0.11562613528E+03  0.11562613530E+03  0.25500000000E-02 0.  1.
          2   -1    0    0  501    0  0.00000000000E+00 -0.00000000000E+00 -0.21784027639E+04  0.21784027639E+04  0.25500000000E-02 0. -1.
    8880023    1    1    2    0    0  0.57250217667E+02  0.34197939072E+02 -0.20142736291E+04  0.21202725168E+04  0.65864270000E+03 0. -1.
    8880022    1    1    2    0    0 -0.57250217667E+02 -0.34197939072E+02 -0.48502999604E+02  0.17375638246E+03  0.15294330000E+03 0.  0.
<mgrwt>
<rscale>  0 0.46906133E+03</rscale>
<asrwt>0</asrwt>
<pdfrwt beam="1">  1        2 0.33513886E+00 0.66201004E+03</pdfrwt>
<pdfrwt beam="2">  1       -2 0.17788638E-01 0.66201004E+03</pdfrwt>
<totfact> 0.14437007E+02</totfact>
</mgrwt>
</event>
<event>
 4    1  0.2051094E-007  0.9365182E+03  0.7818608E-02  0.9469783E-01
         -2   -1    0    0    0  501 -0.00000000000E+00  0.00000000000E+00  0.75333640339E+03  0.75333640340E+03  0.25500000000E-02 0.  1.
          2   -1    0    0  501    0  0.00000000000E+00 -0.00000000000E+00 -0.25100654801E+04  0.25100654801E+04  0.25500000000E-02 0. -1.
    8880023    1    1    2    0    0 -0.49559458070E+03 -0.44456960449E+03 -0.22391530850E+04  0.24271120423E+04  0.65864270000E+03 0.  1.
    8880022    1    1    2    0    0  0.49559458070E+03  0.44456960449E+03  0.48242400830E+03  0.83628984117E+03  0.15294330000E+03 0.  0.
<mgrwt>
<rscale>  0 0.86548753E+03</rscale>
<asrwt>0</asrwt>
<pdfrwt beam="1">  1        2 0.38616392E+00 0.93651819E+03</pdfrwt>
<pdfrwt beam="2">  1       -2 0.11589791E+00 0.93651819E+03</pdfrwt>
<totfact> 0.20214274E+00</totfact>
</mgrwt>
</event>
<event>
 4    1  0.2051094E-007  0.1099654E+04  0.7818608E-02  0.9261442E-01
         -2   -1    0    0    0  501 -0.00000000000E+00  0.00000000000E+00  0.67538333486E+03  0.67538333486E+03  0.25500000000E-02 0.  1.
          2   -1    0    0  501    0  0.00000000000E+00 -0.00000000000E+00 -0.28407652239E+04  0.28407652239E+04  0.25500000000E-02 0. -1.
    8880023    1    1    2    0    0  0.10534676059E+03  0.87426002828E+03 -0.23580477231E+04  0.26018508427E+04  0.65864270000E+03 0. -1.
    8880022    1    1    2    0    0 -0.10534676059E+03 -0.87426002828E+03  0.19266583403E+03  0.91429771608E+03  0.15294330000E+03 0.  0.
<mgrwt>
<rscale>  0 0.10441146E+04</rscale>
<asrwt>0</asrwt>
<pdfrwt beam="1">  1        2 0.43704080E+00 0.10996539E+04</pdfrwt>
<pdfrwt beam="2">  1       -2 0.10390513E+00 0.10996539E+04</pdfrwt>
<totfact> 0.16476699E+00</totfact>
</mgrwt>
</event>
<event>
 4    1  0.2051094E-007  0.1224775E+04  0.7818608E-02  0.9133408E-01
         -2   -1    0    0    0  501 -0.00000000000E+00  0.00000000000E+00  0.79321105016E+03  0.79321105016E+03  0.25500000000E-02 0.  1.
          2   -1    0    0  501    0  0.00000000000E+00 -0.00000000000E+00 -0.18004138873E+04  0.18004138873E+04  0.25500000000E-02 0. -1.
    8880023    1    1    2    0    0 -0.16233476817E+03  0.10197598163E+04 -0.94670864809E+03  0.15480084400E+04  0.65864270000E+03 0.  0.
    8880022    1    1    2    0    0  0.16233476817E+03 -0.10197598163E+04 -0.60494189077E+02  0.10456164974E+04  0.15294330000E+03 0.  0.
<mgrwt>
<rscale>  0 0.11768015E+04</rscale>
<asrwt>0</asrwt>
<pdfrwt beam="1">  1        2 0.27698675E+00 0.12247746E+04</pdfrwt>
<pdfrwt beam="2">  1       -2 0.12203247E+00 0.12247746E+04</pdfrwt>
<totfact> 0.42721766E+00</totfact>
</mgrwt>
</event>
<event>
 4    1  0.2051094E-007  0.9859050E+03  0.7818608E-02  0.9400235E-01
         -2   -1    0    0    0  501 -0.00000000000E+00  0.00000000000E+00  0.69192626052E+03  0.69192626052E+03  0.25500000000E-02 0.  1.
          2   -1    0    0  501    0  0.00000000000E+00 -0.00000000000E+00 -0.17513592669E+04  0.17513592669E+04  0.25500000000E-02 0. -1.
    8880023    1    1    2    0    0 -0.33809511057E+03 -0.65106854681E+03 -0.13220672974E+04  0.16492030505E+04  0.65864270000E+03 0.  0.
    8880022    1    1    2    0    0  0.33809511057E+03  0.65106854681E+03  0.26263429102E+03  0.79408247700E+03  0.15294330000E+03 0.  0.
<mgrwt>
<rscale>  0 0.92056352E+03</rscale>
<asrwt>0</asrwt>
<pdfrwt beam="1">  1        2 0.26943989E+00 0.98590505E+03</pdfrwt>
<pdfrwt beam="2">  1       -2 0.10645019E+00 0.98590505E+03</pdfrwt>
<totfact> 0.65224547E+00</totfact>
</mgrwt>
</event>
<event>
 4    1  0.2051094E-007  0.8892099E+03  0.7818608E-02  0.9543580E-01
          2   -1    0    0  501    0  0.00000000000E+00  0.00000000000E+00  0.63095010825E+03  0.63095010825E+03  0.25500000000E-02 0. -1.
         -2   -1    0    0    0  501 -0.00000000000E+00 -0.00000000000E+00 -0.14123595486E+04  0.14123595486E+04  0.25500000000E-02 0.  1.
    8880023    1    1    2    0    0 -0.15226761163E+03  0.57766645645E+03  0.17409457126E+03  0.90609220638E+03  0.65864270000E+03 0.  0.
    8880022    1    1    2    0    0  0.15226761163E+03 -0.57766645645E+03 -0.95550401166E+03  0.11372174505E+04  0.15294330000E+03 0.  0.
<mgrwt>
<rscale>  0 0.81145700E+03</rscale>
<asrwt>0</asrwt>
<pdfrwt beam="1">  1        2 0.97069248E-01 0.88920986E+03</pdfrwt>
<pdfrwt beam="2">  1       -2 0.21728608E+00 0.88920986E+03</pdfrwt>
<totfact> 0.48285071E+00</totfact>
</mgrwt>
</event>
<event>
 4    1  0.2051094E-007  0.1017191E+04  0.7818608E-02  0.9359404E-01
          2   -1    0    0  501    0  0.00000000000E+00  0.00000000000E+00  0.38526160792E+04  0.38526160792E+04  0.25500000000E-02 0. -1.
         -2   -1    0    0    0  501 -0.00000000000E+00 -0.00000000000E+00 -0.59669065992E+03  0.59669065993E+03  0.25500000000E-02 0.  1.
    8880023    1    1    2    0    0  0.76897301568E+03 -0.97717194619E+02  0.34819709545E+04  0.36275060418E+04  0.65864270000E+03 0. -1.
    8880022    1    1    2    0    0 -0.76897301568E+03  0.97717194619E+02 -0.22604553530E+03  0.82180069726E+03  0.15294330000E+03 0.  0.
<mgrwt>
<rscale>  0 0.95493252E+03</rscale>
<asrwt>0</asrwt>
<pdfrwt beam="1">  1        2 0.59271019E+00 0.10171914E+04</pdfrwt>
<pdfrwt beam="2">  1       -2 0.91798560E-01 0.10171914E+04</pdfrwt>
<totfact> 0.47110324E-01</totfact>
</mgrwt>
</event>
<event>
 4    1  0.2051094E-007  0.7210551E+03  0.7818608E-02  0.9919032E-01
         -2   -1    0    0    0  501 -0.00000000000E+00  0.00000000000E+00  0.20998192465E+04  0.20998192465E+04  0.25500000000E-02 0.  1.
          2   -1    0    0  501    0  0.00000000000E+00 -0.00000000000E+00 -0.81992225426E+03  0.81992225426E+03  0.25500000000E-02 0. -1.
    8880023    1    1    2    0    0  0.28681079825E+03  0.62046721031E+02 -0.64449477072E+03  0.96710596386E+03  0.65864270000E+03 0. -1.
    8880022    1    1    2    0    0 -0.28681079825E+03 -0.62046721031E+02  0.19243917629E+04  0.19526355369E+04  0.15294330000E+03 0.  0.
<mgrwt>
<rscale>  0 0.59347719E+03</rscale>
<asrwt>0</asrwt>
<pdfrwt beam="1">  1        2 0.12614189E+00 0.72105509E+03</pdfrwt>
<pdfrwt beam="2">  1       -2 0.32304911E+00 0.72105509E+03</pdfrwt>
<totfact> 0.80701395E-01</totfact>
</mgrwt>
</event>
<event>
 4    1  0.2051094E-007  0.1489693E+04  0.7818608E-02  0.8916949E-01
         -2   -1    0    0    0  501 -0.00000000000E+00  0.00000000000E+00  0.79628646460E+03  0.79628646461E+03  0.25500000000E-02 0.  1.
          2   -1    0    0  501    0  0.00000000000E+00 -0.00000000000E+00 -0.38639644578E+04  0.38639644578E+04  0.25500000000E-02 0. -1.
    8880023    1    1    2    0    0  0.13320276173E+04  0.10524713701E+03 -0.29566960407E+04  0.33107757726E+04  0.65864270000E+03 0.  0.
    8880022    1    1    2    0    0 -0.13320276173E+04 -0.10524713701E+03 -0.11098195254E+03  0.13494751498E+04  0.15294330000E+03 0.  0.
<mgrwt>
<rscale>  0 0.14520961E+04</rscale>
<asrwt>0</asrwt>
<pdfrwt beam="1">  1        2 0.59445606E+00 0.14896928E+04</pdfrwt>
<pdfrwt beam="2">  1       -2 0.12250561E+00 0.14896928E+04</pdfrwt>
<totfact> 0.21331739E-01</totfact>
</mgrwt>
</event>
<event>
 4    1  0.2051094E-007  0.7742805E+03  0.7818608E-02  0.9769448E-01
         -2   -1    0    0    0  501 -0.00000000000E+00  0.00000000000E+00  0.34887510606E+03  0.34887510607E+03  0.25500000000E-02 0.  1.
          2   -1    0    0  501    0  0.00000000000E+00 -0.00000000000E+00 -0.30258029225E+04  0.30258029225E+04  0.25500000000E-02 0. -1.
    8880023    1    1    2    0    0  0.40003079670E+03  0.75335085659E+02 -0.28141260591E+04  0.29187010289E+04  0.65864270000E+03 0. -1.
    8880022    1    1    2    0    0 -0.40003079670E+03 -0.75335085659E+02  0.13719824263E+03  0.45597699968E+03  0.15294330000E+03 0.  0.
<mgrwt>
<rscale>  0 0.67028233E+03</rscale>
<asrwt>0</asrwt>
<pdfrwt beam="1">  1        2 0.46550813E+00 0.77428045E+03</pdfrwt>
<pdfrwt beam="2">  1       -2 0.53673095E-01 0.77428045E+03</pdfrwt>
<totfact> 0.58237033E+00</totfact>
</mgrwt>
</event>
<event>
 4    1  0.2051094E-007  0.7520578E+03  0.7818608E-02  0.9826121E-01
         -2   -1    0    0    0  501 -0.00000000000E+00  0.00000000000E+00  0.20844660395E+03  0.20844660396E+03  0.25500000000E-02 0.  1.
          2   -1    0    0  501    0  0.00000000000E+00 -0.00000000000E+00 -0.15860275430E+04  0.15860275430E+04  0.25500000000E-02 0. -1.
    8880023    1    1    2    0    0  0.16755279145E+02 -0.36262929140E+03 -0.83165978016E+03  0.11212711262E+04  0.65864270000E+03 0. -1.
    8880022    1    1    2    0    0 -0.16755279145E+02  0.36262929140E+03 -0.54592115889E+03  0.67320302071E+03  0.15294330000E+03 0.  1.
<mgrwt>
<rscale>  0 0.63979409E+03</rscale>
<asrwt>0</asrwt>
<pdfrwt beam="1">  1        2 0.24400423E+00 0.75205781E+03</pdfrwt>
<pdfrwt beam="2">  1       -2 0.32068709E-01 0.75205781E+03</pdfrwt>
<totfact> 0.10465786E+02</totfact>
</mgrwt>
</event>
<event>
 4    1  0.2051094E-007  0.8869875E+03  0.7818608E-02  0.9547252E-01
         -2   -1    0    0    0  501 -0.00000000000E+00  0.00000000000E+00  0.52513286677E+03  0.52513286677E+03  0.25500000000E-02 0.  1.
          2   -1    0    0  501    0  0.00000000000E+00 -0.00000000000E+00 -0.23002405279E+04  0.23002405279E+04  0.25500000000E-02 0. -1.
    8880023    1    1    2    0    0  0.22884383899E+03 -0.54824006822E+03 -0.19872963403E+04  0.21762567922E+04  0.65864270000E+03 0.  0.
    8880022    1    1    2    0    0 -0.22884383899E+03  0.54824006822E+03  0.21218867918E+03  0.64911660250E+03  0.15294330000E+03 0.  0.
<mgrwt>
<rscale>  0 0.80887982E+03</rscale>
<asrwt>0</asrwt>
<pdfrwt beam="1">  1        2 0.35388315E+00 0.88698753E+03</pdfrwt>
<pdfrwt beam="2">  1       -2 0.80789673E-01 0.88698753E+03</pdfrwt>
<totfact> 0.62614230E+00</totfact>
</mgrwt>
</event>
<event>
 4    1  0.2051094E-007  0.2123975E+04  0.7818608E-02  0.8561772E-01
         -2   -1    0    0    0  501 -0.00000000000E+00  0.00000000000E+00  0.35076770827E+04  0.35076770827E+04  0.25500000000E-02 0.  1.
          2   -1    0    0  501    0  0.00000000000E+00 -0.00000000000E+00 -0.18868156828E+04  0.18868156828E+04  0.25500000000E-02 0. -1.
    8880023    1    1    2    0    0  0.10589297584E+04 -0.17193390354E+04 -0.77183970981E+03  0.22598685129E+04  0.65864270000E+03 0.  0.
    8880022    1    1    2    0    0 -0.10589297584E+04  0.17193390354E+04  0.23927011097E+04  0.31346242526E+04  0.15294330000E+03 0.  0.
<mgrwt>
<rscale>  0 0.20988010E+04</rscale>
<asrwt>0</asrwt>
<pdfrwt beam="1">  1        2 0.29027934E+00 0.21239748E+04</pdfrwt>
<pdfrwt beam="2">  1       -2 0.53964262E+00 0.21239748E+04</pdfrwt>
<totfact> 0.64279745E-03</totfact>
</mgrwt>
</event>
<event>
 4    1  0.2051094E-007  0.7670829E+03  0.7818608E-02  0.9787104E-01
          2   -1    0    0  501    0  0.00000000000E+00  0.00000000000E+00  0.29316710410E+04  0.29316710410E+04  0.25500000000E-02 0. -1.
         -2   -1    0    0    0  501 -0.00000000000E+00 -0.00000000000E+00 -0.21585495656E+03  0.21585495658E+03  0.25500000000E-02 0.  1.
    8880023    1    1    2    0    0  0.18416066705E+03  0.34740578728E+03  0.25988811468E+04  0.27097231139E+04  0.65864270000E+03 0.  0.
    8880022    1    1    2    0    0 -0.18416066705E+03 -0.34740578728E+03  0.11693493762E+03  0.43780288370E+03  0.15294330000E+03 0.  0.
<mgrwt>
<rscale>  0 0.66059226E+03</rscale>
<asrwt>0</asrwt>
<pdfrwt beam="1">  1        2 0.45102627E+00 0.76708288E+03</pdfrwt>
<pdfrwt beam="2">  1       -2 0.33208458E-01 0.76708288E+03</pdfrwt>
<totfact> 0.17159273E+01</totfact>
</mgrwt>
</event>
<event>
 4    1  0.3289123E-007  0.8630400E+03  0.7818608E-02  0.9588179E-01
         -2   -1    0    0    0  501 -0.00000000000E+00  0.00000000000E+00  0.99334094521E+03  0.99334094522E+03  0.25500000000E-02 0.  1.
          2   -1    0    0  501    0  0.00000000000E+00 -0.00000000000E+00 -0.20447116875E+04  0.20447116875E+04  0.25500000000E-02 0. -1.
    8880023    1    1    2    0    0  0.55491599711E+03  0.55641790776E+02 -0.18561893615E+04  0.20470165912E+04  0.65864270000E+03 0. -1.
    8880022    1    1    2    0    0 -0.55491599711E+03 -0.55641790776E+02  0.80481861920E+03  0.99103604151E+03  0.15294330000E+03 0.  0.
<mgrwt>
<rscale>  0 0.78083562E+03</rscale>
<asrwt>0</asrwt>
<pdfrwt beam="1">  1        2 0.31457103E+00 0.86303996E+03</pdfrwt>
<pdfrwt beam="2">  1       -2 0.15282168E+00 0.86303996E+03</pdfrwt>
<totfact> 0.18328729E+00</totfact>
</mgrwt>
</event>
<event>
 4    1  0.2051094E-007  0.7253353E+03  0.7818608E-02  0.9904930E-01
         -2   -1    0    0    0  501 -0.00000000000E+00  0.00000000000E+00  0.22059877736E+03  0.22059877738E+03  0.25500000000E-02 0.  1.
          2   -1    0    0  501    0  0.00000000000E+00 -0.00000000000E+00 -0.37291693224E+04  0.37291693224E+04  0.25500000000E-02 0. -1.
    8880023    1    1    2    0    0 -0.20498742972E+03  0.22423488166E+03 -0.35349611856E+04  0.36086094162E+04  0.65864270000E+03 0. -1.
    8880022    1    1    2    0    0  0.20498742972E+03 -0.22423488166E+03  0.26390640547E+02  0.34115868363E+03  0.15294330000E+03 0.  0.
<mgrwt>
<rscale>  0 0.60022959E+03</rscale>
<asrwt>0</asrwt>
<pdfrwt beam="1">  1        2 0.57371831E+00 0.72533533E+03</pdfrwt>
<pdfrwt beam="2">  1       -2 0.33938276E-01 0.72533533E+03</pdfrwt>
<totfact> 0.49559948E+00</totfact>
</mgrwt>
</event>
<event>
 4    1  0.2051094E-007  0.7322202E+03  0.7818608E-02  0.9883218E-01
          2   -1    0    0  501    0  0.00000000000E+00  0.00000000000E+00  0.22352479467E+04  0.22352479467E+04  0.25500000000E-02 0. -1.
         -2   -1    0    0    0  501 -0.00000000000E+00 -0.00000000000E+00 -0.44485847623E+03  0.44485847623E+03  0.25500000000E-02 0.  1.
    8880023    1    1    2    0    0 -0.31036484557E+03  0.77523117831E+02  0.20908425880E+04  0.22153485290E+04  0.65864270000E+03 0.  0.
    8880022    1    1    2    0    0  0.31036484557E+03 -0.77523117831E+02 -0.30045311746E+03  0.46475789393E+03  0.15294330000E+03 0.  0.
<mgrwt>
<rscale>  0 0.61081570E+03</rscale>
<asrwt>0</asrwt>
<pdfrwt beam="1">  1        2 0.34388430E+00 0.73222017E+03</pdfrwt>
<pdfrwt beam="2">  1       -2 0.68439766E-01 0.73222017E+03</pdfrwt>
<totfact> 0.10058526E+01</totfact>
</mgrwt>
</event>
<event>
 4    1  0.2051094E-007  0.6603808E+03  0.7818608E-02  0.1023770E+00
          2   -1    0    0  501    0  0.00000000000E+00  0.00000000000E+00  0.29739793230E+04  0.29739793230E+04  0.25500000000E-02 0. -1.
         -2   -1    0    0    0  501 -0.00000000000E+00 -0.00000000000E+00 -0.12068027392E+04  0.12068027393E+04  0.25500000000E-02 0.  1.
    8880023    1    1    2    0    0  0.18482407814E+02 -0.44170365474E+02  0.29317639370E+04  0.30052192282E+04  0.65864270000E+03 0. -1.
    8880022    1    1    2    0    0 -0.18482407814E+02  0.44170365474E+02 -0.11645873533E+04  0.11755628341E+04  0.15294330000E+03 0.  0.
<mgrwt>
<rscale>  0 0.46350481E+03</rscale>
<asrwt>0</asrwt>
<pdfrwt beam="1">  1        2 0.45753527E+00 0.66038082E+03</pdfrwt>
<pdfrwt beam="2">  1       -2 0.18566196E+00 0.66038082E+03</pdfrwt>
<totfact> 0.32946071E-01</totfact>
</mgrwt>
</event>
<event>
 4    1  0.2051094E-007  0.1810601E+04  0.7818608E-02  0.8716695E-01
          2   -1    0    0  501    0  0.00000000000E+00  0.00000000000E+00  0.24856470250E+04  0.24856470250E+04  0.25500000000E-02 0. -1.
         -2   -1    0    0    0  501 -0.00000000000E+00 -0.00000000000E+00 -0.14589918002E+04  0.14589918002E+04  0.25500000000E-02 0.  1.
    8880023    1    1    2    0    0 -0.13718056635E+04  0.98112995904E+03  0.13003794654E+04  0.22291845449E+04  0.65864270000E+03 0.  0.
    8880022    1    1    2    0    0  0.13718056635E+04 -0.98112995904E+03 -0.27372424049E+03  0.17154542803E+04  0.15294330000E+03 0.  0.
<mgrwt>
<rscale>  0 0.17805814E+04</rscale>
<asrwt>0</asrwt>
<pdfrwt beam="1">  1        2 0.38240723E+00 0.18106013E+04</pdfrwt>
<pdfrwt beam="2">  1       -2 0.22446028E+00 0.18106013E+04</pdfrwt>
<totfact> 0.29849119E-01</totfact>
</mgrwt>
</event>
<event>
 4    1  0.2051094E-007  0.1789298E+04  0.7818608E-02  0.8728480E-01
          2   -1    0    0  501    0  0.00000000000E+00  0.00000000000E+00  0.33879575140E+04  0.33879575140E+04  0.25500000000E-02 0. -1.
         -2   -1    0    0    0  501 -0.00000000000E+00 -0.00000000000E+00 -0.12943899866E+04  0.12943899866E+04  0.25500000000E-02 0.  1.
    8880023    1    1    2    0    0 -0.16425763249E+04  0.26404485599E+03  0.23899939631E+04  0.29855749897E+04  0.65864270000E+03 0.  0.
    8880022    1    1    2    0    0  0.16425763249E+04 -0.26404485599E+03 -0.29642643566E+03  0.16967725109E+04  0.15294330000E+03 0.  0.
<mgrwt>
<rscale>  0 0.17588761E+04</rscale>
<asrwt>0</asrwt>
<pdfrwt beam="1">  1        2 0.52122423E+00 0.17892979E+04</pdfrwt>
<pdfrwt beam="2">  1       -2 0.19913692E+00 0.17892979E+04</pdfrwt>
<totfact> 0.11964149E-01</totfact>
</mgrwt>
</event>
<event>
 4    1  0.2051094E-007  0.7487343E+03  0.7818608E-02  0.9835198E-01
          2   -1    0    0  501    0  0.00000000000E+00  0.00000000000E+00  0.41426625383E+04  0.41426625383E+04  0.25500000000E-02 0. -1.
         -2   -1    0    0    0  501 -0.00000000000E+00 -0.00000000000E+00 -0.12308263541E+03  0.12308263544E+03  0.25500000000E-02 0.  1.
    8880023    1    1    2    0    0  0.22643013806E+03 -0.27481301421E+03  0.36642562597E+04  0.37399701794E+04  0.65864270000E+03 0. -1.
    8880022    1    1    2    0    0 -0.22643013806E+03  0.27481301421E+03  0.35532364323E+03  0.52577499432E+03  0.15294330000E+03 0.  0.
<mgrwt>
<rscale>  0 0.63507338E+03</rscale>
<asrwt>0</asrwt>
<pdfrwt beam="1">  1        2 0.63733269E+00 0.74873427E+03</pdfrwt>
<pdfrwt beam="2">  1       -2 0.18935790E-01 0.74873427E+03</pdfrwt>
<totfact> 0.67916063E+00</totfact>
</mgrwt>
</event>
<event>
 4    1  0.2051094E-007  0.1117392E+04  0.7818608E-02  0.9241936E-01
          2   -1    0    0  501    0  0.00000000000E+00  0.00000000000E+00  0.25856383448E+04  0.25856383448E+04  0.25500000000E-02 0. -1.
         -2   -1    0    0    0  501 -0.00000000000E+00 -0.00000000000E+00 -0.59361930114E+03  0.59361930115E+03  0.25500000000E-02 0.  1.
    8880023    1    1    2    0    0  0.31599762801E+03  0.84551707868E+03  0.19684117125E+04  0.22634505754E+04  0.65864270000E+03 0.  0.
    8880022    1    1    2    0    0 -0.31599762801E+03 -0.84551707868E+03  0.23607331122E+02  0.91580707048E+03  0.15294330000E+03 0.  0.
<mgrwt>
<rscale>  0 0.10630873E+04</rscale>
<asrwt>0</asrwt>
<pdfrwt beam="1">  1        2 0.39779050E+00 0.11173915E+04</pdfrwt>
<pdfrwt beam="2">  1       -2 0.91326050E-01 0.11173915E+04</pdfrwt>
<totfact> 0.31557086E+00</totfact>
</mgrwt>
</event>
<event>
 4    1  0.2051094E-007  0.6693507E+03  0.7818608E-02  0.1016133E+00
         -2   -1    0    0    0  501 -0.00000000000E+00  0.00000000000E+00  0.20486022719E+03  0.20486022721E+03  0.25500000000E-02 0.  1.
          2   -1    0    0  501    0  0.00000000000E+00 -0.00000000000E+00 -0.23743567027E+04  0.23743567027E+04  0.25500000000E-02 0. -1.
    8880023    1    1    2    0    0  0.61572077570E+02  0.10212264655E+03 -0.22658601928E+04  0.23626579894E+04  0.65864270000E+03 0. -1.
    8880022    1    1    2    0    0 -0.61572077570E+02 -0.10212264655E+03  0.96363717262E+02  0.21655894046E+03  0.15294330000E+03 0.  0.
<mgrwt>
<rscale>  0 0.49108404E+03</rscale>
<asrwt>0</asrwt>
<pdfrwt beam="1">  1        2 0.36528563E+00 0.66935070E+03</pdfrwt>
<pdfrwt beam="2">  1       -2 0.31516960E-01 0.66935070E+03</pdfrwt>
<totfact> 0.40393852E+01</totfact>
</mgrwt>
</event>
<event>
 4    1  0.2051094E-007  0.1049247E+04  0.7818608E-02  0.9319788E-01
         -2   -1    0    0    0  501 -0.00000000000E+00  0.00000000000E+00  0.63087534492E+03  0.63087534493E+03  0.25500000000E-02 0.  1.
          2   -1    0    0  501    0  0.00000000000E+00 -0.00000000000E+00 -0.20965271020E+04  0.20965271020E+04  0.25500000000E-02 0. -1.
    8880023    1    1    2    0    0 -0.73119093209E+03  0.36396138167E+03 -0.15716463410E+04  0.18897064571E+04  0.65864270000E+03 0.  0.
    8880022    1    1    2    0    0  0.73119093209E+03 -0.36396138167E+03  0.10599458395E+03  0.83769598982E+03  0.15294330000E+03 0.  0.
<mgrwt>
<rscale>  0 0.98981400E+03</rscale>
<asrwt>0</asrwt>
<pdfrwt beam="1">  1        2 0.32254263E+00 0.10492465E+04</pdfrwt>
<pdfrwt beam="2">  1       -2 0.97057746E-01 0.10492465E+04</pdfrwt>
<totfact> 0.52110088E+00</totfact>
</mgrwt>
</event>
<event>
 4    1  0.2051094E-007  0.7350666E+03  0.7818608E-02  0.9874558E-01
         -2   -1    0    0    0  501 -0.00000000000E+00  0.00000000000E+00  0.35772645506E+03  0.35772645507E+03  0.25500000000E-02 0.  1.
          2   -1    0    0  501    0  0.00000000000E+00 -0.00000000000E+00 -0.19285402355E+04  0.19285402355E+04  0.25500000000E-02 0. -1.
    8880023    1    1    2    0    0 -0.30306639213E+03  0.12109303325E+03 -0.17394171647E+04  0.18883577626E+04  0.65864270000E+03 0. -1.
    8880022    1    1    2    0    0  0.30306639213E+03 -0.12109303325E+03  0.16860338422E+03  0.39790892793E+03  0.15294330000E+03 0.  0.
<mgrwt>
<rscale>  0 0.61510325E+03</rscale>
<asrwt>0</asrwt>
<pdfrwt beam="1">  1        2 0.29669849E+00 0.73506664E+03</pdfrwt>
<pdfrwt beam="2">  1       -2 0.55034840E-01 0.73506664E+03</pdfrwt>
<totfact> 0.23506038E+01</totfact>
</mgrwt>
</event>
<event>
 4    1  0.2051094E-007  0.6622451E+03  0.7818608E-02  0.1021966E+00
         -2   -1    0    0    0  501 -0.00000000000E+00  0.00000000000E+00  0.33364740033E+03  0.33364740034E+03  0.25500000000E-02 0.  1.
          2   -1    0    0  501    0  0.00000000000E+00 -0.00000000000E+00 -0.19451928057E+04  0.19451928057E+04  0.25500000000E-02 0. -1.
    8880023    1    1    2    0    0 -0.38686166062E+02  0.57111239395E+02 -0.18626310398E+04  0.19768568258E+04  0.65864270000E+03 0. -1.
    8880022    1    1    2    0    0  0.38686166062E+02 -0.57111239395E+02  0.25108563442E+03  0.30198338023E+03  0.15294330000E+03 0.  0.
<mgrwt>
<rscale>  0 0.46983869E+03</rscale>
<asrwt>0</asrwt>
<pdfrwt beam="1">  1        2 0.29926042E+00 0.66224506E+03</pdfrwt>
<pdfrwt beam="2">  1       -2 0.51330370E-01 0.66224506E+03</pdfrwt>
<totfact> 0.26849569E+01</totfact>
</mgrwt>
</event>
<event>
 4    1  0.2051094E-007  0.6884706E+03  0.7818608E-02  0.1004888E+00
          2   -1    0    0  501    0  0.00000000000E+00  0.00000000000E+00  0.28116312476E+04  0.28116312476E+04  0.25500000000E-02 0. -1.
         -2   -1    0    0    0  501 -0.00000000000E+00 -0.00000000000E+00 -0.11610203656E+03  0.11610203659E+03  0.25500000000E-02 0.  1.
    8880023    1    1    2    0    0  0.16820936991E+03 -0.10902821849E+03  0.25396223873E+04  0.26312874455E+04  0.65864270000E+03 0. -1.
    8880022    1    1    2    0    0 -0.16820936991E+03  0.10902821849E+03  0.15590682367E+03  0.29644583862E+03  0.15294330000E+03 0.  1.
<mgrwt>
<rscale>  0 0.53557870E+03</rscale>
<asrwt>0</asrwt>
<pdfrwt beam="1">  1        2 0.43255865E+00 0.68847059E+03</pdfrwt>
<pdfrwt beam="2">  1       -2 0.17861852E-01 0.68847059E+03</pdfrwt>
<totfact> 0.62554752E+01</totfact>
</mgrwt>
</event>
<event>
 4    1  0.2051094E-007  0.1048877E+04  0.7818608E-02  0.9320232E-01
          2   -1    0    0  501    0  0.00000000000E+00  0.00000000000E+00  0.19607527557E+04  0.19607527557E+04  0.25500000000E-02 0. -1.
         -2   -1    0    0    0  501 -0.00000000000E+00 -0.00000000000E+00 -0.96269908206E+03  0.96269908206E+03  0.25500000000E-02 0.  1.
    8880023    1    1    2    0    0  0.51781660089E+03  0.63103031417E+03  0.15891458806E+04  0.19040819640E+04  0.65864270000E+03 0. -1.
    8880022    1    1    2    0    0 -0.51781660089E+03 -0.63103031417E+03 -0.59109220690E+03  0.10193698738E+04  0.15294330000E+03 0.  0.
<mgrwt>
<rscale>  0 0.98941387E+03</rscale>
<asrwt>0</asrwt>
<pdfrwt beam="1">  1        2 0.30165427E+00 0.10488773E+04</pdfrwt>
<pdfrwt beam="2">  1       -2 0.14810755E+00 0.10488773E+04</pdfrwt>
<totfact> 0.21570942E+00</totfact>
</mgrwt>
</event>
<event>
 4    1  0.2051094E-007  0.1258922E+04  0.7818608E-02  0.9101871E-01
         -2   -1    0    0    0  501 -0.00000000000E+00  0.00000000000E+00  0.10286950037E+04  0.10286950037E+04  0.25500000000E-02 0.  1.
          2   -1    0    0  501    0  0.00000000000E+00 -0.00000000000E+00 -0.22205231762E+04  0.22205231762E+04  0.25500000000E-02 0. -1.
    8880023    1    1    2    0    0  0.76490802570E+03 -0.75232268316E+03 -0.16476293850E+04  0.20735396075E+04  0.65864270000E+03 0.  0.
    8880022    1    1    2    0    0 -0.76490802570E+03  0.75232268316E+03  0.45580121241E+03  0.11756785724E+04  0.15294330000E+03 0.  0.
<mgrwt>
<rscale>  0 0.12126321E+04</rscale>
<asrwt>0</asrwt>
<pdfrwt beam="1">  1        2 0.34161895E+00 0.12589217E+04</pdfrwt>
<pdfrwt beam="2">  1       -2 0.15826077E+00 0.12589217E+04</pdfrwt>
<totfact> 0.12623556E+00</totfact>
</mgrwt>
</event>
<event>
 4    1  0.2051094E-007  0.2276320E+04  0.7818608E-02  0.8496702E-01
         -2   -1    0    0    0  501 -0.00000000000E+00  0.00000000000E+00  0.23201144455E+04  0.23201144455E+04  0.25500000000E-02 0.  1.
          2   -1    0    0  501    0  0.00000000000E+00 -0.00000000000E+00 -0.45995266751E+04  0.45995266751E+04  0.25500000000E-02 0. -1.
    8880023    1    1    2    0    0 -0.15082040054E+04 -0.15726236547E+04 -0.36783721711E+04  0.43257434641E+04  0.65864270000E+03 0.  0.
    8880022    1    1    2    0    0  0.15082040054E+04  0.15726236547E+04  0.13989599416E+04  0.25938976565E+04  0.15294330000E+03 0.  0.
<mgrwt>
<rscale>  0 0.22529610E+04</rscale>
<asrwt>0</asrwt>
<pdfrwt beam="1">  1        2 0.70761949E+00 0.22763204E+04</pdfrwt>
<pdfrwt beam="2">  1       -2 0.35694068E+00 0.22763204E+04</pdfrwt>
<totfact> 0.11772104E-03</totfact>
</mgrwt>
</event>
<event>
 4    1  0.2051094E-007  0.8055020E+03  0.7818608E-02  0.9699023E-01
         -2   -1    0    0    0  501 -0.00000000000E+00  0.00000000000E+00  0.94354668109E+03  0.94354668109E+03  0.25500000000E-02 0.  1.
          2   -1    0    0  501    0  0.00000000000E+00 -0.00000000000E+00 -0.15891694800E+04  0.15891694800E+04  0.25500000000E-02 0. -1.
    8880023    1    1    2    0    0  0.23833581600E+03  0.39776787842E+03 -0.14110701012E+04  0.16247929970E+04  0.65864270000E+03 0. -1.
    8880022    1    1    2    0    0 -0.23833581600E+03 -0.39776787842E+03  0.76544730230E+03  0.90792316410E+03  0.15294330000E+03 0.  0.
<mgrwt>
<rscale>  0 0.71074962E+03</rscale>
<asrwt>0</asrwt>
<pdfrwt beam="1">  1        2 0.24448761E+00 0.80550199E+03</pdfrwt>
<pdfrwt beam="2">  1       -2 0.14516103E+00 0.80550199E+03</pdfrwt>
<totfact> 0.37663438E+00</totfact>
</mgrwt>
</event>
<event>
 4    1  0.2051094E-007  0.9703757E+03  0.7818608E-02  0.9421385E-01
          2   -1    0    0  501    0  0.00000000000E+00  0.00000000000E+00  0.39083843366E+04  0.39083843366E+04  0.25500000000E-02 0. -1.
         -2   -1    0    0    0  501 -0.00000000000E+00 -0.00000000000E+00 -0.23833135347E+03  0.23833135348E+03  0.25500000000E-02 0.  1.
    8880023    1    1    2    0    0  0.68644791889E+03 -0.19133244007E+03  0.30130698203E+04  0.31654729183E+04  0.65864270000E+03 0.  1.
    8880022    1    1    2    0    0 -0.68644791889E+03  0.19133244007E+03  0.65698316277E+03  0.98124277177E+03  0.15294330000E+03 0.  0.
<mgrwt>
<rscale>  0 0.90336503E+03</rscale>
<asrwt>0</asrwt>
<pdfrwt beam="1">  1        2 0.60128983E+00 0.97037573E+03</pdfrwt>
<pdfrwt beam="2">  1       -2 0.36666366E-01 0.97037573E+03</pdfrwt>
<totfact> 0.29959919E+00</totfact>
</mgrwt>
</event>
<event>
 4    1  0.2051094E-007  0.6973770E+03  0.7818608E-02  0.1000826E+00
          2   -1    0    0  501    0  0.00000000000E+00  0.00000000000E+00  0.11955464746E+04  0.11955464746E+04  0.25500000000E-02 0. -1.
         -2   -1    0    0    0  501 -0.00000000000E+00 -0.00000000000E+00 -0.26575395918E+03  0.26575395919E+03  0.25500000000E-02 0.  1.
    8880023    1    1    2    0    0  0.22908336092E+03  0.67319475382E+01  0.95732314595E+03  0.11843995599E+04  0.65864270000E+03 0. -1.
    8880022    1    1    2    0    0 -0.22908336092E+03 -0.67319475382E+01 -0.27530630512E+02  0.27690087396E+03  0.15294330000E+03 0.  0.
<mgrwt>
<rscale>  0 0.55289480E+03</rscale>
<asrwt>0</asrwt>
<pdfrwt beam="1">  1        2 0.18393023E+00 0.69737702E+03</pdfrwt>
<pdfrwt beam="2">  1       -2 0.40885224E-01 0.69737702E+03</pdfrwt>
<totfact> 0.11001610E+02</totfact>
</mgrwt>
</event>
<event>
 4    1  0.2051094E-007  0.7299370E+03  0.7818608E-02  0.9890293E-01
          2   -1    0    0  501    0  0.00000000000E+00  0.00000000000E+00  0.43673073257E+04  0.43673073257E+04  0.25500000000E-02 0. -1.
         -2   -1    0    0    0  501 -0.00000000000E+00 -0.00000000000E+00 -0.76952573750E+02  0.76952573792E+02  0.25500000000E-02 0.  1.
    8880023    1    1    2    0    0 -0.44676280611E+02  0.31145116060E+03  0.35648291177E+04  0.36387930197E+04  0.65864270000E+03 0. -1.
    8880022    1    1    2    0    0  0.44676280611E+02 -0.31145116060E+03  0.72552563423E+03  0.80546687979E+03  0.15294330000E+03 0.  1.
<mgrwt>
<rscale>  0 0.60734019E+03</rscale>
<asrwt>0</asrwt>
<pdfrwt beam="1">  1        2 0.67189365E+00 0.72993698E+03</pdfrwt>
<pdfrwt beam="2">  1       -2 0.11838854E-01 0.72993698E+03</pdfrwt>
<totfact> 0.96599936E+00</totfact>
</mgrwt>
</event>
<event>
 4    1  0.2051094E-007  0.7088729E+03  0.7818608E-02  0.9962210E-01
          2   -1    0    0  501    0  0.00000000000E+00  0.00000000000E+00  0.17082149958E+04  0.17082149958E+04  0.25500000000E-02 0. -1.
         -2   -1    0    0    0  501 -0.00000000000E+00 -0.00000000000E+00 -0.26739014720E+03  0.26739014721E+03  0.25500000000E-02 0.  1.
    8880023    1    1    2    0    0  0.24884589342E+02 -0.26090480165E+03  0.15066644675E+04  0.16650941661E+04  0.65864270000E+03 0. -1.
    8880022    1    1    2    0    0 -0.24884589342E+02  0.26090480165E+03 -0.65839618901E+02  0.31051097685E+03  0.15294330000E+03 0.  0.
<mgrwt>
<rscale>  0 0.57338753E+03</rscale>
<asrwt>0</asrwt>
<pdfrwt beam="1">  1        2 0.26280231E+00 0.70887288E+03</pdfrwt>
<pdfrwt beam="2">  1       -2 0.41136945E-01 0.70887288E+03</pdfrwt>
<totfact> 0.55896562E+01</totfact>
</mgrwt>
</event>
<event>
 4    1  0.2051094E-007  0.1680926E+04  0.7818608E-02  0.8791431E-01
         -2   -1    0    0    0  501 -0.00000000000E+00  0.00000000000E+00  0.16777369436E+04  0.16777369436E+04  0.25500000000E-02 0.  1.
          2   -1    0    0  501    0  0.00000000000E+00 -0.00000000000E+00 -0.19136307673E+04  0.19136307673E+04  0.25500000000E-02 0. -1.
    8880023    1    1    2    0    0  0.96732946065E+03  0.12066380366E+04 -0.89380269710E+03  0.19037844165E+04  0.65864270000E+03 0.  0.
    8880022    1    1    2    0    0 -0.96732946065E+03 -0.12066380366E+04  0.65790887344E+03  0.16875832944E+04  0.15294330000E+03 0.  0.
<mgrwt>
<rscale>  0 0.16482693E+04</rscale>
<asrwt>0</asrwt>
<pdfrwt beam="1">  1        2 0.29440474E+00 0.16809259E+04</pdfrwt>
<pdfrwt beam="2">  1       -2 0.25811337E+00 0.16809259E+04</pdfrwt>
<totfact> 0.39358637E-01</totfact>
</mgrwt>
</event>
<event>
 4    1  0.2051094E-007  0.7570128E+03  0.7818608E-02  0.9812903E-01
         -2   -1    0    0    0  501 -0.00000000000E+00  0.00000000000E+00  0.25415151329E+03  0.25415151331E+03  0.25500000000E-02 0.  1.
          2   -1    0    0  501    0  0.00000000000E+00 -0.00000000000E+00 -0.15173279886E+04  0.15173279886E+04  0.25500000000E-02 0. -1.
    8880023    1    1    2    0    0 -0.33404839734E+03 -0.16634271172E+03 -0.11024467459E+04  0.13373321439E+04  0.65864270000E+03 0.  0.
    8880022    1    1    2    0    0  0.33404839734E+03  0.16634271172E+03 -0.16072972949E+03  0.43414735801E+03  0.15294330000E+03 0.  0.
<mgrwt>
<rscale>  0 0.64674660E+03</rscale>
<asrwt>0</asrwt>
<pdfrwt beam="1">  1        2 0.23343507E+00 0.75701284E+03</pdfrwt>
<pdfrwt beam="2">  1       -2 0.39100234E-01 0.75701284E+03</pdfrwt>
<totfact> 0.78212997E+01</totfact>
</mgrwt>
</event>
<event>
 4    1  0.2051094E-007  0.1213799E+04  0.7818608E-02  0.9143824E-01
          2   -1    0    0  501    0  0.00000000000E+00  0.00000000000E+00  0.23276397905E+04  0.23276397905E+04  0.25500000000E-02 0. -1.
         -2   -1    0    0    0  501 -0.00000000000E+00 -0.00000000000E+00 -0.55306212193E+03  0.55306212194E+03  0.25500000000E-02 0.  1.
    8880023    1    1    2    0    0 -0.10026126157E+04 -0.18511193138E+03  0.11681744482E+04  0.16846187201E+04  0.65864270000E+03 0. -1.
    8880022    1    1    2    0    0  0.10026126157E+04  0.18511193138E+03  0.60640322029E+03  0.11960831923E+04  0.15294330000E+03 0.  1.
<mgrwt>
<rscale>  0 0.11652556E+04</rscale>
<asrwt>0</asrwt>
<pdfrwt beam="1">  1        2 0.35809843E+00 0.12137993E+04</pdfrwt>
<pdfrwt beam="2">  1       -2 0.85086479E-01 0.12137993E+04</pdfrwt>
<totfact> 0.51629165E+00</totfact>
</mgrwt>
</event>
<event>
 4    1  0.2051094E-007  0.7700764E+03  0.7818608E-02  0.9779686E-01
         -2   -1    0    0    0  501 -0.00000000000E+00  0.00000000000E+00  0.11244335329E+04  0.11244335329E+04  0.25500000000E-02 0.  1.
          2   -1    0    0  501    0  0.00000000000E+00 -0.00000000000E+00 -0.51434413574E+03  0.51434413574E+03  0.25500000000E-02 0. -1.
    8880023    1    1    2    0    0  0.37187709650E+03 -0.14461979089E+03 -0.13310295462E+03  0.78149476109E+03  0.65864270000E+03 0. -1.
    8880022    1    1    2    0    0 -0.37187709650E+03  0.14461979089E+03  0.74319235175E+03  0.85728290752E+03  0.15294330000E+03 0.  0.
<mgrwt>
<rscale>  0 0.66464187E+03</rscale>
<asrwt>0</asrwt>
<pdfrwt beam="1">  1        2 0.79129868E-01 0.77007640E+03</pdfrwt>
<pdfrwt beam="2">  1       -2 0.17298977E+00 0.77007640E+03</pdfrwt>
<totfact> 0.12261403E+01</totfact>
</mgrwt>
</event>
<event>
 4    1  0.2051094E-007  0.7120219E+03  0.7818608E-02  0.9950568E-01
         -2   -1    0    0    0  501 -0.00000000000E+00  0.00000000000E+00  0.29129068160E+03  0.29129068161E+03  0.25500000000E-02 0.  1.
          2   -1    0    0  501    0  0.00000000000E+00 -0.00000000000E+00 -0.20513986691E+04  0.20513986691E+04  0.25500000000E-02 0. -1.
    8880023    1    1    2    0    0  0.21018190461E+03  0.17026041761E+03 -0.18794664887E+04  0.20098182831E+04  0.65864270000E+03 0. -1.
    8880022    1    1    2    0    0 -0.21018190461E+03 -0.17026041761E+03  0.11935850118E+03  0.33287106760E+03  0.15294330000E+03 0.  0.
<mgrwt>
<rscale>  0 0.57871912E+03</rscale>
<asrwt>0</asrwt>
<pdfrwt beam="1">  1        2 0.31559979E+00 0.71202194E+03</pdfrwt>
<pdfrwt beam="2">  1       -2 0.44813952E-01 0.71202194E+03</pdfrwt>
<totfact> 0.30682186E+01</totfact>
</mgrwt>
</event>
<event>
 4    1  0.2051094E-007  0.1090447E+04  0.7818608E-02  0.9271767E-01
          2   -1    0    0  501    0  0.00000000000E+00  0.00000000000E+00  0.37143400687E+04  0.37143400687E+04  0.25500000000E-02 0. -1.
         -2   -1    0    0    0  501 -0.00000000000E+00 -0.00000000000E+00 -0.82912102432E+03  0.82912102433E+03  0.25500000000E-02 0.  1.
    8880023    1    1    2    0    0 -0.86585865530E+03 -0.74526729689E+02  0.33662412691E+04  0.35384538901E+04  0.65864270000E+03 0.  0.
    8880022    1    1    2    0    0  0.86585865530E+03  0.74526729689E+02 -0.48102222466E+03  0.10050072030E+04  0.15294330000E+03 0.  0.
<mgrwt>
<rscale>  0 0.10342412E+04</rscale>
<asrwt>0</asrwt>
<pdfrwt beam="1">  1        2 0.57143694E+00 0.10904475E+04</pdfrwt>
<pdfrwt beam="2">  1       -2 0.12755708E+00 0.10904475E+04</pdfrwt>
<totfact> 0.26499159E-01</totfact>
</mgrwt>
</event>
<event>
 4    1  0.2051094E-007  0.1551139E+04  0.7818608E-02  0.8874344E-01
         -2   -1    0    0    0  501 -0.00000000000E+00  0.00000000000E+00  0.16744943944E+04  0.16744943944E+04  0.25500000000E-02 0.  1.
          2   -1    0    0  501    0  0.00000000000E+00 -0.00000000000E+00 -0.14163934106E+04  0.14163934106E+04  0.25500000000E-02 0. -1.
    8880023    1    1    2    0    0  0.99997444331E+03 -0.98603876704E+03 -0.28559359879E+03  0.15772112247E+04  0.65864270000E+03 0. -1.
    8880022    1    1    2    0    0 -0.99997444331E+03  0.98603876704E+03  0.54369458260E+03  0.15136765802E+04  0.15294330000E+03 0.  0.
<mgrwt>
<rscale>  0 0.15152962E+04</rscale>
<asrwt>0</asrwt>
<pdfrwt beam="1">  1        2 0.21790668E+00 0.15511388E+04</pdfrwt>
<pdfrwt beam="2">  1       -2 0.25761452E+00 0.15511388E+04</pdfrwt>
<totfact> 0.76543737E-01</totfact>
</mgrwt>
</event>
<event>
 4    1  0.2051094E-007  0.8114915E+03  0.7818608E-02  0.9686478E-01
         -2   -1    0    0    0  501 -0.00000000000E+00  0.00000000000E+00  0.52110012639E+03  0.52110012640E+03  0.25500000000E-02 0.  1.
          2   -1    0    0  501    0  0.00000000000E+00 -0.00000000000E+00 -0.11716094817E+04  0.11716094818E+04  0.25500000000E-02 0. -1.
    8880023    1    1    2    0    0 -0.38611014823E+03  0.27500410666E+03 -0.83234402872E+03  0.11624607923E+04  0.65864270000E+03 0.  0.
    8880022    1    1    2    0    0  0.38611014823E+03 -0.27500410666E+03  0.18183467337E+03  0.53024881584E+03  0.15294330000E+03 0.  0.
<mgrwt>
<rscale>  0 0.71827596E+03</rscale>
<asrwt>0</asrwt>
<pdfrwt beam="1">  1        2 0.18024761E+00 0.81149154E+03</pdfrwt>
<pdfrwt beam="2">  1       -2 0.80169250E-01 0.81149154E+03</pdfrwt>
<totfact> 0.27430028E+01</totfact>
</mgrwt>
</event>
<event>
 4    1  0.2051094E-007  0.7500844E+03  0.7818608E-02  0.9831489E-01
          2   -1    0    0  501    0  0.00000000000E+00  0.00000000000E+00  0.64886892901E+03  0.64886892902E+03  0.25500000000E-02 0. -1.
         -2   -1    0    0    0  501 -0.00000000000E+00 -0.00000000000E+00 -0.53964645624E+03  0.53964645625E+03  0.25500000000E-02 0.  1.
    8880023    1    1    2    0    0  0.35628933331E+03  0.43293908213E+02 -0.81051032510E+02  0.75445074568E+03  0.65864270000E+03 0.  0.
    8880022    1    1    2    0    0 -0.35628933331E+03 -0.43293908213E+02  0.19027350528E+03  0.43406463959E+03  0.15294330000E+03 0.  1.
<mgrwt>
<rscale>  0 0.63699693E+03</rscale>
<asrwt>0</asrwt>
<pdfrwt beam="1">  1        2 0.99825989E-01 0.75008443E+03</pdfrwt>
<pdfrwt beam="2">  1       -2 0.83022532E-01 0.75008443E+03</pdfrwt>
<totfact> 0.57989245E+01</totfact>
</mgrwt>
</event>
<event>
 4    1  0.2051094E-007  0.7368817E+03  0.7818608E-02  0.9869125E-01
         -2   -1    0    0    0  501 -0.00000000000E+00  0.00000000000E+00  0.63198701279E+03  0.63198701280E+03  0.25500000000E-02 0.  1.
          2   -1    0    0  501    0  0.00000000000E+00 -0.00000000000E+00 -0.20067310319E+04  0.20067310319E+04  0.25500000000E-02 0. -1.
    8880023    1    1    2    0    0 -0.16862340905E+03 -0.28416656069E+03 -0.18780928209E+04  0.20174804432E+04  0.65864270000E+03 0. -1.
    8880022    1    1    2    0    0  0.16862340905E+03  0.28416656069E+03  0.50334880180E+03  0.62123760155E+03  0.15294330000E+03 0.  0.
<mgrwt>
<rscale>  0 0.61781225E+03</rscale>
<asrwt>0</asrwt>
<pdfrwt beam="1">  1        2 0.30872785E+00 0.73688174E+03</pdfrwt>
<pdfrwt beam="2">  1       -2 0.97228772E-01 0.73688174E+03</pdfrwt>
<totfact> 0.60703858E+00</totfact>
</mgrwt>
</event>
<event>
 4    1  0.2051094E-007  0.8333617E+03  0.7818608E-02  0.9642827E-01
          2   -1    0    0  501    0  0.00000000000E+00  0.00000000000E+00  0.29602028984E+04  0.29602028984E+04  0.25500000000E-02 0. -1.
         -2   -1    0    0    0  501 -0.00000000000E+00 -0.00000000000E+00 -0.32761731023E+03  0.32761731024E+03  0.25500000000E-02 0.  1.
    8880023    1    1    2    0    0 -0.31948622275E+03 -0.39825887571E+03  0.26257151661E+04  0.27547907214E+04  0.65864270000E+03 0.  0.
    8880022    1    1    2    0    0  0.31948622275E+03  0.39825887571E+03  0.68704220479E+01  0.53302948729E+03  0.15294330000E+03 0.  0.
<mgrwt>
<rscale>  0 0.74525338E+03</rscale>
<asrwt>0</asrwt>
<pdfrwt beam="1">  1        2 0.45541584E+00 0.83336174E+03</pdfrwt>
<pdfrwt beam="2">  1       -2 0.50402662E-01 0.83336174E+03</pdfrwt>
<totfact> 0.71934892E+00</totfact>
</mgrwt>
</event>
<event>
 4    1  0.2051094E-007  0.1098645E+04  0.7818608E-02  0.9262566E-01
         -2   -1    0    0    0  501 -0.00000000000E+00  0.00000000000E+00  0.95146089072E+03  0.95146089072E+03  0.25500000000E-02 0.  1.
          2   -1    0    0  501    0  0.00000000000E+00 -0.00000000000E+00 -0.16085625867E+04  0.16085625867E+04  0.25500000000E-02 0. -1.
    8880023    1    1    2    0    0  0.39555110063E+03  0.78533399865E+03  0.40660495365E+03  0.11714725593E+04  0.65864270000E+03 0. -1.
    8880022    1    1    2    0    0 -0.39555110063E+03 -0.78533399865E+03 -0.10637066496E+04  0.13885509181E+04  0.15294330000E+03 0.  1.
<mgrwt>
<rscale>  0 0.10430332E+04</rscale>
<asrwt>0</asrwt>
<pdfrwt beam="1">  1        2 0.24747117E+00 0.10986448E+04</pdfrwt>
<pdfrwt beam="2">  1       -2 0.14637860E+00 0.10986448E+04</pdfrwt>
<totfact> 0.34637078E+00</totfact>
</mgrwt>
</event>
<event>
 4    1  0.2051094E-007  0.8868025E+03  0.7818608E-02  0.9547559E-01
          2   -1    0    0  501    0  0.00000000000E+00  0.00000000000E+00  0.11307507049E+04  0.11307507049E+04  0.25500000000E-02 0. -1.
         -2   -1    0    0    0  501 -0.00000000000E+00 -0.00000000000E+00 -0.58979960345E+03  0.58979960345E+03  0.25500000000E-02 0.  1.
    8880023    1    1    2    0    0 -0.54789139791E+03 -0.22896190271E+03 -0.23509449348E+02  0.88711410611E+03  0.65864270000E+03 0.  0.
    8880022    1    1    2    0    0  0.54789139791E+03  0.22896190271E+03  0.56446055082E+03  0.83343620227E+03  0.15294330000E+03 0.  0.
<mgrwt>
<rscale>  0 0.80866511E+03</rscale>
<asrwt>0</asrwt>
<pdfrwt beam="1">  1        2 0.17396165E+00 0.88680254E+03</pdfrwt>
<pdfrwt beam="2">  1       -2 0.90738401E-01 0.88680254E+03</pdfrwt>
<totfact> 0.21726294E+01</totfact>
</mgrwt>
</event>
<event>
 4    1  0.2051094E-007  0.8530668E+03  0.7818608E-02  0.9606017E-01
          2   -1    0    0  501    0  0.00000000000E+00  0.00000000000E+00  0.35776029829E+04  0.35776029829E+04  0.25500000000E-02 0. -1.
         -2   -1    0    0    0  501 -0.00000000000E+00 -0.00000000000E+00 -0.42544360179E+03  0.42544360180E+03  0.25500000000E-02 0.  1.
    8880023    1    1    2    0    0  0.31929728869E+03 -0.43813470547E+03  0.33099125499E+04  0.34180760777E+04  0.65864270000E+03 0.  0.
    8880022    1    1    2    0    0 -0.31929728869E+03  0.43813470547E+03 -0.15775316884E+03  0.58497050694E+03  0.15294330000E+03 0.  0.
<mgrwt>
<rscale>  0 0.76899196E+03</rscale>
<asrwt>0</asrwt>
<pdfrwt beam="1">  1        2 0.55040046E+00 0.85306681E+03</pdfrwt>
<pdfrwt beam="2">  1       -2 0.65452862E-01 0.85306681E+03</pdfrwt>
<totfact> 0.16444070E+00</totfact>
</mgrwt>
</event>
<event>
 4    1  0.2051094E-007  0.1017576E+04  0.7818608E-02  0.9358916E-01
         -2   -1    0    0    0  501 -0.00000000000E+00  0.00000000000E+00  0.69297543110E+03  0.69297543111E+03  0.25500000000E-02 0.  1.
          2   -1    0    0  501    0  0.00000000000E+00 -0.00000000000E+00 -0.13384220234E+04  0.13384220234E+04  0.25500000000E-02 0. -1.
    8880023    1    1    2    0    0  0.64131499665E+03 -0.43630922467E+03 -0.70596876253E+03  0.12384880962E+04  0.65864270000E+03 0. -1.
    8880022    1    1    2    0    0 -0.64131499665E+03  0.43630922467E+03  0.60522170204E+02  0.79290935835E+03  0.15294330000E+03 0.  0.
<mgrwt>
<rscale>  0 0.95535287E+03</rscale>
<asrwt>0</asrwt>
<pdfrwt beam="1">  1        2 0.20591108E+00 0.10175760E+04</pdfrwt>
<pdfrwt beam="2">  1       -2 0.10661160E+00 0.10175760E+04</pdfrwt>
<totfact> 0.11042984E+01</totfact>
</mgrwt>
</event>
<event>
 4    1  0.2051094E-007  0.6740346E+03  0.7818608E-02  0.1012922E+00
          2   -1    0    0  501    0  0.00000000000E+00  0.00000000000E+00  0.99261086768E+03  0.99261086769E+03  0.25500000000E-02 0. -1.
         -2   -1    0    0    0  501 -0.00000000000E+00 -0.00000000000E+00 -0.18634452533E+04  0.18634452533E+04  0.25500000000E-02 0.  1.
    8880023    1    1    2    0    0 -0.13233724750E+03  0.54765882383E+02  0.87117820849E+03  0.11014872338E+04  0.65864270000E+03 0. -1.
    8880022    1    1    2    0    0  0.13233724750E+03 -0.54765882383E+02 -0.17420125941E+04  0.17545688872E+04  0.15294330000E+03 0.  0.
<mgrwt>
<rscale>  0 0.50329751E+03</rscale>
<asrwt>0</asrwt>
<pdfrwt beam="1">  1        2 0.15270937E+00 0.67403461E+03</pdfrwt>
<pdfrwt beam="2">  1       -2 0.28668388E+00 0.67403461E+03</pdfrwt>
<totfact> 0.10336600E+00</totfact>
</mgrwt>
</event>
<event>
 4    1  0.2051094E-007  0.1163364E+04  0.7818608E-02  0.9193585E-01
          2   -1    0    0  501    0  0.00000000000E+00  0.00000000000E+00  0.15931416226E+04  0.15931416226E+04  0.25500000000E-02 0. -1.
         -2   -1    0    0    0  501 -0.00000000000E+00 -0.00000000000E+00 -0.94179876737E+03  0.94179876737E+03  0.25500000000E-02 0.  1.
    8880023    1    1    2    0    0  0.54020077720E+03 -0.79233085815E+03  0.96812163411E+03  0.15134975299E+04  0.65864270000E+03 0.  0.
    8880022    1    1    2    0    0 -0.54020077720E+03  0.79233085815E+03 -0.31677877891E+03  0.10214428600E+04  0.15294330000E+03 0.  0.
<mgrwt>
<rscale>  0 0.11119888E+04</rscale>
<asrwt>0</asrwt>
<pdfrwt beam="1">  1        2 0.24509871E+00 0.11633638E+04</pdfrwt>
<pdfrwt beam="2">  1       -2 0.14489212E+00 0.11633638E+04</pdfrwt>
<totfact> 0.36052214E+00</totfact>
</mgrwt>
</event>
<event>
 4    1  0.2051094E-007  0.8415410E+03  0.7818608E-02  0.9627281E-01
         -2   -1    0    0    0  501 -0.00000000000E+00  0.00000000000E+00  0.67535448240E+03  0.67535448241E+03  0.25500000000E-02 0.  1.
          2   -1    0    0  501    0  0.00000000000E+00 -0.00000000000E+00 -0.19807989676E+04  0.19807989676E+04  0.25500000000E-02 0. -1.
    8880023    1    1    2    0    0  0.11917856342E+03 -0.51007603941E+03 -0.17568216841E+04  0.19479768304E+04  0.65864270000E+03 0.  0.
    8880022    1    1    2    0    0 -0.11917856342E+03  0.51007603941E+03  0.45137719883E+03  0.70817661964E+03  0.15294330000E+03 0.  0.
<mgrwt>
<rscale>  0 0.75516541E+03</rscale>
<asrwt>0</asrwt>
<pdfrwt beam="1">  1        2 0.30473830E+00 0.84154103E+03</pdfrwt>
<pdfrwt beam="2">  1       -2 0.10390069E+00 0.84154103E+03</pdfrwt>
<totfact> 0.52712133E+00</totfact>
</mgrwt>
</event>
<event>
 4    1  0.2051094E-007  0.6908938E+03  0.7818608E-02  0.1003731E+00
         -2   -1    0    0    0  501 -0.00000000000E+00  0.00000000000E+00  0.26665183742E+03  0.26665183744E+03  0.25500000000E-02 0.  1.
          2   -1    0    0  501    0  0.00000000000E+00 -0.00000000000E+00 -0.15899285286E+04  0.15899285286E+04  0.25500000000E-02 0. -1.
    8880023    1    1    2    0    0  0.12743598206E+03 -0.16517916125E+03 -0.14210006274E+04  0.15800560352E+04  0.65864270000E+03 0. -1.
    8880022    1    1    2    0    0 -0.12743598206E+03  0.16517916125E+03  0.97723936255E+02  0.27652433088E+03  0.15294330000E+03 0.  1.
<mgrwt>
<rscale>  0 0.54044253E+03</rscale>
<asrwt>0</asrwt>
<pdfrwt beam="1">  1        2 0.24460438E+00 0.69089383E+03</pdfrwt>
<pdfrwt beam="2">  1       -2 0.41023361E-01 0.69089383E+03</pdfrwt>
<totfact> 0.65377886E+01</totfact>
</mgrwt>
</event>
<event>
 4    1  0.2051094E-007  0.9964202E+03  0.7818608E-02  0.9386256E-01
         -2   -1    0    0    0  501 -0.00000000000E+00  0.00000000000E+00  0.57829137499E+03  0.57829137499E+03  0.25500000000E-02 0.  1.
          2   -1    0    0  501    0  0.00000000000E+00 -0.00000000000E+00 -0.20941576766E+04  0.20941576766E+04  0.25500000000E-02 0. -1.
    8880023    1    1    2    0    0  0.23931269376E+03  0.70835897784E+03 -0.16202993742E+04  0.19021627888E+04  0.65864270000E+03 0.  0.
    8880022    1    1    2    0    0 -0.23931269376E+03 -0.70835897784E+03  0.10443307263E+03  0.77028626273E+03  0.15294330000E+03 0.  0.
<mgrwt>
<rscale>  0 0.93215427E+03</rscale>
<asrwt>0</asrwt>
<pdfrwt beam="1">  1        2 0.32217810E+00 0.99642020E+03</pdfrwt>
<pdfrwt beam="2">  1       -2 0.88967905E-01 0.99642020E+03</pdfrwt>
<totfact> 0.64454250E+00</totfact>
</mgrwt>
</event>
<event>
 4    1  0.2051094E-007  0.9037105E+03  0.7818608E-02  0.9520101E-01
         -2   -1    0    0    0  501 -0.00000000000E+00  0.00000000000E+00  0.27465350972E+03  0.27465350973E+03  0.25500000000E-02 0.  1.
          2   -1    0    0  501    0  0.00000000000E+00 -0.00000000000E+00 -0.32488860614E+04  0.32488860614E+04  0.25500000000E-02 0. -1.
    8880023    1    1    2    0    0 -0.61804415820E+03  0.30065641836E+02 -0.26670208604E+04  0.28159710581E+04  0.65864270000E+03 0. -1.
    8880022    1    1    2    0    0  0.61804415820E+03 -0.30065641836E+02 -0.30721169131E+03  0.70756851300E+03  0.15294330000E+03 0.  0.
<mgrwt>
<rscale>  0 0.82817938E+03</rscale>
<asrwt>0</asrwt>
<pdfrwt beam="1">  1        2 0.49982860E+00 0.90371053E+03</pdfrwt>
<pdfrwt beam="2">  1       -2 0.42254388E-01 0.90371053E+03</pdfrwt>
<totfact> 0.66794683E+00</totfact>
</mgrwt>
</event>
<event>
 4    1  0.2051094E-007  0.7318817E+03  0.7818608E-02  0.9884259E-01
          2   -1    0    0  501    0  0.00000000000E+00  0.00000000000E+00  0.15088835378E+04  0.15088835378E+04  0.25500000000E-02 0. -1.
         -2   -1    0    0    0  501 -0.00000000000E+00 -0.00000000000E+00 -0.26887406985E+03  0.26887406986E+03  0.25500000000E-02 0.  1.
    8880023    1    1    2    0    0 -0.31003287476E+03 -0.75632378152E+02  0.12207718492E+04  0.14233533483E+04  0.65864270000E+03 0. -1.
    8880022    1    1    2    0    0  0.31003287476E+03  0.75632378152E+02  0.19237618748E+02  0.35440425935E+03  0.15294330000E+03 0.  0.
<mgrwt>
<rscale>  0 0.61030259E+03</rscale>
<asrwt>0</asrwt>
<pdfrwt beam="1">  1        2 0.23213593E+00 0.73188172E+03</pdfrwt>
<pdfrwt beam="2">  1       -2 0.41365242E-01 0.73188172E+03</pdfrwt>
<totfact> 0.71005777E+01</totfact>
</mgrwt>
</event>
<event>
 4    1  0.2051094E-007  0.1490862E+04  0.7818608E-02  0.8916115E-01
          2   -1    0    0  501    0  0.00000000000E+00  0.00000000000E+00  0.19152056748E+04  0.19152056748E+04  0.25500000000E-02 0. -1.
         -2   -1    0    0    0  501 -0.00000000000E+00 -0.00000000000E+00 -0.14674695468E+04  0.14674695468E+04  0.25500000000E-02 0.  1.
    8880023    1    1    2    0    0 -0.35679890651E+03  0.12890130094E+04  0.11325959215E+04  0.18722830250E+04  0.65864270000E+03 0.  0.
    8880022    1    1    2    0    0  0.35679890651E+03 -0.12890130094E+04 -0.68485979348E+03  0.15103921967E+04  0.15294330000E+03 0.  0.
<mgrwt>
<rscale>  0 0.14533006E+04</rscale>
<asrwt>0</asrwt>
<pdfrwt beam="1">  1        2 0.29464703E+00 0.14908622E+04</pdfrwt>
<pdfrwt beam="2">  1       -2 0.22576455E+00 0.14908622E+04</pdfrwt>
<totfact> 0.63575708E-01</totfact>
</mgrwt>
</event>
<event>
 4    1  0.2051094E-007  0.8532165E+03  0.7818608E-02  0.9605746E-01
          2   -1    0    0  501    0  0.00000000000E+00  0.00000000000E+00  0.93973127582E+03  0.93973127582E+03  0.25500000000E-02 0. -1.
         -2   -1    0    0    0  501 -0.00000000000E+00 -0.00000000000E+00 -0.14596594713E+04  0.14596594713E+04  0.25500000000E-02 0.  1.
    8880023    1    1    2    0    0  0.53416303702E+03 -0.94011091147E+02  0.66863906971E+03  0.10840002985E+04  0.65864270000E+03 0.  0.
    8880022    1    1    2    0    0 -0.53416303702E+03  0.94011091147E+02 -0.11885672652E+04  0.13153904486E+04  0.15294330000E+03 0.  0.
<mgrwt>
<rscale>  0 0.76917055E+03</rscale>
<asrwt>0</asrwt>
<pdfrwt beam="1">  1        2 0.14457404E+00 0.85321653E+03</pdfrwt>
<pdfrwt beam="2">  1       -2 0.22456300E+00 0.85321653E+03</pdfrwt>
<totfact> 0.25825679E+00</totfact>
</mgrwt>
</event>
<event>
 4    1  0.2051094E-007  0.1303189E+04  0.7818608E-02  0.9062811E-01
         -2   -1    0    0    0  501 -0.00000000000E+00  0.00000000000E+00  0.20247604080E+04  0.20247604080E+04  0.25500000000E-02 0.  1.
          2   -1    0    0  501    0  0.00000000000E+00 -0.00000000000E+00 -0.75662853368E+03  0.75662853369E+03  0.25500000000E-02 0. -1.
    8880023    1    1    2    0    0 -0.75230161897E+03 -0.83578349159E+03  0.43615282619E+03  0.13742384308E+04  0.65864270000E+03 0.  0.
    8880022    1    1    2    0    0  0.75230161897E+03  0.83578349159E+03  0.83197904817E+03  0.14071505109E+04  0.15294330000E+03 0.  0.
<mgrwt>
<rscale>  0 0.12588969E+04</rscale>
<asrwt>0</asrwt>
<pdfrwt beam="1">  1        2 0.11640439E+00 0.13031892E+04</pdfrwt>
<pdfrwt beam="2">  1       -2 0.31150160E+00 0.13031892E+04</pdfrwt>
<totfact> 0.97307401E-01</totfact>
</mgrwt>
</event>
<event>
 4    1  0.2051094E-007  0.8339005E+03  0.7818608E-02  0.9641790E-01
          2   -1    0    0  501    0  0.00000000000E+00  0.00000000000E+00  0.40225273514E+04  0.40225273514E+04  0.25500000000E-02 0. -1.
         -2   -1    0    0    0  501 -0.00000000000E+00 -0.00000000000E+00 -0.69387131455E+03  0.69387131456E+03  0.25500000000E-02 0.  1.
    8880023    1    1    2    0    0  0.38704595882E+03 -0.33432819305E+03  0.38683984482E+04  0.39572587324E+04  0.65864270000E+03 0.  0.
    8880022    1    1    2    0    0 -0.38704595882E+03  0.33432819305E+03 -0.53974241142E+03  0.75913993348E+03  0.15294330000E+03 0.  0.
<mgrwt>
<rscale>  0 0.74590907E+03</rscale>
<asrwt>0</asrwt>
<pdfrwt beam="1">  1        2 0.61885036E+00 0.83390055E+03</pdfrwt>
<pdfrwt beam="2">  1       -2 0.10674943E+00 0.83390055E+03</pdfrwt>
<totfact> 0.25288953E-01</totfact>
</mgrwt>
</event>
<event>
 4    1  0.2051094E-007  0.1043137E+04  0.7818608E-02  0.9327177E-01
         -2   -1    0    0    0  501 -0.00000000000E+00  0.00000000000E+00  0.63376724042E+03  0.63376724042E+03  0.25500000000E-02 0.  1.
          2   -1    0    0  501    0  0.00000000000E+00 -0.00000000000E+00 -0.38492975104E+04  0.38492975104E+04  0.25500000000E-02 0. -1.
    8880023    1    1    2    0    0  0.78310698935E+03  0.20265484112E+03 -0.34683990737E+04  0.36218680100E+04  0.65864270000E+03 0.  0.
    8880022    1    1    2    0    0 -0.78310698935E+03 -0.20265484112E+03  0.25286880373E+03  0.86119674077E+03  0.15294330000E+03 0.  0.
<mgrwt>
<rscale>  0 0.98318947E+03</rscale>
<asrwt>0</asrwt>
<pdfrwt beam="1">  1        2 0.59219960E+00 0.10431375E+04</pdfrwt>
<pdfrwt beam="2">  1       -2 0.97502655E-01 0.10431375E+04</pdfrwt>
<totfact> 0.40934287E-01</totfact>
</mgrwt>
</event>
<event>
 4    1  0.2051094E-007  0.1459117E+04  0.7818608E-02  0.8939057E-01
          2   -1    0    0  501    0  0.00000000000E+00  0.00000000000E+00  0.19996813296E+04  0.19996813296E+04  0.25500000000E-02 0. -1.
         -2   -1    0    0    0  501 -0.00000000000E+00 -0.00000000000E+00 -0.12952926769E+04  0.12952926769E+04  0.25500000000E-02 0.  1.
    8880023    1    1    2    0    0  0.13008406089E+04 -0.55013374385E+02  0.12043160258E+04  0.18919302465E+04  0.65864270000E+03 0. -1.
    8880022    1    1    2    0    0 -0.13008406089E+04  0.55013374385E+02 -0.49992737314E+03  0.14030437601E+04  0.15294330000E+03 0.  0.
<mgrwt>
<rscale>  0 0.14205765E+04</rscale>
<asrwt>0</asrwt>
<pdfrwt beam="1">  1        2 0.30764328E+00 0.14591172E+04</pdfrwt>
<pdfrwt beam="2">  1       -2 0.19927580E+00 0.14591172E+04</pdfrwt>
<totfact> 0.84785793E-01</totfact>
</mgrwt>
</event>
<event>
 4    1  0.2051094E-007  0.9749250E+03  0.7818608E-02  0.9415125E-01
          2   -1    0    0  501    0  0.00000000000E+00  0.00000000000E+00  0.34916877916E+04  0.34916877916E+04  0.25500000000E-02 0. -1.
         -2   -1    0    0    0  501 -0.00000000000E+00 -0.00000000000E+00 -0.22307856144E+03  0.22307856146E+03  0.25500000000E-02 0.  1.
    8880023    1    1    2    0    0  0.90478267410E+02  0.71307940729E+03  0.13925254411E+04  0.16998840749E+04  0.65864270000E+03 0.  1.
    8880022    1    1    2    0    0 -0.90478267410E+02 -0.71307940729E+03  0.18760837891E+04  0.20148822781E+04  0.15294330000E+03 0.  0.
<mgrwt>
<rscale>  0 0.90841371E+03</rscale>
<asrwt>0</asrwt>
<pdfrwt beam="1">  1        2 0.53718272E+00 0.97492500E+03</pdfrwt>
<pdfrwt beam="2">  1       -2 0.34319780E-01 0.97492500E+03</pdfrwt>
<totfact> 0.68176623E+00</totfact>
</mgrwt>
</event>
<event>
 4    1  0.2051094E-007  0.1608492E+04  0.7818608E-02  0.8836597E-01
          2   -1    0    0  501    0  0.00000000000E+00  0.00000000000E+00  0.17592730747E+04  0.17592730747E+04  0.25500000000E-02 0. -1.
         -2   -1    0    0    0  501 -0.00000000000E+00 -0.00000000000E+00 -0.14657246629E+04  0.14657246629E+04  0.25500000000E-02 0.  1.
    8880023    1    1    2    0    0  0.14409999613E+04 -0.27740739876E+03  0.60242809492E+03  0.17176046021E+04  0.65864270000E+03 0.  0.
    8880022    1    1    2    0    0 -0.14409999613E+04  0.27740739876E+03 -0.30887968313E+03  0.15073931355E+04  0.15294330000E+03 0.  0.
<mgrwt>
<rscale>  0 0.15741356E+04</rscale>
<asrwt>0</asrwt>
<pdfrwt beam="1">  1        2 0.27065740E+00 0.16084918E+04</pdfrwt>
<pdfrwt beam="2">  1       -2 0.22549610E+00 0.16084918E+04</pdfrwt>
<totfact> 0.77094148E-01</totfact>
</mgrwt>
</event>
<event>
 4    1  0.2051094E-007  0.9509202E+03  0.7818608E-02  0.9448791E-01
         -2   -1    0    0    0  501 -0.00000000000E+00  0.00000000000E+00  0.17235266259E+04  0.17235266259E+04  0.25500000000E-02 0.  1.
          2   -1    0    0  501    0  0.00000000000E+00 -0.00000000000E+00 -0.11437807953E+04  0.11437807953E+04  0.25500000000E-02 0. -1.
    8880023    1    1    2    0    0  0.55017578154E+03 -0.40956770547E+03 -0.84920392896E+03  0.12749104342E+04  0.65864270000E+03 0. -1.
    8880022    1    1    2    0    0 -0.55017578154E+03  0.40956770547E+03  0.14289497596E+04  0.15923969870E+04  0.15294330000E+03 0.  0.
<mgrwt>
<rscale>  0 0.88166852E+03</rscale>
<asrwt>0</asrwt>
<pdfrwt beam="1">  1        2 0.17596628E+00 0.95092024E+03</pdfrwt>
<pdfrwt beam="2">  1       -2 0.26515794E+00 0.95092024E+03</pdfrwt>
<totfact> 0.10687526E+00</totfact>
</mgrwt>
</event>
<event>
 4    1  0.2051094E-007  0.7121351E+03  0.7818608E-02  0.9950156E-01
          2   -1    0    0  501    0  0.00000000000E+00  0.00000000000E+00  0.77590907867E+03  0.77590907867E+03  0.25500000000E-02 0. -1.
         -2   -1    0    0    0  501 -0.00000000000E+00 -0.00000000000E+00 -0.47074955340E+03  0.47074955341E+03  0.25500000000E-02 0.  1.
    8880023    1    1    2    0    0 -0.11469007778E+03 -0.24530064082E+03  0.50853503546E+03  0.87506817271E+03  0.65864270000E+03 0. -1.
    8880022    1    1    2    0    0  0.11469007778E+03  0.24530064082E+03 -0.20337551020E+03  0.37159045937E+03  0.15294330000E+03 0.  0.
<mgrwt>
<rscale>  0 0.57890879E+03</rscale>
<asrwt>0</asrwt>
<pdfrwt beam="1">  1        2 0.11937063E+00 0.71213512E+03</pdfrwt>
<pdfrwt beam="2">  1       -2 0.72423009E-01 0.71213512E+03</pdfrwt>
<totfact> 0.62877242E+01</totfact>
</mgrwt>
</event>
<event>
 4    1  0.2051094E-007  0.1852145E+04  0.7818608E-02  0.8694227E-01
         -2   -1    0    0    0  501 -0.00000000000E+00  0.00000000000E+00  0.12244293022E+04  0.12244293022E+04  0.25500000000E-02 0.  1.
          2   -1    0    0  501    0  0.00000000000E+00 -0.00000000000E+00 -0.32612111012E+04  0.32612111012E+04  0.25500000000E-02 0. -1.
    8880023    1    1    2    0    0 -0.14194168475E+04  0.99090229047E+03 -0.20297758421E+04  0.27478048897E+04  0.65864270000E+03 0.  0.
    8880022    1    1    2    0    0  0.14194168475E+04 -0.99090229047E+03 -0.70059568839E+01  0.17378355137E+04  0.15294330000E+03 0.  0.
<mgrwt>
<rscale>  0 0.18228778E+04</rscale>
<asrwt>0</asrwt>
<pdfrwt beam="1">  1        2 0.50172478E+00 0.18521452E+04</pdfrwt>
<pdfrwt beam="2">  1       -2 0.18837374E+00 0.18521452E+04</pdfrwt>
<totfact> 0.17069780E-01</totfact>
</mgrwt>
</event>
<event>
 4    1  0.2051094E-007  0.1474942E+04  0.7818608E-02  0.8927536E-01
          2   -1    0    0  501    0  0.00000000000E+00  0.00000000000E+00  0.23204984656E+04  0.23204984656E+04  0.25500000000E-02 0. -1.
         -2   -1    0    0    0  501 -0.00000000000E+00 -0.00000000000E+00 -0.87252526614E+03  0.87252526615E+03  0.25500000000E-02 0.  1.
    8880023    1    1    2    0    0 -0.10713642373E+04  0.77059918684E+03  0.10347005778E+04  0.18016825268E+04  0.65864270000E+03 0.  0.
    8880022    1    1    2    0    0  0.10713642373E+04 -0.77059918684E+03  0.41327262169E+03  0.13913412049E+04  0.15294330000E+03 0.  0.
<mgrwt>
<rscale>  0 0.14368964E+04</rscale>
<asrwt>0</asrwt>
<pdfrwt beam="1">  1        2 0.35699976E+00 0.14749423E+04</pdfrwt>
<pdfrwt beam="2">  1       -2 0.13423466E+00 0.14749423E+04</pdfrwt>
<totfact> 0.16768003E+00</totfact>
</mgrwt>
</event>
<event>
 4    1  0.2051094E-007  0.8592332E+03  0.7818608E-02  0.9594929E-01
         -2   -1    0    0    0  501 -0.00000000000E+00  0.00000000000E+00  0.22910563291E+03  0.22910563293E+03  0.25500000000E-02 0.  1.
          2   -1    0    0  501    0  0.00000000000E+00 -0.00000000000E+00 -0.22874564609E+04  0.22874564609E+04  0.25500000000E-02 0. -1.
    8880023    1    1    2    0    0  0.52491269826E+03  0.17011225296E+03 -0.14136730260E+04  0.16543134981E+04  0.65864270000E+03 0.  1.
    8880022    1    1    2    0    0 -0.52491269826E+03 -0.17011225296E+03 -0.64467780204E+03  0.86224859575E+03  0.15294330000E+03 0.  0.
<mgrwt>
<rscale>  0 0.77632733E+03</rscale>
<asrwt>0</asrwt>
<pdfrwt beam="1">  1        2 0.35191636E+00 0.85923322E+03</pdfrwt>
<pdfrwt beam="2">  1       -2 0.35247022E-01 0.85923322E+03</pdfrwt>
<totfact> 0.35645469E+01</totfact>
</mgrwt>
</event>
<event>
 4    1  0.2051094E-007  0.8249328E+03  0.7818608E-02  0.9659273E-01
          2   -1    0    0  501    0  0.00000000000E+00  0.00000000000E+00  0.12636989515E+04  0.12636989515E+04  0.25500000000E-02 0. -1.
         -2   -1    0    0    0  501 -0.00000000000E+00 -0.00000000000E+00 -0.48699675444E+03  0.48699675445E+03  0.25500000000E-02 0.  1.
    8880023    1    1    2    0    0  0.38837496715E+03  0.30962695410E+03  0.89553229001E+03  0.12175763855E+04  0.65864270000E+03 0.  0.
    8880022    1    1    2    0    0 -0.38837496715E+03 -0.30962695410E+03 -0.11883009297E+03  0.53311932044E+03  0.15294330000E+03 0. -1.
<mgrwt>
<rscale>  0 0.73494296E+03</rscale>
<asrwt>0</asrwt>
<pdfrwt beam="1">  1        2 0.19441522E+00 0.82493283E+03</pdfrwt>
<pdfrwt beam="2">  1       -2 0.74922579E-01 0.82493283E+03</pdfrwt>
<totfact> 0.28116865E+01</totfact>
</mgrwt>
</event>
<event>
 4    1  0.2051094E-007  0.7975349E+03  0.7818608E-02  0.9716152E-01
          2   -1    0    0  501    0  0.00000000000E+00  0.00000000000E+00  0.21857086217E+04  0.21857086217E+04  0.25500000000E-02 0. -1.
         -2   -1    0    0    0  501 -0.00000000000E+00 -0.00000000000E+00 -0.30770972761E+03  0.30770972762E+03  0.25500000000E-02 0.  1.
    8880023    1    1    2    0    0  0.43582754270E+03 -0.11093265469E+03  0.18534606434E+04  0.20177656613E+04  0.65864270000E+03 0.  0.
    8880022    1    1    2    0    0 -0.43582754270E+03  0.11093265469E+03  0.24538250629E+02  0.47565268801E+03  0.15294330000E+03 0.  0.
<mgrwt>
<rscale>  0 0.70063219E+03</rscale>
<asrwt>0</asrwt>
<pdfrwt beam="1">  1        2 0.33626285E+00 0.79753489E+03</pdfrwt>
<pdfrwt beam="2">  1       -2 0.47339960E-01 0.79753489E+03</pdfrwt>
<totfact> 0.22934019E+01</totfact>
</mgrwt>
</event>
<event>
 4    1  0.2051094E-007  0.9041483E+03  0.7818608E-02  0.9519405E-01
          2   -1    0    0  501    0  0.00000000000E+00  0.00000000000E+00  0.32304035075E+04  0.32304035075E+04  0.25500000000E-02 0. -1.
         -2   -1    0    0    0  501 -0.00000000000E+00 -0.00000000000E+00 -0.18607183662E+03  0.18607183664E+03  0.25500000000E-02 0.  1.
    8880023    1    1    2    0    0 -0.48427188917E+03 -0.38620541470E+03  0.16067423585E+04  0.18436662110E+04  0.65864270000E+03 0. -1.
    8880022    1    1    2    0    0  0.48427188917E+03  0.38620541470E+03  0.14375893125E+04  0.15728091331E+04  0.15294330000E+03 0.  0.
<mgrwt>
<rscale>  0 0.82868177E+03</rscale>
<asrwt>0</asrwt>
<pdfrwt beam="1">  1        2 0.49698514E+00 0.90414827E+03</pdfrwt>
<pdfrwt beam="2">  1       -2 0.28626437E-01 0.90414827E+03</pdfrwt>
<totfact> 0.14437803E+01</totfact>
</mgrwt>
</event>
<event>
 4    1  0.2294886E-007  0.6657721E+03  0.7818608E-02  0.1018894E+00
         -2   -1    0    0    0  501 -0.00000000000E+00  0.00000000000E+00  0.10050550084E+04  0.10050550084E+04  0.25500000000E-02 0.  1.
          2   -1    0    0  501    0  0.00000000000E+00 -0.00000000000E+00 -0.17591791367E+04  0.17591791367E+04  0.25500000000E-02 0. -1.
    8880023    1    1    2    0    0  0.63491570966E+02  0.73559773121E+02 -0.16871579223E+04  0.18137679787E+04  0.65864270000E+03 0. -1.
    8880022    1    1    2    0    0 -0.63491570966E+02 -0.73559773121E+02  0.93303379389E+03  0.95046616635E+03  0.15294330000E+03 0.  0.
<mgrwt>
<rscale>  0 0.48087747E+03</rscale>
<asrwt>0</asrwt>
<pdfrwt beam="1">  1        2 0.27064294E+00 0.66577205E+03</pdfrwt>
<pdfrwt beam="2">  1       -2 0.15462385E+00 0.66577205E+03</pdfrwt>
<totfact> 0.26343180E+00</totfact>
</mgrwt>
</event>
<event>
 4    1  0.2051094E-007  0.9149849E+03  0.7818608E-02  0.9502392E-01
          2   -1    0    0  501    0  0.00000000000E+00  0.00000000000E+00  0.17940708086E+04  0.17940708086E+04  0.25500000000E-02 0. -1.
         -2   -1    0    0    0  501 -0.00000000000E+00 -0.00000000000E+00 -0.37304752982E+03  0.37304752983E+03  0.25500000000E-02 0.  1.
    8880023    1    1    2    0    0  0.44686384055E+02  0.63355374030E+03  0.11244051706E+04  0.14496497538E+04  0.65864270000E+03 0.  0.
    8880022    1    1    2    0    0 -0.44686384055E+02 -0.63355374030E+03  0.29661810811E+03  0.71746858457E+03  0.15294330000E+03 0.  0.
<mgrwt>
<rscale>  0 0.84107712E+03</rscale>
<asrwt>0</asrwt>
<pdfrwt beam="1">  1        2 0.27601089E+00 0.91498493E+03</pdfrwt>
<pdfrwt beam="2">  1       -2 0.57391928E-01 0.91498493E+03</pdfrwt>
<totfact> 0.24970583E+01</totfact>
</mgrwt>
</event>
<event>
 4    1  0.2051094E-007  0.6706304E+03  0.7818608E-02  0.1015215E+00
          2   -1    0    0  501    0  0.00000000000E+00  0.00000000000E+00  0.12826215099E+04  0.12826215099E+04  0.25500000000E-02 0. -1.
         -2   -1    0    0    0  501 -0.00000000000E+00 -0.00000000000E+00 -0.81471404587E+03  0.81471404588E+03  0.25500000000E-02 0.  1.
    8880023    1    1    2    0    0  0.12211376093E+03  0.31986741079E+02  0.11804849098E+04  0.13576780733E+04  0.65864270000E+03 0. -1.
    8880022    1    1    2    0    0 -0.12211376093E+03 -0.31986741079E+02 -0.71257744575E+03  0.73965748250E+03  0.15294330000E+03 0.  0.
<mgrwt>
<rscale>  0 0.49453632E+03</rscale>
<asrwt>0</asrwt>
<pdfrwt beam="1">  1        2 0.19732639E+00 0.67063040E+03</pdfrwt>
<pdfrwt beam="2">  1       -2 0.12534062E+00 0.67063040E+03</pdfrwt>
<totfact> 0.83233686E+00</totfact>
</mgrwt>
</event>
<event>
 4    1  0.2051094E-007  0.6630934E+03  0.7818608E-02  0.1021189E+00
         -2   -1    0    0    0  501 -0.00000000000E+00  0.00000000000E+00  0.12293254280E+03  0.12293254282E+03  0.25500000000E-02 0.  1.
          2   -1    0    0  501    0  0.00000000000E+00 -0.00000000000E+00 -0.17877498420E+04  0.17877498420E+04  0.25500000000E-02 0. -1.
    8880023    1    1    2    0    0  0.70892631094E+02 -0.29273202832E+02 -0.15923003838E+04  0.17248517050E+04  0.65864270000E+03 0. -1.
    8880022    1    1    2    0    0 -0.70892631094E+02  0.29273202832E+02 -0.72516915388E+02  0.18583067987E+03  0.15294330000E+03 0.  0.
<mgrwt>
<rscale>  0 0.47259805E+03</rscale>
<asrwt>0</asrwt>
<pdfrwt beam="1">  1        2 0.27503842E+00 0.66309343E+03</pdfrwt>
<pdfrwt beam="2">  1       -2 0.18912700E-01 0.66309343E+03</pdfrwt>
<totfact> 0.21185722E+02</totfact>
</mgrwt>
</event>
<event>
 4    1  0.2051094E-007  0.6939597E+03  0.7818608E-02  0.1002325E+00
          2   -1    0    0  501    0  0.00000000000E+00  0.00000000000E+00  0.18863693659E+04  0.18863693659E+04  0.25500000000E-02 0. -1.
         -2   -1    0    0    0  501 -0.00000000000E+00 -0.00000000000E+00 -0.38444048937E+03  0.38444048938E+03  0.25500000000E-02 0.  1.
    8880023    1    1    2    0    0 -0.21843002041E+03 -0.76252984680E+01  0.17647723758E+04  0.18963126229E+04  0.65864270000E+03 0. -1.
    8880022    1    1    2    0    0  0.21843002041E+03  0.76252984680E+01 -0.26284349925E+03  0.37449723244E+03  0.15294330000E+03 0.  0.
<mgrwt>
<rscale>  0 0.54642592E+03</rscale>
<asrwt>0</asrwt>
<pdfrwt beam="1">  1        2 0.29021068E+00 0.69395967E+03</pdfrwt>
<pdfrwt beam="2">  1       -2 0.59144690E-01 0.69395967E+03</pdfrwt>
<totfact> 0.21443437E+01</totfact>
</mgrwt>
</event>
<event>
 4    1  0.2051094E-007  0.9581779E+03  0.7818608E-02  0.9438444E-01
          2   -1    0    0  501    0  0.00000000000E+00  0.00000000000E+00  0.22736298749E+04  0.22736298749E+04  0.25500000000E-02 0. -1.
         -2   -1    0    0    0  501 -0.00000000000E+00 -0.00000000000E+00 -0.57564581075E+03  0.57564581075E+03  0.25500000000E-02 0.  1.
    8880023    1    1    2    0    0  0.26426378480E+03 -0.64378513601E+03  0.18833116859E+04  0.21130470325E+04  0.65864270000E+03 0.  0.
    8880022    1    1    2    0    0 -0.26426378480E+03  0.64378513601E+03 -0.18532762171E+03  0.73622865313E+03  0.15294330000E+03 0.  0.
<mgrwt>
<rscale>  0 0.88978286E+03</rscale>
<asrwt>0</asrwt>
<pdfrwt beam="1">  1        2 0.34978921E+00 0.95817788E+03</pdfrwt>
<pdfrwt beam="2">  1       -2 0.88560895E-01 0.95817788E+03</pdfrwt>
<totfact> 0.52033812E+00</totfact>
</mgrwt>
</event>
<event>
 4    1  0.2328767E-007  0.7440791E+03  0.7818608E-02  0.9848220E-01
          2   -1    0    0  501    0  0.00000000000E+00  0.00000000000E+00  0.16444253847E+04  0.16444253847E+04  0.25500000000E-02 0. -1.
         -2   -1    0    0    0  501 -0.00000000000E+00 -0.00000000000E+00 -0.17085999509E+04  0.17085999509E+04  0.25500000000E-02 0.  1.
    8880023    1    1    2    0    0  0.44070253274E+02 -0.34336752598E+03  0.15370501441E+04  0.17076817025E+04  0.65864270000E+03 0.  0.
    8880022    1    1    2    0    0 -0.44070253274E+02  0.34336752598E+03 -0.16012247103E+04  0.16453436331E+04  0.15294330000E+03 0.  0.
<mgrwt>
<rscale>  0 0.62837731E+03</rscale>
<asrwt>0</asrwt>
<pdfrwt beam="1">  1        2 0.25298852E+00 0.74407906E+03</pdfrwt>
<pdfrwt beam="2">  1       -2 0.26286153E+00 0.74407906E+03</pdfrwt>
<totfact> 0.59246183E-01</totfact>
</mgrwt>
</event>
<event>
 4    1  0.2051094E-007  0.7565618E+03  0.7818608E-02  0.9814091E-01
         -2   -1    0    0    0  501 -0.00000000000E+00  0.00000000000E+00  0.38347347777E+03  0.38347347778E+03  0.25500000000E-02 0.  1.
          2   -1    0    0  501    0  0.00000000000E+00 -0.00000000000E+00 -0.10388320127E+04  0.10388320127E+04  0.25500000000E-02 0. -1.
    8880023    1    1    2    0    0  0.26550417829E+03 -0.26092746071E+03 -0.68253072053E+03  0.10189376817E+04  0.65864270000E+03 0.  0.
    8880022    1    1    2    0    0 -0.26550417829E+03  0.26092746071E+03  0.27172185648E+02  0.40336780874E+03  0.15294330000E+03 0.  0.
<mgrwt>
<rscale>  0 0.64611783E+03</rscale>
<asrwt>0</asrwt>
<pdfrwt beam="1">  1        2 0.15982031E+00 0.75656184E+03</pdfrwt>
<pdfrwt beam="2">  1       -2 0.58995920E-01 0.75656184E+03</pdfrwt>
<totfact> 0.64796776E+01</totfact>
</mgrwt>
</event>
<event>
 4    1  0.2051094E-007  0.7493086E+03  0.7818608E-02  0.9833617E-01
          2   -1    0    0  501    0  0.00000000000E+00  0.00000000000E+00  0.21388159375E+04  0.21388159375E+04  0.25500000000E-02 0. -1.
         -2   -1    0    0    0  501 -0.00000000000E+00 -0.00000000000E+00 -0.29635269563E+03  0.29635269564E+03  0.25500000000E-02 0.  1.
    8880023    1    1    2    0    0  0.55806440991E+01  0.35724231735E+03  0.18998808489E+04  0.20423052326E+04  0.65864270000E+03 0. -1.
    8880022    1    1    2    0    0 -0.55806440991E+01 -0.35724231735E+03 -0.57417606988E+02  0.39286340056E+03  0.15294330000E+03 0.  0.
<mgrwt>
<rscale>  0 0.63589264E+03</rscale>
<asrwt>0</asrwt>
<pdfrwt beam="1">  1        2 0.32904861E+00 0.74930863E+03</pdfrwt>
<pdfrwt beam="2">  1       -2 0.45592722E-01 0.74930863E+03</pdfrwt>
<totfact> 0.26417051E+01</totfact>
</mgrwt>
</event>
<event>
 4    1  0.2051094E-007  0.1475544E+04  0.7818608E-02  0.8927101E-01
          2   -1    0    0  501    0  0.00000000000E+00  0.00000000000E+00  0.17459157066E+04  0.17459157066E+04  0.25500000000E-02 0. -1.
         -2   -1    0    0    0  501 -0.00000000000E+00 -0.00000000000E+00 -0.40594485292E+04  0.40594485292E+04  0.25500000000E-02 0.  1.
    8880023    1    1    2    0    0  0.10059943449E+04  0.85521624772E+03  0.12928594531E+04  0.19618142685E+04  0.65864270000E+03 0.  0.
    8880022    1    1    2    0    0 -0.10059943449E+04 -0.85521624772E+03 -0.36063922756E+04  0.38435499673E+04  0.15294330000E+03 0.  0.
<mgrwt>
<rscale>  0 0.14375166E+04</rscale>
<asrwt>0</asrwt>
<pdfrwt beam="1">  1        2 0.26860242E+00 0.14755439E+04</pdfrwt>
<pdfrwt beam="2">  1       -2 0.62453054E+00 0.14755439E+04</pdfrwt>
<totfact> 0.34644973E-03</totfact>
</mgrwt>
</event>
<event>
 4    1  0.2051094E-007  0.6640747E+03  0.7818608E-02  0.1020323E+00
          2   -1    0    0  501    0  0.00000000000E+00  0.00000000000E+00  0.27793755320E+04  0.27793755320E+04  0.25500000000E-02 0. -1.
         -2   -1    0    0    0  501 -0.00000000000E+00 -0.00000000000E+00 -0.10466584522E+03  0.10466584525E+03  0.25500000000E-02 0.  1.
    8880023    1    1    2    0    0  0.56098101910E+01 -0.84578807466E+02  0.26169405676E+04  0.26998839207E+04  0.65864270000E+03 0. -1.
    8880022    1    1    2    0    0 -0.56098101910E+01  0.84578807466E+02  0.57769119116E+02  0.18415745649E+03  0.15294330000E+03 0.  0.
<mgrwt>
<rscale>  0 0.47570371E+03</rscale>
<asrwt>0</asrwt>
<pdfrwt beam="1">  1        2 0.42759614E+00 0.66407473E+03</pdfrwt>
<pdfrwt beam="2">  1       -2 0.16102441E-01 0.66407473E+03</pdfrwt>
<totfact> 0.78327044E+01</totfact>
</mgrwt>
</event>
<event>
 4    1  0.2051094E-007  0.7504004E+03  0.7818608E-02  0.9830626E-01
         -2   -1    0    0    0  501 -0.00000000000E+00  0.00000000000E+00  0.13103446008E+04  0.13103446008E+04  0.25500000000E-02 0.  1.
          2   -1    0    0  501    0  0.00000000000E+00 -0.00000000000E+00 -0.61580031555E+03  0.61580031556E+03  0.25500000000E-02 0. -1.
    8880023    1    1    2    0    0 -0.10349552809E+03  0.34435326645E+03 -0.33735277945E+03  0.82274394590E+03  0.65864270000E+03 0. -1.
    8880022    1    1    2    0    0  0.10349552809E+03 -0.34435326645E+03  0.10318970646E+04  0.11034009704E+04  0.15294330000E+03 0.  0.
<mgrwt>
<rscale>  0 0.63744587E+03</rscale>
<asrwt>0</asrwt>
<pdfrwt beam="1">  1        2 0.94738510E-01 0.75040036E+03</pdfrwt>
<pdfrwt beam="2">  1       -2 0.20159148E+00 0.75040036E+03</pdfrwt>
<totfact> 0.63669566E+00</totfact>
</mgrwt>
</event>
<event>
 4    1  0.2051094E-007  0.9719865E+03  0.7818608E-02  0.9419162E-01
          2   -1    0    0  501    0  0.00000000000E+00  0.00000000000E+00  0.31388930184E+04  0.31388930184E+04  0.25500000000E-02 0. -1.
         -2   -1    0    0    0  501 -0.00000000000E+00 -0.00000000000E+00 -0.41757585999E+03  0.41757586000E+03  0.25500000000E-02 0.  1.
    8880023    1    1    2    0    0 -0.52528775300E+03 -0.48478904903E+03  0.26492628128E+04  0.28219410524E+04  0.65864270000E+03 0. -1.
    8880022    1    1    2    0    0  0.52528775300E+03  0.48478904903E+03  0.72054345634E+02  0.73452782605E+03  0.15294330000E+03 0.  0.
<mgrwt>
<rscale>  0 0.90515370E+03</rscale>
<asrwt>0</asrwt>
<pdfrwt beam="1">  1        2 0.48290662E+00 0.97198655E+03</pdfrwt>
<pdfrwt beam="2">  1       -2 0.64242440E-01 0.97198655E+03</pdfrwt>
<totfact> 0.32777867E+00</totfact>
</mgrwt>
</event>
<event>
 4    1  0.2051094E-007  0.6627241E+03  0.7818608E-02  0.1021524E+00
          2   -1    0    0  501    0  0.00000000000E+00  0.00000000000E+00  0.24956087305E+04  0.24956087305E+04  0.25500000000E-02 0. -1.
         -2   -1    0    0    0  501 -0.00000000000E+00 -0.00000000000E+00 -0.13670616580E+04  0.13670616580E+04  0.25500000000E-02 0.  1.
    8880023    1    1    2    0    0  0.16374286747E+02  0.71588382703E+02  0.24460756088E+04  0.25342630298E+04  0.65864270000E+03 0. -1.
    8880022    1    1    2    0    0 -0.16374286747E+02 -0.71588382703E+02 -0.13175285363E+04  0.13284073587E+04  0.15294330000E+03 0.  0.
<mgrwt>
<rscale>  0 0.47140558E+03</rscale>
<asrwt>0</asrwt>
<pdfrwt beam="1">  1        2 0.38393980E+00 0.66272409E+03</pdfrwt>
<pdfrwt beam="2">  1       -2 0.21031718E+00 0.66272409E+03</pdfrwt>
<totfact> 0.43253655E-01</totfact>
</mgrwt>
</event>
<event>
 4    1  0.2051094E-007  0.9919524E+03  0.7818608E-02  0.9392163E-01
          2   -1    0    0  501    0  0.00000000000E+00  0.00000000000E+00  0.16700284987E+04  0.16700284988E+04  0.25500000000E-02 0. -1.
         -2   -1    0    0    0  501 -0.00000000000E+00 -0.00000000000E+00 -0.65310125481E+03  0.65310125481E+03  0.25500000000E-02 0.  1.
    8880023    1    1    2    0    0  0.65123527474E+03 -0.35503801402E+03  0.11870243603E+04  0.15469312889E+04  0.65864270000E+03 0. -1.
    8880022    1    1    2    0    0 -0.65123527474E+03  0.35503801402E+03 -0.17009711637E+03  0.77619846462E+03  0.15294330000E+03 0.  0.
<mgrwt>
<rscale>  0 0.92723461E+03</rscale>
<asrwt>0</asrwt>
<pdfrwt beam="1">  1        2 0.25692745E+00 0.99195241E+03</pdfrwt>
<pdfrwt beam="2">  1       -2 0.10047712E+00 0.99195241E+03</pdfrwt>
<totfact> 0.83038198E+00</totfact>
</mgrwt>
</event>
<event>
 4    1  0.2051094E-007  0.8498028E+03  0.7818608E-02  0.9611966E-01
         -2   -1    0    0    0  501 -0.00000000000E+00  0.00000000000E+00  0.35397545529E+03  0.35397545530E+03  0.25500000000E-02 0.  1.
          2   -1    0    0  501    0  0.00000000000E+00 -0.00000000000E+00 -0.19472295740E+04  0.19472295740E+04  0.25500000000E-02 0. -1.
    8880023    1    1    2    0    0 -0.41285115802E+03  0.34337806245E+03 -0.15154659692E+04  0.17374699659E+04  0.65864270000E+03 0. -1.
    8880022    1    1    2    0    0  0.41285115802E+03 -0.34337806245E+03 -0.77788149501E+02  0.56373506336E+03  0.15294330000E+03 0.  0.
<mgrwt>
<rscale>  0 0.76509218E+03</rscale>
<asrwt>0</asrwt>
<pdfrwt beam="1">  1        2 0.29957377E+00 0.84980279E+03</pdfrwt>
<pdfrwt beam="2">  1       -2 0.54457764E-01 0.84980279E+03</pdfrwt>
<totfact> 0.23130503E+01</totfact>
</mgrwt>
</event>
<event>
 4    1  0.2051094E-007  0.6929426E+03  0.7818608E-02  0.1002784E+00
          2   -1    0    0  501    0  0.00000000000E+00  0.00000000000E+00  0.85039381784E+03  0.85039381784E+03  0.25500000000E-02 0. -1.
         -2   -1    0    0    0  501 -0.00000000000E+00 -0.00000000000E+00 -0.12368828196E+04  0.12368828196E+04  0.25500000000E-02 0.  1.
    8880023    1    1    2    0    0 -0.63162312409E+02  0.20583933105E+03  0.69058035264E+03  0.97829992212E+03  0.65864270000E+03 0. -1.
    8880022    1    1    2    0    0  0.63162312409E+02 -0.20583933105E+03 -0.10770693544E+04  0.11089767153E+04  0.15294330000E+03 0.  0.
<mgrwt>
<rscale>  0 0.54446096E+03</rscale>
<asrwt>0</asrwt>
<pdfrwt beam="1">  1        2 0.13082982E+00 0.69294265E+03</pdfrwt>
<pdfrwt beam="2">  1       -2 0.19028967E+00 0.69294265E+03</pdfrwt>
<totfact> 0.50368439E+00</totfact>
</mgrwt>
</event>
<event>
 4    1  0.2051094E-007  0.7495691E+03  0.7818608E-02  0.9832901E-01
         -2   -1    0    0    0  501 -0.00000000000E+00  0.00000000000E+00  0.36551155312E+03  0.36551155313E+03  0.25500000000E-02 0.  1.
          2   -1    0    0  501    0  0.00000000000E+00 -0.00000000000E+00 -0.17572666718E+04  0.17572666718E+04  0.25500000000E-02 0. -1.
    8880023    1    1    2    0    0  0.35271560432E+03 -0.60294215162E+02 -0.15348921092E+04  0.17081415876E+04  0.65864270000E+03 0. -1.
    8880022    1    1    2    0    0 -0.35271560432E+03  0.60294215162E+02  0.14313699061E+03  0.41463663732E+03  0.15294330000E+03 0.  0.
<mgrwt>
<rscale>  0 0.63626375E+03</rscale>
<asrwt>0</asrwt>
<pdfrwt beam="1">  1        2 0.27034871E+00 0.74956914E+03</pdfrwt>
<pdfrwt beam="2">  1       -2 0.56232548E-01 0.74956914E+03</pdfrwt>
<totfact> 0.27814021E+01</totfact>
</mgrwt>
</event>
<event>
 4    1  0.2051094E-007  0.8435470E+03  0.7818608E-02  0.9623528E-01
         -2   -1    0    0    0  501 -0.00000000000E+00  0.00000000000E+00  0.84123492200E+03  0.84123492200E+03  0.25500000000E-02 0.  1.
          2   -1    0    0  501    0  0.00000000000E+00 -0.00000000000E+00 -0.18811088196E+04  0.18811088196E+04  0.25500000000E-02 0. -1.
    8880023    1    1    2    0    0 -0.23373669124E+03 -0.47236486556E+03 -0.16795765990E+04  0.18795076922E+04  0.65864270000E+03 0. -1.
    8880022    1    1    2    0    0  0.23373669124E+03  0.47236486556E+03  0.63970270135E+03  0.84283604940E+03  0.15294330000E+03 0.  0.
<mgrwt>
<rscale>  0 0.75758330E+03</rscale>
<asrwt>0</asrwt>
<pdfrwt beam="1">  1        2 0.28940135E+00 0.84354704E+03</pdfrwt>
<pdfrwt beam="2">  1       -2 0.12942076E+00 0.84354704E+03</pdfrwt>
<totfact> 0.34802706E+00</totfact>
</mgrwt>
</event>
<event>
 4    1  0.2051094E-007  0.6719112E+03  0.7818608E-02  0.1014328E+00
          2   -1    0    0  501    0  0.00000000000E+00  0.00000000000E+00  0.16238193125E+04  0.16238193125E+04  0.25500000000E-02 0. -1.
         -2   -1    0    0    0  501 -0.00000000000E+00 -0.00000000000E+00 -0.12439073031E+03  0.12439073033E+03  0.25500000000E-02 0.  1.
    8880023    1    1    2    0    0 -0.10880864354E+03  0.76256815310E+02  0.13029043448E+04  0.14659551019E+04  0.65864270000E+03 0. -1.
    8880022    1    1    2    0    0  0.10880864354E+03 -0.76256815310E+02  0.19652423740E+03  0.28225494095E+03  0.15294330000E+03 0.  0.
<mgrwt>
<rscale>  0 0.49790083E+03</rscale>
<asrwt>0</asrwt>
<pdfrwt beam="1">  1        2 0.24981836E+00 0.67191118E+03</pdfrwt>
<pdfrwt beam="2">  1       -2 0.19137035E-01 0.67191118E+03</pdfrwt>
<totfact> 0.25479948E+02</totfact>
</mgrwt>
</event>
<event>
 4    1  0.2051094E-007  0.7607825E+03  0.7818608E-02  0.9803086E-01
         -2   -1    0    0    0  501 -0.00000000000E+00  0.00000000000E+00  0.83166149748E+03  0.83166149748E+03  0.25500000000E-02 0.  1.
          2   -1    0    0  501    0  0.00000000000E+00 -0.00000000000E+00 -0.14199819884E+04  0.14199819884E+04  0.25500000000E-02 0. -1.
    8880023    1    1    2    0    0  0.23647688213E+02 -0.38002707495E+03 -0.12557140273E+04  0.14681987997E+04  0.65864270000E+03 0. -1.
    8880022    1    1    2    0    0 -0.23647688213E+02  0.38002707495E+03  0.66739353638E+03  0.78344468616E+03  0.15294330000E+03 0.  0.
<mgrwt>
<rscale>  0 0.65197199E+03</rscale>
<asrwt>0</asrwt>
<pdfrwt beam="1">  1        2 0.21845877E+00 0.76078249E+03</pdfrwt>
<pdfrwt beam="2">  1       -2 0.12794792E+00 0.76078249E+03</pdfrwt>
<totfact> 0.65148970E+00</totfact>
</mgrwt>
</event>
<event>
 4    1  0.2051094E-007  0.8155362E+03  0.7818608E-02  0.9678159E-01
          2   -1    0    0  501    0  0.00000000000E+00  0.00000000000E+00  0.12398044005E+04  0.12398044005E+04  0.25500000000E-02 0. -1.
         -2   -1    0    0    0  501 -0.00000000000E+00 -0.00000000000E+00 -0.44632894418E+03  0.44632894419E+03  0.25500000000E-02 0.  1.
    8880023    1    1    2    0    0 -0.18851256758E+03  0.44243875451E+03  0.85042557440E+03  0.11782711502E+04  0.65864270000E+03 0. -1.
    8880022    1    1    2    0    0  0.18851256758E+03 -0.44243875451E+03 -0.56950118051E+02  0.50786219449E+03  0.15294330000E+03 0.  0.
<mgrwt>
<rscale>  0 0.72332241E+03</rscale>
<asrwt>0</asrwt>
<pdfrwt beam="1">  1        2 0.19073913E+00 0.81553617E+03</pdfrwt>
<pdfrwt beam="2">  1       -2 0.68665993E-01 0.81553617E+03</pdfrwt>
<totfact> 0.35202203E+01</totfact>
</mgrwt>
</event>
<event>
 4    1  0.2051094E-007  0.9481304E+03  0.7818608E-02  0.9452809E-01
         -2   -1    0    0    0  501 -0.00000000000E+00  0.00000000000E+00  0.71024273239E+03  0.71024273239E+03  0.25500000000E-02 0.  1.
          2   -1    0    0  501    0  0.00000000000E+00 -0.00000000000E+00 -0.10665590761E+04  0.10665590762E+04  0.25500000000E-02 0. -1.
    8880023    1    1    2    0    0 -0.63462521799E+03  0.24978349638E+03 -0.48676462571E+03  0.10657818583E+04  0.65864270000E+03 0.  0.
    8880022    1    1    2    0    0  0.63462521799E+03 -0.24978349638E+03  0.13044828195E+03  0.71101995025E+03  0.15294330000E+03 0.  0.
<mgrwt>
<rscale>  0 0.87854241E+03</rscale>
<asrwt>0</asrwt>
<pdfrwt beam="1">  1        2 0.16408601E+00 0.94813035E+03</pdfrwt>
<pdfrwt beam="2">  1       -2 0.10926811E+00 0.94813035E+03</pdfrwt>
<totfact> 0.15226489E+01</totfact>
</mgrwt>
</event>
<event>
 4    1  0.2051094E-007  0.1098759E+04  0.7818608E-02  0.9262439E-01
          2   -1    0    0  501    0  0.00000000000E+00  0.00000000000E+00  0.18609857459E+04  0.18609857459E+04  0.25500000000E-02 0. -1.
         -2   -1    0    0    0  501 -0.00000000000E+00 -0.00000000000E+00 -0.89488002182E+03  0.89488002183E+03  0.25500000000E-02 0.  1.
    8880023    1    1    2    0    0 -0.87853649127E+03 -0.40444561568E+02 -0.36093639517E+03  0.11565238505E+04  0.65864270000E+03 0.  0.
    8880022    1    1    2    0    0  0.87853649127E+03  0.40444561568E+02  0.13270421192E+04  0.15993419173E+04  0.15294330000E+03 0.  0.
<mgrwt>
<rscale>  0 0.10431561E+04</rscale>
<asrwt>0</asrwt>
<pdfrwt beam="1">  1        2 0.28630550E+00 0.10987595E+04</pdfrwt>
<pdfrwt beam="2">  1       -2 0.13767385E+00 0.10987595E+04</pdfrwt>
<totfact> 0.29479310E+00</totfact>
</mgrwt>
</event>
<event>
 4    1  0.2051094E-007  0.1186408E+04  0.7818608E-02  0.9170449E-01
          2   -1    0    0  501    0  0.00000000000E+00  0.00000000000E+00  0.37397445877E+04  0.37397445877E+04  0.25500000000E-02 0. -1.
         -2   -1    0    0    0  501 -0.00000000000E+00 -0.00000000000E+00 -0.35991387899E+03  0.35991387900E+03  0.25500000000E-02 0.  1.
    8880023    1    1    2    0    0  0.91938355073E+03 -0.35845282250E+03  0.25063364277E+04  0.27729563708E+04  0.65864270000E+03 0.  1.
    8880022    1    1    2    0    0 -0.91938355073E+03  0.35845282250E+03  0.87349428103E+03  0.13267020959E+04  0.15294330000E+03 0.  0.
<mgrwt>
<rscale>  0 0.11363719E+04</rscale>
<asrwt>0</asrwt>
<pdfrwt beam="1">  1        2 0.57534530E+00 0.11864083E+04</pdfrwt>
<pdfrwt beam="2">  1       -2 0.55371368E-01 0.11864083E+04</pdfrwt>
<totfact> 0.16969287E+00</totfact>
</mgrwt>
</event>
<event>
 4    1  0.2051094E-007  0.7114597E+03  0.7818608E-02  0.9952620E-01
          2   -1    0    0  501    0  0.00000000000E+00  0.00000000000E+00  0.14926502914E+04  0.14926502914E+04  0.25500000000E-02 0. -1.
         -2   -1    0    0    0  501 -0.00000000000E+00 -0.00000000000E+00 -0.42280042474E+03  0.42280042475E+03  0.25500000000E-02 0.  1.
    8880023    1    1    2    0    0  0.27255551764E+02  0.26762260591E+03  0.13318636061E+04  0.15099786740E+04  0.65864270000E+03 0. -1.
    8880022    1    1    2    0    0 -0.27255551764E+02 -0.26762260591E+03 -0.26201373947E+03  0.40547204217E+03  0.15294330000E+03 0.  0.
<mgrwt>
<rscale>  0 0.57777494E+03</rscale>
<asrwt>0</asrwt>
<pdfrwt beam="1">  1        2 0.22963851E+00 0.71145972E+03</pdfrwt>
<pdfrwt beam="2">  1       -2 0.65046219E-01 0.71145972E+03</pdfrwt>
<totfact> 0.28715950E+01</totfact>
</mgrwt>
</event>
<event>
 4    1  0.3282854E-007  0.1278424E+04  0.7818608E-02  0.9084419E-01
         -2   -1    0    0    0  501 -0.00000000000E+00  0.00000000000E+00  0.11105700880E+04  0.11105700880E+04  0.25500000000E-02 0.  1.
          2   -1    0    0  501    0  0.00000000000E+00 -0.00000000000E+00 -0.21732009021E+04  0.21732009021E+04  0.25500000000E-02 0. -1.
    8880023    1    1    2    0    0  0.42443041731E+03  0.10101569146E+04 -0.16047782247E+04  0.20517508445E+04  0.65864270000E+03 0.  0.
    8880022    1    1    2    0    0 -0.42443041731E+03 -0.10101569146E+04  0.54214741061E+03  0.12320201456E+04  0.15294330000E+03 0.  0.
<mgrwt>
<rscale>  0 0.12330386E+04</rscale>
<asrwt>0</asrwt>
<pdfrwt beam="1">  1        2 0.33433860E+00 0.12784242E+04</pdfrwt>
<pdfrwt beam="2">  1       -2 0.17085694E+00 0.12784242E+04</pdfrwt>
<totfact> 0.10832724E+00</totfact>
</mgrwt>
</event>
<event>
 4    1  0.2051094E-007  0.1176241E+04  0.7818608E-02  0.9180571E-01
          2   -1    0    0  501    0  0.00000000000E+00  0.00000000000E+00  0.89481355224E+03  0.89481355224E+03  0.25500000000E-02 0. -1.
         -2   -1    0    0    0  501 -0.00000000000E+00 -0.00000000000E+00 -0.16354682186E+04  0.16354682186E+04  0.25500000000E-02 0.  1.
    8880023    1    1    2    0    0 -0.91320681604E+03  0.34027286550E+03 -0.96170466420E+03  0.15193480112E+04  0.65864270000E+03 0.  0.
    8880022    1    1    2    0    0  0.91320681604E+03 -0.34027286550E+03  0.22104999780E+03  0.10109337596E+04  0.15294330000E+03 0.  0.
<mgrwt>
<rscale>  0 0.11256237E+04</rscale>
<asrwt>0</asrwt>
<pdfrwt beam="1">  1        2 0.13766362E+00 0.11762408E+04</pdfrwt>
<pdfrwt beam="2">  1       -2 0.25161050E+00 0.11762408E+04</pdfrwt>
<totfact> 0.18156202E+00</totfact>
</mgrwt>
</event>
<event>
 4    1  0.2051094E-007  0.8985353E+03  0.7818608E-02  0.9528387E-01
         -2   -1    0    0    0  501 -0.00000000000E+00  0.00000000000E+00  0.23204610145E+04  0.23204610145E+04  0.25500000000E-02 0.  1.
          2   -1    0    0  501    0  0.00000000000E+00 -0.00000000000E+00 -0.60578741445E+03  0.60578741445E+03  0.25500000000E-02 0. -1.
    8880023    1    1    2    0    0 -0.60116676265E+03  0.11024524660E+03 -0.19144493768E+03  0.91870390297E+03  0.65864270000E+03 0. -1.
    8880022    1    1    2    0    0  0.60116676265E+03 -0.11024524660E+03  0.19061185378E+04  0.20075445260E+04  0.15294330000E+03 0.  0.
<mgrwt>
<rscale>  0 0.82222929E+03</rscale>
<asrwt>0</asrwt>
<pdfrwt beam="1">  1        2 0.93198064E-01 0.89853531E+03</pdfrwt>
<pdfrwt beam="2">  1       -2 0.35699400E+00 0.89853531E+03</pdfrwt>
<totfact> 0.70937811E-01</totfact>
</mgrwt>
</event>
<event>
 4    1  0.2051094E-007  0.1160180E+04  0.7818608E-02  0.9196837E-01
          2   -1    0    0  501    0  0.00000000000E+00  0.00000000000E+00  0.66866867298E+03  0.66866867299E+03  0.25500000000E-02 0. -1.
         -2   -1    0    0    0  501 -0.00000000000E+00 -0.00000000000E+00 -0.25481470937E+04  0.25481470937E+04  0.25500000000E-02 0.  1.
    8880023    1    1    2    0    0 -0.38273910812E+03  0.87505306218E+03 -0.66667365854E+02  0.11620937270E+04  0.65864270000E+03 0. -1.
    8880022    1    1    2    0    0  0.38273910812E+03 -0.87505306218E+03 -0.18128110548E+04  0.20547220396E+04  0.15294330000E+03 0.  0.
<mgrwt>
<rscale>  0 0.11086136E+04</rscale>
<asrwt>0</asrwt>
<pdfrwt beam="1">  1        2 0.10287210E+00 0.11601799E+04</pdfrwt>
<pdfrwt beam="2">  1       -2 0.39202263E+00 0.11601799E+04</pdfrwt>
<totfact> 0.36148470E-01</totfact>
</mgrwt>
</event>
<event>
 4    1  0.2051094E-007  0.6796204E+03  0.7818608E-02  0.1009539E+00
          2   -1    0    0  501    0  0.00000000000E+00  0.00000000000E+00  0.46107001286E+04  0.46107001286E+04  0.25500000000E-02 0. -1.
         -2   -1    0    0    0  501 -0.00000000000E+00 -0.00000000000E+00 -0.25466214037E+03  0.25466214038E+03  0.25500000000E-02 0.  1.
    8880023    1    1    2    0    0  0.32838024482E+02  0.16430247912E+03  0.45292384891E+04  0.45799437920E+04  0.65864270000E+03 0. -1.
    8880022    1    1    2    0    0 -0.32838024482E+02 -0.16430247912E+03 -0.17320050085E+03  0.28541847699E+03  0.15294330000E+03 0.  0.
<mgrwt>
<rscale>  0 0.51658180E+03</rscale>
<asrwt>0</asrwt>
<pdfrwt beam="1">  1        2 0.70933848E+00 0.67962037E+03</pdfrwt>
<pdfrwt beam="2">  1       -2 0.39178791E-01 0.67962037E+03</pdfrwt>
<totfact> 0.68734598E-01</totfact>
</mgrwt>
</event>
<event>
 4    1  0.2051094E-007  0.9368527E+03  0.7818608E-02  0.9469288E-01
          2   -1    0    0  501    0  0.00000000000E+00  0.00000000000E+00  0.22908402310E+04  0.22908402310E+04  0.25500000000E-02 0. -1.
         -2   -1    0    0    0  501 -0.00000000000E+00 -0.00000000000E+00 -0.61629821313E+03  0.61629821314E+03  0.25500000000E-02 0.  1.
    8880023    1    1    2    0    0  0.57927888317E+03  0.32911814727E+03  0.19552993495E+04  0.21681532538E+04  0.65864270000E+03 0.  0.
    8880022    1    1    2    0    0 -0.57927888317E+03 -0.32911814727E+03 -0.28075733162E+03  0.73898519040E+03  0.15294330000E+03 0.  0.
<mgrwt>
<rscale>  0 0.86586461E+03</rscale>
<asrwt>0</asrwt>
<pdfrwt beam="1">  1        2 0.35243696E+00 0.93685270E+03</pdfrwt>
<pdfrwt beam="2">  1       -2 0.94815109E-01 0.93685270E+03</pdfrwt>
<totfact> 0.43553073E+00</totfact>
</mgrwt>
</event>
<event>
 4    1  0.2051094E-007  0.7488192E+03  0.7818608E-02  0.9834964E-01
         -2   -1    0    0    0  501 -0.00000000000E+00  0.00000000000E+00  0.26413138693E+03  0.26413138694E+03  0.25500000000E-02 0.  1.
          2   -1    0    0  501    0  0.00000000000E+00 -0.00000000000E+00 -0.15519332911E+04  0.15519332911E+04  0.25500000000E-02 0. -1.
    8880023    1    1    2    0    0  0.14192195703E+03 -0.32676923665E+03 -0.12064084862E+04  0.14199125388E+04  0.65864270000E+03 0.  0.
    8880022    1    1    2    0    0 -0.14192195703E+03  0.32676923665E+03 -0.81393417902E+02  0.39615213921E+03  0.15294330000E+03 0.  0.
<mgrwt>
<rscale>  0 0.63519460E+03</rscale>
<asrwt>0</asrwt>
<pdfrwt beam="1">  1        2 0.23875896E+00 0.74881919E+03</pdfrwt>
<pdfrwt beam="2">  1       -2 0.40635599E-01 0.74881919E+03</pdfrwt>
<totfact> 0.69473869E+01</totfact>
</mgrwt>
</event>
<event>
 4    1  0.2051094E-007  0.9644626E+03  0.7818608E-02  0.9429604E-01
         -2   -1    0    0    0  501 -0.00000000000E+00  0.00000000000E+00  0.53518087702E+03  0.53518087702E+03  0.25500000000E-02 0.  1.
          2   -1    0    0  501    0  0.00000000000E+00 -0.00000000000E+00 -0.18569994331E+04  0.18569994331E+04  0.25500000000E-02 0. -1.
    8880023    1    1    2    0    0 -0.66823033450E+03 -0.22326226124E+03 -0.13633858148E+04  0.16700326055E+04  0.65864270000E+03 0.  0.
    8880022    1    1    2    0    0  0.66823033450E+03  0.22326226124E+03  0.41567258713E+02  0.72214770460E+03  0.15294330000E+03 0.  0.
<mgrwt>
<rscale>  0 0.89678921E+03</rscale>
<asrwt>0</asrwt>
<pdfrwt beam="1">  1        2 0.28569222E+00 0.96446256E+03</pdfrwt>
<pdfrwt beam="2">  1       -2 0.82335520E-01 0.96446256E+03</pdfrwt>
<totfact> 0.10434605E+01</totfact>
</mgrwt>
</event>
<event>
 4    1  0.2051094E-007  0.6721416E+03  0.7818608E-02  0.1014172E+00
         -2   -1    0    0    0  501 -0.00000000000E+00  0.00000000000E+00  0.29078303772E+03  0.29078303773E+03  0.25500000000E-02 0.  1.
          2   -1    0    0  501    0  0.00000000000E+00 -0.00000000000E+00 -0.11016340122E+04  0.11016340122E+04  0.25500000000E-02 0. -1.
    8880023    1    1    2    0    0 -0.44592737529E+02 -0.12639487640E+03 -0.93697147045E+03  0.11531218148E+04  0.65864270000E+03 0. -1.
    8880022    1    1    2    0    0  0.44592737529E+02  0.12639487640E+03  0.12612049601E+03  0.23929523511E+03  0.15294330000E+03 0.  0.
<mgrwt>
<rscale>  0 0.49849717E+03</rscale>
<asrwt>0</asrwt>
<pdfrwt beam="1">  1        2 0.16948215E+00 0.67214164E+03</pdfrwt>
<pdfrwt beam="2">  1       -2 0.44735852E-01 0.67214164E+03</pdfrwt>
<totfact> 0.10510593E+02</totfact>
</mgrwt>
</event>
<event>
 4    1  0.2132593E-007  0.1370544E+04  0.7818608E-02  0.9006916E-01
         -2   -1    0    0    0  501 -0.00000000000E+00  0.00000000000E+00  0.18531249020E+04  0.18531249020E+04  0.25500000000E-02 0.  1.
          2   -1    0    0  501    0  0.00000000000E+00 -0.00000000000E+00 -0.24228856781E+04  0.24228856781E+04  0.25500000000E-02 0. -1.
    8880023    1    1    2    0    0 -0.25110641830E+03  0.11753832717E+04 -0.19855065940E+04  0.24125975441E+04  0.65864270000E+03 0.  0.
    8880022    1    1    2    0    0  0.25110641830E+03 -0.11753832717E+04  0.14157458179E+04  0.18634130360E+04  0.15294330000E+03 0.  0.
<mgrwt>
<rscale>  0 0.13289524E+04</rscale>
<asrwt>0</asrwt>
<pdfrwt beam="1">  1        2 0.37275164E+00 0.13705439E+04</pdfrwt>
<pdfrwt beam="2">  1       -2 0.28509614E+00 0.13705439E+04</pdfrwt>
<totfact> 0.14428939E-01</totfact>
</mgrwt>
</event>
<event>
 4    1  0.2051094E-007  0.1020889E+04  0.7818608E-02  0.9354725E-01
         -2   -1    0    0    0  501 -0.00000000000E+00  0.00000000000E+00  0.46159481694E+03  0.46159481695E+03  0.25500000000E-02 0.  1.
          2   -1    0    0  501    0  0.00000000000E+00 -0.00000000000E+00 -0.30256013446E+04  0.30256013446E+04  0.25500000000E-02 0. -1.
    8880023    1    1    2    0    0  0.54484228202E+03  0.55816687947E+03 -0.24872896853E+04  0.26886471621E+04  0.65864270000E+03 0.  0.
    8880022    1    1    2    0    0 -0.54484228202E+03 -0.55816687947E+03 -0.76716842393E+02  0.79854899945E+03  0.15294330000E+03 0.  0.
<mgrwt>
<rscale>  0 0.95897172E+03</rscale>
<asrwt>0</asrwt>
<pdfrwt beam="1">  1        2 0.46547712E+00 0.10208886E+04</pdfrwt>
<pdfrwt beam="2">  1       -2 0.71014589E-01 0.10208886E+04</pdfrwt>
<totfact> 0.30808527E+00</totfact>
</mgrwt>
</event>
<event>
 4    1  0.2051094E-007  0.9871733E+03  0.7818608E-02  0.9398535E-01
          2   -1    0    0  501    0  0.00000000000E+00  0.00000000000E+00  0.11192831771E+04  0.11192831771E+04  0.25500000000E-02 0. -1.
         -2   -1    0    0    0  501 -0.00000000000E+00 -0.00000000000E+00 -0.10448310716E+04  0.10448310716E+04  0.25500000000E-02 0.  1.
    8880023    1    1    2    0    0  0.62573813857E+03 -0.38620299725E+03  0.68052883459E+03  0.11990123745E+04  0.65864270000E+03 0.  0.
    8880022    1    1    2    0    0 -0.62573813857E+03  0.38620299725E+03 -0.60607672905E+03  0.96510187423E+03  0.15294330000E+03 0.  0.
<mgrwt>
<rscale>  0 0.92196379E+03</rscale>
<asrwt>0</asrwt>
<pdfrwt beam="1">  1        2 0.17219741E+00 0.98717333E+03</pdfrwt>
<pdfrwt beam="2">  1       -2 0.16074324E+00 0.98717333E+03</pdfrwt>
<totfact> 0.52327691E+00</totfact>
</mgrwt>
</event>
<event>
 4    1  0.2051094E-007  0.6684165E+03  0.7818608E-02  0.1016824E+00
          2   -1    0    0  501    0  0.00000000000E+00  0.00000000000E+00  0.26639827718E+04  0.26639827718E+04  0.25500000000E-02 0. -1.
         -2   -1    0    0    0  501 -0.00000000000E+00 -0.00000000000E+00 -0.14343547977E+03  0.14343547979E+03  0.25500000000E-02 0.  1.
    8880023    1    1    2    0    0  0.77763422696E+02  0.83206140455E+02  0.25296931392E+04  0.26165106528E+04  0.65864270000E+03 0. -1.
    8880022    1    1    2    0    0 -0.77763422696E+02 -0.83206140455E+02 -0.91458471798E+01  0.19090759873E+03  0.15294330000E+03 0.  0.
<mgrwt>
<rscale>  0 0.48850210E+03</rscale>
<asrwt>0</asrwt>
<pdfrwt beam="1">  1        2 0.40984349E+00 0.66841650E+03</pdfrwt>
<pdfrwt beam="2">  1       -2 0.22066997E-01 0.66841650E+03</pdfrwt>
<totfact> 0.52902663E+01</totfact>
</mgrwt>
</event>
<event>
 4    1  0.2051094E-007  0.7670982E+03  0.7818608E-02  0.9787066E-01
          2   -1    0    0  501    0  0.00000000000E+00  0.00000000000E+00  0.19457645933E+04  0.19457645933E+04  0.25500000000E-02 0. -1.
         -2   -1    0    0    0  501 -0.00000000000E+00 -0.00000000000E+00 -0.44202929169E+03  0.44202929169E+03  0.25500000000E-02 0.  1.
    8880023    1    1    2    0    0 -0.36289286261E+03 -0.15145388695E+03  0.17418737027E+04  0.19033033683E+04  0.65864270000E+03 0.  0.
    8880022    1    1    2    0    0  0.36289286261E+03  0.15145388695E+03 -0.23813840109E+03  0.48449051662E+03  0.15294330000E+03 0.  0.
<mgrwt>
<rscale>  0 0.66061312E+03</rscale>
<asrwt>0</asrwt>
<pdfrwt beam="1">  1        2 0.29934840E+00 0.76709824E+03</pdfrwt>
<pdfrwt beam="2">  1       -2 0.68004506E-01 0.76709824E+03</pdfrwt>
<totfact> 0.14619992E+01</totfact>
</mgrwt>
</event>
<event>
 4    1  0.2051094E-007  0.1219545E+04  0.7818608E-02  0.9138354E-01
          2   -1    0    0  501    0  0.00000000000E+00  0.00000000000E+00  0.27229452382E+04  0.27229452382E+04  0.25500000000E-02 0. -1.
         -2   -1    0    0    0  501 -0.00000000000E+00 -0.00000000000E+00 -0.48449329034E+03  0.48449329035E+03  0.25500000000E-02 0.  1.
    8880023    1    1    2    0    0  0.94138337129E+03 -0.40899472238E+03  0.90959487723E+03  0.15213981667E+04  0.65864270000E+03 0.  0.
    8880022    1    1    2    0    0 -0.94138337129E+03  0.40899472238E+03  0.13288570707E+04  0.16860403619E+04  0.15294330000E+03 0.  0.
<mgrwt>
<rscale>  0 0.11713017E+04</rscale>
<asrwt>0</asrwt>
<pdfrwt beam="1">  1        2 0.41891466E+00 0.12195448E+04</pdfrwt>
<pdfrwt beam="2">  1       -2 0.74537429E-01 0.12195448E+04</pdfrwt>
<totfact> 0.41146344E+00</totfact>
</mgrwt>
</event>
<event>
 4    1  0.2051094E-007  0.8308709E+03  0.7818608E-02  0.9647640E-01
         -2   -1    0    0    0  501 -0.00000000000E+00  0.00000000000E+00  0.10685997064E+04  0.10685997064E+04  0.25500000000E-02 0.  1.
          2   -1    0    0  501    0  0.00000000000E+00 -0.00000000000E+00 -0.84071702898E+03  0.84071702899E+03  0.25500000000E-02 0. -1.
    8880023    1    1    2    0    0  0.49221461264E+03  0.11941963737E+03 -0.52963701647E+03  0.98532322116E+03  0.65864270000E+03 0. -1.
    8880022    1    1    2    0    0 -0.49221461264E+03 -0.11941963737E+03  0.75751969391E+03  0.92399351424E+03  0.15294330000E+03 0.  0.
<mgrwt>
<rscale>  0 0.74221708E+03</rscale>
<asrwt>0</asrwt>
<pdfrwt beam="1">  1        2 0.12934108E+00 0.83087092E+03</pdfrwt>
<pdfrwt beam="2">  1       -2 0.16439995E+00 0.83087092E+03</pdfrwt>
<totfact> 0.75974233E+00</totfact>
</mgrwt>
</event>
<event>
 4    1  0.2051094E-007  0.9623890E+03  0.7818608E-02  0.9432509E-01
         -2   -1    0    0    0  501 -0.00000000000E+00  0.00000000000E+00  0.28998650520E+03  0.28998650521E+03  0.25500000000E-02 0.  1.
          2   -1    0    0  501    0  0.00000000000E+00 -0.00000000000E+00 -0.37028205813E+04  0.37028205813E+04  0.25500000000E-02 0. -1.
    8880023    1    1    2    0    0 -0.53411961708E+03 -0.45508087429E+03 -0.30295884711E+04  0.31787731719E+04  0.65864270000E+03 0.  0.
    8880022    1    1    2    0    0  0.53411961708E+03  0.45508087429E+03 -0.38324560502E+03  0.81403391470E+03  0.15294330000E+03 0.  0.
<mgrwt>
<rscale>  0 0.89447955E+03</rscale>
<asrwt>0</asrwt>
<pdfrwt beam="1">  1        2 0.56966467E+00 0.96238899E+03</pdfrwt>
<pdfrwt beam="2">  1       -2 0.44613311E-01 0.96238899E+03</pdfrwt>
<totfact> 0.29074989E+00</totfact>
</mgrwt>
</event>
<event>
 4    1  0.2051094E-007  0.1033568E+04  0.7818608E-02  0.9338900E-01
          2   -1    0    0  501    0  0.00000000000E+00  0.00000000000E+00  0.34571418521E+04  0.34571418521E+04  0.25500000000E-02 0. -1.
         -2   -1    0    0    0  501 -0.00000000000E+00 -0.00000000000E+00 -0.30601990166E+03  0.30601990167E+03  0.25500000000E-02 0.  1.
    8880023    1    1    2    0    0  0.78471525380E+03  0.13665816814E+03  0.25563231634E+04  0.27573631981E+04  0.65864270000E+03 0. -1.
    8880022    1    1    2    0    0 -0.78471525380E+03 -0.13665816814E+03  0.59479878710E+03  0.10057985557E+04  0.15294330000E+03 0.  0.
<mgrwt>
<rscale>  0 0.97279176E+03</rscale>
<asrwt>0</asrwt>
<pdfrwt beam="1">  1        2 0.53186798E+00 0.10335684E+04</pdfrwt>
<pdfrwt beam="2">  1       -2 0.47079985E-01 0.10335684E+04</pdfrwt>
<totfact> 0.38377433E+00</totfact>
</mgrwt>
</event>
<event>
 4    1  0.2051094E-007  0.1022170E+04  0.7818608E-02  0.9353110E-01
          2   -1    0    0  501    0  0.00000000000E+00  0.00000000000E+00  0.38568865318E+04  0.38568865318E+04  0.25500000000E-02 0. -1.
         -2   -1    0    0    0  501 -0.00000000000E+00 -0.00000000000E+00 -0.61203702114E+03  0.61203702115E+03  0.25500000000E-02 0.  1.
    8880023    1    1    2    0    0  0.44375927646E+03  0.64350522819E+03  0.34891542739E+04  0.36357982655E+04  0.65864270000E+03 0.  0.
    8880022    1    1    2    0    0 -0.44375927646E+03 -0.64350522819E+03 -0.24430476327E+03  0.83312528741E+03  0.15294330000E+03 0.  0.
<mgrwt>
<rscale>  0 0.96037058E+03</rscale>
<asrwt>0</asrwt>
<pdfrwt beam="1">  1        2 0.59336714E+00 0.10221700E+04</pdfrwt>
<pdfrwt beam="2">  1       -2 0.94159545E-01 0.10221700E+04</pdfrwt>
<totfact> 0.44025670E-01</totfact>
</mgrwt>
</event>
<event>
 4    1  0.2051094E-007  0.1806946E+04  0.7818608E-02  0.8718704E-01
         -2   -1    0    0    0  501 -0.00000000000E+00  0.00000000000E+00  0.45313183687E+04  0.45313183687E+04  0.25500000000E-02 0.  1.
          2   -1    0    0  501    0  0.00000000000E+00 -0.00000000000E+00 -0.18628797396E+04  0.18628797396E+04  0.25500000000E-02 0. -1.
    8880023    1    1    2    0    0 -0.11595028764E+04  0.12193428132E+04 -0.12025679264E+04  0.21705353350E+04  0.65864270000E+03 0.  0.
    8880022    1    1    2    0    0  0.11595028764E+04 -0.12193428132E+04  0.38710065555E+04  0.42236627733E+04  0.15294330000E+03 0.  0.
<mgrwt>
<rscale>  0 0.17768580E+04</rscale>
<asrwt>0</asrwt>
<pdfrwt beam="1">  1        2 0.28659688E+00 0.18069460E+04</pdfrwt>
<pdfrwt beam="2">  1       -2 0.69712591E+00 0.18069460E+04</pdfrwt>
<totfact> 0.16443383E-03</totfact>
</mgrwt>
</event>
<event>
 4    1  0.2051094E-007  0.1442794E+04  0.7818608E-02  0.8951125E-01
          2   -1    0    0  501    0  0.00000000000E+00  0.00000000000E+00  0.18307234340E+04  0.18307234340E+04  0.25500000000E-02 0. -1.
         -2   -1    0    0    0  501 -0.00000000000E+00 -0.00000000000E+00 -0.11750041042E+04  0.11750041043E+04  0.25500000000E-02 0.  1.
    8880023    1    1    2    0    0  0.12278588043E+04 -0.37444104827E+03  0.88527939887E+03  0.16927413158E+04  0.65864270000E+03 0.  0.
    8880022    1    1    2    0    0 -0.12278588043E+04  0.37444104827E+03 -0.22956006913E+03  0.13129862224E+04  0.15294330000E+03 0.  0.
<mgrwt>
<rscale>  0 0.14037277E+04</rscale>
<asrwt>0</asrwt>
<pdfrwt beam="1">  1        2 0.28164976E+00 0.14427937E+04</pdfrwt>
<pdfrwt beam="2">  1       -2 0.18076986E+00 0.14427937E+04</pdfrwt>
<totfact> 0.14067469E+00</totfact>
</mgrwt>
</event>
<event>
 4    1  0.2212939E-007  0.8941985E+03  0.7818608E-02  0.9535410E-01
         -2   -1    0    0    0  501 -0.00000000000E+00  0.00000000000E+00  0.15148079058E+04  0.15148079058E+04  0.25500000000E-02 0.  1.
          2   -1    0    0  501    0  0.00000000000E+00 -0.00000000000E+00 -0.12617381728E+04  0.12617381728E+04  0.25500000000E-02 0. -1.
    8880023    1    1    2    0    0  0.53850163079E+02  0.60239596353E+03 -0.10214430576E+04  0.13575481071E+04  0.65864270000E+03 0.  0.
    8880022    1    1    2    0    0 -0.53850163079E+02 -0.60239596353E+03  0.12745127906E+04  0.14189979716E+04  0.15294330000E+03 0.  0.
<mgrwt>
<rscale>  0 0.81722793E+03</rscale>
<asrwt>0</asrwt>
<pdfrwt beam="1">  1        2 0.19411356E+00 0.89419849E+03</pdfrwt>
<pdfrwt beam="2">  1       -2 0.23304737E+00 0.89419849E+03</pdfrwt>
<totfact> 0.14388100E+00</totfact>
</mgrwt>
</event>
<event>
 4    1  0.2051094E-007  0.8177801E+03  0.7818608E-02  0.9673593E-01
         -2   -1    0    0    0  501 -0.00000000000E+00  0.00000000000E+00  0.54845487506E+03  0.54845487507E+03  0.25500000000E-02 0.  1.
          2   -1    0    0  501    0  0.00000000000E+00 -0.00000000000E+00 -0.15674581613E+04  0.15674581613E+04  0.25500000000E-02 0. -1.
    8880023    1    1    2    0    0  0.36943727054E+03  0.31379954645E+03 -0.12994786107E+04  0.15353855926E+04  0.65864270000E+03 0. -1.
    8880022    1    1    2    0    0 -0.36943727054E+03 -0.31379954645E+03  0.28047532448E+03  0.58052744369E+03  0.15294330000E+03 0.  0.
<mgrwt>
<rscale>  0 0.72611022E+03</rscale>
<asrwt>0</asrwt>
<pdfrwt beam="1">  1        2 0.24114741E+00 0.81778008E+03</pdfrwt>
<pdfrwt beam="2">  1       -2 0.84377674E-01 0.81778008E+03</pdfrwt>
<totfact> 0.14491613E+01</totfact>
</mgrwt>
</event>
<event>
 4    1  0.2051094E-007  0.8818593E+03  0.7818608E-02  0.9555804E-01
         -2   -1    0    0    0  501 -0.00000000000E+00  0.00000000000E+00  0.29894360703E+03  0.29894360704E+03  0.25500000000E-02 0.  1.
          2   -1    0    0  501    0  0.00000000000E+00 -0.00000000000E+00 -0.34244148006E+04  0.34244148006E+04  0.25500000000E-02 0. -1.
    8880023    1    1    2    0    0 -0.14482359733E+03 -0.56823565570E+03 -0.29693786174E+04  0.30975611720E+04  0.65864270000E+03 0. -1.
    8880022    1    1    2    0    0  0.14482359733E+03  0.56823565570E+03 -0.15609257619E+03  0.62579723562E+03  0.15294330000E+03 0.  0.
<mgrwt>
<rscale>  0 0.80291724E+03</rscale>
<asrwt>0</asrwt>
<pdfrwt beam="1">  1        2 0.52683302E+00 0.88185931E+03</pdfrwt>
<pdfrwt beam="2">  1       -2 0.45991326E-01 0.88185931E+03</pdfrwt>
<totfact> 0.43379567E+00</totfact>
</mgrwt>
</event>
<event>
 4    1  0.2051094E-007  0.8279179E+03  0.7818608E-02  0.9653397E-01
         -2   -1    0    0    0  501 -0.00000000000E+00  0.00000000000E+00  0.45420493542E+03  0.45420493543E+03  0.25500000000E-02 0.  1.
          2   -1    0    0  501    0  0.00000000000E+00 -0.00000000000E+00 -0.30236909915E+04  0.30236909915E+04  0.25500000000E-02 0. -1.
    8880023    1    1    2    0    0  0.35841677467E+03 -0.35096332514E+03 -0.27890632284E+04  0.29093507417E+04  0.65864270000E+03 0.  0.
    8880022    1    1    2    0    0 -0.35841677467E+03  0.35096332514E+03  0.21957717236E+03  0.56854518519E+03  0.15294330000E+03 0.  0.
<mgrwt>
<rscale>  0 0.73860605E+03</rscale>
<asrwt>0</asrwt>
<pdfrwt beam="1">  1        2 0.46518322E+00 0.82791790E+03</pdfrwt>
<pdfrwt beam="2">  1       -2 0.69877684E-01 0.82791790E+03</pdfrwt>
<totfact> 0.33026009E+00</totfact>
</mgrwt>
</event>
<event>
 4    1  0.2051094E-007  0.1516959E+04  0.7818608E-02  0.8897752E-01
          2   -1    0    0  501    0  0.00000000000E+00  0.00000000000E+00  0.22022140439E+04  0.22022140439E+04  0.25500000000E-02 0. -1.
         -2   -1    0    0    0  501 -0.00000000000E+00 -0.00000000000E+00 -0.19518492889E+04  0.19518492889E+04  0.25500000000E-02 0.  1.
    8880023    1    1    2    0    0 -0.96528009813E+03  0.96725866827E+03  0.16157597133E+04  0.22162681825E+04  0.65864270000E+03 0.  0.
    8880022    1    1    2    0    0  0.96528009813E+03 -0.96725866827E+03 -0.13653949584E+04  0.19377951503E+04  0.15294330000E+03 0.  0.
<mgrwt>
<rscale>  0 0.14801632E+04</rscale>
<asrwt>0</asrwt>
<pdfrwt beam="1">  1        2 0.33880216E+00 0.15169592E+04</pdfrwt>
<pdfrwt beam="2">  1       -2 0.30028451E+00 0.15169592E+04</pdfrwt>
<totfact> 0.15252594E-01</totfact>
</mgrwt>
</event>
<event>
 4    1  0.2051094E-007  0.2112784E+04  0.7818608E-02  0.8566785E-01
          2   -1    0    0  501    0  0.00000000000E+00  0.00000000000E+00  0.14155097894E+04  0.14155097894E+04  0.25500000000E-02 0. -1.
         -2   -1    0    0    0  501 -0.00000000000E+00 -0.00000000000E+00 -0.34793275478E+04  0.34793275478E+04  0.25500000000E-02 0.  1.
    8880023    1    1    2    0    0  0.33006833860E+03 -0.19801766880E+04 -0.15171244086E+03  0.21182237122E+04  0.65864270000E+03 0.  0.
    8880022    1    1    2    0    0 -0.33006833860E+03  0.19801766880E+04 -0.19121053176E+04  0.27766136250E+04  0.15294330000E+03 0.  0.
<mgrwt>
<rscale>  0 0.20874650E+04</rscale>
<asrwt>0</asrwt>
<pdfrwt beam="1">  1        2 0.21777074E+00 0.21127837E+04</pdfrwt>
<pdfrwt beam="2">  1       -2 0.53528116E+00 0.21127837E+04</pdfrwt>
<totfact> 0.12616616E-02</totfact>
</mgrwt>
</event>
<event>
 4    1  0.2051094E-007  0.9108576E+03  0.7818608E-02  0.9508822E-01
          2   -1    0    0  501    0  0.00000000000E+00  0.00000000000E+00  0.11836597843E+04  0.11836597843E+04  0.25500000000E-02 0. -1.
         -2   -1    0    0    0  501 -0.00000000000E+00 -0.00000000000E+00 -0.91947231669E+03  0.91947231669E+03  0.25500000000E-02 0.  1.
    8880023    1    1    2    0    0  0.56154407411E+03  0.28375991526E+03  0.83820078635E+03  0.12378377120E+04  0.65864270000E+03 0. -1.
    8880022    1    1    2    0    0 -0.56154407411E+03 -0.28375991526E+03 -0.57401331870E+03  0.86529438906E+03  0.15294330000E+03 0.  0.
<mgrwt>
<rscale>  0 0.83636552E+03</rscale>
<asrwt>0</asrwt>
<pdfrwt beam="1">  1        2 0.18210150E+00 0.91085764E+03</pdfrwt>
<pdfrwt beam="2">  1       -2 0.14145728E+00 0.91085764E+03</pdfrwt>
<totfact> 0.67786544E+00</totfact>
</mgrwt>
</event>
<event>
 4    1  0.2051094E-007  0.1064169E+04  0.7818608E-02  0.9302039E-01
          2   -1    0    0  501    0  0.00000000000E+00  0.00000000000E+00  0.98098131088E+03  0.98098131089E+03  0.25500000000E-02 0. -1.
         -2   -1    0    0    0  501 -0.00000000000E+00 -0.00000000000E+00 -0.10243876514E+04  0.10243876514E+04  0.25500000000E-02 0.  1.
    8880023    1    1    2    0    0 -0.70339242653E+03  0.45153555961E+03  0.27302626876E+03  0.10986349790E+04  0.65864270000E+03 0.  0.
    8880022    1    1    2    0    0  0.70339242653E+03 -0.45153555961E+03 -0.31643260928E+03  0.90673398333E+03  0.15294330000E+03 0.  0.
<mgrwt>
<rscale>  0 0.10059534E+04</rscale>
<asrwt>0</asrwt>
<pdfrwt beam="1">  1        2 0.15092020E+00 0.10641689E+04</pdfrwt>
<pdfrwt beam="2">  1       -2 0.15759810E+00 0.10641689E+04</pdfrwt>
<totfact> 0.67013126E+00</totfact>
</mgrwt>
</event>
<event>
 4    1  0.2051094E-007  0.9264133E+03  0.7818608E-02  0.9484895E-01
         -2   -1    0    0    0  501 -0.00000000000E+00  0.00000000000E+00  0.12202817789E+04  0.12202817789E+04  0.25500000000E-02 0.  1.
          2   -1    0    0  501    0  0.00000000000E+00 -0.00000000000E+00 -0.81644699638E+03  0.81644699639E+03  0.25500000000E-02 0. -1.
    8880023    1    1    2    0    0 -0.59018712380E+03 -0.27588153589E+03 -0.38417288145E+03  0.10029109991E+04  0.65864270000E+03 0. -1.
    8880022    1    1    2    0    0  0.59018712380E+03  0.27588153589E+03  0.78800766401E+03  0.10338177763E+04  0.15294330000E+03 0.  1.
<mgrwt>
<rscale>  0 0.85406694E+03</rscale>
<asrwt>0</asrwt>
<pdfrwt beam="1">  1        2 0.12560723E+00 0.92641334E+03</pdfrwt>
<pdfrwt beam="2">  1       -2 0.18773566E+00 0.92641334E+03</pdfrwt>
<totfact> 0.53790216E+00</totfact>
</mgrwt>
</event>
<event>
 4    1  0.2051094E-007  0.7408373E+03  0.7818608E-02  0.9857515E-01
         -2   -1    0    0    0  501 -0.00000000000E+00  0.00000000000E+00  0.71204828613E+03  0.71204828613E+03  0.25500000000E-02 0.  1.
          2   -1    0    0  501    0  0.00000000000E+00 -0.00000000000E+00 -0.90274455648E+03  0.90274455649E+03  0.25500000000E-02 0. -1.
    8880023    1    1    2    0    0  0.15313166189E+03  0.30262257244E+03 -0.67626015844E+03  0.10030791272E+04  0.65864270000E+03 0. -1.
    8880022    1    1    2    0    0 -0.15313166189E+03 -0.30262257244E+03  0.48556388809E+03  0.61171371544E+03  0.15294330000E+03 0.  0.
<mgrwt>
<rscale>  0 0.62365231E+03</rscale>
<asrwt>0</asrwt>
<pdfrwt beam="1">  1        2 0.13888378E+00 0.74083732E+03</pdfrwt>
<pdfrwt beam="2">  1       -2 0.10954589E+00 0.74083732E+03</pdfrwt>
<totfact> 0.19694858E+01</totfact>
</mgrwt>
</event>
<event>
 4    1  0.2051094E-007  0.6677844E+03  0.7818608E-02  0.1017304E+00
         -2   -1    0    0    0  501 -0.00000000000E+00  0.00000000000E+00  0.18148792984E+04  0.18148792984E+04  0.25500000000E-02 0.  1.
          2   -1    0    0  501    0  0.00000000000E+00 -0.00000000000E+00 -0.16069404297E+04  0.16069404297E+04  0.25500000000E-02 0. -1.
    8880023    1    1    2    0    0 -0.34091016258E+02 -0.10470711180E+03 -0.15322558918E+04  0.16714497003E+04  0.65864270000E+03 0. -1.
    8880022    1    1    2    0    0  0.34091016258E+02  0.10470711180E+03  0.17401947605E+04  0.17503700278E+04  0.15294330000E+03 0.  0.
<mgrwt>
<rscale>  0 0.48672358E+03</rscale>
<asrwt>0</asrwt>
<pdfrwt beam="1">  1        2 0.24722161E+00 0.66778438E+03</pdfrwt>
<pdfrwt beam="2">  1       -2 0.27921220E+00 0.66778438E+03</pdfrwt>
<totfact> 0.50464052E-01</totfact>
</mgrwt>
</event>
<event>
 4    1  0.2051094E-007  0.7500454E+03  0.7818608E-02  0.9831596E-01
         -2   -1    0    0    0  501 -0.00000000000E+00  0.00000000000E+00  0.35517857400E+03  0.35517857401E+03  0.25500000000E-02 0.  1.
          2   -1    0    0  501    0  0.00000000000E+00 -0.00000000000E+00 -0.38769599115E+04  0.38769599115E+04  0.25500000000E-02 0. -1.
    8880023    1    1    2    0    0 -0.13337766032E+03 -0.33311909045E+03 -0.37198178203E+04  0.37946821674E+04  0.65864270000E+03 0. -1.
    8880022    1    1    2    0    0  0.13337766032E+03  0.33311909045E+03  0.19803648286E+03  0.43745631811E+03  0.15294330000E+03 0.  0.
<mgrwt>
<rscale>  0 0.63694146E+03</rscale>
<asrwt>0</asrwt>
<pdfrwt beam="1">  1        2 0.59645534E+00 0.75004542E+03</pdfrwt>
<pdfrwt beam="2">  1       -2 0.54642860E-01 0.75004542E+03</pdfrwt>
<totfact> 0.14923333E+00</totfact>
</mgrwt>
</event>
<event>
 4    1  0.2051094E-007  0.6918205E+03  0.7818608E-02  0.1003299E+00
         -2   -1    0    0    0  501 -0.00000000000E+00  0.00000000000E+00  0.84398701722E+03  0.84398701722E+03  0.25500000000E-02 0.  1.
          2   -1    0    0  501    0  0.00000000000E+00 -0.00000000000E+00 -0.44535689149E+03  0.44535689150E+03  0.25500000000E-02 0. -1.
    8880023    1    1    2    0    0 -0.20628113567E+03 -0.47471369408E+02 -0.12610293950E+03  0.70321945043E+03  0.65864270000E+03 0. -1.
    8880022    1    1    2    0    0  0.20628113567E+03  0.47471369408E+02  0.52473306523E+03  0.58612445829E+03  0.15294330000E+03 0.  0.
<mgrwt>
<rscale>  0 0.54227029E+03</rscale>
<asrwt>0</asrwt>
<pdfrwt beam="1">  1        2 0.68516446E-01 0.69182053E+03</pdfrwt>
<pdfrwt beam="2">  1       -2 0.12984415E+00 0.69182053E+03</pdfrwt>
<totfact> 0.31170852E+01</totfact>
</mgrwt>
</event>
<event>
 4    1  0.2051094E-007  0.1126391E+04  0.7818608E-02  0.9232227E-01
          2   -1    0    0  501    0  0.00000000000E+00  0.00000000000E+00  0.25411656457E+04  0.25411656457E+04  0.25500000000E-02 0. -1.
         -2   -1    0    0    0  501 -0.00000000000E+00 -0.00000000000E+00 -0.66364934758E+03  0.66364934758E+03  0.25500000000E-02 0.  1.
    8880023    1    1    2    0    0 -0.85483507120E+03 -0.32280528587E+03  0.19745969288E+04  0.22732772574E+04  0.65864270000E+03 0. -1.
    8880022    1    1    2    0    0  0.85483507120E+03  0.32280528587E+03 -0.97080630662E+02  0.93153773590E+03  0.15294330000E+03 0.  0.
<mgrwt>
<rscale>  0 0.10726898E+04</rscale>
<asrwt>0</asrwt>
<pdfrwt beam="1">  1        2 0.39094856E+00 0.11263909E+04</pdfrwt>
<pdfrwt beam="2">  1       -2 0.10209990E+00 0.11263909E+04</pdfrwt>
<totfact> 0.25700384E+00</totfact>
</mgrwt>
</event>
<event>
 4    1  0.2051094E-007  0.1013624E+04  0.7818608E-02  0.9363947E-01
         -2   -1    0    0    0  501 -0.00000000000E+00  0.00000000000E+00  0.16128924091E+04  0.16128924091E+04  0.25500000000E-02 0.  1.
          2   -1    0    0  501    0  0.00000000000E+00 -0.00000000000E+00 -0.10207991347E+04  0.10207991347E+04  0.25500000000E-02 0. -1.
    8880023    1    1    2    0    0  0.13521078462E+03  0.75851245712E+03 -0.62082455890E+03  0.11886363797E+04  0.65864270000E+03 0.  0.
    8880022    1    1    2    0    0 -0.13521078462E+03 -0.75851245712E+03  0.12129178333E+04  0.14450551641E+04  0.15294330000E+03 0.  0.
<mgrwt>
<rscale>  0 0.95103075E+03</rscale>
<asrwt>0</asrwt>
<pdfrwt beam="1">  1        2 0.15704602E+00 0.10136239E+04</pdfrwt>
<pdfrwt beam="2">  1       -2 0.24813729E+00 0.10136239E+04</pdfrwt>
<totfact> 0.16034910E+00</totfact>
</mgrwt>
</event>
<event>
 4    1  0.2051094E-007  0.7525949E+03  0.7818608E-02  0.9824670E-01
          2   -1    0    0  501    0  0.00000000000E+00  0.00000000000E+00  0.23755479816E+04  0.23755479816E+04  0.25500000000E-02 0. -1.
         -2   -1    0    0    0  501 -0.00000000000E+00 -0.00000000000E+00 -0.40218666308E+03  0.40218666309E+03  0.25500000000E-02 0.  1.
    8880023    1    1    2    0    0 -0.36351570276E+03  0.21099531201E+02  0.21980696905E+04  0.23233401445E+04  0.65864270000E+03 0.  0.
    8880022    1    1    2    0    0  0.36351570276E+03 -0.21099531201E+02 -0.22470837198E+03  0.45439450022E+03  0.15294330000E+03 0.  0.
<mgrwt>
<rscale>  0 0.64055251E+03</rscale>
<asrwt>0</asrwt>
<pdfrwt beam="1">  1        2 0.36546892E+00 0.75259489E+03</pdfrwt>
<pdfrwt beam="2">  1       -2 0.61874872E-01 0.75259489E+03</pdfrwt>
<totfact> 0.10404953E+01</totfact>
</mgrwt>
</event>
<event>
 4    1  0.2051094E-007  0.6830537E+03  0.7818608E-02  0.1007646E+00
          2   -1    0    0  501    0  0.00000000000E+00  0.00000000000E+00  0.89915062756E+03  0.89915062756E+03  0.25500000000E-02 0. -1.
         -2   -1    0    0    0  501 -0.00000000000E+00 -0.00000000000E+00 -0.95731706267E+03  0.95731706268E+03  0.25500000000E-02 0.  1.
    8880023    1    1    2    0    0  0.56624330697E+02 -0.17188886424E+03  0.74991460396E+03  0.10143639465E+04  0.65864270000E+03 0. -1.
    8880022    1    1    2    0    0 -0.56624330697E+02  0.17188886424E+03 -0.80808103908E+03  0.84210374373E+03  0.15294330000E+03 0.  0.
<mgrwt>
<rscale>  0 0.52420818E+03</rscale>
<asrwt>0</asrwt>
<pdfrwt beam="1">  1        2 0.13833087E+00 0.68305366E+03</pdfrwt>
<pdfrwt beam="2">  1       -2 0.14727955E+00 0.68305366E+03</pdfrwt>
<totfact> 0.94689524E+00</totfact>
</mgrwt>
</event>
<event>
 4    1  0.2051094E-007  0.1071253E+04  0.7818608E-02  0.9293759E-01
         -2   -1    0    0    0  501 -0.00000000000E+00  0.00000000000E+00  0.63568312943E+03  0.63568312944E+03  0.25500000000E-02 0.  1.
          2   -1    0    0  501    0  0.00000000000E+00 -0.00000000000E+00 -0.18738705787E+04  0.18738705787E+04  0.25500000000E-02 0. -1.
    8880023    1    1    2    0    0 -0.80747061597E+03 -0.24852169883E+03 -0.12559917455E+04  0.16507868735E+04  0.65864270000E+03 0.  0.
    8880022    1    1    2    0    0  0.80747061597E+03  0.24852169883E+03  0.17804296235E+02  0.85876683472E+03  0.15294330000E+03 0.  0.
<mgrwt>
<rscale>  0 0.10135948E+04</rscale>
<asrwt>0</asrwt>
<pdfrwt beam="1">  1        2 0.28828778E+00 0.10712526E+04</pdfrwt>
<pdfrwt beam="2">  1       -2 0.97797405E-01 0.10712526E+04</pdfrwt>
<totfact> 0.67759902E+00</totfact>
</mgrwt>
</event>
<event>
 4    1  0.2051094E-007  0.7499954E+03  0.7818608E-02  0.9831733E-01
          2   -1    0    0  501    0  0.00000000000E+00  0.00000000000E+00  0.25785555794E+04  0.25785555794E+04  0.25500000000E-02 0. -1.
         -2   -1    0    0    0  501 -0.00000000000E+00 -0.00000000000E+00 -0.30730019399E+03  0.30730019400E+03  0.25500000000E-02 0.  1.
    8880023    1    1    2    0    0  0.18822546341E+03 -0.30537524999E+03  0.23681134123E+04  0.24840398967E+04  0.65864270000E+03 0. -1.
    8880022    1    1    2    0    0 -0.18822546341E+03  0.30537524999E+03 -0.96858026927E+02  0.40181587671E+03  0.15294330000E+03 0.  0.
<mgrwt>
<rscale>  0 0.63687030E+03</rscale>
<asrwt>0</asrwt>
<pdfrwt beam="1">  1        2 0.39670086E+00 0.74999538E+03</pdfrwt>
<pdfrwt beam="2">  1       -2 0.47276953E-01 0.74999538E+03</pdfrwt>
<totfact> 0.13941636E+01</totfact>
</mgrwt>
</event>
<event>
 4    1  0.2051094E-007  0.7183255E+03  0.7818608E-02  0.9928293E-01
          2   -1    0    0  501    0  0.00000000000E+00  0.00000000000E+00  0.41911522333E+04  0.41911522333E+04  0.25500000000E-02 0. -1.
         -2   -1    0    0    0  501 -0.00000000000E+00 -0.00000000000E+00 -0.10265339115E+03  0.10265339118E+03  0.25500000000E-02 0.  1.
    8880023    1    1    2    0    0  0.28327345153E+03  0.44016791921E+02  0.37734941288E+04  0.38412562363E+04  0.65864270000E+03 0.  0.
    8880022    1    1    2    0    0 -0.28327345153E+03 -0.44016791921E+02  0.31500471332E+03  0.45254938817E+03  0.15294330000E+03 0.  0.
<mgrwt>
<rscale>  0 0.58909463E+03</rscale>
<asrwt>0</asrwt>
<pdfrwt beam="1">  1        2 0.64479255E+00 0.71832551E+03</pdfrwt>
<pdfrwt beam="2">  1       -2 0.15792832E-01 0.71832551E+03</pdfrwt>
<totfact> 0.85064965E+00</totfact>
</mgrwt>
</event>
<event>
 4    1  0.2051094E-007  0.7494466E+03  0.7818608E-02  0.9833238E-01
         -2   -1    0    0    0  501 -0.00000000000E+00  0.00000000000E+00  0.19430640215E+04  0.19430640215E+04  0.25500000000E-02 0.  1.
          2   -1    0    0  501    0  0.00000000000E+00 -0.00000000000E+00 -0.84099892999E+03  0.84099893000E+03  0.25500000000E-02 0. -1.
    8880023    1    1    2    0    0  0.35642322877E+03 -0.28679034477E+02 -0.64834420476E+03  0.99096943400E+03  0.65864270000E+03 0. -1.
    8880022    1    1    2    0    0 -0.35642322877E+03  0.28679034477E+02  0.17504092962E+04  0.17930935175E+04  0.15294330000E+03 0.  0.
<mgrwt>
<rscale>  0 0.63608923E+03</rscale>
<asrwt>0</asrwt>
<pdfrwt beam="1">  1        2 0.12938445E+00 0.74944660E+03</pdfrwt>
<pdfrwt beam="2">  1       -2 0.29893292E+00 0.74944660E+03</pdfrwt>
<totfact> 0.10851263E+00</totfact>
</mgrwt>
</event>
<event>
 4    1  0.2051094E-007  0.6915211E+03  0.7818608E-02  0.1003438E+00
          2   -1    0    0  501    0  0.00000000000E+00  0.00000000000E+00  0.11933617097E+04  0.11933617097E+04  0.25500000000E-02 0. -1.
         -2   -1    0    0    0  501 -0.00000000000E+00 -0.00000000000E+00 -0.14615090151E+04  0.14615090151E+04  0.25500000000E-02 0.  1.
    8880023    1    1    2    0    0 -0.19405754786E+03 -0.82053815986E+02  0.10796678516E+04  0.12821404122E+04  0.65864270000E+03 0. -1.
    8880022    1    1    2    0    0  0.19405754786E+03  0.82053815986E+02 -0.13478151570E+04  0.13727303126E+04  0.15294330000E+03 0.  0.
<mgrwt>
<rscale>  0 0.54168150E+03</rscale>
<asrwt>0</asrwt>
<pdfrwt beam="1">  1        2 0.18359411E+00 0.69152105E+03</pdfrwt>
<pdfrwt beam="2">  1       -2 0.22484754E+00 0.69152105E+03</pdfrwt>
<totfact> 0.18350722E+00</totfact>
</mgrwt>
</event>
<event>
 4    1  0.2051094E-007  0.9410803E+03  0.7818608E-02  0.9463065E-01
         -2   -1    0    0    0  501 -0.00000000000E+00  0.00000000000E+00  0.33814458329E+03  0.33814458330E+03  0.25500000000E-02 0.  1.
          2   -1    0    0  501    0  0.00000000000E+00 -0.00000000000E+00 -0.25851159583E+04  0.25851159583E+04  0.25500000000E-02 0. -1.
    8880023    1    1    2    0    0 -0.66189058735E+03  0.11714448955E+03 -0.19644950789E+04  0.21782729632E+04  0.65864270000E+03 0. -1.
    8880022    1    1    2    0    0  0.66189058735E+03 -0.11714448955E+03 -0.28247629611E+03  0.74498757837E+03  0.15294330000E+03 0.  0.
<mgrwt>
<rscale>  0 0.87062500E+03</rscale>
<asrwt>0</asrwt>
<pdfrwt beam="1">  1        2 0.39771013E+00 0.94108033E+03</pdfrwt>
<pdfrwt beam="2">  1       -2 0.52022245E-01 0.94108033E+03</pdfrwt>
<totfact> 0.11064519E+01</totfact>
</mgrwt>
</event>
<event>
 4    1  0.2051094E-007  0.7557377E+03  0.7818608E-02  0.9816270E-01
          2   -1    0    0  501    0  0.00000000000E+00  0.00000000000E+00  0.19977287171E+04  0.19977287171E+04  0.25500000000E-02 0. -1.
         -2   -1    0    0    0  501 -0.00000000000E+00 -0.00000000000E+00 -0.21733697000E+03  0.21733697002E+03  0.25500000000E-02 0.  1.
    8880023    1    1    2    0    0  0.35992077101E+03 -0.88239929983E+02  0.16117600425E+04  0.17801432211E+04  0.65864270000E+03 0. -1.
    8880022    1    1    2    0    0 -0.35992077101E+03  0.88239929983E+02  0.16863170456E+03  0.43492246602E+03  0.15294330000E+03 0.  0.
<mgrwt>
<rscale>  0 0.64496679E+03</rscale>
<asrwt>0</asrwt>
<pdfrwt beam="1">  1        2 0.30734288E+00 0.75573769E+03</pdfrwt>
<pdfrwt beam="2">  1       -2 0.33436457E-01 0.75573769E+03</pdfrwt>
<totfact> 0.57594456E+01</totfact>
</mgrwt>
</event>
<event>
 4    1  0.2051094E-007  0.1620649E+04  0.7818608E-02  0.8828828E-01
          2   -1    0    0  501    0  0.00000000000E+00  0.00000000000E+00  0.19843704388E+04  0.19843704388E+04  0.25500000000E-02 0. -1.
         -2   -1    0    0    0  501 -0.00000000000E+00 -0.00000000000E+00 -0.29810058500E+04  0.29810058500E+04  0.25500000000E-02 0.  1.
    8880023    1    1    2    0    0  0.65158466111E+03  0.13297110764E+04  0.14016135422E+04  0.21426676936E+04  0.65864270000E+03 0.  0.
    8880022    1    1    2    0    0 -0.65158466111E+03 -0.13297110764E+04 -0.23982489534E+04  0.28227085951E+04  0.15294330000E+03 0.  0.
<mgrwt>
<rscale>  0 0.15865915E+04</rscale>
<asrwt>0</asrwt>
<pdfrwt beam="1">  1        2 0.30528776E+00 0.16206494E+04</pdfrwt>
<pdfrwt beam="2">  1       -2 0.45861629E+00 0.16206494E+04</pdfrwt>
<totfact> 0.19130852E-02</totfact>
</mgrwt>
</event>
<event>
 4    1  0.2051094E-007  0.1005028E+04  0.7818608E-02  0.9375008E-01
         -2   -1    0    0    0  501 -0.00000000000E+00  0.00000000000E+00  0.34393031010E+03  0.34393031011E+03  0.25500000000E-02 0.  1.
          2   -1    0    0  501    0  0.00000000000E+00 -0.00000000000E+00 -0.26720348088E+04  0.26720348088E+04  0.25500000000E-02 0. -1.
    8880023    1    1    2    0    0 -0.72684496263E+03  0.21901625049E+03 -0.18514530686E+04  0.21066467168E+04  0.65864270000E+03 0.  0.
    8880022    1    1    2    0    0  0.72684496263E+03 -0.21901625049E+03 -0.47665143007E+03  0.90931840214E+03  0.15294330000E+03 0.  0.
<mgrwt>
<rscale>  0 0.94161239E+03</rscale>
<asrwt>0</asrwt>
<pdfrwt beam="1">  1        2 0.41108226E+00 0.10050283E+04</pdfrwt>
<pdfrwt beam="2">  1       -2 0.52912357E-01 0.10050283E+04</pdfrwt>
<totfact> 0.94335340E+00</totfact>
</mgrwt>
</event>
<event>
 4    1  0.2051094E-007  0.9185894E+03  0.7818608E-02  0.9496825E-01
         -2   -1    0    0    0  501 -0.00000000000E+00  0.00000000000E+00  0.14101181209E+04  0.14101181209E+04  0.25500000000E-02 0.  1.
          2   -1    0    0  501    0  0.00000000000E+00 -0.00000000000E+00 -0.47108064671E+03  0.47108064672E+03  0.25500000000E-02 0. -1.
    8880023    1    1    2    0    0  0.63624777565E+03 -0.72007799819E+02  0.30685417099E+03  0.96848647062E+03  0.65864270000E+03 0.  0.
    8880022    1    1    2    0    0 -0.63624777565E+03  0.72007799819E+02  0.63218330324E+03  0.91271229704E+03  0.15294330000E+03 0.  0.
<mgrwt>
<rscale>  0 0.84518289E+03</rscale>
<asrwt>0</asrwt>
<pdfrwt beam="1">  1        2 0.72473947E-01 0.91858944E+03</pdfrwt>
<pdfrwt beam="2">  1       -2 0.21694124E+00 0.91858944E+03</pdfrwt>
<totfact> 0.68490667E+00</totfact>
</mgrwt>
</event>
<event>
 4    1  0.2051094E-007  0.9719433E+03  0.7818608E-02  0.9419222E-01
         -2   -1    0    0    0  501 -0.00000000000E+00  0.00000000000E+00  0.12216331199E+04  0.12216331199E+04  0.25500000000E-02 0.  1.
          2   -1    0    0  501    0  0.00000000000E+00 -0.00000000000E+00 -0.67845609998E+03  0.67845609998E+03  0.25500000000E-02 0. -1.
    8880023    1    1    2    0    0  0.40040554385E+03 -0.59206324631E+03 -0.28174101832E+02  0.97235151743E+03  0.65864270000E+03 0.  0.
    8880022    1    1    2    0    0 -0.40040554385E+03  0.59206324631E+03  0.57135112172E+03  0.92773770242E+03  0.15294330000E+03 0.  0.
<mgrwt>
<rscale>  0 0.90510564E+03</rscale>
<asrwt>0</asrwt>
<pdfrwt beam="1">  1        2 0.10437786E+00 0.97194326E+03</pdfrwt>
<pdfrwt beam="2">  1       -2 0.18794356E+00 0.97194326E+03</pdfrwt>
<totfact> 0.67906766E+00</totfact>
</mgrwt>
</event>
<event>
 4    1  0.2051094E-007  0.7465826E+03  0.7818608E-02  0.9841171E-01
         -2   -1    0    0    0  501 -0.00000000000E+00  0.00000000000E+00  0.13067548031E+04  0.13067548031E+04  0.25500000000E-02 0.  1.
          2   -1    0    0  501    0  0.00000000000E+00 -0.00000000000E+00 -0.45533386623E+03  0.45533386624E+03  0.25500000000E-02 0. -1.
    8880023    1    1    2    0    0 -0.33091069567E+03 -0.11863160185E+03 -0.83870286431E+02  0.75127876097E+03  0.65864270000E+03 0. -1.
    8880022    1    1    2    0    0  0.33091069567E+03  0.11863160185E+03  0.93529122329E+03  0.10108099084E+04  0.15294330000E+03 0.  0.
<mgrwt>
<rscale>  0 0.63199096E+03</rscale>
<asrwt>0</asrwt>
<pdfrwt beam="1">  1        2 0.70051365E-01 0.74658258E+03</pdfrwt>
<pdfrwt beam="2">  1       -2 0.20103920E+00 0.74658258E+03</pdfrwt>
<totfact> 0.91593915E+00</totfact>
</mgrwt>
</event>
<event>
 4    1  0.2051094E-007  0.8448986E+03  0.7818608E-02  0.9621012E-01
         -2   -1    0    0    0  501 -0.00000000000E+00  0.00000000000E+00  0.22385178865E+03  0.22385178867E+03  0.25500000000E-02 0.  1.
          2   -1    0    0  501    0  0.00000000000E+00 -0.00000000000E+00 -0.30284038999E+04  0.30284038999E+04  0.25500000000E-02 0. -1.
    8880023    1    1    2    0    0 -0.26168669996E+03 -0.45996031263E+03 -0.24635340079E+04  0.26043911827E+04  0.65864270000E+03 0.  0.
    8880022    1    1    2    0    0  0.26168669996E+03  0.45996031263E+03 -0.34101810332E+03  0.64786450585E+03  0.15294330000E+03 0.  0.
<mgrwt>
<rscale>  0 0.75920955E+03</rscale>
<asrwt>0</asrwt>
<pdfrwt beam="1">  1        2 0.46590826E+00 0.84489859E+03</pdfrwt>
<pdfrwt beam="2">  1       -2 0.34438739E-01 0.84489859E+03</pdfrwt>
<totfact> 0.13807622E+01</totfact>
</mgrwt>
</event>
<event>
 4    1  0.2051094E-007  0.9441930E+03  0.7818608E-02  0.9458519E-01
          2   -1    0    0  501    0  0.00000000000E+00  0.00000000000E+00  0.27851977104E+04  0.27851977104E+04  0.25500000000E-02 0. -1.
         -2   -1    0    0    0  501 -0.00000000000E+00 -0.00000000000E+00 -0.32955250478E+03  0.32955250479E+03  0.25500000000E-02 0.  1.
    8880023    1    1    2    0    0 -0.27335316206E+03 -0.61884434715E+03  0.21664739175E+04  0.23632836729E+04  0.65864270000E+03 0. -1.
    8880022    1    1    2    0    0  0.27335316206E+03  0.61884434715E+03  0.28917128806E+03  0.75146654221E+03  0.15294330000E+03 0.  0.
<mgrwt>
<rscale>  0 0.87412386E+03</rscale>
<asrwt>0</asrwt>
<pdfrwt beam="1">  1        2 0.42849196E+00 0.94419303E+03</pdfrwt>
<pdfrwt beam="2">  1       -2 0.50700385E-01 0.94419303E+03</pdfrwt>
<totfact> 0.89056290E+00</totfact>
</mgrwt>
</event>
<event>
 4    1  0.2051094E-007  0.6653171E+03  0.7818608E-02  0.1019269E+00
          2   -1    0    0  501    0  0.00000000000E+00  0.00000000000E+00  0.41977603229E+04  0.41977603229E+04  0.25500000000E-02 0. -1.
         -2   -1    0    0    0  501 -0.00000000000E+00 -0.00000000000E+00 -0.27184703313E+03  0.27184703314E+03  0.25500000000E-02 0.  1.
    8880023    1    1    2    0    0 -0.18849674152E+02 -0.92094396822E+02  0.41383413968E+04  0.41914814101E+04  0.65864270000E+03 0. -1.
    8880022    1    1    2    0    0  0.18849674152E+02  0.92094396822E+02 -0.21242810705E+03  0.27812594597E+03  0.15294330000E+03 0.  0.
<mgrwt>
<rscale>  0 0.47951398E+03</rscale>
<asrwt>0</asrwt>
<pdfrwt beam="1">  1        2 0.64580928E+00 0.66531714E+03</pdfrwt>
<pdfrwt beam="2">  1       -2 0.41822620E-01 0.66531714E+03</pdfrwt>
<totfact> 0.14508342E+00</totfact>
</mgrwt>
</event>
<event>
 4    1  0.2051094E-007  0.7246464E+03  0.7818608E-02  0.9907167E-01
          2   -1    0    0  501    0  0.00000000000E+00  0.00000000000E+00  0.16128657034E+04  0.16128657034E+04  0.25500000000E-02 0. -1.
         -2   -1    0    0    0  501 -0.00000000000E+00 -0.00000000000E+00 -0.31007836407E+03  0.31007836408E+03  0.25500000000E-02 0.  1.
    8880023    1    1    2    0    0 -0.16824627610E+03 -0.25098871353E+03  0.13949692579E+04  0.15719578813E+04  0.65864270000E+03 0. -1.
    8880022    1    1    2    0    0  0.16824627610E+03  0.25098871353E+03 -0.92181918628E+02  0.35098618616E+03  0.15294330000E+03 0.  0.
<mgrwt>
<rscale>  0 0.59915209E+03</rscale>
<asrwt>0</asrwt>
<pdfrwt beam="1">  1        2 0.24813319E+00 0.72464636E+03</pdfrwt>
<pdfrwt beam="2">  1       -2 0.47704363E-01 0.72464636E+03</pdfrwt>
<totfact> 0.46884954E+01</totfact>
</mgrwt>
</event>
<event>
 4    1  0.2051094E-007  0.1208525E+04  0.7818608E-02  0.9148880E-01
         -2   -1    0    0    0  501 -0.00000000000E+00  0.00000000000E+00  0.21738917769E+04  0.21738917769E+04  0.25500000000E-02 0.  1.
          2   -1    0    0  501    0  0.00000000000E+00 -0.00000000000E+00 -0.99464154437E+03  0.99464154437E+03  0.25500000000E-02 0. -1.
    8880023    1    1    2    0    0 -0.77037628498E+03  0.65821134722E+03 -0.41117723812E+03  0.12765573726E+04  0.65864270000E+03 0.  0.
    8880022    1    1    2    0    0  0.77037628498E+03 -0.65821134722E+03  0.15904274707E+04  0.18919759487E+04  0.15294330000E+03 0.  0.
<mgrwt>
<rscale>  0 0.11597014E+04</rscale>
<asrwt>0</asrwt>
<pdfrwt beam="1">  1        2 0.15302178E+00 0.12085247E+04</pdfrwt>
<pdfrwt beam="2">  1       -2 0.33444489E+00 0.12085247E+04</pdfrwt>
<totfact> 0.48480898E-01</totfact>
</mgrwt>
</event>
<event>
 4    1  0.2051094E-007  0.1635253E+04  0.7818608E-02  0.8819598E-01
          2   -1    0    0  501    0  0.00000000000E+00  0.00000000000E+00  0.22314868975E+04  0.22314868975E+04  0.25500000000E-02 0. -1.
         -2   -1    0    0    0  501 -0.00000000000E+00 -0.00000000000E+00 -0.14061869377E+04  0.14061869377E+04  0.25500000000E-02 0.  1.
    8880023    1    1    2    0    0  0.23873887456E+03  0.14775816225E+04  0.12680969604E+04  0.20693293137E+04  0.65864270000E+03 0.  0.
    8880022    1    1    2    0    0 -0.23873887456E+03 -0.14775816225E+04 -0.44279700056E+03  0.15683445215E+04  0.15294330000E+03 0.  0.
<mgrwt>
<rscale>  0 0.16015467E+04</rscale>
<asrwt>0</asrwt>
<pdfrwt beam="1">  1        2 0.34330568E+00 0.16352535E+04</pdfrwt>
<pdfrwt beam="2">  1       -2 0.21633645E+00 0.16352535E+04</pdfrwt>
<totfact> 0.47827647E-01</totfact>
</mgrwt>
</event>
<event>
 4    1  0.2051094E-007  0.1394531E+04  0.7818608E-02  0.8987944E-01
         -2   -1    0    0    0  501 -0.00000000000E+00  0.00000000000E+00  0.14281916754E+04  0.14281916754E+04  0.25500000000E-02 0.  1.
          2   -1    0    0  501    0  0.00000000000E+00 -0.00000000000E+00 -0.15809874250E+04  0.15809874250E+04  0.25500000000E-02 0. -1.
    8880023    1    1    2    0    0 -0.12287840684E+04  0.31552307304E+02  0.64432730149E+03  0.15361880460E+04  0.65864270000E+03 0.  1.
    8880022    1    1    2    0    0  0.12287840684E+04 -0.31552307304E+02 -0.79712305106E+03  0.14729910544E+04  0.15294330000E+03 0.  0.
<mgrwt>
<rscale>  0 0.13538164E+04</rscale>
<asrwt>0</asrwt>
<pdfrwt beam="1">  1        2 0.24322883E+00 0.13945308E+04</pdfrwt>
<pdfrwt beam="2">  1       -2 0.21972180E+00 0.13945308E+04</pdfrwt>
<totfact> 0.10776239E+00</totfact>
</mgrwt>
</event>
<event>
 4    1  0.2051094E-007  0.7459783E+03  0.7818608E-02  0.9842863E-01
         -2   -1    0    0    0  501 -0.00000000000E+00  0.00000000000E+00  0.29642355892E+03  0.29642355893E+03  0.25500000000E-02 0.  1.
          2   -1    0    0  501    0  0.00000000000E+00 -0.00000000000E+00 -0.16316496173E+04  0.16316496173E+04  0.25500000000E-02 0. -1.
    8880023    1    1    2    0    0 -0.33452830486E+03 -0.10375112932E+03 -0.13534914187E+04  0.15454522672E+04  0.65864270000E+03 0.  0.
    8880022    1    1    2    0    0  0.33452830486E+03  0.10375112932E+03  0.18265360312E+02  0.38262090898E+03  0.15294330000E+03 0.  0.
<mgrwt>
<rscale>  0 0.63112152E+03</rscale>
<asrwt>0</asrwt>
<pdfrwt beam="1">  1        2 0.25102301E+00 0.74597834E+03</pdfrwt>
<pdfrwt beam="2">  1       -2 0.45603625E-01 0.74597834E+03</pdfrwt>
<totfact> 0.49996678E+01</totfact>
</mgrwt>
</event>
<event>
 4    1  0.2051094E-007  0.6819078E+03  0.7818608E-02  0.1008264E+00
          2   -1    0    0  501    0  0.00000000000E+00  0.00000000000E+00  0.32167387364E+04  0.32167387364E+04  0.25500000000E-02 0. -1.
         -2   -1    0    0    0  501 -0.00000000000E+00 -0.00000000000E+00 -0.36136023859E+03  0.36136023860E+03  0.25500000000E-02 0.  1.
    8880023    1    1    2    0    0  0.89827042977E+02  0.15204964603E+03  0.31381039192E+04  0.32113384136E+04  0.65864270000E+03 0. -1.
    8880022    1    1    2    0    0 -0.89827042977E+02 -0.15204964603E+03 -0.28272542139E+03  0.36676056143E+03  0.15294330000E+03 0.  0.
<mgrwt>
<rscale>  0 0.52170268E+03</rscale>
<asrwt>0</asrwt>
<pdfrwt beam="1">  1        2 0.49488288E+00 0.68190776E+03</pdfrwt>
<pdfrwt beam="2">  1       -2 0.55593883E-01 0.68190776E+03</pdfrwt>
<totfact> 0.41901353E+00</totfact>
</mgrwt>
</event>
<event>
 4    1  0.2051094E-007  0.7452283E+03  0.7818608E-02  0.9844971E-01
          2   -1    0    0  501    0  0.00000000000E+00  0.00000000000E+00  0.10509614826E+04  0.10509614826E+04  0.25500000000E-02 0. -1.
         -2   -1    0    0    0  501 -0.00000000000E+00 -0.00000000000E+00 -0.41379437635E+03  0.41379437636E+03  0.25500000000E-02 0.  1.
    8880023    1    1    2    0    0 -0.29696820006E+03  0.18266059457E+03  0.76029786013E+03  0.10646210814E+04  0.65864270000E+03 0.  0.
    8880022    1    1    2    0    0  0.29696820006E+03 -0.18266059457E+03 -0.12313075385E+03  0.40013477756E+03  0.15294330000E+03 0.  0.
<mgrwt>
<rscale>  0 0.63003986E+03</rscale>
<asrwt>0</asrwt>
<pdfrwt beam="1">  1        2 0.16168638E+00 0.74522829E+03</pdfrwt>
<pdfrwt beam="2">  1       -2 0.63660675E-01 0.74522829E+03</pdfrwt>
<totfact> 0.54234410E+01</totfact>
</mgrwt>
</event>
<event>
 4    1  0.2051094E-007  0.1796009E+04  0.7818608E-02  0.8724747E-01
         -2   -1    0    0    0  501 -0.00000000000E+00  0.00000000000E+00  0.13520239746E+04  0.13520239746E+04  0.25500000000E-02 0.  1.
          2   -1    0    0  501    0  0.00000000000E+00 -0.00000000000E+00 -0.40640423261E+04  0.40640423261E+04  0.25500000000E-02 0. -1.
    8880023    1    1    2    0    0  0.15649742037E+04  0.58540181836E+03 -0.31992383624E+04  0.36688930010E+04  0.65864270000E+03 0. -1.
    8880022    1    1    2    0    0 -0.15649742037E+04 -0.58540181836E+03  0.48722001094E+03  0.17471732997E+04  0.15294330000E+03 0.  0.
<mgrwt>
<rscale>  0 0.17657154E+04</rscale>
<asrwt>0</asrwt>
<pdfrwt beam="1">  1        2 0.62523728E+00 0.17960094E+04</pdfrwt>
<pdfrwt beam="2">  1       -2 0.20800369E+00 0.17960094E+04</pdfrwt>
<totfact> 0.32820691E-02</totfact>
</mgrwt>
</event>
<event>
 4    1  0.2051094E-007  0.7126441E+03  0.7818608E-02  0.9948310E-01
          2   -1    0    0  501    0  0.00000000000E+00  0.00000000000E+00  0.34588854998E+03  0.34588854999E+03  0.25500000000E-02 0. -1.
         -2   -1    0    0    0  501 -0.00000000000E+00 -0.00000000000E+00 -0.80462718040E+03  0.80462718041E+03  0.25500000000E-02 0.  1.
    8880023    1    1    2    0    0 -0.25174352487E+03  0.10332766845E+03 -0.18729951744E+03  0.73684647307E+03  0.65864270000E+03 0.  1.
    8880022    1    1    2    0    0  0.25174352487E+03 -0.10332766845E+03 -0.27143911298E+03  0.41366925732E+03  0.15294330000E+03 0.  0.
<mgrwt>
<rscale>  0 0.57976018E+03</rscale>
<asrwt>0</asrwt>
<pdfrwt beam="1">  1        2 0.53213623E-01 0.71264410E+03</pdfrwt>
<pdfrwt beam="2">  1       -2 0.12378880E+00 0.71264410E+03</pdfrwt>
<totfact> 0.46624954E+01</totfact>
</mgrwt>
</event>
<event>
 4    1  0.2304498E-007  0.8182117E+03  0.7818608E-02  0.9672719E-01
          2   -1    0    0  501    0  0.00000000000E+00  0.00000000000E+00  0.18847122772E+04  0.18847122772E+04  0.25500000000E-02 0. -1.
         -2   -1    0    0    0  501 -0.00000000000E+00 -0.00000000000E+00 -0.81289198230E+03  0.81289198230E+03  0.25500000000E-02 0.  1.
    8880023    1    1    2    0    0  0.17761171801E+03 -0.45179005998E+03  0.17014626322E+04  0.18879739076E+04  0.65864270000E+03 0. -1.
    8880022    1    1    2    0    0 -0.17761171801E+03  0.45179005998E+03 -0.62964233735E+03  0.80963035187E+03  0.15294330000E+03 0.  0.
<mgrwt>
<rscale>  0 0.72664552E+03</rscale>
<asrwt>0</asrwt>
<pdfrwt beam="1">  1        2 0.28995573E+00 0.81821170E+03</pdfrwt>
<pdfrwt beam="2">  1       -2 0.12506031E+00 0.81821170E+03</pdfrwt>
<totfact> 0.37918229E+00</totfact>
</mgrwt>
</event>
<event>
 4    1  0.2051094E-007  0.8789913E+03  0.7818608E-02  0.9560636E-01
          2   -1    0    0  501    0  0.00000000000E+00  0.00000000000E+00  0.36442839819E+03  0.36442839820E+03  0.25500000000E-02 0. -1.
         -2   -1    0    0    0  501 -0.00000000000E+00 -0.00000000000E+00 -0.47101161731E+04  0.47101161731E+04  0.25500000000E-02 0.  1.
    8880023    1    1    2    0    0 -0.51217652982E+03  0.27656944944E+03 -0.22122420519E+03  0.90640267723E+03  0.65864270000E+03 0. -1.
    8880022    1    1    2    0    0  0.51217652982E+03 -0.27656944944E+03 -0.41244635697E+04  0.41681418941E+04  0.15294330000E+03 0.  0.
<mgrwt>
<rscale>  0 0.79957286E+03</rscale>
<asrwt>0</asrwt>
<pdfrwt beam="1">  1        2 0.56065911E-01 0.87899128E+03</pdfrwt>
<pdfrwt beam="2">  1       -2 0.72463322E+00 0.87899128E+03</pdfrwt>
<totfact> 0.17060709E-02</totfact>
</mgrwt>
</event>
<event>
 4    1  0.2051094E-007  0.6592865E+03  0.7818608E-02  0.1024900E+00
          2   -1    0    0  501    0  0.00000000000E+00  0.00000000000E+00  0.17700686431E+04  0.17700686431E+04  0.25500000000E-02 0. -1.
         -2   -1    0    0    0  501 -0.00000000000E+00 -0.00000000000E+00 -0.12877058618E+03  0.12877058621E+03  0.25500000000E-02 0.  1.
    8880023    1    1    2    0    0  0.10684094071E+02 -0.27099411732E+02  0.16103752207E+04  0.17401054812E+04  0.65864270000E+03 0. -1.
    8880022    1    1    2    0    0 -0.10684094071E+02  0.27099411732E+02  0.30922836249E+02  0.15873374814E+03  0.15294330000E+03 0.  0.
<mgrwt>
<rscale>  0 0.45959219E+03</rscale>
<asrwt>0</asrwt>
<pdfrwt beam="1">  1        2 0.27231822E+00 0.65928653E+03</pdfrwt>
<pdfrwt beam="2">  1       -2 0.19810862E-01 0.65928653E+03</pdfrwt>
<totfact> 0.19987494E+02</totfact>
</mgrwt>
</event>
<event>
 4    1  0.2051094E-007  0.7578904E+03  0.7818608E-02  0.9810600E-01
          2   -1    0    0  501    0  0.00000000000E+00  0.00000000000E+00  0.33284271336E+04  0.33284271336E+04  0.25500000000E-02 0. -1.
         -2   -1    0    0    0  501 -0.00000000000E+00 -0.00000000000E+00 -0.58210532722E+03  0.58210532723E+03  0.25500000000E-02 0.  1.
    8880023    1    1    2    0    0 -0.34489317796E+03 -0.14709282266E+03  0.32080673996E+04  0.32963759266E+04  0.65864270000E+03 0. -1.
    8880022    1    1    2    0    0  0.34489317796E+03  0.14709282266E+03 -0.46174559322E+03  0.61415653425E+03  0.15294330000E+03 0.  0.
<mgrwt>
<rscale>  0 0.64796777E+03</rscale>
<asrwt>0</asrwt>
<pdfrwt beam="1">  1        2 0.51206571E+00 0.75789037E+03</pdfrwt>
<pdfrwt beam="2">  1       -2 0.89554667E-01 0.75789037E+03</pdfrwt>
<totfact> 0.12295829E+00</totfact>
</mgrwt>
</event>
<event>
 4    1  0.2051094E-007  0.8048540E+03  0.7818608E-02  0.9700397E-01
         -2   -1    0    0    0  501 -0.00000000000E+00  0.00000000000E+00  0.10741223738E+04  0.10741223738E+04  0.25500000000E-02 0.  1.
          2   -1    0    0  501    0  0.00000000000E+00 -0.00000000000E+00 -0.12312699933E+04  0.12312699933E+04  0.25500000000E-02 0. -1.
    8880023    1    1    2    0    0  0.71036409939E+01 -0.46252498233E+03 -0.10291585141E+04  0.13065057498E+04  0.65864270000E+03 0.  0.
    8880022    1    1    2    0    0 -0.71036409939E+01  0.46252498233E+03  0.87201089456E+03  0.99888661731E+03  0.15294330000E+03 0.  0.
<mgrwt>
<rscale>  0 0.70993144E+03</rscale>
<asrwt>0</asrwt>
<pdfrwt beam="1">  1        2 0.18942615E+00 0.80485404E+03</pdfrwt>
<pdfrwt beam="2">  1       -2 0.16524960E+00 0.80485404E+03</pdfrwt>
<totfact> 0.42470004E+00</totfact>
</mgrwt>
</event>
<event>
 4    1  0.2051094E-007  0.7089079E+03  0.7818608E-02  0.9962079E-01
         -2   -1    0    0    0  501 -0.00000000000E+00  0.00000000000E+00  0.37473134652E+03  0.37473134652E+03  0.25500000000E-02 0.  1.
          2   -1    0    0  501    0  0.00000000000E+00 -0.00000000000E+00 -0.20207839508E+04  0.20207839508E+04  0.25500000000E-02 0. -1.
    8880023    1    1    2    0    0  0.25478783474E+03 -0.61833267925E+02 -0.18819844137E+04  0.20110732790E+04  0.65864270000E+03 0.  0.
    8880022    1    1    2    0    0 -0.25478783474E+03  0.61833267925E+02  0.23593180942E+03  0.38444201834E+03  0.15294330000E+03 0.  0.
<mgrwt>
<rscale>  0 0.57344739E+03</rscale>
<asrwt>0</asrwt>
<pdfrwt beam="1">  1        2 0.31088983E+00 0.70890789E+03</pdfrwt>
<pdfrwt beam="2">  1       -2 0.57650978E-01 0.70890789E+03</pdfrwt>
<totfact> 0.19076429E+01</totfact>
</mgrwt>
</event>
<event>
 4    1  0.2051094E-007  0.1160549E+04  0.7818608E-02  0.9196459E-01
         -2   -1    0    0    0  501 -0.00000000000E+00  0.00000000000E+00  0.87573678573E+03  0.87573678573E+03  0.25500000000E-02 0.  1.
          2   -1    0    0  501    0  0.00000000000E+00 -0.00000000000E+00 -0.23373877095E+04  0.23373877096E+04  0.25500000000E-02 0. -1.
    8880023    1    1    2    0    0  0.35385961511E+03  0.88760799336E+03  0.30397381966E+03  0.11996978229E+04  0.65864270000E+03 0.  0.
    8880022    1    1    2    0    0 -0.35385961511E+03 -0.88760799336E+03 -0.17656247435E+04  0.20134266723E+04  0.15294330000E+03 0.  0.
<mgrwt>
<rscale>  0 0.11090054E+04</rscale>
<asrwt>0</asrwt>
<pdfrwt beam="1">  1        2 0.35959811E+00 0.11605493E+04</pdfrwt>
<pdfrwt beam="2">  1       -2 0.13472874E+00 0.11605493E+04</pdfrwt>
<totfact> 0.16812113E+00</totfact>
</mgrwt>
</event>
<event>
 4    1  0.2051094E-007  0.1004865E+04  0.7818608E-02  0.9375221E-01
          2   -1    0    0  501    0  0.00000000000E+00  0.00000000000E+00  0.23731267994E+04  0.23731267994E+04  0.25500000000E-02 0. -1.
         -2   -1    0    0    0  501 -0.00000000000E+00 -0.00000000000E+00 -0.70165253271E+03  0.70165253272E+03  0.25500000000E-02 0.  1.
    8880023    1    1    2    0    0  0.74755789777E+03  0.13076605135E+03  0.19965234808E+04  0.22351417821E+04  0.65864270000E+03 0.  0.
    8880022    1    1    2    0    0 -0.74755789777E+03 -0.13076605135E+03 -0.32504921411E+03  0.83963754996E+03  0.15294330000E+03 0.  0.
<mgrwt>
<rscale>  0 0.94143270E+03</rscale>
<asrwt>0</asrwt>
<pdfrwt beam="1">  1        2 0.36509643E+00 0.10048646E+04</pdfrwt>
<pdfrwt beam="2">  1       -2 0.10794654E+00 0.10048646E+04</pdfrwt>
<totfact> 0.28465849E+00</totfact>
</mgrwt>
</event>
<event>
 4    1  0.2051094E-007  0.7994071E+03  0.7818608E-02  0.9712080E-01
          2   -1    0    0  501    0  0.00000000000E+00  0.00000000000E+00  0.10212614465E+04  0.10212614465E+04  0.25500000000E-02 0. -1.
         -2   -1    0    0    0  501 -0.00000000000E+00 -0.00000000000E+00 -0.63383305494E+03  0.63383305495E+03  0.25500000000E-02 0.  1.
    8880023    1    1    2    0    0  0.43758885883E+02 -0.45091751498E+03  0.71741913853E+03  0.10741237694E+04  0.65864270000E+03 0.  0.
    8880022    1    1    2    0    0 -0.43758885883E+02  0.45091751498E+03 -0.32999074697E+03  0.58097073206E+03  0.15294330000E+03 0.  0.
<mgrwt>
<rscale>  0 0.70302112E+03</rscale>
<asrwt>0</asrwt>
<pdfrwt beam="1">  1        2 0.15711714E+00 0.79940706E+03</pdfrwt>
<pdfrwt beam="2">  1       -2 0.97512779E-01 0.79940706E+03</pdfrwt>
<totfact> 0.21648679E+01</totfact>
</mgrwt>
</event>
<event>
 4    1  0.2051094E-007  0.1876180E+04  0.7818608E-02  0.8681527E-01
          2   -1    0    0  501    0  0.00000000000E+00  0.00000000000E+00  0.72751979889E+03  0.72751979889E+03  0.25500000000E-02 0. -1.
         -2   -1    0    0    0  501 -0.00000000000E+00 -0.00000000000E+00 -0.48298453224E+04  0.48298453224E+04  0.25500000000E-02 0.  1.
    8880023    1    1    2    0    0  0.17132774272E+04  0.38848645061E+03 -0.14448880519E+04  0.23680694571E+04  0.65864270000E+03 0.  0.
    8880022    1    1    2    0    0 -0.17132774272E+04 -0.38848645061E+03 -0.26574374716E+04  0.31892956642E+04  0.15294330000E+03 0.  0.
<mgrwt>
<rscale>  0 0.18473302E+04</rscale>
<asrwt>0</asrwt>
<pdfrwt beam="1">  1        2 0.11192613E+00 0.18761800E+04</pdfrwt>
<pdfrwt beam="2">  1       -2 0.74305311E+00 0.18761800E+04</pdfrwt>
<totfact> 0.54985496E-03</totfact>
</mgrwt>
</event>
<event>
 4    1  0.2051094E-007  0.8411641E+03  0.7818608E-02  0.9627989E-01
         -2   -1    0    0    0  501 -0.00000000000E+00  0.00000000000E+00  0.12740972953E+04  0.12740972953E+04  0.25500000000E-02 0.  1.
          2   -1    0    0  501    0  0.00000000000E+00 -0.00000000000E+00 -0.76878164383E+03  0.76878164383E+03  0.25500000000E-02 0. -1.
    8880023    1    1    2    0    0 -0.40869453510E+03  0.32667362449E+03 -0.44177826724E+03  0.95011847873E+03  0.65864270000E+03 0. -1.
    8880022    1    1    2    0    0  0.40869453510E+03 -0.32667362449E+03  0.94709391870E+03  0.10927604604E+04  0.15294330000E+03 0.  0.
<mgrwt>
<rscale>  0 0.75471056E+03</rscale>
<asrwt>0</asrwt>
<pdfrwt beam="1">  1        2 0.11827410E+00 0.84116413E+03</pdfrwt>
<pdfrwt beam="2">  1       -2 0.19601497E+00 0.84116413E+03</pdfrwt>
<totfact> 0.51799879E+00</totfact>
</mgrwt>
</event>
<event>
 4    1  0.2051094E-007  0.7752555E+03  0.7818608E-02  0.9767102E-01
          2   -1    0    0  501    0  0.00000000000E+00  0.00000000000E+00  0.43440003844E+04  0.43440003844E+04  0.25500000000E-02 0. -1.
         -2   -1    0    0    0  501 -0.00000000000E+00 -0.00000000000E+00 -0.55527012622E+03  0.55527012622E+03  0.25500000000E-02 0.  1.
    8880023    1    1    2    0    0  0.35692371607E+03 -0.19954018816E+03  0.42170185980E+04  0.42876878254E+04  0.65864270000E+03 0.  0.
    8880022    1    1    2    0    0 -0.35692371607E+03  0.19954018816E+03 -0.42828833985E+03  0.61158268521E+03  0.15294330000E+03 0.  0.
<mgrwt>
<rscale>  0 0.67158300E+03</rscale>
<asrwt>0</asrwt>
<pdfrwt beam="1">  1        2 0.66830776E+00 0.77525546E+03</pdfrwt>
<pdfrwt beam="2">  1       -2 0.85426172E-01 0.77525546E+03</pdfrwt>
<totfact> 0.23211511E-01</totfact>
</mgrwt>
</event>
<event>
 4    1  0.2051094E-007  0.1350681E+04  0.7818608E-02  0.9022984E-01
          2   -1    0    0  501    0  0.00000000000E+00  0.00000000000E+00  0.32024025754E+04  0.32024025754E+04  0.25500000000E-02 0. -1.
         -2   -1    0    0    0  501 -0.00000000000E+00 -0.00000000000E+00 -0.73476442820E+03  0.73476442821E+03  0.25500000000E-02 0.  1.
    8880023    1    1    2    0    0  0.11627612532E+04  0.19625620620E+03  0.23903634879E+04  0.27455742643E+04  0.65864270000E+03 0.  0.
    8880022    1    1    2    0    0 -0.11627612532E+04 -0.19625620620E+03  0.77274659319E+02  0.11915927393E+04  0.15294330000E+03 0.  0.
<mgrwt>
<rscale>  0 0.13083318E+04</rscale>
<asrwt>0</asrwt>
<pdfrwt beam="1">  1        2 0.49267732E+00 0.13506815E+04</pdfrwt>
<pdfrwt beam="2">  1       -2 0.11304068E+00 0.13506815E+04</pdfrwt>
<totfact> 0.77293314E-01</totfact>
</mgrwt>
</event>
<event>
 4    1  0.2051094E-007  0.7657180E+03  0.7818608E-02  0.9790523E-01
          2   -1    0    0  501    0  0.00000000000E+00  0.00000000000E+00  0.26131623019E+04  0.26131623019E+04  0.25500000000E-02 0. -1.
         -2   -1    0    0    0  501 -0.00000000000E+00 -0.00000000000E+00 -0.33671588096E+03  0.33671588097E+03  0.25500000000E-02 0.  1.
    8880023    1    1    2    0    0  0.26196657466E+03  0.28963302734E+03  0.23946778003E+04  0.25141212680E+04  0.65864270000E+03 0.  0.
    8880022    1    1    2    0    0 -0.26196657466E+03 -0.28963302734E+03 -0.11823137937E+03  0.43575691486E+03  0.15294330000E+03 0.  0.
<mgrwt>
<rscale>  0 0.65873620E+03</rscale>
<asrwt>0</asrwt>
<pdfrwt beam="1">  1        2 0.40202497E+00 0.76571795E+03</pdfrwt>
<pdfrwt beam="2">  1       -2 0.51802443E-01 0.76571795E+03</pdfrwt>
<totfact> 0.11032744E+01</totfact>
</mgrwt>
</event>
<event>
 4    1  0.2051094E-007  0.8503583E+03  0.7818608E-02  0.9610950E-01
          2   -1    0    0  501    0  0.00000000000E+00  0.00000000000E+00  0.74885111585E+03  0.74885111585E+03  0.25500000000E-02 0. -1.
         -2   -1    0    0    0  501 -0.00000000000E+00 -0.00000000000E+00 -0.12492404847E+04  0.12492404847E+04  0.25500000000E-02 0.  1.
    8880023    1    1    2    0    0 -0.53786518404E+03 -0.20109190932E+00  0.39878456662E+03  0.93922219601E+03  0.65864270000E+03 0. -1.
    8880022    1    1    2    0    0  0.53786518404E+03  0.20109190932E+00 -0.89917393551E+03  0.10588694046E+04  0.15294330000E+03 0.  0.
<mgrwt>
<rscale>  0 0.76575673E+03</rscale>
<asrwt>0</asrwt>
<pdfrwt beam="1">  1        2 0.11520786E+00 0.85035828E+03</pdfrwt>
<pdfrwt beam="2">  1       -2 0.19219084E+00 0.85035828E+03</pdfrwt>
<totfact> 0.56761722E+00</totfact>
</mgrwt>
</event>
<event>
 4    1  0.2051094E-007  0.8260755E+03  0.7818608E-02  0.9657017E-01
         -2   -1    0    0    0  501 -0.00000000000E+00  0.00000000000E+00  0.58872190276E+03  0.58872190277E+03  0.25500000000E-02 0.  1.
          2   -1    0    0  501    0  0.00000000000E+00 -0.00000000000E+00 -0.87010297879E+03  0.87010297880E+03  0.25500000000E-02 0. -1.
    8880023    1    1    2    0    0  0.48295303677E+03 -0.12388253249E+03  0.71457723237E+02  0.82916037656E+03  0.65864270000E+03 0.  0.
    8880022    1    1    2    0    0 -0.48295303677E+03  0.12388253249E+03 -0.35283879927E+03  0.62966450501E+03  0.15294330000E+03 0.  0.
<mgrwt>
<rscale>  0 0.73634672E+03</rscale>
<asrwt>0</asrwt>
<pdfrwt beam="1">  1        2 0.13386200E+00 0.82607550E+03</pdfrwt>
<pdfrwt beam="2">  1       -2 0.90572600E-01 0.82607550E+03</pdfrwt>
<totfact> 0.32267672E+01</totfact>
</mgrwt>
</event>
<event>
 4    1  0.2051094E-007  0.8122199E+03  0.7818608E-02  0.9684971E-01
         -2   -1    0    0    0  501 -0.00000000000E+00  0.00000000000E+00  0.66988745398E+03  0.66988745399E+03  0.25500000000E-02 0.  1.
          2   -1    0    0  501    0  0.00000000000E+00 -0.00000000000E+00 -0.76818378259E+03  0.76818378259E+03  0.25500000000E-02 0. -1.
    8880023    1    1    2    0    0 -0.81033649731E+02  0.46832088681E+03 -0.34344939425E+03  0.88184953256E+03  0.65864270000E+03 0.  0.
    8880022    1    1    2    0    0  0.81033649731E+02 -0.46832088681E+03  0.24515306564E+03  0.55622170402E+03  0.15294330000E+03 0.  0.
<mgrwt>
<rscale>  0 0.71918677E+03</rscale>
<asrwt>0</asrwt>
<pdfrwt beam="1">  1        2 0.11818212E+00 0.81221987E+03</pdfrwt>
<pdfrwt beam="2">  1       -2 0.10305961E+00 0.81221987E+03</pdfrwt>
<totfact> 0.28178976E+01</totfact>
</mgrwt>
</event>
<event>
 4    1  0.2051094E-007  0.8677170E+03  0.7818608E-02  0.9579981E-01
         -2   -1    0    0    0  501 -0.00000000000E+00  0.00000000000E+00  0.66480957393E+03  0.66480957394E+03  0.25500000000E-02 0.  1.
          2   -1    0    0  501    0  0.00000000000E+00 -0.00000000000E+00 -0.89440077159E+03  0.89440077160E+03  0.25500000000E-02 0. -1.
    8880023    1    1    2    0    0  0.24008794878E+03  0.51135154969E+03 -0.39154706727E+03  0.95196740631E+03  0.65864270000E+03 0. -1.
    8880022    1    1    2    0    0 -0.24008794878E+03 -0.51135154969E+03  0.16195586961E+03  0.60724293922E+03  0.15294330000E+03 0.  0.
<mgrwt>
<rscale>  0 0.78635459E+03</rscale>
<asrwt>0</asrwt>
<pdfrwt beam="1">  1        2 0.13760012E+00 0.86771703E+03</pdfrwt>
<pdfrwt beam="2">  1       -2 0.10227840E+00 0.86771703E+03</pdfrwt>
<totfact> 0.23259216E+01</totfact>
</mgrwt>
</event>
<event>
 4    1  0.2051094E-007  0.9043674E+03  0.7818608E-02  0.9519057E-01
         -2   -1    0    0    0  501 -0.00000000000E+00  0.00000000000E+00  0.76037475525E+03  0.76037475525E+03  0.25500000000E-02 0.  1.
          2   -1    0    0  501    0  0.00000000000E+00 -0.00000000000E+00 -0.24343470823E+04  0.24343470823E+04  0.25500000000E-02 0. -1.
    8880023    1    1    2    0    0 -0.61968753382E+03 -0.75825126983E+01 -0.21929066885E+04  0.23720708431E+04  0.65864270000E+03 0.  0.
    8880022    1    1    2    0    0  0.61968753382E+03  0.75825126983E+01  0.51893436147E+03  0.82265099440E+03  0.15294330000E+03 0.  0.
<mgrwt>
<rscale>  0 0.82893318E+03</rscale>
<asrwt>0</asrwt>
<pdfrwt beam="1">  1        2 0.37451493E+00 0.90436737E+03</pdfrwt>
<pdfrwt beam="2">  1       -2 0.11698073E+00 0.90436737E+03</pdfrwt>
<totfact> 0.21927493E+00</totfact>
</mgrwt>
</event>
<event>
 4    1  0.2051094E-007  0.6626066E+03  0.7818608E-02  0.1021632E+00
         -2   -1    0    0    0  501 -0.00000000000E+00  0.00000000000E+00  0.43602273688E+03  0.43602273688E+03  0.25500000000E-02 0.  1.
          2   -1    0    0  501    0  0.00000000000E+00 -0.00000000000E+00 -0.34714612086E+04  0.34714612086E+04  0.25500000000E-02 0. -1.
    8880023    1    1    2    0    0  0.44819932568E+02 -0.56819554243E+02 -0.34219754609E+04  0.34855363360E+04  0.65864270000E+03 0. -1.
    8880022    1    1    2    0    0 -0.44819932568E+02  0.56819554243E+02  0.38653698921E+03  0.42194760948E+03  0.15294330000E+03 0.  0.
<mgrwt>
<rscale>  0 0.47102339E+03</rscale>
<asrwt>0</asrwt>
<pdfrwt beam="1">  1        2 0.53407094E+00 0.66260659E+03</pdfrwt>
<pdfrwt beam="2">  1       -2 0.67080423E-01 0.66260659E+03</pdfrwt>
<totfact> 0.19258804E+00</totfact>
</mgrwt>
</event>
<event>
 4    1  0.2051094E-007  0.6736900E+03  0.7818608E-02  0.1013145E+00
         -2   -1    0    0    0  501 -0.00000000000E+00  0.00000000000E+00  0.29255772908E+03  0.29255772909E+03  0.25500000000E-02 0.  1.
          2   -1    0    0  501    0  0.00000000000E+00 -0.00000000000E+00 -0.21847016384E+04  0.21847016384E+04  0.25500000000E-02 0. -1.
    8880023    1    1    2    0    0 -0.14144309310E+03 -0.64723892572E+01 -0.20863248337E+04  0.21923981296E+04  0.65864270000E+03 0. -1.
    8880022    1    1    2    0    0  0.14144309310E+03  0.64723892572E+01  0.19418092446E+03  0.28486123788E+03  0.15294330000E+03 0.  0.
<mgrwt>
<rscale>  0 0.50243621E+03</rscale>
<asrwt>0</asrwt>
<pdfrwt beam="1">  1        2 0.33610793E+00 0.67369002E+03</pdfrwt>
<pdfrwt beam="2">  1       -2 0.45008883E-01 0.67369002E+03</pdfrwt>
<totfact> 0.25861796E+01</totfact>
</mgrwt>
</event>
<event>
 4    1  0.2051094E-007  0.7068033E+03  0.7818608E-02  0.9970069E-01
         -2   -1    0    0    0  501 -0.00000000000E+00  0.00000000000E+00  0.11261544704E+04  0.11261544704E+04  0.25500000000E-02 0.  1.
          2   -1    0    0  501    0  0.00000000000E+00 -0.00000000000E+00 -0.78308249669E+03  0.78308249670E+03  0.25500000000E-02 0. -1.
    8880023    1    1    2    0    0 -0.10947930520E+02  0.25620469840E+03 -0.59555707936E+03  0.92426140550E+03  0.65864270000E+03 0. -1.
    8880022    1    1    2    0    0  0.10947930520E+02 -0.25620469840E+03  0.93862905309E+03  0.98497556161E+03  0.15294330000E+03 0.  0.
<mgrwt>
<rscale>  0 0.56982373E+03</rscale>
<asrwt>0</asrwt>
<pdfrwt beam="1">  1        2 0.12047423E+00 0.70680330E+03</pdfrwt>
<pdfrwt beam="2">  1       -2 0.17325453E+00 0.70680330E+03</pdfrwt>
<totfact> 0.73318219E+00</totfact>
</mgrwt>
</event>
<event>
 4    1  0.2051094E-007  0.8629597E+03  0.7818608E-02  0.9588320E-01
          2   -1    0    0  501    0  0.00000000000E+00  0.00000000000E+00  0.73387449949E+03  0.73387449950E+03  0.25500000000E-02 0. -1.
         -2   -1    0    0    0  501 -0.00000000000E+00 -0.00000000000E+00 -0.94785659394E+03  0.94785659395E+03  0.25500000000E-02 0.  1.
    8880023    1    1    2    0    0 -0.33112609863E+02  0.55659038062E+03 -0.53998990715E+03  0.10179826142E+04  0.65864270000E+03 0.  0.
    8880022    1    1    2    0    0  0.33112609863E+02 -0.55659038062E+03  0.32600781271E+03  0.66374847924E+03  0.15294330000E+03 0.  0.
<mgrwt>
<rscale>  0 0.78074076E+03</rscale>
<asrwt>0</asrwt>
<pdfrwt beam="1">  1        2 0.11290377E+00 0.86295973E+03</pdfrwt>
<pdfrwt beam="2">  1       -2 0.14582409E+00 0.86295973E+03</pdfrwt>
<totfact> 0.12502194E+01</totfact>
</mgrwt>
</event>
<event>
 4    1  0.2051094E-007  0.7433870E+03  0.7818608E-02  0.9850188E-01
         -2   -1    0    0    0  501 -0.00000000000E+00  0.00000000000E+00  0.21705872192E+03  0.21705872193E+03  0.25500000000E-02 0.  1.
          2   -1    0    0  501    0  0.00000000000E+00 -0.00000000000E+00 -0.39839018469E+04  0.39839018469E+04  0.25500000000E-02 0. -1.
    8880023    1    1    2    0    0 -0.32058349188E+03 -0.12665036707E+03 -0.37505438708E+04  0.38235067181E+04  0.65864270000E+03 0. -1.
    8880022    1    1    2    0    0  0.32058349188E+03  0.12665036707E+03 -0.16299254261E+02  0.37745385075E+03  0.15294330000E+03 0.  0.
<mgrwt>
<rscale>  0 0.62737309E+03</rscale>
<asrwt>0</asrwt>
<pdfrwt beam="1">  1        2 0.61290792E+00 0.74338704E+03</pdfrwt>
<pdfrwt beam="2">  1       -2 0.33393652E-01 0.74338704E+03</pdfrwt>
<totfact> 0.32717046E+00</totfact>
</mgrwt>
</event>
<event>
 4    1  0.2051094E-007  0.7563948E+03  0.7818608E-02  0.9814532E-01
         -2   -1    0    0    0  501 -0.00000000000E+00  0.00000000000E+00  0.36831578413E+03  0.36831578414E+03  0.25500000000E-02 0.  1.
          2   -1    0    0  501    0  0.00000000000E+00 -0.00000000000E+00 -0.33068440300E+04  0.33068440300E+04  0.25500000000E-02 0. -1.
    8880023    1    1    2    0    0 -0.35477934329E+03 -0.11159982253E+03 -0.31368649542E+04  0.32267715832E+04  0.65864270000E+03 0. -1.
    8880022    1    1    2    0    0  0.35477934329E+03  0.11159982253E+03  0.19833670831E+03  0.44838823099E+03  0.15294330000E+03 0.  0.
<mgrwt>
<rscale>  0 0.64588477E+03</rscale>
<asrwt>0</asrwt>
<pdfrwt beam="1">  1        2 0.50874522E+00 0.75639481E+03</pdfrwt>
<pdfrwt beam="2">  1       -2 0.56663969E-01 0.75639481E+03</pdfrwt>
<totfact> 0.34670064E+00</totfact>
</mgrwt>
</event>
<event>
 4    1  0.2051094E-007  0.6842820E+03  0.7818608E-02  0.1006998E+00
         -2   -1    0    0    0  501 -0.00000000000E+00  0.00000000000E+00  0.36201013355E+03  0.36201013356E+03  0.25500000000E-02 0.  1.
          2   -1    0    0  501    0  0.00000000000E+00 -0.00000000000E+00 -0.10999796771E+04  0.10999796771E+04  0.25500000000E-02 0. -1.
    8880023    1    1    2    0    0  0.77038665921E+02 -0.16880970592E+03 -0.92974818996E+03  0.11544148197E+04  0.65864270000E+03 0. -1.
    8880022    1    1    2    0    0 -0.77038665921E+02  0.16880970592E+03  0.19177864640E+03  0.30757499100E+03  0.15294330000E+03 0.  0.
<mgrwt>
<rscale>  0 0.52685272E+03</rscale>
<asrwt>0</asrwt>
<pdfrwt beam="1">  1        2 0.16922764E+00 0.68428202E+03</pdfrwt>
<pdfrwt beam="2">  1       -2 0.55693867E-01 0.68428202E+03</pdfrwt>
<totfact> 0.67421602E+01</totfact>
</mgrwt>
</event>
<event>
 4    1  0.2051094E-007  0.8032107E+03  0.7818608E-02  0.9703896E-01
          2   -1    0    0  501    0  0.00000000000E+00  0.00000000000E+00  0.93427284855E+03  0.93427284855E+03  0.25500000000E-02 0. -1.
         -2   -1    0    0    0  501 -0.00000000000E+00 -0.00000000000E+00 -0.50900813701E+03  0.50900813701E+03  0.25500000000E-02 0.  1.
    8880023    1    1    2    0    0 -0.25902818266E+02  0.45898402616E+03  0.50999091272E+03  0.95144008197E+03  0.65864270000E+03 0.  0.
    8880022    1    1    2    0    0  0.25902818266E+02 -0.45898402616E+03 -0.84726201172E+02  0.49184090359E+03  0.15294330000E+03 0.  0.
<mgrwt>
<rscale>  0 0.70785281E+03</rscale>
<asrwt>0</asrwt>
<pdfrwt beam="1">  1        2 0.14373428E+00 0.80321074E+03</pdfrwt>
<pdfrwt beam="2">  1       -2 0.78308946E-01 0.80321074E+03</pdfrwt>
<totfact> 0.40753319E+01</totfact>
</mgrwt>
</event>
<event>
 4    1  0.2051094E-007  0.1052453E+04  0.7818608E-02  0.9315939E-01
          2   -1    0    0  501    0  0.00000000000E+00  0.00000000000E+00  0.15617890151E+04  0.15617890151E+04  0.25500000000E-02 0. -1.
         -2   -1    0    0    0  501 -0.00000000000E+00 -0.00000000000E+00 -0.98395956022E+03  0.98395956022E+03  0.25500000000E-02 0.  1.
    8880023    1    1    2    0    0 -0.46933810399E+03 -0.67347500451E+03  0.11303760220E+04  0.15444762850E+04  0.65864270000E+03 0.  0.
    8880022    1    1    2    0    0  0.46933810399E+03  0.67347500451E+03 -0.55254656710E+03  0.10012722903E+04  0.15294330000E+03 0.  0.
<mgrwt>
<rscale>  0 0.99328679E+03</rscale>
<asrwt>0</asrwt>
<pdfrwt beam="1">  1        2 0.24027523E+00 0.10524529E+04</pdfrwt>
<pdfrwt beam="2">  1       -2 0.15137839E+00 0.10524529E+04</pdfrwt>
<totfact> 0.33817222E+00</totfact>
</mgrwt>
</event>
<event>
 4    1  0.2051094E-007  0.9691231E+03  0.7818608E-02  0.9423118E-01
          2   -1    0    0  501    0  0.00000000000E+00  0.00000000000E+00  0.30168626251E+04  0.30168626251E+04  0.25500000000E-02 0. -1.
         -2   -1    0    0    0  501 -0.00000000000E+00 -0.00000000000E+00 -0.46331542240E+03  0.46331542241E+03  0.25500000000E-02 0.  1.
    8880023    1    1    2    0    0 -0.58275099032E+03  0.40717391267E+03  0.25764041788E+04  0.27526456384E+04  0.65864270000E+03 0.  0.
    8880022    1    1    2    0    0  0.58275099032E+03 -0.40717391267E+03 -0.22856976112E+02  0.72753240908E+03  0.15294330000E+03 0.  0.
<mgrwt>
<rscale>  0 0.90197328E+03</rscale>
<asrwt>0</asrwt>
<pdfrwt beam="1">  1        2 0.46413273E+00 0.96912307E+03</pdfrwt>
<pdfrwt beam="2">  1       -2 0.71279293E-01 0.96912307E+03</pdfrwt>
<totfact> 0.31183321E+00</totfact>
</mgrwt>
</event>
<event>
 4    1  0.2051094E-007  0.9526078E+03  0.7818608E-02  0.9446372E-01
          2   -1    0    0  501    0  0.00000000000E+00  0.00000000000E+00  0.11747156721E+04  0.11747156721E+04  0.25500000000E-02 0. -1.
         -2   -1    0    0    0  501 -0.00000000000E+00 -0.00000000000E+00 -0.80945612822E+03  0.80945612822E+03  0.25500000000E-02 0.  1.
    8880023    1    1    2    0    0  0.50318008150E+03  0.46953295521E+03  0.72080473022E+03  0.11945798658E+04  0.65864270000E+03 0.  0.
    8880022    1    1    2    0    0 -0.50318008150E+03 -0.46953295521E+03 -0.35554518636E+03  0.78959193449E+03  0.15294330000E+03 0.  0.
<mgrwt>
<rscale>  0 0.88355756E+03</rscale>
<asrwt>0</asrwt>
<pdfrwt beam="1">  1        2 0.18072549E+00 0.95260779E+03</pdfrwt>
<pdfrwt beam="2">  1       -2 0.12453171E+00 0.95260779E+03</pdfrwt>
<totfact> 0.94646449E+00</totfact>
</mgrwt>
</event>
<event>
 4    1  0.2051094E-007  0.7515722E+03  0.7818608E-02  0.9827436E-01
         -2   -1    0    0    0  501 -0.00000000000E+00  0.00000000000E+00  0.15365829801E+04  0.15365829801E+04  0.25500000000E-02 0.  1.
          2   -1    0    0  501    0  0.00000000000E+00 -0.00000000000E+00 -0.11005465155E+04  0.11005465155E+04  0.25500000000E-02 0. -1.
    8880023    1    1    2    0    0  0.25072208744E+03 -0.26113025011E+03 -0.94146555631E+03  0.12046651703E+04  0.65864270000E+03 0. -1.
    8880022    1    1    2    0    0 -0.25072208744E+03  0.26113025011E+03  0.13775020209E+04  0.14324643253E+04  0.15294330000E+03 0.  0.
<mgrwt>
<rscale>  0 0.63910732E+03</rscale>
<asrwt>0</asrwt>
<pdfrwt beam="1">  1        2 0.16931485E+00 0.75157220E+03</pdfrwt>
<pdfrwt beam="2">  1       -2 0.23639738E+00 0.75157220E+03</pdfrwt>
<totfact> 0.17523078E+00</totfact>
</mgrwt>
</event>
<event>
 4    1  0.2051094E-007  0.1048545E+04  0.7818608E-02  0.9320633E-01
         -2   -1    0    0    0  501 -0.00000000000E+00  0.00000000000E+00  0.22958265730E+04  0.22958265730E+04  0.25500000000E-02 0.  1.
          2   -1    0    0  501    0  0.00000000000E+00 -0.00000000000E+00 -0.12387388508E+04  0.12387388508E+04  0.25500000000E-02 0. -1.
    8880023    1    1    2    0    0 -0.50964986315E+03 -0.63709716293E+03 -0.91706323746E+03  0.13930007056E+04  0.65864270000E+03 0. -1.
    8880022    1    1    2    0    0  0.50964986315E+03  0.63709716293E+03  0.19741509596E+04  0.21415647182E+04  0.15294330000E+03 0.  0.
<mgrwt>
<rscale>  0 0.98905348E+03</rscale>
<asrwt>0</asrwt>
<pdfrwt beam="1">  1        2 0.19057521E+00 0.10485447E+04</pdfrwt>
<pdfrwt beam="2">  1       -2 0.35320409E+00 0.10485447E+04</pdfrwt>
<totfact> 0.26773226E-01</totfact>
</mgrwt>
</event>
<event>
 4    1  0.2051094E-007  0.2195215E+04  0.7818608E-02  0.8530628E-01
          2   -1    0    0  501    0  0.00000000000E+00  0.00000000000E+00  0.26210897250E+04  0.26210897250E+04  0.25500000000E-02 0. -1.
         -2   -1    0    0    0  501 -0.00000000000E+00 -0.00000000000E+00 -0.19764438522E+04  0.19764438522E+04  0.25500000000E-02 0.  1.
    8880023    1    1    2    0    0  0.18646080057E+04  0.95309833289E+03  0.10903589263E+04  0.24510920508E+04  0.65864270000E+03 0.  0.
    8880022    1    1    2    0    0 -0.18646080057E+04 -0.95309833289E+03 -0.44571305353E+03  0.21464415264E+04  0.15294330000E+03 0.  0.
<mgrwt>
<rscale>  0 0.21709249E+04</rscale>
<asrwt>0</asrwt>
<pdfrwt beam="1">  1        2 0.40324458E+00 0.21952152E+04</pdfrwt>
<pdfrwt beam="2">  1       -2 0.30406828E+00 0.21952152E+04</pdfrwt>
<totfact> 0.77148901E-02</totfact>
</mgrwt>
</event>
<event>
 4    1  0.2051094E-007  0.1276917E+04  0.7818608E-02  0.9085755E-01
         -2   -1    0    0    0  501 -0.00000000000E+00  0.00000000000E+00  0.23777848546E+04  0.23777848546E+04  0.25500000000E-02 0.  1.
          2   -1    0    0  501    0  0.00000000000E+00 -0.00000000000E+00 -0.92333793418E+03  0.92333793418E+03  0.25500000000E-02 0. -1.
    8880023    1    1    2    0    0  0.27412125232E+03  0.10590389122E+04 -0.21943662333E+03  0.12956344070E+04  0.65864270000E+03 0. -1.
    8880022    1    1    2    0    0 -0.27412125232E+03 -0.10590389122E+04  0.16738835438E+04  0.20054883818E+04  0.15294330000E+03 0.  0.
<mgrwt>
<rscale>  0 0.12314626E+04</rscale>
<asrwt>0</asrwt>
<pdfrwt beam="1">  1        2 0.14205199E+00 0.12769166E+04</pdfrwt>
<pdfrwt beam="2">  1       -2 0.36581305E+00 0.12769166E+04</pdfrwt>
<totfact> 0.34056101E-01</totfact>
</mgrwt>
</event>
<event>
 4    1  0.2051094E-007  0.9172662E+03  0.7818608E-02  0.9498864E-01
          2   -1    0    0  501    0  0.00000000000E+00  0.00000000000E+00  0.22229882206E+04  0.22229882206E+04  0.25500000000E-02 0. -1.
         -2   -1    0    0    0  501 -0.00000000000E+00 -0.00000000000E+00 -0.14867502419E+04  0.14867502419E+04  0.25500000000E-02 0.  1.
    8880023    1    1    2    0    0  0.60573972357E+03  0.20160972779E+03  0.20473613476E+04  0.22434495290E+04  0.65864270000E+03 0. -1.
    8880022    1    1    2    0    0 -0.60573972357E+03 -0.20160972779E+03 -0.13111233690E+04  0.14662889336E+04  0.15294330000E+03 0.  0.
<mgrwt>
<rscale>  0 0.84367661E+03</rscale>
<asrwt>0</asrwt>
<pdfrwt beam="1">  1        2 0.34199819E+00 0.91726621E+03</pdfrwt>
<pdfrwt beam="2">  1       -2 0.22873081E+00 0.91726621E+03</pdfrwt>
<totfact> 0.44480501E-01</totfact>
</mgrwt>
</event>
<event>
 4    1  0.2051094E-007  0.1740280E+04  0.7818608E-02  0.8756311E-01
          2   -1    0    0  501    0  0.00000000000E+00  0.00000000000E+00  0.38428364411E+04  0.38428364411E+04  0.25500000000E-02 0. -1.
         -2   -1    0    0    0  501 -0.00000000000E+00 -0.00000000000E+00 -0.11858481674E+04  0.11858481674E+04  0.25500000000E-02 0.  1.
    8880023    1    1    2    0    0  0.14023501975E+04  0.79257651679E+03  0.29102733180E+04  0.33909091116E+04  0.65864270000E+03 0. -1.
    8880022    1    1    2    0    0 -0.14023501975E+04 -0.79257651679E+03 -0.25328504439E+03  0.16377754969E+04  0.15294330000E+03 0.  0.
<mgrwt>
<rscale>  0 0.17088885E+04</rscale>
<asrwt>0</asrwt>
<pdfrwt beam="1">  1        2 0.59120561E+00 0.17402798E+04</pdfrwt>
<pdfrwt beam="2">  1       -2 0.18243818E+00 0.17402798E+04</pdfrwt>
<totfact> 0.73469858E-02</totfact>
</mgrwt>
</event>
<event>
 4    1  0.2051094E-007  0.1277717E+04  0.7818608E-02  0.9085046E-01
          2   -1    0    0  501    0  0.00000000000E+00  0.00000000000E+00  0.88779325534E+03  0.88779325534E+03  0.25500000000E-02 0. -1.
         -2   -1    0    0    0  501 -0.00000000000E+00 -0.00000000000E+00 -0.17413746564E+04  0.17413746564E+04  0.25500000000E-02 0.  1.
    8880023    1    1    2    0    0  0.96881293094E+03  0.51004994727E+03 -0.80657131876E+02  0.12802598264E+04  0.65864270000E+03 0.  0.
    8880022    1    1    2    0    0 -0.96881293094E+03 -0.51004994727E+03 -0.77292426920E+03  0.13489080854E+04  0.15294330000E+03 0.  0.
<mgrwt>
<rscale>  0 0.12322989E+04</rscale>
<asrwt>0</asrwt>
<pdfrwt beam="1">  1        2 0.13658358E+00 0.12777166E+04</pdfrwt>
<pdfrwt beam="2">  1       -2 0.26790379E+00 0.12777166E+04</pdfrwt>
<totfact> 0.14456609E+00</totfact>
</mgrwt>
</event>
<event>
 4    1  0.2051094E-007  0.8163088E+03  0.7818608E-02  0.9676583E-01
         -2   -1    0    0    0  501 -0.00000000000E+00  0.00000000000E+00  0.19262779860E+04  0.19262779860E+04  0.25500000000E-02 0.  1.
          2   -1    0    0  501    0  0.00000000000E+00 -0.00000000000E+00 -0.62501672606E+03  0.62501672606E+03  0.25500000000E-02 0. -1.
    8880023    1    1    2    0    0 -0.45474170900E+03 -0.16049851106E+03 -0.30178982610E+03  0.87030862305E+03  0.65864270000E+03 0. -1.
    8880022    1    1    2    0    0  0.45474170900E+03  0.16049851106E+03  0.16030510860E+04  0.16809860890E+04  0.15294330000E+03 0.  0.
<mgrwt>
<rscale>  0 0.72428322E+03</rscale>
<asrwt>0</asrwt>
<pdfrwt beam="1">  1        2 0.96156419E-01 0.81630877E+03</pdfrwt>
<pdfrwt beam="2">  1       -2 0.29635046E+00 0.81630877E+03</pdfrwt>
<totfact> 0.16274037E+00</totfact>
</mgrwt>
</event>
<event>
 4    1  0.2051094E-007  0.7188913E+03  0.7818608E-02  0.9926355E-01
         -2   -1    0    0    0  501 -0.00000000000E+00  0.00000000000E+00  0.18068950070E+03  0.18068950072E+03  0.25500000000E-02 0.  1.
          2   -1    0    0  501    0  0.00000000000E+00 -0.00000000000E+00 -0.15565477167E+04  0.15565477167E+04  0.25500000000E-02 0. -1.
    8880023    1    1    2    0    0 -0.76795245259E+02 -0.27766348427E+03 -0.10767887093E+04  0.12947118023E+04  0.65864270000E+03 0.  0.
    8880022    1    1    2    0    0  0.76795245259E+02  0.27766348427E+03 -0.29906950666E+03  0.44252541511E+03  0.15294330000E+03 0.  0.
<mgrwt>
<rscale>  0 0.59000824E+03</rscale>
<asrwt>0</asrwt>
<pdfrwt beam="1">  1        2 0.23946887E+00 0.71889132E+03</pdfrwt>
<pdfrwt beam="2">  1       -2 0.27798386E-01 0.71889132E+03</pdfrwt>
<totfact> 0.14204568E+02</totfact>
</mgrwt>
</event>
<event>
 4    1  0.2051094E-007  0.6636649E+03  0.7818608E-02  0.1020681E+00
         -2   -1    0    0    0  501 -0.00000000000E+00  0.00000000000E+00  0.83658717603E+03  0.83658717604E+03  0.25500000000E-02 0.  1.
          2   -1    0    0  501    0  0.00000000000E+00 -0.00000000000E+00 -0.14605883346E+04  0.14605883346E+04  0.25500000000E-02 0. -1.
    8880023    1    1    2    0    0  0.65389954398E+02  0.48631576955E+02 -0.13748158568E+04  0.15266203598E+04  0.65864270000E+03 0. -1.
    8880022    1    1    2    0    0 -0.65389954398E+02 -0.48631576955E+02  0.75081469826E+03  0.77055515088E+03  0.15294330000E+03 0.  0.
<mgrwt>
<rscale>  0 0.47441741E+03</rscale>
<asrwt>0</asrwt>
<pdfrwt beam="1">  1        2 0.22470590E+00 0.66366489E+03</pdfrwt>
<pdfrwt beam="2">  1       -2 0.12870572E+00 0.66366489E+03</pdfrwt>
<totfact> 0.61814457E+00</totfact>
</mgrwt>
</event>
<event>
 4    1  0.2051094E-007  0.1657175E+04  0.7818608E-02  0.8805949E-01
          2   -1    0    0  501    0  0.00000000000E+00  0.00000000000E+00  0.17010686857E+04  0.17010686857E+04  0.25500000000E-02 0. -1.
         -2   -1    0    0    0  501 -0.00000000000E+00 -0.00000000000E+00 -0.20624542629E+04  0.20624542629E+04  0.25500000000E-02 0.  1.
    8880023    1    1    2    0    0  0.30831314804E+03 -0.14890809815E+04  0.80366277568E+03  0.18417663343E+04  0.65864270000E+03 0.  0.
    8880022    1    1    2    0    0 -0.30831314804E+03  0.14890809815E+04 -0.11650483529E+04  0.19217566143E+04  0.15294330000E+03 0.  0.
<mgrwt>
<rscale>  0 0.16239813E+04</rscale>
<asrwt>0</asrwt>
<pdfrwt beam="1">  1        2 0.26170288E+00 0.16571751E+04</pdfrwt>
<pdfrwt beam="2">  1       -2 0.31730066E+00 0.16571751E+04</pdfrwt>
<totfact> 0.22507511E-01</totfact>
</mgrwt>
</event>
<event>
 4    1  0.2051094E-007  0.7600697E+03  0.7818608E-02  0.9804927E-01
         -2   -1    0    0    0  501 -0.00000000000E+00  0.00000000000E+00  0.87907237281E+03  0.87907237282E+03  0.25500000000E-02 0.  1.
          2   -1    0    0  501    0  0.00000000000E+00 -0.00000000000E+00 -0.20191535193E+04  0.20191535193E+04  0.25500000000E-02 0. -1.
    8880023    1    1    2    0    0  0.37659654257E+03  0.45506446454E+02 -0.18938275636E+04  0.20406589229E+04  0.65864270000E+03 0.  0.
    8880022    1    1    2    0    0 -0.37659654257E+03 -0.45506446454E+02  0.75374641708E+03  0.85756696929E+03  0.15294330000E+03 0.  1.
<mgrwt>
<rscale>  0 0.65098802E+03</rscale>
<asrwt>0</asrwt>
<pdfrwt beam="1">  1        2 0.31063900E+00 0.76006973E+03</pdfrwt>
<pdfrwt beam="2">  1       -2 0.13524190E+00 0.76006973E+03</pdfrwt>
<totfact> 0.26515594E+00</totfact>
</mgrwt>
</event>
<event>
 4    1  0.2051094E-007  0.9608197E+03  0.7818608E-02  0.9434715E-01
         -2   -1    0    0    0  501 -0.00000000000E+00  0.00000000000E+00  0.66983437951E+03  0.66983437951E+03  0.25500000000E-02 0.  1.
          2   -1    0    0  501    0  0.00000000000E+00 -0.00000000000E+00 -0.24142964394E+04  0.24142964394E+04  0.25500000000E-02 0. -1.
    8880023    1    1    2    0    0 -0.62074227965E+03  0.32255755547E+03 -0.20816130959E+04  0.22926595128E+04  0.65864270000E+03 0.  0.
    8880022    1    1    2    0    0  0.62074227965E+03 -0.32255755547E+03  0.33715103599E+03  0.79147130613E+03  0.15294330000E+03 0.  0.
<mgrwt>
<rscale>  0 0.89273031E+03</rscale>
<asrwt>0</asrwt>
<pdfrwt beam="1">  1        2 0.37143022E+00 0.96081973E+03</pdfrwt>
<pdfrwt beam="2">  1       -2 0.10305144E+00 0.96081973E+03</pdfrwt>
<totfact> 0.30364368E+00</totfact>
</mgrwt>
</event>
<event>
 4    1  0.2051094E-007  0.7234983E+03  0.7818608E-02  0.9910922E-01
         -2   -1    0    0    0  501 -0.00000000000E+00  0.00000000000E+00  0.34742095319E+03  0.34742095320E+03  0.25500000000E-02 0.  1.
          2   -1    0    0  501    0  0.00000000000E+00 -0.00000000000E+00 -0.14731838544E+04  0.14731838544E+04  0.25500000000E-02 0. -1.
    8880023    1    1    2    0    0 -0.10146144547E+03 -0.28168264808E+03 -0.12645427600E+04  0.14568864531E+04  0.65864270000E+03 0. -1.
    8880022    1    1    2    0    0  0.10146144547E+03  0.28168264808E+03  0.13877985881E+03  0.36371835446E+03  0.15294330000E+03 0.  0.
<mgrwt>
<rscale>  0 0.59734868E+03</rscale>
<asrwt>0</asrwt>
<pdfrwt beam="1">  1        2 0.22664367E+00 0.72349827E+03</pdfrwt>
<pdfrwt beam="2">  1       -2 0.53449378E-01 0.72349827E+03</pdfrwt>
<totfact> 0.44438232E+01</totfact>
</mgrwt>
</event>
<event>
 4    1  0.2051094E-007  0.8423279E+03  0.7818608E-02  0.9625806E-01
          2   -1    0    0  501    0  0.00000000000E+00  0.00000000000E+00  0.94273609201E+03  0.94273609201E+03  0.25500000000E-02 0. -1.
         -2   -1    0    0    0  501 -0.00000000000E+00 -0.00000000000E+00 -0.78021537617E+03  0.78021537618E+03  0.25500000000E-02 0.  1.
    8880023    1    1    2    0    0 -0.48495423582E+03 -0.20130947064E+03  0.59033822926E+03  0.10285988261E+04  0.65864270000E+03 0.  0.
    8880022    1    1    2    0    0  0.48495423582E+03  0.20130947064E+03 -0.42781751342E+03  0.69435264212E+03  0.15294330000E+03 0.  0.
<mgrwt>
<rscale>  0 0.75611446E+03</rscale>
<asrwt>0</asrwt>
<pdfrwt beam="1">  1        2 0.14503632E+00 0.84232792E+03</pdfrwt>
<pdfrwt beam="2">  1       -2 0.12003313E+00 0.84232792E+03</pdfrwt>
<totfact> 0.14663726E+01</totfact>
</mgrwt>
</event>
<event>
 4    1  0.2051094E-007  0.1110090E+04  0.7818608E-02  0.9249905E-01
         -2   -1    0    0    0  501 -0.00000000000E+00  0.00000000000E+00  0.37771549098E+04  0.37771549098E+04  0.25500000000E-02 0.  1.
          2   -1    0    0  501    0  0.00000000000E+00 -0.00000000000E+00 -0.37954597608E+03  0.37954597609E+03  0.25500000000E-02 0. -1.
    8880023    1    1    2    0    0 -0.47631760651E+03 -0.75604912275E+03  0.70370717273E+03  0.13143449812E+04  0.65864270000E+03 0.  0.
    8880022    1    1    2    0    0  0.47631760651E+03  0.75604912275E+03  0.26939017610E+04  0.28423559048E+04  0.15294330000E+03 0.  0.
<mgrwt>
<rscale>  0 0.10552846E+04</rscale>
<asrwt>0</asrwt>
<pdfrwt beam="1">  1        2 0.58391686E-01 0.11100896E+04</pdfrwt>
<pdfrwt beam="2">  1       -2 0.58110078E+00 0.11100896E+04</pdfrwt>
<totfact> 0.49949359E-02</totfact>
</mgrwt>
</event>
<event>
 4    1  0.2051094E-007  0.1055418E+04  0.7818608E-02  0.9312396E-01
          2   -1    0    0  501    0  0.00000000000E+00  0.00000000000E+00  0.24857651212E+04  0.24857651212E+04  0.25500000000E-02 0. -1.
         -2   -1    0    0    0  501 -0.00000000000E+00 -0.00000000000E+00 -0.10190493917E+04  0.10190493917E+04  0.25500000000E-02 0.  1.
    8880023    1    1    2    0    0  0.45474340460E+03  0.68797209765E+03  0.21681759245E+04  0.24114091766E+04  0.65864270000E+03 0. -1.
    8880022    1    1    2    0    0 -0.45474340460E+03 -0.68797209765E+03 -0.70146019502E+03  0.10934053363E+04  0.15294330000E+03 0.  0.
<mgrwt>
<rscale>  0 0.99649599E+03</rscale>
<asrwt>0</asrwt>
<pdfrwt beam="1">  1        2 0.38242540E+00 0.10554181E+04</pdfrwt>
<pdfrwt beam="2">  1       -2 0.15677683E+00 0.10554181E+04</pdfrwt>
<totfact> 0.94150028E-01</totfact>
</mgrwt>
</event>
<event>
 4    1  0.2051094E-007  0.1853359E+04  0.7818608E-02  0.8693581E-01
          2   -1    0    0  501    0  0.00000000000E+00  0.00000000000E+00  0.19627146215E+04  0.19627146215E+04  0.25500000000E-02 0. -1.
         -2   -1    0    0    0  501 -0.00000000000E+00 -0.00000000000E+00 -0.23566168162E+04  0.23566168162E+04  0.25500000000E-02 0.  1.
    8880023    1    1    2    0    0 -0.11368265835E+04 -0.13071929708E+04  0.98596111827E+03  0.20992993300E+04  0.65864270000E+03 0.  0.
    8880022    1    1    2    0    0  0.11368265835E+04  0.13071929708E+04 -0.13798633130E+04  0.22200321078E+04  0.15294330000E+03 0.  0.
<mgrwt>
<rscale>  0 0.18241127E+04</rscale>
<asrwt>0</asrwt>
<pdfrwt beam="1">  1        2 0.30195610E+00 0.18533587E+04</pdfrwt>
<pdfrwt beam="2">  1       -2 0.36255643E+00 0.18533587E+04</pdfrwt>
<totfact> 0.81841858E-02</totfact>
</mgrwt>
</event>
<event>
 4    1  0.2051094E-007  0.6976238E+03  0.7818608E-02  0.1000721E+00
          2   -1    0    0  501    0  0.00000000000E+00  0.00000000000E+00  0.23227856538E+04  0.23227856538E+04  0.25500000000E-02 0. -1.
         -2   -1    0    0    0  501 -0.00000000000E+00 -0.00000000000E+00 -0.49182605865E+03  0.49182605866E+03  0.25500000000E-02 0.  1.
    8880023    1    1    2    0    0  0.18457200655E+03 -0.13712000695E+03  0.22259220485E+04  0.23326825533E+04  0.65864270000E+03 0. -1.
    8880022    1    1    2    0    0 -0.18457200655E+03  0.13712000695E+03 -0.39496245337E+03  0.48192915921E+03  0.15294330000E+03 0.  0.
<mgrwt>
<rscale>  0 0.55335434E+03</rscale>
<asrwt>0</asrwt>
<pdfrwt beam="1">  1        2 0.35735164E+00 0.69762377E+03</pdfrwt>
<pdfrwt beam="2">  1       -2 0.75665546E-01 0.69762377E+03</pdfrwt>
<totfact> 0.72606159E+00</totfact>
</mgrwt>
</event>
<event>
 4    1  0.2051094E-007  0.7348810E+03  0.7818608E-02  0.9875117E-01
          2   -1    0    0  501    0  0.00000000000E+00  0.00000000000E+00  0.92530629787E+03  0.92530629787E+03  0.25500000000E-02 0. -1.
         -2   -1    0    0    0  501 -0.00000000000E+00 -0.00000000000E+00 -0.74185992676E+03  0.74185992677E+03  0.25500000000E-02 0.  1.
    8880023    1    1    2    0    0  0.56614838852E+02 -0.32099005398E+03  0.71489254912E+03  0.10252421264E+04  0.65864270000E+03 0. -1.
    8880022    1    1    2    0    0 -0.56614838852E+02  0.32099005398E+03 -0.53144617802E+03  0.64192409822E+03  0.15294330000E+03 0.  0.
<mgrwt>
<rscale>  0 0.61482509E+03</rscale>
<asrwt>0</asrwt>
<pdfrwt beam="1">  1        2 0.14235481E+00 0.73488098E+03</pdfrwt>
<pdfrwt beam="2">  1       -2 0.11413230E+00 0.73488098E+03</pdfrwt>
<totfact> 0.17231451E+01</totfact>
</mgrwt>
</event>
<event>
 4    1  0.2051094E-007  0.7052783E+03  0.7818608E-02  0.9975971E-01
          2   -1    0    0  501    0  0.00000000000E+00  0.00000000000E+00  0.19765156224E+04  0.19765156224E+04  0.25500000000E-02 0. -1.
         -2   -1    0    0    0  501 -0.00000000000E+00 -0.00000000000E+00 -0.20111622080E+04  0.20111622081E+04  0.25500000000E-02 0.  1.
    8880023    1    1    2    0    0  0.16413330146E+03 -0.19148756428E+03  0.19020764347E+04  0.20286232271E+04  0.65864270000E+03 0. -1.
    8880022    1    1    2    0    0 -0.16413330146E+03  0.19148756428E+03 -0.19367230204E+04  0.19590546033E+04  0.15294330000E+03 0.  0.
<mgrwt>
<rscale>  0 0.56716521E+03</rscale>
<asrwt>0</asrwt>
<pdfrwt beam="1">  1        2 0.30407933E+00 0.70527827E+03</pdfrwt>
<pdfrwt beam="2">  1       -2 0.30940957E+00 0.70527827E+03</pdfrwt>
<totfact> 0.20711992E-01</totfact>
</mgrwt>
</event>
<event>
 4    1  0.2051094E-007  0.1083206E+04  0.7818608E-02  0.9279988E-01
          2   -1    0    0  501    0  0.00000000000E+00  0.00000000000E+00  0.11786740908E+04  0.11786740908E+04  0.25500000000E-02 0. -1.
         -2   -1    0    0    0  501 -0.00000000000E+00 -0.00000000000E+00 -0.16235430535E+04  0.16235430535E+04  0.25500000000E-02 0.  1.
    8880023    1    1    2    0    0 -0.84875628603E+03 -0.13834117957E+03  0.75335938103E+03  0.13194264202E+04  0.65864270000E+03 0.  0.
    8880022    1    1    2    0    0  0.84875628603E+03  0.13834117957E+03 -0.11982283437E+04  0.14827907242E+04  0.15294330000E+03 0.  0.
<mgrwt>
<rscale>  0 0.10264624E+04</rscale>
<asrwt>0</asrwt>
<pdfrwt beam="1">  1        2 0.18133447E+00 0.10832062E+04</pdfrwt>
<pdfrwt beam="2">  1       -2 0.24977586E+00 0.10832062E+04</pdfrwt>
<totfact> 0.12402115E+00</totfact>
</mgrwt>
</event>
<event>
 4    1  0.2051094E-007  0.8257471E+03  0.7818608E-02  0.9657664E-01
         -2   -1    0    0    0  501 -0.00000000000E+00  0.00000000000E+00  0.47844788328E+03  0.47844788328E+03  0.25500000000E-02 0.  1.
          2   -1    0    0  501    0  0.00000000000E+00 -0.00000000000E+00 -0.99569309472E+03  0.99569309472E+03  0.25500000000E-02 0. -1.
    8880023    1    1    2    0    0 -0.45375328680E+03 -0.20531941838E+03 -0.15651722752E+03  0.84044985431E+03  0.65864270000E+03 0.  1.
    8880022    1    1    2    0    0  0.45375328680E+03  0.20531941838E+03 -0.36072798392E+03  0.63369112369E+03  0.15294330000E+03 0.  0.
<mgrwt>
<rscale>  0 0.73594352E+03</rscale>
<asrwt>0</asrwt>
<pdfrwt beam="1">  1        2 0.15318355E+00 0.82574713E+03</pdfrwt>
<pdfrwt beam="2">  1       -2 0.73607367E-01 0.82574713E+03</pdfrwt>
<totfact> 0.42579819E+01</totfact>
</mgrwt>
</event>
<event>
 4    1  0.2051094E-007  0.8832935E+03  0.7818608E-02  0.9553401E-01
         -2   -1    0    0    0  501 -0.00000000000E+00  0.00000000000E+00  0.46502742449E+03  0.46502742450E+03  0.25500000000E-02 0.  1.
          2   -1    0    0  501    0  0.00000000000E+00 -0.00000000000E+00 -0.14641883017E+04  0.14641883017E+04  0.25500000000E-02 0. -1.
    8880023    1    1    2    0    0  0.51208704235E+03  0.29011052716E+03 -0.98208917476E+03  0.13208734271E+04  0.65864270000E+03 0. -1.
    8880022    1    1    2    0    0 -0.51208704235E+03 -0.29011052716E+03 -0.17071702495E+02  0.60834229917E+03  0.15294330000E+03 0.  0.
<mgrwt>
<rscale>  0 0.80458702E+03</rscale>
<asrwt>0</asrwt>
<pdfrwt beam="1">  1        2 0.22525974E+00 0.88329353E+03</pdfrwt>
<pdfrwt beam="2">  1       -2 0.71542681E-01 0.88329353E+03</pdfrwt>
<totfact> 0.23770964E+01</totfact>
</mgrwt>
</event>
<event>
 4    1  0.2051094E-007  0.7787626E+03  0.7818608E-02  0.9758752E-01
         -2   -1    0    0    0  501 -0.00000000000E+00  0.00000000000E+00  0.13460422620E+04  0.13460422620E+04  0.25500000000E-02 0.  1.
          2   -1    0    0  501    0  0.00000000000E+00 -0.00000000000E+00 -0.86733696701E+03  0.86733696702E+03  0.25500000000E-02 0. -1.
    8880023    1    1    2    0    0  0.28706733551E+03  0.30042185544E+03 -0.64142613443E+03  0.10089096285E+04  0.65864270000E+03 0. -1.
    8880022    1    1    2    0    0 -0.28706733551E+03 -0.30042185544E+03  0.11201314294E+04  0.12044696005E+04  0.15294330000E+03 0.  0.
<mgrwt>
<rscale>  0 0.67623926E+03</rscale>
<asrwt>0</asrwt>
<pdfrwt beam="1">  1        2 0.13343646E+00 0.77876258E+03</pdfrwt>
<pdfrwt beam="2">  1       -2 0.20708342E+00 0.77876258E+03</pdfrwt>
<totfact> 0.37641476E+00</totfact>
</mgrwt>
</event>
<event>
 4    1  0.2098280E-007  0.1189992E+04  0.7818608E-02  0.9166913E-01
         -2   -1    0    0    0  501 -0.00000000000E+00  0.00000000000E+00  0.11747062191E+04  0.11747062191E+04  0.25500000000E-02 0.  1.
          2   -1    0    0  501    0  0.00000000000E+00 -0.00000000000E+00 -0.21755210676E+04  0.21755210676E+04  0.25500000000E-02 0. -1.
    8880023    1    1    2    0    0  0.81294966267E+03 -0.56690633078E+03 -0.17374666541E+04  0.21059132276E+04  0.65864270000E+03 0. -1.
    8880022    1    1    2    0    0 -0.81294966267E+03  0.56690633078E+03  0.73665180565E+03  0.12443140591E+04  0.15294330000E+03 0.  0.
<mgrwt>
<rscale>  0 0.11401564E+04</rscale>
<asrwt>0</asrwt>
<pdfrwt beam="1">  1        2 0.33469555E+00 0.11899917E+04</pdfrwt>
<pdfrwt beam="2">  1       -2 0.18072403E+00 0.11899917E+04</pdfrwt>
<totfact> 0.93073603E-01</totfact>
</mgrwt>
</event>
<event>
 4    1  0.2051094E-007  0.1847922E+04  0.7818608E-02  0.8696481E-01
          2   -1    0    0  501    0  0.00000000000E+00  0.00000000000E+00  0.25455108803E+04  0.25455108803E+04  0.25500000000E-02 0. -1.
         -2   -1    0    0    0  501 -0.00000000000E+00 -0.00000000000E+00 -0.14183057537E+04  0.14183057537E+04  0.25500000000E-02 0.  1.
    8880023    1    1    2    0    0 -0.16442701938E+04  0.52666921337E+03 -0.83052556773E+02  0.18497872483E+04  0.65864270000E+03 0.  0.
    8880022    1    1    2    0    0  0.16442701938E+04 -0.52666921337E+03  0.12102576834E+04  0.21140293857E+04  0.15294330000E+03 0.  0.
<mgrwt>
<rscale>  0 0.18185798E+04</rscale>
<asrwt>0</asrwt>
<pdfrwt beam="1">  1        2 0.39161706E+00 0.18479218E+04</pdfrwt>
<pdfrwt beam="2">  1       -2 0.21820089E+00 0.18479218E+04</pdfrwt>
<totfact> 0.30087567E-01</totfact>
</mgrwt>
</event>
<event>
 4    1  0.2051094E-007  0.7718829E+03  0.7818608E-02  0.9775262E-01
         -2   -1    0    0    0  501 -0.00000000000E+00  0.00000000000E+00  0.22376996563E+03  0.22376996565E+03  0.25500000000E-02 0.  1.
          2   -1    0    0  501    0  0.00000000000E+00 -0.00000000000E+00 -0.16184340970E+04  0.16184340970E+04  0.25500000000E-02 0. -1.
    8880023    1    1    2    0    0 -0.30713731901E+03  0.26011477005E+03 -0.85640449157E+03  0.11529231916E+04  0.65864270000E+03 0.  0.
    8880022    1    1    2    0    0  0.30713731901E+03 -0.26011477005E+03 -0.53825963983E+03  0.68928087106E+03  0.15294330000E+03 0. -1.
<mgrwt>
<rscale>  0 0.66707214E+03</rscale>
<asrwt>0</asrwt>
<pdfrwt beam="1">  1        2 0.24898985E+00 0.77188291E+03</pdfrwt>
<pdfrwt beam="2">  1       -2 0.34426150E-01 0.77188291E+03</pdfrwt>
<totfact> 0.87688027E+01</totfact>
</mgrwt>
</event>
<event>
 4    1  0.2051094E-007  0.1027193E+04  0.7818608E-02  0.9346815E-01
         -2   -1    0    0    0  501 -0.00000000000E+00  0.00000000000E+00  0.51530261598E+03  0.51530261599E+03  0.25500000000E-02 0.  1.
          2   -1    0    0  501    0  0.00000000000E+00 -0.00000000000E+00 -0.30019429539E+04  0.30019429539E+04  0.25500000000E-02 0. -1.
    8880023    1    1    2    0    0  0.58694622138E+03  0.52612676817E+03 -0.25120060403E+04  0.27139085828E+04  0.65864270000E+03 0. -1.
    8880022    1    1    2    0    0 -0.58694622138E+03 -0.52612676817E+03  0.25365702369E+02  0.80333698710E+03  0.15294330000E+03 0.  0.
<mgrwt>
<rscale>  0 0.96584920E+03</rscale>
<asrwt>0</asrwt>
<pdfrwt beam="1">  1        2 0.46183737E+00 0.10271930E+04</pdfrwt>
<pdfrwt beam="2">  1       -2 0.79277328E-01 0.10271930E+04</pdfrwt>
<totfact> 0.24915496E+00</totfact>
</mgrwt>
</event>
<event>
 4    1  0.2051094E-007  0.2337694E+04  0.7818608E-02  0.8472033E-01
          2   -1    0    0  501    0  0.00000000000E+00  0.00000000000E+00  0.14255365168E+04  0.14255365168E+04  0.25500000000E-02 0. -1.
         -2   -1    0    0    0  501 -0.00000000000E+00 -0.00000000000E+00 -0.44734283361E+04  0.44734283361E+04  0.25500000000E-02 0.  1.
    8880023    1    1    2    0    0 -0.12601945749E+04  0.18555090001E+04 -0.31289610279E+03  0.23585415395E+04  0.65864270000E+03 0.  0.
    8880022    1    1    2    0    0  0.12601945749E+04 -0.18555090001E+04 -0.27349957164E+04  0.35404233134E+04  0.15294330000E+03 0.  0.
<mgrwt>
<rscale>  0 0.23149917E+04</rscale>
<asrwt>0</asrwt>
<pdfrwt beam="1">  1        2 0.21931331E+00 0.23376942E+04</pdfrwt>
<pdfrwt beam="2">  1       -2 0.68821974E+00 0.23376942E+04</pdfrwt>
<totfact> 0.29635103E-03</totfact>
</mgrwt>
</event>
<event>
 4    1  0.2051094E-007  0.6714990E+03  0.7818608E-02  0.1014610E+00
         -2   -1    0    0    0  501 -0.00000000000E+00  0.00000000000E+00  0.11949591587E+04  0.11949591587E+04  0.25500000000E-02 0.  1.
          2   -1    0    0  501    0  0.00000000000E+00 -0.00000000000E+00 -0.56738156355E+03  0.56738156355E+03  0.25500000000E-02 0. -1.
    8880023    1    1    2    0    0  0.73548875108E+02 -0.10812613405E+03 -0.35486635942E+03  0.75950051824E+03  0.65864270000E+03 0. -1.
    8880022    1    1    2    0    0 -0.73548875108E+02  0.10812613405E+03  0.98244395459E+03  0.10028402040E+04  0.15294330000E+03 0.  0.
<mgrwt>
<rscale>  0 0.49682753E+03</rscale>
<asrwt>0</asrwt>
<pdfrwt beam="1">  1        2 0.87289471E-01 0.67149900E+03</pdfrwt>
<pdfrwt beam="2">  1       -2 0.18383987E+00 0.67149900E+03</pdfrwt>
<totfact> 0.92947650E+00</totfact>
</mgrwt>
</event>
<event>
 4    1  0.2051094E-007  0.7552464E+03  0.7818608E-02  0.9817573E-01
         -2   -1    0    0    0  501 -0.00000000000E+00  0.00000000000E+00  0.15871508940E+03  0.15871508942E+03  0.25500000000E-02 0.  1.
          2   -1    0    0  501    0  0.00000000000E+00 -0.00000000000E+00 -0.29073769478E+04  0.29073769478E+04  0.25500000000E-02 0. -1.
    8880023    1    1    2    0    0  0.26773998595E+03 -0.25475923759E+03 -0.24586725183E+04  0.25720551564E+04  0.65864270000E+03 0. -1.
    8880022    1    1    2    0    0 -0.26773998595E+03  0.25475923759E+03 -0.28998934017E+03  0.49403688085E+03  0.15294330000E+03 0.  0.
<mgrwt>
<rscale>  0 0.64427942E+03</rscale>
<asrwt>0</asrwt>
<pdfrwt beam="1">  1        2 0.44728872E+00 0.75524643E+03</pdfrwt>
<pdfrwt beam="2">  1       -2 0.24417708E-01 0.75524643E+03</pdfrwt>
<totfact> 0.31327429E+01</totfact>
</mgrwt>
</event>
<event>
 4    1  0.2051094E-007  0.7572797E+03  0.7818608E-02  0.9812202E-01
          2   -1    0    0  501    0  0.00000000000E+00  0.00000000000E+00  0.15082915958E+04  0.15082915958E+04  0.25500000000E-02 0. -1.
         -2   -1    0    0    0  501 -0.00000000000E+00 -0.00000000000E+00 -0.15898940405E+04  0.15898940405E+04  0.25500000000E-02 0.  1.
    8880023    1    1    2    0    0  0.34356145507E+03 -0.14706423554E+03  0.13841845265E+04  0.15777957321E+04  0.65864270000E+03 0. -1.
    8880022    1    1    2    0    0 -0.34356145507E+03  0.14706423554E+03 -0.14657869712E+04  0.15203899041E+04  0.15294330000E+03 0.  0.
<mgrwt>
<rscale>  0 0.64711830E+03</rscale>
<asrwt>0</asrwt>
<pdfrwt beam="1">  1        2 0.23204486E+00 0.75727972E+03</pdfrwt>
<pdfrwt beam="2">  1       -2 0.24459908E+00 0.75727972E+03</pdfrwt>
<totfact> 0.90588766E-01</totfact>
</mgrwt>
</event>
<event>
 4    1  0.2051094E-007  0.6610005E+03  0.7818608E-02  0.1023154E+00
          2   -1    0    0  501    0  0.00000000000E+00  0.00000000000E+00  0.32455165143E+04  0.32455165143E+04  0.25500000000E-02 0. -1.
         -2   -1    0    0    0  501 -0.00000000000E+00 -0.00000000000E+00 -0.66377194881E+02  0.66377194930E+02  0.25500000000E-02 0.  1.
    8880023    1    1    2    0    0  0.55775574941E+02 -0.71661358711E+00  0.29906768241E+04  0.30628531634E+04  0.65864270000E+03 0. -1.
    8880022    1    1    2    0    0 -0.55775574941E+02  0.71661358711E+00  0.18846249534E+03  0.24904054581E+03  0.15294330000E+03 0.  0.
<mgrwt>
<rscale>  0 0.46565404E+03</rscale>
<asrwt>0</asrwt>
<pdfrwt beam="1">  1        2 0.49931030E+00 0.66100048E+03</pdfrwt>
<pdfrwt beam="2">  1       -2 0.10211875E-01 0.66100048E+03</pdfrwt>
<totfact> 0.86622964E+01</totfact>
</mgrwt>
</event>
<event>
 4    1  0.2051094E-007  0.7938206E+03  0.7818608E-02  0.9724320E-01
         -2   -1    0    0    0  501 -0.00000000000E+00  0.00000000000E+00  0.19966954773E+03  0.19966954775E+03  0.25500000000E-02 0.  1.
          2   -1    0    0  501    0  0.00000000000E+00 -0.00000000000E+00 -0.32201945256E+04  0.32201945256E+04  0.25500000000E-02 0. -1.
    8880023    1    1    2    0    0 -0.44200692093E+03  0.31157000146E+02 -0.27837114772E+04  0.28946849002E+04  0.65864270000E+03 0.  0.
    8880022    1    1    2    0    0  0.44200692093E+03 -0.31157000146E+02 -0.23681350065E+03  0.52517917315E+03  0.15294330000E+03 0.  0.
<mgrwt>
<rscale>  0 0.69587070E+03</rscale>
<asrwt>0</asrwt>
<pdfrwt beam="1">  1        2 0.49541451E+00 0.79382056E+03</pdfrwt>
<pdfrwt beam="2">  1       -2 0.30718394E-01 0.79382056E+03</pdfrwt>
<totfact> 0.13082974E+01</totfact>
</mgrwt>
</event>
<event>
 4    1  0.2051094E-007  0.7921414E+03  0.7818608E-02  0.9728053E-01
          2   -1    0    0  501    0  0.00000000000E+00  0.00000000000E+00  0.17317848338E+04  0.17317848338E+04  0.25500000000E-02 0. -1.
         -2   -1    0    0    0  501 -0.00000000000E+00 -0.00000000000E+00 -0.40139444413E+03  0.40139444414E+03  0.25500000000E-02 0.  1.
    8880023    1    1    2    0    0 -0.36053622429E+03  0.25237148473E+03  0.14499079421E+04  0.16521867274E+04  0.65864270000E+03 0. -1.
    8880022    1    1    2    0    0  0.36053622429E+03 -0.25237148473E+03 -0.11951755243E+03  0.48099255055E+03  0.15294330000E+03 0. -1.
<mgrwt>
<rscale>  0 0.69370822E+03</rscale>
<asrwt>0</asrwt>
<pdfrwt beam="1">  1        2 0.26642844E+00 0.79214136E+03</pdfrwt>
<pdfrwt beam="2">  1       -2 0.61752991E-01 0.79214136E+03</pdfrwt>
<totfact> 0.23460257E+01</totfact>
</mgrwt>
</event>
<event>
 4    1  0.2051094E-007  0.6618188E+03  0.7818608E-02  0.1022366E+00
         -2   -1    0    0    0  501 -0.00000000000E+00  0.00000000000E+00  0.45299255064E+03  0.45299255065E+03  0.25500000000E-02 0.  1.
          2   -1    0    0  501    0  0.00000000000E+00 -0.00000000000E+00 -0.43467542282E+03  0.43467542283E+03  0.25500000000E-02 0. -1.
    8880023    1    1    2    0    0 -0.59570729693E+02 -0.25401236434E+02 -0.11867147020E+03  0.67237416574E+03  0.65864270000E+03 0. -1.
    8880022    1    1    2    0    0  0.59570729693E+02  0.25401236434E+02  0.13698859802E+03  0.21529380774E+03  0.15294330000E+03 0.  0.
<mgrwt>
<rscale>  0 0.46842441E+03</rscale>
<asrwt>0</asrwt>
<pdfrwt beam="1">  1        2 0.66873142E-01 0.66181878E+03</pdfrwt>
<pdfrwt beam="2">  1       -2 0.69691162E-01 0.66181878E+03</pdfrwt>
<totfact> 0.13777615E+02</totfact>
</mgrwt>
</event>
<event>
 4    1  0.2051094E-007  0.9135675E+03  0.7818608E-02  0.9504593E-01
         -2   -1    0    0    0  501 -0.00000000000E+00  0.00000000000E+00  0.71722269110E+03  0.71722269110E+03  0.25500000000E-02 0.  1.
          2   -1    0    0  501    0  0.00000000000E+00 -0.00000000000E+00 -0.16778363796E+04  0.16778363796E+04  0.25500000000E-02 0. -1.
    8880023    1    1    2    0    0  0.11244249194E+03 -0.62301850784E+03 -0.13545947850E+04  0.16338704394E+04  0.65864270000E+03 0.  0.
    8880022    1    1    2    0    0 -0.11244249194E+03  0.62301850784E+03  0.39398109642E+03  0.76118863132E+03  0.15294330000E+03 0.  0.
<mgrwt>
<rscale>  0 0.83946029E+03</rscale>
<asrwt>0</asrwt>
<pdfrwt beam="1">  1        2 0.25812867E+00 0.91356750E+03</pdfrwt>
<pdfrwt beam="2">  1       -2 0.11034195E+00 0.91356750E+03</pdfrwt>
<totfact> 0.66198612E+00</totfact>
</mgrwt>
</event>
<event>
 4    1  0.2051094E-007  0.1101943E+04  0.7818608E-02  0.9258896E-01
         -2   -1    0    0    0  501 -0.00000000000E+00  0.00000000000E+00  0.68769542212E+03  0.68769542213E+03  0.25500000000E-02 0.  1.
          2   -1    0    0  501    0  0.00000000000E+00 -0.00000000000E+00 -0.25162414978E+04  0.25162414978E+04  0.25500000000E-02 0. -1.
    8880023    1    1    2    0    0 -0.45729366143E+03 -0.75587791580E+03 -0.20071437252E+04  0.22897390804E+04  0.65864270000E+03 0.  0.
    8880022    1    1    2    0    0  0.45729366143E+03  0.75587791580E+03  0.17859764953E+03  0.91419783953E+03  0.15294330000E+03 0.  0.
<mgrwt>
<rscale>  0 0.10465670E+04</rscale>
<asrwt>0</asrwt>
<pdfrwt beam="1">  1        2 0.38711407E+00 0.11019433E+04</pdfrwt>
<pdfrwt beam="2">  1       -2 0.10579930E+00 0.11019433E+04</pdfrwt>
<totfact> 0.24456015E+00</totfact>
</mgrwt>
</event>
<event>
 4    1  0.2051094E-007  0.8097487E+03  0.7818608E-02  0.9690101E-01
         -2   -1    0    0    0  501 -0.00000000000E+00  0.00000000000E+00  0.11862357912E+04  0.11862357912E+04  0.25500000000E-02 0.  1.
          2   -1    0    0  501    0  0.00000000000E+00 -0.00000000000E+00 -0.11314374014E+04  0.11314374014E+04  0.25500000000E-02 0. -1.
    8880023    1    1    2    0    0  0.10170787425E+03  0.45993294112E+03 -0.91919731788E+03  0.12249966194E+04  0.65864270000E+03 0. -1.
    8880022    1    1    2    0    0 -0.10170787425E+03 -0.45993294112E+03  0.97399570773E+03  0.10926765732E+04  0.15294330000E+03 0.  0.
<mgrwt>
<rscale>  0 0.71609270E+03</rscale>
<asrwt>0</asrwt>
<pdfrwt beam="1">  1        2 0.17406729E+00 0.80974873E+03</pdfrwt>
<pdfrwt beam="2">  1       -2 0.18249781E+00 0.80974873E+03</pdfrwt>
<totfact> 0.36855997E+00</totfact>
</mgrwt>
</event>
<event>
 4    1  0.2051094E-007  0.7666321E+03  0.7818608E-02  0.9788231E-01
          2   -1    0    0  501    0  0.00000000000E+00  0.00000000000E+00  0.14847813908E+04  0.14847813908E+04  0.25500000000E-02 0. -1.
         -2   -1    0    0    0  501 -0.00000000000E+00 -0.00000000000E+00 -0.82423501260E+03  0.82423501260E+03  0.25500000000E-02 0.  1.
    8880023    1    1    2    0    0 -0.31948518492E+03 -0.22769228022E+03  0.13200697346E+04  0.15265349221E+04  0.65864270000E+03 0. -1.
    8880022    1    1    2    0    0  0.31948518492E+03  0.22769228022E+03 -0.65952335644E+03  0.78248148129E+03  0.15294330000E+03 0.  0.
<mgrwt>
<rscale>  0 0.65997995E+03</rscale>
<asrwt>0</asrwt>
<pdfrwt beam="1">  1        2 0.22842790E+00 0.76663209E+03</pdfrwt>
<pdfrwt beam="2">  1       -2 0.12680539E+00 0.76663209E+03</pdfrwt>
<totfact> 0.61236225E+00</totfact>
</mgrwt>
</event>
<event>
 4    1  0.2051094E-007  0.7187691E+03  0.7818608E-02  0.9926773E-01
         -2   -1    0    0    0  501 -0.00000000000E+00  0.00000000000E+00  0.41940964071E+03  0.41940964072E+03  0.25500000000E-02 0.  1.
          2   -1    0    0  501    0  0.00000000000E+00 -0.00000000000E+00 -0.27030598775E+04  0.27030598775E+04  0.25500000000E-02 0. -1.
    8880023    1    1    2    0    0  0.22033781620E+03  0.18512170006E+03 -0.25822753385E+04  0.26804430468E+04  0.65864270000E+03 0. -1.
    8880022    1    1    2    0    0 -0.22033781620E+03 -0.18512170006E+03  0.29862510169E+03  0.44202647144E+03  0.15294330000E+03 0.  0.
<mgrwt>
<rscale>  0 0.58981111E+03</rscale>
<asrwt>0</asrwt>
<pdfrwt beam="1">  1        2 0.41585535E+00 0.71876909E+03</pdfrwt>
<pdfrwt beam="2">  1       -2 0.64524562E-01 0.71876909E+03</pdfrwt>
<totfact> 0.62275740E+00</totfact>
</mgrwt>
</event>
<event>
 4    1  0.2051094E-007  0.7291629E+03  0.7818608E-02  0.9892720E-01
         -2   -1    0    0    0  501 -0.00000000000E+00  0.00000000000E+00  0.93006383644E+03  0.93006383644E+03  0.25500000000E-02 0.  1.
          2   -1    0    0  501    0  0.00000000000E+00 -0.00000000000E+00 -0.11220585762E+04  0.11220585762E+04  0.25500000000E-02 0. -1.
    8880023    1    1    2    0    0 -0.29519910631E+03 -0.10356573481E+03 -0.96195574042E+03  0.12070780532E+04  0.65864270000E+03 0. -1.
    8880022    1    1    2    0    0  0.29519910631E+03  0.10356573481E+03  0.76996100067E+03  0.84504435940E+03  0.15294330000E+03 0.  0.
<mgrwt>
<rscale>  0 0.60615424E+03</rscale>
<asrwt>0</asrwt>
<pdfrwt beam="1">  1        2 0.17262440E+00 0.72916293E+03</pdfrwt>
<pdfrwt beam="2">  1       -2 0.14308675E+00 0.72916293E+03</pdfrwt>
<totfact> 0.73253261E+00</totfact>
</mgrwt>
</event>
<event>
 4    1  0.2051094E-007  0.7610573E+03  0.7818608E-02  0.9802378E-01
          2   -1    0    0  501    0  0.00000000000E+00  0.00000000000E+00  0.18011499061E+04  0.18011499061E+04  0.25500000000E-02 0. -1.
         -2   -1    0    0    0  501 -0.00000000000E+00 -0.00000000000E+00 -0.25777974395E+03  0.25777974396E+03  0.25500000000E-02 0.  1.
    8880023    1    1    2    0    0  0.36739481700E+03  0.10207352292E+03  0.14500315765E+04  0.16376201436E+04  0.65864270000E+03 0. -1.
    8880022    1    1    2    0    0 -0.36739481700E+03 -0.10207352292E+03  0.93338585645E+02  0.42130950645E+03  0.15294330000E+03 0.  0.
<mgrwt>
<rscale>  0 0.65235082E+03</rscale>
<asrwt>0</asrwt>
<pdfrwt beam="1">  1        2 0.27709999E+00 0.76105727E+03</pdfrwt>
<pdfrwt beam="2">  1       -2 0.39658422E-01 0.76105727E+03</pdfrwt>
<totfact> 0.53107786E+01</totfact>
</mgrwt>
</event>
<event>
 4    1  0.2051094E-007  0.8399082E+03  0.7818608E-02  0.9630353E-01
         -2   -1    0    0    0  501 -0.00000000000E+00  0.00000000000E+00  0.58822690251E+03  0.58822690252E+03  0.25500000000E-02 0.  1.
          2   -1    0    0  501    0  0.00000000000E+00 -0.00000000000E+00 -0.25950627384E+04  0.25950627384E+04  0.25500000000E-02 0. -1.
    8880023    1    1    2    0    0  0.49428613068E+03 -0.16527780293E+03 -0.23802889003E+04  0.25241277674E+04  0.65864270000E+03 0. -1.
    8880022    1    1    2    0    0 -0.49428613068E+03  0.16527780293E+03  0.37345306442E+03  0.65916187349E+03  0.15294330000E+03 0.  0.
<mgrwt>
<rscale>  0 0.75319358E+03</rscale>
<asrwt>0</asrwt>
<pdfrwt beam="1">  1        2 0.39924042E+00 0.83990817E+03</pdfrwt>
<pdfrwt beam="2">  1       -2 0.90496448E-01 0.83990817E+03</pdfrwt>
<totfact> 0.33131125E+00</totfact>
</mgrwt>
</event>
<event>
 4    1  0.2051094E-007  0.6690378E+03  0.7818608E-02  0.1016362E+00
         -2   -1    0    0    0  501 -0.00000000000E+00  0.00000000000E+00  0.41723004704E+03  0.41723004705E+03  0.25500000000E-02 0.  1.
          2   -1    0    0  501    0  0.00000000000E+00 -0.00000000000E+00 -0.11121905384E+04  0.11121905384E+04  0.25500000000E-02 0. -1.
    8880023    1    1    2    0    0  0.16317182103E+02 -0.11634071647E+03 -0.97919689898E+03  0.11859334661E+04  0.65864270000E+03 0. -1.
    8880022    1    1    2    0    0 -0.16317182103E+02  0.11634071647E+03  0.28423640762E+03  0.34348711937E+03  0.15294330000E+03 0.  0.
<mgrwt>
<rscale>  0 0.49022534E+03</rscale>
<asrwt>0</asrwt>
<pdfrwt beam="1">  1        2 0.17110624E+00 0.66903783E+03</pdfrwt>
<pdfrwt beam="2">  1       -2 0.64189238E-01 0.66903783E+03</pdfrwt>
<totfact> 0.49212900E+01</totfact>
</mgrwt>
</event>
<event>
 4    1  0.2051094E-007  0.7802475E+03  0.7818608E-02  0.9755256E-01
         -2   -1    0    0    0  501 -0.00000000000E+00  0.00000000000E+00  0.98122847232E+03  0.98122847232E+03  0.25500000000E-02 0.  1.
          2   -1    0    0  501    0  0.00000000000E+00 -0.00000000000E+00 -0.15117298423E+04  0.15117298423E+04  0.25500000000E-02 0. -1.
    8880023    1    1    2    0    0 -0.96177084986E+02  0.40709455068E+03 -0.13505682396E+04  0.15597502303E+04  0.65864270000E+03 0. -1.
    8880022    1    1    2    0    0  0.96177084986E+02 -0.40709455068E+03  0.82006686965E+03  0.93320808429E+03  0.15294330000E+03 0.  0.
<mgrwt>
<rscale>  0 0.67820059E+03</rscale>
<asrwt>0</asrwt>
<pdfrwt beam="1">  1        2 0.23257382E+00 0.78024753E+03</pdfrwt>
<pdfrwt beam="2">  1       -2 0.15095823E+00 0.78024753E+03</pdfrwt>
<totfact> 0.37643996E+00</totfact>
</mgrwt>
</event>
<event>
 4    1  0.2051094E-007  0.1092299E+04  0.7818608E-02  0.9269679E-01
         -2   -1    0    0    0  501 -0.00000000000E+00  0.00000000000E+00  0.93440837534E+03  0.93440837534E+03  0.25500000000E-02 0.  1.
          2   -1    0    0  501    0  0.00000000000E+00 -0.00000000000E+00 -0.16236509877E+04  0.16236509877E+04  0.25500000000E-02 0. -1.
    8880023    1    1    2    0    0  0.87027682960E+03 -0.43885991711E+02 -0.11282938939E+04  0.15704028330E+04  0.65864270000E+03 0. -1.
    8880022    1    1    2    0    0 -0.87027682960E+03  0.43885991711E+02  0.43905128162E+03  0.98765653003E+03  0.15294330000E+03 0.  0.
<mgrwt>
<rscale>  0 0.10362288E+04</rscale>
<asrwt>0</asrwt>
<pdfrwt beam="1">  1        2 0.24979246E+00 0.10922994E+04</pdfrwt>
<pdfrwt beam="2">  1       -2 0.14375514E+00 0.10922994E+04</pdfrwt>
<totfact> 0.35656255E+00</totfact>
</mgrwt>
</event>
<event>
 4    1  0.2051094E-007  0.1123544E+04  0.7818608E-02  0.9235284E-01
         -2   -1    0    0    0  501 -0.00000000000E+00  0.00000000000E+00  0.84207284854E+03  0.84207284855E+03  0.25500000000E-02 0.  1.
          2   -1    0    0  501    0  0.00000000000E+00 -0.00000000000E+00 -0.30851773915E+04  0.30851773915E+04  0.25500000000E-02 0. -1.
    8880023    1    1    2    0    0  0.31677693522E+03  0.85334280588E+03 -0.26800619356E+04  0.29060426280E+04  0.65864270000E+03 0. -1.
    8880022    1    1    2    0    0 -0.31677693522E+03 -0.85334280588E+03  0.43695739257E+03  0.10212076121E+04  0.15294330000E+03 0.  0.
<mgrwt>
<rscale>  0 0.10696541E+04</rscale>
<asrwt>0</asrwt>
<pdfrwt beam="1">  1        2 0.47464267E+00 0.11235443E+04</pdfrwt>
<pdfrwt beam="2">  1       -2 0.12954967E+00 0.11235443E+04</pdfrwt>
<totfact> 0.67351943E-01</totfact>
</mgrwt>
</event>
<event>
 4    1  0.2051094E-007  0.7048714E+03  0.7818608E-02  0.9977563E-01
          2   -1    0    0  501    0  0.00000000000E+00  0.00000000000E+00  0.21063971384E+04  0.21063971384E+04  0.25500000000E-02 0. -1.
         -2   -1    0    0    0  501 -0.00000000000E+00 -0.00000000000E+00 -0.15585424557E+04  0.15585424557E+04  0.25500000000E-02 0.  1.
    8880023    1    1    2    0    0  0.24988114296E+03 -0.24348535362E+02  0.20326102936E+04  0.21513596279E+04  0.65864270000E+03 0. -1.
    8880022    1    1    2    0    0 -0.24988114296E+03  0.24348535362E+02 -0.14847556109E+04  0.15135799662E+04  0.15294330000E+03 0.  0.
<mgrwt>
<rscale>  0 0.56645104E+03</rscale>
<asrwt>0</asrwt>
<pdfrwt beam="1">  1        2 0.32406110E+00 0.70487137E+03</pdfrwt>
<pdfrwt beam="2">  1       -2 0.23977576E+00 0.70487137E+03</pdfrwt>
<totfact> 0.46155492E-01</totfact>
</mgrwt>
</event>
<event>
 4    1  0.2051094E-007  0.8859861E+03  0.7818608E-02  0.9548914E-01
         -2   -1    0    0    0  501 -0.00000000000E+00  0.00000000000E+00  0.56277958320E+03  0.56277958321E+03  0.25500000000E-02 0.  1.
          2   -1    0    0  501    0  0.00000000000E+00 -0.00000000000E+00 -0.14688786637E+04  0.14688786637E+04  0.25500000000E-02 0. -1.
    8880023    1    1    2    0    0 -0.86002652362E+02  0.58631445260E+03 -0.10785733814E+04  0.13958122506E+04  0.65864270000E+03 0. -1.
    8880022    1    1    2    0    0  0.86002652362E+02 -0.58631445260E+03  0.17247430092E+03  0.63584599632E+03  0.15294330000E+03 0.  0.
<mgrwt>
<rscale>  0 0.80771712E+03</rscale>
<asrwt>0</asrwt>
<pdfrwt beam="1">  1        2 0.22598133E+00 0.88598606E+03</pdfrwt>
<pdfrwt beam="2">  1       -2 0.86581475E-01 0.88598606E+03</pdfrwt>
<totfact> 0.15389594E+01</totfact>
</mgrwt>
</event>
<event>
 4    1  0.2051094E-007  0.1083497E+04  0.7818608E-02  0.9279657E-01
         -2   -1    0    0    0  501 -0.00000000000E+00  0.00000000000E+00  0.14809180753E+04  0.14809180753E+04  0.25500000000E-02 0.  1.
          2   -1    0    0  501    0  0.00000000000E+00 -0.00000000000E+00 -0.18976614331E+04  0.18976614331E+04  0.25500000000E-02 0. -1.
    8880023    1    1    2    0    0  0.47303182095E+03 -0.71860672467E+03 -0.15848406253E+04  0.19198137260E+04  0.65864270000E+03 0.  0.
    8880022    1    1    2    0    0 -0.47303182095E+03  0.71860672467E+03  0.11680972675E+04  0.14587657824E+04  0.15294330000E+03 0.  0.
<mgrwt>
<rscale>  0 0.10267746E+04</rscale>
<asrwt>0</asrwt>
<pdfrwt beam="1">  1        2 0.29194791E+00 0.10834966E+04</pdfrwt>
<pdfrwt beam="2">  1       -2 0.22783355E+00 0.10834966E+04</pdfrwt>
<totfact> 0.66311244E-01</totfact>
</mgrwt>
</event>
<event>
 4    1  0.2051094E-007  0.8808579E+03  0.7818608E-02  0.9557487E-01
          2   -1    0    0  501    0  0.00000000000E+00  0.00000000000E+00  0.15598168713E+04  0.15598168713E+04  0.25500000000E-02 0. -1.
         -2   -1    0    0    0  501 -0.00000000000E+00 -0.00000000000E+00 -0.51372064820E+03  0.51372064821E+03  0.25500000000E-02 0.  1.
    8880023    1    1    2    0    0  0.54387490971E+03 -0.21517544254E+03  0.11618316253E+04  0.14579997669E+04  0.65864270000E+03 0. -1.
    8880022    1    1    2    0    0 -0.54387490971E+03  0.21517544254E+03 -0.11573540225E+03  0.61553775257E+03  0.15294330000E+03 0.  1.
<mgrwt>
<rscale>  0 0.80175028E+03</rscale>
<asrwt>0</asrwt>
<pdfrwt beam="1">  1        2 0.23997183E+00 0.88085787E+03</pdfrwt>
<pdfrwt beam="2">  1       -2 0.79033946E-01 0.88085787E+03</pdfrwt>
<totfact> 0.16847226E+01</totfact>
</mgrwt>
</event>
<event>
 4    1  0.2051094E-007  0.7744065E+03  0.7818608E-02  0.9769144E-01
          2   -1    0    0  501    0  0.00000000000E+00  0.00000000000E+00  0.94853805784E+03  0.94853805784E+03  0.25500000000E-02 0. -1.
         -2   -1    0    0    0  501 -0.00000000000E+00 -0.00000000000E+00 -0.39781056843E+03  0.39781056844E+03  0.25500000000E-02 0.  1.
    8880023    1    1    2    0    0 -0.36369382940E+03 -0.18336309304E+03  0.46382165351E+03  0.90268264521E+03  0.65864270000E+03 0. -1.
    8880022    1    1    2    0    0  0.36369382940E+03  0.18336309304E+03  0.86905835894E+02  0.44366598107E+03  0.15294330000E+03 0.  1.
<mgrwt>
<rscale>  0 0.67045064E+03</rscale>
<asrwt>0</asrwt>
<pdfrwt beam="1">  1        2 0.14592893E+00 0.77440650E+03</pdfrwt>
<pdfrwt beam="2">  1       -2 0.61201626E-01 0.77440650E+03</pdfrwt>
<totfact> 0.68408826E+01</totfact>
</mgrwt>
</event>
<event>
 4    1  0.2051094E-007  0.1163675E+04  0.7818608E-02  0.9193267E-01
          2   -1    0    0  501    0  0.00000000000E+00  0.00000000000E+00  0.20479889690E+04  0.20479889690E+04  0.25500000000E-02 0. -1.
         -2   -1    0    0    0  501 -0.00000000000E+00 -0.00000000000E+00 -0.86448385129E+03  0.86448385130E+03  0.25500000000E-02 0.  1.
    8880023    1    1    2    0    0  0.75863991054E+03 -0.58719294676E+03  0.14929802027E+04  0.18929157832E+04  0.65864270000E+03 0.  0.
    8880022    1    1    2    0    0 -0.75863991054E+03  0.58719294676E+03 -0.30947508497E+03  0.10195570371E+04  0.15294330000E+03 0.  0.
<mgrwt>
<rscale>  0 0.11123190E+04</rscale>
<asrwt>0</asrwt>
<pdfrwt beam="1">  1        2 0.31507522E+00 0.11636753E+04</pdfrwt>
<pdfrwt beam="2">  1       -2 0.13299752E+00 0.11636753E+04</pdfrwt>
<totfact> 0.25211325E+00</totfact>
</mgrwt>
</event>
<event>
 4    1  0.2051094E-007  0.1345625E+04  0.7818608E-02  0.9027128E-01
         -2   -1    0    0    0  501 -0.00000000000E+00  0.00000000000E+00  0.20222261650E+04  0.20222261650E+04  0.25500000000E-02 0.  1.
          2   -1    0    0  501    0  0.00000000000E+00 -0.00000000000E+00 -0.24092101977E+04  0.24092101977E+04  0.25500000000E-02 0. -1.
    8880023    1    1    2    0    0  0.93897174786E+03 -0.70372446281E+03 -0.20124361205E+04  0.24208687301E+04  0.65864270000E+03 0. -1.
    8880022    1    1    2    0    0 -0.93897174786E+03  0.70372446281E+03  0.16254520878E+04  0.20105676327E+04  0.15294330000E+03 0.  0.
<mgrwt>
<rscale>  0 0.13030772E+04</rscale>
<asrwt>0</asrwt>
<pdfrwt beam="1">  1        2 0.37064773E+00 0.13456249E+04</pdfrwt>
<pdfrwt beam="2">  1       -2 0.31111172E+00 0.13456249E+04</pdfrwt>
<totfact> 0.10230714E-01</totfact>
</mgrwt>
</event>
<event>
 4    1  0.2051094E-007  0.1285545E+04  0.7818608E-02  0.9078144E-01
          2   -1    0    0  501    0  0.00000000000E+00  0.00000000000E+00  0.10902304954E+04  0.10902304954E+04  0.25500000000E-02 0. -1.
         -2   -1    0    0    0  501 -0.00000000000E+00 -0.00000000000E+00 -0.19662309360E+04  0.19662309360E+04  0.25500000000E-02 0.  1.
    8880023    1    1    2    0    0 -0.41798978477E+03  0.10218128273E+04  0.41504089275E+03  0.13508834380E+04  0.65864270000E+03 0.  0.
    8880022    1    1    2    0    0  0.41798978477E+03 -0.10218128273E+04 -0.12910413333E+04  0.17055779934E+04  0.15294330000E+03 0.  0.
<mgrwt>
<rscale>  0 0.12404804E+04</rscale>
<asrwt>0</asrwt>
<pdfrwt beam="1">  1        2 0.16772777E+00 0.12855455E+04</pdfrwt>
<pdfrwt beam="2">  1       -2 0.30249707E+00 0.12855455E+04</pdfrwt>
<totfact> 0.65601558E-01</totfact>
</mgrwt>
</event>
<event>
 4    1  0.2051094E-007  0.8440433E+03  0.7818608E-02  0.9622603E-01
         -2   -1    0    0    0  501 -0.00000000000E+00  0.00000000000E+00  0.37927288688E+03  0.37927288689E+03  0.25500000000E-02 0.  1.
          2   -1    0    0  501    0  0.00000000000E+00 -0.00000000000E+00 -0.26585682069E+04  0.26585682069E+04  0.25500000000E-02 0. -1.
    8880023    1    1    2    0    0  0.52631495476E+03  0.39893080356E+02 -0.23375107581E+04  0.24852294944E+04  0.65864270000E+03 0. -1.
    8880022    1    1    2    0    0 -0.52631495476E+03 -0.39893080356E+02  0.58215438126E+02  0.55261159933E+03  0.15294330000E+03 0.  0.
<mgrwt>
<rscale>  0 0.75818068E+03</rscale>
<asrwt>0</asrwt>
<pdfrwt beam="1">  1        2 0.40901048E+00 0.84404330E+03</pdfrwt>
<pdfrwt beam="2">  1       -2 0.58349677E-01 0.84404330E+03</pdfrwt>
<totfact> 0.80103264E+00</totfact>
</mgrwt>
</event>
<event>
 4    1  0.2051094E-007  0.8330332E+03  0.7818608E-02  0.9643459E-01
          2   -1    0    0  501    0  0.00000000000E+00  0.00000000000E+00  0.10360652597E+04  0.10360652597E+04  0.25500000000E-02 0. -1.
         -2   -1    0    0    0  501 -0.00000000000E+00 -0.00000000000E+00 -0.97059582003E+03  0.97059582003E+03  0.25500000000E-02 0.  1.
    8880023    1    1    2    0    0  0.14899328400E+02 -0.50981576958E+03  0.76263966222E+03  0.11294085043E+04  0.65864270000E+03 0.  0.
    8880022    1    1    2    0    0 -0.14899328400E+02  0.50981576958E+03 -0.69717022255E+03  0.87725257544E+03  0.15294330000E+03 0.  0.
<mgrwt>
<rscale>  0 0.74485339E+03</rscale>
<asrwt>0</asrwt>
<pdfrwt beam="1">  1        2 0.15939466E+00 0.83303320E+03</pdfrwt>
<pdfrwt beam="2">  1       -2 0.14932243E+00 0.83303320E+03</pdfrwt>
<totfact> 0.73065411E+00</totfact>
</mgrwt>
</event>
<event>
 4    1  0.2051094E-007  0.1034984E+04  0.7818608E-02  0.9337154E-01
         -2   -1    0    0    0  501 -0.00000000000E+00  0.00000000000E+00  0.11945686003E+04  0.11945686003E+04  0.25500000000E-02 0.  1.
          2   -1    0    0  501    0  0.00000000000E+00 -0.00000000000E+00 -0.34317660020E+04  0.34317660020E+04  0.25500000000E-02 0. -1.
    8880023    1    1    2    0    0 -0.76545527291E+03  0.22684912450E+03 -0.32017823890E+04  0.33649075727E+04  0.65864270000E+03 0.  0.
    8880022    1    1    2    0    0  0.76545527291E+03 -0.22684912450E+03  0.96458498732E+03  0.12614270296E+04  0.15294330000E+03 0.  0.
<mgrwt>
<rscale>  0 0.97433193E+03</rscale>
<asrwt>0</asrwt>
<pdfrwt beam="1">  1        2 0.52796400E+00 0.10349843E+04</pdfrwt>
<pdfrwt beam="2">  1       -2 0.18377979E+00 0.10349843E+04</pdfrwt>
<totfact> 0.15819023E-01</totfact>
</mgrwt>
</event>
<event>
 4    1  0.2051094E-007  0.1152980E+04  0.7818608E-02  0.9204243E-01
          2   -1    0    0  501    0  0.00000000000E+00  0.00000000000E+00  0.33039165484E+04  0.33039165484E+04  0.25500000000E-02 0. -1.
         -2   -1    0    0    0  501 -0.00000000000E+00 -0.00000000000E+00 -0.46832026630E+03  0.46832026631E+03  0.25500000000E-02 0.  1.
    8880023    1    1    2    0    0  0.83885861493E+03 -0.43802711325E+03  0.25060487876E+04  0.27585580037E+04  0.65864270000E+03 0.  0.
    8880022    1    1    2    0    0 -0.83885861493E+03  0.43802711325E+03  0.32954749456E+03  0.10136788110E+04  0.15294330000E+03 0.  0.
<mgrwt>
<rscale>  0 0.11009745E+04</rscale>
<asrwt>0</asrwt>
<pdfrwt beam="1">  1        2 0.50829483E+00 0.11529795E+04</pdfrwt>
<pdfrwt beam="2">  1       -2 0.72049275E-01 0.11529795E+04</pdfrwt>
<totfact> 0.19451408E+00</totfact>
</mgrwt>
</event>
<event>
 4    1  0.2051094E-007  0.1053687E+04  0.7818608E-02  0.9314462E-01
          2   -1    0    0  501    0  0.00000000000E+00  0.00000000000E+00  0.24191406745E+04  0.24191406745E+04  0.25500000000E-02 0. -1.
         -2   -1    0    0    0  501 -0.00000000000E+00 -0.00000000000E+00 -0.47094232687E+03  0.47094232687E+03  0.25500000000E-02 0.  1.
    8880023    1    1    2    0    0  0.15651866640E+03 -0.80743303741E+03  0.17298455591E+04  0.20254930430E+04  0.65864270000E+03 0. -1.
    8880022    1    1    2    0    0 -0.15651866640E+03  0.80743303741E+03  0.21835278859E+03  0.86458995838E+03  0.15294330000E+03 0.  0.
<mgrwt>
<rscale>  0 0.99462280E+03</rscale>
<asrwt>0</asrwt>
<pdfrwt beam="1">  1        2 0.37217549E+00 0.10536871E+04</pdfrwt>
<pdfrwt beam="2">  1       -2 0.72452666E-01 0.10536871E+04</pdfrwt>
<totfact> 0.66989798E+00</totfact>
</mgrwt>
</event>
<event>
 4    1  0.2051094E-007  0.1061495E+04  0.7818608E-02  0.9305189E-01
          2   -1    0    0  501    0  0.00000000000E+00  0.00000000000E+00  0.13131109202E+04  0.13131109202E+04  0.25500000000E-02 0. -1.
         -2   -1    0    0    0  501 -0.00000000000E+00 -0.00000000000E+00 -0.92136409976E+03  0.92136409976E+03  0.25500000000E-02 0.  1.
    8880023    1    1    2    0    0 -0.77093058875E+03 -0.31404850559E+03  0.76602959707E+03  0.13090347537E+04  0.65864270000E+03 0. -1.
    8880022    1    1    2    0    0  0.77093058875E+03  0.31404850559E+03 -0.37428277664E+03  0.92544026627E+03  0.15294330000E+03 0.  0.
<mgrwt>
<rscale>  0 0.10030651E+04</rscale>
<asrwt>0</asrwt>
<pdfrwt beam="1">  1        2 0.20201706E+00 0.10614945E+04</pdfrwt>
<pdfrwt beam="2">  1       -2 0.14174832E+00 0.10614945E+04</pdfrwt>
<totfact> 0.55675827E+00</totfact>
</mgrwt>
</event>
<event>
 4    1  0.2051094E-007  0.7673827E+03  0.7818608E-02  0.9786356E-01
          2   -1    0    0  501    0  0.00000000000E+00  0.00000000000E+00  0.26265111525E+04  0.26265111525E+04  0.25500000000E-02 0. -1.
         -2   -1    0    0    0  501 -0.00000000000E+00 -0.00000000000E+00 -0.34923182204E+03  0.34923182205E+03  0.25500000000E-02 0.  1.
    8880023    1    1    2    0    0 -0.27263206756E+03 -0.28414390544E+03  0.24129608430E+04  0.25320458604E+04  0.65864270000E+03 0.  0.
    8880022    1    1    2    0    0  0.27263206756E+03  0.28414390544E+03 -0.13568151250E+03  0.44369711416E+03  0.15294330000E+03 0.  0.
<mgrwt>
<rscale>  0 0.66099915E+03</rscale>
<asrwt>0</asrwt>
<pdfrwt beam="1">  1        2 0.40407866E+00 0.76738270E+03</pdfrwt>
<pdfrwt beam="2">  1       -2 0.53727970E-01 0.76738270E+03</pdfrwt>
<totfact> 0.10051974E+01</totfact>
</mgrwt>
</event>
<event>
 4    1  0.2051094E-007  0.8017892E+03  0.7818608E-02  0.9706941E-01
         -2   -1    0    0    0  501 -0.00000000000E+00  0.00000000000E+00  0.91292015403E+03  0.91292015404E+03  0.25500000000E-02 0.  1.
          2   -1    0    0  501    0  0.00000000000E+00 -0.00000000000E+00 -0.15267625677E+04  0.15267625677E+04  0.25500000000E-02 0. -1.
    8880023    1    1    2    0    0  0.33460936545E+03 -0.31159637130E+03 -0.13438330102E+04  0.15648492233E+04  0.65864270000E+03 0. -1.
    8880022    1    1    2    0    0 -0.33460936545E+03  0.31159637130E+03  0.72999059651E+03  0.87483349848E+03  0.15294330000E+03 0.  0.
<mgrwt>
<rscale>  0 0.70605045E+03</rscale>
<asrwt>0</asrwt>
<pdfrwt beam="1">  1        2 0.23488655E+00 0.80178921E+03</pdfrwt>
<pdfrwt beam="2">  1       -2 0.14044925E+00 0.80178921E+03</pdfrwt>
<totfact> 0.44481370E+00</totfact>
</mgrwt>
</event>
<event>
 4    1  0.2051094E-007  0.7502093E+03  0.7818608E-02  0.9831148E-01
          2   -1    0    0  501    0  0.00000000000E+00  0.00000000000E+00  0.16616864181E+03  0.16616864183E+03  0.25500000000E-02 0. -1.
         -2   -1    0    0    0  501 -0.00000000000E+00 -0.00000000000E+00 -0.20280904454E+04  0.20280904454E+04  0.25500000000E-02 0.  1.
    8880023    1    1    2    0    0 -0.23660197168E+03 -0.27022825141E+03 -0.14093397284E+04  0.15965752338E+04  0.65864270000E+03 0. -1.
    8880022    1    1    2    0    0  0.23660197168E+03  0.27022825141E+03 -0.45258207516E+03  0.59768385342E+03  0.15294330000E+03 0.  0.
<mgrwt>
<rscale>  0 0.63717443E+03</rscale>
<asrwt>0</asrwt>
<pdfrwt beam="1">  1        2 0.25564408E-01 0.75020931E+03</pdfrwt>
<pdfrwt beam="2">  1       -2 0.31201390E+00 0.75020931E+03</pdfrwt>
<totfact> 0.59665889E+00</totfact>
</mgrwt>
</event>
<event>
 4    1  0.2051094E-007  0.1159962E+04  0.7818608E-02  0.9197060E-01
         -2   -1    0    0    0  501 -0.00000000000E+00  0.00000000000E+00  0.93229951035E+03  0.93229951036E+03  0.25500000000E-02 0.  1.
          2   -1    0    0  501    0  0.00000000000E+00 -0.00000000000E+00 -0.30100147498E+04  0.30100147498E+04  0.25500000000E-02 0. -1.
    8880023    1    1    2    0    0  0.68279424301E+03  0.66745364654E+03 -0.25973059800E+04  0.28445581218E+04  0.65864270000E+03 0.  0.
    8880022    1    1    2    0    0 -0.68279424301E+03 -0.66745364654E+03  0.51959074054E+03  0.10977561383E+04  0.15294330000E+03 0.  0.
<mgrwt>
<rscale>  0 0.11083829E+04</rscale>
<asrwt>0</asrwt>
<pdfrwt beam="1">  1        2 0.46307919E+00 0.11599623E+04</pdfrwt>
<pdfrwt beam="2">  1       -2 0.14343070E+00 0.11599623E+04</pdfrwt>
<totfact> 0.57365225E-01</totfact>
</mgrwt>
</event>
<event>
 4    1  0.2051094E-007  0.1528470E+04  0.7818608E-02  0.8889789E-01
          2   -1    0    0  501    0  0.00000000000E+00  0.00000000000E+00  0.36422093371E+04  0.36422093371E+04  0.25500000000E-02 0. -1.
         -2   -1    0    0    0  501 -0.00000000000E+00 -0.00000000000E+00 -0.75931469138E+03  0.75931469139E+03  0.25500000000E-02 0.  1.
    8880023    1    1    2    0    0 -0.13658277986E+04 -0.19215978754E+03  0.25522754781E+04  0.29749506352E+04  0.65864270000E+03 0.  0.
    8880022    1    1    2    0    0  0.13658277986E+04  0.19215978754E+03  0.33061916761E+03  0.14265733933E+04  0.15294330000E+03 0.  0.
<mgrwt>
<rscale>  0 0.14920013E+04</rscale>
<asrwt>0</asrwt>
<pdfrwt beam="1">  1        2 0.56033989E+00 0.15284702E+04</pdfrwt>
<pdfrwt beam="2">  1       -2 0.11681765E+00 0.15284702E+04</pdfrwt>
<totfact> 0.34954636E-01</totfact>
</mgrwt>
</event>
<event>
 4    1  0.2051094E-007  0.1288041E+04  0.7818608E-02  0.9075957E-01
          2   -1    0    0  501    0  0.00000000000E+00  0.00000000000E+00  0.24126773335E+04  0.24126773335E+04  0.25500000000E-02 0. -1.
         -2   -1    0    0    0  501 -0.00000000000E+00 -0.00000000000E+00 -0.77892028805E+03  0.77892028806E+03  0.25500000000E-02 0.  1.
    8880023    1    1    2    0    0 -0.10951566516E+04 -0.16084429941E+03  0.16257424437E+04  0.20741474585E+04  0.65864270000E+03 0. -1.
    8880022    1    1    2    0    0  0.10951566516E+04  0.16084429941E+03  0.80146017892E+01  0.11174501631E+04  0.15294330000E+03 0.  0.
<mgrwt>
<rscale>  0 0.12430868E+04</rscale>
<asrwt>0</asrwt>
<pdfrwt beam="1">  1        2 0.37118113E+00 0.12880408E+04</pdfrwt>
<pdfrwt beam="2">  1       -2 0.11983389E+00 0.12880408E+04</pdfrwt>
<totfact> 0.20206127E+00</totfact>
</mgrwt>
</event>
<event>
 4    1  0.2051094E-007  0.1681991E+04  0.7818608E-02  0.8790787E-01
          2   -1    0    0  501    0  0.00000000000E+00  0.00000000000E+00  0.12404225336E+04  0.12404225336E+04  0.25500000000E-02 0. -1.
         -2   -1    0    0    0  501 -0.00000000000E+00 -0.00000000000E+00 -0.28777183570E+04  0.28777183570E+04  0.25500000000E-02 0.  1.
    8880023    1    1    2    0    0 -0.15299354901E+04  0.23362351043E+03  0.21931054722E+03  0.16962281306E+04  0.65864270000E+03 0.  0.
    8880022    1    1    2    0    0  0.15299354901E+04 -0.23362351043E+03 -0.18566063706E+04  0.24219127600E+04  0.15294330000E+03 0.  0.
<mgrwt>
<rscale>  0 0.16493578E+04</rscale>
<asrwt>0</asrwt>
<pdfrwt beam="1">  1        2 0.19083424E+00 0.16819907E+04</pdfrwt>
<pdfrwt beam="2">  1       -2 0.44272590E+00 0.16819907E+04</pdfrwt>
<totfact> 0.64268072E-02</totfact>
</mgrwt>
</event>
<event>
 4    1  0.2051094E-007  0.6768129E+03  0.7818608E-02  0.1011187E+00
          2   -1    0    0  501    0  0.00000000000E+00  0.00000000000E+00  0.26828947251E+04  0.26828947251E+04  0.25500000000E-02 0. -1.
         -2   -1    0    0    0  501 -0.00000000000E+00 -0.00000000000E+00 -0.17195506771E+03  0.17195506773E+03  0.25500000000E-02 0.  1.
    8880023    1    1    2    0    0  0.18001540163E+02 -0.15473026140E+03  0.25453972986E+04  0.26338418941E+04  0.65864270000E+03 0. -1.
    8880022    1    1    2    0    0 -0.18001540163E+02  0.15473026140E+03 -0.34457641197E+02  0.22100789871E+03  0.15294330000E+03 0.  0.
<mgrwt>
<rscale>  0 0.51005557E+03</rscale>
<asrwt>0</asrwt>
<pdfrwt beam="1">  1        2 0.41275302E+00 0.67681291E+03</pdfrwt>
<pdfrwt beam="2">  1       -2 0.26454627E-01 0.67681291E+03</pdfrwt>
<totfact> 0.37222254E+01</totfact>
</mgrwt>
</event>
<event>
 4    1  0.2051094E-007  0.1216285E+04  0.7818608E-02  0.9141453E-01
         -2   -1    0    0    0  501 -0.00000000000E+00  0.00000000000E+00  0.82401479229E+03  0.82401479229E+03  0.25500000000E-02 0.  1.
          2   -1    0    0  501    0  0.00000000000E+00 -0.00000000000E+00 -0.16779719394E+04  0.16779719394E+04  0.25500000000E-02 0. -1.
    8880023    1    1    2    0    0 -0.65029437920E+03  0.78908526574E+03 -0.96085189239E+02  0.12200741396E+04  0.65864270000E+03 0.  0.
    8880022    1    1    2    0    0  0.65029437920E+03 -0.78908526574E+03 -0.75787195784E+03  0.12819125921E+04  0.15294330000E+03 0.  0.
<mgrwt>
<rscale>  0 0.11678716E+04</rscale>
<asrwt>0</asrwt>
<pdfrwt beam="1">  1        2 0.25814953E+00 0.12162847E+04</pdfrwt>
<pdfrwt beam="2">  1       -2 0.12677151E+00 0.12162847E+04</pdfrwt>
<totfact> 0.45416833E+00</totfact>
</mgrwt>
</event>
<event>
 4    1  0.2051094E-007  0.1357357E+04  0.7818608E-02  0.9017546E-01
         -2   -1    0    0    0  501 -0.00000000000E+00  0.00000000000E+00  0.14164012278E+04  0.14164012278E+04  0.25500000000E-02 0.  1.
          2   -1    0    0  501    0  0.00000000000E+00 -0.00000000000E+00 -0.40104616665E+04  0.40104616665E+04  0.25500000000E-02 0. -1.
    8880023    1    1    2    0    0  0.11830037485E+04 -0.95447242018E+02 -0.36102258093E+04  0.38569610635E+04  0.65864270000E+03 0.  0.
    8880022    1    1    2    0    0 -0.11830037485E+04  0.95447242018E+02  0.10161653705E+04  0.15699018308E+04  0.15294330000E+03 0.  0.
<mgrwt>
<rscale>  0 0.13152656E+04</rscale>
<asrwt>0</asrwt>
<pdfrwt beam="1">  1        2 0.61699410E+00 0.13573571E+04</pdfrwt>
<pdfrwt beam="2">  1       -2 0.21790788E+00 0.13573571E+04</pdfrwt>
<totfact> 0.33423197E-02</totfact>
</mgrwt>
</event>
<event>
 4    1  0.2230134E-007  0.7487921E+03  0.7818608E-02  0.9835039E-01
         -2   -1    0    0    0  501 -0.00000000000E+00  0.00000000000E+00  0.16517374202E+04  0.16517374202E+04  0.25500000000E-02 0.  1.
          2   -1    0    0  501    0  0.00000000000E+00 -0.00000000000E+00 -0.31113330304E+04  0.31113330304E+04  0.25500000000E-02 0. -1.
    8880023    1    1    2    0    0 -0.34896336825E+03 -0.71441870501E+02 -0.30425525026E+04  0.31333393226E+04  0.65864270000E+03 0. -1.
    8880022    1    1    2    0    0  0.34896336825E+03  0.71441870501E+02  0.15829568924E+04  0.16297311280E+04  0.15294330000E+03 0.  0.
<mgrwt>
<rscale>  0 0.63515590E+03</rscale>
<asrwt>0</asrwt>
<pdfrwt beam="1">  1        2 0.47866662E+00 0.74879208E+03</pdfrwt>
<pdfrwt beam="2">  1       -2 0.25411345E+00 0.74879208E+03</pdfrwt>
<totfact> 0.97981089E-02</totfact>
</mgrwt>
</event>
<event>
 4    1  0.2051094E-007  0.7571973E+03  0.7818608E-02  0.9812418E-01
          2   -1    0    0  501    0  0.00000000000E+00  0.00000000000E+00  0.10858555410E+04  0.10858555410E+04  0.25500000000E-02 0. -1.
         -2   -1    0    0    0  501 -0.00000000000E+00 -0.00000000000E+00 -0.19321183659E+04  0.19321183659E+04  0.25500000000E-02 0.  1.
    8880023    1    1    2    0    0 -0.36371237258E+03  0.85152231653E+02  0.92837499979E+03  0.11980099912E+04  0.65864270000E+03 0. -1.
    8880022    1    1    2    0    0  0.36371237258E+03 -0.85152231653E+02 -0.17746378247E+04  0.18199639157E+04  0.15294330000E+03 0.  0.
<mgrwt>
<rscale>  0 0.64700358E+03</rscale>
<asrwt>0</asrwt>
<pdfrwt beam="1">  1        2 0.16705470E+00 0.75719733E+03</pdfrwt>
<pdfrwt beam="2">  1       -2 0.29724898E+00 0.75719733E+03</pdfrwt>
<totfact> 0.76785091E-01</totfact>
</mgrwt>
</event>
<event>
 4    1  0.2051094E-007  0.8525568E+03  0.7818608E-02  0.9606943E-01
          2   -1    0    0  501    0  0.00000000000E+00  0.00000000000E+00  0.30341430077E+04  0.30341430077E+04  0.25500000000E-02 0. -1.
         -2   -1    0    0    0  501 -0.00000000000E+00 -0.00000000000E+00 -0.22809475741E+03  0.22809475743E+03  0.25500000000E-02 0.  1.
    8880023    1    1    2    0    0  0.28495502079E+03  0.46026465303E+03  0.24558168791E+04  0.25995941346E+04  0.65864270000E+03 0. -1.
    8880022    1    1    2    0    0 -0.28495502079E+03 -0.46026465303E+03  0.35023137120E+03  0.66264363054E+03  0.15294330000E+03 0.  0.
<mgrwt>
<rscale>  0 0.76838342E+03</rscale>
<asrwt>0</asrwt>
<pdfrwt beam="1">  1        2 0.46679121E+00 0.85255681E+03</pdfrwt>
<pdfrwt beam="2">  1       -2 0.35091502E-01 0.85255681E+03</pdfrwt>
<totfact> 0.13198305E+01</totfact>
</mgrwt>
</event>
<event>
 4    1  0.2051094E-007  0.8008375E+03  0.7818608E-02  0.9708988E-01
         -2   -1    0    0    0  501 -0.00000000000E+00  0.00000000000E+00  0.51360604156E+03  0.51360604157E+03  0.25500000000E-02 0.  1.
          2   -1    0    0  501    0  0.00000000000E+00 -0.00000000000E+00 -0.18851836997E+04  0.18851836997E+04  0.25500000000E-02 0. -1.
    8880023    1    1    2    0    0 -0.64369582147E+02  0.45098455852E+03 -0.16566422219E+04  0.18400554809E+04  0.65864270000E+03 0.  0.
    8880022    1    1    2    0    0  0.64369582147E+02 -0.45098455852E+03  0.28506456380E+03  0.55873426034E+03  0.15294330000E+03 0.  0.
<mgrwt>
<rscale>  0 0.70484157E+03</rscale>
<asrwt>0</asrwt>
<pdfrwt beam="1">  1        2 0.29002826E+00 0.80083751E+03</pdfrwt>
<pdfrwt beam="2">  1       -2 0.79016315E-01 0.80083751E+03</pdfrwt>
<totfact> 0.11275950E+01</totfact>
</mgrwt>
</event>
<event>
 4    1  0.2051094E-007  0.6733528E+03  0.7818608E-02  0.1013365E+00
          2   -1    0    0  501    0  0.00000000000E+00  0.00000000000E+00  0.66918208008E+03  0.66918208009E+03  0.25500000000E-02 0. -1.
         -2   -1    0    0    0  501 -0.00000000000E+00 -0.00000000000E+00 -0.21269172423E+04  0.21269172423E+04  0.25500000000E-02 0.  1.
    8880023    1    1    2    0    0 -0.65514023947E+02  0.12369983915E+03  0.49289893145E+03  0.83447786096E+03  0.65864270000E+03 0.  0.
    8880022    1    1    2    0    0  0.65514023947E+02 -0.12369983915E+03 -0.19506340937E+04  0.19616214615E+04  0.15294330000E+03 0.  1.
<mgrwt>
<rscale>  0 0.50158795E+03</rscale>
<asrwt>0</asrwt>
<pdfrwt beam="1">  1        2 0.10295109E+00 0.67335276E+03</pdfrwt>
<pdfrwt beam="2">  1       -2 0.32721804E+00 0.67335276E+03</pdfrwt>
<totfact> 0.99811903E-01</totfact>
</mgrwt>
</event>
<event>
 4    1  0.2051094E-007  0.8627971E+03  0.7818608E-02  0.9588607E-01
          2   -1    0    0  501    0  0.00000000000E+00  0.00000000000E+00  0.38828877717E+04  0.38828877717E+04  0.25500000000E-02 0. -1.
         -2   -1    0    0    0  501 -0.00000000000E+00 -0.00000000000E+00 -0.43025697012E+03  0.43025697012E+03  0.25500000000E-02 0.  1.
    8880023    1    1    2    0    0  0.15676196422E+03  0.53482181610E+03  0.36120220515E+04  0.37136400196E+04  0.65864270000E+03 0. -1.
    8880022    1    1    2    0    0 -0.15676196422E+03 -0.53482181610E+03 -0.15939124991E+03  0.59950472222E+03  0.15294330000E+03 0.  0.
<mgrwt>
<rscale>  0 0.78054848E+03</rscale>
<asrwt>0</asrwt>
<pdfrwt beam="1">  1        2 0.59736737E+00 0.86279713E+03</pdfrwt>
<pdfrwt beam="2">  1       -2 0.66193378E-01 0.86279713E+03</pdfrwt>
<totfact> 0.95948555E-01</totfact>
</mgrwt>
</event>
<event>
 4    1  0.2051094E-007  0.6935571E+03  0.7818608E-02  0.1002506E+00
          2   -1    0    0  501    0  0.00000000000E+00  0.00000000000E+00  0.70968593295E+03  0.70968593296E+03  0.25500000000E-02 0. -1.
         -2   -1    0    0    0  501 -0.00000000000E+00 -0.00000000000E+00 -0.46923088216E+03  0.46923088217E+03  0.25500000000E-02 0.  1.
    8880023    1    1    2    0    0  0.82717363729E+02  0.20092049296E+03  0.46167821201E+03  0.83316756086E+03  0.65864270000E+03 0.  0.
    8880022    1    1    2    0    0 -0.82717363729E+02 -0.20092049296E+03 -0.22122316122E+03  0.34574925427E+03  0.15294330000E+03 0.  0.
<mgrwt>
<rscale>  0 0.54565035E+03</rscale>
<asrwt>0</asrwt>
<pdfrwt beam="1">  1        2 0.10918245E+00 0.69355707E+03</pdfrwt>
<pdfrwt beam="2">  1       -2 0.72189367E-01 0.69355707E+03</pdfrwt>
<totfact> 0.71121313E+01</totfact>
</mgrwt>
</event>
<event>
 4    1  0.2051094E-007  0.1201165E+04  0.7818608E-02  0.9155990E-01
          2   -1    0    0  501    0  0.00000000000E+00  0.00000000000E+00  0.24535282429E+04  0.24535282429E+04  0.25500000000E-02 0. -1.
         -2   -1    0    0    0  501 -0.00000000000E+00 -0.00000000000E+00 -0.80540548346E+03  0.80540548346E+03  0.25500000000E-02 0.  1.
    8880023    1    1    2    0    0 -0.72545637510E+03  0.69476710690E+03  0.18665675761E+04  0.22196560561E+04  0.65864270000E+03 0.  0.
    8880022    1    1    2    0    0  0.72545637510E+03 -0.69476710690E+03 -0.21844481664E+03  0.10392776703E+04  0.15294330000E+03 0.  0.
<mgrwt>
<rscale>  0 0.11519459E+04</rscale>
<asrwt>0</asrwt>
<pdfrwt beam="1">  1        2 0.37746588E+00 0.12011655E+04</pdfrwt>
<pdfrwt beam="2">  1       -2 0.12390854E+00 0.12011655E+04</pdfrwt>
<totfact> 0.17782503E+00</totfact>
</mgrwt>
</event>
<event>
 4    1  0.2051094E-007  0.9014352E+03  0.7818608E-02  0.9523732E-01
          2   -1    0    0  501    0  0.00000000000E+00  0.00000000000E+00  0.16888439266E+04  0.16888439266E+04  0.25500000000E-02 0. -1.
         -2   -1    0    0    0  501 -0.00000000000E+00 -0.00000000000E+00 -0.81213768207E+03  0.81213768207E+03  0.25500000000E-02 0.  1.
    8880023    1    1    2    0    0  0.17399470356E+03 -0.59033975824E+03  0.14092341760E+04  0.16728796597E+04  0.65864270000E+03 0. -1.
    8880022    1    1    2    0    0 -0.17399470356E+03  0.59033975824E+03 -0.53252793144E+03  0.82810194892E+03  0.15294330000E+03 0.  0.
<mgrwt>
<rscale>  0 0.82556574E+03</rscale>
<asrwt>0</asrwt>
<pdfrwt beam="1">  1        2 0.25982214E+00 0.90143519E+03</pdfrwt>
<pdfrwt beam="2">  1       -2 0.12494426E+00 0.90143519E+03</pdfrwt>
<totfact> 0.48101617E+00</totfact>
</mgrwt>
</event>
<event>
 4    1  0.2051094E-007  0.1150759E+04  0.7818608E-02  0.9206540E-01
          2   -1    0    0  501    0  0.00000000000E+00  0.00000000000E+00  0.67984396912E+03  0.67984396912E+03  0.25500000000E-02 0. -1.
         -2   -1    0    0    0  501 -0.00000000000E+00 -0.00000000000E+00 -0.16805053052E+04  0.16805053052E+04  0.25500000000E-02 0.  1.
    8880023    1    1    2    0    0  0.78822601772E+03 -0.51878385146E+03 -0.74479940226E+03  0.13707564683E+04  0.65864270000E+03 0.  0.
    8880022    1    1    2    0    0 -0.78822601772E+03  0.51878385146E+03 -0.25586193383E+03  0.98959280603E+03  0.15294330000E+03 0.  0.
<mgrwt>
<rscale>  0 0.10986174E+04</rscale>
<asrwt>0</asrwt>
<pdfrwt beam="1">  1        2 0.10459138E+00 0.11507594E+04</pdfrwt>
<pdfrwt beam="2">  1       -2 0.25853928E+00 0.11507594E+04</pdfrwt>
<totfact> 0.23818995E+00</totfact>
</mgrwt>
</event>
<event>
 4    1  0.2051094E-007  0.9693924E+03  0.7818608E-02  0.9422745E-01
          2   -1    0    0  501    0  0.00000000000E+00  0.00000000000E+00  0.28571770967E+04  0.28571770967E+04  0.25500000000E-02 0. -1.
         -2   -1    0    0    0  501 -0.00000000000E+00 -0.00000000000E+00 -0.31003310010E+03  0.31003310011E+03  0.25500000000E-02 0.  1.
    8880023    1    1    2    0    0  0.68095132108E+03  0.20546723618E+03  0.21007996917E+04  0.23136726298E+04  0.65864270000E+03 0.  0.
    8880022    1    1    2    0    0 -0.68095132108E+03 -0.20546723618E+03  0.44634430490E+03  0.85353756705E+03  0.15294330000E+03 0.  0.
<mgrwt>
<rscale>  0 0.90227262E+03</rscale>
<asrwt>0</asrwt>
<pdfrwt beam="1">  1        2 0.43956572E+00 0.96939244E+03</pdfrwt>
<pdfrwt beam="2">  1       -2 0.47697398E-01 0.96939244E+03</pdfrwt>
<totfact> 0.91026651E+00</totfact>
</mgrwt>
</event>
<event>
 4    1  0.2051094E-007  0.1166281E+04  0.7818608E-02  0.9190617E-01
         -2   -1    0    0    0  501 -0.00000000000E+00  0.00000000000E+00  0.63284453533E+03  0.63284453534E+03  0.25500000000E-02 0.  1.
          2   -1    0    0  501    0  0.00000000000E+00 -0.00000000000E+00 -0.37298140135E+04  0.37298140135E+04  0.25500000000E-02 0. -1.
    8880023    1    1    2    0    0  0.67402176589E+03 -0.68709201549E+03 -0.31774870706E+04  0.33847651424E+04  0.65864270000E+03 0.  0.
    8880022    1    1    2    0    0 -0.67402176589E+03  0.68709201549E+03  0.80517592494E+02  0.97789340645E+03  0.15294330000E+03 0.  0.
<mgrwt>
<rscale>  0 0.11150798E+04</rscale>
<asrwt>0</asrwt>
<pdfrwt beam="1">  1        2 0.57381753E+00 0.11662808E+04</pdfrwt>
<pdfrwt beam="2">  1       -2 0.97360700E-01 0.11662808E+04</pdfrwt>
<totfact> 0.49383165E-01</totfact>
</mgrwt>
</event>
<event>
 4    1  0.2051094E-007  0.1082827E+04  0.7818608E-02  0.9280421E-01
          2   -1    0    0  501    0  0.00000000000E+00  0.00000000000E+00  0.86070605098E+03  0.86070605098E+03  0.25500000000E-02 0. -1.
         -2   -1    0    0    0  501 -0.00000000000E+00 -0.00000000000E+00 -0.18369351345E+04  0.18369351345E+04  0.25500000000E-02 0.  1.
    8880023    1    1    2    0    0  0.20941171008E+03  0.83357699072E+03  0.32513928095E+03  0.11305881753E+04  0.65864270000E+03 0.  0.
    8880022    1    1    2    0    0 -0.20941171008E+03 -0.83357699072E+03 -0.13013683645E+04  0.15670530103E+04  0.15294330000E+03 0.  0.
<mgrwt>
<rscale>  0 0.10260545E+04</rscale>
<asrwt>0</asrwt>
<pdfrwt beam="1">  1        2 0.13241632E+00 0.10828269E+04</pdfrwt>
<pdfrwt beam="2">  1       -2 0.28260540E+00 0.10828269E+04</pdfrwt>
<totfact> 0.12556347E+00</totfact>
</mgrwt>
</event>
<event>
 4    1  0.2051094E-007  0.7576990E+03  0.7818608E-02  0.9811101E-01
         -2   -1    0    0    0  501 -0.00000000000E+00  0.00000000000E+00  0.92022999841E+03  0.92022999841E+03  0.25500000000E-02 0.  1.
          2   -1    0    0  501    0  0.00000000000E+00 -0.00000000000E+00 -0.58959958259E+03  0.58959958259E+03  0.25500000000E-02 0. -1.
    8880023    1    1    2    0    0  0.33865115064E+03 -0.16004066572E+03 -0.25375225644E+03  0.79906071761E+03  0.65864270000E+03 0. -1.
    8880022    1    1    2    0    0 -0.33865115064E+03  0.16004066572E+03  0.58438267227E+03  0.71076886340E+03  0.15294330000E+03 0.  0.
<mgrwt>
<rscale>  0 0.64770176E+03</rscale>
<asrwt>0</asrwt>
<pdfrwt beam="1">  1        2 0.90707629E-01 0.75769903E+03</pdfrwt>
<pdfrwt beam="2">  1       -2 0.14157384E+00 0.75769903E+03</pdfrwt>
<totfact> 0.17902677E+01</totfact>
</mgrwt>
</event>
<event>
 4    1  0.2051094E-007  0.1123027E+04  0.7818608E-02  0.9235842E-01
         -2   -1    0    0    0  501 -0.00000000000E+00  0.00000000000E+00  0.18394791566E+04  0.18394791566E+04  0.25500000000E-02 0.  1.
          2   -1    0    0  501    0  0.00000000000E+00 -0.00000000000E+00 -0.22307397952E+04  0.22307397952E+04  0.25500000000E-02 0. -1.
    8880023    1    1    2    0    0 -0.17588744069E+03 -0.89243634846E+03 -0.19550679205E+04  0.22546573593E+04  0.65864270000E+03 0.  0.
    8880022    1    1    2    0    0  0.17588744069E+03  0.89243634846E+03  0.15638072819E+04  0.18155615924E+04  0.15294330000E+03 0.  0.
<mgrwt>
<rscale>  0 0.10691020E+04</rscale>
<asrwt>0</asrwt>
<pdfrwt beam="1">  1        2 0.34319074E+00 0.11230268E+04</pdfrwt>
<pdfrwt beam="2">  1       -2 0.28299679E+00 0.11230268E+04</pdfrwt>
<totfact> 0.19820821E-01</totfact>
</mgrwt>
</event>
<event>
 4    1  0.2051094E-007  0.1182689E+04  0.7818608E-02  0.9174136E-01
         -2   -1    0    0    0  501 -0.00000000000E+00  0.00000000000E+00  0.59094483095E+03  0.59094483096E+03  0.25500000000E-02 0.  1.
          2   -1    0    0  501    0  0.00000000000E+00 -0.00000000000E+00 -0.29333759957E+04  0.29333759957E+04  0.25500000000E-02 0. -1.
    8880023    1    1    2    0    0  0.73478682849E+03 -0.65194458917E+03 -0.22295064251E+04  0.25237774340E+04  0.65864270000E+03 0. -1.
    8880022    1    1    2    0    0 -0.73478682849E+03  0.65194458917E+03 -0.11292473963E+03  0.10005433926E+04  0.15294330000E+03 0.  0.
<mgrwt>
<rscale>  0 0.11324421E+04</rscale>
<asrwt>0</asrwt>
<pdfrwt beam="1">  1        2 0.45128861E+00 0.11826892E+04</pdfrwt>
<pdfrwt beam="2">  1       -2 0.90914591E-01 0.11826892E+04</pdfrwt>
<totfact> 0.19640205E+00</totfact>
</mgrwt>
</event>
<event>
 4    1  0.2051094E-007  0.8332773E+03  0.7818608E-02  0.9642989E-01
          2   -1    0    0  501    0  0.00000000000E+00  0.00000000000E+00  0.16931717897E+04  0.16931717897E+04  0.25500000000E-02 0. -1.
         -2   -1    0    0    0  501 -0.00000000000E+00 -0.00000000000E+00 -0.79661418719E+03  0.79661418719E+03  0.25500000000E-02 0.  1.
    8880023    1    1    2    0    0  0.49364826366E+03  0.12981593311E+03  0.14807330405E+04  0.16990942670E+04  0.65864270000E+03 0. -1.
    8880022    1    1    2    0    0 -0.49364826366E+03 -0.12981593311E+03 -0.58417543800E+03  0.79069170988E+03  0.15294330000E+03 0.  0.
<mgrwt>
<rscale>  0 0.74515055E+03</rscale>
<asrwt>0</asrwt>
<pdfrwt beam="1">  1        2 0.26048797E+00 0.83327726E+03</pdfrwt>
<pdfrwt beam="2">  1       -2 0.12255603E+00 0.83327726E+03</pdfrwt>
<totfact> 0.50672107E+00</totfact>
</mgrwt>
</event>
<event>
 4    1  0.2051094E-007  0.7481003E+03  0.7818608E-02  0.9836950E-01
          2   -1    0    0  501    0  0.00000000000E+00  0.00000000000E+00  0.97798841101E+03  0.97798841101E+03  0.25500000000E-02 0. -1.
         -2   -1    0    0    0  501 -0.00000000000E+00 -0.00000000000E+00 -0.34148916839E+03  0.34148916840E+03  0.25500000000E-02 0.  1.
    8880023    1    1    2    0    0  0.29341615735E+02  0.35352923954E+03  0.53603036277E+03  0.92031658124E+03  0.65864270000E+03 0.  0.
    8880022    1    1    2    0    0 -0.29341615735E+02 -0.35352923954E+03  0.10046887985E+03  0.39916099817E+03  0.15294330000E+03 0.  0.
<mgrwt>
<rscale>  0 0.63416737E+03</rscale>
<asrwt>0</asrwt>
<pdfrwt beam="1">  1        2 0.15045976E+00 0.74810030E+03</pdfrwt>
<pdfrwt beam="2">  1       -2 0.52536795E-01 0.74810030E+03</pdfrwt>
<totfact> 0.90217459E+01</totfact>
</mgrwt>
</event>
<event>
 4    1  0.2051094E-007  0.9212013E+03  0.7818608E-02  0.9492819E-01
         -2   -1    0    0    0  501 -0.00000000000E+00  0.00000000000E+00  0.10354979699E+04  0.10354979699E+04  0.25500000000E-02 0.  1.
          2   -1    0    0  501    0  0.00000000000E+00 -0.00000000000E+00 -0.23510731304E+04  0.23510731304E+04  0.25500000000E-02 0. -1.
    8880023    1    1    2    0    0 -0.37654867286E+03 -0.52250621307E+03 -0.21396615473E+04  0.23295414547E+04  0.65864270000E+03 0.  0.
    8880022    1    1    2    0    0  0.37654867286E+03  0.52250621307E+03  0.82408638685E+03  0.10570296456E+04  0.15294330000E+03 0.  1.
<mgrwt>
<rscale>  0 0.84815285E+03</rscale>
<asrwt>0</asrwt>
<pdfrwt beam="1">  1        2 0.36170356E+00 0.92120131E+03</pdfrwt>
<pdfrwt beam="2">  1       -2 0.15930738E+00 0.92120131E+03</pdfrwt>
<totfact> 0.10976977E+00</totfact>
</mgrwt>
</event>
<event>
 4    1  0.2051094E-007  0.1525190E+04  0.7818608E-02  0.8892050E-01
          2   -1    0    0  501    0  0.00000000000E+00  0.00000000000E+00  0.31120249550E+04  0.31120249550E+04  0.25500000000E-02 0. -1.
         -2   -1    0    0    0  501 -0.00000000000E+00 -0.00000000000E+00 -0.12212450350E+04  0.12212450350E+04  0.25500000000E-02 0.  1.
    8880023    1    1    2    0    0  0.41417045960E+03 -0.13118141802E+04  0.24124214093E+04  0.28541164789E+04  0.65864270000E+03 0.  0.
    8880022    1    1    2    0    0 -0.41417045960E+03  0.13118141802E+04 -0.52164148931E+03  0.14791535111E+04  0.15294330000E+03 0.  0.
<mgrwt>
<rscale>  0 0.14886283E+04</rscale>
<asrwt>0</asrwt>
<pdfrwt beam="1">  1        2 0.47877306E+00 0.15251898E+04</pdfrwt>
<pdfrwt beam="2">  1       -2 0.18788386E+00 0.15251898E+04</pdfrwt>
<totfact> 0.22294209E-01</totfact>
</mgrwt>
</event>
<event>
 4    1  0.2051094E-007  0.7202834E+03  0.7818608E-02  0.9921628E-01
         -2   -1    0    0    0  501 -0.00000000000E+00  0.00000000000E+00  0.15349507612E+04  0.15349507612E+04  0.25500000000E-02 0.  1.
          2   -1    0    0  501    0  0.00000000000E+00 -0.00000000000E+00 -0.22547545882E+03  0.22547545883E+03  0.25500000000E-02 0. -1.
    8880023    1    1    2    0    0  0.82827357506E+02 -0.27953100310E+03  0.47355786758E+03  0.86201230447E+03  0.65864270000E+03 0. -1.
    8880022    1    1    2    0    0 -0.82827357506E+02  0.27953100310E+03  0.83591743480E+03  0.89841391556E+03  0.15294330000E+03 0.  0.
<mgrwt>
<rscale>  0 0.59224446E+03</rscale>
<asrwt>0</asrwt>
<pdfrwt beam="1">  1        2 0.34688533E-01 0.72028339E+03</pdfrwt>
<pdfrwt beam="2">  1       -2 0.23614626E+00 0.72028339E+03</pdfrwt>
<totfact> 0.12137273E+01</totfact>
</mgrwt>
</event>
<event>
 4    1  0.2051094E-007  0.6650048E+03  0.7818608E-02  0.1019529E+00
          2   -1    0    0  501    0  0.00000000000E+00  0.00000000000E+00  0.16320245672E+04  0.16320245672E+04  0.25500000000E-02 0. -1.
         -2   -1    0    0    0  501 -0.00000000000E+00 -0.00000000000E+00 -0.35739871156E+03  0.35739871157E+03  0.25500000000E-02 0.  1.
    8880023    1    1    2    0    0 -0.73868538174E+02 -0.54448879606E+02  0.15355495545E+04  0.16733630455E+04  0.65864270000E+03 0. -1.
    8880022    1    1    2    0    0  0.73868538174E+02  0.54448879606E+02 -0.26092369886E+03  0.31606023329E+03  0.15294330000E+03 0.  0.
<mgrwt>
<rscale>  0 0.47856839E+03</rscale>
<asrwt>0</asrwt>
<pdfrwt beam="1">  1        2 0.25108070E+00 0.66500485E+03</pdfrwt>
<pdfrwt beam="2">  1       -2 0.54984418E-01 0.66500485E+03</pdfrwt>
<totfact> 0.34488533E+01</totfact>
</mgrwt>
</event>
<event>
 4    1  0.2051094E-007  0.7134069E+03  0.7818608E-02  0.9945561E-01
          2   -1    0    0  501    0  0.00000000000E+00  0.00000000000E+00  0.13475301461E+04  0.13475301461E+04  0.25500000000E-02 0. -1.
         -2   -1    0    0    0  501 -0.00000000000E+00 -0.00000000000E+00 -0.83939590787E+03  0.83939590787E+03  0.25500000000E-02 0.  1.
    8880023    1    1    2    0    0  0.18578992811E+03  0.20154739977E+03  0.12175531335E+04  0.14111644450E+04  0.65864270000E+03 0. -1.
    8880022    1    1    2    0    0 -0.18578992811E+03 -0.20154739977E+03 -0.70941889534E+03  0.77576160889E+03  0.15294330000E+03 0.  0.
<mgrwt>
<rscale>  0 0.58103134E+03</rscale>
<asrwt>0</asrwt>
<pdfrwt beam="1">  1        2 0.20731233E+00 0.71340694E+03</pdfrwt>
<pdfrwt beam="2">  1       -2 0.12913783E+00 0.71340694E+03</pdfrwt>
<totfact> 0.70429296E+00</totfact>
</mgrwt>
</event>
<event>
 4    1  0.2051094E-007  0.8790667E+03  0.7818608E-02  0.9560508E-01
         -2   -1    0    0    0  501 -0.00000000000E+00  0.00000000000E+00  0.23001502153E+03  0.23001502155E+03  0.25500000000E-02 0.  1.
          2   -1    0    0  501    0  0.00000000000E+00 -0.00000000000E+00 -0.28857905431E+04  0.28857905431E+04  0.25500000000E-02 0. -1.
    8880023    1    1    2    0    0 -0.42387873237E+02 -0.58064735576E+03 -0.21733357363E+04  0.23443861697E+04  0.65864270000E+03 0.  0.
    8880022    1    1    2    0    0  0.42387873237E+02  0.58064735576E+03 -0.48243978528E+03  0.77141939500E+03  0.15294330000E+03 0.  0.
<mgrwt>
<rscale>  0 0.79966092E+03</rscale>
<asrwt>0</asrwt>
<pdfrwt beam="1">  1        2 0.44396775E+00 0.87906672E+03</pdfrwt>
<pdfrwt beam="2">  1       -2 0.35386928E-01 0.87906672E+03</pdfrwt>
<totfact> 0.15935074E+01</totfact>
</mgrwt>
</event>
<event>
 4    1  0.2051094E-007  0.9069469E+03  0.7818608E-02  0.9514970E-01
         -2   -1    0    0    0  501 -0.00000000000E+00  0.00000000000E+00  0.61843016041E+03  0.61843016041E+03  0.25500000000E-02 0.  1.
          2   -1    0    0  501    0  0.00000000000E+00 -0.00000000000E+00 -0.19120870154E+04  0.19120870154E+04  0.25500000000E-02 0. -1.
    8880023    1    1    2    0    0  0.48064939485E+03  0.39713799382E+03 -0.15845214128E+04  0.18257219779E+04  0.65864270000E+03 0.  0.
    8880022    1    1    2    0    0 -0.48064939485E+03 -0.39713799382E+03  0.29086455781E+03  0.70479519785E+03  0.15294330000E+03 0.  0.
<mgrwt>
<rscale>  0 0.83189057E+03</rscale>
<asrwt>0</asrwt>
<pdfrwt beam="1">  1        2 0.29416723E+00 0.90694687E+03</pdfrwt>
<pdfrwt beam="2">  1       -2 0.95143103E-01 0.90694687E+03</pdfrwt>
<totfact> 0.70211775E+00</totfact>
</mgrwt>
</event>
<event>
 4    1  0.2051094E-007  0.1022869E+04  0.7818608E-02  0.9352231E-01
          2   -1    0    0  501    0  0.00000000000E+00  0.00000000000E+00  0.75544602186E+03  0.75544602186E+03  0.25500000000E-02 0. -1.
         -2   -1    0    0    0  501 -0.00000000000E+00 -0.00000000000E+00 -0.13989376823E+04  0.13989376823E+04  0.25500000000E-02 0.  1.
    8880023    1    1    2    0    0 -0.11614791500E+03 -0.77392498037E+03  0.14485579303E+03  0.10330748378E+04  0.65864270000E+03 0.  0.
    8880022    1    1    2    0    0  0.11614791500E+03  0.77392498037E+03 -0.78834745343E+03  0.11213088663E+04  0.15294330000E+03 0.  0.
<mgrwt>
<rscale>  0 0.96113317E+03</rscale>
<asrwt>0</asrwt>
<pdfrwt beam="1">  1        2 0.11622247E+00 0.10228687E+04</pdfrwt>
<pdfrwt beam="2">  1       -2 0.21522118E+00 0.10228687E+04</pdfrwt>
<totfact> 0.39059238E+00</totfact>
</mgrwt>
</event>
<event>
 4    1  0.2051094E-007  0.9552206E+03  0.7818608E-02  0.9442642E-01
         -2   -1    0    0    0  501 -0.00000000000E+00  0.00000000000E+00  0.20566824616E+03  0.20566824618E+03  0.25500000000E-02 0.  1.
          2   -1    0    0  501    0  0.00000000000E+00 -0.00000000000E+00 -0.36441078988E+04  0.36441078988E+04  0.25500000000E-02 0. -1.
    8880023    1    1    2    0    0  0.21118229743E+03 -0.65881576732E+03 -0.14270746699E+04  0.17172619188E+04  0.65864270000E+03 0.  0.
    8880022    1    1    2    0    0 -0.21118229743E+03  0.65881576732E+03 -0.20113649827E+04  0.21325142262E+04  0.15294330000E+03 0.  0.
<mgrwt>
<rscale>  0 0.88647957E+03</rscale>
<asrwt>0</asrwt>
<pdfrwt beam="1">  1        2 0.56063194E+00 0.95522059E+03</pdfrwt>
<pdfrwt beam="2">  1       -2 0.31641271E-01 0.95522059E+03</pdfrwt>
<totfact> 0.62402313E+00</totfact>
</mgrwt>
</event>
<event>
 4    1  0.2051094E-007  0.1481031E+04  0.7818608E-02  0.8923148E-01
          2   -1    0    0  501    0  0.00000000000E+00  0.00000000000E+00  0.22037162939E+04  0.22037162939E+04  0.25500000000E-02 0. -1.
         -2   -1    0    0    0  501 -0.00000000000E+00 -0.00000000000E+00 -0.91212642033E+03  0.91212642033E+03  0.25500000000E-02 0.  1.
    8880023    1    1    2    0    0  0.63059936065E+03  0.11670423301E+04  0.49799550380E+03  0.15625149862E+04  0.65864270000E+03 0.  0.
    8880022    1    1    2    0    0 -0.63059936065E+03 -0.11670423301E+04  0.79359436979E+03  0.15533277281E+04  0.15294330000E+03 0.  0.
<mgrwt>
<rscale>  0 0.14431722E+04</rscale>
<asrwt>0</asrwt>
<pdfrwt beam="1">  1        2 0.33903327E+00 0.14810312E+04</pdfrwt>
<pdfrwt beam="2">  1       -2 0.14032714E+00 0.14810312E+04</pdfrwt>
<totfact> 0.17381662E+00</totfact>
</mgrwt>
</event>
<event>
 4    1  0.2051094E-007  0.6801055E+03  0.7818608E-02  0.1009264E+00
         -2   -1    0    0    0  501 -0.00000000000E+00  0.00000000000E+00  0.33675917812E+03  0.33675917813E+03  0.25500000000E-02 0.  1.
          2   -1    0    0  501    0  0.00000000000E+00 -0.00000000000E+00 -0.11893387884E+04  0.11893387884E+04  0.25500000000E-02 0. -1.
    8880023    1    1    2    0    0 -0.74803477846E+02  0.15211090180E+03 -0.10318462979E+04  0.12358196776E+04  0.65864270000E+03 0. -1.
    8880022    1    1    2    0    0  0.74803477846E+02 -0.15211090180E+03  0.17926668761E+03  0.29027828897E+03  0.15294330000E+03 0.  0.
<mgrwt>
<rscale>  0 0.51768182E+03</rscale>
<asrwt>0</asrwt>
<pdfrwt beam="1">  1        2 0.18297520E+00 0.68010550E+03</pdfrwt>
<pdfrwt beam="2">  1       -2 0.51809105E-01 0.68010550E+03</pdfrwt>
<totfact> 0.69194475E+01</totfact>
</mgrwt>
</event>
<event>
 4    1  0.2051094E-007  0.8947051E+03  0.7818608E-02  0.9534586E-01
         -2   -1    0    0    0  501 -0.00000000000E+00  0.00000000000E+00  0.37549138770E+03  0.37549138771E+03  0.25500000000E-02 0.  1.
          2   -1    0    0  501    0  0.00000000000E+00 -0.00000000000E+00 -0.19529432204E+04  0.19529432204E+04  0.25500000000E-02 0. -1.
    8880023    1    1    2    0    0  0.57996039201E+03  0.17416356401E+03 -0.14297920207E+04  0.16866542123E+04  0.65864270000E+03 0. -1.
    8880022    1    1    2    0    0 -0.57996039201E+03 -0.17416356401E+03 -0.14765981205E+03  0.64178039581E+03  0.15294330000E+03 0.  0.
<mgrwt>
<rscale>  0 0.81781290E+03</rscale>
<asrwt>0</asrwt>
<pdfrwt beam="1">  1        2 0.30045280E+00 0.89470510E+03</pdfrwt>
<pdfrwt beam="2">  1       -2 0.57767907E-01 0.89470510E+03</pdfrwt>
<totfact> 0.20197450E+01</totfact>
</mgrwt>
</event>
<event>
 4    1  0.2051094E-007  0.7133678E+03  0.7818608E-02  0.9945701E-01
          2   -1    0    0  501    0  0.00000000000E+00  0.00000000000E+00  0.16412978994E+04  0.16412978994E+04  0.25500000000E-02 0. -1.
         -2   -1    0    0    0  501 -0.00000000000E+00 -0.00000000000E+00 -0.52090401922E+03  0.52090401923E+03  0.25500000000E-02 0.  1.
    8880023    1    1    2    0    0 -0.16455025999E+03  0.21910429446E+03  0.15051843624E+04  0.16656751337E+04  0.65864270000E+03 0. -1.
    8880022    1    1    2    0    0  0.16455025999E+03 -0.21910429446E+03 -0.38479048224E+03  0.49652678493E+03  0.15294330000E+03 0.  0.
<mgrwt>
<rscale>  0 0.58096634E+03</rscale>
<asrwt>0</asrwt>
<pdfrwt beam="1">  1        2 0.25250737E+00 0.71336785E+03</pdfrwt>
<pdfrwt beam="2">  1       -2 0.80139080E-01 0.71336785E+03</pdfrwt>
<totfact> 0.15027450E+01</totfact>
</mgrwt>
</event>
<event>
 4    1  0.2051094E-007  0.8035117E+03  0.7818608E-02  0.9703254E-01
         -2   -1    0    0    0  501 -0.00000000000E+00  0.00000000000E+00  0.66928374652E+03  0.66928374652E+03  0.25500000000E-02 0.  1.
          2   -1    0    0  501    0  0.00000000000E+00 -0.00000000000E+00 -0.21987732778E+04  0.21987732778E+04  0.25500000000E-02 0. -1.
    8880023    1    1    2    0    0 -0.44976640544E+03 -0.97626808779E+02 -0.20226328859E+04  0.21763903167E+04  0.65864270000E+03 0. -1.
    8880022    1    1    2    0    0  0.44976640544E+03  0.97626808779E+02  0.49314335460E+03  0.69166670764E+03  0.15294330000E+03 0.  0.
<mgrwt>
<rscale>  0 0.70823386E+03</rscale>
<asrwt>0</asrwt>
<pdfrwt beam="1">  1        2 0.33827281E+00 0.80351168E+03</pdfrwt>
<pdfrwt beam="2">  1       -2 0.10296673E+00 0.80351168E+03</pdfrwt>
<totfact> 0.41121322E+00</totfact>
</mgrwt>
</event>
<event>
 4    1  0.2051094E-007  0.8412885E+03  0.7818608E-02  0.9627755E-01
          2   -1    0    0  501    0  0.00000000000E+00  0.00000000000E+00  0.22225368298E+04  0.22225368298E+04  0.25500000000E-02 0. -1.
         -2   -1    0    0    0  501 -0.00000000000E+00 -0.00000000000E+00 -0.28643350586E+03  0.28643350587E+03  0.25500000000E-02 0.  1.
    8880023    1    1    2    0    0 -0.51949601935E+03  0.63875535626E+02  0.17342110139E+04  0.19274994799E+04  0.65864270000E+03 0.  0.
    8880022    1    1    2    0    0  0.51949601935E+03 -0.63875535626E+02  0.20189231002E+03  0.58147085570E+03  0.15294330000E+03 0.  0.
<mgrwt>
<rscale>  0 0.75486072E+03</rscale>
<asrwt>0</asrwt>
<pdfrwt beam="1">  1        2 0.34192874E+00 0.84128854E+03</pdfrwt>
<pdfrwt beam="2">  1       -2 0.44066694E-01 0.84128854E+03</pdfrwt>
<totfact> 0.25117624E+01</totfact>
</mgrwt>
</event>
<event>
 4    1  0.2051094E-007  0.8984353E+03  0.7818608E-02  0.9528548E-01
          2   -1    0    0  501    0  0.00000000000E+00  0.00000000000E+00  0.93867265744E+03  0.93867265745E+03  0.25500000000E-02 0. -1.
         -2   -1    0    0    0  501 -0.00000000000E+00 -0.00000000000E+00 -0.10276336657E+04  0.10276336657E+04  0.25500000000E-02 0.  1.
    8880023    1    1    2    0    0 -0.55588436628E+03 -0.25370921305E+03  0.56260105591E+03  0.10600499742E+04  0.65864270000E+03 0.  0.
    8880022    1    1    2    0    0  0.55588436628E+03  0.25370921305E+03 -0.65156206413E+03  0.90625634888E+03  0.15294330000E+03 0.  0.
<mgrwt>
<rscale>  0 0.82211413E+03</rscale>
<asrwt>0</asrwt>
<pdfrwt beam="1">  1        2 0.14441118E+00 0.89843531E+03</pdfrwt>
<pdfrwt beam="2">  1       -2 0.15809749E+00 0.89843531E+03</pdfrwt>
<totfact> 0.71968474E+00</totfact>
</mgrwt>
</event>
<event>
 4    1  0.2051094E-007  0.1563735E+04  0.7818608E-02  0.8865894E-01
         -2   -1    0    0    0  501 -0.00000000000E+00  0.00000000000E+00  0.65362517125E+03  0.65362517126E+03  0.25500000000E-02 0.  1.
          2   -1    0    0  501    0  0.00000000000E+00 -0.00000000000E+00 -0.38376197858E+04  0.38376197858E+04  0.25500000000E-02 0. -1.
    8880023    1    1    2    0    0 -0.11438033904E+04 -0.83855287416E+03 -0.91695431521E+03  0.18127527524E+04  0.65864270000E+03 0.  0.
    8880022    1    1    2    0    0  0.11438033904E+04  0.83855287416E+03 -0.22670402993E+04  0.26784922047E+04  0.15294330000E+03 0.  0.
<mgrwt>
<rscale>  0 0.15282306E+04</rscale>
<asrwt>0</asrwt>
<pdfrwt beam="1">  1        2 0.59040303E+00 0.15637351E+04</pdfrwt>
<pdfrwt beam="2">  1       -2 0.10055772E+00 0.15637351E+04</pdfrwt>
<totfact> 0.35947580E-01</totfact>
</mgrwt>
</event>
<event>
 4    1  0.2051094E-007  0.1406818E+04  0.7818608E-02  0.8978403E-01
          2   -1    0    0  501    0  0.00000000000E+00  0.00000000000E+00  0.33533303015E+04  0.33533303015E+04  0.25500000000E-02 0. -1.
         -2   -1    0    0    0  501 -0.00000000000E+00 -0.00000000000E+00 -0.64088136092E+03  0.64088136092E+03  0.25500000000E-02 0.  1.
    8880023    1    1    2    0    0  0.95036614051E+03 -0.80133134397E+03  0.58113158878E+03  0.15221208407E+04  0.65864270000E+03 0.  0.
    8880022    1    1    2    0    0 -0.95036614051E+03  0.80133134397E+03  0.21313173518E+04  0.24720908217E+04  0.15294330000E+03 0.  0.
<mgrwt>
<rscale>  0 0.13665379E+04</rscale>
<asrwt>0</asrwt>
<pdfrwt beam="1">  1        2 0.51589697E+00 0.14068184E+04</pdfrwt>
<pdfrwt beam="2">  1       -2 0.98597131E-01 0.14068184E+04</pdfrwt>
<totfact> 0.85052096E-01</totfact>
</mgrwt>
</event>
<event>
 4    1  0.2051094E-007  0.1378271E+04  0.7818608E-02  0.9000753E-01
          2   -1    0    0  501    0  0.00000000000E+00  0.00000000000E+00  0.29574467447E+04  0.29574467447E+04  0.25500000000E-02 0. -1.
         -2   -1    0    0    0  501 -0.00000000000E+00 -0.00000000000E+00 -0.72598259320E+03  0.72598259320E+03  0.25500000000E-02 0.  1.
    8880023    1    1    2    0    0  0.12101672252E+04 -0.36273470078E+02  0.20192369644E+04  0.24447798679E+04  0.65864270000E+03 0. -1.
    8880022    1    1    2    0    0 -0.12101672252E+04  0.36273470078E+02  0.21222718708E+03  0.12386494700E+04  0.15294330000E+03 0.  0.
<mgrwt>
<rscale>  0 0.13369665E+04</rscale>
<asrwt>0</asrwt>
<pdfrwt beam="1">  1        2 0.45499182E+00 0.13782709E+04</pdfrwt>
<pdfrwt beam="2">  1       -2 0.11168963E+00 0.13782709E+04</pdfrwt>
<totfact> 0.11330743E+00</totfact>
</mgrwt>
</event>
<event>
 4    1  0.2051094E-007  0.1403121E+04  0.7818608E-02  0.8981261E-01
         -2   -1    0    0    0  501 -0.00000000000E+00  0.00000000000E+00  0.74634919236E+03  0.74634919237E+03  0.25500000000E-02 0.  1.
          2   -1    0    0  501    0  0.00000000000E+00 -0.00000000000E+00 -0.36298547509E+04  0.36298547509E+04  0.25500000000E-02 0. -1.
    8880023    1    1    2    0    0 -0.10165914247E+04  0.70815355496E+03 -0.27917331156E+04  0.31245037330E+04  0.65864270000E+03 0.  0.
    8880022    1    1    2    0    0  0.10165914247E+04 -0.70815355496E+03 -0.91772442928E+02  0.12517002103E+04  0.15294330000E+03 0.  0.
<mgrwt>
<rscale>  0 0.13627115E+04</rscale>
<asrwt>0</asrwt>
<pdfrwt beam="1">  1        2 0.55843918E+00 0.14031214E+04</pdfrwt>
<pdfrwt beam="2">  1       -2 0.11482295E+00 0.14031214E+04</pdfrwt>
<totfact> 0.37827644E-01</totfact>
</mgrwt>
</event>
<event>
 4    1  0.2051094E-007  0.9865338E+03  0.7818608E-02  0.9399391E-01
         -2   -1    0    0    0  501 -0.00000000000E+00  0.00000000000E+00  0.26991797655E+04  0.26991797655E+04  0.25500000000E-02 0.  1.
          2   -1    0    0  501    0  0.00000000000E+00 -0.00000000000E+00 -0.10027494608E+04  0.10027494608E+04  0.25500000000E-02 0. -1.
    8880023    1    1    2    0    0  0.72690567971E+03  0.10510453036E+03 -0.68768385428E+03  0.12025631456E+04  0.65864270000E+03 0.  0.
    8880022    1    1    2    0    0 -0.72690567971E+03 -0.10510453036E+03  0.23841141590E+04  0.24993660808E+04  0.15294330000E+03 0.  0.
<mgrwt>
<rscale>  0 0.92125784E+03</rscale>
<asrwt>0</asrwt>
<pdfrwt beam="1">  1        2 0.15426915E+00 0.98653385E+03</pdfrwt>
<pdfrwt beam="2">  1       -2 0.41525842E+00 0.98653385E+03</pdfrwt>
<totfact> 0.15081574E-01</totfact>
</mgrwt>
</event>
<event>
 4    1  0.2051094E-007  0.1072181E+04  0.7818608E-02  0.9292680E-01
          2   -1    0    0  501    0  0.00000000000E+00  0.00000000000E+00  0.12507826030E+04  0.12507826030E+04  0.25500000000E-02 0. -1.
         -2   -1    0    0    0  501 -0.00000000000E+00 -0.00000000000E+00 -0.32173614200E+04  0.32173614200E+04  0.25500000000E-02 0.  1.
    8880023    1    1    2    0    0  0.67166230711E+03 -0.51442345399E+03  0.94690644824E+03  0.14304557920E+04  0.65864270000E+03 0. -1.
    8880022    1    1    2    0    0 -0.67166230711E+03  0.51442345399E+03 -0.29134852652E+04  0.30376882310E+04  0.15294330000E+03 0.  0.
<mgrwt>
<rscale>  0 0.10145954E+04</rscale>
<asrwt>0</asrwt>
<pdfrwt beam="1">  1        2 0.19242809E+00 0.10721809E+04</pdfrwt>
<pdfrwt beam="2">  1       -2 0.49497868E+00 0.10721809E+04</pdfrwt>
<totfact> 0.31254703E-02</totfact>
</mgrwt>
</event>
<event>
 4    1  0.2051094E-007  0.9545863E+03  0.7818608E-02  0.9443546E-01
          2   -1    0    0  501    0  0.00000000000E+00  0.00000000000E+00  0.11884519914E+04  0.11884519914E+04  0.25500000000E-02 0. -1.
         -2   -1    0    0    0  501 -0.00000000000E+00 -0.00000000000E+00 -0.67151225552E+03  0.67151225552E+03  0.25500000000E-02 0.  1.
    8880023    1    1    2    0    0  0.68408658971E+03 -0.97212895431E+02  0.62939076252E+03  0.11434018311E+04  0.65864270000E+03 0. -1.
    8880022    1    1    2    0    0 -0.68408658971E+03  0.97212895431E+02 -0.11245102667E+03  0.71656241575E+03  0.15294330000E+03 0.  0.
<mgrwt>
<rscale>  0 0.88577052E+03</rscale>
<asrwt>0</asrwt>
<pdfrwt beam="1">  1        2 0.18283877E+00 0.95458631E+03</pdfrwt>
<pdfrwt beam="2">  1       -2 0.10330958E+00 0.95458631E+03</pdfrwt>
<totfact> 0.14677800E+01</totfact>
</mgrwt>
</event>
<event>
 4    1  0.2051094E-007  0.1323860E+04  0.7818608E-02  0.9045224E-01
          2   -1    0    0  501    0  0.00000000000E+00  0.00000000000E+00  0.49059677236E+04  0.49059677236E+04  0.25500000000E-02 0. -1.
         -2   -1    0    0    0  501 -0.00000000000E+00 -0.00000000000E+00 -0.68349920775E+03  0.68349920775E+03  0.25500000000E-02 0.  1.
    8880023    1    1    2    0    0  0.11482716660E+04  0.16373638510E+02  0.42285306493E+04  0.44309228806E+04  0.65864270000E+03 0. -1.
    8880022    1    1    2    0    0 -0.11482716660E+04 -0.16373638510E+02 -0.60621334849E+01  0.11585440508E+04  0.15294330000E+03 0.  0.
<mgrwt>
<rscale>  0 0.12804372E+04</rscale>
<asrwt>0</asrwt>
<pdfrwt beam="1">  1        2 0.75476428E+00 0.13238603E+04</pdfrwt>
<pdfrwt beam="2">  1       -2 0.10515372E+00 0.13238603E+04</pdfrwt>
<totfact> 0.33527139E-02</totfact>
</mgrwt>
</event>
<event>
 4    1  0.2051094E-007  0.1129121E+04  0.7818608E-02  0.9229306E-01
         -2   -1    0    0    0  501 -0.00000000000E+00  0.00000000000E+00  0.57954049068E+03  0.57954049069E+03  0.25500000000E-02 0.  1.
          2   -1    0    0  501    0  0.00000000000E+00 -0.00000000000E+00 -0.36899511349E+04  0.36899511349E+04  0.25500000000E-02 0. -1.
    8880023    1    1    2    0    0 -0.55654495377E+03 -0.72894488314E+03 -0.31424606538E+04  0.33391573930E+04  0.65864270000E+03 0.  0.
    8880022    1    1    2    0    0  0.55654495377E+03  0.72894488314E+03  0.32050009578E+02  0.93033423260E+03  0.15294330000E+03 0.  0.
<mgrwt>
<rscale>  0 0.10755993E+04</rscale>
<asrwt>0</asrwt>
<pdfrwt beam="1">  1        2 0.56768478E+00 0.11291205E+04</pdfrwt>
<pdfrwt beam="2">  1       -2 0.89160078E-01 0.11291205E+04</pdfrwt>
<totfact> 0.65266286E-01</totfact>
</mgrwt>
</event>
<event>
 4    1  0.2051094E-007  0.8861537E+03  0.7818608E-02  0.9548635E-01
          2   -1    0    0  501    0  0.00000000000E+00  0.00000000000E+00  0.23459368590E+04  0.23459368590E+04  0.25500000000E-02 0. -1.
         -2   -1    0    0    0  501 -0.00000000000E+00 -0.00000000000E+00 -0.13570291455E+04  0.13570291455E+04  0.25500000000E-02 0.  1.
    8880023    1    1    2    0    0  0.58207289484E+03  0.11246912898E+03  0.21857838809E+04  0.23585842236E+04  0.65864270000E+03 0.  0.
    8880022    1    1    2    0    0 -0.58207289484E+03 -0.11246912898E+03 -0.11968761673E+04  0.13443817809E+04  0.15294330000E+03 0.  0.
<mgrwt>
<rscale>  0 0.80791180E+03</rscale>
<asrwt>0</asrwt>
<pdfrwt beam="1">  1        2 0.36091336E+00 0.88615369E+03</pdfrwt>
<pdfrwt beam="2">  1       -2 0.20877371E+00 0.88615369E+03</pdfrwt>
<totfact> 0.51036445E-01</totfact>
</mgrwt>
</event>
<event>
 4    1  0.2051094E-007  0.1489270E+04  0.7818608E-02  0.8917250E-01
         -2   -1    0    0    0  501 -0.00000000000E+00  0.00000000000E+00  0.13680021453E+04  0.13680021453E+04  0.25500000000E-02 0.  1.
          2   -1    0    0  501    0  0.00000000000E+00 -0.00000000000E+00 -0.50013337617E+04  0.50013337617E+04  0.25500000000E-02 0. -1.
    8880023    1    1    2    0    0 -0.13355836657E+04  0.18224663794E+02 -0.45198779983E+04  0.47589098743E+04  0.65864270000E+03 0.  0.
    8880022    1    1    2    0    0  0.13355836657E+04 -0.18224663794E+02  0.88654638186E+03  0.16104260327E+04  0.15294330000E+03 0.  0.
<mgrwt>
<rscale>  0 0.14516608E+04</rscale>
<asrwt>0</asrwt>
<pdfrwt beam="1">  1        2 0.76943595E+00 0.14892703E+04</pdfrwt>
<pdfrwt beam="2">  1       -2 0.21046187E+00 0.14892703E+04</pdfrwt>
<totfact> 0.38184564E-03</totfact>
</mgrwt>
</event>
<event>
 4    1  0.2051094E-007  0.1064812E+04  0.7818608E-02  0.9301284E-01
          2   -1    0    0  501    0  0.00000000000E+00  0.00000000000E+00  0.81258120301E+03  0.81258120301E+03  0.25500000000E-02 0. -1.
         -2   -1    0    0    0  501 -0.00000000000E+00 -0.00000000000E+00 -0.14570229023E+04  0.14570229023E+04  0.25500000000E-02 0.  1.
    8880023    1    1    2    0    0 -0.38449845600E+03 -0.74308490562E+03  0.18594925469E+03  0.10809262561E+04  0.65864270000E+03 0.  0.
    8880022    1    1    2    0    0  0.38449845600E+03  0.74308490562E+03 -0.83039095395E+03  0.11886778491E+04  0.15294330000E+03 0.  0.
<mgrwt>
<rscale>  0 0.10066475E+04</rscale>
<asrwt>0</asrwt>
<pdfrwt beam="1">  1        2 0.12501249E+00 0.10648119E+04</pdfrwt>
<pdfrwt beam="2">  1       -2 0.22415737E+00 0.10648119E+04</pdfrwt>
<totfact> 0.31003980E+00</totfact>
</mgrwt>
</event>
<event>
 4    1  0.2051094E-007  0.7170269E+03  0.7818608E-02  0.9932777E-01
         -2   -1    0    0    0  501 -0.00000000000E+00  0.00000000000E+00  0.31907924232E+03  0.31907924233E+03  0.25500000000E-02 0.  1.
          2   -1    0    0  501    0  0.00000000000E+00 -0.00000000000E+00 -0.16961614381E+04  0.16961614381E+04  0.25500000000E-02 0. -1.
    8880023    1    1    2    0    0 -0.21403282226E+03  0.18576133064E+03 -0.15062936875E+04  0.16682470441E+04  0.65864270000E+03 0. -1.
    8880022    1    1    2    0    0  0.21403282226E+03 -0.18576133064E+03  0.12921149179E+03  0.34699363624E+03  0.15294330000E+03 0.  0.
<mgrwt>
<rscale>  0 0.58698718E+03</rscale>
<asrwt>0</asrwt>
<pdfrwt beam="1">  1        2 0.26094791E+00 0.71702687E+03</pdfrwt>
<pdfrwt beam="2">  1       -2 0.49089115E-01 0.71702687E+03</pdfrwt>
<totfact> 0.39869707E+01</totfact>
</mgrwt>
</event>
<event>
 4    1  0.2051094E-007  0.7284456E+03  0.7818608E-02  0.9894981E-01
          2   -1    0    0  501    0  0.00000000000E+00  0.00000000000E+00  0.19667332069E+04  0.19667332069E+04  0.25500000000E-02 0. -1.
         -2   -1    0    0    0  501 -0.00000000000E+00 -0.00000000000E+00 -0.36748603626E+03  0.36748603627E+03  0.25500000000E-02 0.  1.
    8880023    1    1    2    0    0 -0.28655161994E+03  0.12128889675E+03  0.17942088300E+04  0.19364447731E+04  0.65864270000E+03 0.  0.
    8880022    1    1    2    0    0  0.28655161994E+03 -0.12128889675E+03 -0.19496165940E+03  0.39777447004E+03  0.15294330000E+03 0.  0.
<mgrwt>
<rscale>  0 0.60505166E+03</rscale>
<asrwt>0</asrwt>
<pdfrwt beam="1">  1        2 0.30257433E+00 0.72844563E+03</pdfrwt>
<pdfrwt beam="2">  1       -2 0.56536315E-01 0.72844563E+03</pdfrwt>
<totfact> 0.21205325E+01</totfact>
</mgrwt>
</event>
<event>
 4    1  0.2051094E-007  0.8983250E+03  0.7818608E-02  0.9528726E-01
         -2   -1    0    0    0  501 -0.00000000000E+00  0.00000000000E+00  0.48552718794E+03  0.48552718795E+03  0.25500000000E-02 0.  1.
          2   -1    0    0  501    0  0.00000000000E+00 -0.00000000000E+00 -0.21816694766E+04  0.21816694766E+04  0.25500000000E-02 0. -1.
    8880023    1    1    2    0    0 -0.44658968419E+03 -0.41681560575E+03 -0.18161043393E+04  0.20261349344E+04  0.65864270000E+03 0.  0.
    8880022    1    1    2    0    0  0.44658968419E+03  0.41681560575E+03  0.11996205060E+03  0.64106173011E+03  0.15294330000E+03 0.  0.
<mgrwt>
<rscale>  0 0.82198708E+03</rscale>
<asrwt>0</asrwt>
<pdfrwt beam="1">  1        2 0.33564145E+00 0.89832500E+03</pdfrwt>
<pdfrwt beam="2">  1       -2 0.74696491E-01 0.89832500E+03</pdfrwt>
<totfact> 0.86734866E+00</totfact>
</mgrwt>
</event>
<event>
 4    1  0.2051094E-007  0.8789352E+03  0.7818608E-02  0.9560730E-01
         -2   -1    0    0    0  501 -0.00000000000E+00  0.00000000000E+00  0.28763275181E+03  0.28763275182E+03  0.25500000000E-02 0.  1.
          2   -1    0    0  501    0  0.00000000000E+00 -0.00000000000E+00 -0.27567415683E+04  0.27567415683E+04  0.25500000000E-02 0. -1.
    8880023    1    1    2    0    0  0.31256012346E+03 -0.49094090877E+03 -0.22298088842E+04  0.23967842358E+04  0.65864270000E+03 0. -1.
    8880022    1    1    2    0    0 -0.31256012346E+03  0.49094090877E+03 -0.23929993228E+03  0.64759008430E+03  0.15294330000E+03 0.  0.
<mgrwt>
<rscale>  0 0.79950735E+03</rscale>
<asrwt>0</asrwt>
<pdfrwt beam="1">  1        2 0.42411407E+00 0.87893516E+03</pdfrwt>
<pdfrwt beam="2">  1       -2 0.44251194E-01 0.87893516E+03</pdfrwt>
<totfact> 0.12296946E+01</totfact>
</mgrwt>
</event>
<event>
 4    1  0.2051094E-007  0.7372084E+03  0.7818608E-02  0.9868155E-01
         -2   -1    0    0    0  501 -0.00000000000E+00  0.00000000000E+00  0.25379805833E+03  0.25379805834E+03  0.25500000000E-02 0.  1.
          2   -1    0    0  501    0  0.00000000000E+00 -0.00000000000E+00 -0.18661760558E+04  0.18661760558E+04  0.25500000000E-02 0. -1.
    8880023    1    1    2    0    0 -0.13412281212E+03  0.30278214606E+03 -0.15922685250E+04  0.17546496000E+04  0.65864270000E+03 0.  0.
    8880022    1    1    2    0    0  0.13412281212E+03 -0.30278214606E+03 -0.20109472391E+02  0.36532451410E+03  0.15294330000E+03 0.  0.
<mgrwt>
<rscale>  0 0.61829773E+03</rscale>
<asrwt>0</asrwt>
<pdfrwt beam="1">  1        2 0.28710400E+00 0.73720836E+03</pdfrwt>
<pdfrwt beam="2">  1       -2 0.39045856E-01 0.73720836E+03</pdfrwt>
<totfact> 0.50586763E+01</totfact>
</mgrwt>
</event>
<event>
 4    1  0.2051094E-007  0.7047790E+03  0.7818608E-02  0.9977925E-01
          2   -1    0    0  501    0  0.00000000000E+00  0.00000000000E+00  0.25726983142E+04  0.25726983142E+04  0.25500000000E-02 0. -1.
         -2   -1    0    0    0  501 -0.00000000000E+00 -0.00000000000E+00 -0.60045644746E+03  0.60045644746E+03  0.25500000000E-02 0.  1.
    8880023    1    1    2    0    0 -0.13383891567E+03  0.21210941290E+03  0.24845629425E+04  0.25825891040E+04  0.65864270000E+03 0. -1.
    8880022    1    1    2    0    0  0.13383891567E+03 -0.21210941290E+03 -0.51232107575E+03  0.59056565771E+03  0.15294330000E+03 0.  0.
<mgrwt>
<rscale>  0 0.56628867E+03</rscale>
<asrwt>0</asrwt>
<pdfrwt beam="1">  1        2 0.39579974E+00 0.70477902E+03</pdfrwt>
<pdfrwt beam="2">  1       -2 0.92377915E-01 0.70477902E+03</pdfrwt>
<totfact> 0.33356308E+00</totfact>
</mgrwt>
</event>
<event>
 4    1  0.2051094E-007  0.7999567E+03  0.7818608E-02  0.9710890E-01
         -2   -1    0    0    0  501 -0.00000000000E+00  0.00000000000E+00  0.39637657279E+03  0.39637657280E+03  0.25500000000E-02 0.  1.
          2   -1    0    0  501    0  0.00000000000E+00 -0.00000000000E+00 -0.12720069024E+04  0.12720069024E+04  0.25500000000E-02 0. -1.
    8880023    1    1    2    0    0  0.14181848244E+03  0.43128650288E+03 -0.88004387833E+03  0.11892888478E+04  0.65864270000E+03 0.  0.
    8880022    1    1    2    0    0 -0.14181848244E+03 -0.43128650288E+03  0.44135487365E+01  0.47909462735E+03  0.15294330000E+03 0.  0.
<mgrwt>
<rscale>  0 0.70372111E+03</rscale>
<asrwt>0</asrwt>
<pdfrwt beam="1">  1        2 0.19569337E+00 0.79995671E+03</pdfrwt>
<pdfrwt beam="2">  1       -2 0.60981012E-01 0.79995671E+03</pdfrwt>
<totfact> 0.43564508E+01</totfact>
</mgrwt>
</event>
<event>
 4    1  0.2051094E-007  0.7268164E+03  0.7818608E-02  0.9900162E-01
          2   -1    0    0  501    0  0.00000000000E+00  0.00000000000E+00  0.29377423723E+03  0.29377423724E+03  0.25500000000E-02 0. -1.
         -2   -1    0    0    0  501 -0.00000000000E+00 -0.00000000000E+00 -0.16263465894E+04  0.16263465894E+04  0.25500000000E-02 0.  1.
    8880023    1    1    2    0    0 -0.18163291257E+03 -0.24791390291E+03 -0.22542030974E+03  0.76097065679E+03  0.65864270000E+03 0. -1.
    8880022    1    1    2    0    0  0.18163291257E+03  0.24791390291E+03 -0.11071520424E+04  0.11591501699E+04  0.15294330000E+03 0.  0.
<mgrwt>
<rscale>  0 0.60253421E+03</rscale>
<asrwt>0</asrwt>
<pdfrwt beam="1">  1        2 0.45196037E-01 0.72681636E+03</pdfrwt>
<pdfrwt beam="2">  1       -2 0.25020716E+00 0.72681636E+03</pdfrwt>
<totfact> 0.74168144E+00</totfact>
</mgrwt>
</event>
<event>
 4    1  0.2051094E-007  0.1559578E+04  0.7818608E-02  0.8868672E-01
          2   -1    0    0  501    0  0.00000000000E+00  0.00000000000E+00  0.34825732015E+04  0.34825732015E+04  0.25500000000E-02 0. -1.
         -2   -1    0    0    0  501 -0.00000000000E+00 -0.00000000000E+00 -0.67579302197E+03  0.67579302198E+03  0.25500000000E-02 0.  1.
    8880023    1    1    2    0    0  0.12461257589E+04 -0.66756621581E+03  0.19549166993E+04  0.25007965865E+04  0.65864270000E+03 0.  0.
    8880022    1    1    2    0    0 -0.12461257589E+04  0.66756621581E+03  0.85186348020E+03  0.16575696370E+04  0.15294330000E+03 0.  0.
<mgrwt>
<rscale>  0 0.15239630E+04</rscale>
<asrwt>0</asrwt>
<pdfrwt beam="1">  1        2 0.53578049E+00 0.15595782E+04</pdfrwt>
<pdfrwt beam="2">  1       -2 0.10396816E+00 0.15595782E+04</pdfrwt>
<totfact> 0.60065891E-01</totfact>
</mgrwt>
</event>
<event>
 4    1  0.3552648E-007  0.9898152E+03  0.7818608E-02  0.9395005E-01
         -2   -1    0    0    0  501 -0.00000000000E+00  0.00000000000E+00  0.10298869373E+04  0.10298869373E+04  0.25500000000E-02 0.  1.
          2   -1    0    0  501    0  0.00000000000E+00 -0.00000000000E+00 -0.20584515665E+04  0.20584515665E+04  0.25500000000E-02 0. -1.
    8880023    1    1    2    0    0 -0.72643069819E+03  0.13499048756E+03 -0.17716056727E+04  0.20293646436E+04  0.65864270000E+03 0. -1.
    8880022    1    1    2    0    0  0.72643069819E+03 -0.13499048756E+03  0.74304104354E+03  0.10589738601E+04  0.15294330000E+03 0.  0.
<mgrwt>
<rscale>  0 0.92487862E+03</rscale>
<asrwt>0</asrwt>
<pdfrwt beam="1">  1        2 0.31668486E+00 0.98981523E+03</pdfrwt>
<pdfrwt beam="2">  1       -2 0.15844414E+00 0.98981523E+03</pdfrwt>
<totfact> 0.16031487E+00</totfact>
</mgrwt>
</event>
<event>
 4    1  0.2051094E-007  0.1262041E+04  0.7818608E-02  0.9099053E-01
          2   -1    0    0  501    0  0.00000000000E+00  0.00000000000E+00  0.10357349488E+04  0.10357349488E+04  0.25500000000E-02 0. -1.
         -2   -1    0    0    0  501 -0.00000000000E+00 -0.00000000000E+00 -0.21107074537E+04  0.21107074537E+04  0.25500000000E-02 0.  1.
    8880023    1    1    2    0    0 -0.80644985722E+03 -0.71314496652E+03 -0.15164316479E+04  0.19728943876E+04  0.65864270000E+03 0.  1.
    8880022    1    1    2    0    0  0.80644985722E+03  0.71314496652E+03  0.44145914296E+03  0.11735480150E+04  0.15294330000E+03 0.  0.
<mgrwt>
<rscale>  0 0.12158986E+04</rscale>
<asrwt>0</asrwt>
<pdfrwt beam="1">  1        2 0.15934384E+00 0.12620409E+04</pdfrwt>
<pdfrwt beam="2">  1       -2 0.32472422E+00 0.12620409E+04</pdfrwt>
<totfact> 0.52035903E-01</totfact>
</mgrwt>
</event>
<event>
 4    1  0.2051094E-007  0.9624517E+03  0.7818608E-02  0.9432421E-01
         -2   -1    0    0    0  501 -0.00000000000E+00  0.00000000000E+00  0.78152391261E+03  0.78152391262E+03  0.25500000000E-02 0.  1.
          2   -1    0    0  501    0  0.00000000000E+00 -0.00000000000E+00 -0.10842203328E+04  0.10842203328E+04  0.25500000000E-02 0. -1.
    8880023    1    1    2    0    0  0.69075320326E+03  0.12394779231E+03 -0.54705142808E+03  0.11070584963E+04  0.65864270000E+03 0. -1.
    8880022    1    1    2    0    0 -0.69075320326E+03 -0.12394779231E+03  0.24435500787E+03  0.75868574912E+03  0.15294330000E+03 0.  0.
<mgrwt>
<rscale>  0 0.89454942E+03</rscale>
<asrwt>0</asrwt>
<pdfrwt beam="1">  1        2 0.16680313E+00 0.96245169E+03</pdfrwt>
<pdfrwt beam="2">  1       -2 0.12023445E+00 0.96245169E+03</pdfrwt>
<totfact> 0.11726243E+01</totfact>
</mgrwt>
</event>
<event>
 4    1  0.2051094E-007  0.8705248E+03  0.7818608E-02  0.9575109E-01
         -2   -1    0    0    0  501 -0.00000000000E+00  0.00000000000E+00  0.89150312712E+03  0.89150312713E+03  0.25500000000E-02 0.  1.
          2   -1    0    0  501    0  0.00000000000E+00 -0.00000000000E+00 -0.16148221673E+04  0.16148221673E+04  0.25500000000E-02 0. -1.
    8880023    1    1    2    0    0  0.70817125821E+02  0.56479041553E+03 -0.13751515060E+04  0.16275303835E+04  0.65864270000E+03 0.  0.
    8880022    1    1    2    0    0 -0.70817125821E+02 -0.56479041553E+03  0.65183246582E+03  0.87879491083E+03  0.15294330000E+03 0.  0.
<mgrwt>
<rscale>  0 0.78965758E+03</rscale>
<asrwt>0</asrwt>
<pdfrwt beam="1">  1        2 0.24843418E+00 0.87052483E+03</pdfrwt>
<pdfrwt beam="2">  1       -2 0.13715433E+00 0.87052483E+03</pdfrwt>
<totfact> 0.41867187E+00</totfact>
</mgrwt>
</event>
<event>
 4    1  0.2051094E-007  0.9794112E+03  0.7818608E-02  0.9409004E-01
          2   -1    0    0  501    0  0.00000000000E+00  0.00000000000E+00  0.26420889153E+04  0.26420889153E+04  0.25500000000E-02 0. -1.
         -2   -1    0    0    0  501 -0.00000000000E+00 -0.00000000000E+00 -0.40730168628E+03  0.40730168629E+03  0.25500000000E-02 0.  1.
    8880023    1    1    2    0    0 -0.35703544987E+03  0.63084211912E+03  0.20706480134E+04  0.22905958818E+04  0.65864270000E+03 0.  0.
    8880022    1    1    2    0    0  0.35703544987E+03 -0.63084211912E+03  0.16413921555E+03  0.75879471981E+03  0.15294330000E+03 0.  0.
<mgrwt>
<rscale>  0 0.91338380E+03</rscale>
<asrwt>0</asrwt>
<pdfrwt beam="1">  1        2 0.40647523E+00 0.97941120E+03</pdfrwt>
<pdfrwt beam="2">  1       -2 0.62661796E-01 0.97941120E+03</pdfrwt>
<totfact> 0.69045938E+00</totfact>
</mgrwt>
</event>
<event>
 4    1  0.2152092E-007  0.7502652E+03  0.7818608E-02  0.9830995E-01
         -2   -1    0    0    0  501 -0.00000000000E+00  0.00000000000E+00  0.14755346848E+04  0.14755346848E+04  0.25500000000E-02 0.  1.
          2   -1    0    0  501    0  0.00000000000E+00 -0.00000000000E+00 -0.38517575487E+04  0.38517575487E+04  0.25500000000E-02 0. -1.
    8880023    1    1    2    0    0 -0.16523184346E+03 -0.31903939221E+03 -0.37884741866E+04  0.38620505648E+04  0.65864270000E+03 0. -1.
    8880022    1    1    2    0    0  0.16523184346E+03  0.31903939221E+03  0.14122513228E+04  0.14652416687E+04  0.15294330000E+03 0.  0.
<mgrwt>
<rscale>  0 0.63725388E+03</rscale>
<asrwt>0</asrwt>
<pdfrwt beam="1">  1        2 0.59257808E+00 0.75026522E+03</pdfrwt>
<pdfrwt beam="2">  1       -2 0.22700534E+00 0.75026522E+03</pdfrwt>
<totfact> 0.44809149E-02</totfact>
</mgrwt>
</event>
<event>
 4    1  0.2051094E-007  0.1342308E+04  0.7818608E-02  0.9029859E-01
          2   -1    0    0  501    0  0.00000000000E+00  0.00000000000E+00  0.25209431965E+04  0.25209431965E+04  0.25500000000E-02 0. -1.
         -2   -1    0    0    0  501 -0.00000000000E+00 -0.00000000000E+00 -0.15365719414E+04  0.15365719414E+04  0.25500000000E-02 0.  1.
    8880023    1    1    2    0    0 -0.10942947700E+04 -0.41291670471E+03  0.20616019203E+04  0.24600800663E+04  0.65864270000E+03 0.  0.
    8880022    1    1    2    0    0  0.10942947700E+04  0.41291670471E+03 -0.10772306652E+04  0.15974350715E+04  0.15294330000E+03 0.  0.
<mgrwt>
<rscale>  0 0.12996297E+04</rscale>
<asrwt>0</asrwt>
<pdfrwt beam="1">  1        2 0.38783741E+00 0.13423083E+04</pdfrwt>
<pdfrwt beam="2">  1       -2 0.23639569E+00 0.13423083E+04</pdfrwt>
<totfact> 0.25269642E-01</totfact>
</mgrwt>
</event>
<event>
 4    1  0.2051094E-007  0.9081011E+03  0.7818608E-02  0.9513150E-01
          2   -1    0    0  501    0  0.00000000000E+00  0.00000000000E+00  0.33757561703E+04  0.33757561703E+04  0.25500000000E-02 0. -1.
         -2   -1    0    0    0  501 -0.00000000000E+00 -0.00000000000E+00 -0.47025385678E+03  0.47025385679E+03  0.25500000000E-02 0.  1.
    8880023    1    1    2    0    0  0.54691834865E+03  0.30284921136E+03  0.30534444590E+04  0.31856193425E+04  0.65864270000E+03 0. -1.
    8880022    1    1    2    0    0 -0.54691834865E+03 -0.30284921136E+03 -0.14794214544E+03  0.66039068461E+03  0.15294330000E+03 0.  0.
<mgrwt>
<rscale>  0 0.83321234E+03</rscale>
<asrwt>0</asrwt>
<pdfrwt beam="1">  1        2 0.51934709E+00 0.90810106E+03</pdfrwt>
<pdfrwt beam="2">  1       -2 0.72346749E-01 0.90810106E+03</pdfrwt>
<totfact> 0.17956491E+00</totfact>
</mgrwt>
</event>
<event>
 4    1  0.2051094E-007  0.1013031E+04  0.7818608E-02  0.9364704E-01
         -2   -1    0    0    0  501 -0.00000000000E+00  0.00000000000E+00  0.62309876154E+03  0.62309876155E+03  0.25500000000E-02 0.  1.
          2   -1    0    0  501    0  0.00000000000E+00 -0.00000000000E+00 -0.16911092772E+04  0.16911092772E+04  0.25500000000E-02 0. -1.
    8880023    1    1    2    0    0  0.40917355258E+03 -0.65191888133E+03 -0.11413189575E+04  0.15260538631E+04  0.65864270000E+03 0. -1.
    8880022    1    1    2    0    0 -0.40917355258E+03  0.65191888133E+03  0.73308441856E+02  0.78815417567E+03  0.15294330000E+03 0.  0.
<mgrwt>
<rscale>  0 0.95038175E+03</rscale>
<asrwt>0</asrwt>
<pdfrwt beam="1">  1        2 0.26017066E+00 0.10130308E+04</pdfrwt>
<pdfrwt beam="2">  1       -2 0.95861349E-01 0.10130308E+04</pdfrwt>
<totfact> 0.90150575E+00</totfact>
</mgrwt>
</event>
<event>
 4    1  0.2051094E-007  0.7709690E+03  0.7818608E-02  0.9777495E-01
          2   -1    0    0  501    0  0.00000000000E+00  0.00000000000E+00  0.85125602864E+03  0.85125602865E+03  0.25500000000E-02 0. -1.
         -2   -1    0    0    0  501 -0.00000000000E+00 -0.00000000000E+00 -0.10818098191E+04  0.10818098191E+04  0.25500000000E-02 0.  1.
    8880023    1    1    2    0    0  0.39698522406E+03 -0.54642063842E+02  0.61416139760E+03  0.98569135728E+03  0.65864270000E+03 0. -1.
    8880022    1    1    2    0    0 -0.39698522406E+03  0.54642063842E+02 -0.84471518809E+03  0.94737449051E+03  0.15294330000E+03 0.  0.
<mgrwt>
<rscale>  0 0.66584394E+03</rscale>
<asrwt>0</asrwt>
<pdfrwt beam="1">  1        2 0.13096247E+00 0.77096902E+03</pdfrwt>
<pdfrwt beam="2">  1       -2 0.16643228E+00 0.77096902E+03</pdfrwt>
<totfact> 0.72716269E+00</totfact>
</mgrwt>
</event>
<event>
 4    1  0.2051094E-007  0.6937976E+03  0.7818608E-02  0.1002397E+00
          2   -1    0    0  501    0  0.00000000000E+00  0.00000000000E+00  0.12795993358E+04  0.12795993358E+04  0.25500000000E-02 0. -1.
         -2   -1    0    0    0  501 -0.00000000000E+00 -0.00000000000E+00 -0.74643533418E+03  0.74643533418E+03  0.25500000000E-02 0.  1.
    8880023    1    1    2    0    0  0.10751423376E+03  0.18969856639E+03  0.11562386113E+04  0.13484223333E+04  0.65864270000E+03 0.  0.
    8880022    1    1    2    0    0 -0.10751423376E+03 -0.18969856639E+03 -0.62307460967E+03  0.67761233665E+03  0.15294330000E+03 0.  0.
<mgrwt>
<rscale>  0 0.54611399E+03</rscale>
<asrwt>0</asrwt>
<pdfrwt beam="1">  1        2 0.19686143E+00 0.69379757E+03</pdfrwt>
<pdfrwt beam="2">  1       -2 0.11483621E+00 0.69379757E+03</pdfrwt>
<totfact> 0.10342176E+01</totfact>
</mgrwt>
</event>
<event>
 4    1  0.2051094E-007  0.1159143E+04  0.7818608E-02  0.9197899E-01
          2   -1    0    0  501    0  0.00000000000E+00  0.00000000000E+00  0.60393940636E+03  0.60393940637E+03  0.25500000000E-02 0. -1.
         -2   -1    0    0    0  501 -0.00000000000E+00 -0.00000000000E+00 -0.20845299461E+04  0.20845299461E+04  0.25500000000E-02 0.  1.
    8880023    1    1    2    0    0 -0.91830501012E+03 -0.25790922418E+03 -0.37051602699E+03  0.12169197147E+04  0.65864270000E+03 0.  0.
    8880022    1    1    2    0    0  0.91830501012E+03  0.25790922418E+03 -0.11100745128E+04  0.14715496378E+04  0.15294330000E+03 0.  0.
<mgrwt>
<rscale>  0 0.11075136E+04</rscale>
<asrwt>0</asrwt>
<pdfrwt beam="1">  1        2 0.92913756E-01 0.11591426E+04</pdfrwt>
<pdfrwt beam="2">  1       -2 0.32069691E+00 0.11591426E+04</pdfrwt>
<totfact> 0.11551801E+00</totfact>
</mgrwt>
</event>
<event>
 4    1  0.2051094E-007  0.8339590E+03  0.7818608E-02  0.9641678E-01
          2   -1    0    0  501    0  0.00000000000E+00  0.00000000000E+00  0.33647874685E+04  0.33647874685E+04  0.25500000000E-02 0. -1.
         -2   -1    0    0    0  501 -0.00000000000E+00 -0.00000000000E+00 -0.10360740078E+04  0.10360740078E+04  0.25500000000E-02 0.  1.
    8880023    1    1    2    0    0 -0.44068999130E+03 -0.25974936695E+03  0.32394954902E+04  0.33451186286E+04  0.65864270000E+03 0. -1.
    8880022    1    1    2    0    0  0.44068999130E+03  0.25974936695E+03 -0.91078202955E+03  0.10557428477E+04  0.15294330000E+03 0.  0.
<mgrwt>
<rscale>  0 0.74598017E+03</rscale>
<asrwt>0</asrwt>
<pdfrwt beam="1">  1        2 0.51765961E+00 0.83395900E+03</pdfrwt>
<pdfrwt beam="2">  1       -2 0.15939600E+00 0.83395900E+03</pdfrwt>
<totfact> 0.27262505E-01</totfact>
</mgrwt>
</event>
<event>
 4    1  0.2051094E-007  0.9832879E+03  0.7818608E-02  0.9403756E-01
          2   -1    0    0  501    0  0.00000000000E+00  0.00000000000E+00  0.77181111157E+03  0.77181111158E+03  0.25500000000E-02 0. -1.
         -2   -1    0    0    0  501 -0.00000000000E+00 -0.00000000000E+00 -0.18181479224E+04  0.18181479224E+04  0.25500000000E-02 0.  1.
    8880023    1    1    2    0    0 -0.46462966753E+02  0.72861931607E+03  0.31933584848E+03  0.10338425922E+04  0.65864270000E+03 0.  0.
    8880022    1    1    2    0    0  0.46462966753E+02 -0.72861931607E+03 -0.13656726593E+04  0.15561164418E+04  0.15294330000E+03 0.  0.
<mgrwt>
<rscale>  0 0.91767201E+03</rscale>
<asrwt>0</asrwt>
<pdfrwt beam="1">  1        2 0.11874017E+00 0.98328791E+03</pdfrwt>
<pdfrwt beam="2">  1       -2 0.27971506E+00 0.98328791E+03</pdfrwt>
<totfact> 0.15330703E+00</totfact>
</mgrwt>
</event>
<event>
 4    1  0.2051094E-007  0.1107245E+04  0.7818608E-02  0.9253032E-01
          2   -1    0    0  501    0  0.00000000000E+00  0.00000000000E+00  0.18771405859E+04  0.18771405859E+04  0.25500000000E-02 0. -1.
         -2   -1    0    0    0  501 -0.00000000000E+00 -0.00000000000E+00 -0.67056155675E+03  0.67056155675E+03  0.25500000000E-02 0.  1.
    8880023    1    1    2    0    0 -0.88972836205E+03 -0.23773485371E+02  0.12159741222E+04  0.16445622545E+04  0.65864270000E+03 0.  0.
    8880022    1    1    2    0    0  0.88972836205E+03  0.23773485371E+02 -0.93950929910E+01  0.90313988819E+03  0.15294330000E+03 0.  0.
<mgrwt>
<rscale>  0 0.10522423E+04</rscale>
<asrwt>0</asrwt>
<pdfrwt beam="1">  1        2 0.28879086E+00 0.11072452E+04</pdfrwt>
<pdfrwt beam="2">  1       -2 0.10316332E+00 0.11072452E+04</pdfrwt>
<totfact> 0.59178525E+00</totfact>
</mgrwt>
</event>
<event>
 4    1  0.2051094E-007  0.8055154E+03  0.7818608E-02  0.9698995E-01
          2   -1    0    0  501    0  0.00000000000E+00  0.00000000000E+00  0.88941390025E+03  0.88941390026E+03  0.25500000000E-02 0. -1.
         -2   -1    0    0    0  501 -0.00000000000E+00 -0.00000000000E+00 -0.47084620068E+03  0.47084620069E+03  0.25500000000E-02 0.  1.
    8880023    1    1    2    0    0 -0.41016230261E+02  0.46191181799E+03  0.27784741927E+03  0.85208817232E+03  0.65864270000E+03 0. -1.
    8880022    1    1    2    0    0  0.41016230261E+02 -0.46191181799E+03  0.14072028030E+03  0.50817192863E+03  0.15294330000E+03 0.  1.
<mgrwt>
<rscale>  0 0.71076655E+03</rscale>
<asrwt>0</asrwt>
<pdfrwt beam="1">  1        2 0.13683291E+00 0.80551540E+03</pdfrwt>
<pdfrwt beam="2">  1       -2 0.72437878E-01 0.80551540E+03</pdfrwt>
<totfact> 0.51915929E+01</totfact>
</mgrwt>
</event>
<event>
 4    1  0.3129247E-007  0.1117954E+04  0.7818608E-02  0.9241325E-01
         -2   -1    0    0    0  501 -0.00000000000E+00  0.00000000000E+00  0.27419340204E+04  0.27419340204E+04  0.25500000000E-02 0.  1.
          2   -1    0    0  501    0  0.00000000000E+00 -0.00000000000E+00 -0.27009599015E+04  0.27009599015E+04  0.25500000000E-02 0. -1.
    8880023    1    1    2    0    0  0.66875942479E+03  0.60726541993E+03 -0.25017327373E+04  0.27401619210E+04  0.65864270000E+03 0.  0.
    8880022    1    1    2    0    0 -0.66875942479E+03 -0.60726541993E+03  0.25427068562E+04  0.27027320008E+04  0.15294330000E+03 0.  0.
<mgrwt>
<rscale>  0 0.10636877E+04</rscale>
<asrwt>0</asrwt>
<pdfrwt beam="1">  1        2 0.41553229E+00 0.11179538E+04</pdfrwt>
<pdfrwt beam="2">  1       -2 0.42183601E+00 0.11179538E+04</pdfrwt>
<totfact> 0.14271549E-02</totfact>
</mgrwt>
</event>
<event>
 4    1  0.2051094E-007  0.6597776E+03  0.7818608E-02  0.1024385E+00
         -2   -1    0    0    0  501 -0.00000000000E+00  0.00000000000E+00  0.24837945685E+03  0.24837945686E+03  0.25500000000E-02 0.  1.
          2   -1    0    0  501    0  0.00000000000E+00 -0.00000000000E+00 -0.16533734214E+04  0.16533734214E+04  0.25500000000E-02 0. -1.
    8880023    1    1    2    0    0  0.69357557255E+01  0.38055665487E+02 -0.15518112780E+04  0.16862457672E+04  0.65864270000E+03 0. -1.
    8880022    1    1    2    0    0 -0.69357557255E+01 -0.38055665487E+02  0.14681731348E+03  0.21550711110E+03  0.15294330000E+03 0.  0.
<mgrwt>
<rscale>  0 0.46136743E+03</rscale>
<asrwt>0</asrwt>
<pdfrwt beam="1">  1        2 0.25436513E+00 0.65977765E+03</pdfrwt>
<pdfrwt beam="2">  1       -2 0.38212225E-01 0.65977765E+03</pdfrwt>
<totfact> 0.69520106E+01</totfact>
</mgrwt>
</event>
<event>
 4    1  0.2051094E-007  0.1567067E+04  0.7818608E-02  0.8863674E-01
          2   -1    0    0  501    0  0.00000000000E+00  0.00000000000E+00  0.18086685597E+04  0.18086685597E+04  0.25500000000E-02 0. -1.
         -2   -1    0    0    0  501 -0.00000000000E+00 -0.00000000000E+00 -0.13630838246E+04  0.13630838246E+04  0.25500000000E-02 0.  1.
    8880023    1    1    2    0    0  0.14113785933E+04  0.17291293423E+03 -0.24075664866E+03  0.15854533694E+04  0.65864270000E+03 0.  0.
    8880022    1    1    2    0    0 -0.14113785933E+04 -0.17291293423E+03  0.68634138379E+03  0.15862990149E+04  0.15294330000E+03 0.  0.
<mgrwt>
<rscale>  0 0.15316508E+04</rscale>
<asrwt>0</asrwt>
<pdfrwt beam="1">  1        2 0.27825670E+00 0.15670669E+04</pdfrwt>
<pdfrwt beam="2">  1       -2 0.20970520E+00 0.15670669E+04</pdfrwt>
<totfact> 0.91629881E-01</totfact>
</mgrwt>
</event>
<event>
 4    1  0.2051094E-007  0.1065899E+04  0.7818608E-02  0.9300009E-01
          2   -1    0    0  501    0  0.00000000000E+00  0.00000000000E+00  0.51087932833E+03  0.51087932834E+03  0.25500000000E-02 0. -1.
         -2   -1    0    0    0  501 -0.00000000000E+00 -0.00000000000E+00 -0.32834458172E+04  0.32834458172E+04  0.25500000000E-02 0.  1.
    8880023    1    1    2    0    0  0.38230079024E+03 -0.74577205638E+03 -0.20016092541E+03  0.10845296015E+04  0.65864270000E+03 0.  0.
    8880022    1    1    2    0    0 -0.38230079024E+03  0.74577205638E+03 -0.25724055635E+04  0.27097955440E+04  0.15294330000E+03 0.  0.
<mgrwt>
<rscale>  0 0.10078205E+04</rscale>
<asrwt>0</asrwt>
<pdfrwt beam="1">  1        2 0.78596822E-01 0.10658987E+04</pdfrwt>
<pdfrwt beam="2">  1       -2 0.50514550E+00 0.10658987E+04</pdfrwt>
<totfact> 0.92225476E-02</totfact>
</mgrwt>
</event>
<event>
 4    1  0.2051094E-007  0.8971895E+03  0.7818608E-02  0.9530559E-01
          2   -1    0    0  501    0  0.00000000000E+00  0.00000000000E+00  0.36735555377E+04  0.36735555377E+04  0.25500000000E-02 0. -1.
         -2   -1    0    0    0  501 -0.00000000000E+00 -0.00000000000E+00 -0.41508910259E+03  0.41508910260E+03  0.25500000000E-02 0.  1.
    8880023    1    1    2    0    0  0.19715599477E+03 -0.57642719038E+03  0.33371212042E+04  0.34556225098E+04  0.65864270000E+03 0.  0.
    8880022    1    1    2    0    0 -0.19715599477E+03  0.57642719038E+03 -0.78654769077E+02  0.63302213057E+03  0.15294330000E+03 0.  0.
<mgrwt>
<rscale>  0 0.82067878E+03</rscale>
<asrwt>0</asrwt>
<pdfrwt beam="1">  1        2 0.56516241E+00 0.89718950E+03</pdfrwt>
<pdfrwt beam="2">  1       -2 0.63859860E-01 0.89718950E+03</pdfrwt>
<totfact> 0.14700698E+00</totfact>
</mgrwt>
</event>
<event>
 4    1  0.2051094E-007  0.6606684E+03  0.7818608E-02  0.1023482E+00
          2   -1    0    0  501    0  0.00000000000E+00  0.00000000000E+00  0.13215858433E+04  0.13215858433E+04  0.25500000000E-02 0. -1.
         -2   -1    0    0    0  501 -0.00000000000E+00 -0.00000000000E+00 -0.24244393804E+03  0.24244393806E+03  0.25500000000E-02 0.  1.
    8880023    1    1    2    0    0  0.51525834322E+02 -0.42039558422E+01  0.11948942179E+04  0.13653772311E+04  0.65864270000E+03 0. -1.
    8880022    1    1    2    0    0 -0.51525834322E+02  0.42039558422E+01 -0.11575231264E+03  0.19865255031E+03  0.15294330000E+03 0.  0.
<mgrwt>
<rscale>  0 0.46450811E+03</rscale>
<asrwt>0</asrwt>
<pdfrwt beam="1">  1        2 0.20332090E+00 0.66066844E+03</pdfrwt>
<pdfrwt beam="2">  1       -2 0.37299067E-01 0.66066844E+03</pdfrwt>
<totfact> 0.11142175E+02</totfact>
</mgrwt>
</event>
<event>
 4    1  0.2051094E-007  0.1141624E+04  0.7818608E-02  0.9216069E-01
          2   -1    0    0  501    0  0.00000000000E+00  0.00000000000E+00  0.15956217791E+04  0.15956217791E+04  0.25500000000E-02 0. -1.
         -2   -1    0    0    0  501 -0.00000000000E+00 -0.00000000000E+00 -0.20266280083E+04  0.20266280083E+04  0.25500000000E-02 0.  1.
    8880023    1    1    2    0    0 -0.93091236035E+03  0.53830284693E+02  0.12506182963E+04  0.16933256779E+04  0.65864270000E+03 0. -1.
    8880022    1    1    2    0    0  0.93091236035E+03 -0.53830284693E+02 -0.16816245255E+04  0.19289241094E+04  0.15294330000E+03 0.  0.
<mgrwt>
<rscale>  0 0.10889099E+04</rscale>
<asrwt>0</asrwt>
<pdfrwt beam="1">  1        2 0.24548028E+00 0.11416242E+04</pdfrwt>
<pdfrwt beam="2">  1       -2 0.31178892E+00 0.11416242E+04</pdfrwt>
<totfact> 0.29724288E-01</totfact>
</mgrwt>
</event>
<event>
 4    1  0.2051094E-007  0.1278955E+04  0.7818608E-02  0.9083950E-01
         -2   -1    0    0    0  501 -0.00000000000E+00  0.00000000000E+00  0.25158322965E+04  0.25158322965E+04  0.25500000000E-02 0.  1.
          2   -1    0    0  501    0  0.00000000000E+00 -0.00000000000E+00 -0.11683818120E+04  0.11683818120E+04  0.25500000000E-02 0. -1.
    8880023    1    1    2    0    0 -0.10257009594E+04 -0.38710808329E+03 -0.62415045320E+03  0.14231265301E+04  0.65864270000E+03 0.  0.
    8880022    1    1    2    0    0  0.10257009594E+04  0.38710808329E+03  0.19716009378E+04  0.22610875784E+04  0.15294330000E+03 0.  0.
<mgrwt>
<rscale>  0 0.12335933E+04</rscale>
<asrwt>0</asrwt>
<pdfrwt beam="1">  1        2 0.17975105E+00 0.12789548E+04</pdfrwt>
<pdfrwt beam="2">  1       -2 0.38705112E+00 0.12789548E+04</pdfrwt>
<totfact> 0.17357671E-01</totfact>
</mgrwt>
</event>
<event>
 4    1  0.2051094E-007  0.8869693E+03  0.7818608E-02  0.9547282E-01
          2   -1    0    0  501    0  0.00000000000E+00  0.00000000000E+00  0.59321726681E+03  0.59321726681E+03  0.25500000000E-02 0. -1.
         -2   -1    0    0    0  501 -0.00000000000E+00 -0.00000000000E+00 -0.15923222238E+04  0.15923222238E+04  0.25500000000E-02 0.  1.
    8880023    1    1    2    0    0 -0.53394018210E+03  0.26040782395E+03  0.13400857832E+03  0.89703559470E+03  0.65864270000E+03 0.  0.
    8880022    1    1    2    0    0  0.53394018210E+03 -0.26040782395E+03 -0.11331135353E+04  0.12885038959E+04  0.15294330000E+03 0.  0.
<mgrwt>
<rscale>  0 0.80885867E+03</rscale>
<asrwt>0</asrwt>
<pdfrwt beam="1">  1        2 0.91264196E-01 0.88696931E+03</pdfrwt>
<pdfrwt beam="2">  1       -2 0.24497265E+00 0.88696931E+03</pdfrwt>
<totfact> 0.35081738E+00</totfact>
</mgrwt>
</event>
<event>
 4    1  0.2051094E-007  0.8966111E+03  0.7818608E-02  0.9531494E-01
          2   -1    0    0  501    0  0.00000000000E+00  0.00000000000E+00  0.25276043326E+04  0.25276043326E+04  0.25500000000E-02 0. -1.
         -2   -1    0    0    0  501 -0.00000000000E+00 -0.00000000000E+00 -0.60218332239E+03  0.60218332239E+03  0.25500000000E-02 0.  1.
    8880023    1    1    2    0    0 -0.14183780199E+03 -0.59159391625E+03  0.22510300031E+04  0.24230244747E+04  0.65864270000E+03 0. -1.
    8880022    1    1    2    0    0  0.14183780199E+03  0.59159391625E+03 -0.32560899287E+03  0.70676318033E+03  0.15294330000E+03 0.  0.
<mgrwt>
<rscale>  0 0.82001202E+03</rscale>
<asrwt>0</asrwt>
<pdfrwt beam="1">  1        2 0.38886220E+00 0.89661114E+03</pdfrwt>
<pdfrwt beam="2">  1       -2 0.92643589E-01 0.89661114E+03</pdfrwt>
<totfact> 0.33987105E+00</totfact>
</mgrwt>
</event>
<event>
 4    1  0.2051094E-007  0.9836440E+03  0.7818608E-02  0.9403276E-01
         -2   -1    0    0    0  501 -0.00000000000E+00  0.00000000000E+00  0.34579720070E+03  0.34579720071E+03  0.25500000000E-02 0.  1.
          2   -1    0    0  501    0  0.00000000000E+00 -0.00000000000E+00 -0.28213441216E+04  0.28213441216E+04  0.25500000000E-02 0. -1.
    8880023    1    1    2    0    0 -0.66566383152E+03 -0.30105972347E+03 -0.21268387382E+04  0.23432879717E+04  0.65864270000E+03 0. -1.
    8880022    1    1    2    0    0  0.66566383152E+03  0.30105972347E+03 -0.34870818277E+03  0.82385335069E+03  0.15294330000E+03 0.  0.
<mgrwt>
<rscale>  0 0.91806557E+03</rscale>
<asrwt>0</asrwt>
<pdfrwt beam="1">  1        2 0.43405293E+00 0.98364399E+03</pdfrwt>
<pdfrwt beam="2">  1       -2 0.53199571E-01 0.98364399E+03</pdfrwt>
<totfact> 0.76343589E+00</totfact>
</mgrwt>
</event>
<event>
 4    1  0.2051094E-007  0.9407513E+03  0.7818608E-02  0.9463548E-01
          2   -1    0    0  501    0  0.00000000000E+00  0.00000000000E+00  0.34338492062E+04  0.34338492062E+04  0.25500000000E-02 0. -1.
         -2   -1    0    0    0  501 -0.00000000000E+00 -0.00000000000E+00 -0.79613679600E+03  0.79613679600E+03  0.25500000000E-02 0.  1.
    8880023    1    1    2    0    0 -0.52844286218E+03  0.41466960060E+03  0.32033399859E+04  0.33386224716E+04  0.65864270000E+03 0.  0.
    8880022    1    1    2    0    0  0.52844286218E+03 -0.41466960060E+03 -0.56562757572E+03  0.89136353060E+03  0.15294330000E+03 0.  0.
<mgrwt>
<rscale>  0 0.87025481E+03</rscale>
<asrwt>0</asrwt>
<pdfrwt beam="1">  1        2 0.52828449E+00 0.94075126E+03</pdfrwt>
<pdfrwt beam="2">  1       -2 0.12248258E+00 0.94075126E+03</pdfrwt>
<totfact> 0.47492164E-01</totfact>
</mgrwt>
</event>
<event>
 4    1  0.2051094E-007  0.1107585E+04  0.7818608E-02  0.9252658E-01
         -2   -1    0    0    0  501 -0.00000000000E+00  0.00000000000E+00  0.64223179982E+03  0.64223179982E+03  0.25500000000E-02 0.  1.
          2   -1    0    0  501    0  0.00000000000E+00 -0.00000000000E+00 -0.19718213912E+04  0.19718213912E+04  0.25500000000E-02 0. -1.
    8880023    1    1    2    0    0  0.48348237498E+03 -0.74778253854E+03 -0.13030302350E+04  0.17101555285E+04  0.65864270000E+03 0.  0.
    8880022    1    1    2    0    0 -0.48348237498E+03  0.74778253854E+03 -0.26559356292E+02  0.90389766251E+03  0.15294330000E+03 0.  0.
<mgrwt>
<rscale>  0 0.10526056E+04</rscale>
<asrwt>0</asrwt>
<pdfrwt beam="1">  1        2 0.30335714E+00 0.11075848E+04</pdfrwt>
<pdfrwt beam="2">  1       -2 0.98804893E-01 0.11075848E+04</pdfrwt>
<totfact> 0.58173165E+00</totfact>
</mgrwt>
</event>
<event>
 4    1  0.2051094E-007  0.8641712E+03  0.7818608E-02  0.9586186E-01
          2   -1    0    0  501    0  0.00000000000E+00  0.00000000000E+00  0.23465870862E+04  0.23465870862E+04  0.25500000000E-02 0. -1.
         -2   -1    0    0    0  501 -0.00000000000E+00 -0.00000000000E+00 -0.38455587537E+03  0.38455587538E+03  0.25500000000E-02 0.  1.
    8880023    1    1    2    0    0  0.52162763194E+03  0.20220356616E+03  0.19698968642E+04  0.21511126261E+04  0.65864270000E+03 0. -1.
    8880022    1    1    2    0    0 -0.52162763194E+03 -0.20220356616E+03 -0.78656533031E+01  0.58003033549E+03  0.15294330000E+03 0.  0.
<mgrwt>
<rscale>  0 0.78217249E+03</rscale>
<asrwt>0</asrwt>
<pdfrwt beam="1">  1        2 0.36101340E+00 0.86417121E+03</pdfrwt>
<pdfrwt beam="2">  1       -2 0.59162442E-01 0.86417121E+03</pdfrwt>
<totfact> 0.11680687E+01</totfact>
</mgrwt>
</event>
<event>
 4    1  0.2051094E-007  0.8422307E+03  0.7818608E-02  0.9625988E-01
          2   -1    0    0  501    0  0.00000000000E+00  0.00000000000E+00  0.16974157245E+04  0.16974157245E+04  0.25500000000E-02 0. -1.
         -2   -1    0    0    0  501 -0.00000000000E+00 -0.00000000000E+00 -0.65149965562E+03  0.65149965562E+03  0.25500000000E-02 0.  1.
    8880023    1    1    2    0    0 -0.52487234059E+03 -0.71675444407E+01  0.14446373353E+04  0.16722229470E+04  0.65864270000E+03 0. -1.
    8880022    1    1    2    0    0  0.52487234059E+03  0.71675444407E+01 -0.39872126650E+03  0.67669243307E+03  0.15294330000E+03 0.  0.
<mgrwt>
<rscale>  0 0.75599725E+03</rscale>
<asrwt>0</asrwt>
<pdfrwt beam="1">  1        2 0.26114088E+00 0.84223070E+03</pdfrwt>
<pdfrwt beam="2">  1       -2 0.10023072E+00 0.84223070E+03</pdfrwt>
<totfact> 0.82106783E+00</totfact>
</mgrwt>
</event>
<event>
 4    1  0.2051094E-007  0.9872611E+03  0.7818608E-02  0.9398417E-01
         -2   -1    0    0    0  501 -0.00000000000E+00  0.00000000000E+00  0.10117078771E+04  0.10117078771E+04  0.25500000000E-02 0.  1.
          2   -1    0    0  501    0  0.00000000000E+00 -0.00000000000E+00 -0.98333535667E+03  0.98333535667E+03  0.25500000000E-02 0. -1.
    8880023    1    1    2    0    0 -0.58402021089E+03  0.44698389619E+03 -0.47015197252E+03  0.10934931613E+04  0.65864270000E+03 0. -1.
    8880022    1    1    2    0    0  0.58402021089E+03 -0.44698389619E+03  0.49852449296E+03  0.90155007252E+03  0.15294330000E+03 0.  1.
<mgrwt>
<rscale>  0 0.92206063E+03</rscale>
<asrwt>0</asrwt>
<pdfrwt beam="1">  1        2 0.15128236E+00 0.98726107E+03</pdfrwt>
<pdfrwt beam="2">  1       -2 0.15564737E+00 0.98726107E+03</pdfrwt>
<totfact> 0.69561530E+00</totfact>
</mgrwt>
</event>
<event>
 4    1  0.2051094E-007  0.7844887E+03  0.7818608E-02  0.9745397E-01
          2   -1    0    0  501    0  0.00000000000E+00  0.00000000000E+00  0.69996885163E+03  0.69996885164E+03  0.25500000000E-02 0. -1.
         -2   -1    0    0    0  501 -0.00000000000E+00 -0.00000000000E+00 -0.11839445072E+04  0.11839445072E+04  0.25500000000E-02 0.  1.
    8880023    1    1    2    0    0 -0.28320417678E+03 -0.31844565537E+03  0.40752525599E+03  0.88402448026E+03  0.65864270000E+03 0. -1.
    8880022    1    1    2    0    0  0.28320417678E+03  0.31844565537E+03 -0.89150091156E+03  0.99988887858E+03  0.15294330000E+03 0.  0.
<mgrwt>
<rscale>  0 0.68377035E+03</rscale>
<asrwt>0</asrwt>
<pdfrwt beam="1">  1        2 0.10768752E+00 0.78448865E+03</pdfrwt>
<pdfrwt beam="2">  1       -2 0.18214531E+00 0.78448865E+03</pdfrwt>
<totfact> 0.72844513E+00</totfact>
</mgrwt>
</event>
<event>
 4    1  0.2051094E-007  0.7769733E+03  0.7818608E-02  0.9762995E-01
         -2   -1    0    0    0  501 -0.00000000000E+00  0.00000000000E+00  0.16852047541E+04  0.16852047541E+04  0.25500000000E-02 0.  1.
          2   -1    0    0  501    0  0.00000000000E+00 -0.00000000000E+00 -0.91923078653E+03  0.91923078653E+03  0.25500000000E-02 0. -1.
    8880023    1    1    2    0    0  0.51369056964E+02 -0.40894812551E+03 -0.71725741900E+03  0.10574241158E+04  0.65864270000E+03 0. -1.
    8880022    1    1    2    0    0 -0.51369056964E+02  0.40894812551E+03  0.14832313866E+04  0.15470114249E+04  0.15294330000E+03 0.  0.
<mgrwt>
<rscale>  0 0.67386804E+03</rscale>
<asrwt>0</asrwt>
<pdfrwt beam="1">  1        2 0.14142012E+00 0.77697333E+03</pdfrwt>
<pdfrwt beam="2">  1       -2 0.25926227E+00 0.77697333E+03</pdfrwt>
<totfact> 0.16534652E+00</totfact>
</mgrwt>
</event>
<event>
 4    1  0.2051094E-007  0.7126439E+03  0.7818608E-02  0.9948311E-01
          2   -1    0    0  501    0  0.00000000000E+00  0.00000000000E+00  0.18226228263E+04  0.18226228263E+04  0.25500000000E-02 0. -1.
         -2   -1    0    0    0  501 -0.00000000000E+00 -0.00000000000E+00 -0.49370377273E+03  0.49370377273E+03  0.25500000000E-02 0.  1.
    8880023    1    1    2    0    0 -0.75627600090E+02  0.26140316046E+03  0.16929230419E+04  0.18368042297E+04  0.65864270000E+03 0. -1.
    8880022    1    1    2    0    0  0.75627600090E+02 -0.26140316046E+03 -0.36400398831E+03  0.47952236936E+03  0.15294330000E+03 0.  0.
<mgrwt>
<rscale>  0 0.57975988E+03</rscale>
<asrwt>0</asrwt>
<pdfrwt beam="1">  1        2 0.28040351E+00 0.71264392E+03</pdfrwt>
<pdfrwt beam="2">  1       -2 0.75954426E-01 0.71264392E+03</pdfrwt>
<totfact> 0.13489544E+01</totfact>
</mgrwt>
</event>
<event>
 4    1  0.2051094E-007  0.1012595E+04  0.7818608E-02  0.9365261E-01
          2   -1    0    0  501    0  0.00000000000E+00  0.00000000000E+00  0.26716695767E+04  0.26716695767E+04  0.25500000000E-02 0. -1.
         -2   -1    0    0    0  501 -0.00000000000E+00 -0.00000000000E+00 -0.52972713186E+03  0.52972713186E+03  0.25500000000E-02 0.  1.
    8880023    1    1    2    0    0 -0.57891492638E+03  0.50635652239E+03  0.21930714329E+04  0.24155562374E+04  0.65864270000E+03 0. -1.
    8880022    1    1    2    0    0  0.57891492638E+03 -0.50635652239E+03 -0.51128988058E+02  0.78584047121E+03  0.15294330000E+03 0.  0.
<mgrwt>
<rscale>  0 0.94990527E+03</rscale>
<asrwt>0</asrwt>
<pdfrwt beam="1">  1        2 0.41102609E+00 0.10125955E+04</pdfrwt>
<pdfrwt beam="2">  1       -2 0.81496482E-01 0.10125955E+04</pdfrwt>
<totfact> 0.37029305E+00</totfact>
</mgrwt>
</event>
<event>
 4    1  0.2051094E-007  0.6856747E+03  0.7818608E-02  0.1006280E+00
          2   -1    0    0  501    0  0.00000000000E+00  0.00000000000E+00  0.17401233708E+04  0.17401233708E+04  0.25500000000E-02 0. -1.
         -2   -1    0    0    0  501 -0.00000000000E+00 -0.00000000000E+00 -0.94707093409E+03  0.94707093409E+03  0.25500000000E-02 0.  1.
    8880023    1    1    2    0    0  0.66543409858E+02  0.17863789862E+03  0.16549207665E+04  0.17913437621E+04  0.65864270000E+03 0. -1.
    8880022    1    1    2    0    0 -0.66543409858E+02 -0.17863789862E+03 -0.86186832978E+03  0.89585054284E+03  0.15294330000E+03 0.  0.
<mgrwt>
<rscale>  0 0.52980214E+03</rscale>
<asrwt>0</asrwt>
<pdfrwt beam="1">  1        2 0.26771129E+00 0.68567465E+03</pdfrwt>
<pdfrwt beam="2">  1       -2 0.14570322E+00 0.68567465E+03</pdfrwt>
<totfact> 0.31440654E+00</totfact>
</mgrwt>
</event>
<event>
 4    1  0.2051094E-007  0.1977308E+04  0.7818608E-02  0.8630319E-01
          2   -1    0    0  501    0  0.00000000000E+00  0.00000000000E+00  0.37813888889E+04  0.37813888889E+04  0.25500000000E-02 0. -1.
         -2   -1    0    0    0  501 -0.00000000000E+00 -0.00000000000E+00 -0.16961324557E+04  0.16961324557E+04  0.25500000000E-02 0.  1.
    8880023    1    1    2    0    0 -0.18625546021E+04  0.82627827189E+02 -0.72122698899E+03  0.21047364632E+04  0.65864270000E+03 0.  0.
    8880022    1    1    2    0    0  0.18625546021E+04 -0.82627827189E+02  0.28064834222E+04  0.33727848813E+04  0.15294330000E+03 0.  0.
<mgrwt>
<rscale>  0 0.19500864E+04</rscale>
<asrwt>0</asrwt>
<pdfrwt beam="1">  1        2 0.58175213E+00 0.19773081E+04</pdfrwt>
<pdfrwt beam="2">  1       -2 0.26094346E+00 0.19773081E+04</pdfrwt>
<totfact> 0.24881215E-02</totfact>
</mgrwt>
</event>
<event>
 4    1  0.2051094E-007  0.9465229E+03  0.7818608E-02  0.9455135E-01
         -2   -1    0    0    0  501 -0.00000000000E+00  0.00000000000E+00  0.10022186350E+04  0.10022186350E+04  0.25500000000E-02 0.  1.
          2   -1    0    0  501    0  0.00000000000E+00 -0.00000000000E+00 -0.10556234852E+04  0.10556234852E+04  0.25500000000E-02 0. -1.
    8880023    1    1    2    0    0 -0.67929965584E+03 -0.25444733816E+02 -0.64368145539E+03  0.11446534319E+04  0.65864270000E+03 0.  0.
    8880022    1    1    2    0    0  0.67929965584E+03  0.25444733816E+02  0.59027660517E+03  0.91318868835E+03  0.15294330000E+03 0.  0.
<mgrwt>
<rscale>  0 0.87673949E+03</rscale>
<asrwt>0</asrwt>
<pdfrwt beam="1">  1        2 0.16240361E+00 0.94652293E+03</pdfrwt>
<pdfrwt beam="2">  1       -2 0.15418748E+00 0.94652293E+03</pdfrwt>
<totfact> 0.64418351E+00</totfact>
</mgrwt>
</event>
<event>
 4    1  0.2051094E-007  0.6950042E+03  0.7818608E-02  0.1001859E+00
         -2   -1    0    0    0  501 -0.00000000000E+00  0.00000000000E+00  0.90278179329E+02  0.90278179365E+02  0.25500000000E-02 0.  1.
          2   -1    0    0  501    0  0.00000000000E+00 -0.00000000000E+00 -0.29027873511E+04  0.29027873511E+04  0.25500000000E-02 0. -1.
    8880023    1    1    2    0    0  0.12433300970E+03  0.18374403081E+03 -0.24135927860E+04  0.25116649675E+04  0.65864270000E+03 0. -1.
    8880022    1    1    2    0    0 -0.12433300970E+03 -0.18374403081E+03 -0.39891638580E+03  0.48140056298E+03  0.15294330000E+03 0.  0.
<mgrwt>
<rscale>  0 0.54842439E+03</rscale>
<asrwt>0</asrwt>
<pdfrwt beam="1">  1        2 0.44658260E+00 0.69500415E+03</pdfrwt>
<pdfrwt beam="2">  1       -2 0.13888953E-01 0.69500415E+03</pdfrwt>
<totfact> 0.84560752E+01</totfact>
</mgrwt>
</event>
<event>
 4    1  0.2051094E-007  0.1024183E+04  0.7818608E-02  0.9350581E-01
          2   -1    0    0  501    0  0.00000000000E+00  0.00000000000E+00  0.20768595007E+04  0.20768595007E+04  0.25500000000E-02 0. -1.
         -2   -1    0    0    0  501 -0.00000000000E+00 -0.00000000000E+00 -0.13909698459E+04  0.13909698459E+04  0.25500000000E-02 0.  1.
    8880023    1    1    2    0    0  0.25072936758E+03  0.74315245731E+03  0.18153172988E+04  0.20843051341E+04  0.65864270000E+03 0.  0.
    8880022    1    1    2    0    0 -0.25072936758E+03 -0.74315245731E+03 -0.11294276440E+04  0.13835242125E+04  0.15294330000E+03 0.  0.
<mgrwt>
<rscale>  0 0.96256723E+03</rscale>
<asrwt>0</asrwt>
<pdfrwt beam="1">  1        2 0.31951685E+00 0.10241831E+04</pdfrwt>
<pdfrwt beam="2">  1       -2 0.21399536E+00 0.10241831E+04</pdfrwt>
<totfact> 0.65129142E-01</totfact>
</mgrwt>
</event>
<event>
 4    1  0.2051094E-007  0.7163963E+03  0.7818608E-02  0.9934974E-01
         -2   -1    0    0    0  501 -0.00000000000E+00  0.00000000000E+00  0.36631374062E+03  0.36631374063E+03  0.25500000000E-02 0.  1.
          2   -1    0    0  501    0  0.00000000000E+00 -0.00000000000E+00 -0.22482306483E+04  0.22482306483E+04  0.25500000000E-02 0. -1.
    8880023    1    1    2    0    0  0.20928565116E+02  0.28102571293E+03 -0.21052464604E+04  0.22237999734E+04  0.65864270000E+03 0. -1.
    8880022    1    1    2    0    0 -0.20928565116E+02 -0.28102571293E+03  0.22332955273E+03  0.39074441557E+03  0.15294330000E+03 0.  0.
<mgrwt>
<rscale>  0 0.58595847E+03</rscale>
<asrwt>0</asrwt>
<pdfrwt beam="1">  1        2 0.34588163E+00 0.71639630E+03</pdfrwt>
<pdfrwt beam="2">  1       -2 0.56355962E-01 0.71639630E+03</pdfrwt>
<totfact> 0.14992966E+01</totfact>
</mgrwt>
</event>
<event>
 4    1  0.2060753E-007  0.7200044E+03  0.7818608E-02  0.9922571E-01
         -2   -1    0    0    0  501 -0.00000000000E+00  0.00000000000E+00  0.10520428205E+04  0.10520428205E+04  0.25500000000E-02 0.  1.
          2   -1    0    0  501    0  0.00000000000E+00 -0.00000000000E+00 -0.15527599816E+04  0.15527599816E+04  0.25500000000E-02 0. -1.
    8880023    1    1    2    0    0  0.14329109438E+03  0.25310834876E+03 -0.14398497549E+04  0.16098365435E+04  0.65864270000E+03 0. -1.
    8880022    1    1    2    0    0 -0.14329109438E+03 -0.25310834876E+03  0.93913259384E+03  0.99496625861E+03  0.15294330000E+03 0.  0.
<mgrwt>
<rscale>  0 0.59179764E+03</rscale>
<asrwt>0</asrwt>
<pdfrwt beam="1">  1        2 0.23888615E+00 0.72000443E+03</pdfrwt>
<pdfrwt beam="2">  1       -2 0.16185274E+00 0.72000443E+03</pdfrwt>
<totfact> 0.29912273E+00</totfact>
</mgrwt>
</event>
<event>
 4    1  0.2051094E-007  0.1140200E+04  0.7818608E-02  0.9217565E-01
         -2   -1    0    0    0  501 -0.00000000000E+00  0.00000000000E+00  0.12243767338E+04  0.12243767338E+04  0.25500000000E-02 0.  1.
          2   -1    0    0  501    0  0.00000000000E+00 -0.00000000000E+00 -0.11310339057E+04  0.11310339057E+04  0.25500000000E-02 0. -1.
    8880023    1    1    2    0    0  0.57556006901E+03 -0.73142117399E+03 -0.49579608133E+03  0.12433303211E+04  0.65864270000E+03 0.  0.
    8880022    1    1    2    0    0 -0.57556006901E+03  0.73142117399E+03  0.58913890943E+03  0.11120803183E+04  0.15294330000E+03 0.  0.
<mgrwt>
<rscale>  0 0.10873954E+04</rscale>
<asrwt>0</asrwt>
<pdfrwt beam="1">  1        2 0.17400522E+00 0.11402002E+04</pdfrwt>
<pdfrwt beam="2">  1       -2 0.18836565E+00 0.11402002E+04</pdfrwt>
<totfact> 0.32390703E+00</totfact>
</mgrwt>
</event>
<event>
 4    1  0.2051094E-007  0.1054790E+04  0.7818608E-02  0.9313145E-01
         -2   -1    0    0    0  501 -0.00000000000E+00  0.00000000000E+00  0.66018816553E+03  0.66018816554E+03  0.25500000000E-02 0.  1.
          2   -1    0    0  501    0  0.00000000000E+00 -0.00000000000E+00 -0.28700742037E+04  0.28700742037E+04  0.25500000000E-02 0. -1.
    8880023    1    1    2    0    0 -0.38299581687E+03  0.72944234693E+03 -0.24425833330E+04  0.26606005860E+04  0.65864270000E+03 0. -1.
    8880022    1    1    2    0    0  0.38299581687E+03 -0.72944234693E+03  0.23269729482E+03  0.86966178326E+03  0.15294330000E+03 0.  0.
<mgrwt>
<rscale>  0 0.99581650E+03</rscale>
<asrwt>0</asrwt>
<pdfrwt beam="1">  1        2 0.44154987E+00 0.10547901E+04</pdfrwt>
<pdfrwt beam="2">  1       -2 0.10156741E+00 0.10547901E+04</pdfrwt>
<totfact> 0.16815121E+00</totfact>
</mgrwt>
</event>
<event>
 4    1  0.2051094E-007  0.6762202E+03  0.7818608E-02  0.1011548E+00
         -2   -1    0    0    0  501 -0.00000000000E+00  0.00000000000E+00  0.39652771158E+03  0.39652771159E+03  0.25500000000E-02 0.  1.
          2   -1    0    0  501    0  0.00000000000E+00 -0.00000000000E+00 -0.11563028558E+04  0.11563028558E+04  0.25500000000E-02 0. -1.
    8880023    1    1    2    0    0  0.21527266510E+00 -0.15317784474E+03 -0.10140864565E+04  0.12188703975E+04  0.65864270000E+03 0.  0.
    8880022    1    1    2    0    0 -0.21527266510E+00  0.15317784474E+03  0.25431131230E+03  0.33396016984E+03  0.15294330000E+03 0.  1.
<mgrwt>
<rscale>  0 0.50864028E+03</rscale>
<asrwt>0</asrwt>
<pdfrwt beam="1">  1        2 0.17789275E+00 0.67622016E+03</pdfrwt>
<pdfrwt beam="2">  1       -2 0.61004264E-01 0.67622016E+03</pdfrwt>
<totfact> 0.51548174E+01</totfact>
</mgrwt>
</event>
<event>
 4    1  0.2051094E-007  0.8438616E+03  0.7818608E-02  0.9622941E-01
          2   -1    0    0  501    0  0.00000000000E+00  0.00000000000E+00  0.28633877000E+04  0.28633877000E+04  0.25500000000E-02 0. -1.
         -2   -1    0    0    0  501 -0.00000000000E+00 -0.00000000000E+00 -0.42484168301E+03  0.42484168302E+03  0.25500000000E-02 0.  1.
    8880023    1    1    2    0    0  0.52584718956E+03 -0.42152860739E+02  0.58786314871E+02  0.84590671325E+03  0.65864270000E+03 0.  0.
    8880022    1    1    2    0    0 -0.52584718956E+03  0.42152860739E+02  0.23797597021E+04  0.24423226697E+04  0.15294330000E+03 0.  0.
<mgrwt>
<rscale>  0 0.75796194E+03</rscale>
<asrwt>0</asrwt>
<pdfrwt beam="1">  1        2 0.44052119E+00 0.84386156E+03</pdfrwt>
<pdfrwt beam="2">  1       -2 0.65360258E-01 0.84386156E+03</pdfrwt>
<totfact> 0.47643403E+00</totfact>
</mgrwt>
</event>
<event>
 4    1  0.2051094E-007  0.8905350E+03  0.7818608E-02  0.9541400E-01
         -2   -1    0    0    0  501 -0.00000000000E+00  0.00000000000E+00  0.73855938861E+03  0.73855938862E+03  0.25500000000E-02 0.  1.
          2   -1    0    0  501    0  0.00000000000E+00 -0.00000000000E+00 -0.20709221705E+04  0.20709221705E+04  0.25500000000E-02 0. -1.
    8880023    1    1    2    0    0  0.17295089466E+02 -0.59911878938E+03 -0.18171107999E+04  0.20235968742E+04  0.65864270000E+03 0. -1.
    8880022    1    1    2    0    0 -0.17295089466E+02  0.59911878938E+03  0.48474801805E+03  0.78588468488E+03  0.15294330000E+03 0.  0.
<mgrwt>
<rscale>  0 0.81299190E+03</rscale>
<asrwt>0</asrwt>
<pdfrwt beam="1">  1        2 0.31860341E+00 0.89053504E+03</pdfrwt>
<pdfrwt beam="2">  1       -2 0.11362452E+00 0.89053504E+03</pdfrwt>
<totfact> 0.37609665E+00</totfact>
</mgrwt>
</event>
<event>
 4    1  0.2051094E-007  0.8349839E+03  0.7818608E-02  0.9639712E-01
         -2   -1    0    0    0  501 -0.00000000000E+00  0.00000000000E+00  0.20884445940E+03  0.20884445941E+03  0.25500000000E-02 0.  1.
          2   -1    0    0  501    0  0.00000000000E+00 -0.00000000000E+00 -0.27032134216E+04  0.27032134216E+04  0.25500000000E-02 0. -1.
    8880023    1    1    2    0    0 -0.23973046326E+02 -0.51265314205E+03 -0.20591028294E+04  0.22219591849E+04  0.65864270000E+03 0.  0.
    8880022    1    1    2    0    0  0.23973046326E+02  0.51265314205E+03 -0.43526613277E+03  0.69009869610E+03  0.15294330000E+03 0.  0.
<mgrwt>
<rscale>  0 0.74722625E+03</rscale>
<asrwt>0</asrwt>
<pdfrwt beam="1">  1        2 0.41587896E+00 0.83498393E+03</pdfrwt>
<pdfrwt beam="2">  1       -2 0.32129919E-01 0.83498393E+03</pdfrwt>
<totfact> 0.24707131E+01</totfact>
</mgrwt>
</event>
<event>
 4    1  0.2081649E-007  0.1494804E+04  0.7818608E-02  0.8913314E-01
         -2   -1    0    0    0  501 -0.00000000000E+00  0.00000000000E+00  0.11974764362E+04  0.11974764362E+04  0.25500000000E-02 0.  1.
          2   -1    0    0  501    0  0.00000000000E+00 -0.00000000000E+00 -0.22402929928E+04  0.22402929928E+04  0.25500000000E-02 0. -1.
    8880023    1    1    2    0    0  0.67098938050E+03  0.11620674009E+04 -0.13922410976E+04  0.20427366137E+04  0.65864270000E+03 0. -1.
    8880022    1    1    2    0    0 -0.67098938050E+03 -0.11620674009E+04  0.34942454103E+03  0.13950328153E+04  0.15294330000E+03 0.  0.
<mgrwt>
<rscale>  0 0.14573597E+04</rscale>
<asrwt>0</asrwt>
<pdfrwt beam="1">  1        2 0.34466046E+00 0.14948035E+04</pdfrwt>
<pdfrwt beam="2">  1       -2 0.18422714E+00 0.14948035E+04</pdfrwt>
<totfact> 0.78203426E-01</totfact>
</mgrwt>
</event>
<event>
 4    1  0.2051094E-007  0.9888259E+03  0.7818608E-02  0.9396325E-01
          2   -1    0    0  501    0  0.00000000000E+00  0.00000000000E+00  0.14207334846E+04  0.14207334846E+04  0.25500000000E-02 0. -1.
         -2   -1    0    0    0  501 -0.00000000000E+00 -0.00000000000E+00 -0.12279997943E+04  0.12279997943E+04  0.25500000000E-02 0.  1.
    8880023    1    1    2    0    0 -0.71290023009E+03  0.18904971274E+03  0.10936660491E+04  0.14744090902E+04  0.65864270000E+03 0.  0.
    8880022    1    1    2    0    0  0.71290023009E+03 -0.18904971274E+03 -0.90093235882E+03  0.11743241887E+04  0.15294330000E+03 0.  0.
<mgrwt>
<rscale>  0 0.92378744E+03</rscale>
<asrwt>0</asrwt>
<pdfrwt beam="1">  1        2 0.21857438E+00 0.98882594E+03</pdfrwt>
<pdfrwt beam="2">  1       -2 0.18892305E+00 0.98882594E+03</pdfrwt>
<totfact> 0.22058795E+00</totfact>
</mgrwt>
</event>
<event>
 4    1  0.2051094E-007  0.1194664E+04  0.7818608E-02  0.9162327E-01
         -2   -1    0    0    0  501 -0.00000000000E+00  0.00000000000E+00  0.29459201703E+04  0.29459201703E+04  0.25500000000E-02 0.  1.
          2   -1    0    0  501    0  0.00000000000E+00 -0.00000000000E+00 -0.12199655166E+04  0.12199655166E+04  0.25500000000E-02 0. -1.
    8880023    1    1    2    0    0  0.98113572906E+03  0.17545722269E+03 -0.80559180236E+03  0.14409028122E+04  0.65864270000E+03 0. -1.
    8880022    1    1    2    0    0 -0.98113572906E+03 -0.17545722269E+03  0.25315464560E+04  0.27249828748E+04  0.15294330000E+03 0.  0.
<mgrwt>
<rscale>  0 0.11450886E+04</rscale>
<asrwt>0</asrwt>
<pdfrwt beam="1">  1        2 0.18768701E+00 0.11946643E+04</pdfrwt>
<pdfrwt beam="2">  1       -2 0.45321848E+00 0.11946643E+04</pdfrwt>
<totfact> 0.59937830E-02</totfact>
</mgrwt>
</event>
<event>
 4    1  0.2051094E-007  0.1034502E+04  0.7818608E-02  0.9337748E-01
         -2   -1    0    0    0  501 -0.00000000000E+00  0.00000000000E+00  0.91067473516E+03  0.91067473517E+03  0.25500000000E-02 0.  1.
          2   -1    0    0  501    0  0.00000000000E+00 -0.00000000000E+00 -0.17603951965E+04  0.17603951965E+04  0.25500000000E-02 0. -1.
    8880023    1    1    2    0    0  0.63893677635E+03  0.47764501347E+03 -0.13623164137E+04  0.17105850403E+04  0.65864270000E+03 0. -1.
    8880022    1    1    2    0    0 -0.63893677635E+03 -0.47764501347E+03  0.51259595234E+03  0.96048489131E+03  0.15294330000E+03 0.  0.
<mgrwt>
<rscale>  0 0.97380777E+03</rscale>
<asrwt>0</asrwt>
<pdfrwt beam="1">  1        2 0.27083003E+00 0.10345024E+04</pdfrwt>
<pdfrwt beam="2">  1       -2 0.14010381E+00 0.10345024E+04</pdfrwt>
<totfact> 0.32246179E+00</totfact>
</mgrwt>
</event>
<event>
 4    1  0.2051094E-007  0.1055679E+04  0.7818608E-02  0.9312086E-01
          2   -1    0    0  501    0  0.00000000000E+00  0.00000000000E+00  0.32631680169E+04  0.32631680169E+04  0.25500000000E-02 0. -1.
         -2   -1    0    0    0  501 -0.00000000000E+00 -0.00000000000E+00 -0.28408252453E+03  0.28408252454E+03  0.25500000000E-02 0.  1.
    8880023    1    1    2    0    0  0.25140113322E+03  0.78577644840E+03  0.13400722166E+04  0.17059457519E+04  0.65864270000E+03 0. -1.
    8880022    1    1    2    0    0 -0.25140113322E+03 -0.78577644840E+03  0.16390132758E+04  0.18413047895E+04  0.15294330000E+03 0.  0.
<mgrwt>
<rscale>  0 0.99677783E+03</rscale>
<asrwt>0</asrwt>
<pdfrwt beam="1">  1        2 0.50202588E+00 0.10556786E+04</pdfrwt>
<pdfrwt beam="2">  1       -2 0.43705001E-01 0.10556786E+04</pdfrwt>
<totfact> 0.59794115E+00</totfact>
</mgrwt>
</event>
<event>
 4    1  0.2051094E-007  0.1002620E+04  0.7818608E-02  0.9378138E-01
         -2   -1    0    0    0  501 -0.00000000000E+00  0.00000000000E+00  0.75458166736E+03  0.75458166736E+03  0.25500000000E-02 0.  1.
          2   -1    0    0  501    0  0.00000000000E+00 -0.00000000000E+00 -0.13919711219E+04  0.13919711219E+04  0.25500000000E-02 0. -1.
    8880023    1    1    2    0    0 -0.59293970882E+02  0.75360506384E+03 -0.88416344741E+03  0.13367840421E+04  0.65864270000E+03 0.  0.
    8880022    1    1    2    0    0  0.59293970882E+02 -0.75360506384E+03  0.24677399291E+03  0.80976874712E+03  0.15294330000E+03 0.  0.
<mgrwt>
<rscale>  0 0.93896878E+03</rscale>
<asrwt>0</asrwt>
<pdfrwt beam="1">  1        2 0.21414940E+00 0.10026199E+04</pdfrwt>
<pdfrwt beam="2">  1       -2 0.11608949E+00 0.10026199E+04</pdfrwt>
<totfact> 0.83711334E+00</totfact>
</mgrwt>
</event>
<event>
 4    1  0.2051094E-007  0.2332998E+04  0.7818608E-02  0.8473892E-01
          2   -1    0    0  501    0  0.00000000000E+00  0.00000000000E+00  0.24262434604E+04  0.24262434604E+04  0.25500000000E-02 0. -1.
         -2   -1    0    0    0  501 -0.00000000000E+00 -0.00000000000E+00 -0.22653191563E+04  0.22653191563E+04  0.25500000000E-02 0.  1.
    8880023    1    1    2    0    0  0.20550821691E+04  0.88640173511E+03  0.59261710651E+03  0.24070886978E+04  0.65864270000E+03 0.  0.
    8880022    1    1    2    0    0 -0.20550821691E+04 -0.88640173511E+03 -0.43169280245E+03  0.22844739190E+04  0.15294330000E+03 0.  0.
<mgrwt>
<rscale>  0 0.23102468E+04</rscale>
<asrwt>0</asrwt>
<pdfrwt beam="1">  1        2 0.37326822E+00 0.23329983E+04</pdfrwt>
<pdfrwt beam="2">  1       -2 0.34851064E+00 0.23329983E+04</pdfrwt>
<totfact> 0.52331289E-02</totfact>
</mgrwt>
</event>
<event>
 4    1  0.2051094E-007  0.6863727E+03  0.7818608E-02  0.1005927E+00
         -2   -1    0    0    0  501 -0.00000000000E+00  0.00000000000E+00  0.13863836896E+04  0.13863836896E+04  0.25500000000E-02 0.  1.
          2   -1    0    0  501    0  0.00000000000E+00 -0.00000000000E+00 -0.10613946494E+04  0.10613946494E+04  0.25500000000E-02 0. -1.
    8880023    1    1    2    0    0 -0.78696925580E+02  0.17636362555E+03 -0.93726371616E+03  0.11617102971E+04  0.65864270000E+03 0. -1.
    8880022    1    1    2    0    0  0.78696925580E+02 -0.17636362555E+03  0.12622527564E+04  0.12860680420E+04  0.15294330000E+03 0.  0.
<mgrwt>
<rscale>  0 0.53126201E+03</rscale>
<asrwt>0</asrwt>
<pdfrwt beam="1">  1        2 0.16329149E+00 0.68637274E+03</pdfrwt>
<pdfrwt beam="2">  1       -2 0.21328980E+00 0.68637274E+03</pdfrwt>
<totfact> 0.26070884E+00</totfact>
</mgrwt>
</event>
<event>
 4    1  0.2051094E-007  0.9630901E+03  0.7818608E-02  0.9431525E-01
         -2   -1    0    0    0  501 -0.00000000000E+00  0.00000000000E+00  0.47987128576E+03  0.47987128577E+03  0.25500000000E-02 0.  1.
          2   -1    0    0  501    0  0.00000000000E+00 -0.00000000000E+00 -0.32555020236E+04  0.32555020236E+04  0.25500000000E-02 0. -1.
    8880023    1    1    2    0    0  0.55680095060E+03  0.42860832240E+03 -0.28538897103E+04  0.30120141230E+04  0.65864270000E+03 0. -1.
    8880022    1    1    2    0    0 -0.55680095060E+03 -0.42860832240E+03  0.78258972489E+02  0.72335918630E+03  0.15294330000E+03 0.  0.
<mgrwt>
<rscale>  0 0.89526074E+03</rscale>
<asrwt>0</asrwt>
<pdfrwt beam="1">  1        2 0.50084645E+00 0.96309013E+03</pdfrwt>
<pdfrwt beam="2">  1       -2 0.73826354E-01 0.96309013E+03</pdfrwt>
<totfact> 0.20400700E+00</totfact>
</mgrwt>
</event>
<event>
 4    1  0.2051094E-007  0.1555466E+04  0.7818608E-02  0.8871431E-01
         -2   -1    0    0    0  501 -0.00000000000E+00  0.00000000000E+00  0.14814090538E+04  0.14814090538E+04  0.25500000000E-02 0.  1.
          2   -1    0    0  501    0  0.00000000000E+00 -0.00000000000E+00 -0.25798568927E+04  0.25798568927E+04  0.25500000000E-02 0. -1.
    8880023    1    1    2    0    0 -0.92252241895E+03 -0.10651839840E+04 -0.18820776180E+04  0.24416574083E+04  0.65864270000E+03 0.  0.
    8880022    1    1    2    0    0  0.92252241895E+03  0.10651839840E+04  0.78362977902E+03  0.16196085381E+04  0.15294330000E+03 0.  0.
<mgrwt>
<rscale>  0 0.15197404E+04</rscale>
<asrwt>0</asrwt>
<pdfrwt beam="1">  1        2 0.39690106E+00 0.15554661E+04</pdfrwt>
<pdfrwt beam="2">  1       -2 0.22790909E+00 0.15554661E+04</pdfrwt>
<totfact> 0.25695814E-01</totfact>
</mgrwt>
</event>
<event>
 4    1  0.2051094E-007  0.7468696E+03  0.7818608E-02  0.9840370E-01
         -2   -1    0    0    0  501 -0.00000000000E+00  0.00000000000E+00  0.48575998046E+03  0.48575998046E+03  0.25500000000E-02 0.  1.
          2   -1    0    0  501    0  0.00000000000E+00 -0.00000000000E+00 -0.24394707705E+04  0.24394707705E+04  0.25500000000E-02 0. -1.
    8880023    1    1    2    0    0 -0.34896759589E+01 -0.35212469178E+03 -0.22938070093E+04  0.24123359589E+04  0.65864270000E+03 0. -1.
    8880022    1    1    2    0    0  0.34896759589E+01  0.35212469178E+03  0.34009621923E+03  0.51289479209E+03  0.15294330000E+03 0.  0.
<mgrwt>
<rscale>  0 0.63240334E+03</rscale>
<asrwt>0</asrwt>
<pdfrwt beam="1">  1        2 0.37530319E+00 0.74686959E+03</pdfrwt>
<pdfrwt beam="2">  1       -2 0.74732306E-01 0.74686959E+03</pdfrwt>
<totfact> 0.63663253E+00</totfact>
</mgrwt>
</event>
<event>
 4    1  0.2051094E-007  0.7263182E+03  0.7818608E-02  0.9901760E-01
          2   -1    0    0  501    0  0.00000000000E+00  0.00000000000E+00  0.13993108645E+04  0.13993108645E+04  0.25500000000E-02 0. -1.
         -2   -1    0    0    0  501 -0.00000000000E+00 -0.00000000000E+00 -0.42296384517E+03  0.42296384518E+03  0.25500000000E-02 0.  1.
    8880023    1    1    2    0    0  0.15107892879E+03 -0.26627632262E+03  0.12076305550E+04  0.14092230790E+04  0.65864270000E+03 0. -1.
    8880022    1    1    2    0    0 -0.15107892879E+03  0.26627632262E+03 -0.23128353569E+03  0.41305163068E+03  0.15294330000E+03 0.  0.
<mgrwt>
<rscale>  0 0.60176078E+03</rscale>
<asrwt>0</asrwt>
<pdfrwt beam="1">  1        2 0.21527859E+00 0.72631820E+03</pdfrwt>
<pdfrwt beam="2">  1       -2 0.65071361E-01 0.72631820E+03</pdfrwt>
<totfact> 0.32308362E+01</totfact>
</mgrwt>
</event>
<event>
 4    1  0.2149379E-007  0.1123032E+04  0.7818608E-02  0.9235836E-01
          2   -1    0    0  501    0  0.00000000000E+00  0.00000000000E+00  0.25224408848E+04  0.25224408848E+04  0.25500000000E-02 0. -1.
         -2   -1    0    0    0  501 -0.00000000000E+00 -0.00000000000E+00 -0.85862987119E+03  0.85862987119E+03  0.25500000000E-02 0.  1.
    8880023    1    1    2    0    0  0.78320680554E+03  0.46257814986E+03  0.20841240765E+04  0.23674405626E+04  0.65864270000E+03 0. -1.
    8880022    1    1    2    0    0 -0.78320680554E+03 -0.46257814986E+03 -0.42031306294E+03  0.10136301933E+04  0.15294330000E+03 0.  0.
<mgrwt>
<rscale>  0 0.10691079E+04</rscale>
<asrwt>0</asrwt>
<pdfrwt beam="1">  1        2 0.38806782E+00 0.11230323E+04</pdfrwt>
<pdfrwt beam="2">  1       -2 0.13209691E+00 0.11230323E+04</pdfrwt>
<totfact> 0.13938671E+00</totfact>
</mgrwt>
</event>
<event>
 4    1  0.2051094E-007  0.6601318E+03  0.7818608E-02  0.1024022E+00
         -2   -1    0    0    0  501 -0.00000000000E+00  0.00000000000E+00  0.25417230953E+03  0.25417230954E+03  0.25500000000E-02 0.  1.
          2   -1    0    0  501    0  0.00000000000E+00 -0.00000000000E+00 -0.66794765539E+03  0.66794765539E+03  0.25500000000E-02 0. -1.
    8880023    1    1    2    0    0 -0.44306809020E+02 -0.82416888087E+00 -0.37099591282E+03  0.75723968872E+03  0.65864270000E+03 0. -1.
    8880022    1    1    2    0    0  0.44306809020E+02  0.82416888087E+00 -0.42779433034E+02  0.16488027622E+03  0.15294330000E+03 0.  1.
<mgrwt>
<rscale>  0 0.46262793E+03</rscale>
<asrwt>0</asrwt>
<pdfrwt beam="1">  1        2 0.10276118E+00 0.66013179E+03</pdfrwt>
<pdfrwt beam="2">  1       -2 0.39103433E-01 0.66013179E+03</pdfrwt>
<totfact> 0.27189594E+02</totfact>
</mgrwt>
</event>
<event>
 4    1  0.2051094E-007  0.6949260E+03  0.7818608E-02  0.1001894E+00
         -2   -1    0    0    0  501 -0.00000000000E+00  0.00000000000E+00  0.24247056323E+03  0.24247056324E+03  0.25500000000E-02 0.  1.
          2   -1    0    0  501    0  0.00000000000E+00 -0.00000000000E+00 -0.10585075102E+04  0.10585075102E+04  0.25500000000E-02 0. -1.
    8880023    1    1    2    0    0 -0.38466458113E+02 -0.21824817996E+03 -0.75254827027E+03  0.10243295572E+04  0.65864270000E+03 0. -1.
    8880022    1    1    2    0    0  0.38466458113E+02  0.21824817996E+03 -0.63488676729E+02  0.27664851625E+03  0.15294330000E+03 0.  1.
<mgrwt>
<rscale>  0 0.54827552E+03</rscale>
<asrwt>0</asrwt>
<pdfrwt beam="1">  1        2 0.16284731E+00 0.69492600E+03</pdfrwt>
<pdfrwt beam="2">  1       -2 0.37303164E-01 0.69492600E+03</pdfrwt>
<totfact> 0.15909647E+02</totfact>
</mgrwt>
</event>
<event>
 4    1  0.2051094E-007  0.1251541E+04  0.7818608E-02  0.9108579E-01
          2   -1    0    0  501    0  0.00000000000E+00  0.00000000000E+00  0.12112514096E+04  0.12112514096E+04  0.25500000000E-02 0. -1.
         -2   -1    0    0    0  501 -0.00000000000E+00 -0.00000000000E+00 -0.24546147982E+04  0.24546147982E+04  0.25500000000E-02 0.  1.
    8880023    1    1    2    0    0 -0.26667786255E+03  0.10302561004E+04  0.70799690382E+03  0.14379202123E+04  0.65864270000E+03 0.  0.
    8880022    1    1    2    0    0  0.26667786255E+03 -0.10302561004E+04 -0.19513602925E+04  0.22279459955E+04  0.15294330000E+03 0.  0.
<mgrwt>
<rscale>  0 0.12048988E+04</rscale>
<asrwt>0</asrwt>
<pdfrwt beam="1">  1        2 0.18634637E+00 0.12515410E+04</pdfrwt>
<pdfrwt beam="2">  1       -2 0.37763305E+00 0.12515410E+04</pdfrwt>
<totfact> 0.18876667E-01</totfact>
</mgrwt>
</event>
<event>
 4    1  0.2051094E-007  0.1506997E+04  0.7818608E-02  0.8904711E-01
         -2   -1    0    0    0  501 -0.00000000000E+00  0.00000000000E+00  0.13570631915E+04  0.13570631915E+04  0.25500000000E-02 0.  1.
          2   -1    0    0  501    0  0.00000000000E+00 -0.00000000000E+00 -0.21565698312E+04  0.21565698312E+04  0.25500000000E-02 0. -1.
    8880023    1    1    2    0    0  0.11863129178E+04 -0.65566109156E+03 -0.13685278321E+04  0.20356592149E+04  0.65864270000E+03 0.  0.
    8880022    1    1    2    0    0 -0.11863129178E+04  0.65566109156E+03  0.56902119233E+03  0.14779738077E+04  0.15294330000E+03 0.  0.
<mgrwt>
<rscale>  0 0.14699127E+04</rscale>
<asrwt>0</asrwt>
<pdfrwt beam="1">  1        2 0.33177997E+00 0.15069970E+04</pdfrwt>
<pdfrwt beam="2">  1       -2 0.20877895E+00 0.15069970E+04</pdfrwt>
<totfact> 0.59739021E-01</totfact>
</mgrwt>
</event>
<event>
 4    1  0.2051094E-007  0.8242777E+03  0.7818608E-02  0.9660570E-01
         -2   -1    0    0    0  501 -0.00000000000E+00  0.00000000000E+00  0.40373542192E+03  0.40373542192E+03  0.25500000000E-02 0.  1.
          2   -1    0    0  501    0  0.00000000000E+00 -0.00000000000E+00 -0.39820545548E+04  0.39820545548E+04  0.25500000000E-02 0. -1.
    8880023    1    1    2    0    0 -0.17511199324E+03 -0.46363712983E+03 -0.37499421975E+04  0.38394661463E+04  0.65864270000E+03 0. -1.
    8880022    1    1    2    0    0  0.17511199324E+03  0.46363712983E+03  0.17162306457E+03  0.54632383039E+03  0.15294330000E+03 0.  0.
<mgrwt>
<rscale>  0 0.73413731E+03</rscale>
<asrwt>0</asrwt>
<pdfrwt beam="1">  1        2 0.61262375E+00 0.82427775E+03</pdfrwt>
<pdfrwt beam="2">  1       -2 0.62113144E-01 0.82427775E+03</pdfrwt>
<totfact> 0.92967939E-01</totfact>
</mgrwt>
</event>
<event>
 4    1  0.2051094E-007  0.8394016E+03  0.7818608E-02  0.9631310E-01
          2   -1    0    0  501    0  0.00000000000E+00  0.00000000000E+00  0.10132931548E+04  0.10132931548E+04  0.25500000000E-02 0. -1.
         -2   -1    0    0    0  501 -0.00000000000E+00 -0.00000000000E+00 -0.54004308331E+03  0.54004308331E+03  0.25500000000E-02 0.  1.
    8880023    1    1    2    0    0 -0.63156494922E+01 -0.52033151837E+03  0.55290744973E+03  0.10051376178E+04  0.65864270000E+03 0.  0.
    8880022    1    1    2    0    0  0.63156494922E+01  0.52033151837E+03 -0.79657378220E+02  0.54819862036E+03  0.15294330000E+03 0.  0.
<mgrwt>
<rscale>  0 0.75258111E+03</rscale>
<asrwt>0</asrwt>
<pdfrwt beam="1">  1        2 0.15589125E+00 0.83940156E+03</pdfrwt>
<pdfrwt beam="2">  1       -2 0.83083552E-01 0.83940156E+03</pdfrwt>
<totfact> 0.31594649E+01</totfact>
</mgrwt>
</event>
<event>
 4    1  0.2051094E-007  0.8774919E+03  0.7818608E-02  0.9563176E-01
         -2   -1    0    0    0  501 -0.00000000000E+00  0.00000000000E+00  0.71422372717E+03  0.71422372718E+03  0.25500000000E-02 0.  1.
          2   -1    0    0  501    0  0.00000000000E+00 -0.00000000000E+00 -0.11333440569E+04  0.11333440569E+04  0.25500000000E-02 0. -1.
    8880023    1    1    2    0    0 -0.46534782620E+03 -0.34588039400E+03 -0.75733761097E+03  0.11591170388E+04  0.65864270000E+03 0.  0.
    8880022    1    1    2    0    0  0.46534782620E+03  0.34588039400E+03  0.33821728128E+03  0.68845074528E+03  0.15294330000E+03 0.  0.
<mgrwt>
<rscale>  0 0.79782162E+03</rscale>
<asrwt>0</asrwt>
<pdfrwt beam="1">  1        2 0.17436062E+00 0.87749191E+03</pdfrwt>
<pdfrwt beam="2">  1       -2 0.10988057E+00 0.87749191E+03</pdfrwt>
<totfact> 0.13754024E+01</totfact>
</mgrwt>
</event>
<event>
 4    1  0.2051094E-007  0.7873222E+03  0.7818608E-02  0.9738910E-01
         -2   -1    0    0    0  501 -0.00000000000E+00  0.00000000000E+00  0.83764309444E+03  0.83764309444E+03  0.25500000000E-02 0.  1.
          2   -1    0    0  501    0  0.00000000000E+00 -0.00000000000E+00 -0.31181313677E+04  0.31181313677E+04  0.25500000000E-02 0. -1.
    8880023    1    1    2    0    0 -0.21065737104E+03 -0.37641662827E+03 -0.30007996104E+04  0.31023659542E+04  0.65864270000E+03 0. -1.
    8880022    1    1    2    0    0  0.21065737104E+03  0.37641662827E+03  0.72031133712E+03  0.85340850793E+03  0.15294330000E+03 0.  0.
<mgrwt>
<rscale>  0 0.68746627E+03</rscale>
<asrwt>0</asrwt>
<pdfrwt beam="1">  1        2 0.47971251E+00 0.78732218E+03</pdfrwt>
<pdfrwt beam="2">  1       -2 0.12886817E+00 0.78732218E+03</pdfrwt>
<totfact> 0.69227963E-01</totfact>
</mgrwt>
</event>
<event>
 4    1  0.2051094E-007  0.8904233E+03  0.7818608E-02  0.9541584E-01
         -2   -1    0    0    0  501 -0.00000000000E+00  0.00000000000E+00  0.12295875001E+04  0.12295875001E+04  0.25500000000E-02 0.  1.
          2   -1    0    0  501    0  0.00000000000E+00 -0.00000000000E+00 -0.55807125293E+03  0.55807125294E+03  0.25500000000E-02 0. -1.
    8880023    1    1    2    0    0 -0.51163561593E+02  0.59701395870E+03  0.21810701674E+02  0.89069034456E+03  0.65864270000E+03 0.  0.
    8880022    1    1    2    0    0  0.51163561593E+02 -0.59701395870E+03  0.64970554545E+03  0.89696840843E+03  0.15294330000E+03 0.  0.
<mgrwt>
<rscale>  0 0.81286249E+03</rscale>
<asrwt>0</asrwt>
<pdfrwt beam="1">  1        2 0.85857116E-01 0.89042326E+03</pdfrwt>
<pdfrwt beam="2">  1       -2 0.18916731E+00 0.89042326E+03</pdfrwt>
<totfact> 0.85276842E+00</totfact>
</mgrwt>
</event>
<event>
 4    1  0.2051094E-007  0.7144009E+03  0.7818608E-02  0.9942008E-01
         -2   -1    0    0    0  501 -0.00000000000E+00  0.00000000000E+00  0.21050174180E+03  0.21050174182E+03  0.25500000000E-02 0.  1.
          2   -1    0    0  501    0  0.00000000000E+00 -0.00000000000E+00 -0.19772897391E+04  0.19772897391E+04  0.25500000000E-02 0. -1.
    8880023    1    1    2    0    0  0.83436547716E+02  0.26381196747E+03 -0.17272742229E+04  0.18691829389E+04  0.65864270000E+03 0.  0.
    8880022    1    1    2    0    0 -0.83436547716E+02 -0.26381196747E+03 -0.39513774402E+02  0.31860854203E+03  0.15294330000E+03 0.  0.
<mgrwt>
<rscale>  0 0.58267901E+03</rscale>
<asrwt>0</asrwt>
<pdfrwt beam="1">  1        2 0.30419841E+00 0.71440088E+03</pdfrwt>
<pdfrwt beam="2">  1       -2 0.32384885E-01 0.71440088E+03</pdfrwt>
<totfact> 0.63063395E+01</totfact>
</mgrwt>
</event>
<event>
 4    1  0.2087195E-007  0.1779423E+04  0.7818608E-02  0.8734005E-01
         -2   -1    0    0    0  501 -0.00000000000E+00  0.00000000000E+00  0.19546898687E+04  0.19546898687E+04  0.25500000000E-02 0.  1.
          2   -1    0    0  501    0  0.00000000000E+00 -0.00000000000E+00 -0.31245714872E+04  0.31245714872E+04  0.25500000000E-02 0. -1.
    8880023    1    1    2    0    0 -0.68168684238E+03 -0.15059341321E+04 -0.24180945392E+04  0.30022534817E+04  0.65864270000E+03 0.  0.
    8880022    1    1    2    0    0  0.68168684238E+03  0.15059341321E+04  0.12482129208E+04  0.20770078743E+04  0.15294330000E+03 0.  0.
<mgrwt>
<rscale>  0 0.17488106E+04</rscale>
<asrwt>0</asrwt>
<pdfrwt beam="1">  1        2 0.48070331E+00 0.17794226E+04</pdfrwt>
<pdfrwt beam="2">  1       -2 0.30072152E+00 0.17794226E+04</pdfrwt>
<totfact> 0.41426345E-02</totfact>
</mgrwt>
</event>
<event>
 4    1  0.2051094E-007  0.6782045E+03  0.7818608E-02  0.1010358E+00
          2   -1    0    0  501    0  0.00000000000E+00  0.00000000000E+00  0.14663683934E+04  0.14663683934E+04  0.25500000000E-02 0. -1.
         -2   -1    0    0    0  501 -0.00000000000E+00 -0.00000000000E+00 -0.21967536529E+04  0.21967536529E+04  0.25500000000E-02 0.  1.
    8880023    1    1    2    0    0  0.39635511280E+02  0.15678079449E+03  0.13817881804E+04  0.15392530568E+04  0.65864270000E+03 0. -1.
    8880022    1    1    2    0    0 -0.39635511280E+02 -0.15678079449E+03 -0.21121734399E+04  0.21238689895E+04  0.15294330000E+03 0.  0.
<mgrwt>
<rscale>  0 0.51332585E+03</rscale>
<asrwt>0</asrwt>
<pdfrwt beam="1">  1        2 0.22559514E+00 0.67820454E+03</pdfrwt>
<pdfrwt beam="2">  1       -2 0.33796210E+00 0.67820454E+03</pdfrwt>
<totfact> 0.26606892E-01</totfact>
</mgrwt>
</event>
<event>
 4    1  0.2051094E-007  0.7185161E+03  0.7818608E-02  0.9927639E-01
         -2   -1    0    0    0  501 -0.00000000000E+00  0.00000000000E+00  0.39553105132E+03  0.39553105132E+03  0.25500000000E-02 0.  1.
          2   -1    0    0  501    0  0.00000000000E+00 -0.00000000000E+00 -0.11591319169E+04  0.11591319169E+04  0.25500000000E-02 0. -1.
    8880023    1    1    2    0    0  0.28683028774E+03  0.13551231022E+02 -0.94111436673E+03  0.11840446391E+04  0.65864270000E+03 0. -1.
    8880022    1    1    2    0    0 -0.28683028774E+03 -0.13551231022E+02  0.17751350111E+03  0.37061832917E+03  0.15294330000E+03 0.  0.
<mgrwt>
<rscale>  0 0.58940277E+03</rscale>
<asrwt>0</asrwt>
<pdfrwt beam="1">  1        2 0.17832799E+00 0.71851615E+03</pdfrwt>
<pdfrwt beam="2">  1       -2 0.60850931E-01 0.71851615E+03</pdfrwt>
<totfact> 0.51404943E+01</totfact>
</mgrwt>
</event>
<event>
 4    1  0.2051094E-007  0.6660513E+03  0.7818608E-02  0.1018667E+00
          2   -1    0    0  501    0  0.00000000000E+00  0.00000000000E+00  0.22381200643E+04  0.22381200643E+04  0.25500000000E-02 0. -1.
         -2   -1    0    0    0  501 -0.00000000000E+00 -0.00000000000E+00 -0.32061757970E+03  0.32061757971E+03  0.25500000000E-02 0.  1.
    8880023    1    1    2    0    0 -0.86766656375E+02 -0.47809350365E+02  0.21571740839E+04  0.22576590577E+04  0.65864270000E+03 0. -1.
    8880022    1    1    2    0    0  0.86766656375E+02  0.47809350365E+02 -0.23967159922E+03  0.30107858630E+03  0.15294330000E+03 0.  0.
<mgrwt>
<rscale>  0 0.48170659E+03</rscale>
<asrwt>0</asrwt>
<pdfrwt beam="1">  1        2 0.34432616E+00 0.66605134E+03</pdfrwt>
<pdfrwt beam="2">  1       -2 0.49325782E-01 0.66605134E+03</pdfrwt>
<totfact> 0.20134557E+01</totfact>
</mgrwt>
</event>
<event>
 4    1  0.2051094E-007  0.9167197E+03  0.7818608E-02  0.9499707E-01
         -2   -1    0    0    0  501 -0.00000000000E+00  0.00000000000E+00  0.40454292253E+03  0.40454292254E+03  0.25500000000E-02 0.  1.
          2   -1    0    0  501    0  0.00000000000E+00 -0.00000000000E+00 -0.17937797770E+04  0.17937797770E+04  0.25500000000E-02 0. -1.
    8880023    1    1    2    0    0  0.61720007897E+03  0.16009016380E+03 -0.12109484063E+04  0.15188057963E+04  0.65864270000E+03 0.  0.
    8880022    1    1    2    0    0 -0.61720007897E+03 -0.16009016380E+03 -0.17828844823E+03  0.67951690326E+03  0.15294330000E+03 0.  0.
<mgrwt>
<rscale>  0 0.84305417E+03</rscale>
<asrwt>0</asrwt>
<pdfrwt beam="1">  1        2 0.27596612E+00 0.91671970E+03</pdfrwt>
<pdfrwt beam="2">  1       -2 0.62237374E-01 0.91671970E+03</pdfrwt>
<totfact> 0.21038622E+01</totfact>
</mgrwt>
</event>
<event>
 4    1  0.2051094E-007  0.7556560E+03  0.7818608E-02  0.9816486E-01
          2   -1    0    0  501    0  0.00000000000E+00  0.00000000000E+00  0.42166419721E+03  0.42166419722E+03  0.25500000000E-02 0. -1.
         -2   -1    0    0    0  501 -0.00000000000E+00 -0.00000000000E+00 -0.20479764300E+04  0.20479764300E+04  0.25500000000E-02 0.  1.
    8880023    1    1    2    0    0 -0.13584321087E+03 -0.34460460502E+03  0.39123910859E+02  0.75666808999E+03  0.65864270000E+03 0. -1.
    8880022    1    1    2    0    0  0.13584321087E+03  0.34460460502E+03 -0.16654361436E+04  0.17129725372E+04  0.15294330000E+03 0.  0.
<mgrwt>
<rscale>  0 0.64485249E+03</rscale>
<asrwt>0</asrwt>
<pdfrwt beam="1">  1        2 0.64871416E-01 0.75565595E+03</pdfrwt>
<pdfrwt beam="2">  1       -2 0.31507329E+00 0.75565595E+03</pdfrwt>
<totfact> 0.20079307E+00</totfact>
</mgrwt>
</event>
<event>
 4    1  0.2051094E-007  0.1209049E+04  0.7818608E-02  0.9148376E-01
          2   -1    0    0  501    0  0.00000000000E+00  0.00000000000E+00  0.25433958848E+04  0.25433958848E+04  0.25500000000E-02 0. -1.
         -2   -1    0    0    0  501 -0.00000000000E+00 -0.00000000000E+00 -0.13564273742E+04  0.13564273742E+04  0.25500000000E-02 0.  1.
    8880023    1    1    2    0    0  0.16180340447E+01  0.10138962991E+04  0.21669746700E+04  0.24814467051E+04  0.65864270000E+03 0. -1.
    8880022    1    1    2    0    0 -0.16180340447E+01 -0.10138962991E+04 -0.98000615932E+03  0.14183765539E+04  0.15294330000E+03 0.  0.
<mgrwt>
<rscale>  0 0.11602532E+04</rscale>
<asrwt>0</asrwt>
<pdfrwt beam="1">  1        2 0.39129167E+00 0.12090486E+04</pdfrwt>
<pdfrwt beam="2">  1       -2 0.20868114E+00 0.12090486E+04</pdfrwt>
<totfact> 0.37397990E-01</totfact>
</mgrwt>
</event>
<event>
 4    1  0.2051094E-007  0.7231452E+03  0.7818608E-02  0.9912084E-01
         -2   -1    0    0    0  501 -0.00000000000E+00  0.00000000000E+00  0.79332848431E+03  0.79332848432E+03  0.25500000000E-02 0.  1.
          2   -1    0    0  501    0  0.00000000000E+00 -0.00000000000E+00 -0.82654315345E+03  0.82654315346E+03  0.25500000000E-02 0. -1.
    8880023    1    1    2    0    0 -0.29851117730E+03 -0.44590510664E+01 -0.61434848813E+03  0.94887463726E+03  0.65864270000E+03 0. -1.
    8880022    1    1    2    0    0  0.29851117730E+03  0.44590510664E+01  0.58113381899E+03  0.67099700051E+03  0.15294330000E+03 0.  0.
<mgrwt>
<rscale>  0 0.59679212E+03</rscale>
<asrwt>0</asrwt>
<pdfrwt beam="1">  1        2 0.12716049E+00 0.72314522E+03</pdfrwt>
<pdfrwt beam="2">  1       -2 0.12205054E+00 0.72314522E+03</pdfrwt>
<totfact> 0.17082045E+01</totfact>
</mgrwt>
</event>
<event>
 4    1  0.2051094E-007  0.6642783E+03  0.7818608E-02  0.1020147E+00
         -2   -1    0    0    0  501 -0.00000000000E+00  0.00000000000E+00  0.27585164174E+03  0.27585164175E+03  0.25500000000E-02 0.  1.
          2   -1    0    0  501    0  0.00000000000E+00 -0.00000000000E+00 -0.11852068111E+04  0.11852068111E+04  0.25500000000E-02 0. -1.
    8880023    1    1    2    0    0 -0.56073024672E+02 -0.65660127467E+02 -0.10456054178E+04  0.12387721067E+04  0.65864270000E+03 0. -1.
    8880022    1    1    2    0    0  0.56073024672E+02  0.65660127467E+02  0.13625024847E+03  0.22228634609E+03  0.15294330000E+03 0.  0.
<mgrwt>
<rscale>  0 0.47633700E+03</rscale>
<asrwt>0</asrwt>
<pdfrwt beam="1">  1        2 0.18233951E+00 0.66427829E+03</pdfrwt>
<pdfrwt beam="2">  1       -2 0.42438715E-01 0.66427829E+03</pdfrwt>
<totfact> 0.10400274E+02</totfact>
</mgrwt>
</event>
<event>
 4    1  0.2051094E-007  0.9791156E+03  0.7818608E-02  0.9409406E-01
         -2   -1    0    0    0  501 -0.00000000000E+00  0.00000000000E+00  0.20437453743E+03  0.20437453744E+03  0.25500000000E-02 0.  1.
          2   -1    0    0  501    0  0.00000000000E+00 -0.00000000000E+00 -0.38898372781E+04  0.38898372781E+04  0.25500000000E-02 0. -1.
    8880023    1    1    2    0    0  0.64719679486E+03  0.32556641281E+03 -0.26178745826E+04  0.27949838491E+04  0.65864270000E+03 0.  0.
    8880022    1    1    2    0    0 -0.64719679486E+03 -0.32556641281E+03 -0.10675881581E+04  0.12992279664E+04  0.15294330000E+03 0.  0.
<mgrwt>
<rscale>  0 0.91305659E+03</rscale>
<asrwt>0</asrwt>
<pdfrwt beam="1">  1        2 0.59843645E+00 0.97911561E+03</pdfrwt>
<pdfrwt beam="2">  1       -2 0.31442240E-01 0.97911561E+03</pdfrwt>
<totfact> 0.41414363E+00</totfact>
</mgrwt>
</event>
<event>
 4    1  0.2051094E-007  0.9034880E+03  0.7818608E-02  0.9520455E-01
          2   -1    0    0  501    0  0.00000000000E+00  0.00000000000E+00  0.15689531950E+04  0.15689531950E+04  0.25500000000E-02 0. -1.
         -2   -1    0    0    0  501 -0.00000000000E+00 -0.00000000000E+00 -0.67058102506E+03  0.67058102506E+03  0.25500000000E-02 0.  1.
    8880023    1    1    2    0    0  0.60458642819E+03  0.13021371776E+03  0.12261579285E+04  0.15230738108E+04  0.65864270000E+03 0. -1.
    8880022    1    1    2    0    0 -0.60458642819E+03 -0.13021371776E+03 -0.32778575855E+03  0.71646040921E+03  0.15294330000E+03 0.  0.
<mgrwt>
<rscale>  0 0.82792392E+03</rscale>
<asrwt>0</asrwt>
<pdfrwt beam="1">  1        2 0.24137741E+00 0.90348800E+03</pdfrwt>
<pdfrwt beam="2">  1       -2 0.10316631E+00 0.90348800E+03</pdfrwt>
<totfact> 0.89570493E+00</totfact>
</mgrwt>
</event>
<event>
 4    1  0.2051094E-007  0.7014353E+03  0.7818608E-02  0.9991298E-01
         -2   -1    0    0    0  501 -0.00000000000E+00  0.00000000000E+00  0.11662983534E+04  0.11662983534E+04  0.25500000000E-02 0.  1.
          2   -1    0    0  501    0  0.00000000000E+00 -0.00000000000E+00 -0.12035921582E+04  0.12035921582E+04  0.25500000000E-02 0. -1.
    8880023    1    1    2    0    0  0.23372963397E+03  0.59763583121E+02 -0.10805397527E+04  0.12882459358E+04  0.65864270000E+03 0. -1.
    8880022    1    1    2    0    0 -0.23372963397E+03 -0.59763583121E+02  0.10432459478E+04  0.10816445758E+04  0.15294330000E+03 0.  0.
<mgrwt>
<rscale>  0 0.56033433E+03</rscale>
<asrwt>0</asrwt>
<pdfrwt beam="1">  1        2 0.18516803E+00 0.70143527E+03</pdfrwt>
<pdfrwt beam="2">  1       -2 0.17943052E+00 0.70143527E+03</pdfrwt>
<totfact> 0.35592625E+00</totfact>
</mgrwt>
</event>
<event>
 4    1  0.2051094E-007  0.7013831E+03  0.7818608E-02  0.9991511E-01
          2   -1    0    0  501    0  0.00000000000E+00  0.00000000000E+00  0.11690536969E+04  0.11690536969E+04  0.25500000000E-02 0. -1.
         -2   -1    0    0    0  501 -0.00000000000E+00 -0.00000000000E+00 -0.51686954029E+03  0.51686954030E+03  0.25500000000E-02 0.  1.
    8880023    1    1    2    0    0 -0.23722613317E+03 -0.43032148527E+02  0.10090672650E+04  0.12288836217E+04  0.65864270000E+03 0. -1.
    8880022    1    1    2    0    0  0.23722613317E+03  0.43032148527E+02 -0.35688310841E+03  0.45703961551E+03  0.15294330000E+03 0.  0.
<mgrwt>
<rscale>  0 0.56024018E+03</rscale>
<asrwt>0</asrwt>
<pdfrwt beam="1">  1        2 0.17985442E+00 0.70138307E+03</pdfrwt>
<pdfrwt beam="2">  1       -2 0.79518391E-01 0.70138307E+03</pdfrwt>
<totfact> 0.28357155E+01</totfact>
</mgrwt>
</event>
<event>
 4    1  0.2051094E-007  0.8218927E+03  0.7818608E-02  0.9665317E-01
          2   -1    0    0  501    0  0.00000000000E+00  0.00000000000E+00  0.15332728214E+04  0.15332728214E+04  0.25500000000E-02 0. -1.
         -2   -1    0    0    0  501 -0.00000000000E+00 -0.00000000000E+00 -0.76681373880E+03  0.76681373880E+03  0.25500000000E-02 0.  1.
    8880023    1    1    2    0    0 -0.49122409910E+03 -0.19907770943E+02  0.13131260500E+04  0.15491312611E+04  0.65864270000E+03 0. -1.
    8880022    1    1    2    0    0  0.49122409910E+03  0.19907770943E+02 -0.54666696739E+03  0.75095529903E+03  0.15294330000E+03 0.  0.
<mgrwt>
<rscale>  0 0.73119857E+03</rscale>
<asrwt>0</asrwt>
<pdfrwt beam="1">  1        2 0.23588813E+00 0.82189272E+03</pdfrwt>
<pdfrwt beam="2">  1       -2 0.11797134E+00 0.82189272E+03</pdfrwt>
<totfact> 0.68387987E+00</totfact>
</mgrwt>
</event>
<event>
 4    1  0.2051094E-007  0.6623302E+03  0.7818608E-02  0.1021887E+00
         -2   -1    0    0    0  501 -0.00000000000E+00  0.00000000000E+00  0.60320885080E+03  0.60320885081E+03  0.25500000000E-02 0.  1.
          2   -1    0    0  501    0  0.00000000000E+00 -0.00000000000E+00 -0.16360630927E+04  0.16360630927E+04  0.25500000000E-02 0. -1.
    8880023    1    1    2    0    0 -0.24371355902E+02  0.65399779932E+02 -0.15552938209E+04  0.16904496945E+04  0.65864270000E+03 0. -1.
    8880022    1    1    2    0    0  0.24371355902E+02 -0.65399779932E+02  0.52243957901E+03  0.54882224895E+03  0.15294330000E+03 0.  0.
<mgrwt>
<rscale>  0 0.47011891E+03</rscale>
<asrwt>0</asrwt>
<pdfrwt beam="1">  1        2 0.25170201E+00 0.66233021E+03</pdfrwt>
<pdfrwt beam="2">  1       -2 0.92801362E-01 0.66233021E+03</pdfrwt>
<totfact> 0.10905105E+01</totfact>
</mgrwt>
</event>
<event>
 4    1  0.2051094E-007  0.1136983E+04  0.7818608E-02  0.9220955E-01
         -2   -1    0    0    0  501 -0.00000000000E+00  0.00000000000E+00  0.79652808955E+03  0.79652808955E+03  0.25500000000E-02 0.  1.
          2   -1    0    0  501    0  0.00000000000E+00 -0.00000000000E+00 -0.18694315077E+04  0.18694315077E+04  0.25500000000E-02 0. -1.
    8880023    1    1    2    0    0 -0.16962311772E+03  0.91112507294E+03  0.12484653646E+03  0.11438171902E+04  0.65864270000E+03 0.  1.
    8880022    1    1    2    0    0  0.16962311772E+03 -0.91112507294E+03 -0.11977499546E+04  0.15221424070E+04  0.15294330000E+03 0.  0.
<mgrwt>
<rscale>  0 0.10839728E+04</rscale>
<asrwt>0</asrwt>
<pdfrwt beam="1">  1        2 0.28760485E+00 0.11369833E+04</pdfrwt>
<pdfrwt beam="2">  1       -2 0.12254278E+00 0.11369833E+04</pdfrwt>
<totfact> 0.39066569E+00</totfact>
</mgrwt>
</event>
<event>
 4    1  0.2051094E-007  0.8549962E+03  0.7818608E-02  0.9602527E-01
          2   -1    0    0  501    0  0.00000000000E+00  0.00000000000E+00  0.82989557273E+03  0.82989557274E+03  0.25500000000E-02 0. -1.
         -2   -1    0    0    0  501 -0.00000000000E+00 -0.00000000000E+00 -0.96405278435E+03  0.96405278436E+03  0.25500000000E-02 0.  1.
    8880023    1    1    2    0    0 -0.14529067076E+03 -0.52545117727E+03  0.46193292716E+03  0.97180273418E+03  0.65864270000E+03 0. -1.
    8880022    1    1    2    0    0  0.14529067076E+03  0.52545117727E+03 -0.59609013878E+03  0.82214562291E+03  0.15294330000E+03 0.  0.
<mgrwt>
<rscale>  0 0.77129156E+03</rscale>
<asrwt>0</asrwt>
<pdfrwt beam="1">  1        2 0.12767624E+00 0.85499621E+03</pdfrwt>
<pdfrwt beam="2">  1       -2 0.14831581E+00 0.85499621E+03</pdfrwt>
<totfact> 0.10174326E+01</totfact>
</mgrwt>
</event>
<event>
 4    1  0.2051094E-007  0.6871093E+03  0.7818608E-02  0.1005558E+00
          2   -1    0    0  501    0  0.00000000000E+00  0.00000000000E+00  0.54162762965E+03  0.54162762966E+03  0.25500000000E-02 0. -1.
         -2   -1    0    0    0  501 -0.00000000000E+00 -0.00000000000E+00 -0.86731973829E+03  0.86731973830E+03  0.25500000000E-02 0.  1.
    8880023    1    1    2    0    0  0.19482259169E+03  0.18791188041E+02  0.28941913310E+03  0.74557534284E+03  0.65864270000E+03 0. -1.
    8880022    1    1    2    0    0 -0.19482259169E+03 -0.18791188041E+02 -0.61511124174E+03  0.66337202512E+03  0.15294330000E+03 0.  0.
<mgrwt>
<rscale>  0 0.53278935E+03</rscale>
<asrwt>0</asrwt>
<pdfrwt beam="1">  1        2 0.83327327E-01 0.68710928E+03</pdfrwt>
<pdfrwt beam="2">  1       -2 0.13343381E+00 0.68710928E+03</pdfrwt>
<totfact> 0.23211259E+01</totfact>
</mgrwt>
</event>
<event>
 4    1  0.2051094E-007  0.1137598E+04  0.7818608E-02  0.9220306E-01
         -2   -1    0    0    0  501 -0.00000000000E+00  0.00000000000E+00  0.14029933466E+04  0.14029933466E+04  0.25500000000E-02 0.  1.
          2   -1    0    0  501    0  0.00000000000E+00 -0.00000000000E+00 -0.11878457015E+04  0.11878457015E+04  0.25500000000E-02 0. -1.
    8880023    1    1    2    0    0 -0.81746885014E+03 -0.43825194886E+03 -0.65260847517E+03  0.13114984254E+04  0.65864270000E+03 0.  0.
    8880022    1    1    2    0    0  0.81746885014E+03  0.43825194886E+03  0.86775612033E+03  0.12793406227E+04  0.15294330000E+03 0.  0.
<mgrwt>
<rscale>  0 0.10846274E+04</rscale>
<asrwt>0</asrwt>
<pdfrwt beam="1">  1        2 0.18274549E+00 0.11375985E+04</pdfrwt>
<pdfrwt beam="2">  1       -2 0.21584513E+00 0.11375985E+04</pdfrwt>
<totfact> 0.19780587E+00</totfact>
</mgrwt>
</event>
<event>
 4    1  0.2051094E-007  0.7306242E+03  0.7818608E-02  0.9888151E-01
         -2   -1    0    0    0  501 -0.00000000000E+00  0.00000000000E+00  0.33834058158E+03  0.33834058158E+03  0.25500000000E-02 0.  1.
          2   -1    0    0  501    0  0.00000000000E+00 -0.00000000000E+00 -0.10367062145E+04  0.10367062145E+04  0.25500000000E-02 0. -1.
    8880023    1    1    2    0    0  0.21541161339E+03  0.23151522655E+03 -0.18617173107E+03  0.75397054519E+03  0.65864270000E+03 0.  1.
    8880022    1    1    2    0    0 -0.21541161339E+03 -0.23151522655E+03 -0.51219390183E+03  0.62107625087E+03  0.15294330000E+03 0.  0.
<mgrwt>
<rscale>  0 0.60838975E+03</rscale>
<asrwt>0</asrwt>
<pdfrwt beam="1">  1        2 0.15949326E+00 0.73062416E+03</pdfrwt>
<pdfrwt beam="2">  1       -2 0.52052398E-01 0.73062416E+03</pdfrwt>
<totfact> 0.84490339E+01</totfact>
</mgrwt>
</event>
<event>
 4    1  0.2051094E-007  0.8425348E+03  0.7818608E-02  0.9625419E-01
          2   -1    0    0  501    0  0.00000000000E+00  0.00000000000E+00  0.20279448237E+04  0.20279448237E+04  0.25500000000E-02 0. -1.
         -2   -1    0    0    0  501 -0.00000000000E+00 -0.00000000000E+00 -0.38801447650E+03  0.38801447651E+03  0.25500000000E-02 0.  1.
    8880023    1    1    2    0    0 -0.26340915633E+03  0.45461000357E+03  0.16672682124E+04  0.18680599930E+04  0.65864270000E+03 0. -1.
    8880022    1    1    2    0    0  0.26340915633E+03 -0.45461000357E+03 -0.27337865198E+02  0.54789930724E+03  0.15294330000E+03 0.  0.
<mgrwt>
<rscale>  0 0.75636381E+03</rscale>
<asrwt>0</asrwt>
<pdfrwt beam="1">  1        2 0.31199151E+00 0.84253477E+03</pdfrwt>
<pdfrwt beam="2">  1       -2 0.59694535E-01 0.84253477E+03</pdfrwt>
<totfact> 0.17252808E+01</totfact>
</mgrwt>
</event>
<event>
 4    1  0.2051094E-007  0.1175137E+04  0.7818608E-02  0.9181678E-01
          2   -1    0    0  501    0  0.00000000000E+00  0.00000000000E+00  0.18967367302E+04  0.18967367302E+04  0.25500000000E-02 0. -1.
         -2   -1    0    0    0  501 -0.00000000000E+00 -0.00000000000E+00 -0.15684431150E+04  0.15684431150E+04  0.25500000000E-02 0.  1.
    8880023    1    1    2    0    0 -0.56442882733E+03 -0.79281578038E+03  0.15185306539E+04  0.19201255989E+04  0.65864270000E+03 0. -1.
    8880022    1    1    2    0    0  0.56442882733E+03  0.79281578038E+03 -0.11902370386E+04  0.15450542462E+04  0.15294330000E+03 0.  0.
<mgrwt>
<rscale>  0 0.11244558E+04</rscale>
<asrwt>0</asrwt>
<pdfrwt beam="1">  1        2 0.29180565E+00 0.11751370E+04</pdfrwt>
<pdfrwt beam="2">  1       -2 0.24129894E+00 0.11751370E+04</pdfrwt>
<totfact> 0.54075052E-01</totfact>
</mgrwt>
</event>
<event>
 4    1  0.2051094E-007  0.6989207E+03  0.7818608E-02  0.1000171E+00
         -2   -1    0    0    0  501 -0.00000000000E+00  0.00000000000E+00  0.38436744802E+03  0.38436744803E+03  0.25500000000E-02 0.  1.
          2   -1    0    0  501    0  0.00000000000E+00 -0.00000000000E+00 -0.81531630175E+03  0.81531630175E+03  0.25500000000E-02 0. -1.
    8880023    1    1    2    0    0 -0.15905264449E+03 -0.17141217676E+03 -0.55645048748E+03  0.89337966696E+03  0.65864270000E+03 0. -1.
    8880022    1    1    2    0    0  0.15905264449E+03  0.17141217676E+03  0.12550163375E+03  0.30630408282E+03  0.15294330000E+03 0.  0.
<mgrwt>
<rscale>  0 0.55575387E+03</rscale>
<asrwt>0</asrwt>
<pdfrwt beam="1">  1        2 0.12543328E+00 0.69892066E+03</pdfrwt>
<pdfrwt beam="2">  1       -2 0.59133454E-01 0.69892066E+03</pdfrwt>
<totfact> 0.91159377E+01</totfact>
</mgrwt>
</event>
<event>
 4    1  0.2051094E-007  0.9740397E+03  0.7818608E-02  0.9416339E-01
          2   -1    0    0  501    0  0.00000000000E+00  0.00000000000E+00  0.28386697705E+04  0.28386697705E+04  0.25500000000E-02 0. -1.
         -2   -1    0    0    0  501 -0.00000000000E+00 -0.00000000000E+00 -0.67481331440E+03  0.67481331441E+03  0.25500000000E-02 0.  1.
    8880023    1    1    2    0    0 -0.58139400805E+02  0.71523628195E+03  0.25172274138E+04  0.26991085914E+04  0.65864270000E+03 0. -1.
    8880022    1    1    2    0    0  0.58139400805E+02 -0.71523628195E+03 -0.35337095771E+03  0.81437449353E+03  0.15294330000E+03 0.  0.
<mgrwt>
<rscale>  0 0.90743191E+03</rscale>
<asrwt>0</asrwt>
<pdfrwt beam="1">  1        2 0.43671842E+00 0.97403970E+03</pdfrwt>
<pdfrwt beam="2">  1       -2 0.10381743E+00 0.97403970E+03</pdfrwt>
<totfact> 0.16870619E+00</totfact>
</mgrwt>
</event>
<event>
 4    1  0.2051094E-007  0.8068556E+03  0.7818608E-02  0.9696164E-01
         -2   -1    0    0    0  501 -0.00000000000E+00  0.00000000000E+00  0.79611876671E+03  0.79611876672E+03  0.25500000000E-02 0.  1.
          2   -1    0    0  501    0  0.00000000000E+00 -0.00000000000E+00 -0.79756324741E+03  0.79756324742E+03  0.25500000000E-02 0. -1.
    8880023    1    1    2    0    0 -0.22278069743E+03  0.40935869875E+03 -0.45441228644E+03  0.92601647703E+03  0.65864270000E+03 0.  0.
    8880022    1    1    2    0    0  0.22278069743E+03 -0.40935869875E+03  0.45296780574E+03  0.66766553711E+03  0.15294330000E+03 0.  0.
<mgrwt>
<rscale>  0 0.71245632E+03</rscale>
<asrwt>0</asrwt>
<pdfrwt beam="1">  1        2 0.12270204E+00 0.80685562E+03</pdfrwt>
<pdfrwt beam="2">  1       -2 0.12247981E+00 0.80685562E+03</pdfrwt>
<totfact> 0.17612624E+01</totfact>
</mgrwt>
</event>
<event>
 4    1  0.2051094E-007  0.7039165E+03  0.7818608E-02  0.9981326E-01
         -2   -1    0    0    0  501 -0.00000000000E+00  0.00000000000E+00  0.26228603243E+03  0.26228603244E+03  0.25500000000E-02 0.  1.
          2   -1    0    0  501    0  0.00000000000E+00 -0.00000000000E+00 -0.27938684238E+04  0.27938684238E+04  0.25500000000E-02 0. -1.
    8880023    1    1    2    0    0 -0.31451606252E+02  0.24637180032E+03 -0.26495915651E+04  0.27415021313E+04  0.65864270000E+03 0. -1.
    8880022    1    1    2    0    0  0.31451606252E+02 -0.24637180032E+03  0.11800917373E+03  0.31465232500E+03  0.15294330000E+03 0.  0.
<mgrwt>
<rscale>  0 0.56476693E+03</rscale>
<asrwt>0</asrwt>
<pdfrwt beam="1">  1        2 0.42982589E+00 0.70391652E+03</pdfrwt>
<pdfrwt beam="2">  1       -2 0.40351699E-01 0.70391652E+03</pdfrwt>
<totfact> 0.14422100E+01</totfact>
</mgrwt>
</event>
<event>
 4    1  0.2051094E-007  0.6909218E+03  0.7818608E-02  0.1003718E+00
         -2   -1    0    0    0  501 -0.00000000000E+00  0.00000000000E+00  0.46532475250E+03  0.46532475251E+03  0.25500000000E-02 0.  1.
          2   -1    0    0  501    0  0.00000000000E+00 -0.00000000000E+00 -0.72308116759E+03  0.72308116759E+03  0.25500000000E-02 0. -1.
    8880023    1    1    2    0    0  0.18595882215E+03  0.94773419977E+02 -0.48489954731E+03  0.84409742442E+03  0.65864270000E+03 0. -1.
    8880022    1    1    2    0    0 -0.18595882215E+03 -0.94773419977E+02  0.22714313222E+03  0.34430849568E+03  0.15294330000E+03 0.  0.
<mgrwt>
<rscale>  0 0.54049788E+03</rscale>
<asrwt>0</asrwt>
<pdfrwt beam="1">  1        2 0.11124326E+00 0.69092177E+03</pdfrwt>
<pdfrwt beam="2">  1       -2 0.71588423E-01 0.69092177E+03</pdfrwt>
<totfact> 0.70752475E+01</totfact>
</mgrwt>
</event>
<event>
 4    1  0.2051094E-007  0.1517797E+04  0.7818608E-02  0.8897170E-01
         -2   -1    0    0    0  501 -0.00000000000E+00  0.00000000000E+00  0.17681855596E+04  0.17681855596E+04  0.25500000000E-02 0.  1.
          2   -1    0    0  501    0  0.00000000000E+00 -0.00000000000E+00 -0.13390380706E+04  0.13390380706E+04  0.25500000000E-02 0. -1.
    8880023    1    1    2    0    0 -0.12558723812E+04 -0.54100202808E+03 -0.30427089810E+03  0.15479953546E+04  0.65864270000E+03 0.  0.
    8880022    1    1    2    0    0  0.12558723812E+04  0.54100202808E+03  0.73341838711E+03  0.15592282757E+04  0.15294330000E+03 0.  0.
<mgrwt>
<rscale>  0 0.14810254E+04</rscale>
<asrwt>0</asrwt>
<pdfrwt beam="1">  1        2 0.20600586E+00 0.15177974E+04</pdfrwt>
<pdfrwt beam="2">  1       -2 0.27202855E+00 0.15177974E+04</pdfrwt>
<totfact> 0.69511424E-01</totfact>
</mgrwt>
</event>
<event>
 4    1  0.2051094E-007  0.9211094E+03  0.7818608E-02  0.9492960E-01
         -2   -1    0    0    0  501 -0.00000000000E+00  0.00000000000E+00  0.10508394106E+04  0.10508394106E+04  0.25500000000E-02 0.  1.
          2   -1    0    0  501    0  0.00000000000E+00 -0.00000000000E+00 -0.64601929432E+03  0.64601929432E+03  0.25500000000E-02 0. -1.
    8880023    1    1    2    0    0  0.58430234462E+03 -0.27059753632E+03  0.14356526662E+00  0.92110937649E+03  0.65864270000E+03 0.  0.
    8880022    1    1    2    0    0 -0.58430234462E+03  0.27059753632E+03  0.40467655098E+03  0.77574932840E+03  0.15294330000E+03 0.  0.
<mgrwt>
<rscale>  0 0.84804837E+03</rscale>
<asrwt>0</asrwt>
<pdfrwt beam="1">  1        2 0.99387585E-01 0.92110937E+03</pdfrwt>
<pdfrwt beam="2">  1       -2 0.16166760E+00 0.92110937E+03</pdfrwt>
<totfact> 0.11086500E+01</totfact>
</mgrwt>
</event>
<event>
 4    1  0.2051094E-007  0.7882917E+03  0.7818608E-02  0.9736708E-01
          2   -1    0    0  501    0  0.00000000000E+00  0.00000000000E+00  0.16323203715E+04  0.16323203715E+04  0.25500000000E-02 0. -1.
         -2   -1    0    0    0  501 -0.00000000000E+00 -0.00000000000E+00 -0.27755097322E+03  0.27755097324E+03  0.25500000000E-02 0.  1.
    8880023    1    1    2    0    0  0.38131650821E+03 -0.20540539950E+03  0.11785860971E+04  0.14179101001E+04  0.65864270000E+03 0.  0.
    8880022    1    1    2    0    0 -0.38131650821E+03  0.20540539950E+03  0.17618330123E+03  0.49196124464E+03  0.15294330000E+03 0.  0.
<mgrwt>
<rscale>  0 0.68872644E+03</rscale>
<asrwt>0</asrwt>
<pdfrwt beam="1">  1        2 0.25112621E+00 0.78829174E+03</pdfrwt>
<pdfrwt beam="2">  1       -2 0.42700149E-01 0.78829174E+03</pdfrwt>
<totfact> 0.56678919E+01</totfact>
</mgrwt>
</event>
<event>
 4    1  0.2051094E-007  0.7117692E+03  0.7818608E-02  0.9951489E-01
         -2   -1    0    0    0  501 -0.00000000000E+00  0.00000000000E+00  0.19673573252E+03  0.19673573253E+03  0.25500000000E-02 0.  1.
          2   -1    0    0  501    0  0.00000000000E+00 -0.00000000000E+00 -0.31170457687E+04  0.31170457687E+04  0.25500000000E-02 0. -1.
    8880023    1    1    2    0    0  0.25966191452E+03 -0.73354927816E+02 -0.29180644732E+04  0.30036171080E+04  0.65864270000E+03 0. -1.
    8880022    1    1    2    0    0 -0.25966191452E+03  0.73354927816E+02 -0.22455629992E+01  0.31016439328E+03  0.15294330000E+03 0.  0.
<mgrwt>
<rscale>  0 0.57829516E+03</rscale>
<asrwt>0</asrwt>
<pdfrwt beam="1">  1        2 0.47954547E+00 0.71176925E+03</pdfrwt>
<pdfrwt beam="2">  1       -2 0.30267038E-01 0.71176925E+03</pdfrwt>
<totfact> 0.15853608E+01</totfact>
</mgrwt>
</event>
<event>
 4    1  0.2051094E-007  0.6742242E+03  0.7818608E-02  0.1012800E+00
          2   -1    0    0  501    0  0.00000000000E+00  0.00000000000E+00  0.10541633462E+04  0.10541633462E+04  0.25500000000E-02 0. -1.
         -2   -1    0    0    0  501 -0.00000000000E+00 -0.00000000000E+00 -0.18642066652E+03  0.18642066654E+03  0.25500000000E-02 0.  1.
    8880023    1    1    2    0    0  0.11580901485E+03 -0.85769454069E+02  0.62285420022E+03  0.91789198067E+03  0.65864270000E+03 0.  1.
    8880022    1    1    2    0    0 -0.11580901485E+03  0.85769454069E+02  0.24488847942E+03  0.32269203204E+03  0.15294330000E+03 0.  1.
<mgrwt>
<rscale>  0 0.50376923E+03</rscale>
<asrwt>0</asrwt>
<pdfrwt beam="1">  1        2 0.16217897E+00 0.67422425E+03</pdfrwt>
<pdfrwt beam="2">  1       -2 0.28680103E-01 0.67422425E+03</pdfrwt>
<totfact> 0.26280519E+02</totfact>
</mgrwt>
</event>
<event>
 4    1  0.2051094E-007  0.8654834E+03  0.7818608E-02  0.9583883E-01
         -2   -1    0    0    0  501 -0.00000000000E+00  0.00000000000E+00  0.16794056240E+04  0.16794056241E+04  0.25500000000E-02 0.  1.
          2   -1    0    0  501    0  0.00000000000E+00 -0.00000000000E+00 -0.62919078271E+03  0.62919078272E+03  0.25500000000E-02 0. -1.
    8880023    1    1    2    0    0  0.42945783829E+03 -0.36168665505E+03 -0.23581272035E+03  0.89703350922E+03  0.65864270000E+03 0.  0.
    8880022    1    1    2    0    0 -0.42945783829E+03  0.36168665505E+03  0.12860275617E+04  0.14115628976E+04  0.15294330000E+03 0.  0.
<mgrwt>
<rscale>  0 0.78372157E+03</rscale>
<asrwt>0</asrwt>
<pdfrwt beam="1">  1        2 0.96798583E-01 0.86548338E+03</pdfrwt>
<pdfrwt beam="2">  1       -2 0.25837009E+00 0.86548338E+03</pdfrwt>
<totfact> 0.27143015E+00</totfact>
</mgrwt>
</event>
<event>
 4    1  0.2051094E-007  0.1747635E+04  0.7818608E-02  0.8752070E-01
          2   -1    0    0  501    0  0.00000000000E+00  0.00000000000E+00  0.26569217692E+04  0.26569217692E+04  0.25500000000E-02 0. -1.
         -2   -1    0    0    0  501 -0.00000000000E+00 -0.00000000000E+00 -0.13240669540E+04  0.13240669540E+04  0.25500000000E-02 0.  1.
    8880023    1    1    2    0    0 -0.15862221817E+04 -0.32298039999E+03  0.15557745436E+04  0.23397995182E+04  0.65864270000E+03 0.  0.
    8880022    1    1    2    0    0  0.15862221817E+04  0.32298039999E+03 -0.22291972845E+03  0.16411892050E+04  0.15294330000E+03 0.  0.
<mgrwt>
<rscale>  0 0.17163931E+04</rscale>
<asrwt>0</asrwt>
<pdfrwt beam="1">  1        2 0.40875719E+00 0.17476348E+04</pdfrwt>
<pdfrwt beam="2">  1       -2 0.20370261E+00 0.17476348E+04</pdfrwt>
<totfact> 0.32435555E-01</totfact>
</mgrwt>
</event>
<event>
 4    1  0.2051094E-007  0.9174991E+03  0.7818608E-02  0.9498504E-01
         -2   -1    0    0    0  501 -0.00000000000E+00  0.00000000000E+00  0.46376402419E+03  0.46376402420E+03  0.25500000000E-02 0.  1.
          2   -1    0    0  501    0  0.00000000000E+00 -0.00000000000E+00 -0.26835014882E+04  0.26835014882E+04  0.25500000000E-02 0. -1.
    8880023    1    1    2    0    0 -0.18286987981E+03  0.61200741763E+03 -0.23088288928E+04  0.24844507511E+04  0.65864270000E+03 0.  0.
    8880022    1    1    2    0    0  0.18286987981E+03 -0.61200741763E+03  0.89091428731E+02  0.66281476135E+03  0.15294330000E+03 0.  0.
<mgrwt>
<rscale>  0 0.84394185E+03</rscale>
<asrwt>0</asrwt>
<pdfrwt beam="1">  1        2 0.41284637E+00 0.91749914E+03</pdfrwt>
<pdfrwt beam="2">  1       -2 0.71348313E-01 0.91749914E+03</pdfrwt>
<totfact> 0.49717351E+00</totfact>
</mgrwt>
</event>
<event>
 4    1  0.2051094E-007  0.1284349E+04  0.7818608E-02  0.9079194E-01
          2   -1    0    0  501    0  0.00000000000E+00  0.00000000000E+00  0.18520898663E+04  0.18520898663E+04  0.25500000000E-02 0. -1.
         -2   -1    0    0    0  501 -0.00000000000E+00 -0.00000000000E+00 -0.18301499793E+04  0.18301499793E+04  0.25500000000E-02 0.  1.
    8880023    1    1    2    0    0  0.79147523184E+03 -0.76766539624E+03  0.14071648788E+04  0.19051683405E+04  0.65864270000E+03 0.  0.
    8880022    1    1    2    0    0 -0.79147523184E+03  0.76766539624E+03 -0.13852249918E+04  0.17770715051E+04  0.15294330000E+03 0.  0.
<mgrwt>
<rscale>  0 0.12392308E+04</rscale>
<asrwt>0</asrwt>
<pdfrwt beam="1">  1        2 0.28493690E+00 0.12843494E+04</pdfrwt>
<pdfrwt beam="2">  1       -2 0.28156154E+00 0.12843494E+04</pdfrwt>
<totfact> 0.32037196E-01</totfact>
</mgrwt>
</event>
<event>
 4    1  0.2051094E-007  0.1097784E+04  0.7818608E-02  0.9263528E-01
          2   -1    0    0  501    0  0.00000000000E+00  0.00000000000E+00  0.26604571626E+04  0.26604571626E+04  0.25500000000E-02 0. -1.
         -2   -1    0    0    0  501 -0.00000000000E+00 -0.00000000000E+00 -0.70815877273E+03  0.70815877274E+03  0.25500000000E-02 0.  1.
    8880023    1    1    2    0    0  0.87807776036E+03  0.17267050930E+02  0.21867505029E+04  0.24468360535E+04  0.65864270000E+03 0. -1.
    8880022    1    1    2    0    0 -0.87807776036E+03 -0.17267050930E+02 -0.23445211305E+03  0.92177988187E+03  0.15294330000E+03 0.  0.
<mgrwt>
<rscale>  0 0.10421103E+04</rscale>
<asrwt>0</asrwt>
<pdfrwt beam="1">  1        2 0.40930110E+00 0.10977836E+04</pdfrwt>
<pdfrwt beam="2">  1       -2 0.10894750E+00 0.10977836E+04</pdfrwt>
<totfact> 0.18798738E+00</totfact>
</mgrwt>
</event>
<event>
 4    1  0.2051094E-007  0.1171845E+04  0.7818608E-02  0.9184989E-01
          2   -1    0    0  501    0  0.00000000000E+00  0.00000000000E+00  0.27465725224E+04  0.27465725224E+04  0.25500000000E-02 0. -1.
         -2   -1    0    0    0  501 -0.00000000000E+00 -0.00000000000E+00 -0.92693310243E+03  0.92693310243E+03  0.25500000000E-02 0.  1.
    8880023    1    1    2    0    0  0.96492272075E+03  0.91288343711E+02  0.22997658218E+04  0.25811126399E+04  0.65864270000E+03 0. -1.
    8880022    1    1    2    0    0 -0.96492272075E+03 -0.91288343711E+02 -0.48012640181E+03  0.10923929849E+04  0.15294330000E+03 0.  0.
<mgrwt>
<rscale>  0 0.11209715E+04</rscale>
<asrwt>0</asrwt>
<pdfrwt beam="1">  1        2 0.42254961E+00 0.11718445E+04</pdfrwt>
<pdfrwt beam="2">  1       -2 0.14260509E+00 0.11718445E+04</pdfrwt>
<totfact> 0.84001453E-01</totfact>
</mgrwt>
</event>
<event>
 4    1  0.2051094E-007  0.6948879E+03  0.7818608E-02  0.1001911E+00
         -2   -1    0    0    0  501 -0.00000000000E+00  0.00000000000E+00  0.13099361535E+04  0.13099361535E+04  0.25500000000E-02 0.  1.
          2   -1    0    0  501    0  0.00000000000E+00 -0.00000000000E+00 -0.18758015357E+04  0.18758015357E+04  0.25500000000E-02 0. -1.
    8880023    1    1    2    0    0 -0.16237044336E+03  0.15064779105E+03 -0.17963961090E+04  0.19261121734E+04  0.65864270000E+03 0.  0.
    8880022    1    1    2    0    0  0.16237044336E+03 -0.15064779105E+03  0.12305307268E+04  0.12596255159E+04  0.15294330000E+03 0.  0.
<mgrwt>
<rscale>  0 0.54820282E+03</rscale>
<asrwt>0</asrwt>
<pdfrwt beam="1">  1        2 0.28858485E+00 0.69488785E+03</pdfrwt>
<pdfrwt beam="2">  1       -2 0.20152864E+00 0.69488785E+03</pdfrwt>
<totfact> 0.10718350E+00</totfact>
</mgrwt>
</event>
<event>
 4    1  0.2051094E-007  0.6998651E+03  0.7818608E-02  0.9997761E-01
         -2   -1    0    0    0  501 -0.00000000000E+00  0.00000000000E+00  0.90118041172E+03  0.90118041172E+03  0.25500000000E-02 0.  1.
          2   -1    0    0  501    0  0.00000000000E+00 -0.00000000000E+00 -0.41122329412E+03  0.41122329413E+03  0.25500000000E-02 0. -1.
    8880023    1    1    2    0    0 -0.93455347895E+02  0.21741001406E+03 -0.51773143142E+02  0.70177751523E+03  0.65864270000E+03 0. -1.
    8880022    1    1    2    0    0  0.93455347895E+02 -0.21741001406E+03  0.54173026074E+03  0.61062619062E+03  0.15294330000E+03 0.  0.
<mgrwt>
<rscale>  0 0.55748518E+03</rscale>
<asrwt>0</asrwt>
<pdfrwt beam="1">  1        2 0.63265123E-01 0.69986515E+03</pdfrwt>
<pdfrwt beam="2">  1       -2 0.13864314E+00 0.69986515E+03</pdfrwt>
<totfact> 0.28848440E+01</totfact>
</mgrwt>
</event>
<event>
 4    1  0.2051094E-007  0.7641182E+03  0.7818608E-02  0.9794560E-01
         -2   -1    0    0    0  501 -0.00000000000E+00  0.00000000000E+00  0.93938795941E+03  0.93938795942E+03  0.25500000000E-02 0.  1.
          2   -1    0    0  501    0  0.00000000000E+00 -0.00000000000E+00 -0.87093526333E+03  0.87093526333E+03  0.25500000000E-02 0. -1.
    8880023    1    1    2    0    0  0.35174786206E+02 -0.38578383004E+03 -0.63452971539E+03  0.99322937687E+03  0.65864270000E+03 0.  0.
    8880022    1    1    2    0    0 -0.35174786206E+02  0.38578383004E+03  0.70298241148E+03  0.81709384587E+03  0.15294330000E+03 0.  0.
<mgrwt>
<rscale>  0 0.65655291E+03</rscale>
<asrwt>0</asrwt>
<pdfrwt beam="1">  1        2 0.13399004E+00 0.76411821E+03</pdfrwt>
<pdfrwt beam="2">  1       -2 0.14452122E+00 0.76411821E+03</pdfrwt>
<totfact> 0.10296924E+01</totfact>
</mgrwt>
</event>
<event>
 4    1  0.2051094E-007  0.1005363E+04  0.7818608E-02  0.9374574E-01
          2   -1    0    0  501    0  0.00000000000E+00  0.00000000000E+00  0.20965859217E+04  0.20965859218E+04  0.25500000000E-02 0. -1.
         -2   -1    0    0    0  501 -0.00000000000E+00 -0.00000000000E+00 -0.85879106232E+03  0.85879106233E+03  0.25500000000E-02 0.  1.
    8880023    1    1    2    0    0 -0.90346274246E+02  0.75417676372E+03  0.17558649751E+04  0.20233183282E+04  0.65864270000E+03 0. -1.
    8880022    1    1    2    0    0  0.90346274246E+02 -0.75417676372E+03 -0.51807011568E+03  0.93205865587E+03  0.15294330000E+03 0.  0.
<mgrwt>
<rscale>  0 0.94197985E+03</rscale>
<asrwt>0</asrwt>
<pdfrwt beam="1">  1        2 0.32255168E+00 0.10053632E+04</pdfrwt>
<pdfrwt beam="2">  1       -2 0.13212170E+00 0.10053632E+04</pdfrwt>
<totfact> 0.24573688E+00</totfact>
</mgrwt>
</event>
<event>
 4    1  0.2051094E-007  0.9031075E+03  0.7818608E-02  0.9521061E-01
          2   -1    0    0  501    0  0.00000000000E+00  0.00000000000E+00  0.21921920683E+04  0.21921920683E+04  0.25500000000E-02 0. -1.
         -2   -1    0    0    0  501 -0.00000000000E+00 -0.00000000000E+00 -0.65938213463E+03  0.65938213464E+03  0.25500000000E-02 0.  1.
    8880023    1    1    2    0    0 -0.60916105044E+03  0.10351677822E+03  0.19092381014E+04  0.21120590055E+04  0.65864270000E+03 0. -1.
    8880022    1    1    2    0    0  0.60916105044E+03 -0.10351677822E+03 -0.37642816772E+03  0.73951519741E+03  0.15294330000E+03 0.  0.
<mgrwt>
<rscale>  0 0.82748702E+03</rscale>
<asrwt>0</asrwt>
<pdfrwt beam="1">  1        2 0.33726032E+00 0.90310748E+03</pdfrwt>
<pdfrwt beam="2">  1       -2 0.10144341E+00 0.90310748E+03</pdfrwt>
<totfact> 0.42324323E+00</totfact>
</mgrwt>
</event>
<event>
 4    1  0.2051094E-007  0.1268575E+04  0.7818608E-02  0.9093184E-01
         -2   -1    0    0    0  501 -0.00000000000E+00  0.00000000000E+00  0.18168418171E+04  0.18168418171E+04  0.25500000000E-02 0.  1.
          2   -1    0    0  501    0  0.00000000000E+00 -0.00000000000E+00 -0.12911407050E+04  0.12911407050E+04  0.25500000000E-02 0. -1.
    8880023    1    1    2    0    0  0.10740119200E+04  0.14822638261E+03 -0.71260803772E+03  0.14550233972E+04  0.65864270000E+03 0.  0.
    8880022    1    1    2    0    0 -0.10740119200E+04 -0.14822638261E+03  0.12383091499E+04  0.16529591249E+04  0.15294330000E+03 0.  0.
<mgrwt>
<rscale>  0 0.12227380E+04</rscale>
<asrwt>0</asrwt>
<pdfrwt beam="1">  1        2 0.19863703E+00 0.12685751E+04</pdfrwt>
<pdfrwt beam="2">  1       -2 0.27951413E+00 0.12685751E+04</pdfrwt>
<totfact> 0.68547555E-01</totfact>
</mgrwt>
</event>
<event>
 4    1  0.2051094E-007  0.1105354E+04  0.7818608E-02  0.9255118E-01
          2   -1    0    0  501    0  0.00000000000E+00  0.00000000000E+00  0.33540476894E+04  0.33540476894E+04  0.25500000000E-02 0. -1.
         -2   -1    0    0    0  501 -0.00000000000E+00 -0.00000000000E+00 -0.62005517457E+03  0.62005517457E+03  0.25500000000E-02 0.  1.
    8880023    1    1    2    0    0 -0.64209514485E+02  0.88536710532E+03  0.28584949850E+04  0.30647677822E+04  0.65864270000E+03 0. -1.
    8880022    1    1    2    0    0  0.64209514485E+02 -0.88536710532E+03 -0.12450247018E+03  0.90933508182E+03  0.15294330000E+03 0.  0.
<mgrwt>
<rscale>  0 0.10502188E+04</rscale>
<asrwt>0</asrwt>
<pdfrwt beam="1">  1        2 0.51600734E+00 0.11053542E+04</pdfrwt>
<pdfrwt beam="2">  1       -2 0.95393103E-01 0.11053542E+04</pdfrwt>
<totfact> 0.95700490E-01</totfact>
</mgrwt>
</event>
<event>
 4    1  0.2051094E-007  0.1432260E+04  0.7818608E-02  0.8959013E-01
         -2   -1    0    0    0  501 -0.00000000000E+00  0.00000000000E+00  0.15305363979E+04  0.15305363980E+04  0.25500000000E-02 0.  1.
          2   -1    0    0  501    0  0.00000000000E+00 -0.00000000000E+00 -0.25890515278E+04  0.25890515278E+04  0.25500000000E-02 0. -1.
    8880023    1    1    2    0    0 -0.11465095835E+04  0.55052151927E+03  0.96333650200E+03  0.17260896821E+04  0.65864270000E+03 0.  0.
    8880022    1    1    2    0    0  0.11465095835E+04 -0.55052151927E+03 -0.20218516319E+04  0.23934982437E+04  0.15294330000E+03 0.  0.
<mgrwt>
<rscale>  0 0.13928466E+04</rscale>
<asrwt>0</asrwt>
<pdfrwt beam="1">  1        2 0.39831562E+00 0.14322599E+04</pdfrwt>
<pdfrwt beam="2">  1       -2 0.23546714E+00 0.14322599E+04</pdfrwt>
<totfact> 0.23103011E-01</totfact>
</mgrwt>
</event>
<event>
 4    1  0.2051094E-007  0.7610713E+03  0.7818608E-02  0.9802342E-01
         -2   -1    0    0    0  501 -0.00000000000E+00  0.00000000000E+00  0.14778342545E+04  0.14778342545E+04  0.25500000000E-02 0.  1.
          2   -1    0    0  501    0  0.00000000000E+00 -0.00000000000E+00 -0.19855648997E+04  0.19855648997E+04  0.25500000000E-02 0. -1.
    8880023    1    1    2    0    0  0.38130120879E+03 -0.53518395364E+01 -0.18814500564E+04  0.20295526046E+04  0.65864270000E+03 0. -1.
    8880022    1    1    2    0    0 -0.38130120879E+03  0.53518395364E+01  0.13737194112E+04  0.14338465496E+04  0.15294330000E+03 0.  0.
<mgrwt>
<rscale>  0 0.65237011E+03</rscale>
<asrwt>0</asrwt>
<pdfrwt beam="1">  1        2 0.30547153E+00 0.76107126E+03</pdfrwt>
<pdfrwt beam="2">  1       -2 0.22735911E+00 0.76107126E+03</pdfrwt>
<totfact> 0.63231293E-01</totfact>
</mgrwt>
</event>
<event>
 4    1  0.2051094E-007  0.1233722E+04  0.7818608E-02  0.9125019E-01
         -2   -1    0    0    0  501 -0.00000000000E+00  0.00000000000E+00  0.11495694916E+04  0.11495694916E+04  0.25500000000E-02 0.  1.
          2   -1    0    0  501    0  0.00000000000E+00 -0.00000000000E+00 -0.16615521558E+04  0.16615521558E+04  0.25500000000E-02 0. -1.
    8880023    1    1    2    0    0  0.23963176751E+03  0.10153016668E+04 -0.10566738133E+04  0.16243862264E+04  0.65864270000E+03 0. -1.
    8880022    1    1    2    0    0 -0.23963176751E+03 -0.10153016668E+04  0.54469114901E+03  0.11867354210E+04  0.15294330000E+03 0.  0.
<mgrwt>
<rscale>  0 0.11862036E+04</rscale>
<asrwt>0</asrwt>
<pdfrwt beam="1">  1        2 0.25562341E+00 0.12337224E+04</pdfrwt>
<pdfrwt beam="2">  1       -2 0.17685684E+00 0.12337224E+04</pdfrwt>
<totfact> 0.18998229E+00</totfact>
</mgrwt>
</event>
<event>
 4    1  0.2051094E-007  0.7945424E+03  0.7818608E-02  0.9722723E-01
         -2   -1    0    0    0  501 -0.00000000000E+00  0.00000000000E+00  0.40042520474E+03  0.40042520474E+03  0.25500000000E-02 0.  1.
          2   -1    0    0  501    0  0.00000000000E+00 -0.00000000000E+00 -0.13956720554E+04  0.13956720554E+04  0.25500000000E-02 0. -1.
    8880023    1    1    2    0    0  0.27505128573E+02  0.44354349762E+03 -0.10567349536E+04  0.13221143426E+04  0.65864270000E+03 0.  0.
    8880022    1    1    2    0    0 -0.27505128573E+02 -0.44354349762E+03  0.61488102913E+02  0.47398291761E+03  0.15294330000E+03 0.  0.
<mgrwt>
<rscale>  0 0.69679833E+03</rscale>
<asrwt>0</asrwt>
<pdfrwt beam="1">  1        2 0.21471878E+00 0.79454237E+03</pdfrwt>
<pdfrwt beam="2">  1       -2 0.61603878E-01 0.79454237E+03</pdfrwt>
<totfact> 0.36226054E+01</totfact>
</mgrwt>
</event>
<event>
 4    1  0.2051094E-007  0.9548151E+03  0.7818608E-02  0.9443220E-01
         -2   -1    0    0    0  501 -0.00000000000E+00  0.00000000000E+00  0.17505679766E+04  0.17505679766E+04  0.25500000000E-02 0.  1.
          2   -1    0    0  501    0  0.00000000000E+00 -0.00000000000E+00 -0.15455884337E+04  0.15455884337E+04  0.25500000000E-02 0. -1.
    8880023    1    1    2    0    0  0.37964273923E+03 -0.57769626721E+03 -0.13116724792E+04  0.16223922108E+04  0.65864270000E+03 0.  0.
    8880022    1    1    2    0    0 -0.37964273923E+03  0.57769626721E+03  0.15166520221E+04  0.16737641995E+04  0.15294330000E+03 0.  0.
<mgrwt>
<rscale>  0 0.88602626E+03</rscale>
<asrwt>0</asrwt>
<pdfrwt beam="1">  1        2 0.23778284E+00 0.95481506E+03</pdfrwt>
<pdfrwt beam="2">  1       -2 0.26931815E+00 0.95481506E+03</pdfrwt>
<totfact> 0.59041166E-01</totfact>
</mgrwt>
</event>
<event>
 4    1  0.2051094E-007  0.7127548E+03  0.7818608E-02  0.9947910E-01
         -2   -1    0    0    0  501 -0.00000000000E+00  0.00000000000E+00  0.12716856508E+04  0.12716856508E+04  0.25500000000E-02 0.  1.
          2   -1    0    0  501    0  0.00000000000E+00 -0.00000000000E+00 -0.10268714999E+04  0.10268714999E+04  0.25500000000E-02 0. -1.
    8880023    1    1    2    0    0  0.81318687723E+02 -0.25999329589E+03 -0.87926684290E+03  0.11318699705E+04  0.65864270000E+03 0. -1.
    8880022    1    1    2    0    0 -0.81318687723E+02  0.25999329589E+03  0.11240809938E+04  0.11666871802E+04  0.15294330000E+03 0.  0.
<mgrwt>
<rscale>  0 0.57994506E+03</rscale>
<asrwt>0</asrwt>
<pdfrwt beam="1">  1        2 0.15798023E+00 0.71275483E+03</pdfrwt>
<pdfrwt beam="2">  1       -2 0.19564395E+00 0.71275483E+03</pdfrwt>
<totfact> 0.35426133E+00</totfact>
</mgrwt>
</event>
<event>
 4    1  0.2051094E-007  0.8339768E+03  0.7818608E-02  0.9641644E-01
         -2   -1    0    0    0  501 -0.00000000000E+00  0.00000000000E+00  0.12068508796E+04  0.12068508796E+04  0.25500000000E-02 0.  1.
          2   -1    0    0  501    0  0.00000000000E+00 -0.00000000000E+00 -0.10270261481E+04  0.10270261481E+04  0.25500000000E-02 0. -1.
    8880023    1    1    2    0    0  0.49551330806E+03  0.12717559047E+03 -0.77591133238E+03  0.11391030117E+04  0.65864270000E+03 0.  0.
    8880022    1    1    2    0    0 -0.49551330806E+03 -0.12717559047E+03  0.95573606384E+03  0.10947740160E+04  0.15294330000E+03 0.  0.
<mgrwt>
<rscale>  0 0.74600181E+03</rscale>
<asrwt>0</asrwt>
<pdfrwt beam="1">  1        2 0.15800402E+00 0.83397678E+03</pdfrwt>
<pdfrwt beam="2">  1       -2 0.18566937E+00 0.83397678E+03</pdfrwt>
<totfact> 0.40570069E+00</totfact>
</mgrwt>
</event>
<event>
 4    1  0.2051094E-007  0.1057415E+04  0.7818608E-02  0.9310020E-01
         -2   -1    0    0    0  501 -0.00000000000E+00  0.00000000000E+00  0.72503245230E+03  0.72503245231E+03  0.25500000000E-02 0.  1.
          2   -1    0    0  501    0  0.00000000000E+00 -0.00000000000E+00 -0.23211045368E+04  0.23211045368E+04  0.25500000000E-02 0. -1.
    8880023    1    1    2    0    0  0.80245355773E+03  0.20095857492E+03 -0.18810822396E+04  0.21579148870E+04  0.65864270000E+03 0.  0.
    8880022    1    1    2    0    0 -0.80245355773E+03 -0.20095857492E+03  0.28501015511E+03  0.88822210211E+03  0.15294330000E+03 0.  1.
<mgrwt>
<rscale>  0 0.99865576E+03</rscale>
<asrwt>0</asrwt>
<pdfrwt beam="1">  1        2 0.35709300E+00 0.10574149E+04</pdfrwt>
<pdfrwt beam="2">  1       -2 0.11154345E+00 0.10574149E+04</pdfrwt>
<totfact> 0.27922795E+00</totfact>
</mgrwt>
</event>
<event>
 4    1  0.2051094E-007  0.8059630E+03  0.7818608E-02  0.9698048E-01
         -2   -1    0    0    0  501 -0.00000000000E+00  0.00000000000E+00  0.73704134320E+03  0.73704134320E+03  0.25500000000E-02 0.  1.
          2   -1    0    0  501    0  0.00000000000E+00 -0.00000000000E+00 -0.22803534311E+04  0.22803534311E+04  0.25500000000E-02 0. -1.
    8880023    1    1    2    0    0 -0.36936382698E+02 -0.46303547411E+03 -0.21160116953E+04  0.22643060411E+04  0.65864270000E+03 0. -1.
    8880022    1    1    2    0    0  0.36936382698E+02  0.46303547411E+03  0.57269960746E+03  0.75308873318E+03  0.15294330000E+03 0.  0.
<mgrwt>
<rscale>  0 0.71133126E+03</rscale>
<asrwt>0</asrwt>
<pdfrwt beam="1">  1        2 0.35082360E+00 0.80596300E+03</pdfrwt>
<pdfrwt beam="2">  1       -2 0.11339098E+00 0.80596300E+03</pdfrwt>
<totfact> 0.29343515E+00</totfact>
</mgrwt>
</event>
<event>
 4    1  0.2051094E-007  0.1103023E+04  0.7818608E-02  0.9257697E-01
         -2   -1    0    0    0  501 -0.00000000000E+00  0.00000000000E+00  0.50030603272E+03  0.50030603273E+03  0.25500000000E-02 0.  1.
          2   -1    0    0  501    0  0.00000000000E+00 -0.00000000000E+00 -0.28840177538E+04  0.28840177538E+04  0.25500000000E-02 0. -1.
    8880023    1    1    2    0    0  0.86890807748E+03 -0.16688039317E+03 -0.22097066027E+04  0.24697092519E+04  0.65864270000E+03 0.  0.
    8880022    1    1    2    0    0 -0.86890807748E+03  0.16688039317E+03 -0.17400511840E+03  0.91461453464E+03  0.15294330000E+03 0.  0.
<mgrwt>
<rscale>  0 0.10477235E+04</rscale>
<asrwt>0</asrwt>
<pdfrwt beam="1">  1        2 0.44369503E+00 0.11030234E+04</pdfrwt>
<pdfrwt beam="2">  1       -2 0.76970161E-01 0.11030234E+04</pdfrwt>
<totfact> 0.31106626E+00</totfact>
</mgrwt>
</event>
<event>
 4    1  0.2051094E-007  0.8909027E+03  0.7818608E-02  0.9540796E-01
          2   -1    0    0  501    0  0.00000000000E+00  0.00000000000E+00  0.93810188429E+03  0.93810188429E+03  0.25500000000E-02 0. -1.
         -2   -1    0    0    0  501 -0.00000000000E+00 -0.00000000000E+00 -0.15025982920E+04  0.15025982920E+04  0.25500000000E-02 0.  1.
    8880023    1    1    2    0    0  0.49580199535E+03 -0.33775401035E+03  0.63282819386E+03  0.10927850289E+04  0.65864270000E+03 0.  0.
    8880022    1    1    2    0    0 -0.49580199535E+03  0.33775401035E+03 -0.11973246016E+04  0.13479151474E+04  0.15294330000E+03 0.  0.
<mgrwt>
<rscale>  0 0.81341748E+03</rscale>
<asrwt>0</asrwt>
<pdfrwt beam="1">  1        2 0.14432337E+00 0.89090269E+03</pdfrwt>
<pdfrwt beam="2">  1       -2 0.23116897E+00 0.89090269E+03</pdfrwt>
<totfact> 0.23437689E+00</totfact>
</mgrwt>
</event>
<event>
 4    1  0.2051094E-007  0.9779478E+03  0.7818608E-02  0.9410995E-01
          2   -1    0    0  501    0  0.00000000000E+00  0.00000000000E+00  0.27110792135E+04  0.27110792135E+04  0.25500000000E-02 0. -1.
         -2   -1    0    0    0  501 -0.00000000000E+00 -0.00000000000E+00 -0.51089104422E+03  0.51089104423E+03  0.25500000000E-02 0.  1.
    8880023    1    1    2    0    0  0.53882969830E+03 -0.48190682518E+03  0.22779470437E+04  0.24789966866E+04  0.65864270000E+03 0.  0.
    8880022    1    1    2    0    0 -0.53882969830E+03  0.48190682518E+03 -0.77758874381E+02  0.74297357118E+03  0.15294330000E+03 0.  0.
<mgrwt>
<rscale>  0 0.91176344E+03</rscale>
<asrwt>0</asrwt>
<pdfrwt beam="1">  1        2 0.41708910E+00 0.97794777E+03</pdfrwt>
<pdfrwt beam="2">  1       -2 0.78598624E-01 0.97794777E+03</pdfrwt>
<totfact> 0.38289036E+00</totfact>
</mgrwt>
</event>
<event>
 4    1  0.2051094E-007  0.1126429E+04  0.7818608E-02  0.9232186E-01
         -2   -1    0    0    0  501 -0.00000000000E+00  0.00000000000E+00  0.13624561383E+04  0.13624561383E+04  0.25500000000E-02 0.  1.
          2   -1    0    0  501    0  0.00000000000E+00 -0.00000000000E+00 -0.14327522739E+04  0.14327522739E+04  0.25500000000E-02 0. -1.
    8880023    1    1    2    0    0 -0.82299128040E+03 -0.39713535564E+03 -0.98271686663E+03  0.14948490842E+04  0.65864270000E+03 0.  0.
    8880022    1    1    2    0    0  0.82299128040E+03  0.39713535564E+03  0.91242073109E+03  0.13003593280E+04  0.15294330000E+03 0.  0.
<mgrwt>
<rscale>  0 0.10727299E+04</rscale>
<asrwt>0</asrwt>
<pdfrwt beam="1">  1        2 0.22042343E+00 0.11264286E+04</pdfrwt>
<pdfrwt beam="2">  1       -2 0.20960864E+00 0.11264286E+04</pdfrwt>
<totfact> 0.15617637E+00</totfact>
</mgrwt>
</event>
<event>
 4    1  0.2051094E-007  0.8529799E+03  0.7818608E-02  0.9606175E-01
         -2   -1    0    0    0  501 -0.00000000000E+00  0.00000000000E+00  0.78752644234E+03  0.78752644234E+03  0.25500000000E-02 0.  1.
          2   -1    0    0  501    0  0.00000000000E+00 -0.00000000000E+00 -0.75956001973E+03  0.75956001973E+03  0.25500000000E-02 0. -1.
    8880023    1    1    2    0    0 -0.51782672377E+03  0.16006236093E+03 -0.28929534839E+03  0.90070332524E+03  0.65864270000E+03 0. -1.
    8880022    1    1    2    0    0  0.51782672377E+03 -0.16006236093E+03  0.31726177099E+03  0.64638313683E+03  0.15294330000E+03 0.  0.
<mgrwt>
<rscale>  0 0.76888826E+03</rscale>
<asrwt>0</asrwt>
<pdfrwt beam="1">  1        2 0.11685539E+00 0.85297988E+03</pdfrwt>
<pdfrwt beam="2">  1       -2 0.12115791E+00 0.85297988E+03</pdfrwt>
<totfact> 0.19217725E+01</totfact>
</mgrwt>
</event>
<event>
 4    1  0.2051094E-007  0.7435356E+03  0.7818608E-02  0.9849765E-01
          2   -1    0    0  501    0  0.00000000000E+00  0.00000000000E+00  0.13688548473E+04  0.13688548473E+04  0.25500000000E-02 0. -1.
         -2   -1    0    0    0  501 -0.00000000000E+00 -0.00000000000E+00 -0.76790034549E+03  0.76790034550E+03  0.25500000000E-02 0.  1.
    8880023    1    1    2    0    0  0.23824825815E+03 -0.24954509874E+03  0.12100409203E+04  0.14202268213E+04  0.65864270000E+03 0.  0.
    8880022    1    1    2    0    0 -0.23824825815E+03  0.24954509874E+03 -0.60908641856E+03  0.71652837146E+03  0.15294330000E+03 0.  1.
<mgrwt>
<rscale>  0 0.62758887E+03</rscale>
<asrwt>0</asrwt>
<pdfrwt beam="1">  1        2 0.21059305E+00 0.74353560E+03</pdfrwt>
<pdfrwt beam="2">  1       -2 0.11813852E+00 0.74353560E+03</pdfrwt>
<totfact> 0.85189809E+00</totfact>
</mgrwt>
</event>
<event>
 4    1  0.2051094E-007  0.8892346E+03  0.7818608E-02  0.9543539E-01
          2   -1    0    0  501    0  0.00000000000E+00  0.00000000000E+00  0.23641469004E+04  0.23641469004E+04  0.25500000000E-02 0. -1.
         -2   -1    0    0    0  501 -0.00000000000E+00 -0.00000000000E+00 -0.53363857828E+03  0.53363857829E+03  0.25500000000E-02 0.  1.
    8880023    1    1    2    0    0 -0.52134195798E+03  0.29177147370E+03  0.20568652473E+04  0.22408553906E+04  0.65864270000E+03 0. -1.
    8880022    1    1    2    0    0  0.52134195798E+03 -0.29177147370E+03 -0.22635692516E+03  0.65693008806E+03  0.15294330000E+03 0.  0.
<mgrwt>
<rscale>  0 0.81148571E+03</rscale>
<asrwt>0</asrwt>
<pdfrwt beam="1">  1        2 0.36371491E+00 0.88923464E+03</pdfrwt>
<pdfrwt beam="2">  1       -2 0.82098243E-01 0.88923464E+03</pdfrwt>
<totfact> 0.55584284E+00</totfact>
</mgrwt>
</event>
<event>
 4    1  0.2051094E-007  0.8698074E+03  0.7818608E-02  0.9576351E-01
         -2   -1    0    0    0  501 -0.00000000000E+00  0.00000000000E+00  0.37996087162E+03  0.37996087163E+03  0.25500000000E-02 0.  1.
          2   -1    0    0  501    0  0.00000000000E+00 -0.00000000000E+00 -0.27512812153E+04  0.27512812153E+04  0.25500000000E-02 0. -1.
    8880023    1    1    2    0    0  0.56181077483E+03 -0.84399601524E+02 -0.23892239444E+04  0.25426277553E+04  0.65864270000E+03 0. -1.
    8880022    1    1    2    0    0 -0.56181077483E+03  0.84399601524E+02  0.17903600686E+02  0.58861433162E+03  0.15294330000E+03 0.  0.
<mgrwt>
<rscale>  0 0.78881429E+03</rscale>
<asrwt>0</asrwt>
<pdfrwt beam="1">  1        2 0.42327402E+00 0.86980736E+03</pdfrwt>
<pdfrwt beam="2">  1       -2 0.58455521E-01 0.86980736E+03</pdfrwt>
<totfact> 0.70149371E+00</totfact>
</mgrwt>
</event>
<event>
 4    1  0.2051094E-007  0.1124147E+04  0.7818608E-02  0.9234636E-01
         -2   -1    0    0    0  501 -0.00000000000E+00  0.00000000000E+00  0.63105161025E+03  0.63105161026E+03  0.25500000000E-02 0.  1.
          2   -1    0    0  501    0  0.00000000000E+00 -0.00000000000E+00 -0.19454714049E+04  0.19454714049E+04  0.25500000000E-02 0. -1.
    8880023    1    1    2    0    0  0.90659390289E+03  0.89351297053E+02 -0.12023547061E+04  0.16460143391E+04  0.65864270000E+03 0.  0.
    8880022    1    1    2    0    0 -0.90659390289E+03 -0.89351297053E+02 -0.11206508852E+03  0.93050867601E+03  0.15294330000E+03 0.  0.
<mgrwt>
<rscale>  0 0.10702969E+04</rscale>
<asrwt>0</asrwt>
<pdfrwt beam="1">  1        2 0.29930329E+00 0.11241470E+04</pdfrwt>
<pdfrwt beam="2">  1       -2 0.97084864E-01 0.11241470E+04</pdfrwt>
<totfact> 0.62601304E+00</totfact>
</mgrwt>
</event>
<event>
 4    1  0.2051094E-007  0.9016310E+03  0.7818608E-02  0.9523418E-01
         -2   -1    0    0    0  501 -0.00000000000E+00  0.00000000000E+00  0.92644329366E+03  0.92644329366E+03  0.25500000000E-02 0.  1.
          2   -1    0    0  501    0  0.00000000000E+00 -0.00000000000E+00 -0.18648066053E+04  0.18648066053E+04  0.25500000000E-02 0. -1.
    8880023    1    1    2    0    0 -0.51434003578E+03 -0.33850054756E+03 -0.16237560233E+04  0.18572889173E+04  0.65864270000E+03 0.  0.
    8880022    1    1    2    0    0  0.51434003578E+03  0.33850054756E+03  0.68539271160E+03  0.93396098165E+03  0.15294330000E+03 0.  0.
<mgrwt>
<rscale>  0 0.82579084E+03</rscale>
<asrwt>0</asrwt>
<pdfrwt beam="1">  1        2 0.28689332E+00 0.90163102E+03</pdfrwt>
<pdfrwt beam="2">  1       -2 0.14252974E+00 0.90163102E+03</pdfrwt>
<totfact> 0.27488558E+00</totfact>
</mgrwt>
</event>
<event>
 4    1  0.2051094E-007  0.8112068E+03  0.7818608E-02  0.9687069E-01
         -2   -1    0    0    0  501 -0.00000000000E+00  0.00000000000E+00  0.12973921657E+03  0.12973921659E+03  0.25500000000E-02 0.  1.
          2   -1    0    0  501    0  0.00000000000E+00 -0.00000000000E+00 -0.34284710949E+04  0.34284710949E+04  0.25500000000E-02 0. -1.
    8880023    1    1    2    0    0 -0.29169187128E+03 -0.37304438304E+03 -0.23633069867E+04  0.24986549139E+04  0.65864270000E+03 0.  0.
    8880022    1    1    2    0    0  0.29169187128E+03  0.37304438304E+03 -0.93542489163E+03  0.10595553975E+04  0.15294330000E+03 0.  0.
<mgrwt>
<rscale>  0 0.71791963E+03</rscale>
<asrwt>0</asrwt>
<pdfrwt beam="1">  1        2 0.52745702E+00 0.81120680E+03</pdfrwt>
<pdfrwt beam="2">  1       -2 0.19959882E-01 0.81120680E+03</pdfrwt>
<totfact> 0.20748592E+01</totfact>
</mgrwt>
</event>
<event>
 4    1  0.2051094E-007  0.1238930E+04  0.7818608E-02  0.9120178E-01
         -2   -1    0    0    0  501 -0.00000000000E+00  0.00000000000E+00  0.48434130141E+03  0.48434130142E+03  0.25500000000E-02 0.  1.
          2   -1    0    0  501    0  0.00000000000E+00 -0.00000000000E+00 -0.32663882461E+04  0.32663882461E+04  0.25500000000E-02 0. -1.
    8880023    1    1    2    0    0 -0.10428279356E+04 -0.11682172068E+03 -0.22399824502E+04  0.25597790923E+04  0.65864270000E+03 0.  0.
    8880022    1    1    2    0    0  0.10428279356E+04  0.11682172068E+03 -0.54206449447E+03  0.11909504552E+04  0.15294330000E+03 0.  0.
<mgrwt>
<rscale>  0 0.11916711E+04</rscale>
<asrwt>0</asrwt>
<pdfrwt beam="1">  1        2 0.50252125E+00 0.12389300E+04</pdfrwt>
<pdfrwt beam="2">  1       -2 0.74514048E-01 0.12389300E+04</pdfrwt>
<totfact> 0.18887818E+00</totfact>
</mgrwt>
</event>
<event>
 4    1  0.2051094E-007  0.7794362E+03  0.7818608E-02  0.9757163E-01
          2   -1    0    0  501    0  0.00000000000E+00  0.00000000000E+00  0.65922412315E+03  0.65922412316E+03  0.25500000000E-02 0. -1.
         -2   -1    0    0    0  501 -0.00000000000E+00 -0.00000000000E+00 -0.86270956414E+03  0.86270956414E+03  0.25500000000E-02 0.  1.
    8880023    1    1    2    0    0  0.26185426334E+02  0.41596257657E+03  0.31381920828E+03  0.84023999155E+03  0.65864270000E+03 0.  0.
    8880022    1    1    2    0    0 -0.26185426334E+02 -0.41596257657E+03 -0.51730464926E+03  0.68169369575E+03  0.15294330000E+03 0.  0.
<mgrwt>
<rscale>  0 0.67712968E+03</rscale>
<asrwt>0</asrwt>
<pdfrwt beam="1">  1        2 0.10141910E+00 0.77943617E+03</pdfrwt>
<pdfrwt beam="2">  1       -2 0.13272455E+00 0.77943617E+03</pdfrwt>
<totfact> 0.18406386E+01</totfact>
</mgrwt>
</event>
<event>
 4    1  0.2051094E-007  0.1171184E+04  0.7818608E-02  0.9185655E-01
          2   -1    0    0  501    0  0.00000000000E+00  0.00000000000E+00  0.21171682786E+04  0.21171682786E+04  0.25500000000E-02 0. -1.
         -2   -1    0    0    0  501 -0.00000000000E+00 -0.00000000000E+00 -0.91695659357E+03  0.91695659357E+03  0.25500000000E-02 0.  1.
    8880023    1    1    2    0    0  0.25392381399E+03 -0.93455076604E+03  0.15936237305E+04  0.19777030207E+04  0.65864270000E+03 0. -1.
    8880022    1    1    2    0    0 -0.25392381399E+03  0.93455076604E+03 -0.39341204547E+03  0.10564218514E+04  0.15294330000E+03 0.  0.
<mgrwt>
<rscale>  0 0.11202726E+04</rscale>
<asrwt>0</asrwt>
<pdfrwt beam="1">  1        2 0.32571819E+00 0.11711843E+04</pdfrwt>
<pdfrwt beam="2">  1       -2 0.14107025E+00 0.11711843E+04</pdfrwt>
<totfact> 0.19794223E+00</totfact>
</mgrwt>
</event>
<event>
 4    1  0.2051094E-007  0.1004591E+04  0.7818608E-02  0.9375576E-01
          2   -1    0    0  501    0  0.00000000000E+00  0.00000000000E+00  0.22086992957E+04  0.22086992957E+04  0.25500000000E-02 0. -1.
         -2   -1    0    0    0  501 -0.00000000000E+00 -0.00000000000E+00 -0.50959982814E+03  0.50959982814E+03  0.25500000000E-02 0.  1.
    8880023    1    1    2    0    0  0.30640529461E+03 -0.69390825603E+03  0.16639488384E+04  0.19436894854E+04  0.65864270000E+03 0.  0.
    8880022    1    1    2    0    0 -0.30640529461E+03  0.69390825603E+03  0.35150629175E+02  0.77460963852E+03  0.15294330000E+03 0.  0.
<mgrwt>
<rscale>  0 0.94113253E+03</rscale>
<asrwt>0</asrwt>
<pdfrwt beam="1">  1        2 0.33979990E+00 0.10045910E+04</pdfrwt>
<pdfrwt beam="2">  1       -2 0.78399971E-01 0.10045910E+04</pdfrwt>
<totfact> 0.74206460E+00</totfact>
</mgrwt>
</event>
<event>
 4    1  0.2051094E-007  0.8554962E+03  0.7818608E-02  0.9601626E-01
          2   -1    0    0  501    0  0.00000000000E+00  0.00000000000E+00  0.13716508778E+04  0.13716508778E+04  0.25500000000E-02 0. -1.
         -2   -1    0    0    0  501 -0.00000000000E+00 -0.00000000000E+00 -0.93505798543E+03  0.93505798544E+03  0.25500000000E-02 0.  1.
    8880023    1    1    2    0    0 -0.29988946277E+03  0.45621256523E+03  0.11259887029E+04  0.14141161055E+04  0.65864270000E+03 0. -1.
    8880022    1    1    2    0    0  0.29988946277E+03 -0.45621256523E+03 -0.68939581053E+03  0.89259275773E+03  0.15294330000E+03 0.  0.
<mgrwt>
<rscale>  0 0.77188685E+03</rscale>
<asrwt>0</asrwt>
<pdfrwt beam="1">  1        2 0.21102321E+00 0.85549623E+03</pdfrwt>
<pdfrwt beam="2">  1       -2 0.14385508E+00 0.85549623E+03</pdfrwt>
<totfact> 0.50721701E+00</totfact>
</mgrwt>
</event>
<event>
 4    1  0.2051094E-007  0.8448810E+03  0.7818608E-02  0.9621044E-01
         -2   -1    0    0    0  501 -0.00000000000E+00  0.00000000000E+00  0.32404983113E+03  0.32404983114E+03  0.25500000000E-02 0.  1.
          2   -1    0    0  501    0  0.00000000000E+00 -0.00000000000E+00 -0.19080282862E+04  0.19080282862E+04  0.25500000000E-02 0. -1.
    8880023    1    1    2    0    0  0.63590105985E+01  0.52912503181E+03 -0.14286418473E+04  0.16597715116E+04  0.65864270000E+03 0.  1.
    8880022    1    1    2    0    0 -0.63590105985E+01 -0.52912503181E+03 -0.15533660770E+03  0.57230660577E+03  0.15294330000E+03 0. -1.
<mgrwt>
<rscale>  0 0.75918842E+03</rscale>
<asrwt>0</asrwt>
<pdfrwt beam="1">  1        2 0.29354281E+00 0.84488102E+03</pdfrwt>
<pdfrwt beam="2">  1       -2 0.49853821E-01 0.84488102E+03</pdfrwt>
<totfact> 0.29158573E+01</totfact>
</mgrwt>
</event>
<event>
 4    1  0.2051094E-007  0.6818599E+03  0.7818608E-02  0.1008291E+00
          2   -1    0    0  501    0  0.00000000000E+00  0.00000000000E+00  0.10333569514E+04  0.10333569514E+04  0.25500000000E-02 0. -1.
         -2   -1    0    0    0  501 -0.00000000000E+00 -0.00000000000E+00 -0.44726288763E+03  0.44726288764E+03  0.25500000000E-02 0.  1.
    8880023    1    1    2    0    0  0.17594476855E+03  0.12891899898E+02  0.87490849022E+03  0.11092329941E+04  0.65864270000E+03 0. -1.
    8880022    1    1    2    0    0 -0.17594476855E+03 -0.12891899898E+02 -0.28881442645E+03  0.37138684495E+03  0.15294330000E+03 0.  0.
<mgrwt>
<rscale>  0 0.52159726E+03</rscale>
<asrwt>0</asrwt>
<pdfrwt beam="1">  1        2 0.15897799E+00 0.68185993E+03</pdfrwt>
<pdfrwt beam="2">  1       -2 0.68809676E-01 0.68185993E+03</pdfrwt>
<totfact> 0.47319952E+01</totfact>
</mgrwt>
</event>
<event>
 4    1  0.2051094E-007  0.1465204E+04  0.7818608E-02  0.8934605E-01
         -2   -1    0    0    0  501 -0.00000000000E+00  0.00000000000E+00  0.13071305844E+04  0.13071305844E+04  0.25500000000E-02 0.  1.
          2   -1    0    0  501    0  0.00000000000E+00 -0.00000000000E+00 -0.19377468175E+04  0.19377468175E+04  0.25500000000E-02 0. -1.
    8880023    1    1    2    0    0 -0.10654138381E+04 -0.76020195810E+03 -0.11147201965E+04  0.18410391050E+04  0.65864270000E+03 0. -1.
    8880022    1    1    2    0    0  0.10654138381E+04  0.76020195810E+03  0.48410396331E+03  0.14038382969E+04  0.15294330000E+03 0.  0.
<mgrwt>
<rscale>  0 0.14268557E+04</rscale>
<asrwt>0</asrwt>
<pdfrwt beam="1">  1        2 0.29811489E+00 0.14652044E+04</pdfrwt>
<pdfrwt beam="2">  1       -2 0.20109701E+00 0.14652044E+04</pdfrwt>
<totfact> 0.89234659E-01</totfact>
</mgrwt>
</event>
<event>
 4    1  0.2051094E-007  0.6741888E+03  0.7818608E-02  0.1012823E+00
          2   -1    0    0  501    0  0.00000000000E+00  0.00000000000E+00  0.22059630606E+04  0.22059630606E+04  0.25500000000E-02 0. -1.
         -2   -1    0    0    0  501 -0.00000000000E+00 -0.00000000000E+00 -0.11026966934E+03  0.11026966937E+03  0.25500000000E-02 0.  1.
    8880023    1    1    2    0    0  0.14314346290E+03  0.15174251357E+02  0.19427823072E+04  0.20564371151E+04  0.65864270000E+03 0. -1.
    8880022    1    1    2    0    0 -0.14314346290E+03 -0.15174251357E+02  0.15291108407E+03  0.25979561490E+03  0.15294330000E+03 0.  0.
<mgrwt>
<rscale>  0 0.50368114E+03</rscale>
<asrwt>0</asrwt>
<pdfrwt beam="1">  1        2 0.33937892E+00 0.67418878E+03</pdfrwt>
<pdfrwt beam="2">  1       -2 0.16964565E-01 0.67418878E+03</pdfrwt>
<totfact> 0.15104166E+02</totfact>
</mgrwt>
</event>
<event>
 4    1  0.2051094E-007  0.8519659E+03  0.7818608E-02  0.9608017E-01
          2   -1    0    0  501    0  0.00000000000E+00  0.00000000000E+00  0.46683630070E+03  0.46683630071E+03  0.25500000000E-02 0. -1.
         -2   -1    0    0    0  501 -0.00000000000E+00 -0.00000000000E+00 -0.15370458972E+04  0.15370458972E+04  0.25500000000E-02 0.  1.
    8880023    1    1    2    0    0 -0.35819027082E+03  0.40464239328E+03 -0.67547390328E+02  0.85463945190E+03  0.65864270000E+03 0.  0.
    8880022    1    1    2    0    0  0.35819027082E+03 -0.40464239328E+03 -0.10026622062E+04  0.11492427460E+04  0.15294330000E+03 0.  0.
<mgrwt>
<rscale>  0 0.76767800E+03</rscale>
<asrwt>0</asrwt>
<pdfrwt beam="1">  1        2 0.71820970E-01 0.85196593E+03</pdfrwt>
<pdfrwt beam="2">  1       -2 0.23646860E+00 0.85196593E+03</pdfrwt>
<totfact> 0.52663545E+00</totfact>
</mgrwt>
</event>
<event>
 4    1  0.2051094E-007  0.1367231E+04  0.7818608E-02  0.9009573E-01
         -2   -1    0    0    0  501 -0.00000000000E+00  0.00000000000E+00  0.14095159217E+04  0.14095159217E+04  0.25500000000E-02 0.  1.
          2   -1    0    0  501    0  0.00000000000E+00 -0.00000000000E+00 -0.19065642063E+04  0.19065642063E+04  0.25500000000E-02 0. -1.
    8880023    1    1    2    0    0  0.11540782027E+04  0.32188980586E+03  0.76704645850E+03  0.15676989573E+04  0.65864270000E+03 0.  0.
    8880022    1    1    2    0    0 -0.11540782027E+04 -0.32188980586E+03 -0.12640947431E+04  0.17483811706E+04  0.15294330000E+03 0.  0.
<mgrwt>
<rscale>  0 0.13255148E+04</rscale>
<asrwt>0</asrwt>
<pdfrwt beam="1">  1        2 0.29331757E+00 0.13672307E+04</pdfrwt>
<pdfrwt beam="2">  1       -2 0.21684860E+00 0.13672307E+04</pdfrwt>
<totfact> 0.74195845E-01</totfact>
</mgrwt>
</event>
<event>
 4    1  0.2051094E-007  0.1575964E+04  0.7818608E-02  0.8857778E-01
         -2   -1    0    0    0  501 -0.00000000000E+00  0.00000000000E+00  0.17352488995E+04  0.17352488995E+04  0.25500000000E-02 0.  1.
          2   -1    0    0  501    0  0.00000000000E+00 -0.00000000000E+00 -0.21055936534E+04  0.21055936534E+04  0.25500000000E-02 0. -1.
    8880023    1    1    2    0    0  0.13687042854E+04  0.42011853369E+03 -0.13698180400E+04  0.20880763090E+04  0.65864270000E+03 0.  0.
    8880022    1    1    2    0    0 -0.13687042854E+04 -0.42011853369E+03  0.99947328608E+03  0.17527662440E+04  0.15294330000E+03 0.  0.
<mgrwt>
<rscale>  0 0.15407809E+04</rscale>
<asrwt>0</asrwt>
<pdfrwt beam="1">  1        2 0.32393749E+00 0.15759636E+04</pdfrwt>
<pdfrwt beam="2">  1       -2 0.26696137E+00 0.15759636E+04</pdfrwt>
<totfact> 0.27423758E-01</totfact>
</mgrwt>
</event>
<event>
 4    1  0.2051094E-007  0.1502197E+04  0.7818608E-02  0.8908086E-01
          2   -1    0    0  501    0  0.00000000000E+00  0.00000000000E+00  0.43135582558E+04  0.43135582558E+04  0.25500000000E-02 0. -1.
         -2   -1    0    0    0  501 -0.00000000000E+00 -0.00000000000E+00 -0.11766849180E+04  0.11766849180E+04  0.25500000000E-02 0.  1.
    8880023    1    1    2    0    0  0.80904573852E+03 -0.10808475492E+04  0.37198492467E+04  0.40117172204E+04  0.65864270000E+03 0. -1.
    8880022    1    1    2    0    0 -0.80904573852E+03  0.10808475492E+04 -0.58297590900E+03  0.14785259534E+04  0.15294330000E+03 0.  0.
<mgrwt>
<rscale>  0 0.14649723E+04</rscale>
<asrwt>0</asrwt>
<pdfrwt beam="1">  1        2 0.66362436E+00 0.15021973E+04</pdfrwt>
<pdfrwt beam="2">  1       -2 0.18102844E+00 0.15021973E+04</pdfrwt>
<totfact> 0.31682376E-02</totfact>
</mgrwt>
</event>
<event>
 4    1  0.2051094E-007  0.8410609E+03  0.7818608E-02  0.9628183E-01
          2   -1    0    0  501    0  0.00000000000E+00  0.00000000000E+00  0.13068478589E+04  0.13068478589E+04  0.25500000000E-02 0. -1.
         -2   -1    0    0    0  501 -0.00000000000E+00 -0.00000000000E+00 -0.61586090355E+03  0.61586090355E+03  0.25500000000E-02 0.  1.
    8880023    1    1    2    0    0 -0.47595076472E+03 -0.21689656286E+03  0.99167732990E+03  0.13003104946E+04  0.65864270000E+03 0. -1.
    8880022    1    1    2    0    0  0.47595076472E+03  0.21689656286E+03 -0.30069037459E+03  0.62239826783E+03  0.15294330000E+03 0.  0.
<mgrwt>
<rscale>  0 0.75458597E+03</rscale>
<asrwt>0</asrwt>
<pdfrwt beam="1">  1        2 0.20105351E+00 0.84106091E+03</pdfrwt>
<pdfrwt beam="2">  1       -2 0.94747833E-01 0.84106091E+03</pdfrwt>
<totfact> 0.15522062E+01</totfact>
</mgrwt>
</event>
<event>
 4    1  0.2051094E-007  0.6621726E+03  0.7818608E-02  0.1022033E+00
         -2   -1    0    0    0  501 -0.00000000000E+00  0.00000000000E+00  0.47055518900E+03  0.47055518901E+03  0.25500000000E-02 0.  1.
          2   -1    0    0  501    0  0.00000000000E+00 -0.00000000000E+00 -0.72968201167E+03  0.72968201167E+03  0.25500000000E-02 0. -1.
    8880023    1    1    2    0    0  0.53554529650E+02 -0.42358219414E+02 -0.55251387872E+03  0.86240599420E+03  0.65864270000E+03 0. -1.
    8880022    1    1    2    0    0 -0.53554529650E+02  0.42358219414E+02  0.29338705605E+03  0.33783120648E+03  0.15294330000E+03 0.  0.
<mgrwt>
<rscale>  0 0.46959954E+03</rscale>
<asrwt>0</asrwt>
<pdfrwt beam="1">  1        2 0.11225877E+00 0.66217257E+03</pdfrwt>
<pdfrwt beam="2">  1       -2 0.72393106E-01 0.66217257E+03</pdfrwt>
<totfact> 0.68396077E+01</totfact>
</mgrwt>
</event>
<event>
 4    1  0.2051094E-007  0.7431896E+03  0.7818608E-02  0.9850751E-01
          2   -1    0    0  501    0  0.00000000000E+00  0.00000000000E+00  0.14208656253E+04  0.14208656253E+04  0.25500000000E-02 0. -1.
         -2   -1    0    0    0  501 -0.00000000000E+00 -0.00000000000E+00 -0.10095701788E+04  0.10095701788E+04  0.25500000000E-02 0.  1.
    8880023    1    1    2    0    0  0.19362369302E+02  0.34372331909E+03  0.12819385340E+04  0.14817885249E+04  0.65864270000E+03 0. -1.
    8880022    1    1    2    0    0 -0.19362369302E+02 -0.34372331909E+03 -0.87064308752E+03  0.94864727918E+03  0.15294330000E+03 0.  0.
<mgrwt>
<rscale>  0 0.62708618E+03</rscale>
<asrwt>0</asrwt>
<pdfrwt beam="1">  1        2 0.21859471E+00 0.74318963E+03</pdfrwt>
<pdfrwt beam="2">  1       -2 0.15531849E+00 0.74318963E+03</pdfrwt>
<totfact> 0.39456498E+00</totfact>
</mgrwt>
</event>
<event>
 4    1  0.2051094E-007  0.1125121E+04  0.7818608E-02  0.9233590E-01
         -2   -1    0    0    0  501 -0.00000000000E+00  0.00000000000E+00  0.90803487247E+03  0.90803487247E+03  0.25500000000E-02 0.  1.
          2   -1    0    0  501    0  0.00000000000E+00 -0.00000000000E+00 -0.16629838527E+04  0.16629838527E+04  0.25500000000E-02 0. -1.
    8880023    1    1    2    0    0  0.70089586195E+03  0.58380763889E+03 -0.11097991010E+04  0.15803640781E+04  0.65864270000E+03 0. -1.
    8880022    1    1    2    0    0 -0.70089586195E+03 -0.58380763889E+03  0.35485012077E+03  0.99065464707E+03  0.15294330000E+03 0.  0.
<mgrwt>
<rscale>  0 0.10713354E+04</rscale>
<asrwt>0</asrwt>
<pdfrwt beam="1">  1        2 0.25584367E+00 0.11251207E+04</pdfrwt>
<pdfrwt beam="2">  1       -2 0.13969767E+00 0.11251207E+04</pdfrwt>
<totfact> 0.36417099E+00</totfact>
</mgrwt>
</event>
<event>
 4    1  0.2051094E-007  0.8104446E+03  0.7818608E-02  0.9688651E-01
          2   -1    0    0  501    0  0.00000000000E+00  0.00000000000E+00  0.82379899823E+03  0.82379899824E+03  0.25500000000E-02 0. -1.
         -2   -1    0    0    0  501 -0.00000000000E+00 -0.00000000000E+00 -0.54122041141E+03  0.54122041142E+03  0.25500000000E-02 0.  1.
    8880023    1    1    2    0    0 -0.28897728445E+03 -0.37350026577E+03  0.37211750783E+02  0.81129849015E+03  0.65864270000E+03 0.  0.
    8880022    1    1    2    0    0  0.28897728445E+03  0.37350026577E+03  0.24536683604E+03  0.55372091951E+03  0.15294330000E+03 0.  0.
<mgrwt>
<rscale>  0 0.71696514E+03</rscale>
<asrwt>0</asrwt>
<pdfrwt beam="1">  1        2 0.12673831E+00 0.81044465E+03</pdfrwt>
<pdfrwt beam="2">  1       -2 0.83264679E-01 0.81044465E+03</pdfrwt>
<totfact> 0.42202993E+01</totfact>
</mgrwt>
</event>
<event>
 4    1  0.2051094E-007  0.6971838E+03  0.7818608E-02  0.1000909E+00
          2   -1    0    0  501    0  0.00000000000E+00  0.00000000000E+00  0.87357014558E+03  0.87357014558E+03  0.25500000000E-02 0. -1.
         -2   -1    0    0    0  501 -0.00000000000E+00 -0.00000000000E+00 -0.52157439145E+03  0.52157439146E+03  0.25500000000E-02 0.  1.
    8880023    1    1    2    0    0 -0.22536706889E+03  0.38272149706E+02  0.67534213712E+03  0.97064529135E+03  0.65864270000E+03 0. -1.
    8880022    1    1    2    0    0  0.22536706889E+03 -0.38272149706E+02 -0.32334638300E+03  0.42449924569E+03  0.15294330000E+03 0.  0.
<mgrwt>
<rscale>  0 0.55253430E+03</rscale>
<asrwt>0</asrwt>
<pdfrwt beam="1">  1        2 0.13439541E+00 0.69718382E+03</pdfrwt>
<pdfrwt beam="2">  1       -2 0.80242215E-01 0.69718382E+03</pdfrwt>
<totfact> 0.42770834E+01</totfact>
</mgrwt>
</event>
<event>
 4    1  0.2051094E-007  0.6808584E+03  0.7818608E-02  0.1008842E+00
         -2   -1    0    0    0  501 -0.00000000000E+00  0.00000000000E+00  0.91566343512E+03  0.91566343513E+03  0.25500000000E-02 0.  1.
          2   -1    0    0  501    0  0.00000000000E+00 -0.00000000000E+00 -0.50871288684E+03  0.50871288685E+03  0.25500000000E-02 0. -1.
    8880023    1    1    2    0    0 -0.58550830428E+02  0.16226427883E+03 -0.25220401901E+03  0.72606815754E+03  0.65864270000E+03 0. -1.
    8880022    1    1    2    0    0  0.58550830428E+02 -0.16226427883E+03  0.65915456729E+03  0.69830816444E+03  0.15294330000E+03 0.  0.
<mgrwt>
<rscale>  0 0.51937379E+03</rscale>
<asrwt>0</asrwt>
<pdfrwt beam="1">  1        2 0.78263521E-01 0.68085836E+03</pdfrwt>
<pdfrwt beam="2">  1       -2 0.14087130E+00 0.68085836E+03</pdfrwt>
<totfact> 0.21742535E+01</totfact>
</mgrwt>
</event>
<event>
 4    1  0.2051094E-007  0.8107419E+03  0.7818608E-02  0.9688034E-01
          2   -1    0    0  501    0  0.00000000000E+00  0.00000000000E+00  0.38586366004E+04  0.38586366004E+04  0.25500000000E-02 0. -1.
         -2   -1    0    0    0  501 -0.00000000000E+00 -0.00000000000E+00 -0.61682742448E+03  0.61682742449E+03  0.25500000000E-02 0.  1.
    8880023    1    1    2    0    0  0.34892454281E+03 -0.31897307639E+03  0.37071151892E+04  0.37947339027E+04  0.65864270000E+03 0. -1.
    8880022    1    1    2    0    0 -0.34892454281E+03  0.31897307639E+03 -0.46530601337E+03  0.68073012210E+03  0.15294330000E+03 0.  0.
<mgrwt>
<rscale>  0 0.71733748E+03</rscale>
<asrwt>0</asrwt>
<pdfrwt beam="1">  1        2 0.59363639E+00 0.81074186E+03</pdfrwt>
<pdfrwt beam="2">  1       -2 0.94896529E-01 0.81074186E+03</pdfrwt>
<totfact> 0.45082007E-01</totfact>
</mgrwt>
</event>
<event>
 4    1  0.2051094E-007  0.1481446E+04  0.7818608E-02  0.8922849E-01
          2   -1    0    0  501    0  0.00000000000E+00  0.00000000000E+00  0.34344872314E+04  0.34344872314E+04  0.25500000000E-02 0. -1.
         -2   -1    0    0    0  501 -0.00000000000E+00 -0.00000000000E+00 -0.10320042712E+04  0.10320042712E+04  0.25500000000E-02 0.  1.
    8880023    1    1    2    0    0 -0.10551185825E+04 -0.80473482635E+03  0.27166053955E+04  0.30942896511E+04  0.65864270000E+03 0.  0.
    8880022    1    1    2    0    0  0.10551185825E+04  0.80473482635E+03 -0.31412243530E+03  0.13722018515E+04  0.15294330000E+03 0.  0.
<mgrwt>
<rscale>  0 0.14436000E+04</rscale>
<asrwt>0</asrwt>
<pdfrwt beam="1">  1        2 0.52838265E+00 0.14814464E+04</pdfrwt>
<pdfrwt beam="2">  1       -2 0.15876989E+00 0.14814464E+04</pdfrwt>
<totfact> 0.22141194E-01</totfact>
</mgrwt>
</event>
<event>
 4    1  0.2051094E-007  0.7035730E+03  0.7818608E-02  0.9982690E-01
          2   -1    0    0  501    0  0.00000000000E+00  0.00000000000E+00  0.12043706804E+04  0.12043706804E+04  0.25500000000E-02 0. -1.
         -2   -1    0    0    0  501 -0.00000000000E+00 -0.00000000000E+00 -0.15700944680E+04  0.15700944681E+04  0.25500000000E-02 0.  1.
    8880023    1    1    2    0    0  0.24229170772E+01  0.24738403731E+03  0.10859456962E+04  0.12939447414E+04  0.65864270000E+03 0.  0.
    8880022    1    1    2    0    0 -0.24229170772E+01 -0.24738403731E+03 -0.14516694838E+04  0.14805204071E+04  0.15294330000E+03 0.  0.
<mgrwt>
<rscale>  0 0.56415812E+03</rscale>
<asrwt>0</asrwt>
<pdfrwt beam="1">  1        2 0.18528780E+00 0.70357298E+03</pdfrwt>
<pdfrwt beam="2">  1       -2 0.24155299E+00 0.70357298E+03</pdfrwt>
<totfact> 0.14242137E+00</totfact>
</mgrwt>
</event>
<event>
 4    1  0.2051094E-007  0.6809273E+03  0.7818608E-02  0.1008804E+00
         -2   -1    0    0    0  501 -0.00000000000E+00  0.00000000000E+00  0.22658284284E+03  0.22658284286E+03  0.25500000000E-02 0.  1.
          2   -1    0    0  501    0  0.00000000000E+00 -0.00000000000E+00 -0.10537442524E+04  0.10537442525E+04  0.25500000000E-02 0. -1.
    8880023    1    1    2    0    0  0.70620009215E+02 -0.15768501162E+03 -0.79596293911E+03  0.10474821981E+04  0.65864270000E+03 0. -1.
    8880022    1    1    2    0    0 -0.70620009215E+02  0.15768501162E+03 -0.31198470495E+02  0.23284489723E+03  0.15294330000E+03 0.  0.
<mgrwt>
<rscale>  0 0.51952778E+03</rscale>
<asrwt>0</asrwt>
<pdfrwt beam="1">  1        2 0.16211450E+00 0.68092728E+03</pdfrwt>
<pdfrwt beam="2">  1       -2 0.34858900E-01 0.68092728E+03</pdfrwt>
<totfact> 0.18251923E+02</totfact>
</mgrwt>
</event>
<event>
 4    1  0.2051094E-007  0.7633148E+03  0.7818608E-02  0.9796600E-01
          2   -1    0    0  501    0  0.00000000000E+00  0.00000000000E+00  0.74315730291E+03  0.74315730292E+03  0.25500000000E-02 0. -1.
         -2   -1    0    0    0  501 -0.00000000000E+00 -0.00000000000E+00 -0.11070552281E+04  0.11070552281E+04  0.25500000000E-02 0.  1.
    8880023    1    1    2    0    0 -0.38165058014E+03  0.56409627269E+02  0.48565261812E+03  0.90471425496E+03  0.65864270000E+03 0.  0.
    8880022    1    1    2    0    0  0.38165058014E+03 -0.56409627269E+02 -0.84955054327E+03  0.94549827602E+03  0.15294330000E+03 0.  0.
<mgrwt>
<rscale>  0 0.65545309E+03</rscale>
<asrwt>0</asrwt>
<pdfrwt beam="1">  1        2 0.11433189E+00 0.76331476E+03</pdfrwt>
<pdfrwt beam="2">  1       -2 0.17031619E+00 0.76331476E+03</pdfrwt>
<totfact> 0.81740680E+00</totfact>
</mgrwt>
</event>
<event>
 4    1  0.2051094E-007  0.7805149E+03  0.7818608E-02  0.9754629E-01
          2   -1    0    0  501    0  0.00000000000E+00  0.00000000000E+00  0.32888883281E+04  0.32888883281E+04  0.25500000000E-02 0. -1.
         -2   -1    0    0    0  501 -0.00000000000E+00 -0.00000000000E+00 -0.10382137641E+04  0.10382137641E+04  0.25500000000E-02 0.  1.
    8880023    1    1    2    0    0  0.17016123922E+02  0.41845394840E+03  0.31917257675E+04  0.32857749218E+04  0.65864270000E+03 0. -1.
    8880022    1    1    2    0    0 -0.17016123922E+02 -0.41845394840E+03 -0.94105120346E+03  0.10413271705E+04  0.15294330000E+03 0.  0.
<mgrwt>
<rscale>  0 0.67855306E+03</rscale>
<asrwt>0</asrwt>
<pdfrwt beam="1">  1        2 0.50598281E+00 0.78051487E+03</pdfrwt>
<pdfrwt beam="2">  1       -2 0.15972520E+00 0.78051487E+03</pdfrwt>
<totfact> 0.30798429E-01</totfact>
</mgrwt>
</event>
<event>
 4    1  0.2051094E-007  0.1586115E+04  0.7818608E-02  0.8851105E-01
          2   -1    0    0  501    0  0.00000000000E+00  0.00000000000E+00  0.22719240964E+04  0.22719240964E+04  0.25500000000E-02 0. -1.
         -2   -1    0    0    0  501 -0.00000000000E+00 -0.00000000000E+00 -0.14781220566E+04  0.14781220566E+04  0.25500000000E-02 0.  1.
    8880023    1    1    2    0    0 -0.87238668181E+02  0.14402567277E+04  0.14578632934E+04  0.21543271839E+04  0.65864270000E+03 0.  0.
    8880022    1    1    2    0    0  0.87238668181E+02 -0.14402567277E+04 -0.66406125363E+03  0.15957189691E+04  0.15294330000E+03 0.  0.
<mgrwt>
<rscale>  0 0.15511946E+04</rscale>
<asrwt>0</asrwt>
<pdfrwt beam="1">  1        2 0.34952678E+00 0.15861148E+04</pdfrwt>
<pdfrwt beam="2">  1       -2 0.22740340E+00 0.15861148E+04</pdfrwt>
<totfact> 0.38785415E-01</totfact>
</mgrwt>
</event>
<event>
 4    1  0.2129960E-007  0.1067467E+04  0.7818608E-02  0.9298172E-01
          2   -1    0    0  501    0  0.00000000000E+00  0.00000000000E+00  0.26517012280E+04  0.26517012280E+04  0.25500000000E-02 0. -1.
         -2   -1    0    0    0  501 -0.00000000000E+00 -0.00000000000E+00 -0.19589276104E+04  0.19589276104E+04  0.25500000000E-02 0.  1.
    8880023    1    1    2    0    0  0.85195859553E+02  0.83571375568E+03  0.24414556423E+04  0.26646184859E+04  0.65864270000E+03 0. -1.
    8880022    1    1    2    0    0 -0.85195859553E+02 -0.83571375568E+03 -0.17486820246E+04  0.19460103525E+04  0.15294330000E+03 0.  0.
<mgrwt>
<rscale>  0 0.10095128E+04</rscale>
<asrwt>0</asrwt>
<pdfrwt beam="1">  1        2 0.40795403E+00 0.10674671E+04</pdfrwt>
<pdfrwt beam="2">  1       -2 0.30137348E+00 0.10674671E+04</pdfrwt>
<totfact> 0.89123760E-02</totfact>
</mgrwt>
</event>
<event>
 4    1  0.2051094E-007  0.8812167E+03  0.7818608E-02  0.9556884E-01
         -2   -1    0    0    0  501 -0.00000000000E+00  0.00000000000E+00  0.12785930183E+04  0.12785930183E+04  0.25500000000E-02 0.  1.
          2   -1    0    0  501    0  0.00000000000E+00 -0.00000000000E+00 -0.95156659183E+03  0.95156659184E+03  0.25500000000E-02 0. -1.
    8880023    1    1    2    0    0  0.37661190938E+03 -0.44821429926E+03 -0.64022852272E+03  0.10892361341E+04  0.65864270000E+03 0.  0.
    8880022    1    1    2    0    0 -0.37661190938E+03  0.44821429926E+03  0.96725494922E+03  0.11409234760E+04  0.15294330000E+03 0.  1.
<mgrwt>
<rscale>  0 0.80216846E+03</rscale>
<asrwt>0</asrwt>
<pdfrwt beam="1">  1        2 0.14639486E+00 0.88121666E+03</pdfrwt>
<pdfrwt beam="2">  1       -2 0.19670662E+00 0.88121666E+03</pdfrwt>
<totfact> 0.38081271E+00</totfact>
</mgrwt>
</event>
<event>
 4    1  0.2051094E-007  0.1080116E+04  0.7818608E-02  0.9283524E-01
          2   -1    0    0  501    0  0.00000000000E+00  0.00000000000E+00  0.21393250157E+04  0.21393250157E+04  0.25500000000E-02 0. -1.
         -2   -1    0    0    0  501 -0.00000000000E+00 -0.00000000000E+00 -0.54299397374E+03  0.54299397374E+03  0.25500000000E-02 0.  1.
    8880023    1    1    2    0    0 -0.74218985806E+03  0.42660832551E+03  0.14378979292E+04  0.17983884758E+04  0.65864270000E+03 0.  0.
    8880022    1    1    2    0    0  0.74218985806E+03 -0.42660832551E+03  0.15843311281E+03  0.88393051370E+03  0.15294330000E+03 0.  0.
<mgrwt>
<rscale>  0 0.10231391E+04</rscale>
<asrwt>0</asrwt>
<pdfrwt beam="1">  1        2 0.32912692E+00 0.10801160E+04</pdfrwt>
<pdfrwt beam="2">  1       -2 0.83537536E-01 0.10801160E+04</pdfrwt>
<totfact> 0.69631715E+00</totfact>
</mgrwt>
</event>
<event>
 4    1  0.2051094E-007  0.1587062E+04  0.7818608E-02  0.8850486E-01
         -2   -1    0    0    0  501 -0.00000000000E+00  0.00000000000E+00  0.74789087316E+03  0.74789087316E+03  0.25500000000E-02 0.  1.
          2   -1    0    0  501    0  0.00000000000E+00 -0.00000000000E+00 -0.44323030984E+04  0.44323030984E+04  0.25500000000E-02 0. -1.
    8880023    1    1    2    0    0  0.36536006278E+02  0.14434749054E+04 -0.33250222039E+04  0.36843639268E+04  0.65864270000E+03 0. -1.
    8880022    1    1    2    0    0 -0.36536006278E+02 -0.14434749054E+04 -0.35939002135E+03  0.14958300448E+04  0.15294330000E+03 0.  0.
<mgrwt>
<rscale>  0 0.15521658E+04</rscale>
<asrwt>0</asrwt>
<pdfrwt beam="1">  1        2 0.68189277E+00 0.15870617E+04</pdfrwt>
<pdfrwt beam="2">  1       -2 0.11506014E+00 0.15870617E+04</pdfrwt>
<totfact> 0.81199742E-02</totfact>
</mgrwt>
</event>
<event>
 4    1  0.2051094E-007  0.1065219E+04  0.7818608E-02  0.9300806E-01
          2   -1    0    0  501    0  0.00000000000E+00  0.00000000000E+00  0.22573787160E+04  0.22573787160E+04  0.25500000000E-02 0. -1.
         -2   -1    0    0    0  501 -0.00000000000E+00 -0.00000000000E+00 -0.54427500041E+03  0.54427500041E+03  0.25500000000E-02 0.  1.
    8880023    1    1    2    0    0  0.70399928731E+03 -0.45306299271E+03  0.16291381682E+04  0.19464795014E+04  0.65864270000E+03 0. -1.
    8880022    1    1    2    0    0 -0.70399928731E+03  0.45306299271E+03  0.83965547381E+02  0.85517421503E+03  0.15294330000E+03 0.  0.
<mgrwt>
<rscale>  0 0.10070868E+04</rscale>
<asrwt>0</asrwt>
<pdfrwt beam="1">  1        2 0.34728903E+00 0.10652189E+04</pdfrwt>
<pdfrwt beam="2">  1       -2 0.83734616E-01 0.10652189E+04</pdfrwt>
<totfact> 0.59620646E+00</totfact>
</mgrwt>
</event>
<event>
 4    1  0.2051094E-007  0.1005419E+04  0.7818608E-02  0.9374502E-01
         -2   -1    0    0    0  501 -0.00000000000E+00  0.00000000000E+00  0.77327170701E+03  0.77327170701E+03  0.25500000000E-02 0.  1.
          2   -1    0    0  501    0  0.00000000000E+00 -0.00000000000E+00 -0.20929167977E+04  0.20929167977E+04  0.25500000000E-02 0. -1.
    8880023    1    1    2    0    0  0.72796304168E+03 -0.21708705667E+03  0.31796547335E+03  0.10544995158E+04  0.65864270000E+03 0.  0.
    8880022    1    1    2    0    0 -0.72796304168E+03  0.21708705667E+03 -0.16376105641E+04  0.18116889890E+04  0.15294330000E+03 0.  0.
<mgrwt>
<rscale>  0 0.94204092E+03</rscale>
<asrwt>0</asrwt>
<pdfrwt beam="1">  1        2 0.32198720E+00 0.10054189E+04</pdfrwt>
<pdfrwt beam="2">  1       -2 0.11896488E+00 0.10054189E+04</pdfrwt>
<totfact> 0.32161481E+00</totfact>
</mgrwt>
</event>
<event>
 4    1  0.2470041E-007  0.1386015E+04  0.7818608E-02  0.8994626E-01
         -2   -1    0    0    0  501 -0.00000000000E+00  0.00000000000E+00  0.15291754117E+04  0.15291754117E+04  0.25500000000E-02 0.  1.
          2   -1    0    0  501    0  0.00000000000E+00 -0.00000000000E+00 -0.16764465582E+04  0.16764465582E+04  0.25500000000E-02 0. -1.
    8880023    1    1    2    0    0 -0.11751609276E+04  0.32592118070E+03 -0.10005202596E+04  0.17094089089E+04  0.65864270000E+03 0. -1.
    8880022    1    1    2    0    0  0.11751609276E+04 -0.32592118070E+03  0.85324911312E+03  0.14962130610E+04  0.15294330000E+03 0.  0.
<mgrwt>
<rscale>  0 0.13449941E+04</rscale>
<asrwt>0</asrwt>
<pdfrwt beam="1">  1        2 0.25791486E+00 0.13860152E+04</pdfrwt>
<pdfrwt beam="2">  1       -2 0.23525776E+00 0.13860152E+04</pdfrwt>
<totfact> 0.76150649E-01</totfact>
</mgrwt>
</event>
<event>
 4    1  0.2364007E-007  0.1262403E+04  0.7818608E-02  0.9098726E-01
         -2   -1    0    0    0  501 -0.00000000000E+00  0.00000000000E+00  0.89150094384E+03  0.89150094384E+03  0.25500000000E-02 0.  1.
          2   -1    0    0  501    0  0.00000000000E+00 -0.00000000000E+00 -0.27154134305E+04  0.27154134305E+04  0.25500000000E-02 0. -1.
    8880023    1    1    2    0    0 -0.56813970079E+03  0.91491498324E+03 -0.21307974974E+04  0.24766833321E+04  0.65864270000E+03 0.  0.
    8880022    1    1    2    0    0  0.56813970079E+03 -0.91491498324E+03  0.30688501070E+03  0.11302310423E+04  0.15294330000E+03 0.  0.
<mgrwt>
<rscale>  0 0.12162781E+04</rscale>
<asrwt>0</asrwt>
<pdfrwt beam="1">  1        2 0.41775591E+00 0.12624034E+04</pdfrwt>
<pdfrwt beam="2">  1       -2 0.13715399E+00 0.12624034E+04</pdfrwt>
<totfact> 0.95896243E-01</totfact>
</mgrwt>
</event>
<event>
 4    1  0.2051094E-007  0.9917455E+03  0.7818608E-02  0.9392438E-01
         -2   -1    0    0    0  501 -0.00000000000E+00  0.00000000000E+00  0.68757119758E+03  0.68757119758E+03  0.25500000000E-02 0.  1.
          2   -1    0    0  501    0  0.00000000000E+00 -0.00000000000E+00 -0.19535598408E+04  0.19535598408E+04  0.25500000000E-02 0. -1.
    8880023    1    1    2    0    0  0.55488051700E+03  0.49178916935E+03 -0.15436327008E+04  0.18347645888E+04  0.65864270000E+03 0.  0.
    8880022    1    1    2    0    0 -0.55488051700E+03 -0.49178916935E+03  0.27764405757E+03  0.80636644955E+03  0.15294330000E+03 0.  0.
<mgrwt>
<rscale>  0 0.92700662E+03</rscale>
<asrwt>0</asrwt>
<pdfrwt beam="1">  1        2 0.30054767E+00 0.99174552E+03</pdfrwt>
<pdfrwt beam="2">  1       -2 0.10578018E+00 0.99174552E+03</pdfrwt>
<totfact> 0.51226633E+00</totfact>
</mgrwt>
</event>
<event>
 4    1  0.2051094E-007  0.1315829E+04  0.7818608E-02  0.9052010E-01
          2   -1    0    0  501    0  0.00000000000E+00  0.00000000000E+00  0.45690489435E+04  0.45690489435E+04  0.25500000000E-02 0. -1.
         -2   -1    0    0    0  501 -0.00000000000E+00 -0.00000000000E+00 -0.59523081087E+03  0.59523081088E+03  0.25500000000E-02 0.  1.
    8880023    1    1    2    0    0  0.22232259289E+03 -0.11172141822E+04  0.37751491068E+04  0.39978939267E+04  0.65864270000E+03 0.  0.
    8880022    1    1    2    0    0 -0.22232259289E+03  0.11172141822E+04  0.19866902582E+03  0.11663858277E+04  0.15294330000E+03 0.  0.
<mgrwt>
<rscale>  0 0.12720723E+04</rscale>
<asrwt>0</asrwt>
<pdfrwt beam="1">  1        2 0.70293061E+00 0.13158287E+04</pdfrwt>
<pdfrwt beam="2">  1       -2 0.91573971E-01 0.13158287E+04</pdfrwt>
<totfact> 0.10804276E-01</totfact>
</mgrwt>
</event>
<event>
 4    1  0.2051094E-007  0.7527407E+03  0.7818608E-02  0.9824277E-01
         -2   -1    0    0    0  501 -0.00000000000E+00  0.00000000000E+00  0.35276651455E+03  0.35276651455E+03  0.25500000000E-02 0.  1.
          2   -1    0    0  501    0  0.00000000000E+00 -0.00000000000E+00 -0.15787878956E+04  0.15787878956E+04  0.25500000000E-02 0. -1.
    8880023    1    1    2    0    0  0.34702470779E+03  0.11127532725E+03 -0.13252125290E+04  0.15240757198E+04  0.65864270000E+03 0.  0.
    8880022    1    1    2    0    0 -0.34702470779E+03 -0.11127532725E+03  0.99191147963E+02  0.40747869038E+03  0.15294330000E+03 0.  1.
<mgrwt>
<rscale>  0 0.64075820E+03</rscale>
<asrwt>0</asrwt>
<pdfrwt beam="1">  1        2 0.24289044E+00 0.75274069E+03</pdfrwt>
<pdfrwt beam="2">  1       -2 0.54271772E-01 0.75274069E+03</pdfrwt>
<totfact> 0.37500641E+01</totfact>
</mgrwt>
</event>
<event>
 4    1  0.2051094E-007  0.9334682E+03  0.7818608E-02  0.9474310E-01
         -2   -1    0    0    0  501 -0.00000000000E+00  0.00000000000E+00  0.81188136205E+03  0.81188136205E+03  0.25500000000E-02 0.  1.
          2   -1    0    0  501    0  0.00000000000E+00 -0.00000000000E+00 -0.15045251208E+04  0.15045251208E+04  0.25500000000E-02 0. -1.
    8880023    1    1    2    0    0  0.31078160379E+03 -0.58392421028E+03 -0.11623919132E+04  0.14908111399E+04  0.65864270000E+03 0.  0.
    8880022    1    1    2    0    0 -0.31078160379E+03  0.58392421028E+03  0.46974815451E+03  0.82559534294E+03  0.15294330000E+03 0.  0.
<mgrwt>
<rscale>  0 0.86204653E+03</rscale>
<asrwt>0</asrwt>
<pdfrwt beam="1">  1        2 0.23146540E+00 0.93346821E+03</pdfrwt>
<pdfrwt beam="2">  1       -2 0.12490483E+00 0.93346821E+03</pdfrwt>
<totfact> 0.60696082E+00</totfact>
</mgrwt>
</event>
<event>
 4    1  0.2051094E-007  0.7014847E+03  0.7818608E-02  0.9991097E-01
         -2   -1    0    0    0  501 -0.00000000000E+00  0.00000000000E+00  0.93683819995E+03  0.93683819995E+03  0.25500000000E-02 0.  1.
          2   -1    0    0  501    0  0.00000000000E+00 -0.00000000000E+00 -0.28033497448E+04  0.28033497448E+04  0.25500000000E-02 0. -1.
    8880023    1    1    2    0    0  0.16132692595E+03  0.17956664799E+03 -0.27362333167E+04  0.28247218496E+04  0.65864270000E+03 0. -1.
    8880022    1    1    2    0    0 -0.16132692595E+03 -0.17956664799E+03  0.86972177178E+03  0.91546609518E+03  0.15294330000E+03 0.  0.
<mgrwt>
<rscale>  0 0.56042343E+03</rscale>
<asrwt>0</asrwt>
<pdfrwt beam="1">  1        2 0.43128457E+00 0.70148469E+03</pdfrwt>
<pdfrwt beam="2">  1       -2 0.14412896E+00 0.70148469E+03</pdfrwt>
<totfact> 0.82313950E-01</totfact>
</mgrwt>
</event>
<event>
 4    1  0.2051094E-007  0.1178623E+04  0.7818608E-02  0.9178188E-01
          2   -1    0    0  501    0  0.00000000000E+00  0.00000000000E+00  0.16405190614E+04  0.16405190614E+04  0.25500000000E-02 0. -1.
         -2   -1    0    0    0  501 -0.00000000000E+00 -0.00000000000E+00 -0.11107303003E+04  0.11107303003E+04  0.25500000000E-02 0.  1.
    8880023    1    1    2    0    0  0.91746254693E+03 -0.33705163778E+03  0.10976179154E+04  0.16105640708E+04  0.65864270000E+03 0. -1.
    8880022    1    1    2    0    0 -0.91746254693E+03  0.33705163778E+03 -0.56782915433E+03  0.11406852910E+04  0.15294330000E+03 0.  0.
<mgrwt>
<rscale>  0 0.11281430E+04</rscale>
<asrwt>0</asrwt>
<pdfrwt beam="1">  1        2 0.25238755E+00 0.11786227E+04</pdfrwt>
<pdfrwt beam="2">  1       -2 0.17088158E+00 0.11786227E+04</pdfrwt>
<totfact> 0.21636900E+00</totfact>
</mgrwt>
</event>
<event>
 4    1  0.2051094E-007  0.6785815E+03  0.7818608E-02  0.1010138E+00
          2   -1    0    0  501    0  0.00000000000E+00  0.00000000000E+00  0.12227444193E+04  0.12227444193E+04  0.25500000000E-02 0. -1.
         -2   -1    0    0    0  501 -0.00000000000E+00 -0.00000000000E+00 -0.56322147714E+03  0.56322147714E+03  0.25500000000E-02 0.  1.
    8880023    1    1    2    0    0 -0.15118537176E+03  0.61689716538E+02  0.10996897510E+04  0.12922036962E+04  0.65864270000E+03 0. -1.
    8880022    1    1    2    0    0  0.15118537176E+03 -0.61689716538E+02 -0.44016680884E+03  0.49376220024E+03  0.15294330000E+03 0.  0.
<mgrwt>
<rscale>  0 0.51419953E+03</rscale>
<asrwt>0</asrwt>
<pdfrwt beam="1">  1        2 0.18811453E+00 0.67858149E+03</pdfrwt>
<pdfrwt beam="2">  1       -2 0.86649457E-01 0.67858149E+03</pdfrwt>
<totfact> 0.21760736E+01</totfact>
</mgrwt>
</event>
<event>
 4    1  0.2051094E-007  0.7984356E+03  0.7818608E-02  0.9714189E-01
         -2   -1    0    0    0  501 -0.00000000000E+00  0.00000000000E+00  0.30406944418E+03  0.30406944419E+03  0.25500000000E-02 0.  1.
          2   -1    0    0  501    0  0.00000000000E+00 -0.00000000000E+00 -0.16243500119E+04  0.16243500119E+04  0.25500000000E-02 0. -1.
    8880023    1    1    2    0    0 -0.45125849588E+03 -0.74106239655E+01 -0.11923944131E+04  0.14350274527E+04  0.65864270000E+03 0.  0.
    8880022    1    1    2    0    0  0.45125849588E+03  0.74106239655E+01 -0.12788615468E+03  0.49339200340E+03  0.15294330000E+03 0.  0.
<mgrwt>
<rscale>  0 0.70178238E+03</rscale>
<asrwt>0</asrwt>
<pdfrwt beam="1">  1        2 0.24990000E+00 0.79843557E+03</pdfrwt>
<pdfrwt beam="2">  1       -2 0.46779915E-01 0.79843557E+03</pdfrwt>
<totfact> 0.47684460E+01</totfact>
</mgrwt>
</event>
<event>
 4    1  0.2051094E-007  0.8799473E+03  0.7818608E-02  0.9559021E-01
          2   -1    0    0  501    0  0.00000000000E+00  0.00000000000E+00  0.39611100896E+04  0.39611100896E+04  0.25500000000E-02 0. -1.
         -2   -1    0    0    0  501 -0.00000000000E+00 -0.00000000000E+00 -0.16956190840E+03  0.16956190841E+03  0.25500000000E-02 0.  1.
    8880023    1    1    2    0    0 -0.57042393924E+03  0.12293711502E+03  0.30519065189E+04  0.31762305664E+04  0.65864270000E+03 0. -1.
    8880022    1    1    2    0    0  0.57042393924E+03 -0.12293711502E+03  0.73964166230E+03  0.95444143159E+03  0.15294330000E+03 0.  0.
<mgrwt>
<rscale>  0 0.80068843E+03</rscale>
<asrwt>0</asrwt>
<pdfrwt beam="1">  1        2 0.60940155E+00 0.87994728E+03</pdfrwt>
<pdfrwt beam="2">  1       -2 0.26086448E-01 0.87994728E+03</pdfrwt>
<totfact> 0.52401404E+00</totfact>
</mgrwt>
</event>
<event>
 4    1  0.2051094E-007  0.1170907E+04  0.7818608E-02  0.9185935E-01
         -2   -1    0    0    0  501 -0.00000000000E+00  0.00000000000E+00  0.15900882708E+04  0.15900882708E+04  0.25500000000E-02 0.  1.
          2   -1    0    0  501    0  0.00000000000E+00 -0.00000000000E+00 -0.80122701605E+03  0.80122701605E+03  0.25500000000E-02 0. -1.
    8880023    1    1    2    0    0  0.91914816458E+03  0.30394098359E+03  0.64681198498E+02  0.11726923440E+04  0.65864270000E+03 0.  0.
    8880022    1    1    2    0    0 -0.91914816458E+03 -0.30394098359E+03  0.72418005622E+03  0.12186229428E+04  0.15294330000E+03 0.  0.
<mgrwt>
<rscale>  0 0.11199792E+04</rscale>
<asrwt>0</asrwt>
<pdfrwt beam="1">  1        2 0.12326570E+00 0.11709072E+04</pdfrwt>
<pdfrwt beam="2">  1       -2 0.24462896E+00 0.11709072E+04</pdfrwt>
<totfact> 0.23340802E+00</totfact>
</mgrwt>
</event>
<event>
 4    1  0.2051094E-007  0.8726738E+03  0.7818608E-02  0.9571405E-01
         -2   -1    0    0    0  501 -0.00000000000E+00  0.00000000000E+00  0.50847940443E+03  0.50847940444E+03  0.25500000000E-02 0.  1.
          2   -1    0    0  501    0  0.00000000000E+00 -0.00000000000E+00 -0.33026540376E+04  0.33026540376E+04  0.25500000000E-02 0. -1.
    8880023    1    1    2    0    0  0.39254390679E+03 -0.41672369390E+03 -0.30450588230E+04  0.31676399413E+04  0.65864270000E+03 0.  0.
    8880022    1    1    2    0    0 -0.39254390679E+03  0.41672369390E+03  0.25088418982E+03  0.64349350077E+03  0.15294330000E+03 0.  0.
<mgrwt>
<rscale>  0 0.79218050E+03</rscale>
<asrwt>0</asrwt>
<pdfrwt beam="1">  1        2 0.50810061E+00 0.87267380E+03</pdfrwt>
<pdfrwt beam="2">  1       -2 0.78227603E-01 0.87267380E+03</pdfrwt>
<totfact> 0.16973573E+00</totfact>
</mgrwt>
</event>
<event>
 4    1  0.2051094E-007  0.1203356E+04  0.7818608E-02  0.9153867E-01
         -2   -1    0    0    0  501 -0.00000000000E+00  0.00000000000E+00  0.84788004335E+03  0.84788004336E+03  0.25500000000E-02 0.  1.
          2   -1    0    0  501    0  0.00000000000E+00 -0.00000000000E+00 -0.25606408735E+04  0.25606408735E+04  0.25500000000E-02 0. -1.
    8880023    1    1    2    0    0  0.97078559234E+03  0.26801370319E+03  0.22042393483E+03  0.12233776721E+04  0.65864270000E+03 0.  1.
    8880022    1    1    2    0    0 -0.97078559234E+03 -0.26801370319E+03 -0.19331847650E+04  0.21851432447E+04  0.15294330000E+03 0.  0.
<mgrwt>
<rscale>  0 0.11542554E+04</rscale>
<asrwt>0</asrwt>
<pdfrwt beam="1">  1        2 0.39394475E+00 0.12033562E+04</pdfrwt>
<pdfrwt beam="2">  1       -2 0.13044308E+00 0.12033562E+04</pdfrwt>
<totfact> 0.13540212E+00</totfact>
</mgrwt>
</event>
<event>
 4    1  0.2051094E-007  0.1466525E+04  0.7818608E-02  0.8933643E-01
          2   -1    0    0  501    0  0.00000000000E+00  0.00000000000E+00  0.34190273323E+04  0.34190273323E+04  0.25500000000E-02 0. -1.
         -2   -1    0    0    0  501 -0.00000000000E+00 -0.00000000000E+00 -0.10226923213E+04  0.10226923213E+04  0.25500000000E-02 0.  1.
    8880023    1    1    2    0    0 -0.24135275037E+03  0.12878798085E+04  0.27139412632E+04  0.30848294827E+04  0.65864270000E+03 0. -1.
    8880022    1    1    2    0    0  0.24135275037E+03 -0.12878798085E+04 -0.31760625221E+03  0.13568901708E+04  0.15294330000E+03 0.  0.
<mgrwt>
<rscale>  0 0.14282177E+04</rscale>
<asrwt>0</asrwt>
<pdfrwt beam="1">  1        2 0.52600420E+00 0.14665251E+04</pdfrwt>
<pdfrwt beam="2">  1       -2 0.15733728E+00 0.14665251E+04</pdfrwt>
<totfact> 0.23299785E-01</totfact>
</mgrwt>
</event>
<event>
 4    1  0.2051094E-007  0.8448918E+03  0.7818608E-02  0.9621024E-01
         -2   -1    0    0    0  501 -0.00000000000E+00  0.00000000000E+00  0.30160646993E+03  0.30160646994E+03  0.25500000000E-02 0.  1.
          2   -1    0    0  501    0  0.00000000000E+00 -0.00000000000E+00 -0.16689895533E+04  0.16689895533E+04  0.25500000000E-02 0. -1.
    8880023    1    1    2    0    0 -0.37761617602E+03 -0.37072622997E+03 -0.99683277603E+03  0.13067202086E+04  0.65864270000E+03 0. -1.
    8880022    1    1    2    0    0  0.37761617602E+03  0.37072622997E+03 -0.37055030737E+03  0.66387581466E+03  0.15294330000E+03 0.  1.
<mgrwt>
<rscale>  0 0.75920136E+03</rscale>
<asrwt>0</asrwt>
<pdfrwt beam="1">  1        2 0.25676762E+00 0.84489178E+03</pdfrwt>
<pdfrwt beam="2">  1       -2 0.46400997E-01 0.84489178E+03</pdfrwt>
<totfact> 0.45587982E+01</totfact>
</mgrwt>
</event>
<event>
 4    1  0.2331142E-007  0.1109064E+04  0.7818608E-02  0.9251031E-01
          2   -1    0    0  501    0  0.00000000000E+00  0.00000000000E+00  0.19422925798E+04  0.19422925798E+04  0.25500000000E-02 0. -1.
         -2   -1    0    0    0  501 -0.00000000000E+00 -0.00000000000E+00 -0.12812036570E+04  0.12812036570E+04  0.25500000000E-02 0.  1.
    8880023    1    1    2    0    0 -0.29793057196E+03 -0.84110004762E+03  0.15820505746E+04  0.19320730169E+04  0.65864270000E+03 0. -1.
    8880022    1    1    2    0    0  0.29793057196E+03  0.84110004762E+03 -0.92096165183E+03  0.12914232199E+04  0.15294330000E+03 0.  0.
<mgrwt>
<rscale>  0 0.10541874E+04</rscale>
<asrwt>0</asrwt>
<pdfrwt beam="1">  1        2 0.29881424E+00 0.11090636E+04</pdfrwt>
<pdfrwt beam="2">  1       -2 0.19710826E+00 0.11090636E+04</pdfrwt>
<totfact> 0.98217925E-01</totfact>
</mgrwt>
</event>
<event>
 4    1  0.2051094E-007  0.1761324E+04  0.7818608E-02  0.8744238E-01
          2   -1    0    0  501    0  0.00000000000E+00  0.00000000000E+00  0.33526589253E+04  0.33526589253E+04  0.25500000000E-02 0. -1.
         -2   -1    0    0    0  501 -0.00000000000E+00 -0.00000000000E+00 -0.10376802966E+04  0.10376802966E+04  0.25500000000E-02 0.  1.
    8880023    1    1    2    0    0 -0.11868222591E+04  0.11224545313E+04  0.20917571875E+04  0.27345401053E+04  0.65864270000E+03 0.  0.
    8880022    1    1    2    0    0  0.11868222591E+04 -0.11224545313E+04  0.22322144126E+03  0.16557991166E+04  0.15294330000E+03 0.  0.
<mgrwt>
<rscale>  0 0.17303566E+04</rscale>
<asrwt>0</asrwt>
<pdfrwt beam="1">  1        2 0.51579368E+00 0.17613238E+04</pdfrwt>
<pdfrwt beam="2">  1       -2 0.15964312E+00 0.17613238E+04</pdfrwt>
<totfact> 0.23992077E-01</totfact>
</mgrwt>
</event>
<event>
 4    1  0.2051094E-007  0.1376536E+04  0.7818608E-02  0.9002133E-01
         -2   -1    0    0    0  501 -0.00000000000E+00  0.00000000000E+00  0.15637370663E+04  0.15637370663E+04  0.25500000000E-02 0.  1.
          2   -1    0    0  501    0  0.00000000000E+00 -0.00000000000E+00 -0.15824560929E+04  0.15824560929E+04  0.25500000000E-02 0. -1.
    8880023    1    1    2    0    0 -0.10527377804E+04 -0.59395682816E+03 -0.89810850855E+03  0.16436090312E+04  0.65864270000E+03 0. -1.
    8880022    1    1    2    0    0  0.10527377804E+04  0.59395682816E+03  0.87938948196E+03  0.15025841281E+04  0.15294330000E+03 0.  0.
<mgrwt>
<rscale>  0 0.13351676E+04</rscale>
<asrwt>0</asrwt>
<pdfrwt beam="1">  1        2 0.24345478E+00 0.13765361E+04</pdfrwt>
<pdfrwt beam="2">  1       -2 0.24057493E+00 0.13765361E+04</pdfrwt>
<totfact> 0.79767396E-01</totfact>
</mgrwt>
</event>
<event>
 4    1  0.3753511E-007  0.8060782E+03  0.7818608E-02  0.9697805E-01
          2   -1    0    0  501    0  0.00000000000E+00  0.00000000000E+00  0.15704512658E+04  0.15704512658E+04  0.25500000000E-02 0. -1.
         -2   -1    0    0    0  501 -0.00000000000E+00 -0.00000000000E+00 -0.14207411143E+04  0.14207411143E+04  0.25500000000E-02 0.  1.
    8880023    1    1    2    0    0  0.44839178761E+03  0.12205200093E+03  0.14183977380E+04  0.16314454436E+04  0.65864270000E+03 0. -1.
    8880022    1    1    2    0    0 -0.44839178761E+03 -0.12205200093E+03 -0.12686875865E+04  0.13597469365E+04  0.15294330000E+03 0.  0.
<mgrwt>
<rscale>  0 0.71147657E+03</rscale>
<asrwt>0</asrwt>
<pdfrwt beam="1">  1        2 0.24160789E+00 0.80607822E+03</pdfrwt>
<pdfrwt beam="2">  1       -2 0.21857556E+00 0.80607822E+03</pdfrwt>
<totfact> 0.12000515E+00</totfact>
</mgrwt>
</event>
<event>
 4    1  0.2051094E-007  0.7093817E+03  0.7818608E-02  0.9960304E-01
          2   -1    0    0  501    0  0.00000000000E+00  0.00000000000E+00  0.27142355860E+04  0.27142355860E+04  0.25500000000E-02 0. -1.
         -2   -1    0    0    0  501 -0.00000000000E+00 -0.00000000000E+00 -0.29535701161E+03  0.29535701162E+03  0.25500000000E-02 0.  1.
    8880023    1    1    2    0    0  0.52645089879E+02 -0.25814853095E+03  0.25724271953E+04  0.26684459993E+04  0.65864270000E+03 0.  0.
    8880022    1    1    2    0    0 -0.52645089879E+02  0.25814853095E+03 -0.15354862098E+03  0.34114659831E+03  0.15294330000E+03 0.  1.
<mgrwt>
<rscale>  0 0.57425623E+03</rscale>
<asrwt>0</asrwt>
<pdfrwt beam="1">  1        2 0.41757471E+00 0.70938169E+03</pdfrwt>
<pdfrwt beam="2">  1       -2 0.45439540E-01 0.70938169E+03</pdfrwt>
<totfact> 0.12690340E+01</totfact>
</mgrwt>
</event>
<event>
 4    1  0.2051094E-007  0.8979423E+03  0.7818608E-02  0.9529343E-01
          2   -1    0    0  501    0  0.00000000000E+00  0.00000000000E+00  0.15576992038E+04  0.15576992038E+04  0.25500000000E-02 0. -1.
         -2   -1    0    0    0  501 -0.00000000000E+00 -0.00000000000E+00 -0.49590342822E+03  0.49590342823E+03  0.25500000000E-02 0.  1.
    8880023    1    1    2    0    0 -0.23653662000E+03 -0.56261942207E+03  0.11039187029E+04  0.14230027742E+04  0.65864270000E+03 0.  0.
    8880022    1    1    2    0    0  0.23653662000E+03  0.56261942207E+03 -0.42122927249E+02  0.63059985783E+03  0.15294330000E+03 0.  0.
<mgrwt>
<rscale>  0 0.82154626E+03</rscale>
<asrwt>0</asrwt>
<pdfrwt beam="1">  1        2 0.23964603E+00 0.89794231E+03</pdfrwt>
<pdfrwt beam="2">  1       -2 0.76292836E-01 0.89794231E+03</pdfrwt>
<totfact> 0.18249532E+01</totfact>
</mgrwt>
</event>
<event>
 4    1  0.2051094E-007  0.9548326E+03  0.7818608E-02  0.9443195E-01
         -2   -1    0    0    0  501 -0.00000000000E+00  0.00000000000E+00  0.58526187835E+03  0.58526187835E+03  0.25500000000E-02 0.  1.
          2   -1    0    0  501    0  0.00000000000E+00 -0.00000000000E+00 -0.16555417792E+04  0.16555417792E+04  0.25500000000E-02 0. -1.
    8880023    1    1    2    0    0 -0.63295976539E+03  0.27795156516E+03 -0.11868461690E+04  0.15232561086E+04  0.65864270000E+03 0.  1.
    8880022    1    1    2    0    0  0.63295976539E+03 -0.27795156516E+03  0.11656626814E+03  0.71754754899E+03  0.15294330000E+03 0.  0.
<mgrwt>
<rscale>  0 0.88604590E+03</rscale>
<asrwt>0</asrwt>
<pdfrwt beam="1">  1        2 0.25469873E+00 0.95483263E+03</pdfrwt>
<pdfrwt beam="2">  1       -2 0.90040290E-01 0.95483263E+03</pdfrwt>
<totfact> 0.10985938E+01</totfact>
</mgrwt>
</event>
<event>
 4    1  0.2051094E-007  0.6612727E+03  0.7818608E-02  0.1022889E+00
          2   -1    0    0  501    0  0.00000000000E+00  0.00000000000E+00  0.73645202408E+03  0.73645202409E+03  0.25500000000E-02 0. -1.
         -2   -1    0    0    0  501 -0.00000000000E+00 -0.00000000000E+00 -0.95422306082E+03  0.95422306082E+03  0.25500000000E-02 0.  1.
    8880023    1    1    2    0    0  0.54946865451E+02 -0.21266824647E+02  0.57795508839E+03  0.87824468476E+03  0.65864270000E+03 0.  0.
    8880022    1    1    2    0    0 -0.54946865451E+02  0.21266824647E+02 -0.79572612513E+03  0.81243040015E+03  0.15294330000E+03 0.  1.
<mgrwt>
<rscale>  0 0.46658413E+03</rscale>
<asrwt>0</asrwt>
<pdfrwt beam="1">  1        2 0.11330031E+00 0.66127274E+03</pdfrwt>
<pdfrwt beam="2">  1       -2 0.14680355E+00 0.66127274E+03</pdfrwt>
<totfact> 0.12490381E+01</totfact>
</mgrwt>
</event>
<event>
 4    1  0.2051094E-007  0.9476511E+03  0.7818608E-02  0.9453502E-01
         -2   -1    0    0    0  501 -0.00000000000E+00  0.00000000000E+00  0.97462125228E+03  0.97462125228E+03  0.25500000000E-02 0.  1.
          2   -1    0    0  501    0  0.00000000000E+00 -0.00000000000E+00 -0.14180423390E+04  0.14180423390E+04  0.25500000000E-02 0. -1.
    8880023    1    1    2    0    0 -0.51528704416E+03 -0.44577077555E+03 -0.10876543619E+04  0.14425791276E+04  0.65864270000E+03 0.  0.
    8880022    1    1    2    0    0  0.51528704416E+03  0.44577077555E+03  0.64423327518E+03  0.95008446365E+03  0.15294330000E+03 0.  0.
<mgrwt>
<rscale>  0 0.87800496E+03</rscale>
<asrwt>0</asrwt>
<pdfrwt beam="1">  1        2 0.21816036E+00 0.94765106E+03</pdfrwt>
<pdfrwt beam="2">  1       -2 0.14994173E+00 0.94765106E+03</pdfrwt>
<totfact> 0.42307633E+00</totfact>
</mgrwt>
</event>
<event>
 4    1  0.2051094E-007  0.1552446E+04  0.7818608E-02  0.8873463E-01
         -2   -1    0    0    0  501 -0.00000000000E+00  0.00000000000E+00  0.15458048536E+04  0.15458048536E+04  0.25500000000E-02 0.  1.
          2   -1    0    0  501    0  0.00000000000E+00 -0.00000000000E+00 -0.23738169636E+04  0.23738169636E+04  0.25500000000E-02 0. -1.
    8880023    1    1    2    0    0 -0.10065009922E+04 -0.98144548858E+03 -0.16649334672E+04  0.22764211278E+04  0.65864270000E+03 0.  0.
    8880022    1    1    2    0    0  0.10065009922E+04  0.98144548858E+03  0.83692135728E+03  0.16432006894E+04  0.15294330000E+03 0.  0.
<mgrwt>
<rscale>  0 0.15166392E+04</rscale>
<asrwt>0</asrwt>
<pdfrwt beam="1">  1        2 0.36520261E+00 0.15524464E+04</pdfrwt>
<pdfrwt beam="2">  1       -2 0.23781613E+00 0.15524464E+04</pdfrwt>
<totfact> 0.29312157E-01</totfact>
</mgrwt>
</event>
<event>
 4    1  0.2051094E-007  0.9103372E+03  0.7818608E-02  0.9509637E-01
         -2   -1    0    0    0  501 -0.00000000000E+00  0.00000000000E+00  0.70061000395E+03  0.70061000396E+03  0.25500000000E-02 0.  1.
          2   -1    0    0  501    0  0.00000000000E+00 -0.00000000000E+00 -0.16866623580E+04  0.16866623580E+04  0.25500000000E-02 0. -1.
    8880023    1    1    2    0    0 -0.28570897257E+03 -0.55970888478E+03 -0.13627261528E+04  0.16388216579E+04  0.65864270000E+03 0.  0.
    8880022    1    1    2    0    0  0.28570897257E+03  0.55970888478E+03  0.37667379874E+03  0.74845070404E+03  0.15294330000E+03 0.  0.
<mgrwt>
<rscale>  0 0.83577062E+03</rscale>
<asrwt>0</asrwt>
<pdfrwt beam="1">  1        2 0.25948652E+00 0.91033722E+03</pdfrwt>
<pdfrwt beam="2">  1       -2 0.10778616E+00 0.91033722E+03</pdfrwt>
<totfact> 0.69315473E+00</totfact>
</mgrwt>
</event>
<event>
 4    1  0.2051094E-007  0.1407281E+04  0.7818608E-02  0.8978045E-01
          2   -1    0    0  501    0  0.00000000000E+00  0.00000000000E+00  0.19186052183E+04  0.19186052183E+04  0.25500000000E-02 0. -1.
         -2   -1    0    0    0  501 -0.00000000000E+00 -0.00000000000E+00 -0.16476847685E+04  0.16476847685E+04  0.25500000000E-02 0.  1.
    8880023    1    1    2    0    0 -0.66759470465E+03  0.10492607679E+04  0.13219818562E+04  0.19308229031E+04  0.65864270000E+03 0.  0.
    8880022    1    1    2    0    0  0.66759470465E+03 -0.10492607679E+04 -0.10510614064E+04  0.16354670837E+04  0.15294330000E+03 0.  0.
<mgrwt>
<rscale>  0 0.13670171E+04</rscale>
<asrwt>0</asrwt>
<pdfrwt beam="1">  1        2 0.29517003E+00 0.14072814E+04</pdfrwt>
<pdfrwt beam="2">  1       -2 0.25348997E+00 0.14072814E+04</pdfrwt>
<totfact> 0.42977985E-01</totfact>
</mgrwt>
</event>
<event>
 4    1  0.2051094E-007  0.7617510E+03  0.7818608E-02  0.9800595E-01
         -2   -1    0    0    0  501 -0.00000000000E+00  0.00000000000E+00  0.28909511568E+03  0.28909511569E+03  0.25500000000E-02 0.  1.
          2   -1    0    0  501    0  0.00000000000E+00 -0.00000000000E+00 -0.20564435098E+04  0.20564435098E+04  0.25500000000E-02 0. -1.
    8880023    1    1    2    0    0  0.34127205362E+02 -0.38116896680E+03 -0.17769072296E+04  0.19333038965E+04  0.65864270000E+03 0.  0.
    8880022    1    1    2    0    0 -0.34127205362E+02  0.38116896680E+03  0.95588355232E+01  0.41223472895E+03  0.15294330000E+03 0.  0.
<mgrwt>
<rscale>  0 0.65330614E+03</rscale>
<asrwt>0</asrwt>
<pdfrwt beam="1">  1        2 0.31637591E+00 0.76175104E+03</pdfrwt>
<pdfrwt beam="2">  1       -2 0.44476173E-01 0.76175104E+03</pdfrwt>
<totfact> 0.30746163E+01</totfact>
</mgrwt>
</event>
<event>
 4    1  0.2051094E-007  0.7007818E+03  0.7818608E-02  0.9993973E-01
          2   -1    0    0  501    0  0.00000000000E+00  0.00000000000E+00  0.48118037949E+03  0.48118037950E+03  0.25500000000E-02 0. -1.
         -2   -1    0    0    0  501 -0.00000000000E+00 -0.00000000000E+00 -0.82995020967E+03  0.82995020967E+03  0.25500000000E-02 0.  1.
    8880023    1    1    2    0    0 -0.23567455158E+03 -0.41742691776E+02  0.16872804488E+03  0.72080809233E+03  0.65864270000E+03 0. -1.
    8880022    1    1    2    0    0  0.23567455158E+03  0.41742691776E+02 -0.51749787505E+03  0.59032249684E+03  0.15294330000E+03 0.  0.
<mgrwt>
<rscale>  0 0.55915288E+03</rscale>
<asrwt>0</asrwt>
<pdfrwt beam="1">  1        2 0.74027751E-01 0.70078182E+03</pdfrwt>
<pdfrwt beam="2">  1       -2 0.12768465E+00 0.70078182E+03</pdfrwt>
<totfact> 0.29739464E+01</totfact>
</mgrwt>
</event>
<event>
 4    1  0.2051094E-007  0.1281341E+04  0.7818608E-02  0.9081843E-01
         -2   -1    0    0    0  501 -0.00000000000E+00  0.00000000000E+00  0.12337030769E+04  0.12337030769E+04  0.25500000000E-02 0.  1.
          2   -1    0    0  501    0  0.00000000000E+00 -0.00000000000E+00 -0.16584985244E+04  0.16584985244E+04  0.25500000000E-02 0. -1.
    8880023    1    1    2    0    0 -0.39965123768E+03  0.10238671315E+04 -0.10156174888E+04  0.16350272489E+04  0.65864270000E+03 0.  0.
    8880022    1    1    2    0    0  0.39965123768E+03 -0.10238671315E+04  0.59082204131E+03  0.12571743524E+04  0.15294330000E+03 0.  0.
<mgrwt>
<rscale>  0 0.12360875E+04</rscale>
<asrwt>0</asrwt>
<pdfrwt beam="1">  1        2 0.25515362E+00 0.12813412E+04</pdfrwt>
<pdfrwt beam="2">  1       -2 0.18980047E+00 0.12813412E+04</pdfrwt>
<totfact> 0.15465841E+00</totfact>
</mgrwt>
</event>
<event>
 4    1  0.2051094E-007  0.1126168E+04  0.7818608E-02  0.9232466E-01
          2   -1    0    0  501    0  0.00000000000E+00  0.00000000000E+00  0.37902377553E+04  0.37902377553E+04  0.25500000000E-02 0. -1.
         -2   -1    0    0    0  501 -0.00000000000E+00 -0.00000000000E+00 -0.47713139206E+03  0.47713139206E+03  0.25500000000E-02 0.  1.
    8880023    1    1    2    0    0  0.65445602912E+03  0.63728380656E+03  0.31257252960E+04  0.33224105972E+04  0.65864270000E+03 0.  0.
    8880022    1    1    2    0    0 -0.65445602912E+03 -0.63728380656E+03  0.18738106726E+03  0.94495855017E+03  0.15294330000E+03 0.  0.
<mgrwt>
<rscale>  0 0.10724517E+04</rscale>
<asrwt>0</asrwt>
<pdfrwt beam="1">  1        2 0.58311351E+00 0.11261676E+04</pdfrwt>
<pdfrwt beam="2">  1       -2 0.73404829E-01 0.11261676E+04</pdfrwt>
<totfact> 0.85615960E-01</totfact>
</mgrwt>
</event>
<event>
 4    1  0.2051094E-007  0.6608703E+03  0.7818608E-02  0.1023282E+00
          2   -1    0    0  501    0  0.00000000000E+00  0.00000000000E+00  0.87622227760E+03  0.87622227760E+03  0.25500000000E-02 0. -1.
         -2   -1    0    0    0  501 -0.00000000000E+00 -0.00000000000E+00 -0.35819438203E+03  0.35819438204E+03  0.25500000000E-02 0.  1.
    8880023    1    1    2    0    0  0.22054078109E+01  0.54171217878E+02  0.71869077684E+03  0.97635343173E+03  0.65864270000E+03 0. -1.
    8880022    1    1    2    0    0 -0.22054078109E+01 -0.54171217878E+02 -0.20066288127E+03  0.25806322792E+03  0.15294330000E+03 0.  0.
<mgrwt>
<rscale>  0 0.46520641E+03</rscale>
<asrwt>0</asrwt>
<pdfrwt beam="1">  1        2 0.13480343E+00 0.66087033E+03</pdfrwt>
<pdfrwt beam="2">  1       -2 0.55106828E-01 0.66087033E+03</pdfrwt>
<totfact> 0.96096126E+01</totfact>
</mgrwt>
</event>
<event>
 4    1  0.2051094E-007  0.1009860E+04  0.7818608E-02  0.9368770E-01
         -2   -1    0    0    0  501 -0.00000000000E+00  0.00000000000E+00  0.69485026256E+03  0.69485026256E+03  0.25500000000E-02 0.  1.
          2   -1    0    0  501    0  0.00000000000E+00 -0.00000000000E+00 -0.28124939185E+04  0.28124939185E+04  0.25500000000E-02 0. -1.
    8880023    1    1    2    0    0  0.61243030760E+03  0.45927695458E+03 -0.24567691337E+04  0.26562249501E+04  0.65864270000E+03 0.  0.
    8880022    1    1    2    0    0 -0.61243030760E+03 -0.45927695458E+03  0.33912547778E+03  0.85111923100E+03  0.15294330000E+03 0.  0.
<mgrwt>
<rscale>  0 0.94690926E+03</rscale>
<asrwt>0</asrwt>
<pdfrwt beam="1">  1        2 0.43269137E+00 0.10098596E+04</pdfrwt>
<pdfrwt beam="2">  1       -2 0.10690004E+00 0.10098596E+04</pdfrwt>
<totfact> 0.16207191E+00</totfact>
</mgrwt>
</event>
<event>
 4    1  0.2051094E-007  0.7069545E+03  0.7818608E-02  0.9969489E-01
          2   -1    0    0  501    0  0.00000000000E+00  0.00000000000E+00  0.17863509186E+04  0.17863509186E+04  0.25500000000E-02 0. -1.
         -2   -1    0    0    0  501 -0.00000000000E+00 -0.00000000000E+00 -0.64147736536E+03  0.64147736536E+03  0.25500000000E-02 0.  1.
    8880023    1    1    2    0    0  0.32817826455E+02 -0.25474980752E+03  0.16756385517E+04  0.18186668843E+04  0.65864270000E+03 0. -1.
    8880022    1    1    2    0    0 -0.32817826455E+02  0.25474980752E+03 -0.53076499844E+03  0.60916139959E+03  0.15294330000E+03 0.  0.
<mgrwt>
<rscale>  0 0.57008579E+03</rscale>
<asrwt>0</asrwt>
<pdfrwt beam="1">  1        2 0.27482321E+00 0.70695451E+03</pdfrwt>
<pdfrwt beam="2">  1       -2 0.98688828E-01 0.70695451E+03</pdfrwt>
<totfact> 0.77640904E+00</totfact>
</mgrwt>
</event>
<event>
 4    1  0.2051094E-007  0.8197553E+03  0.7818608E-02  0.9669604E-01
          2   -1    0    0  501    0  0.00000000000E+00  0.00000000000E+00  0.36763439188E+04  0.36763439188E+04  0.25500000000E-02 0. -1.
         -2   -1    0    0    0  501 -0.00000000000E+00 -0.00000000000E+00 -0.22621400751E+03  0.22621400753E+03  0.25500000000E-02 0.  1.
    8880023    1    1    2    0    0  0.15295251391E+03 -0.46345881602E+03  0.32525639323E+04  0.33542765070E+04  0.65864270000E+03 0.  0.
    8880022    1    1    2    0    0 -0.15295251391E+03  0.46345881602E+03  0.19756597897E+03  0.54828141927E+03  0.15294330000E+03 0.  0.
<mgrwt>
<rscale>  0 0.72855742E+03</rscale>
<asrwt>0</asrwt>
<pdfrwt beam="1">  1        2 0.56559135E+00 0.81975530E+03</pdfrwt>
<pdfrwt beam="2">  1       -2 0.34802156E-01 0.81975530E+03</pdfrwt>
<totfact> 0.50595991E+00</totfact>
</mgrwt>
</event>
<event>
 4    1  0.2309827E-007  0.8292475E+03  0.7818608E-02  0.9650798E-01
          2   -1    0    0  501    0  0.00000000000E+00  0.00000000000E+00  0.24934195818E+04  0.24934195818E+04  0.25500000000E-02 0. -1.
         -2   -1    0    0    0  501 -0.00000000000E+00 -0.00000000000E+00 -0.10641373201E+04  0.10641373201E+04  0.25500000000E-02 0.  1.
    8880023    1    1    2    0    0 -0.38245267742E+03 -0.32798032992E+03  0.23527054975E+04  0.24945690032E+04  0.65864270000E+03 0.  0.
    8880022    1    1    2    0    0  0.38245267742E+03  0.32798032992E+03 -0.92342323579E+03  0.10629878987E+04  0.15294330000E+03 0.  0.
<mgrwt>
<rscale>  0 0.74023342E+03</rscale>
<asrwt>0</asrwt>
<pdfrwt beam="1">  1        2 0.38360301E+00 0.82924746E+03</pdfrwt>
<pdfrwt beam="2">  1       -2 0.16371344E+00 0.82924746E+03</pdfrwt>
<totfact> 0.86093491E-01</totfact>
</mgrwt>
</event>
<event>
 4    1  0.2051094E-007  0.1013125E+04  0.7818608E-02  0.9364584E-01
          2   -1    0    0  501    0  0.00000000000E+00  0.00000000000E+00  0.46548547777E+04  0.46548547777E+04  0.25500000000E-02 0. -1.
         -2   -1    0    0    0  501 -0.00000000000E+00 -0.00000000000E+00 -0.25943054350E+03  0.25943054352E+03  0.25500000000E-02 0.  1.
    8880023    1    1    2    0    0 -0.55302970596E+03 -0.53550997140E+03  0.37899340649E+04  0.39230120071E+04  0.65864270000E+03 0.  0.
    8880022    1    1    2    0    0  0.55302970596E+03  0.53550997140E+03  0.60549016923E+03  0.99127331408E+03  0.15294330000E+03 0.  0.
<mgrwt>
<rscale>  0 0.95048522E+03</rscale>
<asrwt>0</asrwt>
<pdfrwt beam="1">  1        2 0.71613145E+00 0.10131254E+04</pdfrwt>
<pdfrwt beam="2">  1       -2 0.39912394E-01 0.10131254E+04</pdfrwt>
<totfact> 0.55052643E-01</totfact>
</mgrwt>
</event>
<event>
 4    1  0.2051094E-007  0.7479919E+03  0.7818608E-02  0.9837250E-01
         -2   -1    0    0    0  501 -0.00000000000E+00  0.00000000000E+00  0.61581388168E+03  0.61581388169E+03  0.25500000000E-02 0.  1.
          2   -1    0    0  501    0  0.00000000000E+00 -0.00000000000E+00 -0.58391519028E+03  0.58391519029E+03  0.25500000000E-02 0. -1.
    8880023    1    1    2    0    0  0.29493898891E+03  0.19670468725E+03 -0.16551687548E+03  0.76608601573E+03  0.65864270000E+03 0.  0.
    8880022    1    1    2    0    0 -0.29493898891E+03 -0.19670468725E+03  0.19741556688E+03  0.43364305624E+03  0.15294330000E+03 0.  0.
<mgrwt>
<rscale>  0 0.63401234E+03</rscale>
<asrwt>0</asrwt>
<pdfrwt beam="1">  1        2 0.89833107E-01 0.74799194E+03</pdfrwt>
<pdfrwt beam="2">  1       -2 0.94740596E-01 0.74799194E+03</pdfrwt>
<totfact> 0.48667158E+01</totfact>
</mgrwt>
</event>
<event>
 4    1  0.2051094E-007  0.8932337E+03  0.7818608E-02  0.9536982E-01
          2   -1    0    0  501    0  0.00000000000E+00  0.00000000000E+00  0.46072176556E+04  0.46072176556E+04  0.25500000000E-02 0. -1.
         -2   -1    0    0    0  501 -0.00000000000E+00 -0.00000000000E+00 -0.22842237782E+03  0.22842237784E+03  0.25500000000E-02 0.  1.
    8880023    1    1    2    0    0 -0.55042911229E+03 -0.24715170071E+03  0.40181936875E+04  0.41162782811E+04  0.65864270000E+03 0. -1.
    8880022    1    1    2    0    0  0.55042911229E+03  0.24715170071E+03  0.36060159026E+03  0.71936175234E+03  0.15294330000E+03 0.  0.
<mgrwt>
<rscale>  0 0.81611332E+03</rscale>
<asrwt>0</asrwt>
<pdfrwt beam="1">  1        2 0.70880270E+00 0.89323366E+03</pdfrwt>
<pdfrwt beam="2">  1       -2 0.35141905E-01 0.89323366E+03</pdfrwt>
<totfact> 0.80775796E-01</totfact>
</mgrwt>
</event>
<event>
 4    1  0.2051094E-007  0.1562411E+04  0.7818608E-02  0.8866778E-01
         -2   -1    0    0    0  501 -0.00000000000E+00  0.00000000000E+00  0.19638633257E+04  0.19638633257E+04  0.25500000000E-02 0.  1.
          2   -1    0    0  501    0  0.00000000000E+00 -0.00000000000E+00 -0.35339348115E+04  0.35339348115E+04  0.25500000000E-02 0. -1.
    8880023    1    1    2    0    0 -0.23595201138E+02  0.14166023345E+04  0.14669018260E+04  0.21431122418E+04  0.65864270000E+03 0.  0.
    8880022    1    1    2    0    0  0.23595201138E+02 -0.14166023345E+04 -0.30369733118E+04  0.33546858954E+04  0.15294330000E+03 0.  0.
<mgrwt>
<rscale>  0 0.15268717E+04</rscale>
<asrwt>0</asrwt>
<pdfrwt beam="1">  1        2 0.54368228E+00 0.15624113E+04</pdfrwt>
<pdfrwt beam="2">  1       -2 0.30213282E+00 0.15624113E+04</pdfrwt>
<totfact> 0.22255765E-02</totfact>
</mgrwt>
</event>
<event>
 4    1  0.2051094E-007  0.6810218E+03  0.7818608E-02  0.1008751E+00
          2   -1    0    0  501    0  0.00000000000E+00  0.00000000000E+00  0.11215358661E+04  0.11215358661E+04  0.25500000000E-02 0. -1.
         -2   -1    0    0    0  501 -0.00000000000E+00 -0.00000000000E+00 -0.38113187555E+03  0.38113187556E+03  0.25500000000E-02 0.  1.
    8880023    1    1    2    0    0 -0.16945191366E+03 -0.35588294815E+02  0.96457441505E+03  0.11807601307E+04  0.65864270000E+03 0. -1.
    8880022    1    1    2    0    0  0.16945191366E+03  0.35588294815E+02 -0.22417042450E+03  0.32190761098E+03  0.15294330000E+03 0.  0.
<mgrwt>
<rscale>  0 0.51973872E+03</rscale>
<asrwt>0</asrwt>
<pdfrwt beam="1">  1        2 0.17254398E+00 0.68102179E+03</pdfrwt>
<pdfrwt beam="2">  1       -2 0.58635674E-01 0.68102179E+03</pdfrwt>
<totfact> 0.58770064E+01</totfact>
</mgrwt>
</event>
<event>
 4    1  0.2051094E-007  0.1110319E+04  0.7818608E-02  0.9249654E-01
         -2   -1    0    0    0  501 -0.00000000000E+00  0.00000000000E+00  0.23538221833E+04  0.23538221833E+04  0.25500000000E-02 0.  1.
          2   -1    0    0  501    0  0.00000000000E+00 -0.00000000000E+00 -0.16290730651E+04  0.16290730651E+04  0.25500000000E-02 0. -1.
    8880023    1    1    2    0    0 -0.92064083983E+02  0.88911277292E+03 -0.13326033433E+04  0.17345429356E+04  0.65864270000E+03 0. -1.
    8880022    1    1    2    0    0  0.92064083983E+02 -0.88911277292E+03  0.20573524616E+04  0.22483523128E+04  0.15294330000E+03 0.  0.
<mgrwt>
<rscale>  0 0.10555295E+04</rscale>
<asrwt>0</asrwt>
<pdfrwt beam="1">  1        2 0.25062663E+00 0.11103187E+04</pdfrwt>
<pdfrwt beam="2">  1       -2 0.36212649E+00 0.11103187E+04</pdfrwt>
<totfact> 0.13940673E-01</totfact>
</mgrwt>
</event>
<event>
 4    1  0.2051094E-007  0.7482116E+03  0.7818608E-02  0.9836642E-01
         -2   -1    0    0    0  501 -0.00000000000E+00  0.00000000000E+00  0.59385796683E+03  0.59385796683E+03  0.25500000000E-02 0.  1.
          2   -1    0    0  501    0  0.00000000000E+00 -0.00000000000E+00 -0.22672636950E+04  0.22672636950E+04  0.25500000000E-02 0. -1.
    8880023    1    1    2    0    0  0.22152701542E+03 -0.27737382496E+03 -0.21331025561E+04  0.22605192277E+04  0.65864270000E+03 0.  0.
    8880022    1    1    2    0    0 -0.22152701542E+03  0.27737382496E+03  0.45969682794E+03  0.60060243420E+03  0.15294330000E+03 0.  0.
<mgrwt>
<rscale>  0 0.63432662E+03</rscale>
<asrwt>0</asrwt>
<pdfrwt beam="1">  1        2 0.34880980E+00 0.74821164E+03</pdfrwt>
<pdfrwt beam="2">  1       -2 0.91362765E-01 0.74821164E+03</pdfrwt>
<totfact> 0.50390264E+00</totfact>
</mgrwt>
</event>
<event>
 4    1  0.2051094E-007  0.6792893E+03  0.7818608E-02  0.1009729E+00
         -2   -1    0    0    0  501 -0.00000000000E+00  0.00000000000E+00  0.92767112015E+03  0.92767112016E+03  0.25500000000E-02 0.  1.
          2   -1    0    0  501    0  0.00000000000E+00 -0.00000000000E+00 -0.85663159288E+03  0.85663159289E+03  0.25500000000E-02 0. -1.
    8880023    1    1    2    0    0  0.15375888513E+03  0.63102868928E+02 -0.70324557802E+03  0.97774655002E+03  0.65864270000E+03 0.  0.
    8880022    1    1    2    0    0 -0.15375888513E+03 -0.63102868928E+02  0.77428510529E+03  0.80655616302E+03  0.15294330000E+03 0.  0.
<mgrwt>
<rscale>  0 0.51582664E+03</rscale>
<asrwt>0</asrwt>
<pdfrwt beam="1">  1        2 0.13178948E+00 0.67928931E+03</pdfrwt>
<pdfrwt beam="2">  1       -2 0.14271863E+00 0.67928931E+03</pdfrwt>
<totfact> 0.10993263E+01</totfact>
</mgrwt>
</event>
<event>
 4    1  0.2051094E-007  0.1608272E+04  0.7818608E-02  0.8836738E-01
          2   -1    0    0  501    0  0.00000000000E+00  0.00000000000E+00  0.37442303565E+04  0.37442303565E+04  0.25500000000E-02 0. -1.
         -2   -1    0    0    0  501 -0.00000000000E+00 -0.00000000000E+00 -0.82789930155E+03  0.82789930156E+03  0.25500000000E-02 0.  1.
    8880023    1    1    2    0    0  0.10571978141E+04 -0.10173801963E+04  0.40321501904E+03  0.16580477194E+04  0.65864270000E+03 0.  0.
    8880022    1    1    2    0    0 -0.10571978141E+04  0.10173801963E+04  0.25131160359E+04  0.29140819386E+04  0.15294330000E+03 0.  0.
<mgrwt>
<rscale>  0 0.15739107E+04</rscale>
<asrwt>0</asrwt>
<pdfrwt beam="1">  1        2 0.57603544E+00 0.16082723E+04</pdfrwt>
<pdfrwt beam="2">  1       -2 0.12736912E+00 0.16082723E+04</pdfrwt>
<totfact> 0.23449262E-01</totfact>
</mgrwt>
</event>
<event>
 4    1  0.2051094E-007  0.1028984E+04  0.7818608E-02  0.9344583E-01
          2   -1    0    0  501    0  0.00000000000E+00  0.00000000000E+00  0.12615127349E+04  0.12615127349E+04  0.25500000000E-02 0. -1.
         -2   -1    0    0    0  501 -0.00000000000E+00 -0.00000000000E+00 -0.72412791451E+03  0.72412791451E+03  0.25500000000E-02 0.  1.
    8880023    1    1    2    0    0 -0.67159771177E+03  0.41707808456E+03  0.57648223672E+03  0.11794658073E+04  0.65864270000E+03 0.  0.
    8880022    1    1    2    0    0  0.67159771177E+03 -0.41707808456E+03 -0.39097416333E+02  0.80617484211E+03  0.15294330000E+03 0.  0.
<mgrwt>
<rscale>  0 0.96780064E+03</rscale>
<asrwt>0</asrwt>
<pdfrwt beam="1">  1        2 0.19407888E+00 0.10289839E+04</pdfrwt>
<pdfrwt beam="2">  1       -2 0.11140430E+00 0.10289839E+04</pdfrwt>
<totfact> 0.10991924E+01</totfact>
</mgrwt>
</event>
<event>
 4    1  0.2051094E-007  0.7603144E+03  0.7818608E-02  0.9804294E-01
          2   -1    0    0  501    0  0.00000000000E+00  0.00000000000E+00  0.15763575920E+04  0.15763575920E+04  0.25500000000E-02 0. -1.
         -2   -1    0    0    0  501 -0.00000000000E+00 -0.00000000000E+00 -0.81569302450E+03  0.81569302451E+03  0.25500000000E-02 0.  1.
    8880023    1    1    2    0    0  0.32802475198E+03 -0.19148753603E+03  0.14229905846E+04  0.16133753824E+04  0.65864270000E+03 0. -1.
    8880022    1    1    2    0    0 -0.32802475198E+03  0.19148753603E+03 -0.66232601708E+03  0.77867523415E+03  0.15294330000E+03 0.  0.
<mgrwt>
<rscale>  0 0.65132593E+03</rscale>
<asrwt>0</asrwt>
<pdfrwt beam="1">  1        2 0.24251655E+00 0.76031436E+03</pdfrwt>
<pdfrwt beam="2">  1       -2 0.12549124E+00 0.76031436E+03</pdfrwt>
<totfact> 0.55965351E+00</totfact>
</mgrwt>
</event>
<event>
 4    1  0.2051094E-007  0.1423053E+04  0.7818608E-02  0.8965973E-01
         -2   -1    0    0    0  501 -0.00000000000E+00  0.00000000000E+00  0.73834223787E+03  0.73834223787E+03  0.25500000000E-02 0.  1.
          2   -1    0    0  501    0  0.00000000000E+00 -0.00000000000E+00 -0.30199342501E+04  0.30199342501E+04  0.25500000000E-02 0. -1.
    8880023    1    1    2    0    0 -0.16701528726E+03  0.12503507105E+04 -0.20035858065E+04  0.24575266623E+04  0.65864270000E+03 0.  0.
    8880022    1    1    2    0    0  0.16701528726E+03 -0.12503507105E+04 -0.27800620567E+03  0.13007498256E+04  0.15294330000E+03 0.  0.
<mgrwt>
<rscale>  0 0.13833311E+04</rscale>
<asrwt>0</asrwt>
<pdfrwt beam="1">  1        2 0.46460526E+00 0.14230535E+04</pdfrwt>
<pdfrwt beam="2">  1       -2 0.11359111E+00 0.14230535E+04</pdfrwt>
<totfact> 0.98907327E-01</totfact>
</mgrwt>
</event>
<event>
 4    1  0.2051094E-007  0.1100594E+04  0.7818608E-02  0.9260395E-01
          2   -1    0    0  501    0  0.00000000000E+00  0.00000000000E+00  0.13994517457E+04  0.13994517457E+04  0.25500000000E-02 0. -1.
         -2   -1    0    0    0  501 -0.00000000000E+00 -0.00000000000E+00 -0.81276497332E+03  0.81276497332E+03  0.25500000000E-02 0.  1.
    8880023    1    1    2    0    0  0.84924004879E+03 -0.23725118577E+03  0.70867415276E+03  0.13090172064E+04  0.65864270000E+03 0.  0.
    8880022    1    1    2    0    0 -0.84924004879E+03  0.23725118577E+03 -0.12198738037E+03  0.90319951262E+03  0.15294330000E+03 0.  0.
<mgrwt>
<rscale>  0 0.10451216E+04</rscale>
<asrwt>0</asrwt>
<pdfrwt beam="1">  1        2 0.21530027E+00 0.11005939E+04</pdfrwt>
<pdfrwt beam="2">  1       -2 0.12504077E+00 0.11005939E+04</pdfrwt>
<totfact> 0.68220448E+00</totfact>
</mgrwt>
</event>
<event>
 4    1  0.2051094E-007  0.6711658E+03  0.7818608E-02  0.1014841E+00
         -2   -1    0    0    0  501 -0.00000000000E+00  0.00000000000E+00  0.79640610252E+03  0.79640610252E+03  0.25500000000E-02 0.  1.
          2   -1    0    0  501    0  0.00000000000E+00 -0.00000000000E+00 -0.68664790346E+03  0.68664790346E+03  0.25500000000E-02 0. -1.
    8880023    1    1    2    0    0 -0.90748528372E+02  0.91749499153E+02 -0.50281606233E+03  0.83862236125E+03  0.65864270000E+03 0.  0.
    8880022    1    1    2    0    0  0.90748528372E+02 -0.91749499153E+02  0.61257426139E+03  0.64443164473E+03  0.15294330000E+03 0.  0.
<mgrwt>
<rscale>  0 0.49595328E+03</rscale>
<asrwt>0</asrwt>
<pdfrwt beam="1">  1        2 0.10563814E+00 0.67116576E+03</pdfrwt>
<pdfrwt beam="2">  1       -2 0.12252402E+00 0.67116576E+03</pdfrwt>
<totfact> 0.21620267E+01</totfact>
</mgrwt>
</event>
<event>
 4    1  0.2051094E-007  0.1652370E+04  0.7818608E-02  0.8808920E-01
         -2   -1    0    0    0  501 -0.00000000000E+00  0.00000000000E+00  0.16712149225E+04  0.16712149225E+04  0.25500000000E-02 0.  1.
          2   -1    0    0  501    0  0.00000000000E+00 -0.00000000000E+00 -0.16046976394E+04  0.16046976394E+04  0.25500000000E-02 0. -1.
    8880023    1    1    2    0    0 -0.56777342990E+03 -0.14050443488E+04  0.43536684168E+03  0.17087629393E+04  0.65864270000E+03 0.  0.
    8880022    1    1    2    0    0  0.56777342990E+03  0.14050443488E+04 -0.36884955858E+03  0.15671496226E+04  0.15294330000E+03 0.  0.
<mgrwt>
<rscale>  0 0.16190651E+04</rscale>
<asrwt>0</asrwt>
<pdfrwt beam="1">  1        2 0.24687656E+00 0.16523700E+04</pdfrwt>
<pdfrwt beam="2">  1       -2 0.25710999E+00 0.16523700E+04</pdfrwt>
<totfact> 0.59644617E-01</totfact>
</mgrwt>
</event>
<event>
 4    1  0.2051094E-007  0.8782974E+03  0.7818608E-02  0.9561810E-01
         -2   -1    0    0    0  501 -0.00000000000E+00  0.00000000000E+00  0.40114471138E+03  0.40114471139E+03  0.25500000000E-02 0.  1.
          2   -1    0    0  501    0  0.00000000000E+00 -0.00000000000E+00 -0.41382142114E+04  0.41382142114E+04  0.25500000000E-02 0. -1.
    8880023    1    1    2    0    0 -0.46657239281E+03  0.34627492303E+03 -0.38317506400E+04  0.39311218873E+04  0.65864270000E+03 0. -1.
    8880022    1    1    2    0    0  0.46657239281E+03 -0.34627492303E+03  0.94681139906E+02  0.60823703548E+03  0.15294330000E+03 0.  0.
<mgrwt>
<rscale>  0 0.79876267E+03</rscale>
<asrwt>0</asrwt>
<pdfrwt beam="1">  1        2 0.63664831E+00 0.87829740E+03</pdfrwt>
<pdfrwt beam="2">  1       -2 0.61714574E-01 0.87829740E+03</pdfrwt>
<totfact> 0.69648730E-01</totfact>
</mgrwt>
</event>
<event>
 4    1  0.2051094E-007  0.9470673E+03  0.7818608E-02  0.9454346E-01
         -2   -1    0    0    0  501 -0.00000000000E+00  0.00000000000E+00  0.38030738112E+03  0.38030738112E+03  0.25500000000E-02 0.  1.
          2   -1    0    0  501    0  0.00000000000E+00 -0.00000000000E+00 -0.19717546510E+04  0.19717546510E+04  0.25500000000E-02 0. -1.
    8880023    1    1    2    0    0 -0.61952287597E+03  0.28163401131E+03 -0.12694804901E+04  0.15838299250E+04  0.65864270000E+03 0.  0.
    8880022    1    1    2    0    0  0.61952287597E+03 -0.28163401131E+03 -0.32196677976E+03  0.76823210716E+03  0.15294330000E+03 0. -1.
<mgrwt>
<rscale>  0 0.87735024E+03</rscale>
<asrwt>0</asrwt>
<pdfrwt beam="1">  1        2 0.30334686E+00 0.94706732E+03</pdfrwt>
<pdfrwt beam="2">  1       -2 0.58508829E-01 0.94706732E+03</pdfrwt>
<totfact> 0.19090382E+01</totfact>
</mgrwt>
</event>
<event>
 4    1  0.2051094E-007  0.7946602E+03  0.7818608E-02  0.9722463E-01
         -2   -1    0    0    0  501 -0.00000000000E+00  0.00000000000E+00  0.48706611025E+03  0.48706611026E+03  0.25500000000E-02 0.  1.
          2   -1    0    0  501    0  0.00000000000E+00 -0.00000000000E+00 -0.11224927206E+04  0.11224927206E+04  0.25500000000E-02 0. -1.
    8880023    1    1    2    0    0  0.43614097604E+03  0.86346234836E+02 -0.78415882851E+03  0.11164183346E+04  0.65864270000E+03 0. -1.
    8880022    1    1    2    0    0 -0.43614097604E+03 -0.86346234836E+02  0.14873221821E+03  0.49314049621E+03  0.15294330000E+03 0.  0.
<mgrwt>
<rscale>  0 0.69694966E+03</rscale>
<asrwt>0</asrwt>
<pdfrwt beam="1">  1        2 0.17269119E+00 0.79466020E+03</pdfrwt>
<pdfrwt beam="2">  1       -2 0.74933248E-01 0.79466020E+03</pdfrwt>
<totfact> 0.34206592E+01</totfact>
</mgrwt>
</event>
<event>
 4    1  0.2051094E-007  0.2201603E+04  0.7818608E-02  0.8527899E-01
          2   -1    0    0  501    0  0.00000000000E+00  0.00000000000E+00  0.27445935995E+04  0.27445935995E+04  0.25500000000E-02 0. -1.
         -2   -1    0    0    0  501 -0.00000000000E+00 -0.00000000000E+00 -0.21654835711E+04  0.21654835711E+04  0.25500000000E-02 0.  1.
    8880023    1    1    2    0    0 -0.20490729389E+04  0.46319050088E+03  0.14441984450E+04  0.26330143760E+04  0.65864270000E+03 0.  0.
    8880022    1    1    2    0    0  0.20490729389E+04 -0.46319050088E+03 -0.86508841660E+03  0.22770627946E+04  0.15294330000E+03 0.  0.
<mgrwt>
<rscale>  0 0.21773888E+04</rscale>
<asrwt>0</asrwt>
<pdfrwt beam="1">  1        2 0.42224517E+00 0.22016030E+04</pdfrwt>
<pdfrwt beam="2">  1       -2 0.33315132E+00 0.22016030E+04</pdfrwt>
<totfact> 0.42897496E-02</totfact>
</mgrwt>
</event>
<event>
 4    1  0.2051094E-007  0.7184185E+03  0.7818608E-02  0.9927974E-01
         -2   -1    0    0    0  501 -0.00000000000E+00  0.00000000000E+00  0.25101439726E+03  0.25101439727E+03  0.25500000000E-02 0.  1.
          2   -1    0    0  501    0  0.00000000000E+00 -0.00000000000E+00 -0.20209892320E+04  0.20209892320E+04  0.25500000000E-02 0. -1.
    8880023    1    1    2    0    0 -0.26468028481E+03  0.11072194927E+03 -0.18071927967E+04  0.19447547439E+04  0.65864270000E+03 0. -1.
    8880022    1    1    2    0    0  0.26468028481E+03 -0.11072194927E+03  0.37217962039E+02  0.32724888530E+03  0.15294330000E+03 0.  0.
<mgrwt>
<rscale>  0 0.58924505E+03</rscale>
<asrwt>0</asrwt>
<pdfrwt beam="1">  1        2 0.31092141E+00 0.71841855E+03</pdfrwt>
<pdfrwt beam="2">  1       -2 0.38617601E-01 0.71841855E+03</pdfrwt>
<totfact> 0.42656591E+01</totfact>
</mgrwt>
</event>
<event>
 4    1  0.2051094E-007  0.1812593E+04  0.7818608E-02  0.8715602E-01
         -2   -1    0    0    0  501 -0.00000000000E+00  0.00000000000E+00  0.18467773357E+04  0.18467773357E+04  0.25500000000E-02 0.  1.
          2   -1    0    0  501    0  0.00000000000E+00 -0.00000000000E+00 -0.22938679907E+04  0.22938679907E+04  0.25500000000E-02 0. -1.
    8880023    1    1    2    0    0  0.44533726722E+03  0.16289129511E+04 -0.13116095329E+04  0.22373673049E+04  0.65864270000E+03 0.  0.
    8880022    1    1    2    0    0 -0.44533726722E+03 -0.16289129511E+04  0.86451887795E+03  0.19032780215E+04  0.15294330000E+03 0.  0.
<mgrwt>
<rscale>  0 0.17826100E+04</rscale>
<asrwt>0</asrwt>
<pdfrwt beam="1">  1        2 0.35290277E+00 0.18125929E+04</pdfrwt>
<pdfrwt beam="2">  1       -2 0.28411959E+00 0.18125929E+04</pdfrwt>
<totfact> 0.16440802E-01</totfact>
</mgrwt>
</event>
<event>
 4    1  0.2051094E-007  0.9760751E+03  0.7818608E-02  0.9413551E-01
         -2   -1    0    0    0  501 -0.00000000000E+00  0.00000000000E+00  0.16745211216E+04  0.16745211216E+04  0.25500000000E-02 0.  1.
          2   -1    0    0  501    0  0.00000000000E+00 -0.00000000000E+00 -0.79341960866E+03  0.79341960867E+03  0.25500000000E-02 0. -1.
    8880023    1    1    2    0    0  0.68287312745E+03 -0.22933967292E+03 -0.34704219627E+03  0.10359347885E+04  0.65864270000E+03 0. -1.
    8880022    1    1    2    0    0 -0.68287312745E+03  0.22933967292E+03  0.12281437092E+04  0.14320059417E+04  0.15294330000E+03 0.  0.
<mgrwt>
<rscale>  0 0.90968866E+03</rscale>
<asrwt>0</asrwt>
<pdfrwt beam="1">  1        2 0.12206456E+00 0.97607510E+03</pdfrwt>
<pdfrwt beam="2">  1       -2 0.25761863E+00 0.97607510E+03</pdfrwt>
<totfact> 0.20122651E+00</totfact>
</mgrwt>
</event>
<event>
 4    1  0.2051094E-007  0.1158628E+04  0.7818608E-02  0.9198427E-01
         -2   -1    0    0    0  501 -0.00000000000E+00  0.00000000000E+00  0.79318952848E+03  0.79318952849E+03  0.25500000000E-02 0.  1.
          2   -1    0    0  501    0  0.00000000000E+00 -0.00000000000E+00 -0.20791071187E+04  0.20791071187E+04  0.25500000000E-02 0. -1.
    8880023    1    1    2    0    0 -0.22194713348E+03 -0.92700977019E+03 -0.14880874845E+04  0.18859539262E+04  0.65864270000E+03 0. -1.
    8880022    1    1    2    0    0  0.22194713348E+03  0.92700977019E+03  0.20216989425E+03  0.98634272099E+03  0.15294330000E+03 0.  0.
<mgrwt>
<rscale>  0 0.11069674E+04</rscale>
<asrwt>0</asrwt>
<pdfrwt beam="1">  1        2 0.31986263E+00 0.11586276E+04</pdfrwt>
<pdfrwt beam="2">  1       -2 0.12202916E+00 0.11586276E+04</pdfrwt>
<totfact> 0.30156266E+00</totfact>
</mgrwt>
</event>
<event>
 4    1  0.2051094E-007  0.7921407E+03  0.7818608E-02  0.9728054E-01
          2   -1    0    0  501    0  0.00000000000E+00  0.00000000000E+00  0.30887910671E+03  0.30887910672E+03  0.25500000000E-02 0. -1.
         -2   -1    0    0    0  501 -0.00000000000E+00 -0.00000000000E+00 -0.14376045222E+04  0.14376045222E+04  0.25500000000E-02 0.  1.
    8880023    1    1    2    0    0 -0.19134709568E+03  0.39631172859E+03 -0.97422651114E+03  0.12556290051E+04  0.65864270000E+03 0.  1.
    8880022    1    1    2    0    0  0.19134709568E+03 -0.39631172859E+03 -0.15449890435E+03  0.49085462379E+03  0.15294330000E+03 0.  0.
<mgrwt>
<rscale>  0 0.69370738E+03</rscale>
<asrwt>0</asrwt>
<pdfrwt beam="1">  1        2 0.47519864E-01 0.79214071E+03</pdfrwt>
<pdfrwt beam="2">  1       -2 0.22116992E+00 0.79214071E+03</pdfrwt>
<totfact> 0.10502260E+01</totfact>
</mgrwt>
</event>
<event>
 4    1  0.2051094E-007  0.7032278E+03  0.7818608E-02  0.9984066E-01
         -2   -1    0    0    0  501 -0.00000000000E+00  0.00000000000E+00  0.83898673873E+03  0.83898673873E+03  0.25500000000E-02 0.  1.
          2   -1    0    0  501    0  0.00000000000E+00 -0.00000000000E+00 -0.54956902955E+03  0.54956902955E+03  0.25500000000E-02 0. -1.
    8880023    1    1    2    0    0  0.23931682898E+03  0.58707511414E+02 -0.27412281568E+03  0.75476661351E+03  0.65864270000E+03 0.  0.
    8880022    1    1    2    0    0 -0.23931682898E+03 -0.58707511414E+02  0.56354052486E+03  0.63378915477E+03  0.15294330000E+03 0.  0.
<mgrwt>
<rscale>  0 0.56354483E+03</rscale>
<asrwt>0</asrwt>
<pdfrwt beam="1">  1        2 0.84549082E-01 0.70322779E+03</pdfrwt>
<pdfrwt beam="2">  1       -2 0.12907488E+00 0.70322779E+03</pdfrwt>
<totfact> 0.24781563E+01</totfact>
</mgrwt>
</event>
<event>
 4    1  0.2051094E-007  0.7666156E+03  0.7818608E-02  0.9788272E-01
          2   -1    0    0  501    0  0.00000000000E+00  0.00000000000E+00  0.32534579604E+04  0.32534579604E+04  0.25500000000E-02 0. -1.
         -2   -1    0    0    0  501 -0.00000000000E+00 -0.00000000000E+00 -0.16158198990E+03  0.16158198992E+03  0.25500000000E-02 0.  1.
    8880023    1    1    2    0    0  0.19695071568E+03  0.33926338600E+03  0.27991610452E+04  0.29022408571E+04  0.65864270000E+03 0. -1.
    8880022    1    1    2    0    0 -0.19695071568E+03 -0.33926338600E+03  0.29271492531E+03  0.51279909322E+03  0.15294330000E+03 0.  0.
<mgrwt>
<rscale>  0 0.65995750E+03</rscale>
<asrwt>0</asrwt>
<pdfrwt beam="1">  1        2 0.50053197E+00 0.76661557E+03</pdfrwt>
<pdfrwt beam="2">  1       -2 0.24858769E-01 0.76661557E+03</pdfrwt>
<totfact> 0.18444593E+01</totfact>
</mgrwt>
</event>
<event>
 4    1  0.2051094E-007  0.1452599E+04  0.7818608E-02  0.8943854E-01
          2   -1    0    0  501    0  0.00000000000E+00  0.00000000000E+00  0.14445111460E+04  0.14445111460E+04  0.25500000000E-02 0. -1.
         -2   -1    0    0    0  501 -0.00000000000E+00 -0.00000000000E+00 -0.15010606969E+04  0.15010606969E+04  0.25500000000E-02 0.  1.
    8880023    1    1    2    0    0  0.27189636994E+03  0.12658220741E+04  0.48847897804E+03  0.15325322435E+04  0.65864270000E+03 0.  0.
    8880022    1    1    2    0    0 -0.27189636994E+03 -0.12658220741E+04 -0.54502852888E+03  0.14130395994E+04  0.15294330000E+03 0.  0.
<mgrwt>
<rscale>  0 0.14138502E+04</rscale>
<asrwt>0</asrwt>
<pdfrwt beam="1">  1        2 0.22223248E+00 0.14525988E+04</pdfrwt>
<pdfrwt beam="2">  1       -2 0.23093241E+00 0.14525988E+04</pdfrwt>
<totfact> 0.10886261E+00</totfact>
</mgrwt>
</event>
<event>
 4    1  0.2051094E-007  0.8129592E+03  0.7818608E-02  0.9683446E-01
          2   -1    0    0  501    0  0.00000000000E+00  0.00000000000E+00  0.12590927502E+04  0.12590927502E+04  0.25500000000E-02 0. -1.
         -2   -1    0    0    0  501 -0.00000000000E+00 -0.00000000000E+00 -0.62510861795E+03  0.62510861796E+03  0.25500000000E-02 0.  1.
    8880023    1    1    2    0    0 -0.11997201241E+03 -0.46119319610E+03  0.98182720266E+03  0.12747106770E+04  0.65864270000E+03 0.  0.
    8880022    1    1    2    0    0  0.11997201241E+03  0.46119319610E+03 -0.34784307045E+03  0.60949069113E+03  0.15294330000E+03 0.  0.
<mgrwt>
<rscale>  0 0.72011040E+03</rscale>
<asrwt>0</asrwt>
<pdfrwt beam="1">  1        2 0.19370658E+00 0.81295920E+03</pdfrwt>
<pdfrwt beam="2">  1       -2 0.96170557E-01 0.81295920E+03</pdfrwt>
<totfact> 0.16026811E+01</totfact>
</mgrwt>
</event>
<event>
 4    1  0.2051094E-007  0.2211034E+04  0.7818608E-02  0.8523887E-01
         -2   -1    0    0    0  501 -0.00000000000E+00  0.00000000000E+00  0.21024668181E+04  0.21024668181E+04  0.25500000000E-02 0.  1.
          2   -1    0    0  501    0  0.00000000000E+00 -0.00000000000E+00 -0.38583583182E+04  0.38583583182E+04  0.25500000000E-02 0. -1.
    8880023    1    1    2    0    0  0.17661714375E+04  0.11556390765E+04 -0.28270402661E+04  0.35889873355E+04  0.65864270000E+03 0.  0.
    8880022    1    1    2    0    0 -0.17661714375E+04 -0.11556390765E+04  0.10711487660E+04  0.23718378009E+04  0.15294330000E+03 0.  0.
<mgrwt>
<rscale>  0 0.21869318E+04</rscale>
<asrwt>0</asrwt>
<pdfrwt beam="1">  1        2 0.59359359E+00 0.22110345E+04</pdfrwt>
<pdfrwt beam="2">  1       -2 0.32345643E+00 0.22110345E+04</pdfrwt>
<totfact> 0.87111079E-03</totfact>
</mgrwt>
</event>
<event>
 4    1  0.2051094E-007  0.7823869E+03  0.7818608E-02  0.9750260E-01
         -2   -1    0    0    0  501 -0.00000000000E+00  0.00000000000E+00  0.28628304442E+03  0.28628304443E+03  0.25500000000E-02 0.  1.
          2   -1    0    0  501    0  0.00000000000E+00 -0.00000000000E+00 -0.17651777660E+04  0.17651777660E+04  0.25500000000E-02 0. -1.
    8880023    1    1    2    0    0 -0.16852816112E+03  0.38719147757E+03 -0.13878689182E+04  0.15932072438E+04  0.65864270000E+03 0. -1.
    8880022    1    1    2    0    0  0.16852816112E+03 -0.38719147757E+03 -0.91025803348E+02  0.45825356658E+03  0.15294330000E+03 0.  0.
<mgrwt>
<rscale>  0 0.68101591E+03</rscale>
<asrwt>0</asrwt>
<pdfrwt beam="1">  1        2 0.27156580E+00 0.78238685E+03</pdfrwt>
<pdfrwt beam="2">  1       -2 0.44043546E-01 0.78238685E+03</pdfrwt>
<totfact> 0.45100558E+01</totfact>
</mgrwt>
</event>
<event>
 4    1  0.2051094E-007  0.7156010E+03  0.7818608E-02  0.9937762E-01
         -2   -1    0    0    0  501 -0.00000000000E+00  0.00000000000E+00  0.13753577899E+04  0.13753577899E+04  0.25500000000E-02 0.  1.
          2   -1    0    0  501    0  0.00000000000E+00 -0.00000000000E+00 -0.50142030788E+03  0.50142030789E+03  0.25500000000E-02 0. -1.
    8880023    1    1    2    0    0  0.70027168873E+02 -0.27087053207E+03 -0.21091715641E+03  0.74603679712E+03  0.65864270000E+03 0. -1.
    8880022    1    1    2    0    0 -0.70027168873E+02  0.27087053207E+03  0.10848546384E+04  0.11307413007E+04  0.15294330000E+03 0.  0.
<mgrwt>
<rscale>  0 0.58465592E+03</rscale>
<asrwt>0</asrwt>
<pdfrwt beam="1">  1        2 0.77141586E-01 0.71560105E+03</pdfrwt>
<pdfrwt beam="2">  1       -2 0.21159351E+00 0.71560105E+03</pdfrwt>
<totfact> 0.70391032E+00</totfact>
</mgrwt>
</event>
<event>
 4    1  0.2051094E-007  0.1496290E+04  0.7818608E-02  0.8912260E-01
          2   -1    0    0  501    0  0.00000000000E+00  0.00000000000E+00  0.30964292376E+04  0.30964292376E+04  0.25500000000E-02 0. -1.
         -2   -1    0    0    0  501 -0.00000000000E+00 -0.00000000000E+00 -0.29172729084E+04  0.29172729084E+04  0.25500000000E-02 0.  1.
    8880023    1    1    2    0    0 -0.11971829612E+04  0.60977671771E+03 -0.25564475445E+04  0.29621460028E+04  0.65864270000E+03 0.  0.
    8880022    1    1    2    0    0  0.11971829612E+04 -0.60977671771E+03  0.27356038737E+04  0.30515561432E+04  0.15294330000E+03 0.  0.
<mgrwt>
<rscale>  0 0.14588908E+04</rscale>
<asrwt>0</asrwt>
<pdfrwt beam="1">  1        2 0.47637373E+00 0.14962904E+04</pdfrwt>
<pdfrwt beam="2">  1       -2 0.44881121E+00 0.14962904E+04</pdfrwt>
<totfact> 0.50385245E-03</totfact>
</mgrwt>
</event>
<event>
 4    1  0.2051094E-007  0.1100815E+04  0.7818608E-02  0.9260149E-01
         -2   -1    0    0    0  501 -0.00000000000E+00  0.00000000000E+00  0.63531704048E+03  0.63531704049E+03  0.25500000000E-02 0.  1.
          2   -1    0    0  501    0  0.00000000000E+00 -0.00000000000E+00 -0.27690061842E+04  0.27690061842E+04  0.25500000000E-02 0. -1.
    8880023    1    1    2    0    0 -0.10523293256E+03 -0.87573388769E+03 -0.22468290452E+04  0.25020061504E+04  0.65864270000E+03 0.  0.
    8880022    1    1    2    0    0  0.10523293256E+03  0.87573388769E+03  0.11313990150E+03  0.90231707424E+03  0.15294330000E+03 0.  0.
<mgrwt>
<rscale>  0 0.10453586E+04</rscale>
<asrwt>0</asrwt>
<pdfrwt beam="1">  1        2 0.42600095E+00 0.11008152E+04</pdfrwt>
<pdfrwt beam="2">  1       -2 0.97741084E-01 0.11008152E+04</pdfrwt>
<totfact> 0.21046413E+00</totfact>
</mgrwt>
</event>
<event>
 4    1  0.2051094E-007  0.1057832E+04  0.7818608E-02  0.9309526E-01
          2   -1    0    0  501    0  0.00000000000E+00  0.00000000000E+00  0.30427398068E+04  0.30427398068E+04  0.25500000000E-02 0. -1.
         -2   -1    0    0    0  501 -0.00000000000E+00 -0.00000000000E+00 -0.52709166759E+03  0.52709166760E+03  0.25500000000E-02 0.  1.
    8880023    1    1    2    0    0 -0.76549669725E+03 -0.31497981284E+03  0.25146109173E+04  0.27280534723E+04  0.65864270000E+03 0. -1.
    8880022    1    1    2    0    0  0.76549669725E+03  0.31497981284E+03  0.10372219182E+01  0.84177800212E+03  0.15294330000E+03 0.  0.
<mgrwt>
<rscale>  0 0.99910633E+03</rscale>
<asrwt>0</asrwt>
<pdfrwt beam="1">  1        2 0.46811383E+00 0.10578316E+04</pdfrwt>
<pdfrwt beam="2">  1       -2 0.81091023E-01 0.10578316E+04</pdfrwt>
<totfact> 0.22233692E+00</totfact>
</mgrwt>
</event>
<event>
 4    1  0.2051094E-007  0.7791278E+03  0.7818608E-02  0.9757890E-01
          2   -1    0    0  501    0  0.00000000000E+00  0.00000000000E+00  0.86161928590E+03  0.86161928590E+03  0.25500000000E-02 0. -1.
         -2   -1    0    0    0  501 -0.00000000000E+00 -0.00000000000E+00 -0.47521337015E+03  0.47521337015E+03  0.25500000000E-02 0.  1.
    8880023    1    1    2    0    0 -0.35408107101E+03 -0.21876120115E+03  0.43233388947E+03  0.89104021583E+03  0.65864270000E+03 0.  0.
    8880022    1    1    2    0    0  0.35408107101E+03  0.21876120115E+03 -0.45927973716E+02  0.44579244023E+03  0.15294330000E+03 0.  0.
<mgrwt>
<rscale>  0 0.67672215E+03</rscale>
<asrwt>0</asrwt>
<pdfrwt beam="1">  1        2 0.13255681E+00 0.77912777E+03</pdfrwt>
<pdfrwt beam="2">  1       -2 0.73109750E-01 0.77912777E+03</pdfrwt>
<totfact> 0.53255490E+01</totfact>
</mgrwt>
</event>
<event>
 4    1  0.2051094E-007  0.7689548E+03  0.7818608E-02  0.9782453E-01
         -2   -1    0    0    0  501 -0.00000000000E+00  0.00000000000E+00  0.34960501343E+03  0.34960501344E+03  0.25500000000E-02 0.  1.
          2   -1    0    0  501    0  0.00000000000E+00 -0.00000000000E+00 -0.15063975665E+04  0.15063975665E+04  0.25500000000E-02 0. -1.
    8880023    1    1    2    0    0 -0.10590189937E+03  0.38244749966E+03 -0.12034704429E+04  0.14281570696E+04  0.65864270000E+03 0.  0.
    8880022    1    1    2    0    0  0.10590189937E+03 -0.38244749966E+03  0.46677889848E+02  0.42784551032E+03  0.15294330000E+03 0.  0.
<mgrwt>
<rscale>  0 0.66312793E+03</rscale>
<asrwt>0</asrwt>
<pdfrwt beam="1">  1        2 0.23175347E+00 0.76895482E+03</pdfrwt>
<pdfrwt beam="2">  1       -2 0.53785388E-01 0.76895482E+03</pdfrwt>
<totfact> 0.41831346E+01</totfact>
</mgrwt>
</event>
<event>
 4    1  0.2051094E-007  0.1047539E+04  0.7818608E-02  0.9321845E-01
          2   -1    0    0  501    0  0.00000000000E+00  0.00000000000E+00  0.77796243595E+03  0.77796243595E+03  0.25500000000E-02 0. -1.
         -2   -1    0    0    0  501 -0.00000000000E+00 -0.00000000000E+00 -0.14585222812E+04  0.14585222812E+04  0.25500000000E-02 0.  1.
    8880023    1    1    2    0    0  0.20485365911E+03 -0.78839304759E+03  0.15575345834E+03  0.10590552229E+04  0.65864270000E+03 0.  0.
    8880022    1    1    2    0    0 -0.20485365911E+03  0.78839304759E+03 -0.83631330365E+03  0.11774294943E+04  0.15294330000E+03 0.  0.
<mgrwt>
<rscale>  0 0.98796389E+03</rscale>
<asrwt>0</asrwt>
<pdfrwt beam="1">  1        2 0.11968653E+00 0.10475394E+04</pdfrwt>
<pdfrwt beam="2">  1       -2 0.22438804E+00 0.10475394E+04</pdfrwt>
<totfact> 0.32809578E+00</totfact>
</mgrwt>
</event>
<event>
 4    1  0.2051094E-007  0.1166880E+04  0.7818608E-02  0.9190009E-01
         -2   -1    0    0    0  501 -0.00000000000E+00  0.00000000000E+00  0.65151830673E+03  0.65151830674E+03  0.25500000000E-02 0.  1.
          2   -1    0    0  501    0  0.00000000000E+00 -0.00000000000E+00 -0.33933522489E+04  0.33933522489E+04  0.25500000000E-02 0. -1.
    8880023    1    1    2    0    0 -0.46038039828E+03 -0.84607850630E+03 -0.28344006210E+04  0.30651975526E+04  0.65864270000E+03 0. -1.
    8880022    1    1    2    0    0  0.46038039828E+03  0.84607850630E+03  0.92566678764E+02  0.97967300309E+03  0.15294330000E+03 0.  0.
<mgrwt>
<rscale>  0 0.11157146E+04</rscale>
<asrwt>0</asrwt>
<pdfrwt beam="1">  1        2 0.52205418E+00 0.11668801E+04</pdfrwt>
<pdfrwt beam="2">  1       -2 0.10023359E+00 0.11668801E+04</pdfrwt>
<totfact> 0.79374412E-01</totfact>
</mgrwt>
</event>
<event>
 4    1  0.2051094E-007  0.7086046E+03  0.7818608E-02  0.9963220E-01
          2   -1    0    0  501    0  0.00000000000E+00  0.00000000000E+00  0.17858603463E+04  0.17858603463E+04  0.25500000000E-02 0. -1.
         -2   -1    0    0    0  501 -0.00000000000E+00 -0.00000000000E+00 -0.20643142175E+03  0.20643142176E+03  0.25500000000E-02 0.  1.
    8880023    1    1    2    0    0 -0.24474599406E+03 -0.91703876721E+02  0.15291074914E+04  0.16853160324E+04  0.65864270000E+03 0.  0.
    8880022    1    1    2    0    0  0.24474599406E+03  0.91703876721E+02  0.50321433128E+02  0.30697573562E+03  0.15294330000E+03 0.  0.
<mgrwt>
<rscale>  0 0.57292823E+03</rscale>
<asrwt>0</asrwt>
<pdfrwt beam="1">  1        2 0.27474774E+00 0.70860455E+03</pdfrwt>
<pdfrwt beam="2">  1       -2 0.31758681E-01 0.70860455E+03</pdfrwt>
<totfact> 0.83202996E+01</totfact>
</mgrwt>
</event>
<event>
 4    1  0.2051094E-007  0.1054208E+04  0.7818608E-02  0.9313839E-01
          2   -1    0    0  501    0  0.00000000000E+00  0.00000000000E+00  0.12987769665E+04  0.12987769665E+04  0.25500000000E-02 0. -1.
         -2   -1    0    0    0  501 -0.00000000000E+00 -0.00000000000E+00 -0.78992367021E+03  0.78992367021E+03  0.25500000000E-02 0.  1.
    8880023    1    1    2    0    0 -0.74740470158E+03  0.34486413456E+03  0.65169997469E+03  0.12393821535E+04  0.65864270000E+03 0.  0.
    8880022    1    1    2    0    0  0.74740470158E+03 -0.34486413456E+03 -0.14284667843E+03  0.84931848314E+03  0.15294330000E+03 0.  0.
<mgrwt>
<rscale>  0 0.99518700E+03</rscale>
<asrwt>0</asrwt>
<pdfrwt beam="1">  1        2 0.19981184E+00 0.10542084E+04</pdfrwt>
<pdfrwt beam="2">  1       -2 0.12152672E+00 0.10542084E+04</pdfrwt>
<totfact> 0.84154548E+00</totfact>
</mgrwt>
</event>
<event>
 4    1  0.2051094E-007  0.6663022E+03  0.7818608E-02  0.1018465E+00
         -2   -1    0    0    0  501 -0.00000000000E+00  0.00000000000E+00  0.92123894438E+03  0.92123894439E+03  0.25500000000E-02 0.  1.
          2   -1    0    0  501    0  0.00000000000E+00 -0.00000000000E+00 -0.35492833376E+03  0.35492833377E+03  0.25500000000E-02 0. -1.
    8880023    1    1    2    0    0  0.34837256962E+02  0.94524291649E+02 -0.15224541258E+02  0.66647615794E+03  0.65864270000E+03 0. -1.
    8880022    1    1    2    0    0 -0.34837256962E+02 -0.94524291649E+02  0.58153515188E+03  0.60969112022E+03  0.15294330000E+03 0.  0.
<mgrwt>
<rscale>  0 0.48244638E+03</rscale>
<asrwt>0</asrwt>
<pdfrwt beam="1">  1        2 0.54604360E-01 0.66630225E+03</pdfrwt>
<pdfrwt beam="2">  1       -2 0.14172907E+00 0.66630225E+03</pdfrwt>
<totfact> 0.32222393E+01</totfact>
</mgrwt>
</event>
<event>
 4    1  0.2051094E-007  0.1428716E+04  0.7818608E-02  0.8961685E-01
         -2   -1    0    0    0  501 -0.00000000000E+00  0.00000000000E+00  0.14537235473E+04  0.14537235473E+04  0.25500000000E-02 0.  1.
          2   -1    0    0  501    0  0.00000000000E+00 -0.00000000000E+00 -0.16781121061E+04  0.16781121061E+04  0.25500000000E-02 0. -1.
    8880023    1    1    2    0    0 -0.84364657417E+03 -0.94640325576E+03 -0.89854166824E+03  0.16877813841E+04  0.65864270000E+03 0. -1.
    8880022    1    1    2    0    0  0.84364657417E+03  0.94640325576E+03  0.67415310951E+03  0.14440542693E+04  0.15294330000E+03 0.  0.
<mgrwt>
<rscale>  0 0.13891842E+04</rscale>
<asrwt>0</asrwt>
<pdfrwt beam="1">  1        2 0.25817109E+00 0.14287158E+04</pdfrwt>
<pdfrwt beam="2">  1       -2 0.22364978E+00 0.14287158E+04</pdfrwt>
<totfact> 0.89450491E-01</totfact>
</mgrwt>
</event>
<event>
 4    1  0.2051094E-007  0.6656370E+03  0.7818608E-02  0.1019005E+00
         -2   -1    0    0    0  501 -0.00000000000E+00  0.00000000000E+00  0.14627445373E+03  0.14627445375E+03  0.25500000000E-02 0.  1.
          2   -1    0    0  501    0  0.00000000000E+00 -0.00000000000E+00 -0.16741899438E+04  0.16741899438E+04  0.25500000000E-02 0. -1.
    8880023    1    1    2    0    0 -0.76911926593E+02 -0.57852945695E+02 -0.14954042557E+04  0.16368587300E+04  0.65864270000E+03 0.  0.
    8880022    1    1    2    0    0  0.76911926593E+02  0.57852945695E+02 -0.32511234372E+02  0.18360566754E+03  0.15294330000E+03 0.  0.
<mgrwt>
<rscale>  0 0.48047439E+03</rscale>
<asrwt>0</asrwt>
<pdfrwt beam="1">  1        2 0.25756767E+00 0.66563700E+03</pdfrwt>
<pdfrwt beam="2">  1       -2 0.22503763E-01 0.66563700E+03</pdfrwt>
<totfact> 0.18002917E+02</totfact>
</mgrwt>
</event>
<event>
 4    1  0.2438382E-007  0.7291876E+03  0.7818608E-02  0.9892642E-01
         -2   -1    0    0    0  501 -0.00000000000E+00  0.00000000000E+00  0.73659007819E+03  0.73659007819E+03  0.25500000000E-02 0.  1.
          2   -1    0    0  501    0  0.00000000000E+00 -0.00000000000E+00 -0.28565976263E+04  0.28565976263E+04  0.25500000000E-02 0. -1.
    8880023    1    1    2    0    0 -0.31076348060E+03 -0.36475149909E+02 -0.27653452479E+04  0.28598686899E+04  0.65864270000E+03 0. -1.
    8880022    1    1    2    0    0  0.31076348060E+03  0.36475149909E+02  0.64533769974E+03  0.73331901459E+03  0.15294330000E+03 0.  0.
<mgrwt>
<rscale>  0 0.60619212E+03</rscale>
<asrwt>0</asrwt>
<pdfrwt beam="1">  1        2 0.43947655E+00 0.72918762E+03</pdfrwt>
<pdfrwt beam="2">  1       -2 0.11332155E+00 0.72918762E+03</pdfrwt>
<totfact> 0.13938008E+00</totfact>
</mgrwt>
</event>
<event>
 4    1  0.2051094E-007  0.8443693E+03  0.7818608E-02  0.9621996E-01
          2   -1    0    0  501    0  0.00000000000E+00  0.00000000000E+00  0.35364224479E+04  0.35364224479E+04  0.25500000000E-02 0. -1.
         -2   -1    0    0    0  501 -0.00000000000E+00 -0.00000000000E+00 -0.16934704562E+03  0.16934704564E+03  0.25500000000E-02 0.  1.
    8880023    1    1    2    0    0  0.25664539175E+03 -0.46182505305E+03  0.27614055787E+04  0.28876149697E+04  0.65864270000E+03 0.  0.
    8880022    1    1    2    0    0 -0.25664539175E+03  0.46182505305E+03  0.60566982360E+03  0.81815452390E+03  0.15294330000E+03 0.  0.
<mgrwt>
<rscale>  0 0.75857289E+03</rscale>
<asrwt>0</asrwt>
<pdfrwt beam="1">  1        2 0.54406497E+00 0.84436926E+03</pdfrwt>
<pdfrwt beam="2">  1       -2 0.26053393E-01 0.84436926E+03</pdfrwt>
<totfact> 0.10829257E+01</totfact>
</mgrwt>
</event>
<event>
 4    1  0.2051094E-007  0.1369488E+04  0.7818608E-02  0.9007761E-01
          2   -1    0    0  501    0  0.00000000000E+00  0.00000000000E+00  0.35435353110E+04  0.35435353110E+04  0.25500000000E-02 0. -1.
         -2   -1    0    0    0  501 -0.00000000000E+00 -0.00000000000E+00 -0.13407940208E+04  0.13407940208E+04  0.25500000000E-02 0.  1.
    8880023    1    1    2    0    0  0.86857572349E+03  0.82901389833E+03  0.30924428540E+04  0.33821148476E+04  0.65864270000E+03 0.  0.
    8880022    1    1    2    0    0 -0.86857572349E+03 -0.82901389833E+03 -0.88970156378E+03  0.15022144842E+04  0.15294330000E+03 0.  0.
<mgrwt>
<rscale>  0 0.13278572E+04</rscale>
<asrwt>0</asrwt>
<pdfrwt beam="1">  1        2 0.54515928E+00 0.13694882E+04</pdfrwt>
<pdfrwt beam="2">  1       -2 0.20627600E+00 0.13694882E+04</pdfrwt>
<totfact> 0.88607087E-02</totfact>
</mgrwt>
</event>
<event>
 4    1  0.2051094E-007  0.7419507E+03  0.7818608E-02  0.9854301E-01
         -2   -1    0    0    0  501 -0.00000000000E+00  0.00000000000E+00  0.40681032445E+03  0.40681032446E+03  0.25500000000E-02 0.  1.
          2   -1    0    0  501    0  0.00000000000E+00 -0.00000000000E+00 -0.12065437467E+04  0.12065437467E+04  0.25500000000E-02 0. -1.
    8880023    1    1    2    0    0 -0.33411368333E+03  0.71054543094E+02 -0.95399069276E+03  0.12085483646E+04  0.65864270000E+03 0. -1.
    8880022    1    1    2    0    0  0.33411368333E+03 -0.71054543094E+02  0.15425727055E+03  0.40480570650E+03  0.15294330000E+03 0.  0.
<mgrwt>
<rscale>  0 0.62528118E+03</rscale>
<asrwt>0</asrwt>
<pdfrwt beam="1">  1        2 0.18562211E+00 0.74195074E+03</pdfrwt>
<pdfrwt beam="2">  1       -2 0.62586204E-01 0.74195074E+03</pdfrwt>
<totfact> 0.45279911E+01</totfact>
</mgrwt>
</event>
<event>
 4    1  0.2051094E-007  0.6847103E+03  0.7818608E-02  0.1006776E+00
          2   -1    0    0  501    0  0.00000000000E+00  0.00000000000E+00  0.21353364596E+04  0.21353364596E+04  0.25500000000E-02 0. -1.
         -2   -1    0    0    0  501 -0.00000000000E+00 -0.00000000000E+00 -0.28379131298E+03  0.28379131299E+03  0.25500000000E-02 0.  1.
    8880023    1    1    2    0    0 -0.17082940167E+03  0.76388726810E+02  0.20144723468E+04  0.21276576238E+04  0.65864270000E+03 0. -1.
    8880022    1    1    2    0    0  0.17082940167E+03 -0.76388726810E+02 -0.16292720016E+03  0.29147014877E+03  0.15294330000E+03 0.  0.
<mgrwt>
<rscale>  0 0.52776505E+03</rscale>
<asrwt>0</asrwt>
<pdfrwt beam="1">  1        2 0.32851330E+00 0.68471025E+03</pdfrwt>
<pdfrwt beam="2">  1       -2 0.43660202E-01 0.68471025E+03</pdfrwt>
<totfact> 0.29188579E+01</totfact>
</mgrwt>
</event>
<event>
 4    1  0.2051094E-007  0.8328074E+03  0.7818608E-02  0.9643895E-01
         -2   -1    0    0    0  501 -0.00000000000E+00  0.00000000000E+00  0.22836537169E+03  0.22836537170E+03  0.25500000000E-02 0.  1.
          2   -1    0    0  501    0  0.00000000000E+00 -0.00000000000E+00 -0.26184042599E+04  0.26184042599E+04  0.25500000000E-02 0. -1.
    8880023    1    1    2    0    0 -0.37202483224E+03  0.34836124060E+03 -0.20565735454E+04  0.22187976437E+04  0.65864270000E+03 0.  0.
    8880022    1    1    2    0    0  0.37202483224E+03 -0.34836124060E+03 -0.33346534286E+03  0.62797198795E+03  0.15294330000E+03 0.  0.
<mgrwt>
<rscale>  0 0.74457844E+03</rscale>
<asrwt>0</asrwt>
<pdfrwt beam="1">  1        2 0.40283140E+00 0.83280744E+03</pdfrwt>
<pdfrwt beam="2">  1       -2 0.35133136E-01 0.83280744E+03</pdfrwt>
<totfact> 0.23371567E+01</totfact>
</mgrwt>
</event>
<event>
 4    1  0.2051094E-007  0.7702777E+03  0.7818608E-02  0.9779191E-01
         -2   -1    0    0    0  501 -0.00000000000E+00  0.00000000000E+00  0.57721505063E+03  0.57721505064E+03  0.25500000000E-02 0.  1.
          2   -1    0    0  501    0  0.00000000000E+00 -0.00000000000E+00 -0.80308071941E+03  0.80308071941E+03  0.25500000000E-02 0. -1.
    8880023    1    1    2    0    0  0.36259629877E+03  0.16745597714E+03 -0.45548792969E+03  0.89487263928E+03  0.65864270000E+03 0. -1.
    8880022    1    1    2    0    0 -0.36259629877E+03 -0.16745597714E+03  0.22962226092E+03  0.48542313077E+03  0.15294330000E+03 0.  0.
<mgrwt>
<rscale>  0 0.66491321E+03</rscale>
<asrwt>0</asrwt>
<pdfrwt beam="1">  1        2 0.12355088E+00 0.77027773E+03</pdfrwt>
<pdfrwt beam="2">  1       -2 0.88802316E-01 0.77027773E+03</pdfrwt>
<totfact> 0.37811256E+01</totfact>
</mgrwt>
</event>
<event>
 4    1  0.2051094E-007  0.9339803E+03  0.7818608E-02  0.9473547E-01
         -2   -1    0    0    0  501 -0.00000000000E+00  0.00000000000E+00  0.18953341623E+04  0.18953341623E+04  0.25500000000E-02 0.  1.
          2   -1    0    0  501    0  0.00000000000E+00 -0.00000000000E+00 -0.68203251776E+03  0.68203251777E+03  0.25500000000E-02 0. -1.
    8880023    1    1    2    0    0  0.35972255304E+03  0.55597548828E+03 -0.24748952804E+03  0.96621443349E+03  0.65864270000E+03 0. -1.
    8880022    1    1    2    0    0 -0.35972255304E+03 -0.55597548828E+03  0.14607911726E+04  0.16111522466E+04  0.15294330000E+03 0.  0.
<mgrwt>
<rscale>  0 0.86262468E+03</rscale>
<asrwt>0</asrwt>
<pdfrwt beam="1">  1        2 0.10492808E+00 0.93398033E+03</pdfrwt>
<pdfrwt beam="2">  1       -2 0.29158987E+00 0.93398033E+03</pdfrwt>
<totfact> 0.15341374E+00</totfact>
</mgrwt>
</event>
<event>
 4    1  0.2051094E-007  0.6735367E+03  0.7818608E-02  0.1013245E+00
          2   -1    0    0  501    0  0.00000000000E+00  0.00000000000E+00  0.19023105673E+04  0.19023105673E+04  0.25500000000E-02 0. -1.
         -2   -1    0    0    0  501 -0.00000000000E+00 -0.00000000000E+00 -0.32067853384E+03  0.32067853385E+03  0.25500000000E-02 0.  1.
    8880023    1    1    2    0    0  0.13444888249E+03 -0.42011648564E+02  0.17997446337E+04  0.19216483637E+04  0.65864270000E+03 0. -1.
    8880022    1    1    2    0    0 -0.13444888249E+03  0.42011648564E+02 -0.21811260032E+03  0.30134073746E+03  0.15294330000E+03 0.  0.
<mgrwt>
<rscale>  0 0.50205123E+03</rscale>
<asrwt>0</asrwt>
<pdfrwt beam="1">  1        2 0.29266315E+00 0.67353670E+03</pdfrwt>
<pdfrwt beam="2">  1       -2 0.49335161E-01 0.67353670E+03</pdfrwt>
<totfact> 0.30657435E+01</totfact>
</mgrwt>
</event>
<event>
 4    1  0.2051094E-007  0.7590199E+03  0.7818608E-02  0.9807652E-01
          2   -1    0    0  501    0  0.00000000000E+00  0.00000000000E+00  0.79554932498E+03  0.79554932499E+03  0.25500000000E-02 0. -1.
         -2   -1    0    0    0  501 -0.00000000000E+00 -0.00000000000E+00 -0.17093958072E+04  0.17093958072E+04  0.25500000000E-02 0.  1.
    8880023    1    1    2    0    0  0.25865154180E+03  0.27459124712E+03  0.58087684148E+03  0.95578715429E+03  0.65864270000E+03 0. -1.
    8880022    1    1    2    0    0 -0.25865154180E+03 -0.27459124712E+03 -0.14947233237E+04  0.15491579779E+04  0.15294330000E+03 0.  0.
<mgrwt>
<rscale>  0 0.64953530E+03</rscale>
<asrwt>0</asrwt>
<pdfrwt beam="1">  1        2 0.12239220E+00 0.75901988E+03</pdfrwt>
<pdfrwt beam="2">  1       -2 0.26298397E+00 0.75901988E+03</pdfrwt>
<totfact> 0.19181760E+00</totfact>
</mgrwt>
</event>
<event>
 4    1  0.2051094E-007  0.2083062E+04  0.7818608E-02  0.8580267E-01
          2   -1    0    0  501    0  0.00000000000E+00  0.00000000000E+00  0.53223629623E+04  0.53223629623E+04  0.25500000000E-02 0. -1.
         -2   -1    0    0    0  501 -0.00000000000E+00 -0.00000000000E+00 -0.90956910292E+03  0.90956910292E+03  0.25500000000E-02 0.  1.
    8880023    1    1    2    0    0  0.12700851933E+04 -0.15140081333E+04  0.10604486374E+04  0.23374555707E+04  0.65864270000E+03 0.  0.
    8880022    1    1    2    0    0 -0.12700851933E+04  0.15140081333E+04  0.33523452219E+04  0.38944764945E+04  0.15294330000E+03 0.  0.
<mgrwt>
<rscale>  0 0.20573499E+04</rscale>
<asrwt>0</asrwt>
<pdfrwt beam="1">  1        2 0.81882508E+00 0.20830620E+04</pdfrwt>
<pdfrwt beam="2">  1       -2 0.13993371E+00 0.20830620E+04</pdfrwt>
<totfact> 0.39525835E-03</totfact>
</mgrwt>
</event>
<event>
 4    1  0.2051094E-007  0.1259504E+04  0.7818608E-02  0.9101344E-01
          2   -1    0    0  501    0  0.00000000000E+00  0.00000000000E+00  0.22551228034E+04  0.22551228034E+04  0.25500000000E-02 0. -1.
         -2   -1    0    0    0  501 -0.00000000000E+00 -0.00000000000E+00 -0.99774110352E+03  0.99774110352E+03  0.25500000000E-02 0.  1.
    8880023    1    1    2    0    0 -0.94410236737E+03  0.51108860641E+03  0.16707806066E+04  0.20923333590E+04  0.65864270000E+03 0.  0.
    8880022    1    1    2    0    0  0.94410236737E+03 -0.51108860641E+03 -0.41339890666E+03  0.11605305479E+04  0.15294330000E+03 0.  0.
<mgrwt>
<rscale>  0 0.12132423E+04</rscale>
<asrwt>0</asrwt>
<pdfrwt beam="1">  1        2 0.34694197E+00 0.12595043E+04</pdfrwt>
<pdfrwt beam="2">  1       -2 0.15349863E+00 0.12595043E+04</pdfrwt>
<totfact> 0.13112033E+00</totfact>
</mgrwt>
</event>
<event>
 4    1  0.2051094E-007  0.7058751E+03  0.7818608E-02  0.9973650E-01
         -2   -1    0    0    0  501 -0.00000000000E+00  0.00000000000E+00  0.45433853870E+03  0.45433853870E+03  0.25500000000E-02 0.  1.
          2   -1    0    0  501    0  0.00000000000E+00 -0.00000000000E+00 -0.18191037956E+04  0.18191037956E+04  0.25500000000E-02 0. -1.
    8880023    1    1    2    0    0 -0.16247525080E+03  0.19506710771E+03 -0.16911609034E+04  0.18325623567E+04  0.65864270000E+03 0. -1.
    8880022    1    1    2    0    0  0.16247525080E+03 -0.19506710771E+03  0.32639564648E+03  0.44087997765E+03  0.15294330000E+03 0.  0.
<mgrwt>
<rscale>  0 0.56820893E+03</rscale>
<asrwt>0</asrwt>
<pdfrwt beam="1">  1        2 0.27986212E+00 0.70587505E+03</pdfrwt>
<pdfrwt beam="2">  1       -2 0.69898238E-01 0.70587505E+03</pdfrwt>
<totfact> 0.16284117E+01</totfact>
</mgrwt>
</event>
<event>
 4    1  0.2154774E-007  0.6913121E+03  0.7818608E-02  0.1003535E+00
         -2   -1    0    0    0  501 -0.00000000000E+00  0.00000000000E+00  0.69385500671E+03  0.69385500671E+03  0.25500000000E-02 0.  1.
          2   -1    0    0  501    0  0.00000000000E+00 -0.00000000000E+00 -0.30652403145E+04  0.30652403145E+04  0.25500000000E-02 0. -1.
    8880023    1    1    2    0    0 -0.20446965700E+03 -0.47900024505E+02 -0.30001524392E+04  0.30787703905E+04  0.65864270000E+03 0. -1.
    8880022    1    1    2    0    0  0.20446965700E+03  0.47900024505E+02  0.62876713131E+03  0.68032493076E+03  0.15294330000E+03 0.  0.
<mgrwt>
<rscale>  0 0.54126968E+03</rscale>
<asrwt>0</asrwt>
<pdfrwt beam="1">  1        2 0.47157543E+00 0.69131213E+03</pdfrwt>
<pdfrwt beam="2">  1       -2 0.10674693E+00 0.69131213E+03</pdfrwt>
<totfact> 0.12141248E+00</totfact>
</mgrwt>
</event>
<event>
 4    1  0.2051094E-007  0.2347844E+04  0.7818608E-02  0.8468033E-01
         -2   -1    0    0    0  501 -0.00000000000E+00  0.00000000000E+00  0.18597583794E+04  0.18597583794E+04  0.25500000000E-02 0.  1.
          2   -1    0    0  501    0  0.00000000000E+00 -0.00000000000E+00 -0.42408281829E+04  0.42408281829E+04  0.25500000000E-02 0. -1.
    8880023    1    1    2    0    0 -0.19302310336E+04  0.11630857814E+04 -0.29509993463E+04  0.37710433207E+04  0.65864270000E+03 0.  0.
    8880022    1    1    2    0    0  0.19302310336E+04 -0.11630857814E+04  0.56992954280E+03  0.23295432417E+04  0.15294330000E+03 0.  0.
<mgrwt>
<rscale>  0 0.23252462E+04</rscale>
<asrwt>0</asrwt>
<pdfrwt beam="1">  1        2 0.65243510E+00 0.23478438E+04</pdfrwt>
<pdfrwt beam="2">  1       -2 0.28611667E+00 0.23478438E+04</pdfrwt>
<totfact> 0.70641084E-03</totfact>
</mgrwt>
</event>
<event>
 4    1  0.2051094E-007  0.1200100E+04  0.7818608E-02  0.9157025E-01
          2   -1    0    0  501    0  0.00000000000E+00  0.00000000000E+00  0.19831610975E+04  0.19831610975E+04  0.25500000000E-02 0. -1.
         -2   -1    0    0    0  501 -0.00000000000E+00 -0.00000000000E+00 -0.79292094611E+03  0.79292094612E+03  0.25500000000E-02 0.  1.
    8880023    1    1    2    0    0  0.41668516471E+03 -0.91258031982E+03  0.12833109675E+04  0.17570220864E+04  0.65864270000E+03 0.  0.
    8880022    1    1    2    0    0 -0.41668516471E+03  0.91258031982E+03 -0.93070816074E+02  0.10190599572E+04  0.15294330000E+03 0.  0.
<mgrwt>
<rscale>  0 0.11508222E+04</rscale>
<asrwt>0</asrwt>
<pdfrwt beam="1">  1        2 0.30510170E+00 0.12000998E+04</pdfrwt>
<pdfrwt beam="2">  1       -2 0.12198784E+00 0.12000998E+04</pdfrwt>
<totfact> 0.33960498E+00</totfact>
</mgrwt>
</event>
<event>
 4    1  0.2051094E-007  0.7964204E+03  0.7818608E-02  0.9718590E-01
          2   -1    0    0  501    0  0.00000000000E+00  0.00000000000E+00  0.31711793867E+04  0.31711793867E+04  0.25500000000E-02 0. -1.
         -2   -1    0    0    0  501 -0.00000000000E+00 -0.00000000000E+00 -0.16800044971E+03  0.16800044973E+03  0.25500000000E-02 0.  1.
    8880023    1    1    2    0    0  0.35980356190E+03 -0.26648944334E+03  0.25944549612E+04  0.27139421473E+04  0.65864270000E+03 0.  0.
    8880022    1    1    2    0    0 -0.35980356190E+03  0.26648944334E+03  0.40872397570E+03  0.62523768912E+03  0.15294330000E+03 0.  0.
<mgrwt>
<rscale>  0 0.69920658E+03</rscale>
<asrwt>0</asrwt>
<pdfrwt beam="1">  1        2 0.48787375E+00 0.79642039E+03</pdfrwt>
<pdfrwt beam="2">  1       -2 0.25846223E-01 0.79642039E+03</pdfrwt>
<totfact> 0.19307216E+01</totfact>
</mgrwt>
</event>
<event>
 4    1  0.2051094E-007  0.7124587E+03  0.7818608E-02  0.9948982E-01
          2   -1    0    0  501    0  0.00000000000E+00  0.00000000000E+00  0.10709858702E+04  0.10709858702E+04  0.25500000000E-02 0. -1.
         -2   -1    0    0    0  501 -0.00000000000E+00 -0.00000000000E+00 -0.40369673539E+03  0.40369673539E+03  0.25500000000E-02 0.  1.
    8880023    1    1    2    0    0 -0.19149597227E+03  0.19265628394E+03  0.85333155902E+03  0.11116528716E+04  0.65864270000E+03 0. -1.
    8880022    1    1    2    0    0  0.19149597227E+03 -0.19265628394E+03 -0.18604242419E+03  0.36302973398E+03  0.15294330000E+03 0.  0.
<mgrwt>
<rscale>  0 0.57945031E+03</rscale>
<asrwt>0</asrwt>
<pdfrwt beam="1">  1        2 0.16476705E+00 0.71245867E+03</pdfrwt>
<pdfrwt beam="2">  1       -2 0.62107192E-01 0.71245867E+03</pdfrwt>
<totfact> 0.55718418E+01</totfact>
</mgrwt>
</event>
<event>
 4    1  0.2051094E-007  0.1065971E+04  0.7818608E-02  0.9299923E-01
          2   -1    0    0  501    0  0.00000000000E+00  0.00000000000E+00  0.25009903578E+04  0.25009903579E+04  0.25500000000E-02 0. -1.
         -2   -1    0    0    0  501 -0.00000000000E+00 -0.00000000000E+00 -0.83921840758E+03  0.83921840759E+03  0.25500000000E-02 0.  1.
    8880023    1    1    2    0    0  0.45998895314E+03 -0.70063904214E+03  0.21199320010E+04  0.23728478248E+04  0.65864270000E+03 0. -1.
    8880022    1    1    2    0    0 -0.45998895314E+03  0.70063904214E+03 -0.45816005075E+03  0.96736094065E+03  0.15294330000E+03 0.  0.
<mgrwt>
<rscale>  0 0.10078990E+04</rscale>
<asrwt>0</asrwt>
<pdfrwt beam="1">  1        2 0.38476773E+00 0.10659714E+04</pdfrwt>
<pdfrwt beam="2">  1       -2 0.12911053E+00 0.10659714E+04</pdfrwt>
<totfact> 0.15317892E+00</totfact>
</mgrwt>
</event>
<event>
 4    1  0.2051094E-007  0.1038786E+04  0.7818608E-02  0.9332485E-01
          2   -1    0    0  501    0  0.00000000000E+00  0.00000000000E+00  0.16007426268E+04  0.16007426268E+04  0.25500000000E-02 0. -1.
         -2   -1    0    0    0  501 -0.00000000000E+00 -0.00000000000E+00 -0.84612608017E+03  0.84612608017E+03  0.25500000000E-02 0.  1.
    8880023    1    1    2    0    0 -0.55418102981E+03  0.58150710399E+03  0.11405086256E+04  0.15426721159E+04  0.65864270000E+03 0.  0.
    8880022    1    1    2    0    0  0.55418102981E+03 -0.58150710399E+03 -0.38589207894E+03  0.90419659112E+03  0.15294330000E+03 0.  0.
<mgrwt>
<rscale>  0 0.97846497E+03</rscale>
<asrwt>0</asrwt>
<pdfrwt beam="1">  1        2 0.24626810E+00 0.10387865E+04</pdfrwt>
<pdfrwt beam="2">  1       -2 0.13017324E+00 0.10387865E+04</pdfrwt>
<totfact> 0.47734719E+00</totfact>
</mgrwt>
</event>
<event>
 4    1  0.2051094E-007  0.1606743E+04  0.7818608E-02  0.8837721E-01
          2   -1    0    0  501    0  0.00000000000E+00  0.00000000000E+00  0.21714146025E+04  0.21714146025E+04  0.25500000000E-02 0. -1.
         -2   -1    0    0    0  501 -0.00000000000E+00 -0.00000000000E+00 -0.17640431466E+04  0.17640431466E+04  0.25500000000E-02 0.  1.
    8880023    1    1    2    0    0  0.14494178824E+04  0.21679342574E+03  0.14226423099E+04  0.21460505436E+04  0.65864270000E+03 0. -1.
    8880022    1    1    2    0    0 -0.14494178824E+04 -0.21679342574E+03 -0.10152708539E+04  0.17894072055E+04  0.15294330000E+03 0.  1.
<mgrwt>
<rscale>  0 0.15723430E+04</rscale>
<asrwt>0</asrwt>
<pdfrwt beam="1">  1        2 0.33406379E+00 0.16067426E+04</pdfrwt>
<pdfrwt beam="2">  1       -2 0.27139125E+00 0.16067426E+04</pdfrwt>
<totfact> 0.23582698E-01</totfact>
</mgrwt>
</event>
<event>
 4    1  0.2051094E-007  0.2027127E+04  0.7818608E-02  0.8606322E-01
          2   -1    0    0  501    0  0.00000000000E+00  0.00000000000E+00  0.44814345896E+04  0.44814345896E+04  0.25500000000E-02 0. -1.
         -2   -1    0    0    0  501 -0.00000000000E+00 -0.00000000000E+00 -0.13945718825E+04  0.13945718825E+04  0.25500000000E-02 0.  1.
    8880023    1    1    2    0    0 -0.13410914392E+04  0.13700029121E+04 -0.23180148187E+03  0.20403373154E+04  0.65864270000E+03 0.  0.
    8880022    1    1    2    0    0  0.13410914392E+04 -0.13700029121E+04  0.33186641889E+04  0.38356691567E+04  0.15294330000E+03 0.  0.
<mgrwt>
<rscale>  0 0.20006390E+04</rscale>
<asrwt>0</asrwt>
<pdfrwt beam="1">  1        2 0.68945148E+00 0.20271271E+04</pdfrwt>
<pdfrwt beam="2">  1       -2 0.21454952E+00 0.20271271E+04</pdfrwt>
<totfact> 0.12293474E-02</totfact>
</mgrwt>
</event>
<event>
 4    1  0.2051094E-007  0.7729501E+03  0.7818608E-02  0.9772666E-01
          2   -1    0    0  501    0  0.00000000000E+00  0.00000000000E+00  0.33812926094E+04  0.33812926094E+04  0.25500000000E-02 0. -1.
         -2   -1    0    0    0  501 -0.00000000000E+00 -0.00000000000E+00 -0.38001823726E+03  0.38001823727E+03  0.25500000000E-02 0.  1.
    8880023    1    1    2    0    0 -0.33575005505E+03  0.22564018101E+03  0.31951895072E+04  0.32873527015E+04  0.65864270000E+03 0. -1.
    8880022    1    1    2    0    0  0.33575005505E+03 -0.22564018101E+03 -0.19391513508E+03  0.47395814518E+03  0.15294330000E+03 0.  0.
<mgrwt>
<rscale>  0 0.66850310E+03</rscale>
<asrwt>0</asrwt>
<pdfrwt beam="1">  1        2 0.52019885E+00 0.77295006E+03</pdfrwt>
<pdfrwt beam="2">  1       -2 0.58464345E-01 0.77295006E+03</pdfrwt>
<totfact> 0.28911694E+00</totfact>
</mgrwt>
</event>
<event>
 4    1  0.2051094E-007  0.1702460E+04  0.7818608E-02  0.8778502E-01
          2   -1    0    0  501    0  0.00000000000E+00  0.00000000000E+00  0.26011756730E+04  0.26011756730E+04  0.25500000000E-02 0. -1.
         -2   -1    0    0    0  501 -0.00000000000E+00 -0.00000000000E+00 -0.11867837114E+04  0.11867837114E+04  0.25500000000E-02 0.  1.
    8880023    1    1    2    0    0 -0.13941025231E+04  0.72183001111E+03  0.14101458897E+04  0.22106293327E+04  0.65864270000E+03 0.  0.
    8880022    1    1    2    0    0  0.13941025231E+04 -0.72183001111E+03  0.42460718377E+01  0.15773300517E+04  0.15294330000E+03 0.  0.
<mgrwt>
<rscale>  0 0.16702750E+04</rscale>
<asrwt>0</asrwt>
<pdfrwt beam="1">  1        2 0.40018086E+00 0.17024602E+04</pdfrwt>
<pdfrwt beam="2">  1       -2 0.18258211E+00 0.17024602E+04</pdfrwt>
<totfact> 0.48760488E-01</totfact>
</mgrwt>
</event>
<event>
 4    1  0.2051094E-007  0.1186447E+04  0.7818608E-02  0.9170411E-01
         -2   -1    0    0    0  501 -0.00000000000E+00  0.00000000000E+00  0.24889129936E+04  0.24889129936E+04  0.25500000000E-02 0.  1.
          2   -1    0    0  501    0  0.00000000000E+00 -0.00000000000E+00 -0.12297991904E+04  0.12297991904E+04  0.25500000000E-02 0. -1.
    8880023    1    1    2    0    0  0.98280929917E+03  0.89058794751E+02 -0.79949190961E+03  0.14306792468E+04  0.65864270000E+03 0. -1.
    8880022    1    1    2    0    0 -0.98280929917E+03 -0.89058794751E+02  0.20586057129E+04  0.22880329372E+04  0.15294330000E+03 0.  0.
<mgrwt>
<rscale>  0 0.11364125E+04</rscale>
<asrwt>0</asrwt>
<pdfrwt beam="1">  1        2 0.18919988E+00 0.11864467E+04</pdfrwt>
<pdfrwt beam="2">  1       -2 0.38290969E+00 0.11864467E+04</pdfrwt>
<totfact> 0.17178180E-01</totfact>
</mgrwt>
</event>
<event>
 4    1  0.2051094E-007  0.9802835E+03  0.7818608E-02  0.9407820E-01
         -2   -1    0    0    0  501 -0.00000000000E+00  0.00000000000E+00  0.53938208788E+03  0.53938208789E+03  0.25500000000E-02 0.  1.
          2   -1    0    0  501    0  0.00000000000E+00 -0.00000000000E+00 -0.19090210087E+04  0.19090210087E+04  0.25500000000E-02 0. -1.
    8880023    1    1    2    0    0 -0.46401115483E+03 -0.55842564661E+03 -0.13961729583E+04  0.17059468603E+04  0.65864270000E+03 0.  0.
    8880022    1    1    2    0    0  0.46401115483E+03  0.55842564661E+03  0.26534037452E+02  0.74245623626E+03  0.15294330000E+03 0.  0.
<mgrwt>
<rscale>  0 0.91434924E+03</rscale>
<asrwt>0</asrwt>
<pdfrwt beam="1">  1        2 0.29369554E+00 0.98028351E+03</pdfrwt>
<pdfrwt beam="2">  1       -2 0.82981861E-01 0.98028351E+03</pdfrwt>
<totfact> 0.95806307E+00</totfact>
</mgrwt>
</event>
<event>
 4    1  0.2051094E-007  0.8859247E+03  0.7818608E-02  0.9549016E-01
          2   -1    0    0  501    0  0.00000000000E+00  0.00000000000E+00  0.26826917514E+04  0.26826917514E+04  0.25500000000E-02 0. -1.
         -2   -1    0    0    0  501 -0.00000000000E+00 -0.00000000000E+00 -0.10011706570E+04  0.10011706570E+04  0.25500000000E-02 0.  1.
    8880023    1    1    2    0    0  0.58821097517E+03  0.71134699696E+02  0.25055003344E+04  0.26575165905E+04  0.65864270000E+03 0. -1.
    8880022    1    1    2    0    0 -0.58821097517E+03 -0.71134699696E+02 -0.82397924010E+03  0.10263458179E+04  0.15294330000E+03 0.  0.
<mgrwt>
<rscale>  0 0.80764581E+03</rscale>
<asrwt>0</asrwt>
<pdfrwt beam="1">  1        2 0.41272181E+00 0.88592466E+03</pdfrwt>
<pdfrwt beam="2">  1       -2 0.15402625E+00 0.88592466E+03</pdfrwt>
<totfact> 0.78178178E-01</totfact>
</mgrwt>
</event>
<event>
 4    1  0.2051094E-007  0.1369871E+04  0.7818608E-02  0.9007454E-01
         -2   -1    0    0    0  501 -0.00000000000E+00  0.00000000000E+00  0.79012016939E+03  0.79012016939E+03  0.25500000000E-02 0.  1.
          2   -1    0    0  501    0  0.00000000000E+00 -0.00000000000E+00 -0.23947593065E+04  0.23947593065E+04  0.25500000000E-02 0. -1.
    8880023    1    1    2    0    0  0.10209985975E+04  0.63269174753E+03 -0.29502092721E+03  0.14012796071E+04  0.65864270000E+03 0.  0.
    8880022    1    1    2    0    0 -0.10209985975E+04 -0.63269174753E+03 -0.13096182099E+04  0.17835998689E+04  0.15294330000E+03 0.  0.
<mgrwt>
<rscale>  0 0.13282546E+04</rscale>
<asrwt>0</asrwt>
<pdfrwt beam="1">  1        2 0.36842451E+00 0.13698712E+04</pdfrwt>
<pdfrwt beam="2">  1       -2 0.12155695E+00 0.13698712E+04</pdfrwt>
<totfact> 0.19788496E+00</totfact>
</mgrwt>
</event>
<event>
 4    1  0.2051094E-007  0.8287972E+03  0.7818608E-02  0.9651677E-01
         -2   -1    0    0    0  501 -0.00000000000E+00  0.00000000000E+00  0.53799688113E+03  0.53799688114E+03  0.25500000000E-02 0.  1.
          2   -1    0    0  501    0  0.00000000000E+00 -0.00000000000E+00 -0.12677648908E+04  0.12677648908E+04  0.25500000000E-02 0. -1.
    8880023    1    1    2    0    0  0.50218656500E+03 -0.30054202185E+02 -0.92763087644E+03  0.12439468840E+04  0.65864270000E+03 0.  0.
    8880022    1    1    2    0    0 -0.50218656500E+03  0.30054202185E+02  0.19786286682E+03  0.56181488785E+03  0.15294330000E+03 0.  0.
<mgrwt>
<rscale>  0 0.73968260E+03</rscale>
<asrwt>0</asrwt>
<pdfrwt beam="1">  1        2 0.19504075E+00 0.82879721E+03</pdfrwt>
<pdfrwt beam="2">  1       -2 0.82768751E-01 0.82879721E+03</pdfrwt>
<totfact> 0.22354732E+01</totfact>
</mgrwt>
</event>
<event>
 4    1  0.2051094E-007  0.8252344E+03  0.7818608E-02  0.9658677E-01
         -2   -1    0    0    0  501 -0.00000000000E+00  0.00000000000E+00  0.31187711913E+03  0.31187711914E+03  0.25500000000E-02 0.  1.
          2   -1    0    0  501    0  0.00000000000E+00 -0.00000000000E+00 -0.14627601428E+04  0.14627601428E+04  0.25500000000E-02 0. -1.
    8880023    1    1    2    0    0 -0.29078368970E+03 -0.40329445229E+03 -0.78231599011E+03  0.11371148069E+04  0.65864270000E+03 0.  1.
    8880022    1    1    2    0    0  0.29078368970E+03  0.40329445229E+03 -0.36856703357E+03  0.63752245505E+03  0.15294330000E+03 0.  0.
<mgrwt>
<rscale>  0 0.73531360E+03</rscale>
<asrwt>0</asrwt>
<pdfrwt beam="1">  1        2 0.22504002E+00 0.82523438E+03</pdfrwt>
<pdfrwt beam="2">  1       -2 0.47981096E-01 0.82523438E+03</pdfrwt>
<totfact> 0.55573506E+01</totfact>
</mgrwt>
</event>
<event>
 4    1  0.2051094E-007  0.7186268E+03  0.7818608E-02  0.9927260E-01
         -2   -1    0    0    0  501 -0.00000000000E+00  0.00000000000E+00  0.21681326690E+04  0.21681326690E+04  0.25500000000E-02 0.  1.
          2   -1    0    0  501    0  0.00000000000E+00 -0.00000000000E+00 -0.27353541603E+03  0.27353541604E+03  0.25500000000E-02 0. -1.
    8880023    1    1    2    0    0  0.47640663858E+02  0.28345123801E+03  0.24347673756E+03  0.75875250588E+03  0.65864270000E+03 0. -1.
    8880022    1    1    2    0    0 -0.47640663858E+02 -0.28345123801E+03  0.16511205154E+04  0.16829155792E+04  0.15294330000E+03 0.  0.
<mgrwt>
<rscale>  0 0.58958143E+03</rscale>
<asrwt>0</asrwt>
<pdfrwt beam="1">  1        2 0.42082372E-01 0.71862678E+03</pdfrwt>
<pdfrwt beam="2">  1       -2 0.33355887E+00 0.71862678E+03</pdfrwt>
<totfact> 0.25273214E+00</totfact>
</mgrwt>
</event>
<event>
 4    1  0.2051094E-007  0.8578692E+03  0.7818608E-02  0.9597365E-01
         -2   -1    0    0    0  501 -0.00000000000E+00  0.00000000000E+00  0.77713724089E+03  0.77713724089E+03  0.25500000000E-02 0.  1.
          2   -1    0    0  501    0  0.00000000000E+00 -0.00000000000E+00 -0.10772021108E+04  0.10772021108E+04  0.25500000000E-02 0. -1.
    8880023    1    1    2    0    0 -0.51522865909E+03 -0.19149083710E+03 -0.74074699578E+03  0.11334220881E+04  0.65864270000E+03 0.  0.
    8880022    1    1    2    0    0  0.51522865909E+03  0.19149083710E+03  0.44068212586E+03  0.72091726357E+03  0.15294330000E+03 0.  0.
<mgrwt>
<rscale>  0 0.77470823E+03</rscale>
<asrwt>0</asrwt>
<pdfrwt beam="1">  1        2 0.16572340E+00 0.85786917E+03</pdfrwt>
<pdfrwt beam="2">  1       -2 0.11955958E+00 0.85786917E+03</pdfrwt>
<totfact> 0.12133514E+01</totfact>
</mgrwt>
</event>
<event>
 4    1  0.2051094E-007  0.8991313E+03  0.7818608E-02  0.9527428E-01
         -2   -1    0    0    0  501 -0.00000000000E+00  0.00000000000E+00  0.42226324202E+03  0.42226324203E+03  0.25500000000E-02 0.  1.
          2   -1    0    0  501    0  0.00000000000E+00 -0.00000000000E+00 -0.14347782260E+04  0.14347782260E+04  0.25500000000E-02 0. -1.
    8880023    1    1    2    0    0  0.55770749227E+03 -0.25216915275E+03 -0.76071001926E+03  0.11777592573E+04  0.65864270000E+03 0.  0.
    8880022    1    1    2    0    0 -0.55770749227E+03  0.25216915275E+03 -0.25180496474E+03  0.67928221073E+03  0.15294330000E+03 0.  0.
<mgrwt>
<rscale>  0 0.82291554E+03</rscale>
<asrwt>0</asrwt>
<pdfrwt beam="1">  1        2 0.22073511E+00 0.89913132E+03</pdfrwt>
<pdfrwt beam="2">  1       -2 0.64963576E-01 0.89913132E+03</pdfrwt>
<totfact> 0.30418655E+01</totfact>
</mgrwt>
</event>
<event>
 4    1  0.2051094E-007  0.8938200E+03  0.7818608E-02  0.9536026E-01
         -2   -1    0    0    0  501 -0.00000000000E+00  0.00000000000E+00  0.83530031635E+03  0.83530031635E+03  0.25500000000E-02 0.  1.
          2   -1    0    0  501    0  0.00000000000E+00 -0.00000000000E+00 -0.77297909033E+03  0.77297909033E+03  0.25500000000E-02 0. -1.
    8880023    1    1    2    0    0 -0.78610742466E+02 -0.59910288656E+03  0.29759396195E+03  0.94205960001E+03  0.65864270000E+03 0.  0.
    8880022    1    1    2    0    0  0.78610742466E+02  0.59910288656E+03 -0.23527273593E+03  0.66621980667E+03  0.15294330000E+03 0.  0.
<mgrwt>
<rscale>  0 0.81679072E+03</rscale>
<asrwt>0</asrwt>
<pdfrwt beam="1">  1        2 0.11891986E+00 0.89381996E+03</pdfrwt>
<pdfrwt beam="2">  1       -2 0.12850774E+00 0.89381996E+03</pdfrwt>
<totfact> 0.16142755E+01</totfact>
</mgrwt>
</event>
<event>
 4    1  0.2051094E-007  0.9603818E+03  0.7818608E-02  0.9435332E-01
          2   -1    0    0  501    0  0.00000000000E+00  0.00000000000E+00  0.54145395400E+03  0.54145395401E+03  0.25500000000E-02 0. -1.
         -2   -1    0    0    0  501 -0.00000000000E+00 -0.00000000000E+00 -0.20868450227E+04  0.20868450227E+04  0.25500000000E-02 0.  1.
    8880023    1    1    2    0    0  0.55295454617E+03  0.42750942667E+03 -0.39633207079E+02  0.96119927038E+03  0.65864270000E+03 0.  0.
    8880022    1    1    2    0    0 -0.55295454617E+03 -0.42750942667E+03 -0.15057578616E+04  0.16670997063E+04  0.15294330000E+03 0.  0.
<mgrwt>
<rscale>  0 0.89224197E+03</rscale>
<asrwt>0</asrwt>
<pdfrwt beam="1">  1        2 0.83300609E-01 0.96038182E+03</pdfrwt>
<pdfrwt beam="2">  1       -2 0.32105308E+00 0.96038182E+03</pdfrwt>
<totfact> 0.13427745E+00</totfact>
</mgrwt>
</event>
<event>
 4    1  0.2051094E-007  0.1028519E+04  0.7818608E-02  0.9345162E-01
         -2   -1    0    0    0  501 -0.00000000000E+00  0.00000000000E+00  0.32413670126E+03  0.32413670127E+03  0.25500000000E-02 0.  1.
          2   -1    0    0  501    0  0.00000000000E+00 -0.00000000000E+00 -0.28694380362E+04  0.28694380362E+04  0.25500000000E-02 0. -1.
    8880023    1    1    2    0    0 -0.75804132289E+03 -0.22229354349E+03 -0.19063451871E+04  0.21661032398E+04  0.65864270000E+03 0.  0.
    8880022    1    1    2    0    0  0.75804132289E+03  0.22229354349E+03 -0.63895614779E+03  0.10274714977E+04  0.15294330000E+03 0.  0.
<mgrwt>
<rscale>  0 0.96729415E+03</rscale>
<asrwt>0</asrwt>
<pdfrwt beam="1">  1        2 0.44145199E+00 0.10285190E+04</pdfrwt>
<pdfrwt beam="2">  1       -2 0.49867187E-01 0.10285190E+04</pdfrwt>
<totfact> 0.81110255E+00</totfact>
</mgrwt>
</event>
<event>
 4    1  0.2051094E-007  0.7380188E+03  0.7818608E-02  0.9865756E-01
          2   -1    0    0  501    0  0.00000000000E+00  0.00000000000E+00  0.79744401023E+03  0.79744401023E+03  0.25500000000E-02 0. -1.
         -2   -1    0    0    0  501 -0.00000000000E+00 -0.00000000000E+00 -0.47181403719E+03  0.47181403720E+03  0.25500000000E-02 0.  1.
    8880023    1    1    2    0    0  0.33295532725E+03 -0.15301364282E+01  0.47051543047E+03  0.87524657545E+03  0.65864270000E+03 0.  0.
    8880022    1    1    2    0    0 -0.33295532725E+03  0.15301364282E+01 -0.14488545744E+03  0.39401147198E+03  0.15294330000E+03 0.  0.
<mgrwt>
<rscale>  0 0.61949982E+03</rscale>
<asrwt>0</asrwt>
<pdfrwt beam="1">  1        2 0.12268369E+00 0.73801883E+03</pdfrwt>
<pdfrwt beam="2">  1       -2 0.72586775E-01 0.73801883E+03</pdfrwt>
<totfact> 0.60232698E+01</totfact>
</mgrwt>
</event>
<event>
 4    1  0.2051094E-007  0.9389714E+03  0.7818608E-02  0.9466163E-01
          2   -1    0    0  501    0  0.00000000000E+00  0.00000000000E+00  0.26604313158E+04  0.26604313158E+04  0.25500000000E-02 0. -1.
         -2   -1    0    0    0  501 -0.00000000000E+00 -0.00000000000E+00 -0.33695981002E+03  0.33695981003E+03  0.25500000000E-02 0.  1.
    8880023    1    1    2    0    0 -0.49533009564E+03  0.45000578716E+03  0.53270692803E+03  0.10795573118E+04  0.65864270000E+03 0.  1.
    8880022    1    1    2    0    0  0.49533009564E+03 -0.45000578716E+03  0.17907645778E+04  0.19178338140E+04  0.15294330000E+03 0.  0.
<mgrwt>
<rscale>  0 0.86825153E+03</rscale>
<asrwt>0</asrwt>
<pdfrwt beam="1">  1        2 0.40929713E+00 0.93897142E+03</pdfrwt>
<pdfrwt beam="2">  1       -2 0.51839970E-01 0.93897142E+03</pdfrwt>
<totfact> 0.10081545E+01</totfact>
</mgrwt>
</event>
<event>
 4    1  0.2051094E-007  0.9203762E+03  0.7818608E-02  0.9494082E-01
          2   -1    0    0  501    0  0.00000000000E+00  0.00000000000E+00  0.42503407913E+04  0.42503407913E+04  0.25500000000E-02 0. -1.
         -2   -1    0    0    0  501 -0.00000000000E+00 -0.00000000000E+00 -0.53454125480E+03  0.53454125481E+03  0.25500000000E-02 0.  1.
    8880023    1    1    2    0    0  0.63732243021E+03 -0.84274868242E+02  0.39711785138E+04  0.40764385349E+04  0.65864270000E+03 0. -1.
    8880022    1    1    2    0    0 -0.63732243021E+03  0.84274868242E+02 -0.25537897738E+03  0.70844351121E+03  0.15294330000E+03 0.  0.
<mgrwt>
<rscale>  0 0.84721507E+03</rscale>
<asrwt>0</asrwt>
<pdfrwt beam="1">  1        2 0.65389860E+00 0.92037619E+03</pdfrwt>
<pdfrwt beam="2">  1       -2 0.82237114E-01 0.92037619E+03</pdfrwt>
<totfact> 0.29502267E-01</totfact>
</mgrwt>
</event>
<event>
 4    1  0.2051094E-007  0.6608308E+03  0.7818608E-02  0.1023321E+00
         -2   -1    0    0    0  501 -0.00000000000E+00  0.00000000000E+00  0.90628721437E+03  0.90628721437E+03  0.25500000000E-02 0.  1.
          2   -1    0    0  501    0  0.00000000000E+00 -0.00000000000E+00 -0.23394344880E+03  0.23394344881E+03  0.25500000000E-02 0. -1.
    8880023    1    1    2    0    0  0.24352205414E+02 -0.47896188636E+02  0.28373918552E+03  0.71916980363E+03  0.65864270000E+03 0. -1.
    8880022    1    1    2    0    0 -0.24352205414E+02  0.47896188636E+02  0.38860458005E+03  0.42106085955E+03  0.15294330000E+03 0.  0.
<mgrwt>
<rscale>  0 0.46506989E+03</rscale>
<asrwt>0</asrwt>
<pdfrwt beam="1">  1        2 0.35991300E-01 0.66083075E+03</pdfrwt>
<pdfrwt beam="2">  1       -2 0.13942880E+00 0.66083075E+03</pdfrwt>
<totfact> 0.53440029E+01</totfact>
</mgrwt>
</event>
<event>
 4    1  0.2051094E-007  0.1315499E+04  0.7818608E-02  0.9052290E-01
         -2   -1    0    0    0  501 -0.00000000000E+00  0.00000000000E+00  0.62015594562E+03  0.62015594562E+03  0.25500000000E-02 0.  1.
          2   -1    0    0  501    0  0.00000000000E+00 -0.00000000000E+00 -0.39299012122E+04  0.39299012122E+04  0.25500000000E-02 0. -1.
    8880023    1    1    2    0    0  0.88392747837E+02 -0.11353030941E+04 -0.31193929500E+04  0.33854318744E+04  0.65864270000E+03 0.  0.
    8880022    1    1    2    0    0 -0.88392747837E+02  0.11353030941E+04 -0.19035231655E+03  0.11646252834E+04  0.15294330000E+03 0.  0.
<mgrwt>
<rscale>  0 0.12717285E+04</rscale>
<asrwt>0</asrwt>
<pdfrwt beam="1">  1        2 0.60460017E+00 0.13154986E+04</pdfrwt>
<pdfrwt beam="2">  1       -2 0.95408609E-01 0.13154986E+04</pdfrwt>
<totfact> 0.35724617E-01</totfact>
</mgrwt>
</event>
<event>
 4    1  0.2051094E-007  0.9680944E+03  0.7818608E-02  0.9424545E-01
          2   -1    0    0  501    0  0.00000000000E+00  0.00000000000E+00  0.14552993783E+04  0.14552993783E+04  0.25500000000E-02 0. -1.
         -2   -1    0    0    0  501 -0.00000000000E+00 -0.00000000000E+00 -0.81492144996E+03  0.81492144996E+03  0.25500000000E-02 0.  1.
    8880023    1    1    2    0    0  0.63910276543E+03  0.30813011958E+03  0.10570057922E+04  0.14333415387E+04  0.65864270000E+03 0. -1.
    8880022    1    1    2    0    0 -0.63910276543E+03 -0.30813011958E+03 -0.41662786390E+03  0.83687928960E+03  0.15294330000E+03 0.  0.
<mgrwt>
<rscale>  0 0.90082986E+03</rscale>
<asrwt>0</asrwt>
<pdfrwt beam="1">  1        2 0.22389221E+00 0.96809438E+03</pdfrwt>
<pdfrwt beam="2">  1       -2 0.12537253E+00 0.96809438E+03</pdfrwt>
<totfact> 0.63839051E+00</totfact>
</mgrwt>
</event>
<event>
 4    1  0.2051094E-007  0.1698658E+04  0.7818608E-02  0.8780769E-01
          2   -1    0    0  501    0  0.00000000000E+00  0.00000000000E+00  0.23618279552E+04  0.23618279552E+04  0.25500000000E-02 0. -1.
         -2   -1    0    0    0  501 -0.00000000000E+00 -0.00000000000E+00 -0.15144557776E+04  0.15144557776E+04  0.25500000000E-02 0.  1.
    8880023    1    1    2    0    0 -0.73245831553E+02  0.15640531975E+04  0.14078203579E+04  0.22062175149E+04  0.65864270000E+03 0.  0.
    8880022    1    1    2    0    0  0.73245831553E+02 -0.15640531975E+04 -0.56044818032E+03  0.16700662180E+04  0.15294330000E+03 0.  0.
<mgrwt>
<rscale>  0 0.16663902E+04</rscale>
<asrwt>0</asrwt>
<pdfrwt beam="1">  1        2 0.36335815E+00 0.16986576E+04</pdfrwt>
<pdfrwt beam="2">  1       -2 0.23299320E+00 0.16986576E+04</pdfrwt>
<totfact> 0.31427133E-01</totfact>
</mgrwt>
</event>
<event>
 4    1  0.2051094E-007  0.1412337E+04  0.7818608E-02  0.8974155E-01
         -2   -1    0    0    0  501 -0.00000000000E+00  0.00000000000E+00  0.99512698947E+03  0.99512698947E+03  0.25500000000E-02 0.  1.
          2   -1    0    0  501    0  0.00000000000E+00 -0.00000000000E+00 -0.28838842643E+04  0.28838842643E+04  0.25500000000E-02 0. -1.
    8880023    1    1    2    0    0  0.78862806640E+03 -0.96899556896E+03  0.21386714814E+03  0.14284383092E+04  0.65864270000E+03 0.  0.
    8880022    1    1    2    0    0 -0.78862806640E+03  0.96899556896E+03 -0.21026244230E+04  0.24505729446E+04  0.15294330000E+03 0.  0.
<mgrwt>
<rscale>  0 0.13722485E+04</rscale>
<asrwt>0</asrwt>
<pdfrwt beam="1">  1        2 0.44367450E+00 0.14123374E+04</pdfrwt>
<pdfrwt beam="2">  1       -2 0.15309646E+00 0.14123374E+04</pdfrwt>
<totfact> 0.55765159E-01</totfact>
</mgrwt>
</event>
<event>
 4    1  0.2051094E-007  0.7070880E+03  0.7818608E-02  0.9968978E-01
         -2   -1    0    0    0  501 -0.00000000000E+00  0.00000000000E+00  0.15148844940E+03  0.15148844943E+03  0.25500000000E-02 0.  1.
          2   -1    0    0  501    0  0.00000000000E+00 -0.00000000000E+00 -0.20266360760E+04  0.20266360760E+04  0.25500000000E-02 0. -1.
    8880023    1    1    2    0    0  0.19329012277E+03 -0.16971186592E+03 -0.16749308274E+04  0.18180667402E+04  0.65864270000E+03 0. -1.
    8880022    1    1    2    0    0 -0.19329012277E+03  0.16971186592E+03 -0.20021679916E+03  0.36005778519E+03  0.15294330000E+03 0.  0.
<mgrwt>
<rscale>  0 0.57031687E+03</rscale>
<asrwt>0</asrwt>
<pdfrwt beam="1">  1        2 0.31179015E+00 0.70708797E+03</pdfrwt>
<pdfrwt beam="2">  1       -2 0.23305917E-01 0.70708797E+03</pdfrwt>
<totfact> 0.10830926E+02</totfact>
</mgrwt>
</event>
<event>
 4    1  0.2051094E-007  0.1079887E+04  0.7818608E-02  0.9283786E-01
          2   -1    0    0  501    0  0.00000000000E+00  0.00000000000E+00  0.13437558018E+04  0.13437558018E+04  0.25500000000E-02 0. -1.
         -2   -1    0    0    0  501 -0.00000000000E+00 -0.00000000000E+00 -0.11136441843E+04  0.11136441843E+04  0.25500000000E-02 0.  1.
    8880023    1    1    2    0    0 -0.22169820385E+02 -0.85548514853E+03  0.86277771214E+03  0.13822235446E+04  0.65864270000E+03 0. -1.
    8880022    1    1    2    0    0  0.22169820385E+02  0.85548514853E+03 -0.63266609461E+03  0.10751764416E+04  0.15294330000E+03 0.  0.
<mgrwt>
<rscale>  0 0.10228930E+04</rscale>
<asrwt>0</asrwt>
<pdfrwt beam="1">  1        2 0.20673166E+00 0.10798873E+04</pdfrwt>
<pdfrwt beam="2">  1       -2 0.17132987E+00 0.10798873E+04</pdfrwt>
<totfact> 0.31959975E+00</totfact>
</mgrwt>
</event>
<event>
 4    1  0.2051094E-007  0.6833947E+03  0.7818608E-02  0.1007465E+00
          2   -1    0    0  501    0  0.00000000000E+00  0.00000000000E+00  0.88530696195E+03  0.88530696195E+03  0.25500000000E-02 0. -1.
         -2   -1    0    0    0  501 -0.00000000000E+00 -0.00000000000E+00 -0.42305110657E+03  0.42305110658E+03  0.25500000000E-02 0.  1.
    8880023    1    1    2    0    0  0.24383719399E+02  0.18061970941E+03  0.69557733702E+03  0.97511849703E+03  0.65864270000E+03 0. -1.
    8880022    1    1    2    0    0 -0.24383719399E+02 -0.18061970941E+03 -0.23332148165E+03  0.33323957150E+03  0.15294330000E+03 0.  0.
<mgrwt>
<rscale>  0 0.52494649E+03</rscale>
<asrwt>0</asrwt>
<pdfrwt beam="1">  1        2 0.13620107E+00 0.68339465E+03</pdfrwt>
<pdfrwt beam="2">  1       -2 0.65084785E-01 0.68339465E+03</pdfrwt>
<totfact> 0.66585532E+01</totfact>
</mgrwt>
</event>
<event>
 4    1  0.2051094E-007  0.9763450E+03  0.7818608E-02  0.9413182E-01
          2   -1    0    0  501    0  0.00000000000E+00  0.00000000000E+00  0.15405193781E+04  0.15405193781E+04  0.25500000000E-02 0. -1.
         -2   -1    0    0    0  501 -0.00000000000E+00 -0.00000000000E+00 -0.75200059239E+03  0.75200059239E+03  0.25500000000E-02 0.  1.
    8880023    1    1    2    0    0  0.47871686679E+03  0.53876673443E+03  0.11189673245E+04  0.14850378824E+04  0.65864270000E+03 0.  0.
    8880022    1    1    2    0    0 -0.47871686679E+03 -0.53876673443E+03 -0.33044853883E+03  0.80748208804E+03  0.15294330000E+03 0.  0.
<mgrwt>
<rscale>  0 0.90998783E+03</rscale>
<asrwt>0</asrwt>
<pdfrwt beam="1">  1        2 0.23700298E+00 0.97634504E+03</pdfrwt>
<pdfrwt beam="2">  1       -2 0.11569240E+00 0.97634504E+03</pdfrwt>
<totfact> 0.69777529E+00</totfact>
</mgrwt>
</event>
<event>
 4    1  0.2722141E-007  0.1034840E+04  0.7818608E-02  0.9337332E-01
         -2   -1    0    0    0  501 -0.00000000000E+00  0.00000000000E+00  0.98743399382E+03  0.98743399382E+03  0.25500000000E-02 0.  1.
          2   -1    0    0  501    0  0.00000000000E+00 -0.00000000000E+00 -0.20770211526E+04  0.20770211526E+04  0.25500000000E-02 0. -1.
    8880023    1    1    2    0    0 -0.52581713404E+03  0.60049970014E+03 -0.17393683667E+04  0.20239308461E+04  0.65864270000E+03 0.  0.
    8880022    1    1    2    0    0  0.52581713404E+03 -0.60049970014E+03  0.64978120796E+03  0.10405243003E+04  0.15294330000E+03 0.  0.
<mgrwt>
<rscale>  0 0.97417495E+03</rscale>
<asrwt>0</asrwt>
<pdfrwt beam="1">  1        2 0.31954172E+00 0.10348400E+04</pdfrwt>
<pdfrwt beam="2">  1       -2 0.15191292E+00 0.10348400E+04</pdfrwt>
<totfact> 0.17426106E+00</totfact>
</mgrwt>
</event>
<event>
 4    1  0.2051094E-007  0.8403537E+03  0.7818608E-02  0.9629514E-01
          2   -1    0    0  501    0  0.00000000000E+00  0.00000000000E+00  0.23757269293E+04  0.23757269293E+04  0.25500000000E-02 0. -1.
         -2   -1    0    0    0  501 -0.00000000000E+00 -0.00000000000E+00 -0.25399549178E+03  0.25399549179E+03  0.25500000000E-02 0.  1.
    8880023    1    1    2    0    0 -0.18513770799E+03 -0.48796336312E+03  0.18273257123E+04  0.20112965171E+04  0.65864270000E+03 0. -1.
    8880022    1    1    2    0    0  0.18513770799E+03  0.48796336312E+03  0.29440572526E+03  0.61842590401E+03  0.15294330000E+03 0.  0.
<mgrwt>
<rscale>  0 0.75373199E+03</rscale>
<asrwt>0</asrwt>
<pdfrwt beam="1">  1        2 0.36549645E+00 0.84035375E+03</pdfrwt>
<pdfrwt beam="2">  1       -2 0.39076230E-01 0.84035375E+03</pdfrwt>
<totfact> 0.26139703E+01</totfact>
</mgrwt>
</event>
<event>
 4    1  0.2051094E-007  0.8326467E+03  0.7818608E-02  0.9644205E-01
          2   -1    0    0  501    0  0.00000000000E+00  0.00000000000E+00  0.11452804084E+04  0.11452804084E+04  0.25500000000E-02 0. -1.
         -2   -1    0    0    0  501 -0.00000000000E+00 -0.00000000000E+00 -0.57502360646E+03  0.57502360647E+03  0.25500000000E-02 0.  1.
    8880023    1    1    2    0    0  0.50608249336E+03 -0.58058912200E+02  0.78723678197E+03  0.11458805717E+04  0.65864270000E+03 0.  0.
    8880022    1    1    2    0    0 -0.50608249336E+03  0.58058912200E+02 -0.21697998003E+03  0.57442344321E+03  0.15294330000E+03 0.  0.
<mgrwt>
<rscale>  0 0.74438264E+03</rscale>
<asrwt>0</asrwt>
<pdfrwt beam="1">  1        2 0.17619698E+00 0.83264670E+03</pdfrwt>
<pdfrwt beam="2">  1       -2 0.88465172E-01 0.83264670E+03</pdfrwt>
<totfact> 0.22689506E+01</totfact>
</mgrwt>
</event>
<event>
 4    1  0.2051094E-007  0.1129958E+04  0.7818608E-02  0.9228412E-01
         -2   -1    0    0    0  501 -0.00000000000E+00  0.00000000000E+00  0.48747789552E+03  0.48747789553E+03  0.25500000000E-02 0.  1.
          2   -1    0    0  501    0  0.00000000000E+00 -0.00000000000E+00 -0.33524420943E+04  0.33524420943E+04  0.25500000000E-02 0. -1.
    8880023    1    1    2    0    0 -0.88895321314E+03 -0.22968985437E+03 -0.26554026586E+04  0.28858220198E+04  0.65864270000E+03 0. -1.
    8880022    1    1    2    0    0  0.88895321314E+03  0.22968985437E+03 -0.20956154022E+03  0.95409797008E+03  0.15294330000E+03 0.  0.
<mgrwt>
<rscale>  0 0.10764919E+04</rscale>
<asrwt>0</asrwt>
<pdfrwt beam="1">  1        2 0.51576031E+00 0.11299582E+04</pdfrwt>
<pdfrwt beam="2">  1       -2 0.74996601E-01 0.11299582E+04</pdfrwt>
<totfact> 0.16579726E+00</totfact>
</mgrwt>
</event>
<event>
 4    1  0.2051094E-007  0.1008324E+04  0.7818608E-02  0.9370748E-01
          2   -1    0    0  501    0  0.00000000000E+00  0.00000000000E+00  0.32581174686E+04  0.32581174686E+04  0.25500000000E-02 0. -1.
         -2   -1    0    0    0  501 -0.00000000000E+00 -0.00000000000E+00 -0.95986407899E+03  0.95986407899E+03  0.25500000000E-02 0.  1.
    8880023    1    1    2    0    0  0.74716622489E+03  0.15700052044E+03  0.30029976271E+04  0.31677612734E+04  0.65864270000E+03 0. -1.
    8880022    1    1    2    0    0 -0.74716622489E+03 -0.15700052044E+03 -0.70474423745E+03  0.10502202742E+04  0.15294330000E+03 0.  0.
<mgrwt>
<rscale>  0 0.94522625E+03</rscale>
<asrwt>0</asrwt>
<pdfrwt beam="1">  1        2 0.50124884E+00 0.10083237E+04</pdfrwt>
<pdfrwt beam="2">  1       -2 0.14767140E+00 0.10083237E+04</pdfrwt>
<totfact> 0.37902075E-01</totfact>
</mgrwt>
</event>
<event>
 4    1  0.2051094E-007  0.9779551E+03  0.7818608E-02  0.9410985E-01
          2   -1    0    0  501    0  0.00000000000E+00  0.00000000000E+00  0.27536837295E+04  0.27536837295E+04  0.25500000000E-02 0. -1.
         -2   -1    0    0    0  501 -0.00000000000E+00 -0.00000000000E+00 -0.94061111628E+03  0.94061111629E+03  0.25500000000E-02 0.  1.
    8880023    1    1    2    0    0  0.42535197239E+03  0.58451827636E+03  0.25005816126E+04  0.26850148088E+04  0.65864270000E+03 0.  0.
    8880022    1    1    2    0    0 -0.42535197239E+03 -0.58451827636E+03 -0.68750899940E+03  0.10092800370E+04  0.15294330000E+03 0.  0.
<mgrwt>
<rscale>  0 0.91177153E+03</rscale>
<asrwt>0</asrwt>
<pdfrwt beam="1">  1        2 0.42364364E+00 0.97795507E+03</pdfrwt>
<pdfrwt beam="2">  1       -2 0.14470941E+00 0.97795507E+03</pdfrwt>
<totfact> 0.82443057E-01</totfact>
</mgrwt>
</event>
<event>
 4    1  0.2051094E-007  0.6746993E+03  0.7818608E-02  0.1012497E+00
         -2   -1    0    0    0  501 -0.00000000000E+00  0.00000000000E+00  0.66413209585E+03  0.66413209586E+03  0.25500000000E-02 0.  1.
          2   -1    0    0  501    0  0.00000000000E+00 -0.00000000000E+00 -0.78398966799E+03  0.78398966799E+03  0.25500000000E-02 0. -1.
    8880023    1    1    2    0    0 -0.58966307036E+02 -0.13390985786E+03 -0.61293044025E+03  0.91153870255E+03  0.65864270000E+03 0. -1.
    8880022    1    1    2    0    0  0.58966307036E+02  0.13390985786E+03  0.49307286811E+03  0.53658306130E+03  0.15294330000E+03 0.  0.
<mgrwt>
<rscale>  0 0.50494382E+03</rscale>
<asrwt>0</asrwt>
<pdfrwt beam="1">  1        2 0.12061380E+00 0.67469925E+03</pdfrwt>
<pdfrwt beam="2">  1       -2 0.10217417E+00 0.67469925E+03</pdfrwt>
<totfact> 0.28359223E+01</totfact>
</mgrwt>
</event>
<event>
 4    1  0.2051094E-007  0.6930135E+03  0.7818608E-02  0.1002752E+00
          2   -1    0    0  501    0  0.00000000000E+00  0.00000000000E+00  0.53311897551E+03  0.53311897552E+03  0.25500000000E-02 0. -1.
         -2   -1    0    0    0  501 -0.00000000000E+00 -0.00000000000E+00 -0.26868287874E+04  0.26868287874E+04  0.25500000000E-02 0.  1.
    8880023    1    1    2    0    0 -0.21505604614E+03  0.14435278230E+02  0.29775935378E+03  0.75427337171E+03  0.65864270000E+03 0. -1.
    8880022    1    1    2    0    0  0.21505604614E+03 -0.14435278230E+02 -0.24514691656E+04  0.24656743912E+04  0.15294330000E+03 0.  0.
<mgrwt>
<rscale>  0 0.54459844E+03</rscale>
<asrwt>0</asrwt>
<pdfrwt beam="1">  1        2 0.82018305E-01 0.69301348E+03</pdfrwt>
<pdfrwt beam="2">  1       -2 0.41335827E+00 0.69301348E+03</pdfrwt>
<totfact> 0.37366609E-01</totfact>
</mgrwt>
</event>
<event>
 4    1  0.2051094E-007  0.6852924E+03  0.7818608E-02  0.1006476E+00
          2   -1    0    0  501    0  0.00000000000E+00  0.00000000000E+00  0.48218293719E+03  0.48218293719E+03  0.25500000000E-02 0. -1.
         -2   -1    0    0    0  501 -0.00000000000E+00 -0.00000000000E+00 -0.96927396620E+03  0.96927396620E+03  0.25500000000E-02 0.  1.
    8880023    1    1    2    0    0  0.15801772052E+02  0.18858875008E+03  0.20706273212E+03  0.71589146800E+03  0.65864270000E+03 0. -1.
    8880022    1    1    2    0    0 -0.15801772052E+02 -0.18858875008E+03 -0.69415376112E+03  0.73556543540E+03  0.15294330000E+03 0.  0.
<mgrwt>
<rscale>  0 0.52899749E+03</rscale>
<asrwt>0</asrwt>
<pdfrwt beam="1">  1        2 0.74181991E-01 0.68529236E+03</pdfrwt>
<pdfrwt beam="2">  1       -2 0.14911907E+00 0.68529236E+03</pdfrwt>
<totfact> 0.19927082E+01</totfact>
</mgrwt>
</event>
<event>
 4    1  0.2051094E-007  0.8717422E+03  0.7818608E-02  0.9573008E-01
          2   -1    0    0  501    0  0.00000000000E+00  0.00000000000E+00  0.17066653776E+04  0.17066653776E+04  0.25500000000E-02 0. -1.
         -2   -1    0    0    0  501 -0.00000000000E+00 -0.00000000000E+00 -0.41739429695E+03  0.41739429696E+03  0.25500000000E-02 0.  1.
    8880023    1    1    2    0    0  0.56120065001E+03 -0.10572670667E+03  0.12599613614E+04  0.15321348324E+04  0.65864270000E+03 0.  0.
    8880022    1    1    2    0    0 -0.56120065001E+03  0.10572670667E+03  0.29309719179E+02  0.59192484213E+03  0.15294330000E+03 0.  0.
<mgrwt>
<rscale>  0 0.79108735E+03</rscale>
<asrwt>0</asrwt>
<pdfrwt beam="1">  1        2 0.26256390E+00 0.87174223E+03</pdfrwt>
<pdfrwt beam="2">  1       -2 0.64214508E-01 0.87174223E+03</pdfrwt>
<totfact> 0.22074220E+01</totfact>
</mgrwt>
</event>
<event>
 4    1  0.2051094E-007  0.9211511E+03  0.7818608E-02  0.9492896E-01
          2   -1    0    0  501    0  0.00000000000E+00  0.00000000000E+00  0.16671336277E+04  0.16671336277E+04  0.25500000000E-02 0. -1.
         -2   -1    0    0    0  501 -0.00000000000E+00 -0.00000000000E+00 -0.37694847279E+03  0.37694847280E+03  0.25500000000E-02 0.  1.
    8880023    1    1    2    0    0  0.47566673110E+03  0.43410873370E+03  0.80610983710E+03  0.12240639311E+04  0.65864270000E+03 0.  1.
    8880022    1    1    2    0    0 -0.47566673110E+03 -0.43410873370E+03  0.48407531779E+03  0.82001816935E+03  0.15294330000E+03 0. -1.
<mgrwt>
<rscale>  0 0.84809585E+03</rscale>
<asrwt>0</asrwt>
<pdfrwt beam="1">  1        2 0.25648210E+00 0.92115115E+03</pdfrwt>
<pdfrwt beam="2">  1       -2 0.57992072E-01 0.92115115E+03</pdfrwt>
<totfact> 0.28676868E+01</totfact>
</mgrwt>
</event>
<event>
 4    1  0.2051094E-007  0.1188891E+04  0.7818608E-02  0.9167998E-01
          2   -1    0    0  501    0  0.00000000000E+00  0.00000000000E+00  0.20259507670E+04  0.20259507670E+04  0.25500000000E-02 0. -1.
         -2   -1    0    0    0  501 -0.00000000000E+00 -0.00000000000E+00 -0.16267514743E+04  0.16267514743E+04  0.25500000000E-02 0.  1.
    8880023    1    1    2    0    0 -0.66168822027E+03 -0.73608372082E+03  0.16604387849E+04  0.20421845435E+04  0.65864270000E+03 0. -1.
    8880022    1    1    2    0    0  0.66168822027E+03  0.73608372082E+03 -0.12612394923E+04  0.16105176978E+04  0.15294330000E+03 0.  0.
<mgrwt>
<rscale>  0 0.11389937E+04</rscale>
<asrwt>0</asrwt>
<pdfrwt beam="1">  1        2 0.31168473E+00 0.11888906E+04</pdfrwt>
<pdfrwt beam="2">  1       -2 0.25026946E+00 0.11888906E+04</pdfrwt>
<totfact> 0.40324400E-01</totfact>
</mgrwt>
</event>
<event>
 4    1  0.2051094E-007  0.1455345E+04  0.7818608E-02  0.8941829E-01
         -2   -1    0    0    0  501 -0.00000000000E+00  0.00000000000E+00  0.13106240557E+04  0.13106240557E+04  0.25500000000E-02 0.  1.
          2   -1    0    0  501    0  0.00000000000E+00 -0.00000000000E+00 -0.19844725051E+04  0.19844725051E+04  0.25500000000E-02 0. -1.
    8880023    1    1    2    0    0 -0.12963733696E+04 -0.60291326415E+02 -0.12001178482E+04  0.18863488578E+04  0.65864270000E+03 0. -1.
    8880022    1    1    2    0    0  0.12963733696E+04  0.60291326415E+02  0.52626939888E+03  0.14087477030E+04  0.15294330000E+03 0.  0.
<mgrwt>
<rscale>  0 0.14166843E+04</rscale>
<asrwt>0</asrwt>
<pdfrwt beam="1">  1        2 0.30530346E+00 0.14553450E+04</pdfrwt>
<pdfrwt beam="2">  1       -2 0.20163447E+00 0.14553450E+04</pdfrwt>
<totfact> 0.83447869E-01</totfact>
</mgrwt>
</event>
<event>
 4    1  0.2051094E-007  0.6989485E+03  0.7818608E-02  0.1000159E+00
         -2   -1    0    0    0  501 -0.00000000000E+00  0.00000000000E+00  0.17728258209E+03  0.17728258211E+03  0.25500000000E-02 0.  1.
          2   -1    0    0  501    0  0.00000000000E+00 -0.00000000000E+00 -0.28706714397E+04  0.28706714397E+04  0.25500000000E-02 0. -1.
    8880023    1    1    2    0    0  0.23380767343E+03  0.72643412816E+01 -0.26783714319E+04  0.27680683757E+04  0.65864270000E+03 0. -1.
    8880022    1    1    2    0    0 -0.23380767343E+03 -0.72643412816E+01 -0.15017425660E+02  0.27988564611E+03  0.15294330000E+03 0.  0.
<mgrwt>
<rscale>  0 0.55580510E+03</rscale>
<asrwt>0</asrwt>
<pdfrwt beam="1">  1        2 0.44164173E+00 0.69894850E+03</pdfrwt>
<pdfrwt beam="2">  1       -2 0.27274245E-01 0.69894850E+03</pdfrwt>
<totfact> 0.27211741E+01</totfact>
</mgrwt>
</event>
<event>
 4    1  0.2051094E-007  0.7444149E+03  0.7818608E-02  0.9847268E-01
          2   -1    0    0  501    0  0.00000000000E+00  0.00000000000E+00  0.32004439447E+04  0.32004439447E+04  0.25500000000E-02 0. -1.
         -2   -1    0    0    0  501 -0.00000000000E+00 -0.00000000000E+00 -0.10960390245E+04  0.10960390245E+04  0.25500000000E-02 0.  1.
    8880023    1    1    2    0    0  0.29107541094E+03  0.18872853728E+03  0.31225415426E+04  0.32100497266E+04  0.65864270000E+03 0. -1.
    8880022    1    1    2    0    0 -0.29107541094E+03 -0.18872853728E+03 -0.10181366225E+04  0.10864332426E+04  0.15294330000E+03 0.  0.
<mgrwt>
<rscale>  0 0.62886383E+03</rscale>
<asrwt>0</asrwt>
<pdfrwt beam="1">  1        2 0.49237599E+00 0.74441491E+03</pdfrwt>
<pdfrwt beam="2">  1       -2 0.16862139E+00 0.74441491E+03</pdfrwt>
<totfact> 0.30544612E-01</totfact>
</mgrwt>
</event>
<event>
 4    1  0.2051094E-007  0.1300591E+04  0.7818608E-02  0.9065050E-01
          2   -1    0    0  501    0  0.00000000000E+00  0.00000000000E+00  0.21160296972E+04  0.21160296972E+04  0.25500000000E-02 0. -1.
         -2   -1    0    0    0  501 -0.00000000000E+00 -0.00000000000E+00 -0.76117388513E+03  0.76117388514E+03  0.25500000000E-02 0.  1.
    8880023    1    1    2    0    0 -0.97075058888E+03 -0.56157743500E+03  0.11306613884E+04  0.17233488628E+04  0.65864270000E+03 0.  0.
    8880022    1    1    2    0    0  0.97075058888E+03  0.56157743500E+03  0.22419442369E+03  0.11538547196E+04  0.15294330000E+03 0.  0.
<mgrwt>
<rscale>  0 0.12561864E+04</rscale>
<asrwt>0</asrwt>
<pdfrwt beam="1">  1        2 0.32554302E+00 0.13005907E+04</pdfrwt>
<pdfrwt beam="2">  1       -2 0.11710368E+00 0.13005907E+04</pdfrwt>
<totfact> 0.31404694E+00</totfact>
</mgrwt>
</event>
<event>
 4    1  0.2051094E-007  0.2180783E+04  0.7818608E-02  0.8536832E-01
         -2   -1    0    0    0  501 -0.00000000000E+00  0.00000000000E+00  0.17802547252E+04  0.17802547252E+04  0.25500000000E-02 0.  1.
          2   -1    0    0  501    0  0.00000000000E+00 -0.00000000000E+00 -0.35471857439E+04  0.35471857439E+04  0.25500000000E-02 0. -1.
    8880023    1    1    2    0    0 -0.19790077894E+04 -0.63681323583E+03  0.51080587153E+03  0.22398070838E+04  0.65864270000E+03 0.  1.
    8880022    1    1    2    0    0  0.19790077894E+04  0.63681323583E+03 -0.22777368902E+04  0.30876333853E+04  0.15294330000E+03 0.  0.
<mgrwt>
<rscale>  0 0.21563187E+04</rscale>
<asrwt>0</asrwt>
<pdfrwt beam="1">  1        2 0.54572088E+00 0.21807827E+04</pdfrwt>
<pdfrwt beam="2">  1       -2 0.27388534E+00 0.21807827E+04</pdfrwt>
<totfact> 0.30041830E-02</totfact>
</mgrwt>
</event>
<event>
 4    1  0.2051094E-007  0.7859914E+03  0.7818608E-02  0.9741947E-01
          2   -1    0    0  501    0  0.00000000000E+00  0.00000000000E+00  0.62438012575E+03  0.62438012576E+03  0.25500000000E-02 0. -1.
         -2   -1    0    0    0  501 -0.00000000000E+00 -0.00000000000E+00 -0.10417654022E+04  0.10417654022E+04  0.25500000000E-02 0.  1.
    8880023    1    1    2    0    0 -0.10943768210E+03 -0.41472366679E+03  0.27904225000E+03  0.83405462027E+03  0.65864270000E+03 0. -1.
    8880022    1    1    2    0    0  0.10943768210E+03  0.41472366679E+03 -0.69642752649E+03  0.83209090773E+03  0.15294330000E+03 0.  0.
<mgrwt>
<rscale>  0 0.68573296E+03</rscale>
<asrwt>0</asrwt>
<pdfrwt beam="1">  1        2 0.96058481E-01 0.78599143E+03</pdfrwt>
<pdfrwt beam="2">  1       -2 0.16027160E+00 0.78599143E+03</pdfrwt>
<totfact> 0.11985557E+01</totfact>
</mgrwt>
</event>
<event>
 4    1  0.2051094E-007  0.6976356E+03  0.7818608E-02  0.1000715E+00
          2   -1    0    0  501    0  0.00000000000E+00  0.00000000000E+00  0.27580675056E+04  0.27580675056E+04  0.25500000000E-02 0. -1.
         -2   -1    0    0    0  501 -0.00000000000E+00 -0.00000000000E+00 -0.49148248973E+03  0.49148248974E+03  0.25500000000E-02 0.  1.
    8880023    1    1    2    0    0 -0.99520371046E+02 -0.20731824510E+03  0.26705666851E+04  0.27601850997E+04  0.65864270000E+03 0. -1.
    8880022    1    1    2    0    0  0.99520371046E+02  0.20731824510E+03 -0.40398166920E+03  0.48936489563E+03  0.15294330000E+03 0.  0.
<mgrwt>
<rscale>  0 0.55337626E+03</rscale>
<asrwt>0</asrwt>
<pdfrwt beam="1">  1        2 0.42431809E+00 0.69763555E+03</pdfrwt>
<pdfrwt beam="2">  1       -2 0.75612689E-01 0.69763555E+03</pdfrwt>
<totfact> 0.41103712E+00</totfact>
</mgrwt>
</event>
<event>
 4    1  0.2051094E-007  0.9634660E+03  0.7818608E-02  0.9430999E-01
         -2   -1    0    0    0  501 -0.00000000000E+00  0.00000000000E+00  0.40935143328E+03  0.40935143329E+03  0.25500000000E-02 0.  1.
          2   -1    0    0  501    0  0.00000000000E+00 -0.00000000000E+00 -0.20789883353E+04  0.20789883353E+04  0.25500000000E-02 0. -1.
    8880023    1    1    2    0    0  0.63514631180E+03 -0.30173771237E+03 -0.14407238062E+04  0.17331912118E+04  0.65864270000E+03 0.  1.
    8880022    1    1    2    0    0 -0.63514631180E+03  0.30173771237E+03 -0.22891309583E+03  0.75514855686E+03  0.15294330000E+03 0.  1.
<mgrwt>
<rscale>  0 0.89567941E+03</rscale>
<asrwt>0</asrwt>
<pdfrwt beam="1">  1        2 0.31984435E+00 0.96346598E+03</pdfrwt>
<pdfrwt beam="2">  1       -2 0.62977145E-01 0.96346598E+03</pdfrwt>
<totfact> 0.14226150E+01</totfact>
</mgrwt>
</event>
<event>
 4    1  0.2051094E-007  0.9357196E+03  0.7818608E-02  0.9470965E-01
          2   -1    0    0  501    0  0.00000000000E+00  0.00000000000E+00  0.20960740490E+04  0.20960740490E+04  0.25500000000E-02 0. -1.
         -2   -1    0    0    0  501 -0.00000000000E+00 -0.00000000000E+00 -0.40588416169E+03  0.40588416170E+03  0.25500000000E-02 0.  1.
    8880023    1    1    2    0    0 -0.25206850326E+03 -0.61499786867E+03  0.15425025862E+04  0.18041300795E+04  0.65864270000E+03 0.  0.
    8880022    1    1    2    0    0  0.25206850326E+03  0.61499786867E+03  0.14768730104E+03  0.69782813121E+03  0.15294330000E+03 0.  0.
<mgrwt>
<rscale>  0 0.86458702E+03</rscale>
<asrwt>0</asrwt>
<pdfrwt beam="1">  1        2 0.32247294E+00 0.93571957E+03</pdfrwt>
<pdfrwt beam="2">  1       -2 0.62443715E-01 0.93571957E+03</pdfrwt>
<totfact> 0.14221510E+01</totfact>
</mgrwt>
</event>
<event>
 4    1  0.2051094E-007  0.7129462E+03  0.7818608E-02  0.9947219E-01
         -2   -1    0    0    0  501 -0.00000000000E+00  0.00000000000E+00  0.53983900387E+03  0.53983900388E+03  0.25500000000E-02 0.  1.
          2   -1    0    0  501    0  0.00000000000E+00 -0.00000000000E+00 -0.16546801790E+04  0.16546801790E+04  0.25500000000E-02 0. -1.
    8880023    1    1    2    0    0 -0.22382961480E+03  0.15614837187E+03 -0.15222011097E+04  0.16808891800E+04  0.65864270000E+03 0. -1.
    8880022    1    1    2    0    0  0.22382961480E+03 -0.15614837187E+03  0.40735993465E+03  0.51363000290E+03  0.15294330000E+03 0.  0.
<mgrwt>
<rscale>  0 0.58026420E+03</rscale>
<asrwt>0</asrwt>
<pdfrwt beam="1">  1        2 0.25456618E+00 0.71294615E+03</pdfrwt>
<pdfrwt beam="2">  1       -2 0.83052155E-01 0.71294615E+03</pdfrwt>
<totfact> 0.13632626E+01</totfact>
</mgrwt>
</event>
<event>
 4    1  0.2152494E-007  0.9421308E+03  0.7818608E-02  0.9461528E-01
          2   -1    0    0  501    0  0.00000000000E+00  0.00000000000E+00  0.19949504745E+04  0.19949504745E+04  0.25500000000E-02 0. -1.
         -2   -1    0    0    0  501 -0.00000000000E+00 -0.00000000000E+00 -0.16955604993E+04  0.16955604993E+04  0.25500000000E-02 0.  1.
    8880023    1    1    2    0    0 -0.33089870547E+03 -0.58677612773E+03  0.18038353815E+04  0.20350509741E+04  0.65864270000E+03 0.  0.
    8880022    1    1    2    0    0  0.33089870547E+03  0.58677612773E+03 -0.15044454062E+04  0.16554599997E+04  0.15294330000E+03 0.  1.
<mgrwt>
<rscale>  0 0.87180632E+03</rscale>
<asrwt>0</asrwt>
<pdfrwt beam="1">  1        2 0.30691546E+00 0.94213077E+03</pdfrwt>
<pdfrwt beam="2">  1       -2 0.26085546E+00 0.94213077E+03</pdfrwt>
<totfact> 0.37627743E-01</totfact>
</mgrwt>
</event>
<event>
 4    1  0.2051094E-007  0.1430743E+04  0.7818608E-02  0.8960156E-01
         -2   -1    0    0    0  501 -0.00000000000E+00  0.00000000000E+00  0.96181289489E+03  0.96181289489E+03  0.25500000000E-02 0.  1.
          2   -1    0    0  501    0  0.00000000000E+00 -0.00000000000E+00 -0.34828630150E+04  0.34828630150E+04  0.25500000000E-02 0. -1.
    8880023    1    1    2    0    0  0.10239332426E+04 -0.75151503071E+03 -0.27917781098E+04  0.31370446836E+04  0.65864270000E+03 0.  0.
    8880022    1    1    2    0    0 -0.10239332426E+04  0.75151503071E+03  0.27072798960E+03  0.13076312263E+04  0.15294330000E+03 0.  0.
<mgrwt>
<rscale>  0 0.13912787E+04</rscale>
<asrwt>0</asrwt>
<pdfrwt beam="1">  1        2 0.53582508E+00 0.14307426E+04</pdfrwt>
<pdfrwt beam="2">  1       -2 0.14797122E+00 0.14307426E+04</pdfrwt>
<totfact> 0.24967931E-01</totfact>
</mgrwt>
</event>
<event>
 4    1  0.2051094E-007  0.6695872E+03  0.7818608E-02  0.1015961E+00
         -2   -1    0    0    0  501 -0.00000000000E+00  0.00000000000E+00  0.25796302441E+03  0.25796302442E+03  0.25500000000E-02 0.  1.
          2   -1    0    0  501    0  0.00000000000E+00 -0.00000000000E+00 -0.11075841809E+04  0.11075841809E+04  0.25500000000E-02 0. -1.
    8880023    1    1    2    0    0  0.11797550095E+03 -0.24871161310E+02 -0.93735397854E+03  0.11519459540E+04  0.65864270000E+03 0. -1.
    8880022    1    1    2    0    0 -0.11797550095E+03  0.24871161310E+02  0.87732822079E+02  0.21360125134E+03  0.15294330000E+03 0.  0.
<mgrwt>
<rscale>  0 0.49172918E+03</rscale>
<asrwt>0</asrwt>
<pdfrwt beam="1">  1        2 0.17039756E+00 0.66958719E+03</pdfrwt>
<pdfrwt beam="2">  1       -2 0.39686620E-01 0.66958719E+03</pdfrwt>
<totfact> 0.13193244E+02</totfact>
</mgrwt>
</event>
<event>
 4    1  0.2051094E-007  0.1564713E+04  0.7818608E-02  0.8865242E-01
          2   -1    0    0  501    0  0.00000000000E+00  0.00000000000E+00  0.18683737926E+04  0.18683737926E+04  0.25500000000E-02 0. -1.
         -2   -1    0    0    0  501 -0.00000000000E+00 -0.00000000000E+00 -0.17343719974E+04  0.17343719974E+04  0.25500000000E-02 0.  1.
    8880023    1    1    2    0    0 -0.11970152760E+04  0.76267413539E+03  0.10701078222E+04  0.18956419401E+04  0.65864270000E+03 0. -1.
    8880022    1    1    2    0    0  0.11970152760E+04 -0.76267413539E+03 -0.93610602694E+03  0.17071038499E+04  0.15294330000E+03 0.  0.
<mgrwt>
<rscale>  0 0.15292348E+04</rscale>
<asrwt>0</asrwt>
<pdfrwt beam="1">  1        2 0.28744212E+00 0.15647133E+04</pdfrwt>
<pdfrwt beam="2">  1       -2 0.26682646E+00 0.15647133E+04</pdfrwt>
<totfact> 0.37324368E-01</totfact>
</mgrwt>
</event>
<event>
 4    1  0.2051094E-007  0.7544255E+03  0.7818608E-02  0.9819759E-01
          2   -1    0    0  501    0  0.00000000000E+00  0.00000000000E+00  0.21882477935E+04  0.21882477935E+04  0.25500000000E-02 0. -1.
         -2   -1    0    0    0  501 -0.00000000000E+00 -0.00000000000E+00 -0.52764086136E+03  0.52764086137E+03  0.25500000000E-02 0.  1.
    8880023    1    1    2    0    0  0.28985967306E+03 -0.22655898187E+03  0.20342730988E+04  0.21696600769E+04  0.65864270000E+03 0. -1.
    8880022    1    1    2    0    0 -0.28985967306E+03  0.22655898187E+03 -0.37366616665E+03  0.54622857802E+03  0.15294330000E+03 0.  0.
<mgrwt>
<rscale>  0 0.64312857E+03</rscale>
<asrwt>0</asrwt>
<pdfrwt beam="1">  1        2 0.33665351E+00 0.75442548E+03</pdfrwt>
<pdfrwt beam="2">  1       -2 0.81175517E-01 0.75442548E+03</pdfrwt>
<totfact> 0.72920435E+00</totfact>
</mgrwt>
</event>
<event>
 4    1  0.2051094E-007  0.7283278E+03  0.7818608E-02  0.9895353E-01
          2   -1    0    0  501    0  0.00000000000E+00  0.00000000000E+00  0.91792242957E+03  0.91792242958E+03  0.25500000000E-02 0. -1.
         -2   -1    0    0    0  501 -0.00000000000E+00 -0.00000000000E+00 -0.21244680483E+04  0.21244680483E+04  0.25500000000E-02 0.  1.
    8880023    1    1    2    0    0  0.14672905951E+02 -0.31054134029E+03  0.75584480309E+03  0.10496488893E+04  0.65864270000E+03 0. -1.
    8880022    1    1    2    0    0 -0.14672905951E+02  0.31054134029E+03 -0.19623904218E+04  0.19927415886E+04  0.15294330000E+03 0.  0.
<mgrwt>
<rscale>  0 0.60487025E+03</rscale>
<asrwt>0</asrwt>
<pdfrwt beam="1">  1        2 0.14121884E+00 0.72832783E+03</pdfrwt>
<pdfrwt beam="2">  1       -2 0.32684124E+00 0.72832783E+03</pdfrwt>
<totfact> 0.65457532E-01</totfact>
</mgrwt>
</event>
<event>
 4    1  0.2051094E-007  0.1660130E+04  0.7818608E-02  0.8804128E-01
          2   -1    0    0  501    0  0.00000000000E+00  0.00000000000E+00  0.16382129244E+04  0.16382129244E+04  0.25500000000E-02 0. -1.
         -2   -1    0    0    0  501 -0.00000000000E+00 -0.00000000000E+00 -0.16328355509E+04  0.16328355509E+04  0.25500000000E-02 0.  1.
    8880023    1    1    2    0    0 -0.10057644285E+04 -0.11448404119E+04  0.36062663798E+03  0.16988476779E+04  0.65864270000E+03 0.  0.
    8880022    1    1    2    0    0  0.10057644285E+04  0.11448404119E+04 -0.35524926450E+03  0.15722007974E+04  0.15294330000E+03 0.  0.
<mgrwt>
<rscale>  0 0.16270041E+04</rscale>
<asrwt>0</asrwt>
<pdfrwt beam="1">  1        2 0.25203276E+00 0.16601301E+04</pdfrwt>
<pdfrwt beam="2">  1       -2 0.25120547E+00 0.16601301E+04</pdfrwt>
<totfact> 0.62044444E-01</totfact>
</mgrwt>
</event>
<event>
 4    1  0.2051094E-007  0.6861356E+03  0.7818608E-02  0.1006046E+00
          2   -1    0    0  501    0  0.00000000000E+00  0.00000000000E+00  0.74262334699E+03  0.74262334699E+03  0.25500000000E-02 0. -1.
         -2   -1    0    0    0  501 -0.00000000000E+00 -0.00000000000E+00 -0.11529327705E+04  0.11529327705E+04  0.25500000000E-02 0.  1.
    8880023    1    1    2    0    0  0.73286295747E+02 -0.17776668195E+03  0.56559379489E+03  0.88920100171E+03  0.65864270000E+03 0. -1.
    8880022    1    1    2    0    0 -0.73286295747E+02  0.17776668195E+03 -0.97590321837E+03  0.10063551157E+04  0.15294330000E+03 0.  0.
<mgrwt>
<rscale>  0 0.53076747E+03</rscale>
<asrwt>0</asrwt>
<pdfrwt beam="1">  1        2 0.11424975E+00 0.68613561E+03</pdfrwt>
<pdfrwt beam="2">  1       -2 0.17737427E+00 0.68613561E+03</pdfrwt>
<totfact> 0.73726521E+00</totfact>
</mgrwt>
</event>
<event>
 4    1  0.2051094E-007  0.1915582E+04  0.7818608E-02  0.8661159E-01
         -2   -1    0    0    0  501 -0.00000000000E+00  0.00000000000E+00  0.22488281812E+04  0.22488281812E+04  0.25500000000E-02 0.  1.
          2   -1    0    0  501    0  0.00000000000E+00 -0.00000000000E+00 -0.27560313661E+04  0.27560313661E+04  0.25500000000E-02 0. -1.
    8880023    1    1    2    0    0 -0.15528390510E+04  0.90792886307E+03  0.14046315179E+04  0.23753828841E+04  0.65864270000E+03 0.  0.
    8880022    1    1    2    0    0  0.15528390510E+04 -0.90792886307E+03 -0.19118347028E+04  0.26294766632E+04  0.15294330000E+03 0.  0.
<mgrwt>
<rscale>  0 0.18873902E+04</rscale>
<asrwt>0</asrwt>
<pdfrwt beam="1">  1        2 0.42400483E+00 0.19155819E+04</pdfrwt>
<pdfrwt beam="2">  1       -2 0.34597357E+00 0.19155819E+04</pdfrwt>
<totfact> 0.36138781E-02</totfact>
</mgrwt>
</event>
<event>
 4    1  0.2051094E-007  0.7187800E+03  0.7818608E-02  0.9926736E-01
         -2   -1    0    0    0  501 -0.00000000000E+00  0.00000000000E+00  0.48979905229E+03  0.48979905230E+03  0.25500000000E-02 0.  1.
          2   -1    0    0  501    0  0.00000000000E+00 -0.00000000000E+00 -0.62342267248E+03  0.62342267248E+03  0.25500000000E-02 0. -1.
    8880023    1    1    2    0    0  0.19578855221E+03  0.21095352998E+03 -0.25899338252E+03  0.76401722980E+03  0.65864270000E+03 0. -1.
    8880022    1    1    2    0    0 -0.19578855221E+03 -0.21095352998E+03  0.12536976233E+03  0.34920449497E+03  0.15294330000E+03 0.  0.
<mgrwt>
<rscale>  0 0.58982879E+03</rscale>
<asrwt>0</asrwt>
<pdfrwt beam="1">  1        2 0.95911180E-01 0.71878005E+03</pdfrwt>
<pdfrwt beam="2">  1       -2 0.75353700E-01 0.71878005E+03</pdfrwt>
<totfact> 0.75850487E+01</totfact>
</mgrwt>
</event>
<event>
 4    1  0.2051094E-007  0.1271606E+04  0.7818608E-02  0.9090476E-01
          2   -1    0    0  501    0  0.00000000000E+00  0.00000000000E+00  0.20387456521E+04  0.20387456521E+04  0.25500000000E-02 0. -1.
         -2   -1    0    0    0  501 -0.00000000000E+00 -0.00000000000E+00 -0.88626359051E+03  0.88626359051E+03  0.25500000000E-02 0.  1.
    8880023    1    1    2    0    0  0.51976562089E+03  0.95551899209E+03  0.12978733969E+04  0.18169915811E+04  0.65864270000E+03 0. -1.
    8880022    1    1    2    0    0 -0.51976562089E+03 -0.95551899209E+03 -0.14539133534E+03  0.11080176616E+04  0.15294330000E+03 0.  0.
<mgrwt>
<rscale>  0 0.12259094E+04</rscale>
<asrwt>0</asrwt>
<pdfrwt beam="1">  1        2 0.31365317E+00 0.12716065E+04</pdfrwt>
<pdfrwt beam="2">  1       -2 0.13634825E+00 0.12716065E+04</pdfrwt>
<totfact> 0.23650429E+00</totfact>
</mgrwt>
</event>
<event>
 4    1  0.2051094E-007  0.7801882E+03  0.7818608E-02  0.9755395E-01
         -2   -1    0    0    0  501 -0.00000000000E+00  0.00000000000E+00  0.82306841463E+03  0.82306841464E+03  0.25500000000E-02 0.  1.
          2   -1    0    0  501    0  0.00000000000E+00 -0.00000000000E+00 -0.12390947202E+04  0.12390947202E+04  0.25500000000E-02 0. -1.
    8880023    1    1    2    0    0 -0.28620523028E+03 -0.30490968334E+03 -0.10372023707E+04  0.12978760776E+04  0.65864270000E+03 0.  0.
    8880022    1    1    2    0    0  0.28620523028E+03  0.30490968334E+03  0.62117606516E+03  0.76428705719E+03  0.15294330000E+03 0.  0.
<mgrwt>
<rscale>  0 0.67812227E+03</rscale>
<asrwt>0</asrwt>
<pdfrwt beam="1">  1        2 0.19062996E+00 0.78018815E+03</pdfrwt>
<pdfrwt beam="2">  1       -2 0.12662591E+00 0.78018815E+03</pdfrwt>
<totfact> 0.84718639E+00</totfact>
</mgrwt>
</event>
<event>
 4    1  0.2051094E-007  0.7118461E+03  0.7818608E-02  0.9951208E-01
          2   -1    0    0  501    0  0.00000000000E+00  0.00000000000E+00  0.21751941105E+04  0.21751941105E+04  0.25500000000E-02 0. -1.
         -2   -1    0    0    0  501 -0.00000000000E+00 -0.00000000000E+00 -0.49010943697E+03  0.49010943697E+03  0.25500000000E-02 0.  1.
    8880023    1    1    2    0    0  0.26508627305E+03 -0.51419590652E+02  0.20594687761E+04  0.21790219256E+04  0.65864270000E+03 0. -1.
    8880022    1    1    2    0    0 -0.26508627305E+03  0.51419590652E+02 -0.37438410256E+03  0.48628162183E+03  0.15294330000E+03 0.  0.
<mgrwt>
<rscale>  0 0.57842422E+03</rscale>
<asrwt>0</asrwt>
<pdfrwt beam="1">  1        2 0.33464525E+00 0.71184613E+03</pdfrwt>
<pdfrwt beam="2">  1       -2 0.75401452E-01 0.71184613E+03</pdfrwt>
<totfact> 0.88054660E+00</totfact>
</mgrwt>
</event>
<event>
 4    1  0.2051094E-007  0.1575924E+04  0.7818608E-02  0.8857804E-01
          2   -1    0    0  501    0  0.00000000000E+00  0.00000000000E+00  0.15585516767E+04  0.15585516767E+04  0.25500000000E-02 0. -1.
         -2   -1    0    0    0  501 -0.00000000000E+00 -0.00000000000E+00 -0.15351088533E+04  0.15351088533E+04  0.25500000000E-02 0.  1.
    8880023    1    1    2    0    0  0.36515110076E+03  0.13843382033E+04 -0.33219569277E+03  0.16105563548E+04  0.65864270000E+03 0.  0.
    8880022    1    1    2    0    0 -0.36515110076E+03 -0.13843382033E+04  0.35563851617E+03  0.14831041752E+04  0.15294330000E+03 0.  0.
<mgrwt>
<rscale>  0 0.15407408E+04</rscale>
<asrwt>0</asrwt>
<pdfrwt beam="1">  1        2 0.23977718E+00 0.15759244E+04</pdfrwt>
<pdfrwt beam="2">  1       -2 0.23617059E+00 0.15759244E+04</pdfrwt>
<totfact> 0.85938721E-01</totfact>
</mgrwt>
</event>
<event>
 4    1  0.2051094E-007  0.9496761E+03  0.7818608E-02  0.9450580E-01
         -2   -1    0    0    0  501 -0.00000000000E+00  0.00000000000E+00  0.15657024088E+04  0.15657024088E+04  0.25500000000E-02 0.  1.
          2   -1    0    0  501    0  0.00000000000E+00 -0.00000000000E+00 -0.10564273490E+04  0.10564273490E+04  0.25500000000E-02 0. -1.
    8880023    1    1    2    0    0 -0.15160535453E+03  0.66715088593E+03 -0.73032627640E+03  0.11980238580E+04  0.65864270000E+03 0. -1.
    8880022    1    1    2    0    0  0.15160535453E+03 -0.66715088593E+03  0.12396013362E+04  0.14241058998E+04  0.15294330000E+03 0.  0.
<mgrwt>
<rscale>  0 0.88027493E+03</rscale>
<asrwt>0</asrwt>
<pdfrwt beam="1">  1        2 0.16252728E+00 0.94967610E+03</pdfrwt>
<pdfrwt beam="2">  1       -2 0.24087729E+00 0.94967610E+03</pdfrwt>
<totfact> 0.17003521E+00</totfact>
</mgrwt>
</event>
<event>
 4    1  0.2051094E-007  0.7224996E+03  0.7818608E-02  0.9914217E-01
         -2   -1    0    0    0  501 -0.00000000000E+00  0.00000000000E+00  0.58638230267E+03  0.58638230268E+03  0.25500000000E-02 0.  1.
          2   -1    0    0  501    0  0.00000000000E+00 -0.00000000000E+00 -0.64606066919E+03  0.64606066920E+03  0.25500000000E-02 0. -1.
    8880023    1    1    2    0    0  0.22419767448E+03 -0.19475860811E+03  0.26215028354E+03  0.76858863516E+03  0.65864270000E+03 0.  1.
    8880022    1    1    2    0    0 -0.22419767448E+03  0.19475860811E+03 -0.32182865006E+03  0.46385433671E+03  0.15294330000E+03 0.  0.
<mgrwt>
<rscale>  0 0.59577188E+03</rscale>
<asrwt>0</asrwt>
<pdfrwt beam="1">  1        2 0.99393949E-01 0.72249963E+03</pdfrwt>
<pdfrwt beam="2">  1       -2 0.90212662E-01 0.72249963E+03</pdfrwt>
<totfact> 0.48315094E+01</totfact>
</mgrwt>
</event>
<event>
 4    1  0.2051094E-007  0.8914489E+03  0.7818608E-02  0.9539901E-01
         -2   -1    0    0    0  501 -0.00000000000E+00  0.00000000000E+00  0.12966222170E+04  0.12966222170E+04  0.25500000000E-02 0.  1.
          2   -1    0    0  501    0  0.00000000000E+00 -0.00000000000E+00 -0.28149982631E+04  0.28149982631E+04  0.25500000000E-02 0. -1.
    8880023    1    1    2    0    0  0.44867712300E+03  0.39944940328E+03 -0.26639149312E+04  0.28091144429E+04  0.65864270000E+03 0. -1.
    8880022    1    1    2    0    0 -0.44867712300E+03 -0.39944940328E+03  0.11455388851E+04  0.13025060371E+04  0.15294330000E+03 0.  0.
<mgrwt>
<rscale>  0 0.81404961E+03</rscale>
<asrwt>0</asrwt>
<pdfrwt beam="1">  1        2 0.43307665E+00 0.89144893E+03</pdfrwt>
<pdfrwt beam="2">  1       -2 0.19948034E+00 0.89144893E+03</pdfrwt>
<totfact> 0.31416901E-01</totfact>
</mgrwt>
</event>
<event>
 4    1  0.2051094E-007  0.7431171E+03  0.7818608E-02  0.9850958E-01
         -2   -1    0    0    0  501 -0.00000000000E+00  0.00000000000E+00  0.82164875251E+03  0.82164875251E+03  0.25500000000E-02 0.  1.
          2   -1    0    0  501    0  0.00000000000E+00 -0.00000000000E+00 -0.32129768773E+04  0.32129768773E+04  0.25500000000E-02 0. -1.
    8880023    1    1    2    0    0 -0.34394350088E+03  0.10756124164E+02 -0.31238272692E+04  0.32109998194E+04  0.65864270000E+03 0. -1.
    8880022    1    1    2    0    0  0.34394350088E+03 -0.10756124164E+02  0.73249914442E+03  0.82362581042E+03  0.15294330000E+03 0.  0.
<mgrwt>
<rscale>  0 0.62698072E+03</rscale>
<asrwt>0</asrwt>
<pdfrwt beam="1">  1        2 0.49430413E+00 0.74311711E+03</pdfrwt>
<pdfrwt beam="2">  1       -2 0.12640750E+00 0.74311711E+03</pdfrwt>
<totfact> 0.63950741E-01</totfact>
</mgrwt>
</event>
<event>
 4    1  0.2051094E-007  0.8887285E+03  0.7818608E-02  0.9544374E-01
         -2   -1    0    0    0  501 -0.00000000000E+00  0.00000000000E+00  0.97342341026E+03  0.97342341027E+03  0.25500000000E-02 0.  1.
          2   -1    0    0  501    0  0.00000000000E+00 -0.00000000000E+00 -0.13102597810E+04  0.13102597810E+04  0.25500000000E-02 0. -1.
    8880023    1    1    2    0    0  0.32433928611E+03 -0.50083154497E+03 -0.10273124576E+04  0.13583848132E+04  0.65864270000E+03 0. -1.
    8880022    1    1    2    0    0 -0.32433928611E+03  0.50083154497E+03  0.69047608684E+03  0.92529837808E+03  0.15294330000E+03 0.  0.
<mgrwt>
<rscale>  0 0.81089916E+03</rscale>
<asrwt>0</asrwt>
<pdfrwt beam="1">  1        2 0.20157843E+00 0.88872854E+03</pdfrwt>
<pdfrwt beam="2">  1       -2 0.14975745E+00 0.88872854E+03</pdfrwt>
<totfact> 0.49279835E+00</totfact>
</mgrwt>
</event>
<event>
 4    1  0.2051094E-007  0.7266267E+03  0.7818608E-02  0.9900770E-01
          2   -1    0    0  501    0  0.00000000000E+00  0.00000000000E+00  0.30143639971E+04  0.30143639971E+04  0.25500000000E-02 0. -1.
         -2   -1    0    0    0  501 -0.00000000000E+00 -0.00000000000E+00 -0.53128937902E+03  0.53128937902E+03  0.25500000000E-02 0.  1.
    8880023    1    1    2    0    0  0.28341196709E+03  0.11770191782E+03  0.29092773435E+04  0.29986465200E+04  0.65864270000E+03 0. -1.
    8880022    1    1    2    0    0 -0.28341196709E+03 -0.11770191782E+03 -0.42620272535E+03  0.54700685614E+03  0.15294330000E+03 0.  0.
<mgrwt>
<rscale>  0 0.60223988E+03</rscale>
<asrwt>0</asrwt>
<pdfrwt beam="1">  1        2 0.46374832E+00 0.72662665E+03</pdfrwt>
<pdfrwt beam="2">  1       -2 0.81736826E-01 0.72662665E+03</pdfrwt>
<totfact> 0.24099498E+00</totfact>
</mgrwt>
</event>
<event>
 4    1  0.2051094E-007  0.7569742E+03  0.7818608E-02  0.9813005E-01
          2   -1    0    0  501    0  0.00000000000E+00  0.00000000000E+00  0.24125405318E+04  0.24125405318E+04  0.25500000000E-02 0. -1.
         -2   -1    0    0    0  501 -0.00000000000E+00 -0.00000000000E+00 -0.15395208836E+03  0.15395208838E+03  0.25500000000E-02 0.  1.
    8880023    1    1    2    0    0  0.20530307249E+02  0.37252944881E+03  0.18176933942E+04  0.19690147702E+04  0.65864270000E+03 0. -1.
    8880022    1    1    2    0    0 -0.20530307249E+02 -0.37252944881E+03  0.44089504928E+03  0.59747785000E+03  0.15294330000E+03 0.  0.
<mgrwt>
<rscale>  0 0.64669272E+03</rscale>
<asrwt>0</asrwt>
<pdfrwt beam="1">  1        2 0.37116010E+00 0.75697417E+03</pdfrwt>
<pdfrwt beam="2">  1       -2 0.23684935E-01 0.75697417E+03</pdfrwt>
<totfact> 0.64049071E+01</totfact>
</mgrwt>
</event>
<event>
 4    1  0.2051094E-007  0.6711303E+03  0.7818608E-02  0.1014865E+00
          2   -1    0    0  501    0  0.00000000000E+00  0.00000000000E+00  0.40396665287E+04  0.40396665287E+04  0.25500000000E-02 0. -1.
         -2   -1    0    0    0  501 -0.00000000000E+00 -0.00000000000E+00 -0.46114492908E+03  0.46114492909E+03  0.25500000000E-02 0.  1.
    8880023    1    1    2    0    0  0.10535665992E+03 -0.74200157206E+02  0.39885444528E+04  0.40446140418E+04  0.65864270000E+03 0.  0.
    8880022    1    1    2    0    0 -0.10535665992E+03  0.74200157206E+02 -0.41002285322E+03  0.45619741592E+03  0.15294330000E+03 0.  0.
<mgrwt>
<rscale>  0 0.49585995E+03</rscale>
<asrwt>0</asrwt>
<pdfrwt beam="1">  1        2 0.62148714E+00 0.67113031E+03</pdfrwt>
<pdfrwt beam="2">  1       -2 0.70945376E-01 0.67113031E+03</pdfrwt>
<totfact> 0.65365322E-01</totfact>
</mgrwt>
</event>
<event>
 4    1  0.2051094E-007  0.8888622E+03  0.7818608E-02  0.9544153E-01
          2   -1    0    0  501    0  0.00000000000E+00  0.00000000000E+00  0.31897451963E+04  0.31897451963E+04  0.25500000000E-02 0. -1.
         -2   -1    0    0    0  501 -0.00000000000E+00 -0.00000000000E+00 -0.26916084627E+03  0.26916084628E+03  0.25500000000E-02 0.  1.
    8880023    1    1    2    0    0  0.34098358032E+03  0.48989391724E+03  0.63671945173E+03  0.10933836100E+04  0.65864270000E+03 0.  0.
    8880022    1    1    2    0    0 -0.34098358032E+03 -0.48989391724E+03  0.22838648983E+04  0.23655224326E+04  0.15294330000E+03 0.  0.
<mgrwt>
<rscale>  0 0.81105412E+03</rscale>
<asrwt>0</asrwt>
<pdfrwt beam="1">  1        2 0.49073001E+00 0.88886223E+03</pdfrwt>
<pdfrwt beam="2">  1       -2 0.41409362E-01 0.88886223E+03</pdfrwt>
<totfact> 0.76039734E+00</totfact>
</mgrwt>
</event>
<event>
 4    1  0.2051094E-007  0.7746932E+03  0.7818608E-02  0.9768454E-01
          2   -1    0    0  501    0  0.00000000000E+00  0.00000000000E+00  0.51388639533E+03  0.51388639534E+03  0.25500000000E-02 0. -1.
         -2   -1    0    0    0  501 -0.00000000000E+00 -0.00000000000E+00 -0.14294161100E+04  0.14294161100E+04  0.25500000000E-02 0.  1.
    8880023    1    1    2    0    0  0.94668099679E+02  0.39670801983E+03  0.15277192884E+03  0.78961305119E+03  0.65864270000E+03 0.  0.
    8880022    1    1    2    0    0 -0.94668099679E+02 -0.39670801983E+03 -0.10683016435E+04  0.11536894542E+04  0.15294330000E+03 0.  0.
<mgrwt>
<rscale>  0 0.67083323E+03</rscale>
<asrwt>0</asrwt>
<pdfrwt beam="1">  1        2 0.79059446E-01 0.77469317E+03</pdfrwt>
<pdfrwt beam="2">  1       -2 0.21991017E+00 0.77469317E+03</pdfrwt>
<totfact> 0.60201457E+00</totfact>
</mgrwt>
</event>
<event>
 4    1  0.2051094E-007  0.7648899E+03  0.7818608E-02  0.9792609E-01
         -2   -1    0    0    0  501 -0.00000000000E+00  0.00000000000E+00  0.49456486075E+03  0.49456486075E+03  0.25500000000E-02 0.  1.
          2   -1    0    0  501    0  0.00000000000E+00 -0.00000000000E+00 -0.80112810364E+03  0.80112810364E+03  0.25500000000E-02 0. -1.
    8880023    1    1    2    0    0  0.33998740891E+03  0.18882520048E+03  0.20282966893E+02  0.76515880676E+03  0.65864270000E+03 0.  0.
    8880022    1    1    2    0    0 -0.33998740891E+03 -0.18882520048E+03 -0.32684620978E+03  0.53053415763E+03  0.15294330000E+03 0.  0.
<mgrwt>
<rscale>  0 0.65760721E+03</rscale>
<asrwt>0</asrwt>
<pdfrwt beam="1">  1        2 0.12325048E+00 0.76488993E+03</pdfrwt>
<pdfrwt beam="2">  1       -2 0.76086902E-01 0.76488993E+03</pdfrwt>
<totfact> 0.53832573E+01</totfact>
</mgrwt>
</event>
<event>
 4    1  0.2051094E-007  0.1147606E+04  0.7818608E-02  0.9209817E-01
         -2   -1    0    0    0  501 -0.00000000000E+00  0.00000000000E+00  0.57000616039E+03  0.57000616039E+03  0.25500000000E-02 0.  1.
          2   -1    0    0  501    0  0.00000000000E+00 -0.00000000000E+00 -0.25161245996E+04  0.25161245996E+04  0.25500000000E-02 0. -1.
    8880023    1    1    2    0    0  0.76120912218E+03 -0.55113459490E+03 -0.17825775079E+04  0.21200427937E+04  0.65864270000E+03 0. -1.
    8880022    1    1    2    0    0 -0.76120912218E+03  0.55113459490E+03 -0.16354093138E+03  0.96608796631E+03  0.15294330000E+03 0.  0.
<mgrwt>
<rscale>  0 0.10952678E+04</rscale>
<asrwt>0</asrwt>
<pdfrwt beam="1">  1        2 0.38709609E+00 0.11476057E+04</pdfrwt>
<pdfrwt beam="2">  1       -2 0.87693257E-01 0.11476057E+04</pdfrwt>
<totfact> 0.37889813E+00</totfact>
</mgrwt>
</event>
<event>
 4    1  0.2051094E-007  0.7746500E+03  0.7818608E-02  0.9768558E-01
         -2   -1    0    0    0  501 -0.00000000000E+00  0.00000000000E+00  0.50944634159E+03  0.50944634160E+03  0.25500000000E-02 0.  1.
          2   -1    0    0  501    0  0.00000000000E+00 -0.00000000000E+00 -0.11510805843E+04  0.11510805843E+04  0.25500000000E-02 0. -1.
    8880023    1    1    2    0    0  0.38412199123E+03 -0.13683077562E+03 -0.87319843108E+03  0.11672866279E+04  0.65864270000E+03 0. -1.
    8880022    1    1    2    0    0 -0.38412199123E+03  0.13683077562E+03  0.23156418833E+03  0.49324029807E+03  0.15294330000E+03 0.  0.
<mgrwt>
<rscale>  0 0.67077559E+03</rscale>
<asrwt>0</asrwt>
<pdfrwt beam="1">  1        2 0.17708932E+00 0.77464997E+03</pdfrwt>
<pdfrwt beam="2">  1       -2 0.78376361E-01 0.77464997E+03</pdfrwt>
<totfact> 0.29796884E+01</totfact>
</mgrwt>
</event>
<event>
 4    1  0.2051094E-007  0.1287689E+04  0.7818608E-02  0.9076264E-01
         -2   -1    0    0    0  501 -0.00000000000E+00  0.00000000000E+00  0.14008275211E+04  0.14008275211E+04  0.25500000000E-02 0.  1.
          2   -1    0    0  501    0  0.00000000000E+00 -0.00000000000E+00 -0.12038158364E+04  0.12038158364E+04  0.25500000000E-02 0. -1.
    8880023    1    1    2    0    0  0.28786416869E+00 -0.11064961491E+04 -0.38644409653E+03  0.13444266648E+04  0.65864270000E+03 0.  0.
    8880022    1    1    2    0    0 -0.28786416869E+00  0.11064961491E+04  0.58345578128E+03  0.12602166927E+04  0.15294330000E+03 0.  0.
<mgrwt>
<rscale>  0 0.12427198E+04</rscale>
<asrwt>0</asrwt>
<pdfrwt beam="1">  1        2 0.18520244E+00 0.12876894E+04</pdfrwt>
<pdfrwt beam="2">  1       -2 0.21551193E+00 0.12876894E+04</pdfrwt>
<totfact> 0.19147949E+00</totfact>
</mgrwt>
</event>
<event>
 4    1  0.2051094E-007  0.8592580E+03  0.7818608E-02  0.9594885E-01
         -2   -1    0    0    0  501 -0.00000000000E+00  0.00000000000E+00  0.47416995053E+03  0.47416995054E+03  0.25500000000E-02 0.  1.
          2   -1    0    0  501    0  0.00000000000E+00 -0.00000000000E+00 -0.33120568690E+04  0.33120568690E+04  0.25500000000E-02 0. -1.
    8880023    1    1    2    0    0  0.54130519006E+03 -0.10725126468E+03 -0.30552122642E+04  0.31737432675E+04  0.65864270000E+03 0.  0.
    8880022    1    1    2    0    0 -0.54130519006E+03  0.10725126468E+03  0.21732534575E+03  0.61248355201E+03  0.15294330000E+03 0.  0.
<mgrwt>
<rscale>  0 0.77635675E+03</rscale>
<asrwt>0</asrwt>
<pdfrwt beam="1">  1        2 0.50954719E+00 0.85925802E+03</pdfrwt>
<pdfrwt beam="2">  1       -2 0.72949225E-01 0.85925802E+03</pdfrwt>
<totfact> 0.19598698E+00</totfact>
</mgrwt>
</event>
<event>
 4    1  0.2051094E-007  0.1461025E+04  0.7818608E-02  0.8937659E-01
         -2   -1    0    0    0  501 -0.00000000000E+00  0.00000000000E+00  0.19949321407E+04  0.19949321407E+04  0.25500000000E-02 0.  1.
          2   -1    0    0  501    0  0.00000000000E+00 -0.00000000000E+00 -0.10956077097E+04  0.10956077097E+04  0.25500000000E-02 0. -1.
    8880023    1    1    2    0    0  0.95484677634E+03  0.88828557289E+03 -0.63315881764E+02  0.14623962296E+04  0.65864270000E+03 0.  0.
    8880022    1    1    2    0    0 -0.95484677634E+03 -0.88828557289E+03  0.96264031271E+03  0.16281436208E+04  0.15294330000E+03 0.  0.
<mgrwt>
<rscale>  0 0.14225446E+04</rscale>
<asrwt>0</asrwt>
<pdfrwt beam="1">  1        2 0.16855504E+00 0.14610249E+04</pdfrwt>
<pdfrwt beam="2">  1       -2 0.30691263E+00 0.14610249E+04</pdfrwt>
<totfact> 0.60042281E-01</totfact>
</mgrwt>
</event>
<event>
 4    1  0.2051094E-007  0.1014906E+04  0.7818608E-02  0.9362311E-01
          2   -1    0    0  501    0  0.00000000000E+00  0.00000000000E+00  0.18639550856E+04  0.18639550856E+04  0.25500000000E-02 0. -1.
         -2   -1    0    0    0  501 -0.00000000000E+00 -0.00000000000E+00 -0.24106004880E+04  0.24106004880E+04  0.25500000000E-02 0.  1.
    8880023    1    1    2    0    0  0.70043732311E+03  0.32497889086E+03  0.16522226412E+04  0.19390393461E+04  0.65864270000E+03 0.  0.
    8880022    1    1    2    0    0 -0.70043732311E+03 -0.32497889086E+03 -0.21988680436E+04  0.23355162276E+04  0.15294330000E+03 0.  0.
<mgrwt>
<rscale>  0 0.95243336E+03</rscale>
<asrwt>0</asrwt>
<pdfrwt beam="1">  1        2 0.28676232E+00 0.10149059E+04</pdfrwt>
<pdfrwt beam="2">  1       -2 0.37086161E+00 0.10149059E+04</pdfrwt>
<totfact> 0.92598657E-02</totfact>
</mgrwt>
</event>
<event>
 4    1  0.2051094E-007  0.1066763E+04  0.7818608E-02  0.9298996E-01
         -2   -1    0    0    0  501 -0.00000000000E+00  0.00000000000E+00  0.49490112878E+03  0.49490112879E+03  0.25500000000E-02 0.  1.
          2   -1    0    0  501    0  0.00000000000E+00 -0.00000000000E+00 -0.22824128376E+04  0.22824128376E+04  0.25500000000E-02 0. -1.
    8880023    1    1    2    0    0  0.36760601860E+03 -0.75434676921E+03 -0.15681293705E+04  0.18965793319E+04  0.65864270000E+03 0. -1.
    8880022    1    1    2    0    0 -0.36760601860E+03  0.75434676921E+03 -0.21938233834E+03  0.88073463456E+03  0.15294330000E+03 0.  0.
<mgrwt>
<rscale>  0 0.10087532E+04</rscale>
<asrwt>0</asrwt>
<pdfrwt beam="1">  1        2 0.35114043E+00 0.10667631E+04</pdfrwt>
<pdfrwt beam="2">  1       -2 0.76138637E-01 0.10667631E+04</pdfrwt>
<totfact> 0.71545252E+00</totfact>
</mgrwt>
</event>
<event>
 4    1  0.2051094E-007  0.7203083E+03  0.7818608E-02  0.9921544E-01
          2   -1    0    0  501    0  0.00000000000E+00  0.00000000000E+00  0.19241623820E+04  0.19241623820E+04  0.25500000000E-02 0. -1.
         -2   -1    0    0    0  501 -0.00000000000E+00 -0.00000000000E+00 -0.29544830932E+03  0.29544830933E+03  0.25500000000E-02 0.  1.
    8880023    1    1    2    0    0 -0.96836002906E+02  0.27505748874E+03  0.17309355974E+04  0.18748285474E+04  0.65864270000E+03 0. -1.
    8880022    1    1    2    0    0  0.96836002906E+02 -0.27505748874E+03 -0.10222152479E+03  0.34478214385E+03  0.15294330000E+03 0.  0.
<mgrwt>
<rscale>  0 0.59228432E+03</rscale>
<asrwt>0</asrwt>
<pdfrwt beam="1">  1        2 0.29602497E+00 0.72030829E+03</pdfrwt>
<pdfrwt beam="2">  1       -2 0.45453587E-01 0.72030829E+03</pdfrwt>
<totfact> 0.34951171E+01</totfact>
</mgrwt>
</event>
<event>
 4    1  0.2051094E-007  0.7237586E+03  0.7818608E-02  0.9910068E-01
         -2   -1    0    0    0  501 -0.00000000000E+00  0.00000000000E+00  0.31192010046E+03  0.31192010047E+03  0.25500000000E-02 0.  1.
          2   -1    0    0  501    0  0.00000000000E+00 -0.00000000000E+00 -0.13661321026E+04  0.13661321026E+04  0.25500000000E-02 0. -1.
    8880023    1    1    2    0    0 -0.28607195930E+03 -0.90438209668E+02 -0.11213774732E+04  0.13346587127E+04  0.65864270000E+03 0. -1.
    8880022    1    1    2    0    0  0.28607195930E+03  0.90438209668E+02  0.67165471141E+02  0.34339349032E+03  0.15294330000E+03 0.  0.
<mgrwt>
<rscale>  0 0.59775840E+03</rscale>
<asrwt>0</asrwt>
<pdfrwt beam="1">  1        2 0.21017417E+00 0.72375855E+03</pdfrwt>
<pdfrwt beam="2">  1       -2 0.47987708E-01 0.72375855E+03</pdfrwt>
<totfact> 0.63605269E+01</totfact>
</mgrwt>
</event>
<event>
 4    1  0.2051094E-007  0.1096289E+04  0.7818608E-02  0.9265199E-01
          2   -1    0    0  501    0  0.00000000000E+00  0.00000000000E+00  0.53994935094E+04  0.53994935094E+04  0.25500000000E-02 0. -1.
         -2   -1    0    0    0  501 -0.00000000000E+00 -0.00000000000E+00 -0.42109627941E+03  0.42109627941E+03  0.25500000000E-02 0.  1.
    8880023    1    1    2    0    0 -0.81903268195E+03 -0.31180885513E+03  0.47865828066E+04  0.49105218121E+04  0.65864270000E+03 0.  0.
    8880022    1    1    2    0    0  0.81903268195E+03  0.31180885513E+03  0.19181442340E+03  0.91006797674E+03  0.15294330000E+03 0.  0.
<mgrwt>
<rscale>  0 0.10405080E+04</rscale>
<asrwt>0</asrwt>
<pdfrwt beam="1">  1        2 0.83069128E+00 0.10962890E+04</pdfrwt>
<pdfrwt beam="2">  1       -2 0.64784045E-01 0.10962890E+04</pdfrwt>
<totfact> 0.21940856E-02</totfact>
</mgrwt>
</event>
<event>
 4    1  0.2051094E-007  0.9929432E+03  0.7818608E-02  0.9390849E-01
         -2   -1    0    0    0  501 -0.00000000000E+00  0.00000000000E+00  0.19469213294E+04  0.19469213294E+04  0.25500000000E-02 0.  1.
          2   -1    0    0  501    0  0.00000000000E+00 -0.00000000000E+00 -0.12449823064E+04  0.12449823064E+04  0.25500000000E-02 0. -1.
    8880023    1    1    2    0    0 -0.60476537449E+03  0.43172312817E+03 -0.94993335058E+03  0.13741577764E+04  0.65864270000E+03 0. -1.
    8880022    1    1    2    0    0  0.60476537449E+03 -0.43172312817E+03  0.16518723736E+04  0.18177458593E+04  0.15294330000E+03 0.  0.
<mgrwt>
<rscale>  0 0.92832627E+03</rscale>
<asrwt>0</asrwt>
<pdfrwt beam="1">  1        2 0.19153574E+00 0.99294321E+03</pdfrwt>
<pdfrwt beam="2">  1       -2 0.29952636E+00 0.99294321E+03</pdfrwt>
<totfact> 0.57273438E-01</totfact>
</mgrwt>
</event>
<event>
 4    1  0.2517676E-007  0.7834829E+03  0.7818608E-02  0.9747718E-01
          2   -1    0    0  501    0  0.00000000000E+00  0.00000000000E+00  0.15456057042E+04  0.15456057042E+04  0.25500000000E-02 0. -1.
         -2   -1    0    0    0  501 -0.00000000000E+00 -0.00000000000E+00 -0.14758664887E+04  0.14758664888E+04  0.25500000000E-02 0.  1.
    8880023    1    1    2    0    0  0.22212284763E+03 -0.36152007590E+03  0.14068712361E+04  0.16103205290E+04  0.65864270000E+03 0. -1.
    8880022    1    1    2    0    0 -0.22212284763E+03  0.36152007590E+03 -0.13371320207E+04  0.14111516639E+04  0.15294330000E+03 0.  0.
<mgrwt>
<rscale>  0 0.68245376E+03</rscale>
<asrwt>0</asrwt>
<pdfrwt beam="1">  1        2 0.23778549E+00 0.78348295E+03</pdfrwt>
<pdfrwt beam="2">  1       -2 0.22705638E+00 0.78348295E+03</pdfrwt>
<totfact> 0.11011306E+00</totfact>
</mgrwt>
</event>
<event>
 4    1  0.2051094E-007  0.9774763E+03  0.7818608E-02  0.9411637E-01
          2   -1    0    0  501    0  0.00000000000E+00  0.00000000000E+00  0.29791115496E+04  0.29791115496E+04  0.25500000000E-02 0. -1.
         -2   -1    0    0    0  501 -0.00000000000E+00 -0.00000000000E+00 -0.43442711363E+03  0.43442711364E+03  0.25500000000E-02 0.  1.
    8880023    1    1    2    0    0  0.39131139969E+03  0.60706267999E+03  0.24879652649E+04  0.26730939143E+04  0.65864270000E+03 0. -1.
    8880022    1    1    2    0    0 -0.39131139969E+03 -0.60706267999E+03  0.56719171130E+02  0.74044474902E+03  0.15294330000E+03 0.  0.
<mgrwt>
<rscale>  0 0.91124123E+03</rscale>
<asrwt>0</asrwt>
<pdfrwt beam="1">  1        2 0.45832486E+00 0.97747630E+03</pdfrwt>
<pdfrwt beam="2">  1       -2 0.66834940E-01 0.97747630E+03</pdfrwt>
<totfact> 0.37818456E+00</totfact>
</mgrwt>
</event>
<event>
 4    1  0.2051094E-007  0.8839514E+03  0.7818608E-02  0.9552302E-01
         -2   -1    0    0    0  501 -0.00000000000E+00  0.00000000000E+00  0.54205200018E+03  0.54205200019E+03  0.25500000000E-02 0.  1.
          2   -1    0    0  501    0  0.00000000000E+00 -0.00000000000E+00 -0.32536878764E+04  0.32536878765E+04  0.25500000000E-02 0. -1.
    8880023    1    1    2    0    0 -0.39998666475E+03 -0.43309405804E+03 -0.29959182316E+04  0.31236030560E+04  0.65864270000E+03 0. -1.
    8880022    1    1    2    0    0  0.39998666475E+03  0.43309405804E+03  0.28428235530E+03  0.67213682062E+03  0.15294330000E+03 0.  0.
<mgrwt>
<rscale>  0 0.80535231E+03</rscale>
<asrwt>0</asrwt>
<pdfrwt beam="1">  1        2 0.50056736E+00 0.88395136E+03</pdfrwt>
<pdfrwt beam="2">  1       -2 0.83392617E-01 0.88395136E+03</pdfrwt>
<totfact> 0.15776060E+00</totfact>
</mgrwt>
</event>
<event>
 4    1  0.2051094E-007  0.9908189E+03  0.7818608E-02  0.9393669E-01
          2   -1    0    0  501    0  0.00000000000E+00  0.00000000000E+00  0.24718261285E+04  0.24718261285E+04  0.25500000000E-02 0. -1.
         -2   -1    0    0    0  501 -0.00000000000E+00 -0.00000000000E+00 -0.79578506936E+03  0.79578506937E+03  0.25500000000E-02 0.  1.
    8880023    1    1    2    0    0 -0.25261568335E+01  0.74020642228E+03  0.21556399114E+04  0.23724471676E+04  0.65864270000E+03 0.  0.
    8880022    1    1    2    0    0  0.25261568335E+01 -0.74020642228E+03 -0.47959885225E+03  0.89516403030E+03  0.15294330000E+03 0.  0.
<mgrwt>
<rscale>  0 0.92598529E+03</rscale>
<asrwt>0</asrwt>
<pdfrwt beam="1">  1        2 0.38028094E+00 0.99081892E+03</pdfrwt>
<pdfrwt beam="2">  1       -2 0.12242847E+00 0.99081892E+03</pdfrwt>
<totfact> 0.18399710E+00</totfact>
</mgrwt>
</event>
<event>
 4    1  0.2516477E-007  0.9779688E+03  0.7818608E-02  0.9410966E-01
          2   -1    0    0  501    0  0.00000000000E+00  0.00000000000E+00  0.23211074741E+04  0.23211074741E+04  0.25500000000E-02 0. -1.
         -2   -1    0    0    0  501 -0.00000000000E+00 -0.00000000000E+00 -0.12957004637E+04  0.12957004637E+04  0.25500000000E-02 0.  1.
    8880023    1    1    2    0    0 -0.70543159864E+03  0.15804729674E+03  0.20977597749E+04  0.23145234861E+04  0.65864270000E+03 0. -1.
    8880022    1    1    2    0    0  0.70543159864E+03 -0.15804729674E+03 -0.10723527645E+04  0.13022844516E+04  0.15294330000E+03 0.  0.
<mgrwt>
<rscale>  0 0.91178669E+03</rscale>
<asrwt>0</asrwt>
<pdfrwt beam="1">  1        2 0.35709346E+00 0.97796876E+03</pdfrwt>
<pdfrwt beam="2">  1       -2 0.19933853E+00 0.97796876E+03</pdfrwt>
<totfact> 0.59669051E-01</totfact>
</mgrwt>
</event>
<event>
 4    1  0.2051094E-007  0.7497247E+03  0.7818608E-02  0.9832474E-01
         -2   -1    0    0    0  501 -0.00000000000E+00  0.00000000000E+00  0.19623089560E+03  0.19623089562E+03  0.25500000000E-02 0.  1.
          2   -1    0    0  501    0  0.00000000000E+00 -0.00000000000E+00 -0.20686298269E+04  0.20686298269E+04  0.25500000000E-02 0. -1.
    8880023    1    1    2    0    0 -0.35603074403E+03 -0.38974934643E+02 -0.16595550962E+04  0.18210464738E+04  0.65864270000E+03 0.  0.
    8880022    1    1    2    0    0  0.35603074403E+03  0.38974934643E+02 -0.21284383517E+03  0.44381424877E+03  0.15294330000E+03 0.  0.
<mgrwt>
<rscale>  0 0.63648522E+03</rscale>
<asrwt>0</asrwt>
<pdfrwt beam="1">  1        2 0.31825073E+00 0.74972471E+03</pdfrwt>
<pdfrwt beam="2">  1       -2 0.30189370E-01 0.74972471E+03</pdfrwt>
<totfact> 0.63836293E+01</totfact>
</mgrwt>
</event>
<event>
 4    1  0.2051094E-007  0.7128313E+03  0.7818608E-02  0.9947634E-01
          2   -1    0    0  501    0  0.00000000000E+00  0.00000000000E+00  0.66625891744E+03  0.66625891745E+03  0.25500000000E-02 0. -1.
         -2   -1    0    0    0  501 -0.00000000000E+00 -0.00000000000E+00 -0.62187643257E+03  0.62187643257E+03  0.25500000000E-02 0.  1.
    8880023    1    1    2    0    0  0.32441946079E+02 -0.27067639441E+03  0.39779905046E+03  0.81631640996E+03  0.65864270000E+03 0.  0.
    8880022    1    1    2    0    0 -0.32441946079E+02  0.27067639441E+03 -0.35341656558E+03  0.47181894006E+03  0.15294330000E+03 0.  0.
<mgrwt>
<rscale>  0 0.58007258E+03</rscale>
<asrwt>0</asrwt>
<pdfrwt beam="1">  1        2 0.10250137E+00 0.71283125E+03</pdfrwt>
<pdfrwt beam="2">  1       -2 0.95673297E-01 0.71283125E+03</pdfrwt>
<totfact> 0.40606115E+01</totfact>
</mgrwt>
</event>
<event>
 4    1  0.2051094E-007  0.8706340E+03  0.7818608E-02  0.9574920E-01
          2   -1    0    0  501    0  0.00000000000E+00  0.00000000000E+00  0.16969505174E+04  0.16969505174E+04  0.25500000000E-02 0. -1.
         -2   -1    0    0    0  501 -0.00000000000E+00 -0.00000000000E+00 -0.44028860791E+03  0.44028860792E+03  0.25500000000E-02 0.  1.
    8880023    1    1    2    0    0 -0.11285338834E+03 -0.55808373875E+03  0.12790547005E+04  0.15472506196E+04  0.65864270000E+03 0.  0.
    8880022    1    1    2    0    0  0.11285338834E+03  0.55808373875E+03 -0.22392791066E+02  0.58998850567E+03  0.15294330000E+03 0.  1.
<mgrwt>
<rscale>  0 0.78978584E+03</rscale>
<asrwt>0</asrwt>
<pdfrwt beam="1">  1        2 0.26106932E+00 0.87063399E+03</pdfrwt>
<pdfrwt beam="2">  1       -2 0.67736707E-01 0.87063399E+03</pdfrwt>
<totfact> 0.19915909E+01</totfact>
</mgrwt>
</event>
<event>
 4    1  0.2051094E-007  0.1137069E+04  0.7818608E-02  0.9220865E-01
         -2   -1    0    0    0  501 -0.00000000000E+00  0.00000000000E+00  0.10607383012E+04  0.10607383012E+04  0.25500000000E-02 0.  1.
          2   -1    0    0  501    0  0.00000000000E+00 -0.00000000000E+00 -0.24124752283E+04  0.24124752283E+04  0.25500000000E-02 0. -1.
    8880023    1    1    2    0    0  0.83731441776E+03 -0.39751780642E+03 -0.20215922282E+04  0.23194312199E+04  0.65864270000E+03 0.  0.
    8880022    1    1    2    0    0 -0.83731441776E+03  0.39751780642E+03  0.66985530108E+03  0.11537823096E+04  0.15294330000E+03 0.  0.
<mgrwt>
<rscale>  0 0.10840640E+04</rscale>
<asrwt>0</asrwt>
<pdfrwt beam="1">  1        2 0.37115003E+00 0.11370691E+04</pdfrwt>
<pdfrwt beam="2">  1       -2 0.16319051E+00 0.11370691E+04</pdfrwt>
<totfact> 0.91840443E-01</totfact>
</mgrwt>
</event>
<event>
 4    1  0.2051094E-007  0.1125220E+04  0.7818608E-02  0.9233483E-01
          2   -1    0    0  501    0  0.00000000000E+00  0.00000000000E+00  0.14316793092E+04  0.14316793092E+04  0.25500000000E-02 0. -1.
         -2   -1    0    0    0  501 -0.00000000000E+00 -0.00000000000E+00 -0.13837736756E+04  0.13837736756E+04  0.25500000000E-02 0.  1.
    8880023    1    1    2    0    0 -0.30261380369E+03 -0.86065975370E+03  0.98737366694E+03  0.14970061090E+04  0.65864270000E+03 0.  0.
    8880022    1    1    2    0    0  0.30261380369E+03  0.86065975370E+03 -0.93946803327E+03  0.13184468758E+04  0.15294330000E+03 0.  0.
<mgrwt>
<rscale>  0 0.10714415E+04</rscale>
<asrwt>0</asrwt>
<pdfrwt beam="1">  1        2 0.22025836E+00 0.11252202E+04</pdfrwt>
<pdfrwt beam="2">  1       -2 0.21288826E+00 0.11252202E+04</pdfrwt>
<totfact> 0.14902012E+00</totfact>
</mgrwt>
</event>
<event>
 4    1  0.2051094E-007  0.7453801E+03  0.7818608E-02  0.9844544E-01
         -2   -1    0    0    0  501 -0.00000000000E+00  0.00000000000E+00  0.88111547905E+03  0.88111547905E+03  0.25500000000E-02 0.  1.
          2   -1    0    0  501    0  0.00000000000E+00 -0.00000000000E+00 -0.66306238710E+03  0.66306238710E+03  0.25500000000E-02 0. -1.
    8880023    1    1    2    0    0 -0.29313637586E+03 -0.18934700725E+03 -0.37877429132E+03  0.83609891403E+03  0.65864270000E+03 0. -1.
    8880022    1    1    2    0    0  0.29313637586E+03  0.18934700725E+03  0.59682738327E+03  0.70807895213E+03  0.15294330000E+03 0.  0.
<mgrwt>
<rscale>  0 0.63025894E+03</rscale>
<asrwt>0</asrwt>
<pdfrwt beam="1">  1        2 0.10200960E+00 0.74538006E+03</pdfrwt>
<pdfrwt beam="2">  1       -2 0.13555623E+00 0.74538006E+03</pdfrwt>
<totfact> 0.17372101E+01</totfact>
</mgrwt>
</event>
<event>
 4    1  0.2051094E-007  0.1180385E+04  0.7818608E-02  0.9176429E-01
          2   -1    0    0  501    0  0.00000000000E+00  0.00000000000E+00  0.91399051649E+03  0.91399051649E+03  0.25500000000E-02 0. -1.
         -2   -1    0    0    0  501 -0.00000000000E+00 -0.00000000000E+00 -0.19322664128E+04  0.19322664128E+04  0.25500000000E-02 0.  1.
    8880023    1    1    2    0    0  0.14189728276E+03  0.96920785804E+03  0.27959991127E+03  0.12130478258E+04  0.65864270000E+03 0.  0.
    8880022    1    1    2    0    0 -0.14189728276E+03 -0.96920785804E+03 -0.12978758075E+04  0.16332091035E+04  0.15294330000E+03 0.  0.
<mgrwt>
<rscale>  0 0.11300064E+04</rscale>
<asrwt>0</asrwt>
<pdfrwt beam="1">  1        2 0.14061393E+00 0.11803851E+04</pdfrwt>
<pdfrwt beam="2">  1       -2 0.29727175E+00 0.11803851E+04</pdfrwt>
<totfact> 0.92971273E-01</totfact>
</mgrwt>
</event>
<event>
 4    1  0.2051094E-007  0.1781346E+04  0.7818608E-02  0.8732926E-01
         -2   -1    0    0    0  501 -0.00000000000E+00  0.00000000000E+00  0.20992993949E+04  0.20992993949E+04  0.25500000000E-02 0.  1.
          2   -1    0    0  501    0  0.00000000000E+00 -0.00000000000E+00 -0.24999244036E+04  0.24999244036E+04  0.25500000000E-02 0. -1.
    8880023    1    1    2    0    0 -0.14298074582E+04  0.83368633166E+03 -0.17206590838E+04  0.24766631092E+04  0.65864270000E+03 0.  0.
    8880022    1    1    2    0    0  0.14298074582E+04 -0.83368633166E+03  0.13200340751E+04  0.21225606893E+04  0.15294330000E+03 0.  0.
<mgrwt>
<rscale>  0 0.17507709E+04</rscale>
<asrwt>0</asrwt>
<pdfrwt beam="1">  1        2 0.38460375E+00 0.17813457E+04</pdfrwt>
<pdfrwt beam="2">  1       -2 0.32296914E+00 0.17813457E+04</pdfrwt>
<totfact> 0.72427283E-02</totfact>
</mgrwt>
</event>
<event>
 4    1  0.2318861E-007  0.7887479E+03  0.7818608E-02  0.9735675E-01
          2   -1    0    0  501    0  0.00000000000E+00  0.00000000000E+00  0.13783552820E+04  0.13783552820E+04  0.25500000000E-02 0. -1.
         -2   -1    0    0    0  501 -0.00000000000E+00 -0.00000000000E+00 -0.15609936131E+04  0.15609936131E+04  0.25500000000E-02 0.  1.
    8880023    1    1    2    0    0  0.16982908881E+03  0.39933830373E+03  0.12258119945E+04  0.14576481922E+04  0.65864270000E+03 0. -1.
    8880022    1    1    2    0    0 -0.16982908881E+03 -0.39933830373E+03 -0.14084503256E+04  0.14817007029E+04  0.15294330000E+03 0.  0.
<mgrwt>
<rscale>  0 0.68931853E+03</rscale>
<asrwt>0</asrwt>
<pdfrwt beam="1">  1        2 0.21205466E+00 0.78874787E+03</pdfrwt>
<pdfrwt beam="2">  1       -2 0.24015286E+00 0.78874787E+03</pdfrwt>
<totfact> 0.11340616E+00</totfact>
</mgrwt>
</event>
<event>
 4    1  0.2051094E-007  0.7210998E+03  0.7818608E-02  0.9918882E-01
          2   -1    0    0  501    0  0.00000000000E+00  0.00000000000E+00  0.24229586213E+04  0.24229586213E+04  0.25500000000E-02 0. -1.
         -2   -1    0    0    0  501 -0.00000000000E+00 -0.00000000000E+00 -0.26652502969E+03  0.26652502971E+03  0.25500000000E-02 0.  1.
    8880023    1    1    2    0    0  0.22523326669E+03  0.18826773745E+03  0.22357018609E+04  0.23491163833E+04  0.65864270000E+03 0. -1.
    8880022    1    1    2    0    0 -0.22523326669E+03 -0.18826773745E+03 -0.79268269263E+02  0.34036726769E+03  0.15294330000E+03 0.  0.
<mgrwt>
<rscale>  0 0.59354853E+03</rscale>
<asrwt>0</asrwt>
<pdfrwt beam="1">  1        2 0.37276287E+00 0.72109983E+03</pdfrwt>
<pdfrwt beam="2">  1       -2 0.41003850E-01 0.72109983E+03</pdfrwt>
<totfact> 0.22761711E+01</totfact>
</mgrwt>
</event>
<event>
 4    1  0.2097273E-007  0.1439038E+04  0.7818608E-02  0.8953928E-01
         -2   -1    0    0    0  501 -0.00000000000E+00  0.00000000000E+00  0.16814111919E+04  0.16814111919E+04  0.25500000000E-02 0.  1.
          2   -1    0    0  501    0  0.00000000000E+00 -0.00000000000E+00 -0.31604296376E+04  0.31604296376E+04  0.25500000000E-02 0. -1.
    8880023    1    1    2    0    0 -0.12440495057E+04  0.29893362087E+03 -0.27045375675E+04  0.30635525363E+04  0.65864270000E+03 0.  0.
    8880022    1    1    2    0    0  0.12440495057E+04 -0.29893362087E+03  0.12255191219E+04  0.17782882931E+04  0.15294330000E+03 0.  0.
<mgrwt>
<rscale>  0 0.13998491E+04</rscale>
<asrwt>0</asrwt>
<pdfrwt beam="1">  1        2 0.48621994E+00 0.14390381E+04</pdfrwt>
<pdfrwt beam="2">  1       -2 0.25867864E+00 0.14390381E+04</pdfrwt>
<totfact> 0.74336310E-02</totfact>
</mgrwt>
</event>
<event>
 4    1  0.2051094E-007  0.1270843E+04  0.7818608E-02  0.9091157E-01
          2   -1    0    0  501    0  0.00000000000E+00  0.00000000000E+00  0.12267874916E+04  0.12267874916E+04  0.25500000000E-02 0. -1.
         -2   -1    0    0    0  501 -0.00000000000E+00 -0.00000000000E+00 -0.11904305169E+04  0.11904305169E+04  0.25500000000E-02 0.  1.
    8880023    1    1    2    0    0 -0.88188875476E+03 -0.63521879311E+03  0.25986257552E+03  0.12971389499E+04  0.65864270000E+03 0.  0.
    8880022    1    1    2    0    0  0.88188875476E+03  0.63521879311E+03 -0.22350560081E+03  0.11200790586E+04  0.15294330000E+03 0.  0.
<mgrwt>
<rscale>  0 0.12251103E+04</rscale>
<asrwt>0</asrwt>
<pdfrwt beam="1">  1        2 0.18873654E+00 0.12708426E+04</pdfrwt>
<pdfrwt beam="2">  1       -2 0.18314316E+00 0.12708426E+04</pdfrwt>
<totfact> 0.30388170E+00</totfact>
</mgrwt>
</event>
<event>
 4    1  0.2051094E-007  0.3643162E+04  0.7818608E-02  0.8083907E-01
         -2   -1    0    0    0  501 -0.00000000000E+00  0.00000000000E+00  0.33745080091E+04  0.33745080091E+04  0.25500000000E-02 0.  1.
          2   -1    0    0  501    0  0.00000000000E+00 -0.00000000000E+00 -0.42172407171E+04  0.42172407171E+04  0.25500000000E-02 0. -1.
    8880023    1    1    2    0    0 -0.32492170578E+04 -0.15104317501E+04  0.66139651876E+03  0.37027113203E+04  0.65864270000E+03 0.  0.
    8880022    1    1    2    0    0  0.32492170578E+04  0.15104317501E+04 -0.15041292267E+04  0.38890374059E+04  0.15294330000E+03 0.  0.
<mgrwt>
<rscale>  0 0.36288854E+04</rscale>
<asrwt>0</asrwt>
<pdfrwt beam="1">  1        2 0.64880626E+00 0.36431615E+04</pdfrwt>
<pdfrwt beam="2">  1       -2 0.51915508E+00 0.36431615E+04</pdfrwt>
<totfact> 0.20868718E-04</totfact>
</mgrwt>
</event>
<event>
 4    1  0.2284997E-007  0.6671061E+03  0.7818608E-02  0.1017828E+00
         -2   -1    0    0    0  501 -0.00000000000E+00  0.00000000000E+00  0.12374630151E+04  0.12374630151E+04  0.25500000000E-02 0.  1.
          2   -1    0    0  501    0  0.00000000000E+00 -0.00000000000E+00 -0.16164538567E+04  0.16164538567E+04  0.25500000000E-02 0. -1.
    8880023    1    1    2    0    0  0.55306818929E+02 -0.90340883332E+02 -0.15399024620E+04  0.16781925152E+04  0.65864270000E+03 0. -1.
    8880022    1    1    2    0    0 -0.55306818929E+02  0.90340883332E+02  0.11609116204E+04  0.11757243567E+04  0.15294330000E+03 0.  0.
<mgrwt>
<rscale>  0 0.48478533E+03</rscale>
<asrwt>0</asrwt>
<pdfrwt beam="1">  1        2 0.24868521E+00 0.66710608E+03</pdfrwt>
<pdfrwt beam="2">  1       -2 0.19037893E+00 0.66710608E+03</pdfrwt>
<totfact> 0.17664743E+00</totfact>
</mgrwt>
</event>
<event>
 4    1  0.2051094E-007  0.7564706E+03  0.7818608E-02  0.9814332E-01
          2   -1    0    0  501    0  0.00000000000E+00  0.00000000000E+00  0.21343509882E+03  0.21343509883E+03  0.25500000000E-02 0. -1.
         -2   -1    0    0    0  501 -0.00000000000E+00 -0.00000000000E+00 -0.26796599519E+04  0.26796599519E+04  0.25500000000E-02 0.  1.
    8880023    1    1    2    0    0  0.16189589514E+03 -0.33500343132E+03 -0.55046130109E+03  0.93555086987E+03  0.65864270000E+03 0. -1.
    8880022    1    1    2    0    0 -0.16189589514E+03  0.33500343132E+03 -0.19157635520E+04  0.19575441808E+04  0.15294330000E+03 0.  0.
<mgrwt>
<rscale>  0 0.64599055E+03</rscale>
<asrwt>0</asrwt>
<pdfrwt beam="1">  1        2 0.32836171E-01 0.75647061E+03</pdfrwt>
<pdfrwt beam="2">  1       -2 0.41225535E+00 0.75647061E+03</pdfrwt>
<totfact> 0.10518355E+00</totfact>
</mgrwt>
</event>
<event>
 4    1  0.2051094E-007  0.8487792E+03  0.7818608E-02  0.9613843E-01
          2   -1    0    0  501    0  0.00000000000E+00  0.00000000000E+00  0.11208448682E+04  0.11208448682E+04  0.25500000000E-02 0. -1.
         -2   -1    0    0    0  501 -0.00000000000E+00 -0.00000000000E+00 -0.44182845967E+03  0.44182845968E+03  0.25500000000E-02 0.  1.
    8880023    1    1    2    0    0  0.14805454287E+03 -0.51448595399E+03  0.37039393108E+03  0.92607657079E+03  0.65864270000E+03 0.  0.
    8880022    1    1    2    0    0 -0.14805454287E+03  0.51448595399E+03  0.30862247740E+03  0.63659675705E+03  0.15294330000E+03 0.  1.
<mgrwt>
<rscale>  0 0.76386673E+03</rscale>
<asrwt>0</asrwt>
<pdfrwt beam="1">  1        2 0.17243767E+00 0.84877921E+03</pdfrwt>
<pdfrwt beam="2">  1       -2 0.67973610E-01 0.84877921E+03</pdfrwt>
<totfact> 0.42264348E+01</totfact>
</mgrwt>
</event>
<event>
 4    1  0.2051094E-007  0.7686063E+03  0.7818608E-02  0.9783315E-01
          2   -1    0    0  501    0  0.00000000000E+00  0.00000000000E+00  0.11610376292E+04  0.11610376292E+04  0.25500000000E-02 0. -1.
         -2   -1    0    0    0  501 -0.00000000000E+00 -0.00000000000E+00 -0.72124170794E+03  0.72124170794E+03  0.25500000000E-02 0.  1.
    8880023    1    1    2    0    0  0.33875943338E+03 -0.20539580888E+03  0.94772147722E+03  0.12202178480E+04  0.65864270000E+03 0.  0.
    8880022    1    1    2    0    0 -0.33875943338E+03  0.20539580888E+03 -0.50792555594E+03  0.66206148914E+03  0.15294330000E+03 0.  0.
<mgrwt>
<rscale>  0 0.66265665E+03</rscale>
<asrwt>0</asrwt>
<pdfrwt beam="1">  1        2 0.17862117E+00 0.76860627E+03</pdfrwt>
<pdfrwt beam="2">  1       -2 0.11096026E+00 0.76860627E+03</pdfrwt>
<totfact> 0.13076536E+01</totfact>
</mgrwt>
</event>
<event>
 4    1  0.2051094E-007  0.6620524E+03  0.7818608E-02  0.1022146E+00
         -2   -1    0    0    0  501 -0.00000000000E+00  0.00000000000E+00  0.93288855780E+03  0.93288855780E+03  0.25500000000E-02 0.  1.
          2   -1    0    0  501    0  0.00000000000E+00 -0.00000000000E+00 -0.47554605661E+03  0.47554605662E+03  0.25500000000E-02 0. -1.
    8880023    1    1    2    0    0  0.64286664140E+02 -0.19246302618E+02 -0.23017316990E+03  0.70092302698E+03  0.65864270000E+03 0. -1.
    8880022    1    1    2    0    0 -0.64286664140E+02  0.19246302618E+02  0.68751567109E+03  0.70751158744E+03  0.15294330000E+03 0.  0.
<mgrwt>
<rscale>  0 0.46920192E+03</rscale>
<asrwt>0</asrwt>
<pdfrwt beam="1">  1        2 0.73160933E-01 0.66205242E+03</pdfrwt>
<pdfrwt beam="2">  1       -2 0.14352131E+00 0.66205242E+03</pdfrwt>
<totfact> 0.22430886E+01</totfact>
</mgrwt>
</event>
<event>
 4    1  0.2051094E-007  0.8726625E+03  0.7818608E-02  0.9571424E-01
         -2   -1    0    0    0  501 -0.00000000000E+00  0.00000000000E+00  0.30890417437E+03  0.30890417439E+03  0.25500000000E-02 0.  1.
          2   -1    0    0  501    0  0.00000000000E+00 -0.00000000000E+00 -0.24116066423E+04  0.24116066423E+04  0.25500000000E-02 0. -1.
    8880023    1    1    2    0    0 -0.54978178778E+03  0.15959191852E+03 -0.19058047507E+04  0.20960991267E+04  0.65864270000E+03 0.  0.
    8880022    1    1    2    0    0  0.54978178778E+03 -0.15959191852E+03 -0.19689771725E+03  0.62441169008E+03  0.15294330000E+03 0.  0.
<mgrwt>
<rscale>  0 0.79216722E+03</rscale>
<asrwt>0</asrwt>
<pdfrwt beam="1">  1        2 0.37101639E+00 0.87266248E+03</pdfrwt>
<pdfrwt beam="2">  1       -2 0.47523721E-01 0.87266248E+03</pdfrwt>
<totfact> 0.16858757E+01</totfact>
</mgrwt>
</event>
<event>
 4    1  0.2051094E-007  0.8556103E+03  0.7818608E-02  0.9601420E-01
          2   -1    0    0  501    0  0.00000000000E+00  0.00000000000E+00  0.21904668650E+04  0.21904668650E+04  0.25500000000E-02 0. -1.
         -2   -1    0    0    0  501 -0.00000000000E+00 -0.00000000000E+00 -0.37531315136E+03  0.37531315137E+03  0.25500000000E-02 0.  1.
    8880023    1    1    2    0    0  0.52711169743E+03  0.14287063040E+03  0.18061556896E+04  0.19985663211E+04  0.65864270000E+03 0.  0.
    8880022    1    1    2    0    0 -0.52711169743E+03 -0.14287063040E+03  0.89980240163E+01  0.56721369522E+03  0.15294330000E+03 0.  0.
<mgrwt>
<rscale>  0 0.77202260E+03</rscale>
<asrwt>0</asrwt>
<pdfrwt beam="1">  1        2 0.33699491E+00 0.85561029E+03</pdfrwt>
<pdfrwt beam="2">  1       -2 0.57740484E-01 0.85561029E+03</pdfrwt>
<totfact> 0.15034646E+01</totfact>
</mgrwt>
</event>
<event>
 4    1  0.2051094E-007  0.1040539E+04  0.7818608E-02  0.9330343E-01
         -2   -1    0    0    0  501 -0.00000000000E+00  0.00000000000E+00  0.11197037904E+04  0.11197037904E+04  0.25500000000E-02 0.  1.
          2   -1    0    0  501    0  0.00000000000E+00 -0.00000000000E+00 -0.25880824884E+04  0.25880824884E+04  0.25500000000E-02 0. -1.
    8880023    1    1    2    0    0  0.80249346511E+03 -0.70103813455E+02 -0.23095366596E+04  0.25331166761E+04  0.65864270000E+03 0.  0.
    8880022    1    1    2    0    0 -0.80249346511E+03  0.70103813455E+02  0.84115796164E+03  0.11746696028E+04  0.15294330000E+03 0.  0.
<mgrwt>
<rscale>  0 0.98036813E+03</rscale>
<asrwt>0</asrwt>
<pdfrwt beam="1">  1        2 0.39816654E+00 0.10405386E+04</pdfrwt>
<pdfrwt beam="2">  1       -2 0.17226212E+00 0.10405386E+04</pdfrwt>
<totfact> 0.63570249E-01</totfact>
</mgrwt>
</event>
<event>
 4    1  0.2051094E-007  0.7347931E+03  0.7818608E-02  0.9875382E-01
          2   -1    0    0  501    0  0.00000000000E+00  0.00000000000E+00  0.14854014883E+04  0.14854014883E+04  0.25500000000E-02 0. -1.
         -2   -1    0    0    0  501 -0.00000000000E+00 -0.00000000000E+00 -0.81530535487E+03  0.81530535487E+03  0.25500000000E-02 0.  1.
    8880023    1    1    2    0    0  0.57420594136E+02 -0.32064546822E+03  0.13468339396E+04  0.15342367836E+04  0.65864270000E+03 0. -1.
    8880022    1    1    2    0    0 -0.57420594136E+02  0.32064546822E+03 -0.67673780618E+03  0.76647005959E+03  0.15294330000E+03 0.  0.
<mgrwt>
<rscale>  0 0.61469329E+03</rscale>
<asrwt>0</asrwt>
<pdfrwt beam="1">  1        2 0.22852331E+00 0.73479306E+03</pdfrwt>
<pdfrwt beam="2">  1       -2 0.12543159E+00 0.73479306E+03</pdfrwt>
<totfact> 0.63175027E+00</totfact>
</mgrwt>
</event>
<event>
 4    1  0.2051094E-007  0.1499931E+04  0.7818608E-02  0.8909685E-01
         -2   -1    0    0    0  501 -0.00000000000E+00  0.00000000000E+00  0.21025501853E+04  0.21025501853E+04  0.25500000000E-02 0.  1.
          2   -1    0    0  501    0  0.00000000000E+00 -0.00000000000E+00 -0.20573859316E+04  0.20573859316E+04  0.25500000000E-02 0. -1.
    8880023    1    1    2    0    0  0.74015892215E+02 -0.13455498277E+04 -0.14881322121E+04  0.21128962062E+04  0.65864270000E+03 0. -1.
    8880022    1    1    2    0    0 -0.74015892215E+02  0.13455498277E+04  0.15332964658E+04  0.20470399108E+04  0.15294330000E+03 0.  0.
<mgrwt>
<rscale>  0 0.14626392E+04</rscale>
<asrwt>0</asrwt>
<pdfrwt beam="1">  1        2 0.31652091E+00 0.14999310E+04</pdfrwt>
<pdfrwt beam="2">  1       -2 0.32346926E+00 0.14999310E+04</pdfrwt>
<totfact> 0.13274873E-01</totfact>
</mgrwt>
</event>
<event>
 4    1  0.2051094E-007  0.8125639E+03  0.7818608E-02  0.9684261E-01
         -2   -1    0    0    0  501 -0.00000000000E+00  0.00000000000E+00  0.32523619951E+03  0.32523619952E+03  0.25500000000E-02 0.  1.
          2   -1    0    0  501    0  0.00000000000E+00 -0.00000000000E+00 -0.25614383545E+04  0.25614383545E+04  0.25500000000E-02 0. -1.
    8880023    1    1    2    0    0 -0.14843122312E+02 -0.47563589226E+03 -0.22441941257E+04  0.23867692181E+04  0.65864270000E+03 0. -1.
    8880022    1    1    2    0    0  0.14843122312E+02  0.47563589226E+03  0.79919707159E+01  0.49990533593E+03  0.15294330000E+03 0.  0.
<mgrwt>
<rscale>  0 0.71961663E+03</rscale>
<asrwt>0</asrwt>
<pdfrwt beam="1">  1        2 0.39406743E+00 0.81256386E+03</pdfrwt>
<pdfrwt beam="2">  1       -2 0.50036340E-01 0.81256386E+03</pdfrwt>
<totfact> 0.12588735E+01</totfact>
</mgrwt>
</event>
<event>
 4    1  0.2051094E-007  0.7985180E+03  0.7818608E-02  0.9714010E-01
          2   -1    0    0  501    0  0.00000000000E+00  0.00000000000E+00  0.97942735716E+03  0.97942735716E+03  0.25500000000E-02 0. -1.
         -2   -1    0    0    0  501 -0.00000000000E+00 -0.00000000000E+00 -0.52516073863E+03  0.52516073863E+03  0.25500000000E-02 0.  1.
    8880023    1    1    2    0    0  0.17355816236E+03  0.41677132239E+03  0.60811126771E+03  0.10037082699E+04  0.65864270000E+03 0.  0.
    8880022    1    1    2    0    0 -0.17355816236E+03 -0.41677132239E+03 -0.15384464918E+03  0.50087982589E+03  0.15294330000E+03 0.  0.
<mgrwt>
<rscale>  0 0.70188755E+03</rscale>
<asrwt>0</asrwt>
<pdfrwt beam="1">  1        2 0.15068113E+00 0.79851799E+03</pdfrwt>
<pdfrwt beam="2">  1       -2 0.80793960E-01 0.79851799E+03</pdfrwt>
<totfact> 0.35508433E+01</totfact>
</mgrwt>
</event>
<event>
 4    1  0.2051094E-007  0.7198755E+03  0.7818608E-02  0.9923007E-01
         -2   -1    0    0    0  501 -0.00000000000E+00  0.00000000000E+00  0.24506416889E+03  0.24506416890E+03  0.25500000000E-02 0.  1.
          2   -1    0    0  501    0  0.00000000000E+00 -0.00000000000E+00 -0.24678467690E+04  0.24678467690E+04  0.25500000000E-02 0. -1.
    8880023    1    1    2    0    0  0.35065325077E+02  0.28841107809E+03 -0.22698075627E+04  0.23812280666E+04  0.65864270000E+03 0. -1.
    8880022    1    1    2    0    0 -0.35065325077E+02 -0.28841107809E+03  0.47024962644E+02  0.33168287130E+03  0.15294330000E+03 0.  0.
<mgrwt>
<rscale>  0 0.59159090E+03</rscale>
<asrwt>0</asrwt>
<pdfrwt beam="1">  1        2 0.37966872E+00 0.71987550E+03</pdfrwt>
<pdfrwt beam="2">  1       -2 0.37702181E-01 0.71987550E+03</pdfrwt>
<totfact> 0.25284856E+01</totfact>
</mgrwt>
</event>
<event>
 4    1  0.2051094E-007  0.7739715E+03  0.7818608E-02  0.9770194E-01
          2   -1    0    0  501    0  0.00000000000E+00  0.00000000000E+00  0.60378648627E+03  0.60378648627E+03  0.25500000000E-02 0. -1.
         -2   -1    0    0    0  501 -0.00000000000E+00 -0.00000000000E+00 -0.63992047343E+03  0.63992047343E+03  0.25500000000E-02 0.  1.
    8880023    1    1    2    0    0  0.12692730110E+03  0.38614902889E+03  0.11790766761E+03  0.78290103885E+03  0.65864270000E+03 0.  1.
    8880022    1    1    2    0    0 -0.12692730110E+03 -0.38614902889E+03 -0.15404165477E+03  0.46080592086E+03  0.15294330000E+03 0.  0.
<mgrwt>
<rscale>  0 0.66986955E+03</rscale>
<asrwt>0</asrwt>
<pdfrwt beam="1">  1        2 0.92890229E-01 0.77397146E+03</pdfrwt>
<pdfrwt beam="2">  1       -2 0.98449303E-01 0.77397146E+03</pdfrwt>
<totfact> 0.42636268E+01</totfact>
</mgrwt>
</event>
<event>
 4    1  0.2051094E-007  0.2202895E+04  0.7818608E-02  0.8527348E-01
          2   -1    0    0  501    0  0.00000000000E+00  0.00000000000E+00  0.28021722842E+04  0.28021722842E+04  0.25500000000E-02 0. -1.
         -2   -1    0    0    0  501 -0.00000000000E+00 -0.00000000000E+00 -0.17587508795E+04  0.17587508795E+04  0.25500000000E-02 0.  1.
    8880023    1    1    2    0    0 -0.93288287458E+03  0.18837902287E+04  0.10789672914E+04  0.24529404203E+04  0.65864270000E+03 0.  0.
    8880022    1    1    2    0    0  0.93288287458E+03 -0.18837902287E+04 -0.35545886733E+02  0.21079827434E+04  0.15294330000E+03 0.  0.
<mgrwt>
<rscale>  0 0.21786962E+04</rscale>
<asrwt>0</asrwt>
<pdfrwt beam="1">  1        2 0.43110343E+00 0.22028950E+04</pdfrwt>
<pdfrwt beam="2">  1       -2 0.27057706E+00 0.22028950E+04</pdfrwt>
<totfact> 0.96448346E-02</totfact>
</mgrwt>
</event>
<event>
 4    1  0.2051094E-007  0.9305273E+03  0.7818608E-02  0.9478703E-01
         -2   -1    0    0    0  501 -0.00000000000E+00  0.00000000000E+00  0.80312808859E+03  0.80312808860E+03  0.25500000000E-02 0.  1.
          2   -1    0    0  501    0  0.00000000000E+00 -0.00000000000E+00 -0.30052824622E+04  0.30052824622E+04  0.25500000000E-02 0. -1.
    8880023    1    1    2    0    0 -0.13841798381E+03  0.64258178986E+03 -0.27726988833E+04  0.29246777940E+04  0.65864270000E+03 0. -1.
    8880022    1    1    2    0    0  0.13841798381E+03 -0.64258178986E+03  0.57054450970E+03  0.88373275681E+03  0.15294330000E+03 0.  0.
<mgrwt>
<rscale>  0 0.85872367E+03</rscale>
<asrwt>0</asrwt>
<pdfrwt beam="1">  1        2 0.46235114E+00 0.93052732E+03</pdfrwt>
<pdfrwt beam="2">  1       -2 0.12355817E+00 0.93052732E+03</pdfrwt>
<totfact> 0.87886055E-01</totfact>
</mgrwt>
</event>
<event>
 4    1  0.2051094E-007  0.9111675E+03  0.7818608E-02  0.9508337E-01
          2   -1    0    0  501    0  0.00000000000E+00  0.00000000000E+00  0.78466975574E+03  0.78466975574E+03  0.25500000000E-02 0. -1.
         -2   -1    0    0    0  501 -0.00000000000E+00 -0.00000000000E+00 -0.16242218095E+04  0.16242218095E+04  0.25500000000E-02 0.  1.
    8880023    1    1    2    0    0 -0.25395488335E+03 -0.57612758706E+03  0.41167981607E+03  0.99985326752E+03  0.65864270000E+03 0.  0.
    8880022    1    1    2    0    0  0.25395488335E+03  0.57612758706E+03 -0.12512318698E+04  0.14090382977E+04  0.15294330000E+03 0.  0.
<mgrwt>
<rscale>  0 0.83671968E+03</rscale>
<asrwt>0</asrwt>
<pdfrwt beam="1">  1        2 0.12071842E+00 0.91116754E+03</pdfrwt>
<pdfrwt beam="2">  1       -2 0.24988028E+00 0.91116754E+03</pdfrwt>
<totfact> 0.22941366E+00</totfact>
</mgrwt>
</event>
<event>
 4    1  0.2051094E-007  0.6622336E+03  0.7818608E-02  0.1021976E+00
          2   -1    0    0  501    0  0.00000000000E+00  0.00000000000E+00  0.16831820113E+04  0.16831820113E+04  0.25500000000E-02 0. -1.
         -2   -1    0    0    0  501 -0.00000000000E+00 -0.00000000000E+00 -0.22354784649E+03  0.22354784650E+03  0.25500000000E-02 0.  1.
    8880023    1    1    2    0    0 -0.51651230443E+02 -0.45555823876E+02  0.15713509014E+04  0.17051970691E+04  0.65864270000E+03 0. -1.
    8880022    1    1    2    0    0  0.51651230443E+02  0.45555823876E+02 -0.11171673659E+03  0.20153278876E+03  0.15294330000E+03 0.  0.
<mgrwt>
<rscale>  0 0.46980104E+03</rscale>
<asrwt>0</asrwt>
<pdfrwt beam="1">  1        2 0.25895108E+00 0.66223364E+03</pdfrwt>
<pdfrwt beam="2">  1       -2 0.34391976E-01 0.66223364E+03</pdfrwt>
<totfact> 0.81882438E+01</totfact>
</mgrwt>
</event>
<event>
 4    1  0.2051094E-007  0.1408600E+04  0.7818608E-02  0.8977029E-01
          2   -1    0    0  501    0  0.00000000000E+00  0.00000000000E+00  0.19464666510E+04  0.19464666510E+04  0.25500000000E-02 0. -1.
         -2   -1    0    0    0  501 -0.00000000000E+00 -0.00000000000E+00 -0.16133059195E+04  0.16133059195E+04  0.25500000000E-02 0.  1.
    8880023    1    1    2    0    0 -0.28894684806E+03 -0.12111371635E+04  0.13453574106E+04  0.19478553022E+04  0.65864270000E+03 0. -1.
    8880022    1    1    2    0    0  0.28894684806E+03  0.12111371635E+04 -0.10121966791E+04  0.16119172683E+04  0.15294330000E+03 0.  0.
<mgrwt>
<rscale>  0 0.13683815E+04</rscale>
<asrwt>0</asrwt>
<pdfrwt beam="1">  1        2 0.29945641E+00 0.14085999E+04</pdfrwt>
<pdfrwt beam="2">  1       -2 0.24820091E+00 0.14085999E+04</pdfrwt>
<totfact> 0.44689196E-01</totfact>
</mgrwt>
</event>
<event>
 4    1  0.2051094E-007  0.7696700E+03  0.7818608E-02  0.9780687E-01
          2   -1    0    0  501    0  0.00000000000E+00  0.00000000000E+00  0.85267400786E+03  0.85267400786E+03  0.25500000000E-02 0. -1.
         -2   -1    0    0    0  501 -0.00000000000E+00 -0.00000000000E+00 -0.54957615872E+03  0.54957615873E+03  0.25500000000E-02 0.  1.
    8880023    1    1    2    0    0 -0.66698509049E+02  0.39259775490E+03  0.51485932991E+03  0.92599785320E+03  0.65864270000E+03 0. -1.
    8880022    1    1    2    0    0  0.66698509049E+02 -0.39259775490E+03 -0.21176148078E+03  0.47625231340E+03  0.15294330000E+03 0.  0.
<mgrwt>
<rscale>  0 0.66409374E+03</rscale>
<asrwt>0</asrwt>
<pdfrwt beam="1">  1        2 0.13118062E+00 0.76966999E+03</pdfrwt>
<pdfrwt beam="2">  1       -2 0.84550179E-01 0.76966999E+03</pdfrwt>
<totfact> 0.39030155E+01</totfact>
</mgrwt>
</event>
<event>
 4    1  0.2051094E-007  0.1058767E+04  0.7818608E-02  0.9308416E-01
         -2   -1    0    0    0  501 -0.00000000000E+00  0.00000000000E+00  0.37584808153E+03  0.37584808154E+03  0.25500000000E-02 0.  1.
          2   -1    0    0  501    0  0.00000000000E+00 -0.00000000000E+00 -0.25530986123E+04  0.25530986123E+04  0.25500000000E-02 0. -1.
    8880023    1    1    2    0    0 -0.28852079518E+03  0.77713145698E+03 -0.15549033751E+04  0.18811465288E+04  0.65864270000E+03 0. -1.
    8880022    1    1    2    0    0  0.28852079518E+03 -0.77713145698E+03 -0.62234715566E+03  0.10478001650E+04  0.15294330000E+03 0.  1.
<mgrwt>
<rscale>  0 0.10001177E+04</rscale>
<asrwt>0</asrwt>
<pdfrwt beam="1">  1        2 0.39278439E+00 0.10587671E+04</pdfrwt>
<pdfrwt beam="2">  1       -2 0.57822783E-01 0.10587671E+04</pdfrwt>
<totfact> 0.91290595E+00</totfact>
</mgrwt>
</event>
<event>
 4    1  0.2051094E-007  0.6794602E+03  0.7818608E-02  0.1009631E+00
         -2   -1    0    0    0  501 -0.00000000000E+00  0.00000000000E+00  0.20242720139E+03  0.20242720141E+03  0.25500000000E-02 0.  1.
          2   -1    0    0  501    0  0.00000000000E+00 -0.00000000000E+00 -0.16215708587E+04  0.16215708587E+04  0.25500000000E-02 0. -1.
    8880023    1    1    2    0    0  0.11562824654E+03 -0.12035815691E+03 -0.14443821271E+04  0.15962161234E+04  0.65864270000E+03 0. -1.
    8880022    1    1    2    0    0 -0.11562824654E+03  0.12035815691E+03  0.25238469745E+02  0.22778193673E+03  0.15294330000E+03 0.  0.
<mgrwt>
<rscale>  0 0.51621693E+03</rscale>
<asrwt>0</asrwt>
<pdfrwt beam="1">  1        2 0.24947243E+00 0.67946021E+03</pdfrwt>
<pdfrwt beam="2">  1       -2 0.31142647E-01 0.67946021E+03</pdfrwt>
<totfact> 0.10643472E+02</totfact>
</mgrwt>
</event>
<event>
 4    1  0.2051094E-007  0.7156050E+03  0.7818608E-02  0.9937748E-01
         -2   -1    0    0    0  501 -0.00000000000E+00  0.00000000000E+00  0.66108482985E+03  0.66108482985E+03  0.25500000000E-02 0.  1.
          2   -1    0    0  501    0  0.00000000000E+00 -0.00000000000E+00 -0.49246136043E+03  0.49246136044E+03  0.25500000000E-02 0. -1.
    8880023    1    1    2    0    0  0.42391240740E+02 -0.27655608443E+03  0.33920109837E+03  0.79192668633E+03  0.65864270000E+03 0.  1.
    8880022    1    1    2    0    0 -0.42391240740E+02  0.27655608443E+03 -0.17057762895E+03  0.36161950396E+03  0.15294330000E+03 0.  0.
<mgrwt>
<rscale>  0 0.58466239E+03</rscale>
<asrwt>0</asrwt>
<pdfrwt beam="1">  1        2 0.75763286E-01 0.71560498E+03</pdfrwt>
<pdfrwt beam="2">  1       -2 0.10170536E+00 0.71560498E+03</pdfrwt>
<totfact> 0.50427277E+01</totfact>
</mgrwt>
</event>
<event>
 4    1  0.2051094E-007  0.1508099E+04  0.7818608E-02  0.8903938E-01
         -2   -1    0    0    0  501 -0.00000000000E+00  0.00000000000E+00  0.43026916478E+03  0.43026916479E+03  0.25500000000E-02 0.  1.
          2   -1    0    0  501    0  0.00000000000E+00 -0.00000000000E+00 -0.49677213930E+04  0.49677213930E+04  0.25500000000E-02 0. -1.
    8880023    1    1    2    0    0  0.98852163091E+03 -0.92918071138E+03 -0.28772036573E+04  0.32484862476E+04  0.65864270000E+03 0. -1.
    8880022    1    1    2    0    0 -0.98852163091E+03  0.92918071138E+03 -0.16602485709E+04  0.21495043102E+04  0.15294330000E+03 0.  0.
<mgrwt>
<rscale>  0 0.14710466E+04</rscale>
<asrwt>0</asrwt>
<pdfrwt beam="1">  1        2 0.76426479E+00 0.15080988E+04</pdfrwt>
<pdfrwt beam="2">  1       -2 0.66195259E-01 0.15080988E+04</pdfrwt>
<totfact> 0.79139083E-02</totfact>
</mgrwt>
</event>
<event>
 4    1  0.2051094E-007  0.6997094E+03  0.7818608E-02  0.9998409E-01
         -2   -1    0    0    0  501 -0.00000000000E+00  0.00000000000E+00  0.24651258931E+03  0.24651258933E+03  0.25500000000E-02 0.  1.
          2   -1    0    0  501    0  0.00000000000E+00 -0.00000000000E+00 -0.10305664387E+04  0.10305664387E+04  0.25500000000E-02 0. -1.
    8880023    1    1    2    0    0  0.20932241381E+03  0.10939422264E+03 -0.68385283835E+03  0.97839045358E+03  0.65864270000E+03 0.  1.
    8880022    1    1    2    0    0 -0.20932241381E+03 -0.10939422264E+03 -0.10020101101E+03  0.29868857442E+03  0.15294330000E+03 0.  0.
<mgrwt>
<rscale>  0 0.55720051E+03</rscale>
<asrwt>0</asrwt>
<pdfrwt beam="1">  1        2 0.15854868E+00 0.69970935E+03</pdfrwt>
<pdfrwt beam="2">  1       -2 0.37925014E-01 0.69970935E+03</pdfrwt>
<totfact> 0.16036862E+02</totfact>
</mgrwt>
</event>
<event>
 4    1  0.2051094E-007  0.8326054E+03  0.7818608E-02  0.9644284E-01
         -2   -1    0    0    0  501 -0.00000000000E+00  0.00000000000E+00  0.13962248004E+04  0.13962248004E+04  0.25500000000E-02 0.  1.
          2   -1    0    0  501    0  0.00000000000E+00 -0.00000000000E+00 -0.12860900866E+04  0.12860900866E+04  0.25500000000E-02 0. -1.
    8880023    1    1    2    0    0  0.10192633520E+03 -0.49903167380E+03 -0.10888385596E+04  0.13706936946E+04  0.65864270000E+03 0. -1.
    8880022    1    1    2    0    0 -0.10192633520E+03  0.49903167380E+03  0.11989732734E+04  0.13116211925E+04  0.15294330000E+03 0.  0.
<mgrwt>
<rscale>  0 0.74433235E+03</rscale>
<asrwt>0</asrwt>
<pdfrwt beam="1">  1        2 0.19786001E+00 0.83260543E+03</pdfrwt>
<pdfrwt beam="2">  1       -2 0.21480381E+00 0.83260543E+03</pdfrwt>
<totfact> 0.18274031E+00</totfact>
</mgrwt>
</event>
<event>
 4    1  0.2051094E-007  0.1750135E+04  0.7818608E-02  0.8750633E-01
          2   -1    0    0  501    0  0.00000000000E+00  0.00000000000E+00  0.33400619207E+04  0.33400619207E+04  0.25500000000E-02 0. -1.
         -2   -1    0    0    0  501 -0.00000000000E+00 -0.00000000000E+00 -0.13010544687E+04  0.13010544687E+04  0.25500000000E-02 0.  1.
    8880023    1    1    2    0    0 -0.37867420032E+03 -0.15766321685E+04 -0.31535948027E+03  0.17783208239E+04  0.65864270000E+03 0.  0.
    8880022    1    1    2    0    0  0.37867420032E+03  0.15766321685E+04  0.23543669323E+04  0.28627955655E+04  0.15294330000E+03 0.  0.
<mgrwt>
<rscale>  0 0.17189441E+04</rscale>
<asrwt>0</asrwt>
<pdfrwt beam="1">  1        2 0.51385567E+00 0.17501352E+04</pdfrwt>
<pdfrwt beam="2">  1       -2 0.20016223E+00 0.17501352E+04</pdfrwt>
<totfact> 0.12744831E-01</totfact>
</mgrwt>
</event>
<event>
 4    1  0.2051094E-007  0.8940851E+03  0.7818608E-02  0.9535594E-01
         -2   -1    0    0    0  501 -0.00000000000E+00  0.00000000000E+00  0.99501519350E+03  0.99501519350E+03  0.25500000000E-02 0.  1.
          2   -1    0    0  501    0  0.00000000000E+00 -0.00000000000E+00 -0.10836614512E+04  0.10836614512E+04  0.25500000000E-02 0. -1.
    8880023    1    1    2    0    0 -0.84669451943E+02  0.59867267575E+03 -0.75192134110E+03  0.11682353351E+04  0.65864270000E+03 0.  0.
    8880022    1    1    2    0    0  0.84669451943E+02 -0.59867267575E+03  0.66327508344E+03  0.91044130953E+03  0.15294330000E+03 0.  0.
<mgrwt>
<rscale>  0 0.81709693E+03</rscale>
<asrwt>0</asrwt>
<pdfrwt beam="1">  1        2 0.16671715E+00 0.89408506E+03</pdfrwt>
<pdfrwt beam="2">  1       -2 0.15307926E+00 0.89408506E+03</pdfrwt>
<totfact> 0.63434958E+00</totfact>
</mgrwt>
</event>
<event>
 4    1  0.2051094E-007  0.1396933E+04  0.7818608E-02  0.8986070E-01
          2   -1    0    0  501    0  0.00000000000E+00  0.00000000000E+00  0.28154031250E+04  0.28154031250E+04  0.25500000000E-02 0. -1.
         -2   -1    0    0    0  501 -0.00000000000E+00 -0.00000000000E+00 -0.79393246427E+03  0.79393246427E+03  0.25500000000E-02 0.  1.
    8880023    1    1    2    0    0  0.84193594723E+03 -0.89930811478E+03  0.19053021173E+04  0.23625404946E+04  0.65864270000E+03 0.  0.
    8880022    1    1    2    0    0 -0.84193594723E+03  0.89930811478E+03  0.11616854350E+03  0.12467950947E+04  0.15294330000E+03 0.  0.
<mgrwt>
<rscale>  0 0.13563041E+04</rscale>
<asrwt>0</asrwt>
<pdfrwt beam="1">  1        2 0.43313894E+00 0.13969329E+04</pdfrwt>
<pdfrwt beam="2">  1       -2 0.12214346E+00 0.13969329E+04</pdfrwt>
<totfact> 0.11056669E+00</totfact>
</mgrwt>
</event>
<event>
 4    1  0.2051094E-007  0.9781974E+03  0.7818608E-02  0.9410655E-01
         -2   -1    0    0    0  501 -0.00000000000E+00  0.00000000000E+00  0.85858138833E+03  0.85858138833E+03  0.25500000000E-02 0.  1.
          2   -1    0    0  501    0  0.00000000000E+00 -0.00000000000E+00 -0.11935408702E+04  0.11935408702E+04  0.25500000000E-02 0. -1.
    8880023    1    1    2    0    0 -0.68315575281E+03 -0.23739881446E+03 -0.72380492095E+03  0.12168663647E+04  0.65864270000E+03 0. -1.
    8880022    1    1    2    0    0  0.68315575281E+03  0.23739881446E+03  0.38884543907E+03  0.83525589384E+03  0.15294330000E+03 0.  0.
<mgrwt>
<rscale>  0 0.91203992E+03</rscale>
<asrwt>0</asrwt>
<pdfrwt beam="1">  1        2 0.18362167E+00 0.97819742E+03</pdfrwt>
<pdfrwt beam="2">  1       -2 0.13208944E+00 0.97819742E+03</pdfrwt>
<totfact> 0.79235353E+00</totfact>
</mgrwt>
</event>
<event>
 4    1  0.2273990E-007  0.8586467E+03  0.7818608E-02  0.9595975E-01
          2   -1    0    0  501    0  0.00000000000E+00  0.00000000000E+00  0.14787074252E+04  0.14787074252E+04  0.25500000000E-02 0. -1.
         -2   -1    0    0    0  501 -0.00000000000E+00 -0.00000000000E+00 -0.13413734207E+04  0.13413734207E+04  0.25500000000E-02 0.  1.
    8880023    1    1    2    0    0 -0.48631535864E+03  0.25876890026E+03  0.12806083179E+04  0.15418274359E+04  0.65864270000E+03 0. -1.
    8880022    1    1    2    0    0  0.48631535864E+03 -0.25876890026E+03 -0.11432743134E+04  0.12782534101E+04  0.15294330000E+03 0.  0.
<mgrwt>
<rscale>  0 0.77563139E+03</rscale>
<asrwt>0</asrwt>
<pdfrwt beam="1">  1        2 0.22749345E+00 0.85864671E+03</pdfrwt>
<pdfrwt beam="2">  1       -2 0.20636514E+00 0.85864671E+03</pdfrwt>
<totfact> 0.16000278E+00</totfact>
</mgrwt>
</event>
<event>
 4    1  0.2051094E-007  0.8080536E+03  0.7818608E-02  0.9693646E-01
          2   -1    0    0  501    0  0.00000000000E+00  0.00000000000E+00  0.25143342141E+04  0.25143342141E+04  0.25500000000E-02 0. -1.
         -2   -1    0    0    0  501 -0.00000000000E+00 -0.00000000000E+00 -0.67992210435E+03  0.67992210435E+03  0.25500000000E-02 0.  1.
    8880023    1    1    2    0    0 -0.72820444982E+02  0.46242577350E+03  0.23477308871E+04  0.24828997036E+04  0.65864270000E+03 0. -1.
    8880022    1    1    2    0    0  0.72820444982E+02 -0.46242577350E+03 -0.51331877744E+03  0.71135661485E+03  0.15294330000E+03 0.  0.
<mgrwt>
<rscale>  0 0.71396393E+03</rscale>
<asrwt>0</asrwt>
<pdfrwt beam="1">  1        2 0.38682064E+00 0.80805360E+03</pdfrwt>
<pdfrwt beam="2">  1       -2 0.10460340E+00 0.80805360E+03</pdfrwt>
<totfact> 0.26338854E+00</totfact>
</mgrwt>
</event>
<event>
 4    1  0.2051094E-007  0.8460172E+03  0.7818608E-02  0.9618937E-01
         -2   -1    0    0    0  501 -0.00000000000E+00  0.00000000000E+00  0.35182453833E+03  0.35182453834E+03  0.25500000000E-02 0.  1.
          2   -1    0    0  501    0  0.00000000000E+00 -0.00000000000E+00 -0.21781104815E+04  0.21781104815E+04  0.25500000000E-02 0. -1.
    8880023    1    1    2    0    0  0.34005678461E+03 -0.40779433290E+03 -0.17855914693E+04  0.19758749799E+04  0.65864270000E+03 0.  0.
    8880022    1    1    2    0    0 -0.34005678461E+03  0.40779433290E+03 -0.40694473949E+02  0.55406004000E+03  0.15294330000E+03 0.  1.
<mgrwt>
<rscale>  0 0.76055380E+03</rscale>
<asrwt>0</asrwt>
<pdfrwt beam="1">  1        2 0.33509391E+00 0.84601716E+03</pdfrwt>
<pdfrwt beam="2">  1       -2 0.54126854E-01 0.84601716E+03</pdfrwt>
<totfact> 0.17499108E+01</totfact>
</mgrwt>
</event>
<event>
 4    1  0.2051094E-007  0.9727260E+03  0.7818608E-02  0.9418144E-01
         -2   -1    0    0    0  501 -0.00000000000E+00  0.00000000000E+00  0.10635183651E+04  0.10635183651E+04  0.25500000000E-02 0.  1.
          2   -1    0    0  501    0  0.00000000000E+00 -0.00000000000E+00 -0.14821154717E+04  0.14821154717E+04  0.25500000000E-02 0. -1.
    8880023    1    1    2    0    0  0.69619889810E+03 -0.16641151029E+03 -0.11531634358E+04  0.15086357455E+04  0.65864270000E+03 0. -1.
    8880022    1    1    2    0    0 -0.69619889810E+03  0.16641151029E+03  0.73456632927E+03  0.10369980914E+04  0.15294330000E+03 0.  0.
<mgrwt>
<rscale>  0 0.90597443E+03</rscale>
<asrwt>0</asrwt>
<pdfrwt beam="1">  1        2 0.22801776E+00 0.97272602E+03</pdfrwt>
<pdfrwt beam="2">  1       -2 0.16361821E+00 0.97272602E+03</pdfrwt>
<totfact> 0.30654674E+00</totfact>
</mgrwt>
</event>
<event>
 4    1  0.2051094E-007  0.9847324E+03  0.7818608E-02  0.9401811E-01
          2   -1    0    0  501    0  0.00000000000E+00  0.00000000000E+00  0.25578718903E+04  0.25578718903E+04  0.25500000000E-02 0. -1.
         -2   -1    0    0    0  501 -0.00000000000E+00 -0.00000000000E+00 -0.76017126847E+03  0.76017126848E+03  0.25500000000E-02 0.  1.
    8880023    1    1    2    0    0  0.39371350180E+03  0.61715259806E+03  0.22416089592E+04  0.24483685554E+04  0.65864270000E+03 0. -1.
    8880022    1    1    2    0    0 -0.39371350180E+03 -0.61715259806E+03 -0.44390833737E+03  0.86967460340E+03  0.15294330000E+03 0.  0.
<mgrwt>
<rscale>  0 0.91926824E+03</rscale>
<asrwt>0</asrwt>
<pdfrwt beam="1">  1        2 0.39351875E+00 0.98473238E+03</pdfrwt>
<pdfrwt beam="2">  1       -2 0.11694943E+00 0.98473238E+03</pdfrwt>
<totfact> 0.18424487E+00</totfact>
</mgrwt>
</event>
<event>
 4    1  0.2051094E-007  0.6920330E+03  0.7818608E-02  0.1003201E+00
          2   -1    0    0  501    0  0.00000000000E+00  0.00000000000E+00  0.52130938995E+03  0.52130938996E+03  0.25500000000E-02 0. -1.
         -2   -1    0    0    0  501 -0.00000000000E+00 -0.00000000000E+00 -0.94969208684E+03  0.94969208684E+03  0.25500000000E-02 0.  1.
    8880023    1    1    2    0    0  0.20524362563E+03 -0.54539169227E+02  0.25632873763E+03  0.73797973877E+03  0.65864270000E+03 0. -1.
    8880022    1    1    2    0    0 -0.20524362563E+03  0.54539169227E+02 -0.68471143452E+03  0.73302173802E+03  0.15294330000E+03 0.  0.
<mgrwt>
<rscale>  0 0.54268696E+03</rscale>
<asrwt>0</asrwt>
<pdfrwt beam="1">  1        2 0.80201445E-01 0.69203300E+03</pdfrwt>
<pdfrwt beam="2">  1       -2 0.14610647E+00 0.69203300E+03</pdfrwt>
<totfact> 0.19194304E+01</totfact>
</mgrwt>
</event>
<event>
 4    1  0.2051094E-007  0.1047713E+04  0.7818608E-02  0.9321636E-01
         -2   -1    0    0    0  501 -0.00000000000E+00  0.00000000000E+00  0.52011776042E+03  0.52011776042E+03  0.25500000000E-02 0.  1.
          2   -1    0    0  501    0  0.00000000000E+00 -0.00000000000E+00 -0.22955441116E+04  0.22955441116E+04  0.25500000000E-02 0. -1.
    8880023    1    1    2    0    0 -0.71220774902E+03 -0.39579328830E+03 -0.16816825494E+04  0.19813527217E+04  0.65864270000E+03 0. -1.
    8880022    1    1    2    0    0  0.71220774902E+03  0.39579328830E+03 -0.93743801802E+02  0.83430915027E+03  0.15294330000E+03 0.  0.
<mgrwt>
<rscale>  0 0.98815199E+03</rscale>
<asrwt>0</asrwt>
<pdfrwt beam="1">  1        2 0.35316063E+00 0.10477129E+04</pdfrwt>
<pdfrwt beam="2">  1       -2 0.80018118E-01 0.10477129E+04</pdfrwt>
<totfact> 0.63047277E+00</totfact>
</mgrwt>
</event>
<event>
 4    1  0.2051094E-007  0.1134437E+04  0.7818608E-02  0.9223650E-01
          2   -1    0    0  501    0  0.00000000000E+00  0.00000000000E+00  0.11139716610E+04  0.11139716611E+04  0.25500000000E-02 0. -1.
         -2   -1    0    0    0  501 -0.00000000000E+00 -0.00000000000E+00 -0.18443556125E+04  0.18443556125E+04  0.25500000000E-02 0.  1.
    8880023    1    1    2    0    0 -0.73225034711E+03  0.56298044894E+03  0.63707300749E+03  0.13010802357E+04  0.65864270000E+03 0.  0.
    8880022    1    1    2    0    0  0.73225034711E+03 -0.56298044894E+03 -0.13674569589E+04  0.16572470378E+04  0.15294330000E+03 0.  1.
<mgrwt>
<rscale>  0 0.10812625E+04</rscale>
<asrwt>0</asrwt>
<pdfrwt beam="1">  1        2 0.17138026E+00 0.11344372E+04</pdfrwt>
<pdfrwt beam="2">  1       -2 0.28374702E+00 0.11344372E+04</pdfrwt>
<totfact> 0.83932172E-01</totfact>
</mgrwt>
</event>
<event>
 4    1  0.2051094E-007  0.1088223E+04  0.7818608E-02  0.9274283E-01
          2   -1    0    0  501    0  0.00000000000E+00  0.00000000000E+00  0.11808669911E+04  0.11808669911E+04  0.25500000000E-02 0. -1.
         -2   -1    0    0    0  501 -0.00000000000E+00 -0.00000000000E+00 -0.14657500639E+04  0.14657500639E+04  0.25500000000E-02 0.  1.
    8880023    1    1    2    0    0 -0.50755327265E+03  0.70200381968E+03  0.72478697067E+03  0.13074960981E+04  0.65864270000E+03 0.  0.
    8880022    1    1    2    0    0  0.50755327265E+03 -0.70200381968E+03 -0.10096700435E+04  0.13391209569E+04  0.15294330000E+03 0.  0.
<mgrwt>
<rscale>  0 0.10318531E+04</rscale>
<asrwt>0</asrwt>
<pdfrwt beam="1">  1        2 0.18167185E+00 0.10882233E+04</pdfrwt>
<pdfrwt beam="2">  1       -2 0.22550001E+00 0.10882233E+04</pdfrwt>
<totfact> 0.17454348E+00</totfact>
</mgrwt>
</event>
<event>
 4    1  0.2051094E-007  0.1039302E+04  0.7818608E-02  0.9331854E-01
         -2   -1    0    0    0  501 -0.00000000000E+00  0.00000000000E+00  0.16309289582E+04  0.16309289582E+04  0.25500000000E-02 0.  1.
          2   -1    0    0  501    0  0.00000000000E+00 -0.00000000000E+00 -0.18731492242E+04  0.18731492242E+04  0.25500000000E-02 0. -1.
    8880023    1    1    2    0    0 -0.37215237629E+03 -0.71262918669E+03 -0.16063813626E+04  0.19132718148E+04  0.65864270000E+03 0.  0.
    8880022    1    1    2    0    0  0.37215237629E+03  0.71262918669E+03  0.13641610966E+04  0.15908063676E+04  0.15294330000E+03 0.  0.
<mgrwt>
<rscale>  0 0.97902468E+03</rscale>
<asrwt>0</asrwt>
<pdfrwt beam="1">  1        2 0.28817680E+00 0.10393017E+04</pdfrwt>
<pdfrwt beam="2">  1       -2 0.25091215E+00 0.10393017E+04</pdfrwt>
<totfact> 0.49625031E-01</totfact>
</mgrwt>
</event>
<event>
 4    1  0.2051094E-007  0.9712089E+03  0.7818608E-02  0.9420234E-01
         -2   -1    0    0    0  501 -0.00000000000E+00  0.00000000000E+00  0.44368337387E+03  0.44368337387E+03  0.25500000000E-02 0.  1.
          2   -1    0    0  501    0  0.00000000000E+00 -0.00000000000E+00 -0.29533881807E+04  0.29533881807E+04  0.25500000000E-02 0. -1.
    8880023    1    1    2    0    0  0.10571060426E+03 -0.70587658833E+03 -0.24835013073E+04  0.26666506032E+04  0.65864270000E+03 0. -1.
    8880022    1    1    2    0    0 -0.10571060426E+03  0.70587658833E+03 -0.26203499514E+02  0.73042095138E+03  0.15294330000E+03 0.  0.
<mgrwt>
<rscale>  0 0.90429031E+03</rscale>
<asrwt>0</asrwt>
<pdfrwt beam="1">  1        2 0.45436740E+00 0.97120888E+03</pdfrwt>
<pdfrwt beam="2">  1       -2 0.68258982E-01 0.97120888E+03</pdfrwt>
<totfact> 0.37494064E+00</totfact>
</mgrwt>
</event>
<event>
 4    1  0.2051094E-007  0.8629489E+03  0.7818608E-02  0.9588339E-01
         -2   -1    0    0    0  501 -0.00000000000E+00  0.00000000000E+00  0.10329458017E+04  0.10329458017E+04  0.25500000000E-02 0.  1.
          2   -1    0    0  501    0  0.00000000000E+00 -0.00000000000E+00 -0.12593224203E+04  0.12593224203E+04  0.25500000000E-02 0. -1.
    8880023    1    1    2    0    0 -0.50700011882E+03  0.23199443338E+03 -0.10035989313E+04  0.13235904045E+04  0.65864270000E+03 0. -1.
    8880022    1    1    2    0    0  0.50700011882E+03 -0.23199443338E+03  0.77722231281E+03  0.96867781751E+03  0.15294330000E+03 0.  0.
<mgrwt>
<rscale>  0 0.78072791E+03</rscale>
<asrwt>0</asrwt>
<pdfrwt beam="1">  1        2 0.19374191E+00 0.86294887E+03</pdfrwt>
<pdfrwt beam="2">  1       -2 0.15891474E+00 0.86294887E+03</pdfrwt>
<totfact> 0.45146538E+00</totfact>
</mgrwt>
</event>
<event>
 4    1  0.2051094E-007  0.9360338E+03  0.7818608E-02  0.9470500E-01
          2   -1    0    0  501    0  0.00000000000E+00  0.00000000000E+00  0.27209286292E+04  0.27209286292E+04  0.25500000000E-02 0. -1.
         -2   -1    0    0    0  501 -0.00000000000E+00 -0.00000000000E+00 -0.33186281682E+03  0.33186281683E+03  0.25500000000E-02 0.  1.
    8880023    1    1    2    0    0  0.55563091290E+03  0.36554536873E+03  0.21232114383E+04  0.23203849133E+04  0.65864270000E+03 0. -1.
    8880022    1    1    2    0    0 -0.55563091290E+03 -0.36554536873E+03  0.26585437413E+03  0.73240653276E+03  0.15294330000E+03 0.  0.
<mgrwt>
<rscale>  0 0.86494142E+03</rscale>
<asrwt>0</asrwt>
<pdfrwt beam="1">  1        2 0.41860440E+00 0.93603383E+03</pdfrwt>
<pdfrwt beam="2">  1       -2 0.51055818E-01 0.93603383E+03</pdfrwt>
<totfact> 0.95916515E+00</totfact>
</mgrwt>
</event>
<event>
 4    1  0.2051094E-007  0.1021203E+04  0.7818608E-02  0.9354329E-01
         -2   -1    0    0    0  501 -0.00000000000E+00  0.00000000000E+00  0.72757714886E+03  0.72757714887E+03  0.25500000000E-02 0.  1.
          2   -1    0    0  501    0  0.00000000000E+00 -0.00000000000E+00 -0.18065820925E+04  0.18065820925E+04  0.25500000000E-02 0. -1.
    8880023    1    1    2    0    0  0.15160385085E+03  0.76554658428E+03 -0.13511235801E+04  0.16936323200E+04  0.65864270000E+03 0.  0.
    8880022    1    1    2    0    0 -0.15160385085E+03 -0.76554658428E+03  0.27211863646E+03  0.84052692141E+03  0.15294330000E+03 0.  0.
<mgrwt>
<rscale>  0 0.95931494E+03</rscale>
<asrwt>0</asrwt>
<pdfrwt beam="1">  1        2 0.27793570E+00 0.10212030E+04</pdfrwt>
<pdfrwt beam="2">  1       -2 0.11193495E+00 0.10212030E+04</pdfrwt>
<totfact> 0.53609155E+00</totfact>
</mgrwt>
</event>
<event>
 4    1  0.2051094E-007  0.8491520E+03  0.7818608E-02  0.9613159E-01
          2   -1    0    0  501    0  0.00000000000E+00  0.00000000000E+00  0.69542905025E+03  0.69542905026E+03  0.25500000000E-02 0. -1.
         -2   -1    0    0    0  501 -0.00000000000E+00 -0.00000000000E+00 -0.11702177571E+04  0.11702177571E+04  0.25500000000E-02 0.  1.
    8880023    1    1    2    0    0 -0.13087814997E+03  0.51973048983E+03  0.30923299497E+03  0.90370577272E+03  0.65864270000E+03 0. -1.
    8880022    1    1    2    0    0  0.13087814997E+03 -0.51973048983E+03 -0.78402170179E+03  0.96194103463E+03  0.15294330000E+03 0.  0.
<mgrwt>
<rscale>  0 0.76431315E+03</rscale>
<asrwt>0</asrwt>
<pdfrwt beam="1">  1        2 0.10698908E+00 0.84915198E+03</pdfrwt>
<pdfrwt beam="2">  1       -2 0.18003350E+00 0.84915198E+03</pdfrwt>
<totfact> 0.75402641E+00</totfact>
</mgrwt>
</event>
<event>
 4    1  0.2051094E-007  0.9473175E+03  0.7818608E-02  0.9453984E-01
         -2   -1    0    0    0  501 -0.00000000000E+00  0.00000000000E+00  0.57546480411E+03  0.57546480411E+03  0.25500000000E-02 0.  1.
          2   -1    0    0  501    0  0.00000000000E+00 -0.00000000000E+00 -0.13203513434E+04  0.13203513434E+04  0.25500000000E-02 0. -1.
    8880023    1    1    2    0    0  0.64258792298E+03  0.22512457855E+03 -0.73313006071E+03  0.11978690274E+04  0.65864270000E+03 0. -1.
    8880022    1    1    2    0    0 -0.64258792298E+03 -0.22512457855E+03 -0.11756478553E+02  0.69794712008E+03  0.15294330000E+03 0.  0.
<mgrwt>
<rscale>  0 0.87763091E+03</rscale>
<asrwt>0</asrwt>
<pdfrwt beam="1">  1        2 0.20313098E+00 0.94731754E+03</pdfrwt>
<pdfrwt beam="2">  1       -2 0.88533047E-01 0.94731754E+03</pdfrwt>
<totfact> 0.17659955E+01</totfact>
</mgrwt>
</event>
<event>
 4    1  0.2051094E-007  0.8329731E+03  0.7818608E-02  0.9643575E-01
         -2   -1    0    0    0  501 -0.00000000000E+00  0.00000000000E+00  0.24777136690E+03  0.24777136691E+03  0.25500000000E-02 0.  1.
          2   -1    0    0  501    0  0.00000000000E+00 -0.00000000000E+00 -0.24792095314E+04  0.24792095314E+04  0.25500000000E-02 0. -1.
    8880023    1    1    2    0    0  0.80249931947E+02 -0.50358110388E+03 -0.19594430393E+04  0.21291456527E+04  0.65864270000E+03 0. -1.
    8880022    1    1    2    0    0 -0.80249931947E+02  0.50358110388E+03 -0.27199512517E+03  0.59783524561E+03  0.15294330000E+03 0.  0.
<mgrwt>
<rscale>  0 0.74478020E+03</rscale>
<asrwt>0</asrwt>
<pdfrwt beam="1">  1        2 0.38141683E+00 0.83297310E+03</pdfrwt>
<pdfrwt beam="2">  1       -2 0.38118673E-01 0.83297310E+03</pdfrwt>
<totfact> 0.24001292E+01</totfact>
</mgrwt>
</event>
<event>
 4    1  0.2051094E-007  0.8332890E+03  0.7818608E-02  0.9642967E-01
         -2   -1    0    0    0  501 -0.00000000000E+00  0.00000000000E+00  0.85326243992E+03  0.85326243992E+03  0.25500000000E-02 0.  1.
          2   -1    0    0  501    0  0.00000000000E+00 -0.00000000000E+00 -0.10708833979E+04  0.10708833979E+04  0.25500000000E-02 0. -1.
    8880023    1    1    2    0    0 -0.56585606745E+02 -0.50730504318E+03 -0.78567580203E+03  0.11452759536E+04  0.65864270000E+03 0.  0.
    8880022    1    1    2    0    0  0.56585606745E+02  0.50730504318E+03  0.56805484404E+03  0.77886988424E+03  0.15294330000E+03 0.  0.
<mgrwt>
<rscale>  0 0.74516483E+03</rscale>
<asrwt>0</asrwt>
<pdfrwt beam="1">  1        2 0.16475129E+00 0.83328899E+03</pdfrwt>
<pdfrwt beam="2">  1       -2 0.13127114E+00 0.83328899E+03</pdfrwt>
<totfact> 0.97059181E+00</totfact>
</mgrwt>
</event>
<event>
 4    1  0.2051094E-007  0.9199768E+03  0.7818608E-02  0.9494695E-01
          2   -1    0    0  501    0  0.00000000000E+00  0.00000000000E+00  0.43751126505E+04  0.43751126505E+04  0.25500000000E-02 0. -1.
         -2   -1    0    0    0  501 -0.00000000000E+00 -0.00000000000E+00 -0.20470735363E+03  0.20470735365E+03  0.25500000000E-02 0.  1.
    8880023    1    1    2    0    0 -0.32299337834E+03 -0.55517784654E+03  0.35725678311E+04  0.36891189027E+04  0.65864270000E+03 0.  0.
    8880022    1    1    2    0    0  0.32299337834E+03  0.55517784654E+03  0.59783746576E+03  0.89070110150E+03  0.15294330000E+03 0.  0.
<mgrwt>
<rscale>  0 0.84676103E+03</rscale>
<asrwt>0</asrwt>
<pdfrwt beam="1">  1        2 0.67309428E+00 0.91997683E+03</pdfrwt>
<pdfrwt beam="2">  1       -2 0.31493438E-01 0.91997683E+03</pdfrwt>
<totfact> 0.16466397E+00</totfact>
</mgrwt>
</event>
<event>
 4    1  0.2051094E-007  0.1217463E+04  0.7818608E-02  0.9140332E-01
          2   -1    0    0  501    0  0.00000000000E+00  0.00000000000E+00  0.12232979718E+04  0.12232979718E+04  0.25500000000E-02 0. -1.
         -2   -1    0    0    0  501 -0.00000000000E+00 -0.00000000000E+00 -0.15369211225E+04  0.15369211225E+04  0.25500000000E-02 0.  1.
    8880023    1    1    2    0    0  0.10173520992E+04 -0.11575778514E+03  0.61991220940E+03  0.13662014903E+04  0.65864270000E+03 0. -1.
    8880022    1    1    2    0    0 -0.10173520992E+04  0.11575778514E+03 -0.93353536012E+03  0.13940176040E+04  0.15294330000E+03 0.  0.
<mgrwt>
<rscale>  0 0.11691111E+04</rscale>
<asrwt>0</asrwt>
<pdfrwt beam="1">  1        2 0.18819969E+00 0.12174627E+04</pdfrwt>
<pdfrwt beam="2">  1       -2 0.23644940E+00 0.12174627E+04</pdfrwt>
<totfact> 0.13866662E+00</totfact>
</mgrwt>
</event>
<event>
 4    1  0.2051094E-007  0.6723449E+03  0.7818608E-02  0.1014035E+00
          2   -1    0    0  501    0  0.00000000000E+00  0.00000000000E+00  0.47399782164E+03  0.47399782165E+03  0.25500000000E-02 0. -1.
         -2   -1    0    0    0  501 -0.00000000000E+00 -0.00000000000E+00 -0.10828243691E+04  0.10828243691E+04  0.25500000000E-02 0.  1.
    8880023    1    1    2    0    0 -0.11029676468E+03  0.77923252925E+02  0.21674053710E+03  0.70641636188E+03  0.65864270000E+03 0. -1.
    8880022    1    1    2    0    0  0.11029676468E+03 -0.77923252925E+02 -0.82556708460E+03  0.85040582891E+03  0.15294330000E+03 0.  0.
<mgrwt>
<rscale>  0 0.49902080E+03</rscale>
<asrwt>0</asrwt>
<pdfrwt beam="1">  1        2 0.72922742E-01 0.67234486E+03</pdfrwt>
<pdfrwt beam="2">  1       -2 0.16658836E+00 0.67234486E+03</pdfrwt>
<totfact> 0.15107056E+01</totfact>
</mgrwt>
</event>
<event>
 4    1  0.2051094E-007  0.2050951E+04  0.7818608E-02  0.8595113E-01
         -2   -1    0    0    0  501 -0.00000000000E+00  0.00000000000E+00  0.20248111567E+04  0.20248111567E+04  0.25500000000E-02 0.  1.
          2   -1    0    0  501    0  0.00000000000E+00 -0.00000000000E+00 -0.39506301947E+04  0.39506301947E+04  0.25500000000E-02 0. -1.
    8880023    1    1    2    0    0  0.18861697648E+04  0.46363280324E+03  0.11373145701E+04  0.23451836592E+04  0.65864270000E+03 0.  0.
    8880022    1    1    2    0    0 -0.18861697648E+04 -0.46363280324E+03 -0.30631336081E+04  0.36302576922E+04  0.15294330000E+03 0.  0.
<mgrwt>
<rscale>  0 0.20247997E+04</rscale>
<asrwt>0</asrwt>
<pdfrwt beam="1">  1        2 0.60778926E+00 0.20509515E+04</pdfrwt>
<pdfrwt beam="2">  1       -2 0.31150941E+00 0.20509515E+04</pdfrwt>
<totfact> 0.89153209E-03</totfact>
</mgrwt>
</event>
<event>
 4    1  0.2051094E-007  0.1120201E+04  0.7818608E-02  0.9238892E-01
          2   -1    0    0  501    0  0.00000000000E+00  0.00000000000E+00  0.21787030787E+04  0.21787030787E+04  0.25500000000E-02 0. -1.
         -2   -1    0    0    0  501 -0.00000000000E+00 -0.00000000000E+00 -0.98895042026E+03  0.98895042027E+03  0.25500000000E-02 0.  1.
    8880023    1    1    2    0    0 -0.82174692118E+03  0.38180056181E+03  0.17599374602E+04  0.20861998326E+04  0.65864270000E+03 0. -1.
    8880022    1    1    2    0    0  0.82174692118E+03 -0.38180056181E+03 -0.57018480171E+03  0.10814536664E+04  0.15294330000E+03 0.  0.
<mgrwt>
<rscale>  0 0.10660865E+04</rscale>
<asrwt>0</asrwt>
<pdfrwt beam="1">  1        2 0.33518508E+00 0.11202008E+04</pdfrwt>
<pdfrwt beam="2">  1       -2 0.15214622E+00 0.11202008E+04</pdfrwt>
<totfact> 0.15070635E+00</totfact>
</mgrwt>
</event>
<event>
 4    1  0.2051094E-007  0.7256463E+03  0.7818608E-02  0.9903924E-01
         -2   -1    0    0    0  501 -0.00000000000E+00  0.00000000000E+00  0.76361218023E+03  0.76361218024E+03  0.25500000000E-02 0.  1.
          2   -1    0    0  501    0  0.00000000000E+00 -0.00000000000E+00 -0.14621145381E+04  0.14621145381E+04  0.25500000000E-02 0. -1.
    8880023    1    1    2    0    0  0.14494013210E+03  0.26785214546E+03 -0.13260498165E+04  0.15116119660E+04  0.65864270000E+03 0. -1.
    8880022    1    1    2    0    0 -0.14494013210E+03 -0.26785214546E+03  0.62754745860E+03  0.71411475235E+03  0.15294330000E+03 0.  0.
<mgrwt>
<rscale>  0 0.60071488E+03</rscale>
<asrwt>0</asrwt>
<pdfrwt beam="1">  1        2 0.22494070E+00 0.72564635E+03</pdfrwt>
<pdfrwt beam="2">  1       -2 0.11747880E+00 0.72564635E+03</pdfrwt>
<totfact> 0.76715150E+00</totfact>
</mgrwt>
</event>
<event>
 4    1  0.2051094E-007  0.7148485E+03  0.7818608E-02  0.9940419E-01
          2   -1    0    0  501    0  0.00000000000E+00  0.00000000000E+00  0.15404775496E+04  0.15404775496E+04  0.25500000000E-02 0. -1.
         -2   -1    0    0    0  501 -0.00000000000E+00 -0.00000000000E+00 -0.69713736129E+03  0.69713736129E+03  0.25500000000E-02 0.  1.
    8880023    1    1    2    0    0 -0.25729058845E+03 -0.10487949973E+03  0.14141793903E+04  0.15845856589E+04  0.65864270000E+03 0. -1.
    8880022    1    1    2    0    0  0.25729058845E+03  0.10487949973E+03 -0.57083920198E+03  0.65302925195E+03  0.15294330000E+03 0.  0.
<mgrwt>
<rscale>  0 0.58341790E+03</rscale>
<asrwt>0</asrwt>
<pdfrwt beam="1">  1        2 0.23699654E+00 0.71484849E+03</pdfrwt>
<pdfrwt beam="2">  1       -2 0.10725190E+00 0.71484849E+03</pdfrwt>
<totfact> 0.86709310E+00</totfact>
</mgrwt>
</event>
<event>
 4    1  0.2051094E-007  0.1105809E+04  0.7818608E-02  0.9254616E-01
         -2   -1    0    0    0  501 -0.00000000000E+00  0.00000000000E+00  0.11618593252E+04  0.11618593252E+04  0.25500000000E-02 0.  1.
          2   -1    0    0  501    0  0.00000000000E+00 -0.00000000000E+00 -0.14244440751E+04  0.14244440751E+04  0.25500000000E-02 0. -1.
    8880023    1    1    2    0    0 -0.83689868648E+03 -0.29766559611E+03 -0.94594597841E+03  0.14552072769E+04  0.65864270000E+03 0.  0.
    8880022    1    1    2    0    0  0.83689868648E+03  0.29766559611E+03  0.68336122848E+03  0.11310961233E+04  0.15294330000E+03 0.  0.
<mgrwt>
<rscale>  0 0.10507059E+04</rscale>
<asrwt>0</asrwt>
<pdfrwt beam="1">  1        2 0.21914524E+00 0.11058094E+04</pdfrwt>
<pdfrwt beam="2">  1       -2 0.17874759E+00 0.11058094E+04</pdfrwt>
<totfact> 0.25408000E+00</totfact>
</mgrwt>
</event>
<event>
 4    1  0.2051094E-007  0.1471898E+04  0.7818608E-02  0.8929739E-01
         -2   -1    0    0    0  501 -0.00000000000E+00  0.00000000000E+00  0.10985103501E+04  0.10985103501E+04  0.25500000000E-02 0.  1.
          2   -1    0    0  501    0  0.00000000000E+00 -0.00000000000E+00 -0.20055649503E+04  0.20055649503E+04  0.25500000000E-02 0. -1.
    8880023    1    1    2    0    0  0.45131777524E+03  0.12365219913E+04 -0.99394026451E+03  0.17760635757E+04  0.65864270000E+03 0. -1.
    8880022    1    1    2    0    0 -0.45131777524E+03 -0.12365219913E+04  0.86885664350E+02  0.13280117247E+04  0.15294330000E+03 0.  0.
<mgrwt>
<rscale>  0 0.14337583E+04</rscale>
<asrwt>0</asrwt>
<pdfrwt beam="1">  1        2 0.30854845E+00 0.14718983E+04</pdfrwt>
<pdfrwt beam="2">  1       -2 0.16900159E+00 0.14718983E+04</pdfrwt>
<totfact> 0.13577627E+00</totfact>
</mgrwt>
</event>
<event>
 4    1  0.2051094E-007  0.8726289E+03  0.7818608E-02  0.9571482E-01
         -2   -1    0    0    0  501 -0.00000000000E+00  0.00000000000E+00  0.91903392126E+03  0.91903392126E+03  0.25500000000E-02 0.  1.
          2   -1    0    0  501    0  0.00000000000E+00 -0.00000000000E+00 -0.10742346647E+04  0.10742346647E+04  0.25500000000E-02 0. -1.
    8880023    1    1    2    0    0  0.28085207011E+03 -0.49879162141E+03 -0.75225635523E+03  0.11521157915E+04  0.65864270000E+03 0.  0.
    8880022    1    1    2    0    0 -0.28085207011E+03  0.49879162141E+03  0.59705561183E+03  0.84115279439E+03  0.15294330000E+03 0.  0.
<mgrwt>
<rscale>  0 0.79212781E+03</rscale>
<asrwt>0</asrwt>
<pdfrwt beam="1">  1        2 0.16526687E+00 0.87262889E+03</pdfrwt>
<pdfrwt beam="2">  1       -2 0.14138983E+00 0.87262889E+03</pdfrwt>
<totfact> 0.79462567E+00</totfact>
</mgrwt>
</event>
<event>
 4    1  0.2051094E-007  0.7232719E+03  0.7818608E-02  0.9911666E-01
          2   -1    0    0  501    0  0.00000000000E+00  0.00000000000E+00  0.24932988353E+04  0.24932988353E+04  0.25500000000E-02 0. -1.
         -2   -1    0    0    0  501 -0.00000000000E+00 -0.00000000000E+00 -0.40395000434E+03  0.40395000435E+03  0.25500000000E-02 0.  1.
    8880023    1    1    2    0    0 -0.21176510355E+03  0.21087350160E+03  0.23585334193E+04  0.24669418698E+04  0.65864270000E+03 0. -1.
    8880022    1    1    2    0    0  0.21176510355E+03 -0.21087350160E+03 -0.26918458829E+03  0.43030696990E+03  0.15294330000E+03 0.  0.
<mgrwt>
<rscale>  0 0.59699199E+03</rscale>
<asrwt>0</asrwt>
<pdfrwt beam="1">  1        2 0.38358444E+00 0.72327194E+03</pdfrwt>
<pdfrwt beam="2">  1       -2 0.62146153E-01 0.72327194E+03</pdfrwt>
<totfact> 0.88935796E+00</totfact>
</mgrwt>
</event>
<event>
 4    1  0.2051094E-007  0.8092724E+03  0.7818608E-02  0.9691094E-01
         -2   -1    0    0    0  501 -0.00000000000E+00  0.00000000000E+00  0.13849655748E+04  0.13849655748E+04  0.25500000000E-02 0.  1.
          2   -1    0    0  501    0  0.00000000000E+00 -0.00000000000E+00 -0.10146509792E+04  0.10146509792E+04  0.25500000000E-02 0. -1.
    8880023    1    1    2    0    0 -0.46051373383E+03 -0.95072343218E+02 -0.79456582374E+03  0.11341325778E+04  0.65864270000E+03 0.  0.
    8880022    1    1    2    0    0  0.46051373383E+03  0.95072343218E+02  0.11648804194E+04  0.12654839762E+04  0.15294330000E+03 0.  0.
<mgrwt>
<rscale>  0 0.71549507E+03</rscale>
<asrwt>0</asrwt>
<pdfrwt beam="1">  1        2 0.15610015E+00 0.80927242E+03</pdfrwt>
<pdfrwt beam="2">  1       -2 0.21307163E+00 0.80927242E+03</pdfrwt>
<totfact> 0.27444983E+00</totfact>
</mgrwt>
</event>
<event>
 4    1  0.2051094E-007  0.9446333E+03  0.7818608E-02  0.9457878E-01
         -2   -1    0    0    0  501 -0.00000000000E+00  0.00000000000E+00  0.66378787321E+03  0.66378787321E+03  0.25500000000E-02 0.  1.
          2   -1    0    0  501    0  0.00000000000E+00 -0.00000000000E+00 -0.15257763441E+04  0.15257763441E+04  0.25500000000E-02 0. -1.
    8880023    1    1    2    0    0  0.37551235540E+03  0.56348228937E+03 -0.11052933045E+04  0.14539619372E+04  0.65864270000E+03 0. -1.
    8880022    1    1    2    0    0 -0.37551235540E+03 -0.56348228937E+03  0.24330483361E+03  0.73560228015E+03  0.15294330000E+03 0.  0.
<mgrwt>
<rscale>  0 0.87461831E+03</rscale>
<asrwt>0</asrwt>
<pdfrwt beam="1">  1        2 0.23473482E+00 0.94463328E+03</pdfrwt>
<pdfrwt beam="2">  1       -2 0.10212121E+00 0.94463328E+03</pdfrwt>
<totfact> 0.96574504E+00</totfact>
</mgrwt>
</event>
<event>
 4    1  0.2096158E-007  0.1446296E+04  0.7818608E-02  0.8948520E-01
          2   -1    0    0  501    0  0.00000000000E+00  0.00000000000E+00  0.18316557144E+04  0.18316557144E+04  0.25500000000E-02 0. -1.
         -2   -1    0    0    0  501 -0.00000000000E+00 -0.00000000000E+00 -0.14161956283E+04  0.14161956283E+04  0.25500000000E-02 0.  1.
    8880023    1    1    2    0    0  0.12544539991E+04 -0.29035556833E+03  0.10664259948E+04  0.17969518081E+04  0.65864270000E+03 0.  0.
    8880022    1    1    2    0    0 -0.12544539991E+04  0.29035556833E+03 -0.65096590875E+03  0.14508995346E+04  0.15294330000E+03 0.  0.
<mgrwt>
<rscale>  0 0.14073438E+04</rscale>
<asrwt>0</asrwt>
<pdfrwt beam="1">  1        2 0.28179319E+00 0.14462958E+04</pdfrwt>
<pdfrwt beam="2">  1       -2 0.21787625E+00 0.14462958E+04</pdfrwt>
<totfact> 0.79762913E-01</totfact>
</mgrwt>
</event>
<event>
 4    1  0.2051094E-007  0.6660241E+03  0.7818608E-02  0.1018689E+00
         -2   -1    0    0    0  501 -0.00000000000E+00  0.00000000000E+00  0.23567324196E+03  0.23567324198E+03  0.25500000000E-02 0.  1.
          2   -1    0    0  501    0  0.00000000000E+00 -0.00000000000E+00 -0.21385699667E+04  0.21385699667E+04  0.25500000000E-02 0. -1.
    8880023    1    1    2    0    0  0.88939574719E+02 -0.43215736542E+02 -0.20402001645E+04  0.21461604705E+04  0.65864270000E+03 0. -1.
    8880022    1    1    2    0    0 -0.88939574719E+02  0.43215736542E+02  0.13730343978E+03  0.22808273812E+03  0.15294330000E+03 0.  0.
<mgrwt>
<rscale>  0 0.48162587E+03</rscale>
<asrwt>0</asrwt>
<pdfrwt beam="1">  1        2 0.32901075E+00 0.66602406E+03</pdfrwt>
<pdfrwt beam="2">  1       -2 0.36257423E-01 0.66602406E+03</pdfrwt>
<totfact> 0.41842243E+01</totfact>
</mgrwt>
</event>
<event>
 4    1  0.2051094E-007  0.9335995E+03  0.7818608E-02  0.9474114E-01
          2   -1    0    0  501    0  0.00000000000E+00  0.00000000000E+00  0.12683651884E+04  0.12683651884E+04  0.25500000000E-02 0. -1.
         -2   -1    0    0    0  501 -0.00000000000E+00 -0.00000000000E+00 -0.84133062716E+03  0.84133062716E+03  0.25500000000E-02 0.  1.
    8880023    1    1    2    0    0 -0.65401015179E+03  0.10034227895E+03  0.88835782144E+03  0.12887155143E+04  0.65864270000E+03 0.  0.
    8880022    1    1    2    0    0  0.65401015179E+03 -0.10034227895E+03 -0.46132326022E+03  0.82098030124E+03  0.15294330000E+03 0.  0.
<mgrwt>
<rscale>  0 0.86219478E+03</rscale>
<asrwt>0</asrwt>
<pdfrwt beam="1">  1        2 0.19513310E+00 0.93359952E+03</pdfrwt>
<pdfrwt beam="2">  1       -2 0.12943548E+00 0.93359952E+03</pdfrwt>
<totfact> 0.75692919E+00</totfact>
</mgrwt>
</event>
<event>
 4    1  0.2051094E-007  0.6600741E+03  0.7818608E-02  0.1024081E+00
         -2   -1    0    0    0  501 -0.00000000000E+00  0.00000000000E+00  0.92410164119E+03  0.92410164119E+03  0.25500000000E-02 0.  1.
          2   -1    0    0  501    0  0.00000000000E+00 -0.00000000000E+00 -0.74835929460E+03  0.74835929460E+03  0.25500000000E-02 0. -1.
    8880023    1    1    2    0    0 -0.25205295212E+02 -0.35388375549E+02 -0.59307471588E+03  0.88737560757E+03  0.65864270000E+03 0. -1.
    8880022    1    1    2    0    0  0.25205295212E+02  0.35388375549E+02  0.76881706247E+03  0.78508532822E+03  0.15294330000E+03 0.  0.
<mgrwt>
<rscale>  0 0.46242378E+03</rscale>
<asrwt>0</asrwt>
<pdfrwt beam="1">  1        2 0.11513220E+00 0.66007412E+03</pdfrwt>
<pdfrwt beam="2">  1       -2 0.14216948E+00 0.66007412E+03</pdfrwt>
<totfact> 0.13306201E+01</totfact>
</mgrwt>
</event>
<event>
 4    1  0.2051094E-007  0.6735437E+03  0.7818608E-02  0.1013240E+00
          2   -1    0    0  501    0  0.00000000000E+00  0.00000000000E+00  0.40745567510E+03  0.40745567511E+03  0.25500000000E-02 0. -1.
         -2   -1    0    0    0  501 -0.00000000000E+00 -0.00000000000E+00 -0.18708973409E+04  0.18708973409E+04  0.25500000000E-02 0.  1.
    8880023    1    1    2    0    0  0.11835871625E+03 -0.76433579710E+02  0.11756702575E+03  0.68372735036E+03  0.65864270000E+03 0.  0.
    8880022    1    1    2    0    0 -0.11835871625E+03  0.76433579710E+02 -0.15810086916E+04  0.15946256657E+04  0.15294330000E+03 0.  0.
<mgrwt>
<rscale>  0 0.50206877E+03</rscale>
<asrwt>0</asrwt>
<pdfrwt beam="1">  1        2 0.62685489E-01 0.67354368E+03</pdfrwt>
<pdfrwt beam="2">  1       -2 0.28783036E+00 0.67354368E+03</pdfrwt>
<totfact> 0.30836812E+00</totfact>
</mgrwt>
</event>
<event>
 4    1  0.2051094E-007  0.8575887E+03  0.7818608E-02  0.9597867E-01
          2   -1    0    0  501    0  0.00000000000E+00  0.00000000000E+00  0.11542266864E+04  0.11542266864E+04  0.25500000000E-02 0. -1.
         -2   -1    0    0    0  501 -0.00000000000E+00 -0.00000000000E+00 -0.53439086032E+03  0.53439086033E+03  0.25500000000E-02 0.  1.
    8880023    1    1    2    0    0 -0.54151690134E+03  0.91693105329E+02  0.70754126997E+03  0.11117882150E+04  0.65864270000E+03 0.  0.
    8880022    1    1    2    0    0  0.54151690134E+03 -0.91693105329E+02 -0.87705443929E+02  0.57682933171E+03  0.15294330000E+03 0. -1.
<mgrwt>
<rscale>  0 0.77437507E+03</rscale>
<asrwt>0</asrwt>
<pdfrwt beam="1">  1        2 0.17757334E+00 0.85758870E+03</pdfrwt>
<pdfrwt beam="2">  1       -2 0.82213979E-01 0.85758870E+03</pdfrwt>
<totfact> 0.26428428E+01</totfact>
</mgrwt>
</event>
<event>
 4    1  0.2051094E-007  0.8572329E+03  0.7818608E-02  0.9598505E-01
         -2   -1    0    0    0  501 -0.00000000000E+00  0.00000000000E+00  0.34656524932E+03  0.34656524933E+03  0.25500000000E-02 0.  1.
          2   -1    0    0  501    0  0.00000000000E+00 -0.00000000000E+00 -0.18347445894E+04  0.18347445894E+04  0.25500000000E-02 0. -1.
    8880023    1    1    2    0    0  0.51213428786E+03 -0.19686664050E+03 -0.13434116281E+04  0.15936131939E+04  0.65864270000E+03 0. -1.
    8880022    1    1    2    0    0 -0.51213428786E+03  0.19686664050E+03 -0.14476771199E+03  0.58769664487E+03  0.15294330000E+03 0. -1.
<mgrwt>
<rscale>  0 0.77395228E+03</rscale>
<asrwt>0</asrwt>
<pdfrwt beam="1">  1        2 0.28226839E+00 0.85723288E+03</pdfrwt>
<pdfrwt beam="2">  1       -2 0.53317732E-01 0.85723288E+03</pdfrwt>
<totfact> 0.27822881E+01</totfact>
</mgrwt>
</event>
<event>
 4    1  0.2051094E-007  0.1535141E+04  0.7818608E-02  0.8885212E-01
         -2   -1    0    0    0  501 -0.00000000000E+00  0.00000000000E+00  0.15328766957E+04  0.15328766957E+04  0.25500000000E-02 0.  1.
          2   -1    0    0  501    0  0.00000000000E+00 -0.00000000000E+00 -0.25895949926E+04  0.25895949926E+04  0.25500000000E-02 0. -1.
    8880023    1    1    2    0    0 -0.81953888669E+03  0.11185725851E+04 -0.19380026871E+04  0.24723497399E+04  0.65864270000E+03 0.  0.
    8880022    1    1    2    0    0  0.81953888669E+03 -0.11185725851E+04  0.88128439023E+03  0.16501219483E+04  0.15294330000E+03 0.  0.
<mgrwt>
<rscale>  0 0.14988592E+04</rscale>
<asrwt>0</asrwt>
<pdfrwt beam="1">  1        2 0.39839923E+00 0.15351413E+04</pdfrwt>
<pdfrwt beam="2">  1       -2 0.23582718E+00 0.15351413E+04</pdfrwt>
<totfact> 0.22675956E-01</totfact>
</mgrwt>
</event>
<event>
 4    1  0.2051094E-007  0.8017425E+03  0.7818608E-02  0.9707041E-01
         -2   -1    0    0    0  501 -0.00000000000E+00  0.00000000000E+00  0.50244776444E+03  0.50244776445E+03  0.25500000000E-02 0.  1.
          2   -1    0    0  501    0  0.00000000000E+00 -0.00000000000E+00 -0.21953480771E+04  0.21953480771E+04  0.25500000000E-02 0. -1.
    8880023    1    1    2    0    0 -0.42766991688E+03 -0.16149069938E+03 -0.19803919210E+04  0.21365259584E+04  0.65864270000E+03 0. -1.
    8880022    1    1    2    0    0  0.42766991688E+03  0.16149069938E+03  0.28749160840E+03  0.56126988313E+03  0.15294330000E+03 0.  0.
<mgrwt>
<rscale>  0 0.70599115E+03</rscale>
<asrwt>0</asrwt>
<pdfrwt beam="1">  1        2 0.33774585E+00 0.80174248E+03</pdfrwt>
<pdfrwt beam="2">  1       -2 0.77299657E-01 0.80174248E+03</pdfrwt>
<totfact> 0.80061480E+00</totfact>
</mgrwt>
</event>
<event>
 4    1  0.2051094E-007  0.6758399E+03  0.7818608E-02  0.1011782E+00
          2   -1    0    0  501    0  0.00000000000E+00  0.00000000000E+00  0.58963121730E+03  0.58963121730E+03  0.25500000000E-02 0. -1.
         -2   -1    0    0    0  501 -0.00000000000E+00 -0.00000000000E+00 -0.77651764470E+03  0.77651764470E+03  0.25500000000E-02 0.  1.
    8880023    1    1    2    0    0  0.15049224224E+03 -0.17361630916E+02  0.36901594833E+03  0.77002098516E+03  0.65864270000E+03 0. -1.
    8880022    1    1    2    0    0 -0.15049224224E+03  0.17361630916E+02 -0.55590237572E+03  0.59612787685E+03  0.15294330000E+03 0.  0.
<mgrwt>
<rscale>  0 0.50772498E+03</rscale>
<asrwt>0</asrwt>
<pdfrwt beam="1">  1        2 0.90712495E-01 0.67583988E+03</pdfrwt>
<pdfrwt beam="2">  1       -2 0.11946425E+00 0.67583988E+03</pdfrwt>
<totfact> 0.27725002E+01</totfact>
</mgrwt>
</event>
<event>
 4    1  0.2051094E-007  0.7806222E+03  0.7818608E-02  0.9754378E-01
         -2   -1    0    0    0  501 -0.00000000000E+00  0.00000000000E+00  0.30436175784E+03  0.30436175785E+03  0.25500000000E-02 0.  1.
          2   -1    0    0  501    0  0.00000000000E+00 -0.00000000000E+00 -0.24665557575E+04  0.24665557575E+04  0.25500000000E-02 0. -1.
    8880023    1    1    2    0    0 -0.41325119536E+03  0.69167898356E+02 -0.21890469072E+04  0.23240691291E+04  0.65864270000E+03 0. -1.
    8880022    1    1    2    0    0  0.41325119536E+03 -0.69167898356E+02  0.26852907558E+02  0.44684838624E+03  0.15294330000E+03 0.  0.
<mgrwt>
<rscale>  0 0.67869446E+03</rscale>
<asrwt>0</asrwt>
<pdfrwt beam="1">  1        2 0.37947010E+00 0.78062216E+03</pdfrwt>
<pdfrwt beam="2">  1       -2 0.46824887E-01 0.78062216E+03</pdfrwt>
<totfact> 0.16382012E+01</totfact>
</mgrwt>
</event>
<event>
 4    1  0.2051094E-007  0.1077027E+04  0.7818608E-02  0.9287075E-01
          2   -1    0    0  501    0  0.00000000000E+00  0.00000000000E+00  0.32563118432E+04  0.32563118432E+04  0.25500000000E-02 0. -1.
         -2   -1    0    0    0  501 -0.00000000000E+00 -0.00000000000E+00 -0.30005921846E+03  0.30005921848E+03  0.25500000000E-02 0.  1.
    8880023    1    1    2    0    0  0.31576675204E+03 -0.79149783648E+03  0.19605433226E+04  0.22368991468E+04  0.65864270000E+03 0. -1.
    8880022    1    1    2    0    0 -0.31576675204E+03  0.79149783648E+03  0.99570930221E+03  0.13194719150E+04  0.15294330000E+03 0.  1.
<mgrwt>
<rscale>  0 0.10198152E+04</rscale>
<asrwt>0</asrwt>
<pdfrwt beam="1">  1        2 0.50097106E+00 0.10770272E+04</pdfrwt>
<pdfrwt beam="2">  1       -2 0.46162956E-01 0.10770272E+04</pdfrwt>
<totfact> 0.53984849E+00</totfact>
</mgrwt>
</event>
<event>
 4    1  0.2051094E-007  0.1051537E+04  0.7818608E-02  0.9317036E-01
         -2   -1    0    0    0  501 -0.00000000000E+00  0.00000000000E+00  0.44401757425E+03  0.44401757426E+03  0.25500000000E-02 0.  1.
          2   -1    0    0  501    0  0.00000000000E+00 -0.00000000000E+00 -0.51104779562E+04  0.51104779562E+04  0.25500000000E-02 0. -1.
    8880023    1    1    2    0    0  0.50783696457E+03  0.64344441290E+03 -0.45992632730E+04  0.47179393760E+04  0.65864270000E+03 0. -1.
    8880022    1    1    2    0    0 -0.50783696457E+03 -0.64344441290E+03 -0.67197108938E+02  0.83655615444E+03  0.15294330000E+03 0.  0.
<mgrwt>
<rscale>  0 0.99229471E+03</rscale>
<asrwt>0</asrwt>
<pdfrwt beam="1">  1        2 0.78622734E+00 0.10515366E+04</pdfrwt>
<pdfrwt beam="2">  1       -2 0.68310400E-01 0.10515366E+04</pdfrwt>
<totfact> 0.52957954E-02</totfact>
</mgrwt>
</event>
<event>
 4    1  0.2051094E-007  0.9864997E+03  0.7818608E-02  0.9399437E-01
         -2   -1    0    0    0  501 -0.00000000000E+00  0.00000000000E+00  0.76173845966E+03  0.76173845966E+03  0.25500000000E-02 0.  1.
          2   -1    0    0  501    0  0.00000000000E+00 -0.00000000000E+00 -0.17127518959E+04  0.17127518959E+04  0.25500000000E-02 0. -1.
    8880023    1    1    2    0    0  0.49404654208E+03 -0.54340542049E+03 -0.13123879841E+04  0.16418111535E+04  0.65864270000E+03 0.  0.
    8880022    1    1    2    0    0 -0.49404654208E+03  0.54340542049E+03  0.36137454781E+03  0.83267920208E+03  0.15294330000E+03 0.  0.
<mgrwt>
<rscale>  0 0.92122012E+03</rscale>
<asrwt>0</asrwt>
<pdfrwt beam="1">  1        2 0.26350029E+00 0.98649969E+03</pdfrwt>
<pdfrwt beam="2">  1       -2 0.11719053E+00 0.98649969E+03</pdfrwt>
<totfact> 0.54184419E+00</totfact>
</mgrwt>
</event>
<event>
 4    1  0.2051094E-007  0.9036251E+03  0.7818608E-02  0.9520237E-01
         -2   -1    0    0    0  501 -0.00000000000E+00  0.00000000000E+00  0.13614618700E+04  0.13614618700E+04  0.25500000000E-02 0.  1.
          2   -1    0    0  501    0  0.00000000000E+00 -0.00000000000E+00 -0.11704271697E+04  0.11704271698E+04  0.25500000000E-02 0. -1.
    8880023    1    1    2    0    0 -0.12927144422E+03 -0.60499342427E+03 -0.89554381486E+03  0.12722173872E+04  0.65864270000E+03 0. -1.
    8880022    1    1    2    0    0  0.12927144422E+03  0.60499342427E+03  0.10865785151E+04  0.12596716525E+04  0.15294330000E+03 0.  0.
<mgrwt>
<rscale>  0 0.82808133E+03</rscale>
<asrwt>0</asrwt>
<pdfrwt beam="1">  1        2 0.18006572E+00 0.90362512E+03</pdfrwt>
<pdfrwt beam="2">  1       -2 0.20945567E+00 0.90362512E+03</pdfrwt>
<totfact> 0.22894091E+00</totfact>
</mgrwt>
</event>
<event>
 4    1  0.2051094E-007  0.8782365E+03  0.7818608E-02  0.9561913E-01
          2   -1    0    0  501    0  0.00000000000E+00  0.00000000000E+00  0.13295199705E+04  0.13295199706E+04  0.25500000000E-02 0. -1.
         -2   -1    0    0    0  501 -0.00000000000E+00 -0.00000000000E+00 -0.12946021463E+04  0.12946021463E+04  0.25500000000E-02 0.  1.
    8880023    1    1    2    0    0 -0.58065987579E+03 -0.17980254584E+02  0.10961969638E+04  0.14046163785E+04  0.65864270000E+03 0. -1.
    8880022    1    1    2    0    0  0.58065987579E+03  0.17980254584E+02 -0.10612791396E+04  0.12195057384E+04  0.15294330000E+03 0.  0.
<mgrwt>
<rscale>  0 0.79869156E+03</rscale>
<asrwt>0</asrwt>
<pdfrwt beam="1">  1        2 0.20454153E+00 0.87823652E+03</pdfrwt>
<pdfrwt beam="2">  1       -2 0.19916956E+00 0.87823652E+03</pdfrwt>
<totfact> 0.21590211E+00</totfact>
</mgrwt>
</event>
<event>
 4    1  0.2051094E-007  0.7684775E+03  0.7818608E-02  0.9783635E-01
          2   -1    0    0  501    0  0.00000000000E+00  0.00000000000E+00  0.87710990730E+03  0.87710990730E+03  0.25500000000E-02 0. -1.
         -2   -1    0    0    0  501 -0.00000000000E+00 -0.00000000000E+00 -0.15842798301E+04  0.15842798301E+04  0.25500000000E-02 0.  1.
    8880023    1    1    2    0    0  0.56198127090E+02  0.39190459461E+03  0.67047321370E+03  0.10198489973E+04  0.65864270000E+03 0. -1.
    8880022    1    1    2    0    0 -0.56198127090E+02 -0.39190459461E+03 -0.13776431365E+04  0.14415407400E+04  0.15294330000E+03 0.  0.
<mgrwt>
<rscale>  0 0.66248242E+03</rscale>
<asrwt>0</asrwt>
<pdfrwt beam="1">  1        2 0.13493999E+00 0.76847749E+03</pdfrwt>
<pdfrwt beam="2">  1       -2 0.24373536E+00 0.76847749E+03</pdfrwt>
<totfact> 0.21949738E+00</totfact>
</mgrwt>
</event>
<event>
 4    1  0.2051094E-007  0.7129308E+03  0.7818608E-02  0.9947275E-01
          2   -1    0    0  501    0  0.00000000000E+00  0.00000000000E+00  0.23879098403E+04  0.23879098403E+04  0.25500000000E-02 0. -1.
         -2   -1    0    0    0  501 -0.00000000000E+00 -0.00000000000E+00 -0.37459033805E+03  0.37459033806E+03  0.25500000000E-02 0.  1.
    8880023    1    1    2    0    0 -0.23389287271E+03 -0.14054979823E+03  0.22563961615E+04  0.23663461213E+04  0.65864270000E+03 0. -1.
    8880022    1    1    2    0    0  0.23389287271E+03  0.14054979823E+03 -0.24307665924E+03  0.39615405712E+03  0.15294330000E+03 0.  0.
<mgrwt>
<rscale>  0 0.58023861E+03</rscale>
<asrwt>0</asrwt>
<pdfrwt beam="1">  1        2 0.36737074E+00 0.71293080E+03</pdfrwt>
<pdfrwt beam="2">  1       -2 0.57629283E-01 0.71293080E+03</pdfrwt>
<totfact> 0.11974544E+01</totfact>
</mgrwt>
</event>
<event>
 4    1  0.2051094E-007  0.8002936E+03  0.7818608E-02  0.9710162E-01
         -2   -1    0    0    0  501 -0.00000000000E+00  0.00000000000E+00  0.68573399842E+03  0.68573399842E+03  0.25500000000E-02 0.  1.
          2   -1    0    0  501    0  0.00000000000E+00 -0.00000000000E+00 -0.13017499999E+04  0.13017499999E+04  0.25500000000E-02 0. -1.
    8880023    1    1    2    0    0 -0.45421266751E+03 -0.18719533718E+02 -0.10638637173E+04  0.13312684866E+04  0.65864270000E+03 0. -1.
    8880022    1    1    2    0    0  0.45421266751E+03  0.18719533718E+02  0.44784771578E+03  0.65621551171E+03  0.15294330000E+03 0.  0.
<mgrwt>
<rscale>  0 0.70414980E+03</rscale>
<asrwt>0</asrwt>
<pdfrwt beam="1">  1        2 0.20026923E+00 0.80029356E+03</pdfrwt>
<pdfrwt beam="2">  1       -2 0.10549754E+00 0.80029356E+03</pdfrwt>
<totfact> 0.12165337E+01</totfact>
</mgrwt>
</event>
<event>
 4    1  0.2051094E-007  0.7283589E+03  0.7818608E-02  0.9895255E-01
         -2   -1    0    0    0  501 -0.00000000000E+00  0.00000000000E+00  0.65254809310E+03  0.65254809310E+03  0.25500000000E-02 0.  1.
          2   -1    0    0  501    0  0.00000000000E+00 -0.00000000000E+00 -0.21062943811E+04  0.21062943811E+04  0.25500000000E-02 0. -1.
    8880023    1    1    2    0    0  0.12636138251E+03 -0.28412893211E+03 -0.19907069454E+04  0.21197690435E+04  0.65864270000E+03 0. -1.
    8880022    1    1    2    0    0 -0.12636138251E+03  0.28412893211E+03  0.53696065747E+03  0.63907343063E+03  0.15294330000E+03 0.  0.
<mgrwt>
<rscale>  0 0.60491807E+03</rscale>
<asrwt>0</asrwt>
<pdfrwt beam="1">  1        2 0.32404529E+00 0.72835888E+03</pdfrwt>
<pdfrwt beam="2">  1       -2 0.10039202E+00 0.72835888E+03</pdfrwt>
<totfact> 0.49729349E+00</totfact>
</mgrwt>
</event>
<event>
 4    1  0.2051094E-007  0.7297901E+03  0.7818608E-02  0.9890753E-01
         -2   -1    0    0    0  501 -0.00000000000E+00  0.00000000000E+00  0.20033043975E+04  0.20033043975E+04  0.25500000000E-02 0.  1.
          2   -1    0    0  501    0  0.00000000000E+00 -0.00000000000E+00 -0.14568596633E+04  0.14568596633E+04  0.25500000000E-02 0. -1.
    8880023    1    1    2    0    0 -0.33055317455E+02 -0.31255521360E+03 -0.13484676868E+04  0.15332836411E+04  0.65864270000E+03 0. -1.
    8880022    1    1    2    0    0  0.33055317455E+02  0.31255521360E+03  0.18949124209E+04  0.19268804196E+04  0.15294330000E+03 0.  0.
<mgrwt>
<rscale>  0 0.60711548E+03</rscale>
<asrwt>0</asrwt>
<pdfrwt beam="1">  1        2 0.22413226E+00 0.72979012E+03</pdfrwt>
<pdfrwt beam="2">  1       -2 0.30820068E+00 0.72979012E+03</pdfrwt>
<totfact> 0.40329804E-01</totfact>
</mgrwt>
</event>
<event>
 4    1  0.2051094E-007  0.8079213E+03  0.7818608E-02  0.9693923E-01
         -2   -1    0    0    0  501 -0.00000000000E+00  0.00000000000E+00  0.21323747218E+03  0.21323747220E+03  0.25500000000E-02 0.  1.
          2   -1    0    0  501    0  0.00000000000E+00 -0.00000000000E+00 -0.32307620360E+04  0.32307620360E+04  0.25500000000E-02 0. -1.
    8880023    1    1    2    0    0 -0.23680225727E+03  0.40354830120E+03 -0.27845594391E+04  0.28993978714E+04  0.65864270000E+03 0.  0.
    8880022    1    1    2    0    0  0.23680225727E+03 -0.40354830120E+03 -0.23296512468E+03  0.54460163678E+03  0.15294330000E+03 0.  0.
<mgrwt>
<rscale>  0 0.71379751E+03</rscale>
<asrwt>0</asrwt>
<pdfrwt beam="1">  1        2 0.49704028E+00 0.80792125E+03</pdfrwt>
<pdfrwt beam="2">  1       -2 0.32805767E-01 0.80792125E+03</pdfrwt>
<totfact> 0.11359280E+01</totfact>
</mgrwt>
</event>
<event>
 4    1  0.2051094E-007  0.8133902E+03  0.7818608E-02  0.9682558E-01
         -2   -1    0    0    0  501 -0.00000000000E+00  0.00000000000E+00  0.92031809478E+03  0.92031809478E+03  0.25500000000E-02 0.  1.
          2   -1    0    0  501    0  0.00000000000E+00 -0.00000000000E+00 -0.77036712218E+03  0.77036712218E+03  0.25500000000E-02 0. -1.
    8880023    1    1    2    0    0  0.42873861432E+03 -0.20970615463E+03 -0.43336362523E+03  0.92163317466E+03  0.65864270000E+03 0.  1.
    8880022    1    1    2    0    0 -0.42873861432E+03  0.20970615463E+03  0.58331459783E+03  0.76905204230E+03  0.15294330000E+03 0.  0.
<mgrwt>
<rscale>  0 0.72064845E+03</rscale>
<asrwt>0</asrwt>
<pdfrwt beam="1">  1        2 0.11851802E+00 0.81339024E+03</pdfrwt>
<pdfrwt beam="2">  1       -2 0.14158740E+00 0.81339024E+03</pdfrwt>
<totfact> 0.12739940E+01</totfact>
</mgrwt>
</event>
<event>
 4    1  0.2051094E-007  0.1262532E+04  0.7818608E-02  0.9098611E-01
         -2   -1    0    0    0  501 -0.00000000000E+00  0.00000000000E+00  0.11798008994E+04  0.11798008994E+04  0.25500000000E-02 0.  1.
          2   -1    0    0  501    0  0.00000000000E+00 -0.00000000000E+00 -0.27354241740E+04  0.27354241740E+04  0.25500000000E-02 0. -1.
    8880023    1    1    2    0    0  0.10666122589E+04  0.15004690401E+03 -0.22813914875E+04  0.26074380356E+04  0.65864270000E+03 0. -1.
    8880022    1    1    2    0    0 -0.10666122589E+04 -0.15004690401E+03  0.72576821293E+03  0.13077870378E+04  0.15294330000E+03 0.  0.
<mgrwt>
<rscale>  0 0.12164123E+04</rscale>
<asrwt>0</asrwt>
<pdfrwt beam="1">  1        2 0.42083449E+00 0.12625316E+04</pdfrwt>
<pdfrwt beam="2">  1       -2 0.18150783E+00 0.12625316E+04</pdfrwt>
<totfact> 0.43452092E-01</totfact>
</mgrwt>
</event>
<event>
 4    1  0.2051094E-007  0.7801375E+03  0.7818608E-02  0.9755514E-01
         -2   -1    0    0    0  501 -0.00000000000E+00  0.00000000000E+00  0.73772244166E+03  0.73772244167E+03  0.25500000000E-02 0.  1.
          2   -1    0    0  501    0  0.00000000000E+00 -0.00000000000E+00 -0.12933452956E+04  0.12933452956E+04  0.25500000000E-02 0. -1.
    8880023    1    1    2    0    0 -0.13421469162E+03 -0.39596799672E+03 -0.10869162556E+04  0.13379093358E+04  0.65864270000E+03 0. -1.
    8880022    1    1    2    0    0  0.13421469162E+03  0.39596799672E+03  0.53129340166E+03  0.69315840148E+03  0.15294330000E+03 0.  0.
<mgrwt>
<rscale>  0 0.67805540E+03</rscale>
<asrwt>0</asrwt>
<pdfrwt beam="1">  1        2 0.19897620E+00 0.78013745E+03</pdfrwt>
<pdfrwt beam="2">  1       -2 0.11349576E+00 0.78013745E+03</pdfrwt>
<totfact> 0.10332339E+01</totfact>
</mgrwt>
</event>
<event>
 4    1  0.2051094E-007  0.7349366E+03  0.7818608E-02  0.9874950E-01
         -2   -1    0    0    0  501 -0.00000000000E+00  0.00000000000E+00  0.10289621042E+04  0.10289621043E+04  0.25500000000E-02 0.  1.
          2   -1    0    0  501    0  0.00000000000E+00 -0.00000000000E+00 -0.43663916680E+03  0.43663916681E+03  0.25500000000E-02 0. -1.
    8880023    1    1    2    0    0  0.31308130487E+03 -0.91113710351E+02 -0.42030413233E+02  0.73613746921E+03  0.65864270000E+03 0. -1.
    8880022    1    1    2    0    0 -0.31308130487E+03  0.91113710351E+02  0.63435335068E+03  0.72946380185E+03  0.15294330000E+03 0.  0.
<mgrwt>
<rscale>  0 0.61490845E+03</rscale>
<asrwt>0</asrwt>
<pdfrwt beam="1">  1        2 0.67175257E-01 0.73493661E+03</pdfrwt>
<pdfrwt beam="2">  1       -2 0.15830186E+00 0.73493661E+03</pdfrwt>
<totfact> 0.18949934E+01</totfact>
</mgrwt>
</event>
<event>
 4    1  0.2051094E-007  0.7068046E+03  0.7818608E-02  0.9970064E-01
         -2   -1    0    0    0  501 -0.00000000000E+00  0.00000000000E+00  0.29792858679E+03  0.29792858680E+03  0.25500000000E-02 0.  1.
          2   -1    0    0  501    0  0.00000000000E+00 -0.00000000000E+00 -0.15470742913E+04  0.15470742913E+04  0.25500000000E-02 0. -1.
    8880023    1    1    2    0    0  0.25493851647E+03  0.27727960650E+02 -0.13549519331E+04  0.15282236205E+04  0.65864270000E+03 0. -1.
    8880022    1    1    2    0    0 -0.25493851647E+03 -0.27727960650E+02  0.10580622863E+03  0.31677925755E+03  0.15294330000E+03 0.  0.
<mgrwt>
<rscale>  0 0.56982592E+03</rscale>
<asrwt>0</asrwt>
<pdfrwt beam="1">  1        2 0.23801142E+00 0.70680457E+03</pdfrwt>
<pdfrwt beam="2">  1       -2 0.45835168E-01 0.70680457E+03</pdfrwt>
<totfact> 0.55337843E+01</totfact>
</mgrwt>
</event>
<event>
 4    1  0.2237785E-007  0.7938764E+03  0.7818608E-02  0.9724196E-01
         -2   -1    0    0    0  501 -0.00000000000E+00  0.00000000000E+00  0.12139710621E+04  0.12139710621E+04  0.25500000000E-02 0.  1.
          2   -1    0    0  501    0  0.00000000000E+00 -0.00000000000E+00 -0.14952581538E+04  0.14952581538E+04  0.25500000000E-02 0. -1.
    8880023    1    1    2    0    0 -0.13941082238E+03  0.42070676972E+03 -0.13365250851E+04  0.15545221365E+04  0.65864270000E+03 0.  0.
    8880022    1    1    2    0    0  0.13941082238E+03 -0.42070676972E+03  0.10552379934E+04  0.11547070794E+04  0.15294330000E+03 0.  0.
<mgrwt>
<rscale>  0 0.69594253E+03</rscale>
<asrwt>0</asrwt>
<pdfrwt beam="1">  1        2 0.23003972E+00 0.79387642E+03</pdfrwt>
<pdfrwt beam="2">  1       -2 0.18676478E+00 0.79387642E+03</pdfrwt>
<totfact> 0.21292651E+00</totfact>
</mgrwt>
</event>
<event>
 4    1  0.2051094E-007  0.8884518E+03  0.7818608E-02  0.9544830E-01
          2   -1    0    0  501    0  0.00000000000E+00  0.00000000000E+00  0.29329287011E+04  0.29329287011E+04  0.25500000000E-02 0. -1.
         -2   -1    0    0    0  501 -0.00000000000E+00 -0.00000000000E+00 -0.27948601133E+03  0.27948601134E+03  0.25500000000E-02 0.  1.
    8880023    1    1    2    0    0  0.20619680684E+03  0.55948120300E+03  0.23770139356E+04  0.25376252276E+04  0.65864270000E+03 0. -1.
    8880022    1    1    2    0    0 -0.20619680684E+03 -0.55948120300E+03  0.27642875419E+03  0.67478948482E+03  0.15294330000E+03 0.  0.
<mgrwt>
<rscale>  0 0.81057831E+03</rscale>
<asrwt>0</asrwt>
<pdfrwt beam="1">  1        2 0.45121981E+00 0.88845177E+03</pdfrwt>
<pdfrwt beam="2">  1       -2 0.42997847E-01 0.88845177E+03</pdfrwt>
<totfact> 0.10199403E+01</totfact>
</mgrwt>
</event>
<event>
 4    1  0.2051094E-007  0.6866891E+03  0.7818608E-02  0.1005768E+00
         -2   -1    0    0    0  501 -0.00000000000E+00  0.00000000000E+00  0.13439062489E+04  0.13439062489E+04  0.25500000000E-02 0.  1.
          2   -1    0    0  501    0  0.00000000000E+00 -0.00000000000E+00 -0.34948065476E+03  0.34948065477E+03  0.25500000000E-02 0. -1.
    8880023    1    1    2    0    0  0.17771433086E+03 -0.78417900628E+02  0.18824405383E+02  0.68694709769E+03  0.65864270000E+03 0. -1.
    8880022    1    1    2    0    0 -0.17771433086E+03  0.78417900628E+02  0.97560118877E+03  0.10064398060E+04  0.15294330000E+03 0.  0.
<mgrwt>
<rscale>  0 0.53191969E+03</rscale>
<asrwt>0</asrwt>
<pdfrwt beam="1">  1        2 0.53766255E-01 0.68668913E+03</pdfrwt>
<pdfrwt beam="2">  1       -2 0.20675480E+00 0.68668913E+03</pdfrwt>
<totfact> 0.11411033E+01</totfact>
</mgrwt>
</event>
<event>
 4    1  0.2051094E-007  0.1071323E+04  0.7818608E-02  0.9293676E-01
          2   -1    0    0  501    0  0.00000000000E+00  0.00000000000E+00  0.12515908143E+04  0.12515908143E+04  0.25500000000E-02 0. -1.
         -2   -1    0    0    0  501 -0.00000000000E+00 -0.00000000000E+00 -0.20278777976E+04  0.20278777976E+04  0.25500000000E-02 0.  1.
    8880023    1    1    2    0    0 -0.80199452670E+03  0.26594767108E+03  0.89795330479E+03  0.13978747184E+04  0.65864270000E+03 0.  0.
    8880022    1    1    2    0    0  0.80199452670E+03 -0.26594767108E+03 -0.16742402881E+04  0.18815938935E+04  0.15294330000E+03 0.  0.
<mgrwt>
<rscale>  0 0.10136711E+04</rscale>
<asrwt>0</asrwt>
<pdfrwt beam="1">  1        2 0.19255243E+00 0.10713233E+04</pdfrwt>
<pdfrwt beam="2">  1       -2 0.31198120E+00 0.10713233E+04</pdfrwt>
<totfact> 0.47119290E-01</totfact>
</mgrwt>
</event>
<event>
 4    1  0.2051094E-007  0.1191984E+04  0.7818608E-02  0.9164954E-01
         -2   -1    0    0    0  501 -0.00000000000E+00  0.00000000000E+00  0.92678140077E+03  0.92678140077E+03  0.25500000000E-02 0.  1.
          2   -1    0    0  501    0  0.00000000000E+00 -0.00000000000E+00 -0.31783293763E+04  0.31783293763E+04  0.25500000000E-02 0. -1.
    8880023    1    1    2    0    0  0.48519946096E+03 -0.86694667273E+03  0.40964021589E+03  0.12604088079E+04  0.65864270000E+03 0.  0.
    8880022    1    1    2    0    0 -0.48519946096E+03  0.86694667273E+03 -0.26611881914E+04  0.28447019692E+04  0.15294330000E+03 0.  0.
<mgrwt>
<rscale>  0 0.11422595E+04</rscale>
<asrwt>0</asrwt>
<pdfrwt beam="1">  1        2 0.48897374E+00 0.11919837E+04</pdfrwt>
<pdfrwt beam="2">  1       -2 0.14258176E+00 0.11919837E+04</pdfrwt>
<totfact> 0.45412317E-01</totfact>
</mgrwt>
</event>
<event>
 4    1  0.2051094E-007  0.8737139E+03  0.7818608E-02  0.9569620E-01
          2   -1    0    0  501    0  0.00000000000E+00  0.00000000000E+00  0.14418306939E+04  0.14418306939E+04  0.25500000000E-02 0. -1.
         -2   -1    0    0    0  501 -0.00000000000E+00 -0.00000000000E+00 -0.39343986846E+03  0.39343986847E+03  0.25500000000E-02 0.  1.
    8880023    1    1    2    0    0  0.40813233469E+01  0.57406366084E+03  0.82165646484E+03  0.11993728763E+04  0.65864270000E+03 0.  0.
    8880022    1    1    2    0    0 -0.40813233469E+01 -0.57406366084E+03  0.22673436062E+03  0.63589768611E+03  0.15294330000E+03 0.  0.
<mgrwt>
<rscale>  0 0.79340003E+03</rscale>
<asrwt>0</asrwt>
<pdfrwt beam="1">  1        2 0.22182011E+00 0.87371388E+03</pdfrwt>
<pdfrwt beam="2">  1       -2 0.60529210E-01 0.87371388E+03</pdfrwt>
<totfact> 0.35138906E+01</totfact>
</mgrwt>
</event>
<event>
 4    1  0.2051094E-007  0.1404870E+04  0.7818608E-02  0.8979907E-01
          2   -1    0    0  501    0  0.00000000000E+00  0.00000000000E+00  0.13269377739E+04  0.13269377739E+04  0.25500000000E-02 0. -1.
         -2   -1    0    0    0  501 -0.00000000000E+00 -0.00000000000E+00 -0.19149052595E+04  0.19149052595E+04  0.25500000000E-02 0.  1.
    8880023    1    1    2    0    0 -0.63438682433E+03  0.10664914680E+04  0.59028583545E+03  0.15238432557E+04  0.65864270000E+03 0.  0.
    8880022    1    1    2    0    0  0.63438682433E+03 -0.10664914680E+04 -0.11782533211E+04  0.17179997776E+04  0.15294330000E+03 0.  0.
<mgrwt>
<rscale>  0 0.13645218E+04</rscale>
<asrwt>0</asrwt>
<pdfrwt beam="1">  1        2 0.20414427E+00 0.14048704E+04</pdfrwt>
<pdfrwt beam="2">  1       -2 0.29460081E+00 0.14048704E+04</pdfrwt>
<totfact> 0.52071429E-01</totfact>
</mgrwt>
</event>
<event>
 4    1  0.2192570E-007  0.9685111E+03  0.7818608E-02  0.9423966E-01
         -2   -1    0    0    0  501 -0.00000000000E+00  0.00000000000E+00  0.86380381021E+03  0.86380381021E+03  0.25500000000E-02 0.  1.
          2   -1    0    0  501    0  0.00000000000E+00 -0.00000000000E+00 -0.20432586974E+04  0.20432586974E+04  0.25500000000E-02 0. -1.
    8880023    1    1    2    0    0 -0.66689829872E+03 -0.24382410328E+03 -0.17387722558E+04  0.19903122112E+04  0.65864270000E+03 0. -1.
    8880022    1    1    2    0    0  0.66689829872E+03  0.24382410328E+03  0.55931736860E+03  0.91675029643E+03  0.15294330000E+03 0.  0.
<mgrwt>
<rscale>  0 0.90129311E+03</rscale>
<asrwt>0</asrwt>
<pdfrwt beam="1">  1        2 0.31434749E+00 0.96851109E+03</pdfrwt>
<pdfrwt beam="2">  1       -2 0.13289289E+00 0.96851109E+03</pdfrwt>
<totfact> 0.26039695E+00</totfact>
</mgrwt>
</event>
<event>
 4    1  0.2051094E-007  0.8648614E+03  0.7818608E-02  0.9584974E-01
          2   -1    0    0  501    0  0.00000000000E+00  0.00000000000E+00  0.25033259360E+04  0.25033259360E+04  0.25500000000E-02 0. -1.
         -2   -1    0    0    0  501 -0.00000000000E+00 -0.00000000000E+00 -0.47370655569E+03  0.47370655570E+03  0.25500000000E-02 0.  1.
    8880023    1    1    2    0    0  0.51229660825E+03  0.22743615020E+03  0.22063011208E+04  0.23697573418E+04  0.65864270000E+03 0. -1.
    8880022    1    1    2    0    0 -0.51229660825E+03 -0.22743615020E+03 -0.17668174048E+03  0.60727514989E+03  0.15294330000E+03 0.  0.
<mgrwt>
<rscale>  0 0.78298750E+03</rscale>
<asrwt>0</asrwt>
<pdfrwt beam="1">  1        2 0.38512706E+00 0.86486139E+03</pdfrwt>
<pdfrwt beam="2">  1       -2 0.72877932E-01 0.86486139E+03</pdfrwt>
<totfact> 0.60746989E+00</totfact>
</mgrwt>
</event>
<event>
 4    1  0.2051094E-007  0.1003848E+04  0.7818608E-02  0.9376540E-01
         -2   -1    0    0    0  501 -0.00000000000E+00  0.00000000000E+00  0.10628314597E+04  0.10628314597E+04  0.25500000000E-02 0.  1.
          2   -1    0    0  501    0  0.00000000000E+00 -0.00000000000E+00 -0.81816289994E+03  0.81816289995E+03  0.25500000000E-02 0. -1.
    8880023    1    1    2    0    0  0.24816580288E+03  0.71576167177E+03 -0.14702086571E+03  0.10145572323E+04  0.65864270000E+03 0.  0.
    8880022    1    1    2    0    0 -0.24816580288E+03 -0.71576167177E+03  0.39168942544E+03  0.86643712726E+03  0.15294330000E+03 0.  0.
<mgrwt>
<rscale>  0 0.94031733E+03</rscale>
<asrwt>0</asrwt>
<pdfrwt beam="1">  1        2 0.12587122E+00 0.10038482E+04</pdfrwt>
<pdfrwt beam="2">  1       -2 0.16351253E+00 0.10038482E+04</pdfrwt>
<totfact> 0.78656025E+00</totfact>
</mgrwt>
</event>
<event>
 4    1  0.2051094E-007  0.9523324E+03  0.7818608E-02  0.9446766E-01
          2   -1    0    0  501    0  0.00000000000E+00  0.00000000000E+00  0.13194582395E+04  0.13194582395E+04  0.25500000000E-02 0. -1.
         -2   -1    0    0    0  501 -0.00000000000E+00 -0.00000000000E+00 -0.55558409453E+03  0.55558409453E+03  0.25500000000E-02 0.  1.
    8880023    1    1    2    0    0  0.64585286792E+03 -0.23664501590E+03  0.20130524075E+03  0.97337597914E+03  0.65864270000E+03 0.  1.
    8880022    1    1    2    0    0 -0.64585286792E+03  0.23664501590E+03  0.56256890425E+03  0.90166635492E+03  0.15294330000E+03 0.  0.
<mgrwt>
<rscale>  0 0.88324938E+03</rscale>
<asrwt>0</asrwt>
<pdfrwt beam="1">  1        2 0.20299358E+00 0.95233240E+03</pdfrwt>
<pdfrwt beam="2">  1       -2 0.85474476E-01 0.95233240E+03</pdfrwt>
<totfact> 0.19159354E+01</totfact>
</mgrwt>
</event>
<event>
 4    1  0.2051094E-007  0.6617360E+03  0.7818608E-02  0.1022444E+00
          2   -1    0    0  501    0  0.00000000000E+00  0.00000000000E+00  0.91840579950E+03  0.91840579950E+03  0.25500000000E-02 0. -1.
         -2   -1    0    0    0  501 -0.00000000000E+00 -0.00000000000E+00 -0.22340536530E+03  0.22340536531E+03  0.25500000000E-02 0.  1.
    8880023    1    1    2    0    0  0.49453295992E+02 -0.40481561214E+02  0.71572701688E+03  0.97476138323E+03  0.65864270000E+03 0. -1.
    8880022    1    1    2    0    0 -0.49453295992E+02  0.40481561214E+02 -0.20726582682E+02  0.16704978158E+03  0.15294330000E+03 0.  0.
<mgrwt>
<rscale>  0 0.46814766E+03</rscale>
<asrwt>0</asrwt>
<pdfrwt beam="1">  1        2 0.14129320E+00 0.66173604E+03</pdfrwt>
<pdfrwt beam="2">  1       -2 0.34370056E-01 0.66173604E+03</pdfrwt>
<totfact> 0.22918830E+02</totfact>
</mgrwt>
</event>
<event>
 4    1  0.2051094E-007  0.7824718E+03  0.7818608E-02  0.9750062E-01
          2   -1    0    0  501    0  0.00000000000E+00  0.00000000000E+00  0.26188109985E+04  0.26188109985E+04  0.25500000000E-02 0. -1.
         -2   -1    0    0    0  501 -0.00000000000E+00 -0.00000000000E+00 -0.22827197715E+03  0.22827197717E+03  0.25500000000E-02 0.  1.
    8880023    1    1    2    0    0 -0.36624713468E+03 -0.21051129980E+03  0.22408445502E+04  0.23735303823E+04  0.65864270000E+03 0.  0.
    8880022    1    1    2    0    0  0.36624713468E+03  0.21051129980E+03  0.14969447109E+03  0.47355259337E+03  0.15294330000E+03 0.  0.
<mgrwt>
<rscale>  0 0.68112750E+03</rscale>
<asrwt>0</asrwt>
<pdfrwt beam="1">  1        2 0.40289398E+00 0.78247184E+03</pdfrwt>
<pdfrwt beam="2">  1       -2 0.35118767E-01 0.78247184E+03</pdfrwt>
<totfact> 0.23544080E+01</totfact>
</mgrwt>
</event>
<event>
 4    1  0.2051094E-007  0.9398302E+03  0.7818608E-02  0.9464900E-01
          2   -1    0    0  501    0  0.00000000000E+00  0.00000000000E+00  0.91459206462E+03  0.91459206463E+03  0.25500000000E-02 0. -1.
         -2   -1    0    0    0  501 -0.00000000000E+00 -0.00000000000E+00 -0.21839985179E+04  0.21839985179E+04  0.25500000000E-02 0.  1.
    8880023    1    1    2    0    0 -0.66538974577E+03 -0.82018937209E+02  0.59436911637E+03  0.11120051585E+04  0.65864270000E+03 0. -1.
    8880022    1    1    2    0    0  0.66538974577E+03  0.82018937209E+02 -0.18637755696E+04  0.19865854240E+04  0.15294330000E+03 0.  0.
<mgrwt>
<rscale>  0 0.86921835E+03</rscale>
<asrwt>0</asrwt>
<pdfrwt beam="1">  1        2 0.14070647E+00 0.93983021E+03</pdfrwt>
<pdfrwt beam="2">  1       -2 0.33599977E+00 0.93983021E+03</pdfrwt>
<totfact> 0.55635709E-01</totfact>
</mgrwt>
</event>
<event>
 4    1  0.2051094E-007  0.9055001E+03  0.7818608E-02  0.9517259E-01
          2   -1    0    0  501    0  0.00000000000E+00  0.00000000000E+00  0.10933808341E+04  0.10933808341E+04  0.25500000000E-02 0. -1.
         -2   -1    0    0    0  501 -0.00000000000E+00 -0.00000000000E+00 -0.17256867201E+04  0.17256867201E+04  0.25500000000E-02 0.  1.
    8880023    1    1    2    0    0  0.44021075911E+03  0.43855976822E+03  0.82655806310E+03  0.12260214601E+04  0.65864270000E+03 0. -1.
    8880022    1    1    2    0    0 -0.44021075911E+03 -0.43855976822E+03 -0.14588639491E+04  0.15930460941E+04  0.15294330000E+03 0.  0.
<mgrwt>
<rscale>  0 0.83023240E+03</rscale>
<asrwt>0</asrwt>
<pdfrwt beam="1">  1        2 0.16821244E+00 0.90550008E+03</pdfrwt>
<pdfrwt beam="2">  1       -2 0.26549026E+00 0.90550008E+03</pdfrwt>
<totfact> 0.11498443E+00</totfact>
</mgrwt>
</event>
<event>
 4    1  0.2051094E-007  0.7850482E+03  0.7818608E-02  0.9744109E-01
         -2   -1    0    0    0  501 -0.00000000000E+00  0.00000000000E+00  0.31171537033E+03  0.31171537034E+03  0.25500000000E-02 0.  1.
          2   -1    0    0  501    0  0.00000000000E+00 -0.00000000000E+00 -0.19483384994E+04  0.19483384994E+04  0.25500000000E-02 0. -1.
    8880023    1    1    2    0    0  0.22831024997E+03 -0.36106086177E+03 -0.16266733995E+04  0.18062023893E+04  0.65864270000E+03 0. -1.
    8880022    1    1    2    0    0 -0.22831024997E+03  0.36106086177E+03 -0.99497295309E+01  0.45385148042E+03  0.15294330000E+03 0.  0.
<mgrwt>
<rscale>  0 0.68450180E+03</rscale>
<asrwt>0</asrwt>
<pdfrwt beam="1">  1        2 0.29974438E+00 0.78504823E+03</pdfrwt>
<pdfrwt beam="2">  1       -2 0.47956212E-01 0.78504823E+03</pdfrwt>
<totfact> 0.30199527E+01</totfact>
</mgrwt>
</event>
<event>
 4    1  0.2051094E-007  0.8666568E+03  0.7818608E-02  0.9581830E-01
         -2   -1    0    0    0  501 -0.00000000000E+00  0.00000000000E+00  0.32222755067E+03  0.32222755068E+03  0.25500000000E-02 0.  1.
          2   -1    0    0  501    0  0.00000000000E+00 -0.00000000000E+00 -0.25039618829E+04  0.25039618829E+04  0.25500000000E-02 0. -1.
    8880023    1    1    2    0    0  0.44841362723E+03  0.34089442882E+03 -0.20530801389E+04  0.22285044437E+04  0.65864270000E+03 0.  0.
    8880022    1    1    2    0    0 -0.44841362723E+03 -0.34089442882E+03 -0.12865419339E+03  0.59768498992E+03  0.15294330000E+03 0.  0.
<mgrwt>
<rscale>  0 0.78510540E+03</rscale>
<asrwt>0</asrwt>
<pdfrwt beam="1">  1        2 0.38522489E+00 0.86665679E+03</pdfrwt>
<pdfrwt beam="2">  1       -2 0.49573471E-01 0.86665679E+03</pdfrwt>
<totfact> 0.13728711E+01</totfact>
</mgrwt>
</event>
<event>
 4    1  0.2051094E-007  0.9016581E+03  0.7818608E-02  0.9523375E-01
          2   -1    0    0  501    0  0.00000000000E+00  0.00000000000E+00  0.20495064083E+04  0.20495064083E+04  0.25500000000E-02 0. -1.
         -2   -1    0    0    0  501 -0.00000000000E+00 -0.00000000000E+00 -0.13605467034E+04  0.13605467034E+04  0.25500000000E-02 0.  1.
    8880023    1    1    2    0    0  0.27219844991E+03  0.55234509912E+03  0.18662640563E+04  0.20726622587E+04  0.65864270000E+03 0. -1.
    8880022    1    1    2    0    0 -0.27219844991E+03 -0.55234509912E+03 -0.11773043514E+04  0.13373908529E+04  0.15294330000E+03 0.  0.
<mgrwt>
<rscale>  0 0.82582195E+03</rscale>
<asrwt>0</asrwt>
<pdfrwt beam="1">  1        2 0.31530868E+00 0.90165809E+03</pdfrwt>
<pdfrwt beam="2">  1       -2 0.20931488E+00 0.90165809E+03</pdfrwt>
<totfact> 0.73720040E-01</totfact>
</mgrwt>
</event>
<event>
 4    1  0.2051094E-007  0.7861815E+03  0.7818608E-02  0.9741512E-01
          2   -1    0    0  501    0  0.00000000000E+00  0.00000000000E+00  0.12262441085E+04  0.12262441085E+04  0.25500000000E-02 0. -1.
         -2   -1    0    0    0  501 -0.00000000000E+00 -0.00000000000E+00 -0.11926856091E+04  0.11926856091E+04  0.25500000000E-02 0.  1.
    8880023    1    1    2    0    0 -0.17316947628E+03  0.39278938835E+03  0.10460874202E+04  0.13085794848E+04  0.65864270000E+03 0. -1.
    8880022    1    1    2    0    0  0.17316947628E+03 -0.39278938835E+03 -0.10125289208E+04  0.11103502328E+04  0.15294330000E+03 0.  0.
<mgrwt>
<rscale>  0 0.68598081E+03</rscale>
<asrwt>0</asrwt>
<pdfrwt beam="1">  1        2 0.18865294E+00 0.78618152E+03</pdfrwt>
<pdfrwt beam="2">  1       -2 0.18349009E+00 0.78618152E+03</pdfrwt>
<totfact> 0.31959562E+00</totfact>
</mgrwt>
</event>
<event>
 4    1  0.2051094E-007  0.7060811E+03  0.7818608E-02  0.9972852E-01
         -2   -1    0    0    0  501 -0.00000000000E+00  0.00000000000E+00  0.11033147216E+04  0.11033147216E+04  0.25500000000E-02 0.  1.
          2   -1    0    0  501    0  0.00000000000E+00 -0.00000000000E+00 -0.88791348104E+03  0.88791348105E+03  0.25500000000E-02 0. -1.
    8880023    1    1    2    0    0 -0.24085049095E+03 -0.82044890387E+02 -0.72084454605E+03  0.10090428082E+04  0.65864270000E+03 0.  0.
    8880022    1    1    2    0    0  0.24085049095E+03  0.82044890387E+02  0.93624578662E+03  0.98218539442E+03  0.15294330000E+03 0.  0.
<mgrwt>
<rscale>  0 0.56856829E+03</rscale>
<asrwt>0</asrwt>
<pdfrwt beam="1">  1        2 0.13660207E+00 0.70608111E+03</pdfrwt>
<pdfrwt beam="2">  1       -2 0.16974073E+00 0.70608111E+03</pdfrwt>
<totfact> 0.65540342E+00</totfact>
</mgrwt>
</event>
<event>
 4    1  0.2051094E-007  0.9325765E+03  0.7818608E-02  0.9475639E-01
         -2   -1    0    0    0  501 -0.00000000000E+00  0.00000000000E+00  0.31583377975E+03  0.31583377976E+03  0.25500000000E-02 0.  1.
          2   -1    0    0  501    0  0.00000000000E+00 -0.00000000000E+00 -0.38117745834E+04  0.38117745834E+04  0.25500000000E-02 0. -1.
    8880023    1    1    2    0    0 -0.94814653828E+02  0.65337497508E+03 -0.32895328244E+04  0.34191702335E+04  0.65864270000E+03 0. -1.
    8880022    1    1    2    0    0  0.94814653828E+02 -0.65337497508E+03 -0.20640797925E+03  0.70843812966E+03  0.15294330000E+03 0.  0.
<mgrwt>
<rscale>  0 0.86103950E+03</rscale>
<asrwt>0</asrwt>
<pdfrwt beam="1">  1        2 0.58642683E+00 0.93257648E+03</pdfrwt>
<pdfrwt beam="2">  1       -2 0.48589815E-01 0.93257648E+03</pdfrwt>
<totfact> 0.20461428E+00</totfact>
</mgrwt>
</event>
<event>
 4    1  0.2051094E-007  0.9540580E+03  0.7818608E-02  0.9444299E-01
         -2   -1    0    0    0  501 -0.00000000000E+00  0.00000000000E+00  0.52245669291E+03  0.52245669292E+03  0.25500000000E-02 0.  1.
          2   -1    0    0  501    0  0.00000000000E+00 -0.00000000000E+00 -0.13895546700E+04  0.13895546700E+04  0.25500000000E-02 0. -1.
    8880023    1    1    2    0    0 -0.60915116062E+03 -0.32457867295E+03 -0.70612569285E+03  0.11869457240E+04  0.65864270000E+03 0.  1.
    8880022    1    1    2    0    0  0.60915116062E+03  0.32457867295E+03 -0.16097228427E+03  0.72506563892E+03  0.15294330000E+03 0.  0.
<mgrwt>
<rscale>  0 0.88517980E+03</rscale>
<asrwt>0</asrwt>
<pdfrwt beam="1">  1        2 0.21377764E+00 0.95405799E+03</pdfrwt>
<pdfrwt beam="2">  1       -2 0.80377953E-01 0.95405799E+03</pdfrwt>
<totfact> 0.20077847E+01</totfact>
</mgrwt>
</event>
<event>
 4    1  0.3583300E-007  0.9678074E+03  0.7818608E-02  0.9424943E-01
          2   -1    0    0  501    0  0.00000000000E+00  0.00000000000E+00  0.21814229520E+04  0.21814229520E+04  0.25500000000E-02 0. -1.
         -2   -1    0    0    0  501 -0.00000000000E+00 -0.00000000000E+00 -0.94847769378E+03  0.94847769378E+03  0.25500000000E-02 0.  1.
    8880023    1    1    2    0    0  0.63221447872E+03 -0.32116312498E+03  0.19077182164E+04  0.21391680390E+04  0.65864270000E+03 0.  0.
    8880022    1    1    2    0    0 -0.63221447872E+03  0.32116312498E+03 -0.67477295816E+03  0.99073260672E+03  0.15294330000E+03 0.  0.
<mgrwt>
<rscale>  0 0.90051076E+03</rscale>
<asrwt>0</asrwt>
<pdfrwt beam="1">  1        2 0.33560353E+00 0.96780737E+03</pdfrwt>
<pdfrwt beam="2">  1       -2 0.14591965E+00 0.96780737E+03</pdfrwt>
<totfact> 0.17134110E+00</totfact>
</mgrwt>
</event>
<event>
 4    1  0.2051094E-007  0.9624368E+03  0.7818608E-02  0.9432442E-01
          2   -1    0    0  501    0  0.00000000000E+00  0.00000000000E+00  0.14606647697E+04  0.14606647697E+04  0.25500000000E-02 0. -1.
         -2   -1    0    0    0  501 -0.00000000000E+00 -0.00000000000E+00 -0.72615779611E+03  0.72615779611E+03  0.25500000000E-02 0.  1.
    8880023    1    1    2    0    0 -0.59681161984E+03  0.36917518581E+03  0.10304490867E+04  0.14100035298E+04  0.65864270000E+03 0. -1.
    8880022    1    1    2    0    0  0.59681161984E+03 -0.36917518581E+03 -0.29594211314E+03  0.77681903603E+03  0.15294330000E+03 0.  0.
<mgrwt>
<rscale>  0 0.89453285E+03</rscale>
<asrwt>0</asrwt>
<pdfrwt beam="1">  1        2 0.22471766E+00 0.96243682E+03</pdfrwt>
<pdfrwt beam="2">  1       -2 0.11171658E+00 0.96243682E+03</pdfrwt>
<totfact> 0.84406364E+00</totfact>
</mgrwt>
</event>
<event>
 4    1  0.2051094E-007  0.6938943E+03  0.7818608E-02  0.1002354E+00
         -2   -1    0    0    0  501 -0.00000000000E+00  0.00000000000E+00  0.29030184399E+03  0.29030184400E+03  0.25500000000E-02 0.  1.
          2   -1    0    0  501    0  0.00000000000E+00 -0.00000000000E+00 -0.21494809489E+04  0.21494809489E+04  0.25500000000E-02 0. -1.
    8880023    1    1    2    0    0  0.88334131524E+02 -0.19969012781E+03 -0.20149059450E+04  0.21310408817E+04  0.65864270000E+03 0. -1.
    8880022    1    1    2    0    0 -0.88334131524E+02  0.19969012781E+03  0.15572684017E+03  0.30874191115E+03  0.15294330000E+03 0.  0.
<mgrwt>
<rscale>  0 0.54630015E+03</rscale>
<asrwt>0</asrwt>
<pdfrwt beam="1">  1        2 0.33068937E+00 0.69389428E+03</pdfrwt>
<pdfrwt beam="2">  1       -2 0.44661823E-01 0.69389428E+03</pdfrwt>
<totfact> 0.27373136E+01</totfact>
</mgrwt>
</event>
<event>
 4    1  0.2051094E-007  0.1151698E+04  0.7818608E-02  0.9205569E-01
          2   -1    0    0  501    0  0.00000000000E+00  0.00000000000E+00  0.25448015661E+04  0.25448015661E+04  0.25500000000E-02 0. -1.
         -2   -1    0    0    0  501 -0.00000000000E+00 -0.00000000000E+00 -0.76035070604E+03  0.76035070605E+03  0.25500000000E-02 0.  1.
    8880023    1    1    2    0    0  0.94465040336E+03  0.15251930221E+02  0.20148099012E+04  0.23207468949E+04  0.65864270000E+03 0.  1.
    8880022    1    1    2    0    0 -0.94465040336E+03 -0.15251930221E+02 -0.23035904113E+03  0.98440537727E+03  0.15294330000E+03 0.  0.
<mgrwt>
<rscale>  0 0.10996136E+04</rscale>
<asrwt>0</asrwt>
<pdfrwt beam="1">  1        2 0.39150793E+00 0.11516975E+04</pdfrwt>
<pdfrwt beam="2">  1       -2 0.11697703E+00 0.11516975E+04</pdfrwt>
<totfact> 0.18310220E+00</totfact>
</mgrwt>
</event>
<event>
 4    1  0.2051094E-007  0.9031725E+03  0.7818608E-02  0.9520958E-01
          2   -1    0    0  501    0  0.00000000000E+00  0.00000000000E+00  0.21217865505E+04  0.21217865505E+04  0.25500000000E-02 0. -1.
         -2   -1    0    0    0  501 -0.00000000000E+00 -0.00000000000E+00 -0.32731304753E+03  0.32731304754E+03  0.25500000000E-02 0.  1.
    8880023    1    1    2    0    0 -0.24999921758E+03  0.56516441698E+03  0.14924532584E+04  0.17444590456E+04  0.65864270000E+03 0.  0.
    8880022    1    1    2    0    0  0.24999921758E+03 -0.56516441698E+03  0.30202024460E+03  0.70464055246E+03  0.15294330000E+03 0.  0.
<mgrwt>
<rscale>  0 0.82756173E+03</rscale>
<asrwt>0</asrwt>
<pdfrwt beam="1">  1        2 0.32642870E+00 0.90317254E+03</pdfrwt>
<pdfrwt beam="2">  1       -2 0.50355853E-01 0.90317254E+03</pdfrwt>
<totfact> 0.21659019E+01</totfact>
</mgrwt>
</event>
<event>
 4    1  0.2051094E-007  0.1309024E+04  0.7818608E-02  0.9057806E-01
          2   -1    0    0  501    0  0.00000000000E+00  0.00000000000E+00  0.12028019488E+04  0.12028019488E+04  0.25500000000E-02 0. -1.
         -2   -1    0    0    0  501 -0.00000000000E+00 -0.00000000000E+00 -0.24769674599E+04  0.24769674599E+04  0.25500000000E-02 0.  1.
    8880023    1    1    2    0    0  0.22913062267E+03 -0.11078051453E+04  0.63533913282E+03  0.14550598277E+04  0.65864270000E+03 0.  0.
    8880022    1    1    2    0    0 -0.22913062267E+03  0.11078051453E+04 -0.19095046439E+04  0.22247095811E+04  0.15294330000E+03 0.  0.
<mgrwt>
<rscale>  0 0.12649807E+04</rscale>
<asrwt>0</asrwt>
<pdfrwt beam="1">  1        2 0.18504645E+00 0.13090238E+04</pdfrwt>
<pdfrwt beam="2">  1       -2 0.38107192E+00 0.13090238E+04</pdfrwt>
<totfact> 0.18011170E-01</totfact>
</mgrwt>
</event>
<event>
 4    1  0.2051094E-007  0.1230529E+04  0.7818608E-02  0.9128003E-01
         -2   -1    0    0    0  501 -0.00000000000E+00  0.00000000000E+00  0.13234026805E+04  0.13234026805E+04  0.25500000000E-02 0.  1.
          2   -1    0    0  501    0  0.00000000000E+00 -0.00000000000E+00 -0.27623035658E+04  0.27623035658E+04  0.25500000000E-02 0. -1.
    8880023    1    1    2    0    0 -0.51157628837E+03 -0.90480979034E+03 -0.23773865327E+04  0.26769699265E+04  0.65864270000E+03 0.  0.
    8880022    1    1    2    0    0  0.51157628837E+03  0.90480979034E+03  0.93848564728E+03  0.14087363198E+04  0.15294330000E+03 0.  0.
<mgrwt>
<rscale>  0 0.11828490E+04</rscale>
<asrwt>0</asrwt>
<pdfrwt beam="1">  1        2 0.42496978E+00 0.12305289E+04</pdfrwt>
<pdfrwt beam="2">  1       -2 0.20360041E+00 0.12305289E+04</pdfrwt>
<totfact> 0.29922337E-01</totfact>
</mgrwt>
</event>
<event>
 4    1  0.2051094E-007  0.6636788E+03  0.7818608E-02  0.1020669E+00
         -2   -1    0    0    0  501 -0.00000000000E+00  0.00000000000E+00  0.65242982936E+03  0.65242982936E+03  0.25500000000E-02 0.  1.
          2   -1    0    0  501    0  0.00000000000E+00 -0.00000000000E+00 -0.25588858870E+04  0.25588858870E+04  0.25500000000E-02 0. -1.
    8880023    1    1    2    0    0  0.15919447373E+02  0.80036605301E+02 -0.25033117862E+04  0.25897952414E+04  0.65864270000E+03 0. -1.
    8880022    1    1    2    0    0 -0.15919447373E+02 -0.80036605301E+02  0.59685572861E+03  0.62152047495E+03  0.15294330000E+03 0.  0.
<mgrwt>
<rscale>  0 0.47446119E+03</rscale>
<asrwt>0</asrwt>
<pdfrwt beam="1">  1        2 0.39367475E+00 0.66367876E+03</pdfrwt>
<pdfrwt beam="2">  1       -2 0.10037382E+00 0.66367876E+03</pdfrwt>
<totfact> 0.28210256E+00</totfact>
</mgrwt>
</event>
<event>
 4    1  0.2051094E-007  0.8242161E+03  0.7818608E-02  0.9660693E-01
          2   -1    0    0  501    0  0.00000000000E+00  0.00000000000E+00  0.10668365944E+04  0.10668365944E+04  0.25500000000E-02 0. -1.
         -2   -1    0    0    0  501 -0.00000000000E+00 -0.00000000000E+00 -0.45946320745E+03  0.45946320746E+03  0.25500000000E-02 0.  1.
    8880023    1    1    2    0    0 -0.23588922773E+03 -0.43575016939E+03  0.57841311690E+03  0.10069229752E+04  0.65864270000E+03 0.  1.
    8880022    1    1    2    0    0  0.23588922773E+03  0.43575016939E+03  0.28960270094E+02  0.51937682673E+03  0.15294330000E+03 0.  0.
<mgrwt>
<rscale>  0 0.73406143E+03</rscale>
<asrwt>0</asrwt>
<pdfrwt beam="1">  1        2 0.16412871E+00 0.82421608E+03</pdfrwt>
<pdfrwt beam="2">  1       -2 0.70686648E-01 0.82421608E+03</pdfrwt>
<totfact> 0.41979547E+01</totfact>
</mgrwt>
</event>
<event>
 4    1  0.2051094E-007  0.7703834E+03  0.7818608E-02  0.9778932E-01
          2   -1    0    0  501    0  0.00000000000E+00  0.00000000000E+00  0.12092687490E+04  0.12092687490E+04  0.25500000000E-02 0. -1.
         -2   -1    0    0    0  501 -0.00000000000E+00 -0.00000000000E+00 -0.93390865542E+03  0.93390865542E+03  0.25500000000E-02 0.  1.
    8880023    1    1    2    0    0 -0.39001804007E+03  0.86984134452E+02  0.10236772981E+04  0.12811735745E+04  0.65864270000E+03 0. -1.
    8880022    1    1    2    0    0  0.39001804007E+03 -0.86984134452E+02 -0.74831720448E+03  0.86200382990E+03  0.15294330000E+03 0.  0.
<mgrwt>
<rscale>  0 0.66505552E+03</rscale>
<asrwt>0</asrwt>
<pdfrwt beam="1">  1        2 0.18604135E+00 0.77038336E+03</pdfrwt>
<pdfrwt beam="2">  1       -2 0.14367825E+00 0.77038336E+03</pdfrwt>
<totfact> 0.63913304E+00</totfact>
</mgrwt>
</event>
<event>
 4    1  0.2051094E-007  0.8902766E+03  0.7818608E-02  0.9541825E-01
          2   -1    0    0  501    0  0.00000000000E+00  0.00000000000E+00  0.14363567499E+04  0.14363567499E+04  0.25500000000E-02 0. -1.
         -2   -1    0    0    0  501 -0.00000000000E+00 -0.00000000000E+00 -0.74191702121E+03  0.74191702121E+03  0.25500000000E-02 0.  1.
    8880023    1    1    2    0    0  0.49796053552E+03  0.33289252719E+03  0.11177944072E+04  0.14290054837E+04  0.65864270000E+03 0. -1.
    8880022    1    1    2    0    0 -0.49796053552E+03 -0.33289252719E+03 -0.42335467850E+03  0.74926828735E+03  0.15294330000E+03 0.  0.
<mgrwt>
<rscale>  0 0.81269261E+03</rscale>
<asrwt>0</asrwt>
<pdfrwt beam="1">  1        2 0.22097796E+00 0.89027655E+03</pdfrwt>
<pdfrwt beam="2">  1       -2 0.11414108E+00 0.89027655E+03</pdfrwt>
<totfact> 0.83328767E+00</totfact>
</mgrwt>
</event>
<event>
 4    1  0.2051094E-007  0.9958418E+03  0.7818608E-02  0.9387018E-01
         -2   -1    0    0    0  501 -0.00000000000E+00  0.00000000000E+00  0.61854198087E+03  0.61854198088E+03  0.25500000000E-02 0.  1.
          2   -1    0    0  501    0  0.00000000000E+00 -0.00000000000E+00 -0.15295034104E+04  0.15295034104E+04  0.25500000000E-02 0. -1.
    8880023    1    1    2    0    0 -0.33886548968E+03  0.66562819337E+03 -0.96109331426E+03  0.13839802299E+04  0.65864270000E+03 0. -1.
    8880022    1    1    2    0    0  0.33886548968E+03 -0.66562819337E+03  0.50131884713E+02  0.76406516135E+03  0.15294330000E+03 0.  0.
<mgrwt>
<rscale>  0 0.93151781E+03</rscale>
<asrwt>0</asrwt>
<pdfrwt beam="1">  1        2 0.23530822E+00 0.99584181E+03</pdfrwt>
<pdfrwt beam="2">  1       -2 0.95160305E-01 0.99584181E+03</pdfrwt>
<totfact> 0.11301074E+01</totfact>
</mgrwt>
</event>
<event>
 4    1  0.2051094E-007  0.6701914E+03  0.7818608E-02  0.1015526E+00
         -2   -1    0    0    0  501 -0.00000000000E+00  0.00000000000E+00  0.57705776049E+03  0.57705776050E+03  0.25500000000E-02 0.  1.
          2   -1    0    0  501    0  0.00000000000E+00 -0.00000000000E+00 -0.85621330733E+03  0.85621330733E+03  0.25500000000E-02 0. -1.
    8880023    1    1    2    0    0  0.10030328718E+03  0.72702105939E+02 -0.69973935830E+03  0.96891264903E+03  0.65864270000E+03 0. -1.
    8880022    1    1    2    0    0 -0.10030328718E+03 -0.72702105939E+02  0.42058381147E+03  0.46435841880E+03  0.15294330000E+03 0.  0.
<mgrwt>
<rscale>  0 0.49336269E+03</rscale>
<asrwt>0</asrwt>
<pdfrwt beam="1">  1        2 0.13172513E+00 0.67019143E+03</pdfrwt>
<pdfrwt beam="2">  1       -2 0.88778116E-01 0.67019143E+03</pdfrwt>
<totfact> 0.35030190E+01</totfact>
</mgrwt>
</event>
<event>
 4    1  0.2949718E-007  0.9214323E+03  0.7818608E-02  0.9492466E-01
         -2   -1    0    0    0  501 -0.00000000000E+00  0.00000000000E+00  0.88306684733E+03  0.88306684733E+03  0.25500000000E-02 0.  1.
          2   -1    0    0  501    0  0.00000000000E+00 -0.00000000000E+00 -0.23832759701E+04  0.23832759701E+04  0.25500000000E-02 0. -1.
    8880023    1    1    2    0    0  0.42654697847E+03  0.48299583757E+03 -0.21496248834E+04  0.23387870039E+04  0.65864270000E+03 0.  0.
    8880022    1    1    2    0    0 -0.42654697847E+03 -0.48299583757E+03  0.64941576067E+03  0.92755581351E+03  0.15294330000E+03 0.  0.
<mgrwt>
<rscale>  0 0.84841532E+03</rscale>
<asrwt>0</asrwt>
<pdfrwt beam="1">  1        2 0.36665784E+00 0.92143231E+03</pdfrwt>
<pdfrwt beam="2">  1       -2 0.13585644E+00 0.92143231E+03</pdfrwt>
<totfact> 0.16033524E+00</totfact>
</mgrwt>
</event>
<event>
 4    1  0.2051094E-007  0.1499747E+04  0.7818608E-02  0.8909815E-01
          2   -1    0    0  501    0  0.00000000000E+00  0.00000000000E+00  0.19065142204E+04  0.19065142204E+04  0.25500000000E-02 0. -1.
         -2   -1    0    0    0  501 -0.00000000000E+00 -0.00000000000E+00 -0.12593090048E+04  0.12593090048E+04  0.25500000000E-02 0.  1.
    8880023    1    1    2    0    0  0.11121571739E+04  0.76061558680E+03  0.95143629306E+03  0.17760830150E+04  0.65864270000E+03 0.  0.
    8880022    1    1    2    0    0 -0.11121571739E+04 -0.76061558680E+03 -0.30423107752E+03  0.13897402102E+04  0.15294330000E+03 0.  0.
<mgrwt>
<rscale>  0 0.14624494E+04</rscale>
<asrwt>0</asrwt>
<pdfrwt beam="1">  1        2 0.29330988E+00 0.14997466E+04</pdfrwt>
<pdfrwt beam="2">  1       -2 0.19373985E+00 0.14997466E+04</pdfrwt>
<totfact> 0.10359181E+00</totfact>
</mgrwt>
</event>
<event>
 4    1  0.2051094E-007  0.8964564E+03  0.7818608E-02  0.9531744E-01
          2   -1    0    0  501    0  0.00000000000E+00  0.00000000000E+00  0.29734044223E+04  0.29734044223E+04  0.25500000000E-02 0. -1.
         -2   -1    0    0    0  501 -0.00000000000E+00 -0.00000000000E+00 -0.51559287364E+03  0.51559287365E+03  0.25500000000E-02 0.  1.
    8880023    1    1    2    0    0  0.39480507321E+03  0.46255027371E+03  0.26782600429E+04  0.28243071478E+04  0.65864270000E+03 0. -1.
    8880022    1    1    2    0    0 -0.39480507321E+03 -0.46255027371E+03 -0.22044849416E+03  0.66469014821E+03  0.15294330000E+03 0.  0.
<mgrwt>
<rscale>  0 0.81983355E+03</rscale>
<asrwt>0</asrwt>
<pdfrwt beam="1">  1        2 0.45744683E+00 0.89645636E+03</pdfrwt>
<pdfrwt beam="2">  1       -2 0.79321981E-01 0.89645636E+03</pdfrwt>
<totfact> 0.26450144E+00</totfact>
</mgrwt>
</event>
<event>
 4    1  0.2051094E-007  0.7705538E+03  0.7818608E-02  0.9778513E-01
         -2   -1    0    0    0  501 -0.00000000000E+00  0.00000000000E+00  0.30338081441E+03  0.30338081442E+03  0.25500000000E-02 0.  1.
          2   -1    0    0  501    0  0.00000000000E+00 -0.00000000000E+00 -0.35336788835E+04  0.35336788835E+04  0.25500000000E-02 0. -1.
    8880023    1    1    2    0    0  0.36181449151E+03 -0.17039123508E+03 -0.33126051015E+04  0.34010447901E+04  0.65864270000E+03 0.  0.
    8880022    1    1    2    0    0 -0.36181449151E+03  0.17039123508E+03  0.82307032422E+02  0.43601490784E+03  0.15294330000E+03 0.  0.
<mgrwt>
<rscale>  0 0.66528503E+03</rscale>
<asrwt>0</asrwt>
<pdfrwt beam="1">  1        2 0.54364288E+00 0.77055377E+03</pdfrwt>
<pdfrwt beam="2">  1       -2 0.46673974E-01 0.77055377E+03</pdfrwt>
<totfact> 0.36249385E+00</totfact>
</mgrwt>
</event>
<event>
 4    1  0.2051094E-007  0.1213193E+04  0.7818608E-02  0.9144404E-01
         -2   -1    0    0    0  501 -0.00000000000E+00  0.00000000000E+00  0.17371162743E+04  0.17371162743E+04  0.25500000000E-02 0.  1.
          2   -1    0    0  501    0  0.00000000000E+00 -0.00000000000E+00 -0.11934928251E+04  0.11934928251E+04  0.25500000000E-02 0. -1.
    8880023    1    1    2    0    0  0.10188346531E+04 -0.14180983972E+01 -0.63158519252E+03  0.13677485599E+04  0.65864270000E+03 0. -1.
    8880022    1    1    2    0    0 -0.10188346531E+04  0.14180983972E+01  0.11752086418E+04  0.15628605395E+04  0.15294330000E+03 0.  0.
<mgrwt>
<rscale>  0 0.11646169E+04</rscale>
<asrwt>0</asrwt>
<pdfrwt beam="1">  1        2 0.18361428E+00 0.12131926E+04</pdfrwt>
<pdfrwt beam="2">  1       -2 0.26724866E+00 0.12131926E+04</pdfrwt>
<totfact> 0.93627105E-01</totfact>
</mgrwt>
</event>
<event>
 4    1  0.2051094E-007  0.9786474E+03  0.7818608E-02  0.9410042E-01
          2   -1    0    0  501    0  0.00000000000E+00  0.00000000000E+00  0.22955695674E+04  0.22955695674E+04  0.25500000000E-02 0. -1.
         -2   -1    0    0    0  501 -0.00000000000E+00 -0.00000000000E+00 -0.36411529158E+03  0.36411529159E+03  0.25500000000E-02 0.  1.
    8880023    1    1    2    0    0 -0.68108870259E+03  0.24506866437E+03  0.15347362329E+04  0.18202104224E+04  0.65864270000E+03 0.  1.
    8880022    1    1    2    0    0  0.68108870259E+03 -0.24506866437E+03  0.39671804290E+03  0.83947443655E+03  0.15294330000E+03 0.  0.
<mgrwt>
<rscale>  0 0.91253818E+03</rscale>
<asrwt>0</asrwt>
<pdfrwt beam="1">  1        2 0.35316455E+00 0.97864737E+03</pdfrwt>
<pdfrwt beam="2">  1       -2 0.56017738E-01 0.97864737E+03</pdfrwt>
<totfact> 0.13791887E+01</totfact>
</mgrwt>
</event>
<event>
 4    1  0.2051094E-007  0.9322378E+03  0.7818608E-02  0.9476144E-01
         -2   -1    0    0    0  501 -0.00000000000E+00  0.00000000000E+00  0.36811183500E+03  0.36811183501E+03  0.25500000000E-02 0.  1.
          2   -1    0    0  501    0  0.00000000000E+00 -0.00000000000E+00 -0.33292277506E+04  0.33292277506E+04  0.25500000000E-02 0. -1.
    8880023    1    1    2    0    0 -0.72472204563E+02  0.65574751318E+03 -0.28655703655E+04  0.30133968785E+04  0.65864270000E+03 0.  0.
    8880022    1    1    2    0    0  0.72472204563E+02 -0.65574751318E+03 -0.95545550115E+02  0.68394270713E+03  0.15294330000E+03 0.  0.
<mgrwt>
<rscale>  0 0.86065686E+03</rscale>
<asrwt>0</asrwt>
<pdfrwt beam="1">  1        2 0.51218886E+00 0.93223775E+03</pdfrwt>
<pdfrwt beam="2">  1       -2 0.56632592E-01 0.93223775E+03</pdfrwt>
<totfact> 0.32482894E+00</totfact>
</mgrwt>
</event>
<event>
 4    1  0.2051094E-007  0.7983838E+03  0.7818608E-02  0.9714301E-01
         -2   -1    0    0    0  501 -0.00000000000E+00  0.00000000000E+00  0.22215256074E+03  0.22215256076E+03  0.25500000000E-02 0.  1.
          2   -1    0    0  501    0  0.00000000000E+00 -0.00000000000E+00 -0.24138846187E+04  0.24138846187E+04  0.25500000000E-02 0. -1.
    8880023    1    1    2    0    0 -0.42736338497E+02 -0.44919947386E+03 -0.19385098079E+04  0.20964820638E+04  0.65864270000E+03 0. -1.
    8880022    1    1    2    0    0  0.42736338497E+02  0.44919947386E+03 -0.25322225000E+03  0.53955511568E+03  0.15294330000E+03 0.  0.
<mgrwt>
<rscale>  0 0.70171638E+03</rscale>
<asrwt>0</asrwt>
<pdfrwt beam="1">  1        2 0.37136685E+00 0.79838385E+03</pdfrwt>
<pdfrwt beam="2">  1       -2 0.34177319E-01 0.79838385E+03</pdfrwt>
<totfact> 0.32360205E+01</totfact>
</mgrwt>
</event>
<event>
 4    1  0.2324179E-007  0.7027208E+03  0.7818608E-02  0.9986096E-01
         -2   -1    0    0    0  501 -0.00000000000E+00  0.00000000000E+00  0.76542618156E+03  0.76542618156E+03  0.25500000000E-02 0.  1.
          2   -1    0    0  501    0  0.00000000000E+00 -0.00000000000E+00 -0.26245345254E+04  0.26245345254E+04  0.25500000000E-02 0. -1.
    8880023    1    1    2    0    0  0.24226478511E+03 -0.36250666890E+02 -0.25479257632E+04  0.26430554739E+04  0.65864270000E+03 0. -1.
    8880022    1    1    2    0    0 -0.24226478511E+03  0.36250666890E+02  0.68881741937E+03  0.74690523307E+03  0.15294330000E+03 0.  0.
<mgrwt>
<rscale>  0 0.56264124E+03</rscale>
<asrwt>0</asrwt>
<pdfrwt beam="1">  1        2 0.40377454E+00 0.70272081E+03</pdfrwt>
<pdfrwt beam="2">  1       -2 0.11775788E+00 0.70272081E+03</pdfrwt>
<totfact> 0.17449486E+00</totfact>
</mgrwt>
</event>
<event>
 4    1  0.2051094E-007  0.1233683E+04  0.7818608E-02  0.9125056E-01
          2   -1    0    0  501    0  0.00000000000E+00  0.00000000000E+00  0.20576443521E+04  0.20576443521E+04  0.25500000000E-02 0. -1.
         -2   -1    0    0    0  501 -0.00000000000E+00 -0.00000000000E+00 -0.16975768202E+04  0.16975768202E+04  0.25500000000E-02 0.  1.
    8880023    1    1    2    0    0 -0.83600205561E+03  0.62391076116E+03  0.16683865077E+04  0.20749669444E+04  0.65864270000E+03 0.  0.
    8880022    1    1    2    0    0  0.83600205561E+03 -0.62391076116E+03 -0.13083189759E+04  0.16802542279E+04  0.15294330000E+03 0.  0.
<mgrwt>
<rscale>  0 0.11861624E+04</rscale>
<asrwt>0</asrwt>
<pdfrwt beam="1">  1        2 0.31656067E+00 0.12336832E+04</pdfrwt>
<pdfrwt beam="2">  1       -2 0.26116567E+00 0.12336832E+04</pdfrwt>
<totfact> 0.33012307E-01</totfact>
</mgrwt>
</event>
<event>
 4    1  0.2051094E-007  0.9211459E+03  0.7818608E-02  0.9492904E-01
          2   -1    0    0  501    0  0.00000000000E+00  0.00000000000E+00  0.43601869283E+04  0.43601869283E+04  0.25500000000E-02 0. -1.
         -2   -1    0    0    0  501 -0.00000000000E+00 -0.00000000000E+00 -0.19831439017E+03  0.19831439018E+03  0.25500000000E-02 0.  1.
    8880023    1    1    2    0    0  0.64444417080E+02 -0.64073905987E+03  0.35124406962E+04  0.36312187315E+04  0.65864270000E+03 0. -1.
    8880022    1    1    2    0    0 -0.64444417080E+02  0.64073905987E+03  0.64943184198E+03  0.92728258699E+03  0.15294330000E+03 0.  0.
<mgrwt>
<rscale>  0 0.84808993E+03</rscale>
<asrwt>0</asrwt>
<pdfrwt beam="1">  1        2 0.67079794E+00 0.92114593E+03</pdfrwt>
<pdfrwt beam="2">  1       -2 0.30509908E-01 0.92114593E+03</pdfrwt>
<totfact> 0.18022672E+00</totfact>
</mgrwt>
</event>
<event>
 4    1  0.2051094E-007  0.7301548E+03  0.7818608E-02  0.9889613E-01
         -2   -1    0    0    0  501 -0.00000000000E+00  0.00000000000E+00  0.12742944626E+04  0.12742944626E+04  0.25500000000E-02 0.  1.
          2   -1    0    0  501    0  0.00000000000E+00 -0.00000000000E+00 -0.11816083759E+04  0.11816083759E+04  0.25500000000E-02 0. -1.
    8880023    1    1    2    0    0  0.26899350535E+03  0.16418970569E+03 -0.10397565621E+04  0.12705194528E+04  0.65864270000E+03 0.  0.
    8880022    1    1    2    0    0 -0.26899350535E+03 -0.16418970569E+03  0.11324426487E+04  0.11853833857E+04  0.15294330000E+03 0.  0.
<mgrwt>
<rscale>  0 0.60767314E+03</rscale>
<asrwt>0</asrwt>
<pdfrwt beam="1">  1        2 0.18178590E+00 0.73015476E+03</pdfrwt>
<pdfrwt beam="2">  1       -2 0.19604530E+00 0.73015476E+03</pdfrwt>
<totfact> 0.28247757E+00</totfact>
</mgrwt>
</event>
<event>
 4    1  0.2051094E-007  0.1049888E+04  0.7818608E-02  0.9319017E-01
         -2   -1    0    0    0  501 -0.00000000000E+00  0.00000000000E+00  0.71569702633E+03  0.71569702634E+03  0.25500000000E-02 0.  1.
          2   -1    0    0  501    0  0.00000000000E+00 -0.00000000000E+00 -0.24998239151E+04  0.24998239151E+04  0.25500000000E-02 0. -1.
    8880023    1    1    2    0    0 -0.16908181913E+03  0.79991562093E+03 -0.20822318122E+04  0.23319419350E+04  0.65864270000E+03 0. -1.
    8880022    1    1    2    0    0  0.16908181913E+03 -0.79991562093E+03  0.29810492346E+03  0.88357900642E+03  0.15294330000E+03 0.  0.
<mgrwt>
<rscale>  0 0.99050852E+03</rscale>
<asrwt>0</asrwt>
<pdfrwt beam="1">  1        2 0.38458829E+00 0.10498876E+04</pdfrwt>
<pdfrwt beam="2">  1       -2 0.11010724E+00 0.10498876E+04</pdfrwt>
<totfact> 0.22840771E+00</totfact>
</mgrwt>
</event>
<event>
 4    1  0.2051094E-007  0.8161879E+03  0.7818608E-02  0.9676829E-01
         -2   -1    0    0    0  501 -0.00000000000E+00  0.00000000000E+00  0.74046159886E+03  0.74046159886E+03  0.25500000000E-02 0.  1.
          2   -1    0    0  501    0  0.00000000000E+00 -0.00000000000E+00 -0.12695825419E+04  0.12695825419E+04  0.25500000000E-02 0. -1.
    8880023    1    1    2    0    0  0.37506983101E+03 -0.30277908236E+03 -0.10192655948E+04  0.13057814173E+04  0.65864270000E+03 0.  0.
    8880022    1    1    2    0    0 -0.37506983101E+03  0.30277908236E+03  0.49014465180E+03  0.70426272339E+03  0.15294330000E+03 0.  0.
<mgrwt>
<rscale>  0 0.72413303E+03</rscale>
<asrwt>0</asrwt>
<pdfrwt beam="1">  1        2 0.19532039E+00 0.81618794E+03</pdfrwt>
<pdfrwt beam="2">  1       -2 0.11391717E+00 0.81618794E+03</pdfrwt>
<totfact> 0.10524218E+01</totfact>
</mgrwt>
</event>
<event>
 4    1  0.2356420E-007  0.1252213E+04  0.7818608E-02  0.9107966E-01
         -2   -1    0    0    0  501 -0.00000000000E+00  0.00000000000E+00  0.14729009368E+04  0.14729009368E+04  0.25500000000E-02 0.  1.
          2   -1    0    0  501    0  0.00000000000E+00 -0.00000000000E+00 -0.28557250208E+04  0.28557250208E+04  0.25500000000E-02 0. -1.
    8880023    1    1    2    0    0  0.10103175506E+04  0.33687775075E+03 -0.24885360281E+04  0.27858302069E+04  0.65864270000E+03 0. -1.
    8880022    1    1    2    0    0 -0.10103175506E+04 -0.33687775075E+03  0.11057119441E+04  0.15427957507E+04  0.15294330000E+03 0.  0.
<mgrwt>
<rscale>  0 0.12056035E+04</rscale>
<asrwt>0</asrwt>
<pdfrwt beam="1">  1        2 0.43934231E+00 0.12522134E+04</pdfrwt>
<pdfrwt beam="2">  1       -2 0.22660014E+00 0.12522134E+04</pdfrwt>
<totfact> 0.18687375E-01</totfact>
</mgrwt>
</event>
<event>
 4    1  0.2051094E-007  0.6617201E+03  0.7818608E-02  0.1022459E+00
         -2   -1    0    0    0  501 -0.00000000000E+00  0.00000000000E+00  0.61936833027E+03  0.61936833027E+03  0.25500000000E-02 0.  1.
          2   -1    0    0  501    0  0.00000000000E+00 -0.00000000000E+00 -0.11501703241E+04  0.11501703241E+04  0.25500000000E-02 0. -1.
    8880023    1    1    2    0    0  0.19486269390E+02 -0.60692629947E+02 -0.10407747833E+04  0.12333230176E+04  0.65864270000E+03 0.  0.
    8880022    1    1    2    0    0 -0.19486269390E+02  0.60692629947E+02  0.50997278949E+03  0.53621563672E+03  0.15294330000E+03 0.  1.
<mgrwt>
<rscale>  0 0.46809431E+03</rscale>
<asrwt>0</asrwt>
<pdfrwt beam="1">  1        2 0.17694928E+00 0.66172012E+03</pdfrwt>
<pdfrwt beam="2">  1       -2 0.95287436E-01 0.66172012E+03</pdfrwt>
<totfact> 0.19331663E+01</totfact>
</mgrwt>
</event>
<event>
 4    1  0.2051094E-007  0.8346872E+03  0.7818608E-02  0.9640280E-01
         -2   -1    0    0    0  501 -0.00000000000E+00  0.00000000000E+00  0.30424078430E+03  0.30424078431E+03  0.25500000000E-02 0.  1.
          2   -1    0    0  501    0  0.00000000000E+00 -0.00000000000E+00 -0.15902971690E+04  0.15902971690E+04  0.25500000000E-02 0. -1.
    8880023    1    1    2    0    0 -0.46082560738E+03  0.22479400755E+03 -0.61769077996E+03  0.10383856182E+04  0.65864270000E+03 0.  0.
    8880022    1    1    2    0    0  0.46082560738E+03 -0.22479400755E+03 -0.66836560476E+03  0.85615233510E+03  0.15294330000E+03 0.  0.
<mgrwt>
<rscale>  0 0.74686569E+03</rscale>
<asrwt>0</asrwt>
<pdfrwt beam="1">  1        2 0.24466110E+00 0.83468724E+03</pdfrwt>
<pdfrwt beam="2">  1       -2 0.46806276E-01 0.83468724E+03</pdfrwt>
<totfact> 0.49559255E+01</totfact>
</mgrwt>
</event>
<event>
 4    1  0.2051094E-007  0.1507478E+04  0.7818608E-02  0.8904373E-01
         -2   -1    0    0    0  501 -0.00000000000E+00  0.00000000000E+00  0.71039864948E+03  0.71039864948E+03  0.25500000000E-02 0.  1.
          2   -1    0    0  501    0  0.00000000000E+00 -0.00000000000E+00 -0.32428680424E+04  0.32428680424E+04  0.25500000000E-02 0. -1.
    8880023    1    1    2    0    0 -0.12780770700E+04  0.45298900502E+03 -0.19619756759E+04  0.24742349918E+04  0.65864270000E+03 0.  0.
    8880022    1    1    2    0    0  0.12780770700E+04 -0.45298900502E+03 -0.57049371699E+03  0.14790317000E+04  0.15294330000E+03 0.  0.
<mgrwt>
<rscale>  0 0.14704078E+04</rscale>
<asrwt>0</asrwt>
<pdfrwt beam="1">  1        2 0.49890277E+00 0.15074781E+04</pdfrwt>
<pdfrwt beam="2">  1       -2 0.10929210E+00 0.15074781E+04</pdfrwt>
<totfact> 0.77561457E-01</totfact>
</mgrwt>
</event>
<event>
 4    1  0.2051094E-007  0.1149025E+04  0.7818608E-02  0.9208341E-01
          2   -1    0    0  501    0  0.00000000000E+00  0.00000000000E+00  0.32945797230E+04  0.32945797230E+04  0.25500000000E-02 0. -1.
         -2   -1    0    0    0  501 -0.00000000000E+00 -0.00000000000E+00 -0.53224340517E+03  0.53224340518E+03  0.25500000000E-02 0.  1.
    8880023    1    1    2    0    0 -0.58512041929E+03 -0.73761916305E+03  0.26219790893E+04  0.28626967156E+04  0.65864270000E+03 0. -1.
    8880022    1    1    2    0    0  0.58512041929E+03  0.73761916305E+03  0.14035722855E+03  0.96412641256E+03  0.15294330000E+03 0.  0.
<mgrwt>
<rscale>  0 0.10967753E+04</rscale>
<asrwt>0</asrwt>
<pdfrwt beam="1">  1        2 0.50685843E+00 0.11490249E+04</pdfrwt>
<pdfrwt beam="2">  1       -2 0.81883599E-01 0.11490249E+04</pdfrwt>
<totfact> 0.14817064E+00</totfact>
</mgrwt>
</event>
<event>
 4    1  0.2051094E-007  0.8209530E+03  0.7818608E-02  0.9667198E-01
          2   -1    0    0  501    0  0.00000000000E+00  0.00000000000E+00  0.23842061263E+04  0.23842061263E+04  0.25500000000E-02 0. -1.
         -2   -1    0    0    0  501 -0.00000000000E+00 -0.00000000000E+00 -0.66638424719E+03  0.66638424720E+03  0.25500000000E-02 0.  1.
    8880023    1    1    2    0    0 -0.39060905331E+03 -0.29593618519E+03  0.21988312800E+04  0.23470881667E+04  0.65864270000E+03 0. -1.
    8880022    1    1    2    0    0  0.39060905331E+03  0.29593618519E+03 -0.48100940087E+03  0.70350220680E+03  0.15294330000E+03 0.  0.
<mgrwt>
<rscale>  0 0.73003829E+03</rscale>
<asrwt>0</asrwt>
<pdfrwt beam="1">  1        2 0.36680094E+00 0.82095302E+03</pdfrwt>
<pdfrwt beam="2">  1       -2 0.10252065E+00 0.82095302E+03</pdfrwt>
<totfact> 0.32666663E+00</totfact>
</mgrwt>
</event>
<event>
 4    1  0.2051094E-007  0.7370511E+03  0.7818608E-02  0.9868622E-01
          2   -1    0    0  501    0  0.00000000000E+00  0.00000000000E+00  0.19133463336E+04  0.19133463336E+04  0.25500000000E-02 0. -1.
         -2   -1    0    0    0  501 -0.00000000000E+00 -0.00000000000E+00 -0.55946178443E+03  0.55946178444E+03  0.25500000000E-02 0.  1.
    8880023    1    1    2    0    0  0.27037742037E+03 -0.19060491238E+03  0.17713890152E+04  0.19186097653E+04  0.65864270000E+03 0. -1.
    8880022    1    1    2    0    0 -0.27037742037E+03  0.19060491238E+03 -0.41750446600E+03  0.55419835277E+03  0.15294330000E+03 0.  0.
<mgrwt>
<rscale>  0 0.61806413E+03</rscale>
<asrwt>0</asrwt>
<pdfrwt beam="1">  1        2 0.29436098E+00 0.73705114E+03</pdfrwt>
<pdfrwt beam="2">  1       -2 0.86071043E-01 0.73705114E+03</pdfrwt>
<totfact> 0.90511884E+00</totfact>
</mgrwt>
</event>
<event>
 4    1  0.2051094E-007  0.9855184E+03  0.7818608E-02  0.9400754E-01
         -2   -1    0    0    0  501 -0.00000000000E+00  0.00000000000E+00  0.49208643239E+03  0.49208643240E+03  0.25500000000E-02 0.  1.
          2   -1    0    0  501    0  0.00000000000E+00 -0.00000000000E+00 -0.41823332661E+04  0.41823332662E+04  0.25500000000E-02 0. -1.
    8880023    1    1    2    0    0  0.73259554613E+03  0.27203838730E+02 -0.37926177822E+04  0.39185706745E+04  0.65864270000E+03 0.  0.
    8880022    1    1    2    0    0 -0.73259554613E+03 -0.27203838730E+02  0.10237094843E+03  0.75584902405E+03  0.15294330000E+03 0.  1.
<mgrwt>
<rscale>  0 0.92013649E+03</rscale>
<asrwt>0</asrwt>
<pdfrwt beam="1">  1        2 0.64343586E+00 0.98551839E+03</pdfrwt>
<pdfrwt beam="2">  1       -2 0.75705608E-01 0.98551839E+03</pdfrwt>
<totfact> 0.40069875E-01</totfact>
</mgrwt>
</event>
<event>
 4    1  0.2051094E-007  0.1343093E+04  0.7818608E-02  0.9029212E-01
          2   -1    0    0  501    0  0.00000000000E+00  0.00000000000E+00  0.25794044779E+04  0.25794044779E+04  0.25500000000E-02 0. -1.
         -2   -1    0    0    0  501 -0.00000000000E+00 -0.00000000000E+00 -0.82840473496E+03  0.82840473497E+03  0.25500000000E-02 0.  1.
    8880023    1    1    2    0    0 -0.13256376803E+03 -0.11629764844E+04  0.17765056224E+04  0.22270765341E+04  0.65864270000E+03 0. -1.
    8880022    1    1    2    0    0  0.13256376803E+03  0.11629764844E+04 -0.25505879510E+02  0.11807326788E+04  0.15294330000E+03 0.  0.
<mgrwt>
<rscale>  0 0.13004451E+04</rscale>
<asrwt>0</asrwt>
<pdfrwt beam="1">  1        2 0.39683145E+00 0.13430926E+04</pdfrwt>
<pdfrwt beam="2">  1       -2 0.12744689E+00 0.13430926E+04</pdfrwt>
<totfact> 0.13781115E+00</totfact>
</mgrwt>
</event>
<event>
 4    1  0.2051094E-007  0.1124216E+04  0.7818608E-02  0.9234562E-01
         -2   -1    0    0    0  501 -0.00000000000E+00  0.00000000000E+00  0.55866933729E+03  0.55866933730E+03  0.25500000000E-02 0.  1.
          2   -1    0    0  501    0  0.00000000000E+00 -0.00000000000E+00 -0.34841873326E+04  0.34841873326E+04  0.25500000000E-02 0. -1.
    8880023    1    1    2    0    0 -0.58364725327E+03 -0.69957593535E+03 -0.29092331442E+04  0.31188937621E+04  0.65864270000E+03 0. -1.
    8880022    1    1    2    0    0  0.58364725327E+03  0.69957593535E+03 -0.16284851074E+02  0.92396290778E+03  0.15294330000E+03 0.  0.
<mgrwt>
<rscale>  0 0.10703701E+04</rscale>
<asrwt>0</asrwt>
<pdfrwt beam="1">  1        2 0.53602881E+00 0.11242156E+04</pdfrwt>
<pdfrwt beam="2">  1       -2 0.85949131E-01 0.11242156E+04</pdfrwt>
<totfact> 0.99291595E-01</totfact>
</mgrwt>
</event>
<event>
 4    1  0.2051094E-007  0.8856989E+03  0.7818608E-02  0.9549391E-01
          2   -1    0    0  501    0  0.00000000000E+00  0.00000000000E+00  0.33287369094E+04  0.33287369094E+04  0.25500000000E-02 0. -1.
         -2   -1    0    0    0  501 -0.00000000000E+00 -0.00000000000E+00 -0.75190058623E+03  0.75190058624E+03  0.25500000000E-02 0.  1.
    8880023    1    1    2    0    0  0.52756087011E+03  0.26894577734E+03  0.31318945885E+04  0.32547236783E+04  0.65864270000E+03 0.  0.
    8880022    1    1    2    0    0 -0.52756087011E+03 -0.26894577734E+03 -0.55505826526E+03  0.82591381733E+03  0.15294330000E+03 0.  0.
<mgrwt>
<rscale>  0 0.80738356E+03</rscale>
<asrwt>0</asrwt>
<pdfrwt beam="1">  1        2 0.51211338E+00 0.88569888E+03</pdfrwt>
<pdfrwt beam="2">  1       -2 0.11567701E+00 0.88569888E+03</pdfrwt>
<totfact> 0.65004952E-01</totfact>
</mgrwt>
</event>
<event>
 4    1  0.2051094E-007  0.8347185E+03  0.7818608E-02  0.9640220E-01
         -2   -1    0    0    0  501 -0.00000000000E+00  0.00000000000E+00  0.10438646713E+04  0.10438646713E+04  0.25500000000E-02 0.  1.
          2   -1    0    0  501    0  0.00000000000E+00 -0.00000000000E+00 -0.12275122569E+04  0.12275122569E+04  0.25500000000E-02 0. -1.
    8880023    1    1    2    0    0 -0.51053542904E+02 -0.51023365506E+03 -0.99543444879E+03  0.12990938361E+04  0.65864270000E+03 0. -1.
    8880022    1    1    2    0    0  0.51053542904E+02  0.51023365506E+03  0.81178686310E+03  0.97228309207E+03  0.15294330000E+03 0.  0.
<mgrwt>
<rscale>  0 0.74690374E+03</rscale>
<asrwt>0</asrwt>
<pdfrwt beam="1">  1        2 0.18884804E+00 0.83471855E+03</pdfrwt>
<pdfrwt beam="2">  1       -2 0.16059456E+00 0.83471855E+03</pdfrwt>
<totfact> 0.45970467E+00</totfact>
</mgrwt>
</event>
<event>
 4    1  0.2051094E-007  0.7017504E+03  0.7818608E-02  0.9990016E-01
         -2   -1    0    0    0  501 -0.00000000000E+00  0.00000000000E+00  0.11643392136E+04  0.11643392136E+04  0.25500000000E-02 0.  1.
          2   -1    0    0  501    0  0.00000000000E+00 -0.00000000000E+00 -0.34445053030E+04  0.34445053030E+04  0.25500000000E-02 0. -1.
    8880023    1    1    2    0    0  0.51674183737E+02  0.23658660915E+03 -0.33903987681E+04  0.34622618991E+04  0.65864270000E+03 0. -1.
    8880022    1    1    2    0    0 -0.51674183737E+02 -0.23658660915E+03  0.11102326787E+04  0.11465826175E+04  0.15294330000E+03 0.  0.
<mgrwt>
<rscale>  0 0.56090198E+03</rscale>
<asrwt>0</asrwt>
<pdfrwt beam="1">  1        2 0.52992389E+00 0.70175042E+03</pdfrwt>
<pdfrwt beam="2">  1       -2 0.17912911E+00 0.70175042E+03</pdfrwt>
<totfact> 0.18077314E-01</totfact>
</mgrwt>
</event>
<event>
 4    1  0.2051094E-007  0.7523845E+03  0.7818608E-02  0.9825238E-01
          2   -1    0    0  501    0  0.00000000000E+00  0.00000000000E+00  0.31648842775E+04  0.31648842775E+04  0.25500000000E-02 0. -1.
         -2   -1    0    0    0  501 -0.00000000000E+00 -0.00000000000E+00 -0.24194548830E+03  0.24194548831E+03  0.25500000000E-02 0.  1.
    8880023    1    1    2    0    0 -0.28132887236E+03 -0.23049143294E+03  0.29167619132E+04  0.30122387853E+04  0.65864270000E+03 0. -1.
    8880022    1    1    2    0    0  0.28132887236E+03  0.23049143294E+03  0.61768759950E+01  0.39459098050E+03  0.15294330000E+03 0.  0.
<mgrwt>
<rscale>  0 0.64025557E+03</rscale>
<asrwt>0</asrwt>
<pdfrwt beam="1">  1        2 0.48690523E+00 0.75238450E+03</pdfrwt>
<pdfrwt beam="2">  1       -2 0.37222386E-01 0.75238450E+03</pdfrwt>
<totfact> 0.99318988E+00</totfact>
</mgrwt>
</event>
<event>
 4    1  0.2051094E-007  0.1200705E+04  0.7818608E-02  0.9156438E-01
         -2   -1    0    0    0  501 -0.00000000000E+00  0.00000000000E+00  0.16517796817E+04  0.16517796817E+04  0.25500000000E-02 0.  1.
          2   -1    0    0  501    0  0.00000000000E+00 -0.00000000000E+00 -0.80674246841E+03  0.80674246842E+03  0.25500000000E-02 0. -1.
    8880023    1    1    2    0    0 -0.80205886255E+03 -0.60380703721E+03  0.11167315044E+03  0.12058865850E+04  0.65864270000E+03 0.  0.
    8880022    1    1    2    0    0  0.80205886255E+03  0.60380703721E+03  0.73336406283E+03  0.12526355651E+04  0.15294330000E+03 0.  0.
<mgrwt>
<rscale>  0 0.11514600E+04</rscale>
<asrwt>0</asrwt>
<pdfrwt beam="1">  1        2 0.12411423E+00 0.12007046E+04</pdfrwt>
<pdfrwt beam="2">  1       -2 0.25411995E+00 0.12007046E+04</pdfrwt>
<totfact> 0.20168684E+00</totfact>
</mgrwt>
</event>
<event>
 4    1  0.2051094E-007  0.6666018E+03  0.7818608E-02  0.1018226E+00
         -2   -1    0    0    0  501 -0.00000000000E+00  0.00000000000E+00  0.17490440424E+03  0.17490440425E+03  0.25500000000E-02 0.  1.
          2   -1    0    0  501    0  0.00000000000E+00 -0.00000000000E+00 -0.16594094425E+04  0.16594094425E+04  0.25500000000E-02 0. -1.
    8880023    1    1    2    0    0 -0.81393573423E+02 -0.62632365217E+02 -0.15078380907E+04  0.16486156741E+04  0.65864270000E+03 0. -1.
    8880022    1    1    2    0    0  0.81393573423E+02  0.62632365217E+02  0.23333052428E+02  0.18569817263E+03  0.15294330000E+03 0.  0.
<mgrwt>
<rscale>  0 0.48332342E+03</rscale>
<asrwt>0</asrwt>
<pdfrwt beam="1">  1        2 0.25529375E+00 0.66660178E+03</pdfrwt>
<pdfrwt beam="2">  1       -2 0.26908371E-01 0.66660178E+03</pdfrwt>
<totfact> 0.13300968E+02</totfact>
</mgrwt>
</event>
<event>
 4    1  0.2051094E-007  0.9081619E+03  0.7818608E-02  0.9513054E-01
          2   -1    0    0  501    0  0.00000000000E+00  0.00000000000E+00  0.47261411322E+03  0.47261411323E+03  0.25500000000E-02 0. -1.
         -2   -1    0    0    0  501 -0.00000000000E+00 -0.00000000000E+00 -0.13383130680E+04  0.13383130680E+04  0.25500000000E-02 0.  1.
    8880023    1    1    2    0    0 -0.53386444808E+03  0.32547902381E+03 -0.30718409999E+03  0.95870752653E+03  0.65864270000E+03 0.  0.
    8880022    1    1    2    0    0  0.53386444808E+03 -0.32547902381E+03 -0.55851485483E+03  0.85221965475E+03  0.15294330000E+03 0.  0.
<mgrwt>
<rscale>  0 0.83328200E+03</rscale>
<asrwt>0</asrwt>
<pdfrwt beam="1">  1        2 0.72709864E-01 0.90816191E+03</pdfrwt>
<pdfrwt beam="2">  1       -2 0.20589432E+00 0.90816191E+03</pdfrwt>
<totfact> 0.80338507E+00</totfact>
</mgrwt>
</event>
<event>
 4    1  0.2051094E-007  0.1725562E+04  0.7818608E-02  0.8764870E-01
          2   -1    0    0  501    0  0.00000000000E+00  0.00000000000E+00  0.18512917398E+04  0.18512917398E+04  0.25500000000E-02 0. -1.
         -2   -1    0    0    0  501 -0.00000000000E+00 -0.00000000000E+00 -0.18036703983E+04  0.18036703983E+04  0.25500000000E-02 0.  1.
    8880023    1    1    2    0    0  0.26536136271E+03 -0.15726849174E+04 -0.73045057703E+03  0.18737990165E+04  0.65864270000E+03 0.  0.
    8880022    1    1    2    0    0 -0.26536136271E+03  0.15726849174E+04  0.77807191853E+03  0.17811631216E+04  0.15294330000E+03 0.  0.
<mgrwt>
<rscale>  0 0.16938669E+04</rscale>
<asrwt>0</asrwt>
<pdfrwt beam="1">  1        2 0.28481411E+00 0.17255621E+04</pdfrwt>
<pdfrwt beam="2">  1       -2 0.27748775E+00 0.17255621E+04</pdfrwt>
<totfact> 0.32309381E-01</totfact>
</mgrwt>
</event>
<event>
 4    1  0.2051094E-007  0.8978953E+03  0.7818608E-02  0.9529419E-01
         -2   -1    0    0    0  501 -0.00000000000E+00  0.00000000000E+00  0.50003013329E+03  0.50003013330E+03  0.25500000000E-02 0.  1.
          2   -1    0    0  501    0  0.00000000000E+00 -0.00000000000E+00 -0.39577342011E+04  0.39577342011E+04  0.25500000000E-02 0. -1.
    8880023    1    1    2    0    0  0.26294193472E+03  0.55069713401E+03 -0.36819639296E+04  0.37898646915E+04  0.65864270000E+03 0. -1.
    8880022    1    1    2    0    0 -0.26294193472E+03 -0.55069713401E+03  0.22425986178E+03  0.66789964295E+03  0.15294330000E+03 0.  0.
<mgrwt>
<rscale>  0 0.82149212E+03</rscale>
<asrwt>0</asrwt>
<pdfrwt beam="1">  1        2 0.60888216E+00 0.89789532E+03</pdfrwt>
<pdfrwt beam="2">  1       -2 0.76927716E-01 0.89789532E+03</pdfrwt>
<totfact> 0.59929689E-01</totfact>
</mgrwt>
</event>
<event>
 4    1  0.2051094E-007  0.6874227E+03  0.7818608E-02  0.1005402E+00
          2   -1    0    0  501    0  0.00000000000E+00  0.00000000000E+00  0.28161295852E+04  0.28161295852E+04  0.25500000000E-02 0. -1.
         -2   -1    0    0    0  501 -0.00000000000E+00 -0.00000000000E+00 -0.21307253485E+03  0.21307253486E+03  0.25500000000E-02 0.  1.
    8880023    1    1    2    0    0 -0.17881328079E+03  0.82252946955E+02  0.26812459229E+04  0.27679648918E+04  0.65864270000E+03 0. -1.
    8880022    1    1    2    0    0  0.17881328079E+03 -0.82252946955E+02 -0.78188872515E+02  0.26123722834E+03  0.15294330000E+03 0.  0.
<mgrwt>
<rscale>  0 0.53343533E+03</rscale>
<asrwt>0</asrwt>
<pdfrwt beam="1">  1        2 0.43325065E+00 0.68742268E+03</pdfrwt>
<pdfrwt beam="2">  1       -2 0.32780394E-01 0.68742268E+03</pdfrwt>
<totfact> 0.20893934E+01</totfact>
</mgrwt>
</event>
<event>
 4    1  0.2051094E-007  0.9034190E+03  0.7818608E-02  0.9520565E-01
          2   -1    0    0  501    0  0.00000000000E+00  0.00000000000E+00  0.19528014802E+04  0.19528014802E+04  0.25500000000E-02 0. -1.
         -2   -1    0    0    0  501 -0.00000000000E+00 -0.00000000000E+00 -0.31418920473E+03  0.31418920474E+03  0.25500000000E-02 0.  1.
    8880023    1    1    2    0    0 -0.57458265979E+02  0.61567385936E+03  0.75294763818E+03  0.11760510642E+04  0.65864270000E+03 0.  1.
    8880022    1    1    2    0    0  0.57458265979E+02 -0.61567385936E+03  0.88566463729E+03  0.10909396208E+04  0.15294330000E+03 0.  0.
<mgrwt>
<rscale>  0 0.82784475E+03</rscale>
<asrwt>0</asrwt>
<pdfrwt beam="1">  1        2 0.30043100E+00 0.90341904E+03</pdfrwt>
<pdfrwt beam="2">  1       -2 0.48336800E-01 0.90341904E+03</pdfrwt>
<totfact> 0.29156357E+01</totfact>
</mgrwt>
</event>
<event>
 4    1  0.2051094E-007  0.8777993E+03  0.7818608E-02  0.9562654E-01
          2   -1    0    0  501    0  0.00000000000E+00  0.00000000000E+00  0.20513215725E+04  0.20513215725E+04  0.25500000000E-02 0. -1.
         -2   -1    0    0    0  501 -0.00000000000E+00 -0.00000000000E+00 -0.84947830137E+03  0.84947830137E+03  0.25500000000E-02 0.  1.
    8880023    1    1    2    0    0 -0.27761015024E+03  0.50956250082E+03  0.18314954625E+04  0.20309867486E+04  0.65864270000E+03 0.  0.
    8880022    1    1    2    0    0  0.27761015024E+03 -0.50956250082E+03 -0.62965219135E+03  0.86981312524E+03  0.15294330000E+03 0.  0.
<mgrwt>
<rscale>  0 0.79818076E+03</rscale>
<asrwt>0</asrwt>
<pdfrwt beam="1">  1        2 0.31558793E+00 0.87779926E+03</pdfrwt>
<pdfrwt beam="2">  1       -2 0.13068897E+00 0.87779926E+03</pdfrwt>
<totfact> 0.27248827E+00</totfact>
</mgrwt>
</event>
<event>
 4    1  0.2051094E-007  0.7003072E+03  0.7818608E-02  0.9995929E-01
          2   -1    0    0  501    0  0.00000000000E+00  0.00000000000E+00  0.11855048546E+04  0.11855048546E+04  0.25500000000E-02 0. -1.
         -2   -1    0    0    0  501 -0.00000000000E+00 -0.00000000000E+00 -0.20515334960E+03  0.20515334962E+03  0.25500000000E-02 0.  1.
    8880023    1    1    2    0    0  0.41839329016E+02  0.23424241167E+03  0.64660901544E+03  0.95317021669E+03  0.65864270000E+03 0.  0.
    8880022    1    1    2    0    0 -0.41839329016E+02 -0.23424241167E+03  0.33374248955E+03  0.43748798752E+03  0.15294330000E+03 0. -1.
<mgrwt>
<rscale>  0 0.55829103E+03</rscale>
<asrwt>0</asrwt>
<pdfrwt beam="1">  1        2 0.18238536E+00 0.70030725E+03</pdfrwt>
<pdfrwt beam="2">  1       -2 0.31562054E-01 0.70030725E+03</pdfrwt>
<totfact> 0.18287604E+02</totfact>
</mgrwt>
</event>
<event>
 4    1  0.2051094E-007  0.7993736E+03  0.7818608E-02  0.9712152E-01
          2   -1    0    0  501    0  0.00000000000E+00  0.00000000000E+00  0.78330314886E+03  0.78330314887E+03  0.25500000000E-02 0. -1.
         -2   -1    0    0    0  501 -0.00000000000E+00 -0.00000000000E+00 -0.86386315938E+03  0.86386315939E+03  0.25500000000E-02 0.  1.
    8880023    1    1    2    0    0  0.41040910536E+03 -0.19170895863E+03 -0.55536291148E+03  0.97335817061E+03  0.65864270000E+03 0.  1.
    8880022    1    1    2    0    0 -0.41040910536E+03  0.19170895863E+03  0.47480290096E+03  0.67380813764E+03  0.15294330000E+03 0.  0.
<mgrwt>
<rscale>  0 0.70297850E+03</rscale>
<asrwt>0</asrwt>
<pdfrwt beam="1">  1        2 0.12050818E+00 0.79937361E+03</pdfrwt>
<pdfrwt beam="2">  1       -2 0.13290202E+00 0.79937361E+03</pdfrwt>
<totfact> 0.14691066E+01</totfact>
</mgrwt>
</event>
<event>
 4    1  0.2051094E-007  0.1121057E+04  0.7818608E-02  0.9237967E-01
         -2   -1    0    0    0  501 -0.00000000000E+00  0.00000000000E+00  0.11517912564E+04  0.11517912564E+04  0.25500000000E-02 0.  1.
          2   -1    0    0  501    0  0.00000000000E+00 -0.00000000000E+00 -0.12191476146E+04  0.12191476146E+04  0.25500000000E-02 0. -1.
    8880023    1    1    2    0    0 -0.26261157134E+03  0.86832758191E+03 -0.63649991262E+03  0.12891469939E+04  0.65864270000E+03 0.  0.
    8880022    1    1    2    0    0  0.26261157134E+03 -0.86832758191E+03  0.56914355444E+03  0.10817918772E+04  0.15294330000E+03 0.  0.
<mgrwt>
<rscale>  0 0.10669998E+04</rscale>
<asrwt>0</asrwt>
<pdfrwt beam="1">  1        2 0.18756117E+00 0.11210566E+04</pdfrwt>
<pdfrwt beam="2">  1       -2 0.17719866E+00 0.11210566E+04</pdfrwt>
<totfact> 0.34244130E+00</totfact>
</mgrwt>
</event>
<event>
 4    1  0.2051094E-007  0.8687826E+03  0.7818608E-02  0.9578128E-01
         -2   -1    0    0    0  501 -0.00000000000E+00  0.00000000000E+00  0.29732739714E+03  0.29732739715E+03  0.25500000000E-02 0.  1.
          2   -1    0    0  501    0  0.00000000000E+00 -0.00000000000E+00 -0.29046560371E+04  0.29046560371E+04  0.25500000000E-02 0. -1.
    8880023    1    1    2    0    0 -0.43004480002E+03 -0.36882852154E+03 -0.24425569764E+04  0.25924636541E+04  0.65864270000E+03 0. -1.
    8880022    1    1    2    0    0  0.43004480002E+03  0.36882852154E+03 -0.16477166353E+03  0.60951978019E+03  0.15294330000E+03 0.  0.
<mgrwt>
<rscale>  0 0.78760898E+03</rscale>
<asrwt>0</asrwt>
<pdfrwt beam="1">  1        2 0.44687014E+00 0.86878260E+03</pdfrwt>
<pdfrwt beam="2">  1       -2 0.45742678E-01 0.86878260E+03</pdfrwt>
<totfact> 0.94058474E+00</totfact>
</mgrwt>
</event>
<event>
 4    1  0.2388221E-007  0.1041307E+04  0.7818608E-02  0.9329405E-01
          2   -1    0    0  501    0  0.00000000000E+00  0.00000000000E+00  0.17777233528E+04  0.17777233528E+04  0.25500000000E-02 0. -1.
         -2   -1    0    0    0  501 -0.00000000000E+00 -0.00000000000E+00 -0.13321011124E+04  0.13321011124E+04  0.25500000000E-02 0.  1.
    8880023    1    1    2    0    0 -0.58327994310E+03  0.55704081099E+03  0.14672728447E+04  0.17992247676E+04  0.65864270000E+03 0. -1.
    8880022    1    1    2    0    0  0.58327994310E+03 -0.55704081099E+03 -0.10216506043E+04  0.13105996976E+04  0.15294330000E+03 0.  0.
<mgrwt>
<rscale>  0 0.98120248E+03</rscale>
<asrwt>0</asrwt>
<pdfrwt beam="1">  1        2 0.27349590E+00 0.10413069E+04</pdfrwt>
<pdfrwt beam="2">  1       -2 0.20493863E+00 0.10413069E+04</pdfrwt>
<totfact> 0.10857046E+00</totfact>
</mgrwt>
</event>
<event>
 4    1  0.2051094E-007  0.1293241E+04  0.7818608E-02  0.9071419E-01
         -2   -1    0    0    0  501 -0.00000000000E+00  0.00000000000E+00  0.18710171956E+04  0.18710171956E+04  0.25500000000E-02 0.  1.
          2   -1    0    0  501    0  0.00000000000E+00 -0.00000000000E+00 -0.14011912296E+04  0.14011912296E+04  0.25500000000E-02 0. -1.
    8880023    1    1    2    0    0  0.57943849258E+03 -0.95021741569E+03 -0.84345427158E+03  0.15439842675E+04  0.65864270000E+03 0.  0.
    8880022    1    1    2    0    0 -0.57943849258E+03  0.95021741569E+03  0.13132802376E+04  0.17282241577E+04  0.15294330000E+03 0.  0.
<mgrwt>
<rscale>  0 0.12485166E+04</rscale>
<asrwt>0</asrwt>
<pdfrwt beam="1">  1        2 0.21556788E+00 0.12932410E+04</pdfrwt>
<pdfrwt beam="2">  1       -2 0.28784880E+00 0.12932410E+04</pdfrwt>
<totfact> 0.52496171E-01</totfact>
</mgrwt>
</event>
<event>
 4    1  0.2051094E-007  0.1358062E+04  0.7818608E-02  0.9016974E-01
         -2   -1    0    0    0  501 -0.00000000000E+00  0.00000000000E+00  0.27488528939E+04  0.27488528939E+04  0.25500000000E-02 0.  1.
          2   -1    0    0  501    0  0.00000000000E+00 -0.00000000000E+00 -0.74326674601E+03  0.74326674602E+03  0.25500000000E-02 0. -1.
    8880023    1    1    2    0    0  0.20147580982E+03 -0.11704397525E+04  0.18345252089E+04  0.22825018432E+04  0.65864270000E+03 0.  0.
    8880022    1    1    2    0    0 -0.20147580982E+03  0.11704397525E+04  0.17106093904E+03  0.12096177967E+04  0.15294330000E+03 0.  0.
<mgrwt>
<rscale>  0 0.13159974E+04</rscale>
<asrwt>0</asrwt>
<pdfrwt beam="1">  1        2 0.11434873E+00 0.13580618E+04</pdfrwt>
<pdfrwt beam="2">  1       -2 0.42290044E+00 0.13580618E+04</pdfrwt>
<totfact> 0.19314216E-01</totfact>
</mgrwt>
</event>
<event>
 4    1  0.2051094E-007  0.6657120E+03  0.7818608E-02  0.1018943E+00
         -2   -1    0    0    0  501 -0.00000000000E+00  0.00000000000E+00  0.90328109114E+03  0.90328109114E+03  0.25500000000E-02 0.  1.
          2   -1    0    0  501    0  0.00000000000E+00 -0.00000000000E+00 -0.90480957624E+03  0.90480957624E+03  0.25500000000E-02 0. -1.
    8880023    1    1    2    0    0  0.63320667664E+02 -0.73162840100E+02 -0.77041570396E+03  0.10181909798E+04  0.65864270000E+03 0. -1.
    8880022    1    1    2    0    0 -0.63320667664E+02  0.73162840100E+02  0.76888721886E+03  0.78989968760E+03  0.15294330000E+03 0.  0.
<mgrwt>
<rscale>  0 0.48069852E+03</rscale>
<asrwt>0</asrwt>
<pdfrwt beam="1">  1        2 0.13920147E+00 0.66571204E+03</pdfrwt>
<pdfrwt beam="2">  1       -2 0.13896632E+00 0.66571204E+03</pdfrwt>
<totfact> 0.10944235E+01</totfact>
</mgrwt>
</event>
<event>
 4    1  0.2051094E-007  0.1545451E+04  0.7818608E-02  0.8878190E-01
         -2   -1    0    0    0  501 -0.00000000000E+00  0.00000000000E+00  0.16524227802E+04  0.16524227802E+04  0.25500000000E-02 0.  1.
          2   -1    0    0  501    0  0.00000000000E+00 -0.00000000000E+00 -0.24625298054E+04  0.24625298054E+04  0.25500000000E-02 0. -1.
    8880023    1    1    2    0    0  0.13802304112E+04  0.22265160945E+03 -0.18169311390E+04  0.23853005465E+04  0.65864270000E+03 0. -1.
    8880022    1    1    2    0    0 -0.13802304112E+04 -0.22265160945E+03  0.10068241137E+04  0.17296520391E+04  0.15294330000E+03 0.  0.
<mgrwt>
<rscale>  0 0.15094538E+04</rscale>
<asrwt>0</asrwt>
<pdfrwt beam="1">  1        2 0.37885074E+00 0.15454514E+04</pdfrwt>
<pdfrwt beam="2">  1       -2 0.25421889E+00 0.15454514E+04</pdfrwt>
<totfact> 0.20658130E-01</totfact>
</mgrwt>
</event>
<event>
 4    1  0.2051094E-007  0.6598153E+03  0.7818608E-02  0.1024346E+00
         -2   -1    0    0    0  501 -0.00000000000E+00  0.00000000000E+00  0.36436703676E+03  0.36436703677E+03  0.25500000000E-02 0.  1.
          2   -1    0    0  501    0  0.00000000000E+00 -0.00000000000E+00 -0.15733221240E+04  0.15733221240E+04  0.25500000000E-02 0. -1.
    8880023    1    1    2    0    0 -0.37333602125E+01  0.39141470722E+02 -0.14820121024E+04  0.16222564749E+04  0.65864270000E+03 0. -1.
    8880022    1    1    2    0    0  0.37333602125E+01 -0.39141470722E+02  0.27305701517E+03  0.31543268577E+03  0.15294330000E+03 0.  0.
<mgrwt>
<rscale>  0 0.46150213E+03</rscale>
<asrwt>0</asrwt>
<pdfrwt beam="1">  1        2 0.24204955E+00 0.65981528E+03</pdfrwt>
<pdfrwt beam="2">  1       -2 0.56056468E-01 0.65981528E+03</pdfrwt>
<totfact> 0.35708712E+01</totfact>
</mgrwt>
</event>
<event>
 4    1  0.2051094E-007  0.1064285E+04  0.7818608E-02  0.9301903E-01
          2   -1    0    0  501    0  0.00000000000E+00  0.00000000000E+00  0.16145500222E+04  0.16145500222E+04  0.25500000000E-02 0. -1.
         -2   -1    0    0    0  501 -0.00000000000E+00 -0.00000000000E+00 -0.75312941543E+03  0.75312941543E+03  0.25500000000E-02 0.  1.
    8880023    1    1    2    0    0  0.67708387132E+03 -0.49035596352E+03  0.10522564425E+04  0.14966447029E+04  0.65864270000E+03 0.  0.
    8880022    1    1    2    0    0 -0.67708387132E+03  0.49035596352E+03 -0.19083583577E+03  0.87103473466E+03  0.15294330000E+03 0.  0.
<mgrwt>
<rscale>  0 0.10060783E+04</rscale>
<asrwt>0</asrwt>
<pdfrwt beam="1">  1        2 0.24839231E+00 0.10642846E+04</pdfrwt>
<pdfrwt beam="2">  1       -2 0.11586607E+00 0.10642846E+04</pdfrwt>
<totfact> 0.62624512E+00</totfact>
</mgrwt>
</event>
<event>
 4    1  0.2226193E-007  0.1172074E+04  0.7818608E-02  0.9184759E-01
          2   -1    0    0  501    0  0.00000000000E+00  0.00000000000E+00  0.14194512601E+04  0.14194512601E+04  0.25500000000E-02 0. -1.
         -2   -1    0    0    0  501 -0.00000000000E+00 -0.00000000000E+00 -0.17270556258E+04  0.17270556258E+04  0.25500000000E-02 0.  1.
    8880023    1    1    2    0    0  0.33657115371E+02  0.96892384806E+03  0.97977781465E+03  0.15276521191E+04  0.65864270000E+03 0. -1.
    8880022    1    1    2    0    0 -0.33657115371E+02 -0.96892384806E+03 -0.12873821803E+04  0.16188547668E+04  0.15294330000E+03 0.  0.
<mgrwt>
<rscale>  0 0.11212139E+04</rscale>
<asrwt>0</asrwt>
<pdfrwt beam="1">  1        2 0.21837712E+00 0.11720736E+04</pdfrwt>
<pdfrwt beam="2">  1       -2 0.26570087E+00 0.11720736E+04</pdfrwt>
<totfact> 0.70902873E-01</totfact>
</mgrwt>
</event>
<event>
 4    1  0.2051094E-007  0.1021115E+04  0.7818608E-02  0.9354439E-01
         -2   -1    0    0    0  501 -0.00000000000E+00  0.00000000000E+00  0.13327754264E+04  0.13327754264E+04  0.25500000000E-02 0.  1.
          2   -1    0    0  501    0  0.00000000000E+00 -0.00000000000E+00 -0.18829820476E+04  0.18829820476E+04  0.25500000000E-02 0. -1.
    8880023    1    1    2    0    0  0.76867230228E+03 -0.13419863411E+03 -0.16004561892E+04  0.18984563734E+04  0.65864270000E+03 0.  0.
    8880022    1    1    2    0    0 -0.76867230228E+03  0.13419863411E+03  0.10502495680E+04  0.13173011006E+04  0.15294330000E+03 0.  0.
<mgrwt>
<rscale>  0 0.95921929E+03</rscale>
<asrwt>0</asrwt>
<pdfrwt beam="1">  1        2 0.28968954E+00 0.10211154E+04</pdfrwt>
<pdfrwt beam="2">  1       -2 0.20504237E+00 0.10211154E+04</pdfrwt>
<totfact> 0.95131182E-01</totfact>
</mgrwt>
</event>
<event>
 4    1  0.2051094E-007  0.7921699E+03  0.7818608E-02  0.9727989E-01
          2   -1    0    0  501    0  0.00000000000E+00  0.00000000000E+00  0.47558063819E+03  0.47558063819E+03  0.25500000000E-02 0. -1.
         -2   -1    0    0    0  501 -0.00000000000E+00 -0.00000000000E+00 -0.12459586712E+04  0.12459586712E+04  0.25500000000E-02 0.  1.
    8880023    1    1    2    0    0 -0.25798719233E+03  0.35660280617E+03  0.32952514496E+02  0.79285498501E+03  0.65864270000E+03 0.  0.
    8880022    1    1    2    0    0  0.25798719233E+03 -0.35660280617E+03 -0.80333054746E+03  0.92868432434E+03  0.15294330000E+03 0.  0.
<mgrwt>
<rscale>  0 0.69374503E+03</rscale>
<asrwt>0</asrwt>
<pdfrwt beam="1">  1        2 0.73166252E-01 0.79216991E+03</pdfrwt>
<pdfrwt beam="2">  1       -2 0.19168595E+00 0.79216991E+03</pdfrwt>
<totfact> 0.99898399E+00</totfact>
</mgrwt>
</event>
<event>
 4    1  0.2051094E-007  0.1052106E+04  0.7818608E-02  0.9316354E-01
          2   -1    0    0  501    0  0.00000000000E+00  0.00000000000E+00  0.14780805603E+04  0.14780805603E+04  0.25500000000E-02 0. -1.
         -2   -1    0    0    0  501 -0.00000000000E+00 -0.00000000000E+00 -0.13031606545E+04  0.13031606545E+04  0.25500000000E-02 0.  1.
    8880023    1    1    2    0    0 -0.57112043967E+02  0.81844632721E+03  0.11089840846E+04  0.15286504121E+04  0.65864270000E+03 0. -1.
    8880022    1    1    2    0    0  0.57112043967E+02 -0.81844632721E+03 -0.93406417877E+03  0.12525908028E+04  0.15294330000E+03 0.  0.
<mgrwt>
<rscale>  0 0.99291090E+03</rscale>
<asrwt>0</asrwt>
<pdfrwt beam="1">  1        2 0.22739701E+00 0.10521057E+04</pdfrwt>
<pdfrwt beam="2">  1       -2 0.20048625E+00 0.10521057E+04</pdfrwt>
<totfact> 0.17018007E+00</totfact>
</mgrwt>
</event>
<event>
 4    1  0.2051094E-007  0.9968241E+03  0.7818608E-02  0.9385725E-01
          2   -1    0    0  501    0  0.00000000000E+00  0.00000000000E+00  0.14207092028E+04  0.14207092028E+04  0.25500000000E-02 0. -1.
         -2   -1    0    0    0  501 -0.00000000000E+00 -0.00000000000E+00 -0.59435806202E+03  0.59435806202E+03  0.25500000000E-02 0.  1.
    8880023    1    1    2    0    0  0.39881540475E+02 -0.74716628358E+03  0.75019558097E+03  0.12475782976E+04  0.65864270000E+03 0.  0.
    8880022    1    1    2    0    0 -0.39881540475E+02  0.74716628358E+03  0.76155559824E+02  0.76748896728E+03  0.15294330000E+03 0.  0.
<mgrwt>
<rscale>  0 0.93259861E+03</rscale>
<asrwt>0</asrwt>
<pdfrwt beam="1">  1        2 0.21857064E+00 0.99682406E+03</pdfrwt>
<pdfrwt beam="2">  1       -2 0.91439703E-01 0.99682406E+03</pdfrwt>
<totfact> 0.14286983E+01</totfact>
</mgrwt>
</event>
<event>
 4    1  0.2051094E-007  0.1421255E+04  0.7818608E-02  0.8967340E-01
         -2   -1    0    0    0  501 -0.00000000000E+00  0.00000000000E+00  0.56001303053E+03  0.56001303054E+03  0.25500000000E-02 0.  1.
          2   -1    0    0  501    0  0.00000000000E+00 -0.00000000000E+00 -0.42251366195E+04  0.42251366195E+04  0.25500000000E-02 0. -1.
    8880023    1    1    2    0    0  0.50216767230E+03 -0.11549823643E+04 -0.75241204948E+03  0.16081326847E+04  0.65864270000E+03 0.  0.
    8880022    1    1    2    0    0 -0.50216767230E+03  0.11549823643E+04 -0.29127115395E+04  0.31770169654E+04  0.15294330000E+03 0.  0.
<mgrwt>
<rscale>  0 0.13814720E+04</rscale>
<asrwt>0</asrwt>
<pdfrwt beam="1">  1        2 0.65002100E+00 0.14212554E+04</pdfrwt>
<pdfrwt beam="2">  1       -2 0.86155854E-01 0.14212554E+04</pdfrwt>
<totfact> 0.25524038E-01</totfact>
</mgrwt>
</event>
<event>
 4    1  0.2051094E-007  0.1116806E+04  0.7818608E-02  0.9242571E-01
          2   -1    0    0  501    0  0.00000000000E+00  0.00000000000E+00  0.24291966969E+04  0.24291966969E+04  0.25500000000E-02 0. -1.
         -2   -1    0    0    0  501 -0.00000000000E+00 -0.00000000000E+00 -0.57824823754E+03  0.57824823755E+03  0.25500000000E-02 0.  1.
    8880023    1    1    2    0    0  0.13852155934E+02 -0.90180609640E+03  0.22118753088E+03  0.11384991207E+04  0.65864270000E+03 0.  0.
    8880022    1    1    2    0    0 -0.13852155934E+02  0.90180609640E+03  0.16297609285E+04  0.18689458137E+04  0.15294330000E+03 0.  0.
<mgrwt>
<rscale>  0 0.10624624E+04</rscale>
<asrwt>0</asrwt>
<pdfrwt beam="1">  1        2 0.37372257E+00 0.11168063E+04</pdfrwt>
<pdfrwt beam="2">  1       -2 0.88961267E-01 0.11168063E+04</pdfrwt>
<totfact> 0.41250563E+00</totfact>
</mgrwt>
</event>
<event>
 4    1  0.2051094E-007  0.1146390E+04  0.7818608E-02  0.9211083E-01
          2   -1    0    0  501    0  0.00000000000E+00  0.00000000000E+00  0.15069353638E+04  0.15069353638E+04  0.25500000000E-02 0. -1.
         -2   -1    0    0    0  501 -0.00000000000E+00 -0.00000000000E+00 -0.15489733531E+04  0.15489733532E+04  0.25500000000E-02 0.  1.
    8880023    1    1    2    0    0 -0.61173131423E+03  0.71146698173E+03 -0.11309714538E+04  0.16103748329E+04  0.65864270000E+03 0.  1.
    8880022    1    1    2    0    0  0.61173131423E+03 -0.71146698173E+03  0.10889334645E+04  0.14455338841E+04  0.15294330000E+03 0.  0.
<mgrwt>
<rscale>  0 0.10939764E+04</rscale>
<asrwt>0</asrwt>
<pdfrwt beam="1">  1        2 0.23183621E+00 0.11463903E+04</pdfrwt>
<pdfrwt beam="2">  1       -2 0.23830359E+00 0.11463903E+04</pdfrwt>
<totfact> 0.93318164E-01</totfact>
</mgrwt>
</event>
<event>
 4    1  0.2051094E-007  0.7976937E+03  0.7818608E-02  0.9715805E-01
          2   -1    0    0  501    0  0.00000000000E+00  0.00000000000E+00  0.71417480653E+03  0.71417480654E+03  0.25500000000E-02 0. -1.
         -2   -1    0    0    0  501 -0.00000000000E+00 -0.00000000000E+00 -0.22012110569E+04  0.22012110569E+04  0.25500000000E-02 0.  1.
    8880023    1    1    2    0    0  0.36635661266E+03  0.26131939107E+03  0.45343127611E+03  0.91755932790E+03  0.65864270000E+03 0. -1.
    8880022    1    1    2    0    0 -0.36635661266E+03 -0.26131939107E+03 -0.19404675265E+04  0.19978265355E+04  0.15294330000E+03 0.  0.
<mgrwt>
<rscale>  0 0.70083508E+03</rscale>
<asrwt>0</asrwt>
<pdfrwt beam="1">  1        2 0.10987305E+00 0.79769367E+03</pdfrwt>
<pdfrwt beam="2">  1       -2 0.33864785E+00 0.79769367E+03</pdfrwt>
<totfact> 0.76444783E-01</totfact>
</mgrwt>
</event>
<event>
 4    1  0.2051094E-007  0.8744536E+03  0.7818608E-02  0.9568353E-01
          2   -1    0    0  501    0  0.00000000000E+00  0.00000000000E+00  0.25698569495E+04  0.25698569495E+04  0.25500000000E-02 0. -1.
         -2   -1    0    0    0  501 -0.00000000000E+00 -0.00000000000E+00 -0.45725191896E+03  0.45725191897E+03  0.25500000000E-02 0.  1.
    8880023    1    1    2    0    0  0.31068914256E+03 -0.48407763952E+03  0.22519971068E+04  0.24158145790E+04  0.65864270000E+03 0.  0.
    8880022    1    1    2    0    0 -0.31068914256E+03  0.48407763952E+03 -0.13939207634E+03  0.61129428948E+03  0.15294330000E+03 0.  0.
<mgrwt>
<rscale>  0 0.79426678E+03</rscale>
<asrwt>0</asrwt>
<pdfrwt beam="1">  1        2 0.39536261E+00 0.87445361E+03</pdfrwt>
<pdfrwt beam="2">  1       -2 0.70346448E-01 0.87445361E+03</pdfrwt>
<totfact> 0.60061027E+00</totfact>
</mgrwt>
</event>
<event>
 4    1  0.2051094E-007  0.6922505E+03  0.7818608E-02  0.1003101E+00
          2   -1    0    0  501    0  0.00000000000E+00  0.00000000000E+00  0.80731123845E+03  0.80731123845E+03  0.25500000000E-02 0. -1.
         -2   -1    0    0    0  501 -0.00000000000E+00 -0.00000000000E+00 -0.35382052066E+03  0.35382052067E+03  0.25500000000E-02 0.  1.
    8880023    1    1    2    0    0 -0.17023828830E+03 -0.12813869650E+03  0.54741546451E+03  0.88253866623E+03  0.65864270000E+03 0. -1.
    8880022    1    1    2    0    0  0.17023828830E+03  0.12813869650E+03 -0.93924746716E+02  0.27859309289E+03  0.15294330000E+03 0.  0.
<mgrwt>
<rscale>  0 0.54311265E+03</rscale>
<asrwt>0</asrwt>
<pdfrwt beam="1">  1        2 0.12420173E+00 0.69225054E+03</pdfrwt>
<pdfrwt beam="2">  1       -2 0.54433927E-01 0.69225054E+03</pdfrwt>
<totfact> 0.10982956E+02</totfact>
</mgrwt>
</event>
<event>
 4    1  0.2051094E-007  0.1327444E+04  0.7818608E-02  0.9042216E-01
         -2   -1    0    0    0  501 -0.00000000000E+00  0.00000000000E+00  0.12475072717E+04  0.12475072717E+04  0.25500000000E-02 0.  1.
          2   -1    0    0  501    0  0.00000000000E+00 -0.00000000000E+00 -0.19595062470E+04  0.19595062470E+04  0.25500000000E-02 0. -1.
    8880023    1    1    2    0    0  0.71467654061E+03 -0.90417590781E+03 -0.13395228157E+04  0.18858494664E+04  0.65864270000E+03 0.  0.
    8880022    1    1    2    0    0 -0.71467654061E+03  0.90417590781E+03  0.62752384040E+03  0.13211640524E+04  0.15294330000E+03 0.  0.
<mgrwt>
<rscale>  0 0.12841674E+04</rscale>
<asrwt>0</asrwt>
<pdfrwt beam="1">  1        2 0.30146250E+00 0.13274437E+04</pdfrwt>
<pdfrwt beam="2">  1       -2 0.19192420E+00 0.13274437E+04</pdfrwt>
<totfact> 0.10132675E+00</totfact>
</mgrwt>
</event>
<event>
 4    1  0.2051094E-007  0.8223856E+03  0.7818608E-02  0.9664333E-01
          2   -1    0    0  501    0  0.00000000000E+00  0.00000000000E+00  0.95553496375E+03  0.95553496375E+03  0.25500000000E-02 0. -1.
         -2   -1    0    0    0  501 -0.00000000000E+00 -0.00000000000E+00 -0.11407843979E+04  0.11407843980E+04  0.25500000000E-02 0.  1.
    8880023    1    1    2    0    0  0.44121435927E+03  0.21871825954E+03  0.69461909484E+03  0.10764820858E+04  0.65864270000E+03 0. -1.
    8880022    1    1    2    0    0 -0.44121435927E+03 -0.21871825954E+03 -0.87986852904E+03  0.10198372759E+04  0.15294330000E+03 0.  0.
<mgrwt>
<rscale>  0 0.73180653E+03</rscale>
<asrwt>0</asrwt>
<pdfrwt beam="1">  1        2 0.14700538E+00 0.82238555E+03</pdfrwt>
<pdfrwt beam="2">  1       -2 0.17550529E+00 0.82238555E+03</pdfrwt>
<totfact> 0.53038918E+00</totfact>
</mgrwt>
</event>
<event>
 4    1  0.2051094E-007  0.1089417E+04  0.7818608E-02  0.9272931E-01
          2   -1    0    0  501    0  0.00000000000E+00  0.00000000000E+00  0.26534672337E+04  0.26534672337E+04  0.25500000000E-02 0. -1.
         -2   -1    0    0    0  501 -0.00000000000E+00 -0.00000000000E+00 -0.61325181055E+03  0.61325181055E+03  0.25500000000E-02 0.  1.
    8880023    1    1    2    0    0 -0.41765811410E+03  0.76064519139E+03  0.50454360013E+02  0.10905848230E+04  0.65864270000E+03 0.  0.
    8880022    1    1    2    0    0  0.41765811410E+03 -0.76064519139E+03  0.19897610631E+04  0.21761342212E+04  0.15294330000E+03 0.  0.
<mgrwt>
<rscale>  0 0.10331351E+04</rscale>
<asrwt>0</asrwt>
<pdfrwt beam="1">  1        2 0.40822573E+00 0.10894171E+04</pdfrwt>
<pdfrwt beam="2">  1       -2 0.94346432E-01 0.10894171E+04</pdfrwt>
<totfact> 0.26799259E+00</totfact>
</mgrwt>
</event>
<event>
 4    1  0.2051094E-007  0.8245175E+03  0.7818608E-02  0.9660095E-01
         -2   -1    0    0    0  501 -0.00000000000E+00  0.00000000000E+00  0.63122188296E+03  0.63122188296E+03  0.25500000000E-02 0.  1.
          2   -1    0    0  501    0  0.00000000000E+00 -0.00000000000E+00 -0.22412197963E+04  0.22412197963E+04  0.25500000000E-02 0. -1.
    8880023    1    1    2    0    0 -0.48960540257E+03 -0.79406387971E+02 -0.20387791876E+04  0.21991929444E+04  0.65864270000E+03 0.  0.
    8880022    1    1    2    0    0  0.48960540257E+03  0.79406387971E+02  0.42878127432E+03  0.67324873479E+03  0.15294330000E+03 0.  0.
<mgrwt>
<rscale>  0 0.73443218E+03</rscale>
<asrwt>0</asrwt>
<pdfrwt beam="1">  1        2 0.34480304E+00 0.82451745E+03</pdfrwt>
<pdfrwt beam="2">  1       -2 0.97111060E-01 0.82451745E+03</pdfrwt>
<totfact> 0.44612618E+00</totfact>
</mgrwt>
</event>
<event>
 4    1  0.2051094E-007  0.7596979E+03  0.7818608E-02  0.9805890E-01
         -2   -1    0    0    0  501 -0.00000000000E+00  0.00000000000E+00  0.46480755544E+03  0.46480755545E+03  0.25500000000E-02 0.  1.
          2   -1    0    0  501    0  0.00000000000E+00 -0.00000000000E+00 -0.84044050787E+03  0.84044050787E+03  0.25500000000E-02 0. -1.
    8880023    1    1    2    0    0  0.16128070276E+03  0.34251892844E+03 -0.46027168125E+03  0.88825160188E+03  0.65864270000E+03 0. -1.
    8880022    1    1    2    0    0 -0.16128070276E+03 -0.34251892844E+03  0.84638728829E+02  0.41699646144E+03  0.15294330000E+03 0.  0.
<mgrwt>
<rscale>  0 0.65047396E+03</rscale>
<asrwt>0</asrwt>
<pdfrwt beam="1">  1        2 0.12929854E+00 0.75969789E+03</pdfrwt>
<pdfrwt beam="2">  1       -2 0.71508855E-01 0.75969789E+03</pdfrwt>
<totfact> 0.57925924E+01</totfact>
</mgrwt>
</event>
<event>
 4    1  0.2051094E-007  0.1444071E+04  0.7818608E-02  0.8950173E-01
         -2   -1    0    0    0  501 -0.00000000000E+00  0.00000000000E+00  0.78710912741E+03  0.78710912741E+03  0.25500000000E-02 0.  1.
          2   -1    0    0  501    0  0.00000000000E+00 -0.00000000000E+00 -0.31905971340E+04  0.31905971340E+04  0.25500000000E-02 0. -1.
    8880023    1    1    2    0    0  0.85982082560E+03  0.95511242879E+03 -0.22512470572E+04  0.26745943846E+04  0.65864270000E+03 0.  0.
    8880022    1    1    2    0    0 -0.85982082560E+03 -0.95511242879E+03 -0.15224094947E+03  0.13031118768E+04  0.15294330000E+03 0.  0.
<mgrwt>
<rscale>  0 0.14050469E+04</rscale>
<asrwt>0</asrwt>
<pdfrwt beam="1">  1        2 0.49086109E+00 0.14440713E+04</pdfrwt>
<pdfrwt beam="2">  1       -2 0.12109371E+00 0.14440713E+04</pdfrwt>
<totfact> 0.65574905E-01</totfact>
</mgrwt>
</event>
<event>
 4    1  0.2051094E-007  0.8378891E+03  0.7818608E-02  0.9634173E-01
          2   -1    0    0  501    0  0.00000000000E+00  0.00000000000E+00  0.23197543925E+04  0.23197543925E+04  0.25500000000E-02 0. -1.
         -2   -1    0    0    0  501 -0.00000000000E+00 -0.00000000000E+00 -0.78510748994E+03  0.78510748994E+03  0.25500000000E-02 0.  1.
    8880023    1    1    2    0    0  0.50943983533E+03  0.93375800194E+02  0.21372845243E+04  0.22956574941E+04  0.65864270000E+03 0. -1.
    8880022    1    1    2    0    0 -0.50943983533E+03 -0.93375800194E+02 -0.60263762180E+03  0.80920438834E+03  0.15294330000E+03 0.  0.
<mgrwt>
<rscale>  0 0.75075068E+03</rscale>
<asrwt>0</asrwt>
<pdfrwt beam="1">  1        2 0.35688529E+00 0.83788913E+03</pdfrwt>
<pdfrwt beam="2">  1       -2 0.12078577E+00 0.83788913E+03</pdfrwt>
<totfact> 0.23751499E+00</totfact>
</mgrwt>
</event>
<event>
 4    1  0.2051094E-007  0.9055110E+03  0.7818608E-02  0.9517242E-01
          2   -1    0    0  501    0  0.00000000000E+00  0.00000000000E+00  0.16604891270E+04  0.16604891270E+04  0.25500000000E-02 0. -1.
         -2   -1    0    0    0  501 -0.00000000000E+00 -0.00000000000E+00 -0.64632053816E+03  0.64632053817E+03  0.25500000000E-02 0.  1.
    8880023    1    1    2    0    0  0.13179732496E+03 -0.60726388361E+03  0.13174523696E+04  0.15986340768E+04  0.65864270000E+03 0.  0.
    8880022    1    1    2    0    0 -0.13179732496E+03  0.60726388361E+03 -0.30328378076E+03  0.70817558832E+03  0.15294330000E+03 0.  0.
<mgrwt>
<rscale>  0 0.83024492E+03</rscale>
<asrwt>0</asrwt>
<pdfrwt beam="1">  1        2 0.25545986E+00 0.90551100E+03</pdfrwt>
<pdfrwt beam="2">  1       -2 0.99433931E-01 0.90551100E+03</pdfrwt>
<totfact> 0.87007679E+00</totfact>
</mgrwt>
</event>
<event>
 4    1  0.2051094E-007  0.1135915E+04  0.7818608E-02  0.9222085E-01
          2   -1    0    0  501    0  0.00000000000E+00  0.00000000000E+00  0.15554300389E+04  0.15554300389E+04  0.25500000000E-02 0. -1.
         -2   -1    0    0    0  501 -0.00000000000E+00 -0.00000000000E+00 -0.11431528805E+04  0.11431528805E+04  0.25500000000E-02 0.  1.
    8880023    1    1    2    0    0  0.36244912032E+03  0.85154150375E+03  0.10639798728E+04  0.15563918766E+04  0.65864270000E+03 0.  0.
    8880022    1    1    2    0    0 -0.36244912032E+03 -0.85154150375E+03 -0.65170271440E+03  0.11421910429E+04  0.15294330000E+03 0.  0.
<mgrwt>
<rscale>  0 0.10828355E+04</rscale>
<asrwt>0</asrwt>
<pdfrwt beam="1">  1        2 0.23929693E+00 0.11359148E+04</pdfrwt>
<pdfrwt beam="2">  1       -2 0.17586967E+00 0.11359148E+04</pdfrwt>
<totfact> 0.22365024E+00</totfact>
</mgrwt>
</event>
<event>
 4    1  0.2051094E-007  0.2622540E+04  0.7818608E-02  0.8367370E-01
          2   -1    0    0  501    0  0.00000000000E+00  0.00000000000E+00  0.25704998297E+04  0.25704998297E+04  0.25500000000E-02 0. -1.
         -2   -1    0    0    0  501 -0.00000000000E+00 -0.00000000000E+00 -0.43971390777E+04  0.43971390777E+04  0.25500000000E-02 0.  1.
    8880023    1    1    2    0    0 -0.13931355307E+04 -0.21220459901E+04  0.13084250756E+04  0.29308176633E+04  0.65864270000E+03 0.  0.
    8880022    1    1    2    0    0  0.13931355307E+04  0.21220459901E+04 -0.31350643236E+04  0.40368212441E+04  0.15294330000E+03 0.  0.
<mgrwt>
<rscale>  0 0.26024473E+04</rscale>
<asrwt>0</asrwt>
<pdfrwt beam="1">  1        2 0.39546151E+00 0.26225400E+04</pdfrwt>
<pdfrwt beam="2">  1       -2 0.67648293E+00 0.26225400E+04</pdfrwt>
<totfact> 0.69888120E-04</totfact>
</mgrwt>
</event>
<event>
 4    1  0.2051094E-007  0.9398376E+03  0.7818608E-02  0.9464889E-01
          2   -1    0    0  501    0  0.00000000000E+00  0.00000000000E+00  0.14139548972E+04  0.14139548972E+04  0.25500000000E-02 0. -1.
         -2   -1    0    0    0  501 -0.00000000000E+00 -0.00000000000E+00 -0.92624318670E+03  0.92624318670E+03  0.25500000000E-02 0.  1.
    8880023    1    1    2    0    0  0.58851392844E+03 -0.32114780202E+03  0.10806775455E+04  0.14321866912E+04  0.65864270000E+03 0. -1.
    8880022    1    1    2    0    0 -0.58851392844E+03  0.32114780202E+03 -0.59296583506E+03  0.90801139270E+03  0.15294330000E+03 0.  0.
<mgrwt>
<rscale>  0 0.86922669E+03</rscale>
<asrwt>0</asrwt>
<pdfrwt beam="1">  1        2 0.21753152E+00 0.93983762E+03</pdfrwt>
<pdfrwt beam="2">  1       -2 0.14249895E+00 0.93983762E+03</pdfrwt>
<totfact> 0.48686223E+00</totfact>
</mgrwt>
</event>
<event>
 4    1  0.2051094E-007  0.6655150E+03  0.7818608E-02  0.1019105E+00
         -2   -1    0    0    0  501 -0.00000000000E+00  0.00000000000E+00  0.16657295473E+03  0.16657295475E+03  0.25500000000E-02 0.  1.
          2   -1    0    0  501    0  0.00000000000E+00 -0.00000000000E+00 -0.17779514906E+04  0.17779514906E+04  0.25500000000E-02 0. -1.
    8880023    1    1    2    0    0  0.28102612747E+02 -0.91160374286E+02 -0.16325904651E+04  0.17630263197E+04  0.65864270000E+03 0. -1.
    8880022    1    1    2    0    0 -0.28102612747E+02  0.91160374286E+02  0.21211929237E+02  0.18149812572E+03  0.15294330000E+03 0.  0.
<mgrwt>
<rscale>  0 0.48010895E+03</rscale>
<asrwt>0</asrwt>
<pdfrwt beam="1">  1        2 0.27353099E+00 0.66551497E+03</pdfrwt>
<pdfrwt beam="2">  1       -2 0.25626610E-01 0.66551497E+03</pdfrwt>
<totfact> 0.12525650E+02</totfact>
</mgrwt>
</event>
<event>
 4    1  0.2051094E-007  0.1171869E+04  0.7818608E-02  0.9184965E-01
          2   -1    0    0  501    0  0.00000000000E+00  0.00000000000E+00  0.16513763337E+04  0.16513763337E+04  0.25500000000E-02 0. -1.
         -2   -1    0    0    0  501 -0.00000000000E+00 -0.00000000000E+00 -0.91488665527E+03  0.91488665528E+03  0.25500000000E-02 0.  1.
    8880023    1    1    2    0    0 -0.31753602359E+03 -0.91577100080E+03  0.10105972745E+04  0.15474439278E+04  0.65864270000E+03 0.  0.
    8880022    1    1    2    0    0  0.31753602359E+03  0.91577100080E+03 -0.27410759607E+03  0.10188190612E+04  0.15294330000E+03 0.  0.
<mgrwt>
<rscale>  0 0.11209969E+04</rscale>
<asrwt>0</asrwt>
<pdfrwt beam="1">  1        2 0.25405789E+00 0.11718685E+04</pdfrwt>
<pdfrwt beam="2">  1       -2 0.14075179E+00 0.11718685E+04</pdfrwt>
<totfact> 0.36069190E+00</totfact>
</mgrwt>
</event>
<event>
 4    1  0.2051094E-007  0.1356733E+04  0.7818608E-02  0.9018053E-01
          2   -1    0    0  501    0  0.00000000000E+00  0.00000000000E+00  0.36888841263E+04  0.36888841263E+04  0.25500000000E-02 0. -1.
         -2   -1    0    0    0  501 -0.00000000000E+00 -0.00000000000E+00 -0.77092672293E+03  0.77092672293E+03  0.25500000000E-02 0.  1.
    8880023    1    1    2    0    0 -0.65254584499E+03 -0.99050383498E+03  0.55850254849E+02  0.13578819478E+04  0.65864270000E+03 0.  0.
    8880022    1    1    2    0    0  0.65254584499E+03  0.99050383498E+03  0.28621071485E+04  0.31019289014E+04  0.15294330000E+03 0.  0.
<mgrwt>
<rscale>  0 0.13146174E+04</rscale>
<asrwt>0</asrwt>
<pdfrwt beam="1">  1        2 0.56752063E+00 0.13567329E+04</pdfrwt>
<pdfrwt beam="2">  1       -2 0.11860411E+00 0.13567329E+04</pdfrwt>
<totfact> 0.31848508E-01</totfact>
</mgrwt>
</event>
<event>
 4    1  0.2051094E-007  0.1240010E+04  0.7818608E-02  0.9119178E-01
         -2   -1    0    0    0  501 -0.00000000000E+00  0.00000000000E+00  0.19054466516E+04  0.19054466516E+04  0.25500000000E-02 0.  1.
          2   -1    0    0  501    0  0.00000000000E+00 -0.00000000000E+00 -0.11156178680E+04  0.11156178680E+04  0.25500000000E-02 0. -1.
    8880023    1    1    2    0    0  0.57026465302E+03 -0.88239082102E+03 -0.51168787819E+03  0.13414358078E+04  0.65864270000E+03 0. -1.
    8880022    1    1    2    0    0 -0.57026465302E+03  0.88239082102E+03  0.13015166618E+04  0.16796287118E+04  0.15294330000E+03 0.  0.
<mgrwt>
<rscale>  0 0.11928049E+04</rscale>
<asrwt>0</asrwt>
<pdfrwt beam="1">  1        2 0.17163352E+00 0.12400103E+04</pdfrwt>
<pdfrwt beam="2">  1       -2 0.29314563E+00 0.12400103E+04</pdfrwt>
<totfact> 0.72497016E-01</totfact>
</mgrwt>
</event>
<event>
 4    1  0.2051094E-007  0.7490527E+03  0.7818608E-02  0.9834321E-01
          2   -1    0    0  501    0  0.00000000000E+00  0.00000000000E+00  0.19883294573E+04  0.19883294573E+04  0.25500000000E-02 0. -1.
         -2   -1    0    0    0  501 -0.00000000000E+00 -0.00000000000E+00 -0.16951824665E+04  0.16951824665E+04  0.25500000000E-02 0.  1.
    8880023    1    1    2    0    0 -0.38070039988E+02  0.35471169869E+03  0.18937543427E+04  0.20365130576E+04  0.65864270000E+03 0. -1.
    8880022    1    1    2    0    0  0.38070039988E+02 -0.35471169869E+03 -0.16006073519E+04  0.16469988662E+04  0.15294330000E+03 0.  0.
<mgrwt>
<rscale>  0 0.63552774E+03</rscale>
<asrwt>0</asrwt>
<pdfrwt beam="1">  1        2 0.30589684E+00 0.74905268E+03</pdfrwt>
<pdfrwt beam="2">  1       -2 0.26079730E+00 0.74905268E+03</pdfrwt>
<totfact> 0.39524480E-01</totfact>
</mgrwt>
</event>
<event>
 4    1  0.2051094E-007  0.1374033E+04  0.7818608E-02  0.9004127E-01
         -2   -1    0    0    0  501 -0.00000000000E+00  0.00000000000E+00  0.11256887888E+04  0.11256887888E+04  0.25500000000E-02 0.  1.
          2   -1    0    0  501    0  0.00000000000E+00 -0.00000000000E+00 -0.18530418647E+04  0.18530418647E+04  0.25500000000E-02 0. -1.
    8880023    1    1    2    0    0 -0.11870408597E+04  0.21234408544E+03 -0.10404453791E+04  0.17235117657E+04  0.65864270000E+03 0.  0.
    8880022    1    1    2    0    0  0.11870408597E+04 -0.21234408544E+03  0.31309230317E+03  0.12552188879E+04  0.15294330000E+03 0.  0.
<mgrwt>
<rscale>  0 0.13325715E+04</rscale>
<asrwt>0</asrwt>
<pdfrwt beam="1">  1        2 0.28508337E+00 0.13740328E+04</pdfrwt>
<pdfrwt beam="2">  1       -2 0.17318289E+00 0.13740328E+04</pdfrwt>
<totfact> 0.15557826E+00</totfact>
</mgrwt>
</event>
<event>
 4    1  0.2051094E-007  0.9444175E+03  0.7818608E-02  0.9458192E-01
         -2   -1    0    0    0  501 -0.00000000000E+00  0.00000000000E+00  0.11378673828E+04  0.11378673828E+04  0.25500000000E-02 0.  1.
          2   -1    0    0  501    0  0.00000000000E+00 -0.00000000000E+00 -0.14649207133E+04  0.14649207133E+04  0.25500000000E-02 0. -1.
    8880023    1    1    2    0    0  0.44204250698E+01  0.67682689836E+03 -0.11747477611E+04  0.15073011308E+04  0.65864270000E+03 0.  0.
    8880022    1    1    2    0    0 -0.44204250698E+01 -0.67682689836E+03  0.84769443057E+03  0.10954869653E+04  0.15294330000E+03 0.  0.
<mgrwt>
<rscale>  0 0.87437597E+03</rscale>
<asrwt>0</asrwt>
<pdfrwt beam="1">  1        2 0.22537242E+00 0.94441749E+03</pdfrwt>
<pdfrwt beam="2">  1       -2 0.17505652E+00 0.94441749E+03</pdfrwt>
<totfact> 0.26069640E+00</totfact>
</mgrwt>
</event>
<event>
 4    1  0.2051094E-007  0.1064844E+04  0.7818608E-02  0.9301246E-01
         -2   -1    0    0    0  501 -0.00000000000E+00  0.00000000000E+00  0.17928983825E+04  0.17928983825E+04  0.25500000000E-02 0.  1.
          2   -1    0    0  501    0  0.00000000000E+00 -0.00000000000E+00 -0.74064268206E+03  0.74064268207E+03  0.25500000000E-02 0. -1.
    8880023    1    1    2    0    0  0.43555863292E+03 -0.71440318800E+03 -0.13465522192E+03  0.10733244956E+04  0.65864270000E+03 0. -1.
    8880022    1    1    2    0    0 -0.43555863292E+03  0.71440318800E+03  0.11869109224E+04  0.14602165690E+04  0.15294330000E+03 0.  0.
<mgrwt>
<rscale>  0 0.10066825E+04</rscale>
<asrwt>0</asrwt>
<pdfrwt beam="1">  1        2 0.11394503E+00 0.10648443E+04</pdfrwt>
<pdfrwt beam="2">  1       -2 0.27583052E+00 0.10648443E+04</pdfrwt>
<totfact> 0.16911758E+00</totfact>
</mgrwt>
</event>
<event>
 4    1  0.2051094E-007  0.1597742E+04  0.7818608E-02  0.8843533E-01
         -2   -1    0    0    0  501 -0.00000000000E+00  0.00000000000E+00  0.14702480213E+04  0.14702480213E+04  0.25500000000E-02 0.  1.
          2   -1    0    0  501    0  0.00000000000E+00 -0.00000000000E+00 -0.24552978489E+04  0.24552978489E+04  0.25500000000E-02 0. -1.
    8880023    1    1    2    0    0 -0.13896570885E+04 -0.43338334361E+03 -0.16685340028E+04  0.23101480192E+04  0.65864270000E+03 0. -1.
    8880022    1    1    2    0    0  0.13896570885E+04  0.43338334361E+03  0.68348417521E+03  0.16153978509E+04  0.15294330000E+03 0.  0.
<mgrwt>
<rscale>  0 0.15631169E+04</rscale>
<asrwt>0</asrwt>
<pdfrwt beam="1">  1        2 0.37773813E+00 0.15977416E+04</pdfrwt>
<pdfrwt beam="2">  1       -2 0.22619200E+00 0.15977416E+04</pdfrwt>
<totfact> 0.30971796E-01</totfact>
</mgrwt>
</event>
<event>
 4    1  0.2051094E-007  0.6690379E+03  0.7818608E-02  0.1016362E+00
          2   -1    0    0  501    0  0.00000000000E+00  0.00000000000E+00  0.10145194280E+04  0.10145194280E+04  0.25500000000E-02 0. -1.
         -2   -1    0    0    0  501 -0.00000000000E+00 -0.00000000000E+00 -0.56396682994E+03  0.56396682995E+03  0.25500000000E-02 0.  1.
    8880023    1    1    2    0    0  0.10485263644E+03  0.52985318889E+02  0.88133219878E+03  0.11065071940E+04  0.65864270000E+03 0. -1.
    8880022    1    1    2    0    0 -0.10485263644E+03 -0.52985318889E+02 -0.43077960075E+03  0.47197906397E+03  0.15294330000E+03 0.  0.
<mgrwt>
<rscale>  0 0.49022556E+03</rscale>
<asrwt>0</asrwt>
<pdfrwt beam="1">  1        2 0.15607991E+00 0.66903791E+03</pdfrwt>
<pdfrwt beam="2">  1       -2 0.86764128E-01 0.66903791E+03</pdfrwt>
<totfact> 0.29050242E+01</totfact>
</mgrwt>
</event>
<event>
 4    1  0.2051094E-007  0.1262813E+04  0.7818608E-02  0.9098358E-01
         -2   -1    0    0    0  501 -0.00000000000E+00  0.00000000000E+00  0.42161851107E+04  0.42161851107E+04  0.25500000000E-02 0.  1.
          2   -1    0    0  501    0  0.00000000000E+00 -0.00000000000E+00 -0.95674602875E+03  0.95674602875E+03  0.25500000000E-02 0. -1.
    8880023    1    1    2    0    0  0.45177850125E+03 -0.97815212796E+03 -0.42400382561E+03  0.13320941596E+04  0.65864270000E+03 0.  0.
    8880022    1    1    2    0    0 -0.45177850125E+03  0.97815212796E+03  0.36834429076E+04  0.38408369799E+04  0.15294330000E+03 0.  0.
<mgrwt>
<rscale>  0 0.12167065E+04</rscale>
<asrwt>0</asrwt>
<pdfrwt beam="1">  1        2 0.14719170E+00 0.12628126E+04</pdfrwt>
<pdfrwt beam="2">  1       -2 0.64864386E+00 0.12628126E+04</pdfrwt>
<totfact> 0.86470104E-03</totfact>
</mgrwt>
</event>
<event>
 4    1  0.2051094E-007  0.1202450E+04  0.7818608E-02  0.9154744E-01
         -2   -1    0    0    0  501 -0.00000000000E+00  0.00000000000E+00  0.11944104919E+04  0.11944104919E+04  0.25500000000E-02 0.  1.
          2   -1    0    0  501    0  0.00000000000E+00 -0.00000000000E+00 -0.13497920560E+04  0.13497920560E+04  0.25500000000E-02 0. -1.
    8880023    1    1    2    0    0  0.95181394085E+03  0.32577046385E+03 -0.69864989365E+03  0.13906825854E+04  0.65864270000E+03 0.  1.
    8880022    1    1    2    0    0 -0.95181394085E+03 -0.32577046385E+03  0.54326832957E+03  0.11535199626E+04  0.15294330000E+03 0.  0.
<mgrwt>
<rscale>  0 0.11533003E+04</rscale>
<asrwt>0</asrwt>
<pdfrwt beam="1">  1        2 0.20766032E+00 0.12024502E+04</pdfrwt>
<pdfrwt beam="2">  1       -2 0.18375546E+00 0.12024502E+04</pdfrwt>
<totfact> 0.25642943E+00</totfact>
</mgrwt>
</event>
<event>
 4    1  0.2051094E-007  0.7003670E+03  0.7818608E-02  0.9995682E-01
         -2   -1    0    0    0  501 -0.00000000000E+00  0.00000000000E+00  0.57225985133E+03  0.57225985133E+03  0.25500000000E-02 0.  1.
          2   -1    0    0  501    0  0.00000000000E+00 -0.00000000000E+00 -0.86361444770E+03  0.86361444771E+03  0.25500000000E-02 0. -1.
    8880023    1    1    2    0    0  0.41986958362E+02 -0.23439473086E+03 -0.66591618580E+03  0.96641521475E+03  0.65864270000E+03 0. -1.
    8880022    1    1    2    0    0 -0.41986958362E+02  0.23439473086E+03  0.37456158943E+03  0.46945908428E+03  0.15294330000E+03 0.  1.
<mgrwt>
<rscale>  0 0.55839980E+03</rscale>
<asrwt>0</asrwt>
<pdfrwt beam="1">  1        2 0.13286376E+00 0.70036705E+03</pdfrwt>
<pdfrwt beam="2">  1       -2 0.88039977E-01 0.70036705E+03</pdfrwt>
<totfact> 0.35188688E+01</totfact>
</mgrwt>
</event>
<event>
 4    1  0.2051094E-007  0.8810913E+03  0.7818608E-02  0.9557094E-01
         -2   -1    0    0    0  501 -0.00000000000E+00  0.00000000000E+00  0.16256040373E+04  0.16256040373E+04  0.25500000000E-02 0.  1.
          2   -1    0    0  501    0  0.00000000000E+00 -0.00000000000E+00 -0.64644277449E+03  0.64644277450E+03  0.25500000000E-02 0. -1.
    8880023    1    1    2    0    0  0.41941642071E+03  0.40816856747E+03 -0.23816583008E+03  0.91271292437E+03  0.65864270000E+03 0.  0.
    8880022    1    1    2    0    0 -0.41941642071E+03 -0.40816856747E+03  0.12173270929E+04  0.13593338874E+04  0.15294330000E+03 0.  0.
<mgrwt>
<rscale>  0 0.80202239E+03</rscale>
<asrwt>0</asrwt>
<pdfrwt beam="1">  1        2 0.99452735E-01 0.88109132E+03</pdfrwt>
<pdfrwt beam="2">  1       -2 0.25009293E+00 0.88109132E+03</pdfrwt>
<totfact> 0.29411979E+00</totfact>
</mgrwt>
</event>
<event>
 4    1  0.2051094E-007  0.1539273E+04  0.7818608E-02  0.8882391E-01
         -2   -1    0    0    0  501 -0.00000000000E+00  0.00000000000E+00  0.69549143984E+03  0.69549143984E+03  0.25500000000E-02 0.  1.
          2   -1    0    0  501    0  0.00000000000E+00 -0.00000000000E+00 -0.31799749755E+04  0.31799749755E+04  0.25500000000E-02 0. -1.
    8880023    1    1    2    0    0 -0.11144592630E+04 -0.83278489854E+03 -0.15977231082E+04  0.22185760011E+04  0.65864270000E+03 0.  0.
    8880022    1    1    2    0    0  0.11144592630E+04  0.83278489854E+03 -0.88676042750E+03  0.16568904142E+04  0.15294330000E+03 0.  0.
<mgrwt>
<rscale>  0 0.15031051E+04</rscale>
<asrwt>0</asrwt>
<pdfrwt beam="1">  1        2 0.48922691E+00 0.15392727E+04</pdfrwt>
<pdfrwt beam="2">  1       -2 0.10699868E+00 0.15392727E+04</pdfrwt>
<totfact> 0.89434781E-01</totfact>
</mgrwt>
</event>
<event>
 4    1  0.3195915E-007  0.1049334E+04  0.7818608E-02  0.9319682E-01
         -2   -1    0    0    0  501 -0.00000000000E+00  0.00000000000E+00  0.16396105369E+04  0.16396105369E+04  0.25500000000E-02 0.  1.
          2   -1    0    0  501    0  0.00000000000E+00 -0.00000000000E+00 -0.13009898104E+04  0.13009898104E+04  0.25500000000E-02 0. -1.
    8880023    1    1    2    0    0 -0.81577890825E+03 -0.42383398416E+02 -0.94453153700E+03  0.14118220887E+04  0.65864270000E+03 0.  0.
    8880022    1    1    2    0    0  0.81577890825E+03  0.42383398416E+02  0.12831522635E+04  0.15287782586E+04  0.15294330000E+03 0.  0.
<mgrwt>
<rscale>  0 0.98990875E+03</rscale>
<asrwt>0</asrwt>
<pdfrwt beam="1">  1        2 0.20015228E+00 0.10493340E+04</pdfrwt>
<pdfrwt beam="2">  1       -2 0.25224778E+00 0.10493340E+04</pdfrwt>
<totfact> 0.10181202E+00</totfact>
</mgrwt>
</event>
<event>
 4    1  0.2051094E-007  0.7801081E+03  0.7818608E-02  0.9755583E-01
          2   -1    0    0  501    0  0.00000000000E+00  0.00000000000E+00  0.19302118825E+04  0.19302118825E+04  0.25500000000E-02 0. -1.
         -2   -1    0    0    0  501 -0.00000000000E+00 -0.00000000000E+00 -0.54301468420E+03  0.54301468421E+03  0.25500000000E-02 0.  1.
    8880023    1    1    2    0    0  0.25575710231E+03 -0.33067628115E+03  0.17389276226E+04  0.19058955851E+04  0.65864270000E+03 0.  0.
    8880022    1    1    2    0    0 -0.25575710231E+03  0.33067628115E+03 -0.35173042432E+03  0.56733098162E+03  0.15294330000E+03 0.  0.
<mgrwt>
<rscale>  0 0.67801672E+03</rscale>
<asrwt>0</asrwt>
<pdfrwt beam="1">  1        2 0.29695567E+00 0.78010814E+03</pdfrwt>
<pdfrwt beam="2">  1       -2 0.83540722E-01 0.78010814E+03</pdfrwt>
<totfact> 0.94240014E+00</totfact>
</mgrwt>
</event>
<event>
 4    1  0.2051094E-007  0.1132501E+04  0.7818608E-02  0.9225705E-01
         -2   -1    0    0    0  501 -0.00000000000E+00  0.00000000000E+00  0.21159778013E+04  0.21159778013E+04  0.25500000000E-02 0.  1.
          2   -1    0    0  501    0  0.00000000000E+00 -0.00000000000E+00 -0.13901810874E+04  0.13901810874E+04  0.25500000000E-02 0. -1.
    8880023    1    1    2    0    0  0.13789525560E+03 -0.91089673600E+03 -0.10213847550E+04  0.15250524545E+04  0.65864270000E+03 0.  0.
    8880022    1    1    2    0    0 -0.13789525560E+03  0.91089673600E+03  0.17471814689E+04  0.19811064342E+04  0.15294330000E+03 0.  0.
<mgrwt>
<rscale>  0 0.10792005E+04</rscale>
<asrwt>0</asrwt>
<pdfrwt beam="1">  1        2 0.21387401E+00 0.11325008E+04</pdfrwt>
<pdfrwt beam="2">  1       -2 0.32553504E+00 0.11325008E+04</pdfrwt>
<totfact> 0.32039142E-01</totfact>
</mgrwt>
</event>
<event>
 4    1  0.2051094E-007  0.1653866E+04  0.7818608E-02  0.8807994E-01
         -2   -1    0    0    0  501 -0.00000000000E+00  0.00000000000E+00  0.16918678117E+04  0.16918678117E+04  0.25500000000E-02 0.  1.
          2   -1    0    0  501    0  0.00000000000E+00 -0.00000000000E+00 -0.15473482555E+04  0.15473482555E+04  0.25500000000E-02 0. -1.
    8880023    1    1    2    0    0 -0.32577502471E+03 -0.14816659815E+04 -0.22830386405E+03  0.16695497322E+04  0.65864270000E+03 0.  0.
    8880022    1    1    2    0    0  0.32577502471E+03  0.14816659815E+04  0.37282342031E+03  0.15696663350E+04  0.15294330000E+03 0.  0.
<mgrwt>
<rscale>  0 0.16205961E+04</rscale>
<asrwt>0</asrwt>
<pdfrwt beam="1">  1        2 0.23805358E+00 0.16538663E+04</pdfrwt>
<pdfrwt beam="2">  1       -2 0.26028735E+00 0.16538663E+04</pdfrwt>
<totfact> 0.61446843E-01</totfact>
</mgrwt>
</event>
<event>
 4    1  0.2051094E-007  0.1890233E+04  0.7818608E-02  0.8674199E-01
         -2   -1    0    0    0  501 -0.00000000000E+00  0.00000000000E+00  0.18048158407E+04  0.18048158407E+04  0.25500000000E-02 0.  1.
          2   -1    0    0  501    0  0.00000000000E+00 -0.00000000000E+00 -0.25179151098E+04  0.25179151098E+04  0.25500000000E-02 0. -1.
    8880023    1    1    2    0    0 -0.17680185678E+04  0.11524085424E+03  0.73626272045E+03  0.20285618330E+04  0.65864270000E+03 0.  0.
    8880022    1    1    2    0    0  0.17680185678E+04 -0.11524085424E+03 -0.14493619895E+04  0.22941691176E+04  0.15294330000E+03 0.  0.
<mgrwt>
<rscale>  0 0.18616214E+04</rscale>
<asrwt>0</asrwt>
<pdfrwt beam="1">  1        2 0.38737156E+00 0.18902329E+04</pdfrwt>
<pdfrwt beam="2">  1       -2 0.27766397E+00 0.18902329E+04</pdfrwt>
<totfact> 0.13271701E-01</totfact>
</mgrwt>
</event>
<event>
 4    1  0.2051094E-007  0.1025953E+04  0.7818608E-02  0.9348364E-01
         -2   -1    0    0    0  501 -0.00000000000E+00  0.00000000000E+00  0.43860887594E+03  0.43860887595E+03  0.25500000000E-02 0.  1.
          2   -1    0    0  501    0  0.00000000000E+00 -0.00000000000E+00 -0.21684088538E+04  0.21684088538E+04  0.25500000000E-02 0. -1.
    8880023    1    1    2    0    0  0.42123372381E+03 -0.66432836478E+03 -0.14110428717E+04  0.17445980105E+04  0.65864270000E+03 0.  0.
    8880022    1    1    2    0    0 -0.42123372381E+03  0.66432836478E+03 -0.31875710615E+03  0.86241971920E+03  0.15294330000E+03 0.  0.
<mgrwt>
<rscale>  0 0.96449782E+03</rscale>
<asrwt>0</asrwt>
<pdfrwt beam="1">  1        2 0.33360135E+00 0.10259533E+04</pdfrwt>
<pdfrwt beam="2">  1       -2 0.67478290E-01 0.10259533E+04</pdfrwt>
<totfact> 0.10859862E+01</totfact>
</mgrwt>
</event>
<event>
 4    1  0.2051094E-007  0.8061043E+03  0.7818608E-02  0.9697750E-01
          2   -1    0    0  501    0  0.00000000000E+00  0.00000000000E+00  0.21404474254E+04  0.21404474254E+04  0.25500000000E-02 0. -1.
         -2   -1    0    0    0  501 -0.00000000000E+00 -0.00000000000E+00 -0.40141216174E+03  0.40141216175E+03  0.25500000000E-02 0.  1.
    8880023    1    1    2    0    0  0.48532960276E+02  0.46221037179E+03  0.18691656320E+04  0.20355795838E+04  0.65864270000E+03 0. -1.
    8880022    1    1    2    0    0 -0.48532960276E+02 -0.46221037179E+03 -0.13013036831E+03  0.50628000335E+03  0.15294330000E+03 0.  0.
<mgrwt>
<rscale>  0 0.71150941E+03</rscale>
<asrwt>0</asrwt>
<pdfrwt beam="1">  1        2 0.32929961E+00 0.80610426E+03</pdfrwt>
<pdfrwt beam="2">  1       -2 0.61755716E-01 0.80610426E+03</pdfrwt>
<totfact> 0.13992904E+01</totfact>
</mgrwt>
</event>
<event>
 4    1  0.2051094E-007  0.8417286E+03  0.7818608E-02  0.9626929E-01
         -2   -1    0    0    0  501 -0.00000000000E+00  0.00000000000E+00  0.59649241831E+03  0.59649241832E+03  0.25500000000E-02 0.  1.
          2   -1    0    0  501    0  0.00000000000E+00 -0.00000000000E+00 -0.10272069492E+04  0.10272069492E+04  0.25500000000E-02 0. -1.
    8880023    1    1    2    0    0 -0.48518449106E+03 -0.19822426222E+03  0.11761673747E+03  0.84990631936E+03  0.65864270000E+03 0.  0.
    8880022    1    1    2    0    0  0.48518449106E+03  0.19822426222E+03 -0.54833126835E+03  0.77379304815E+03  0.15294330000E+03 0.  0.
<mgrwt>
<rscale>  0 0.75539172E+03</rscale>
<asrwt>0</asrwt>
<pdfrwt beam="1">  1        2 0.15803184E+00 0.84172861E+03</pdfrwt>
<pdfrwt beam="2">  1       -2 0.91768065E-01 0.84172861E+03</pdfrwt>
<totfact> 0.24637341E+01</totfact>
</mgrwt>
</event>
<event>
 4    1  0.2051094E-007  0.1116116E+04  0.7818608E-02  0.9243321E-01
         -2   -1    0    0    0  501 -0.00000000000E+00  0.00000000000E+00  0.17392767050E+04  0.17392767050E+04  0.25500000000E-02 0.  1.
          2   -1    0    0  501    0  0.00000000000E+00 -0.00000000000E+00 -0.64377398103E+03  0.64377398103E+03  0.25500000000E-02 0. -1.
    8880023    1    1    2    0    0 -0.33236017275E+03  0.83752150935E+03  0.26277787346E+03  0.11466333242E+04  0.65864270000E+03 0. -1.
    8880022    1    1    2    0    0  0.33236017275E+03 -0.83752150935E+03  0.83272485050E+03  0.12364173619E+04  0.15294330000E+03 0.  0.
<mgrwt>
<rscale>  0 0.10617255E+04</rscale>
<asrwt>0</asrwt>
<pdfrwt beam="1">  1        2 0.99042153E-01 0.11161164E+04</pdfrwt>
<pdfrwt beam="2">  1       -2 0.26758103E+00 0.11161164E+04</pdfrwt>
<totfact> 0.22554173E+00</totfact>
</mgrwt>
</event>
<event>
 4    1  0.2051094E-007  0.8031103E+03  0.7818608E-02  0.9704111E-01
          2   -1    0    0  501    0  0.00000000000E+00  0.00000000000E+00  0.50146346120E+04  0.50146346120E+04  0.25500000000E-02 0. -1.
         -2   -1    0    0    0  501 -0.00000000000E+00 -0.00000000000E+00 -0.23469025195E+03  0.23469025197E+03  0.25500000000E-02 0.  1.
    8880023    1    1    2    0    0 -0.10583304016E+03  0.44718592202E+03  0.46880741039E+04  0.47563667742E+04  0.65864270000E+03 0. -1.
    8880022    1    1    2    0    0  0.10583304016E+03 -0.44718592202E+03  0.91870256155E+02  0.49295808973E+03  0.15294330000E+03 0.  0.
<mgrwt>
<rscale>  0 0.70772554E+03</rscale>
<asrwt>0</asrwt>
<pdfrwt beam="1">  1        2 0.77148225E+00 0.80311026E+03</pdfrwt>
<pdfrwt beam="2">  1       -2 0.36106192E-01 0.80311026E+03</pdfrwt>
<totfact> 0.27578684E-01</totfact>
</mgrwt>
</event>
<event>
 4    1  0.2051094E-007  0.8759809E+03  0.7818608E-02  0.9565745E-01
          2   -1    0    0  501    0  0.00000000000E+00  0.00000000000E+00  0.21021207171E+04  0.21021207171E+04  0.25500000000E-02 0. -1.
         -2   -1    0    0    0  501 -0.00000000000E+00 -0.00000000000E+00 -0.43409662170E+03  0.43409662170E+03  0.25500000000E-02 0.  1.
    8880023    1    1    2    0    0  0.41491568921E+03  0.40171798087E+03  0.17264176948E+04  0.19359392109E+04  0.65864270000E+03 0.  0.
    8880022    1    1    2    0    0 -0.41491568921E+03 -0.40171798087E+03 -0.58393599406E+02  0.60027812785E+03  0.15294330000E+03 0.  0.
<mgrwt>
<rscale>  0 0.79605478E+03</rscale>
<asrwt>0</asrwt>
<pdfrwt beam="1">  1        2 0.32340318E+00 0.87598092E+03</pdfrwt>
<pdfrwt beam="2">  1       -2 0.66784097E-01 0.87598092E+03</pdfrwt>
<totfact> 0.12302427E+01</totfact>
</mgrwt>
</event>
<event>
 4    1  0.2051094E-007  0.1113434E+04  0.7818608E-02  0.9246244E-01
          2   -1    0    0  501    0  0.00000000000E+00  0.00000000000E+00  0.98700561188E+03  0.98700561188E+03  0.25500000000E-02 0. -1.
         -2   -1    0    0    0  501 -0.00000000000E+00 -0.00000000000E+00 -0.23561122962E+04  0.23561122962E+04  0.25500000000E-02 0.  1.
    8880023    1    1    2    0    0  0.79185470597E+03  0.42295582850E+03  0.53286226210E+03  0.12343734868E+04  0.65864270000E+03 0. -1.
    8880022    1    1    2    0    0 -0.79185470597E+03 -0.42295582850E+03 -0.19019689464E+04  0.21087444213E+04  0.15294330000E+03 0.  0.
<mgrwt>
<rscale>  0 0.10588599E+04</rscale>
<asrwt>0</asrwt>
<pdfrwt beam="1">  1        2 0.15184702E+00 0.11134342E+04</pdfrwt>
<pdfrwt beam="2">  1       -2 0.36247881E+00 0.11134342E+04</pdfrwt>
<totfact> 0.33159657E-01</totfact>
</mgrwt>
</event>
<event>
 4    1  0.2051094E-007  0.1040744E+04  0.7818608E-02  0.9330092E-01
         -2   -1    0    0    0  501 -0.00000000000E+00  0.00000000000E+00  0.92158252951E+03  0.92158252952E+03  0.25500000000E-02 0.  1.
          2   -1    0    0  501    0  0.00000000000E+00 -0.00000000000E+00 -0.22640037827E+04  0.22640037827E+04  0.25500000000E-02 0. -1.
    8880023    1    1    2    0    0  0.67654944548E+03  0.43774272338E+03 -0.19189676599E+04  0.21830219720E+04  0.65864270000E+03 0.  0.
    8880022    1    1    2    0    0 -0.67654944548E+03 -0.43774272338E+03  0.57654640678E+03  0.10025643402E+04  0.15294330000E+03 0.  0.
<mgrwt>
<rscale>  0 0.98059120E+03</rscale>
<asrwt>0</asrwt>
<pdfrwt beam="1">  1        2 0.34830827E+00 0.10407440E+04</pdfrwt>
<pdfrwt beam="2">  1       -2 0.14178193E+00 0.10407440E+04</pdfrwt>
<totfact> 0.16447737E+00</totfact>
</mgrwt>
</event>
<event>
 4    1  0.2051094E-007  0.9196847E+03  0.7818608E-02  0.9495143E-01
         -2   -1    0    0    0  501 -0.00000000000E+00  0.00000000000E+00  0.51215749605E+03  0.51215749606E+03  0.25500000000E-02 0.  1.
          2   -1    0    0  501    0  0.00000000000E+00 -0.00000000000E+00 -0.32268689342E+04  0.32268689342E+04  0.25500000000E-02 0. -1.
    8880023    1    1    2    0    0  0.11476075718E+03  0.63153756142E+03 -0.29092020967E+04  0.30511107434E+04  0.65864270000E+03 0.  0.
    8880022    1    1    2    0    0 -0.11476075718E+03 -0.63153756142E+03  0.19449065858E+03  0.68791568681E+03  0.15294330000E+03 0.  0.
<mgrwt>
<rscale>  0 0.84642882E+03</rscale>
<asrwt>0</asrwt>
<pdfrwt beam="1">  1        2 0.49644136E+00 0.91968469E+03</pdfrwt>
<pdfrwt beam="2">  1       -2 0.78793463E-01 0.91968469E+03</pdfrwt>
<totfact> 0.18545430E+00</totfact>
</mgrwt>
</event>
<event>
 4    1  0.2051094E-007  0.9844136E+03  0.7818608E-02  0.9402240E-01
         -2   -1    0    0    0  501 -0.00000000000E+00  0.00000000000E+00  0.88209357594E+03  0.88209357594E+03  0.25500000000E-02 0.  1.
          2   -1    0    0  501    0  0.00000000000E+00 -0.00000000000E+00 -0.12863000727E+04  0.12863000727E+04  0.25500000000E-02 0. -1.
    8880023    1    1    2    0    0 -0.72445942748E+03  0.10207100149E+03 -0.84786336049E+03  0.12992083881E+04  0.65864270000E+03 0. -1.
    8880022    1    1    2    0    0  0.72445942748E+03 -0.10207100149E+03  0.44365686372E+03  0.86918526055E+03  0.15294330000E+03 0.  0.
<mgrwt>
<rscale>  0 0.91891605E+03</rscale>
<asrwt>0</asrwt>
<pdfrwt beam="1">  1        2 0.19789232E+00 0.98441361E+03</pdfrwt>
<pdfrwt beam="2">  1       -2 0.13570670E+00 0.98441361E+03</pdfrwt>
<totfact> 0.65137004E+00</totfact>
</mgrwt>
</event>
<event>
 4    1  0.2051094E-007  0.7897887E+03  0.7818608E-02  0.9733326E-01
         -2   -1    0    0    0  501 -0.00000000000E+00  0.00000000000E+00  0.72371086312E+03  0.72371086312E+03  0.25500000000E-02 0.  1.
          2   -1    0    0  501    0  0.00000000000E+00 -0.00000000000E+00 -0.14694048910E+04  0.14694048910E+04  0.25500000000E-02 0. -1.
    8880023    1    1    2    0    0  0.28078521898E+03 -0.33334018914E+03 -0.12692634356E+04  0.14949233747E+04  0.65864270000E+03 0.  0.
    8880022    1    1    2    0    0 -0.28078521898E+03  0.33334018914E+03  0.52356940778E+03  0.69819237941E+03  0.15294330000E+03 0.  0.
<mgrwt>
<rscale>  0 0.69066776E+03</rscale>
<asrwt>0</asrwt>
<pdfrwt beam="1">  1        2 0.22606229E+00 0.78978872E+03</pdfrwt>
<pdfrwt beam="2">  1       -2 0.11134013E+00 0.78978872E+03</pdfrwt>
<totfact> 0.85870021E+00</totfact>
</mgrwt>
</event>
<event>
 4    1  0.2051094E-007  0.7346128E+03  0.7818608E-02  0.9875927E-01
          2   -1    0    0  501    0  0.00000000000E+00  0.00000000000E+00  0.17719395588E+04  0.17719395588E+04  0.25500000000E-02 0. -1.
         -2   -1    0    0    0  501 -0.00000000000E+00 -0.00000000000E+00 -0.67070114047E+03  0.67070114048E+03  0.25500000000E-02 0.  1.
    8880023    1    1    2    0    0 -0.12283396896E+02  0.32510758297E+03  0.16388178762E+04  0.17959343139E+04  0.65864270000E+03 0. -1.
    8880022    1    1    2    0    0  0.12283396896E+02 -0.32510758297E+03 -0.53757945786E+03  0.64670638536E+03  0.15294330000E+03 0.  0.
<mgrwt>
<rscale>  0 0.61442297E+03</rscale>
<asrwt>0</asrwt>
<pdfrwt beam="1">  1        2 0.27260608E+00 0.73461284E+03</pdfrwt>
<pdfrwt beam="2">  1       -2 0.10318479E+00 0.73461284E+03</pdfrwt>
<totfact> 0.70809228E+00</totfact>
</mgrwt>
</event>
<event>
 4    1  0.2051094E-007  0.8779212E+03  0.7818608E-02  0.9562447E-01
          2   -1    0    0  501    0  0.00000000000E+00  0.00000000000E+00  0.16681372331E+04  0.16681372331E+04  0.25500000000E-02 0. -1.
         -2   -1    0    0    0  501 -0.00000000000E+00 -0.00000000000E+00 -0.73876797893E+03  0.73876797894E+03  0.25500000000E-02 0.  1.
    8880023    1    1    2    0    0 -0.11781603824E+03 -0.56837902929E+03  0.13942773234E+04  0.16476512982E+04  0.65864270000E+03 0. -1.
    8880022    1    1    2    0    0  0.11781603824E+03  0.56837902929E+03 -0.46490806921E+03  0.75925391381E+03  0.15294330000E+03 0.  0.
<mgrwt>
<rscale>  0 0.79832317E+03</rscale>
<asrwt>0</asrwt>
<pdfrwt beam="1">  1        2 0.25663650E+00 0.87792115E+03</pdfrwt>
<pdfrwt beam="2">  1       -2 0.11365661E+00 0.87792115E+03</pdfrwt>
<totfact> 0.62632451E+00</totfact>
</mgrwt>
</event>
<event>
 4    1  0.2051094E-007  0.1070307E+04  0.7818608E-02  0.9294859E-01
         -2   -1    0    0    0  501 -0.00000000000E+00  0.00000000000E+00  0.39965625173E+03  0.39965625174E+03  0.25500000000E-02 0.  1.
          2   -1    0    0  501    0  0.00000000000E+00 -0.00000000000E+00 -0.25249665421E+04  0.25249665421E+04  0.25500000000E-02 0. -1.
    8880023    1    1    2    0    0 -0.84112083600E+03  0.65280774545E+02 -0.15803821449E+04  0.19087073559E+04  0.65864270000E+03 0.  1.
    8880022    1    1    2    0    0  0.84112083600E+03 -0.65280774545E+02 -0.54492814541E+03  0.10159154379E+04  0.15294330000E+03 0. -1.
<mgrwt>
<rscale>  0 0.10125750E+04</rscale>
<asrwt>0</asrwt>
<pdfrwt beam="1">  1        2 0.38845638E+00 0.10703065E+04</pdfrwt>
<pdfrwt beam="2">  1       -2 0.61485579E-01 0.10703065E+04</pdfrwt>
<totfact> 0.83080698E+00</totfact>
</mgrwt>
</event>
<event>
 4    1  0.2051094E-007  0.7640093E+03  0.7818608E-02  0.9794836E-01
          2   -1    0    0  501    0  0.00000000000E+00  0.00000000000E+00  0.57952252698E+03  0.57952252699E+03  0.25500000000E-02 0. -1.
         -2   -1    0    0    0  501 -0.00000000000E+00 -0.00000000000E+00 -0.12428865595E+04  0.12428865595E+04  0.25500000000E-02 0.  1.
    8880023    1    1    2    0    0 -0.31351925040E+03 -0.22716891726E+03  0.26203017539E+03  0.80769428401E+03  0.65864270000E+03 0. -1.
    8880022    1    1    2    0    0  0.31351925040E+03  0.22716891726E+03 -0.92539420788E+03  0.10147148025E+04  0.15294330000E+03 0.  0.
<mgrwt>
<rscale>  0 0.65640399E+03</rscale>
<asrwt>0</asrwt>
<pdfrwt beam="1">  1        2 0.89157312E-01 0.76400932E+03</pdfrwt>
<pdfrwt beam="2">  1       -2 0.19121332E+00 0.76400932E+03</pdfrwt>
<totfact> 0.80019430E+00</totfact>
</mgrwt>
</event>
<event>
 4    1  0.2143717E-007  0.1033052E+04  0.7818608E-02  0.9339539E-01
          2   -1    0    0  501    0  0.00000000000E+00  0.00000000000E+00  0.18447077166E+04  0.18447077166E+04  0.25500000000E-02 0. -1.
         -2   -1    0    0    0  501 -0.00000000000E+00 -0.00000000000E+00 -0.13125501062E+04  0.13125501062E+04  0.25500000000E-02 0.  1.
    8880023    1    1    2    0    0 -0.43359920137E+03 -0.66736599116E+03  0.15459571664E+04  0.18593491873E+04  0.65864270000E+03 0.  0.
    8880022    1    1    2    0    0  0.43359920137E+03  0.66736599116E+03 -0.10137995560E+04  0.12979086356E+04  0.15294330000E+03 0.  0.
<mgrwt>
<rscale>  0 0.97222954E+03</rscale>
<asrwt>0</asrwt>
<pdfrwt beam="1">  1        2 0.28380119E+00 0.10330517E+04</pdfrwt>
<pdfrwt beam="2">  1       -2 0.20193079E+00 0.10330517E+04</pdfrwt>
<totfact> 0.10443739E+00</totfact>
</mgrwt>
</event>
<event>
 4    1  0.2051094E-007  0.1166667E+04  0.7818608E-02  0.9190226E-01
         -2   -1    0    0    0  501 -0.00000000000E+00  0.00000000000E+00  0.19916911061E+04  0.19916911061E+04  0.25500000000E-02 0.  1.
          2   -1    0    0  501    0  0.00000000000E+00 -0.00000000000E+00 -0.10740982985E+04  0.10740982985E+04  0.25500000000E-02 0. -1.
    8880023    1    1    2    0    0  0.28522586197E+03  0.91975374887E+03 -0.56108856830E+03  0.12945776681E+04  0.65864270000E+03 0.  0.
    8880022    1    1    2    0    0 -0.28522586197E+03 -0.91975374887E+03  0.14786813759E+04  0.17712117365E+04  0.15294330000E+03 0.  0.
<mgrwt>
<rscale>  0 0.11154884E+04</rscale>
<asrwt>0</asrwt>
<pdfrwt beam="1">  1        2 0.16524590E+00 0.11666666E+04</pdfrwt>
<pdfrwt beam="2">  1       -2 0.30641401E+00 0.11666666E+04</pdfrwt>
<totfact> 0.64465392E-01</totfact>
</mgrwt>
</event>
<event>
 4    1  0.2051094E-007  0.7420526E+03  0.7818608E-02  0.9854008E-01
         -2   -1    0    0    0  501 -0.00000000000E+00  0.00000000000E+00  0.54039597345E+03  0.54039597346E+03  0.25500000000E-02 0.  1.
          2   -1    0    0  501    0  0.00000000000E+00 -0.00000000000E+00 -0.26059692656E+04  0.26059692656E+04  0.25500000000E-02 0. -1.
    8880023    1    1    2    0    0 -0.33429786014E+03  0.71252073410E+02 -0.24795191396E+04  0.25881764405E+04  0.65864270000E+03 0.  0.
    8880022    1    1    2    0    0  0.33429786014E+03 -0.71252073410E+02  0.41394584742E+03  0.55818879859E+03  0.15294330000E+03 0.  1.
<mgrwt>
<rscale>  0 0.62542994E+03</rscale>
<asrwt>0</asrwt>
<pdfrwt beam="1">  1        2 0.40091834E+00 0.74205264E+03</pdfrwt>
<pdfrwt beam="2">  1       -2 0.83137843E-01 0.74205264E+03</pdfrwt>
<totfact> 0.40352844E+00</totfact>
</mgrwt>
</event>
<event>
 4    1  0.2051094E-007  0.8351701E+03  0.7818608E-02  0.9639355E-01
         -2   -1    0    0    0  501 -0.00000000000E+00  0.00000000000E+00  0.32684779526E+03  0.32684779527E+03  0.25500000000E-02 0.  1.
          2   -1    0    0  501    0  0.00000000000E+00 -0.00000000000E+00 -0.26334995805E+04  0.26334995805E+04  0.25500000000E-02 0. -1.
    8880023    1    1    2    0    0  0.47490181636E+03  0.19536429142E+03 -0.22751704095E+04  0.24236149736E+04  0.65864270000E+03 0. -1.
    8880022    1    1    2    0    0 -0.47490181636E+03 -0.19536429142E+03 -0.31481375725E+02  0.53673240220E+03  0.15294330000E+03 0.  0.
<mgrwt>
<rscale>  0 0.74745248E+03</rscale>
<asrwt>0</asrwt>
<pdfrwt beam="1">  1        2 0.40515377E+00 0.83517013E+03</pdfrwt>
<pdfrwt beam="2">  1       -2 0.50284278E-01 0.83517013E+03</pdfrwt>
<totfact> 0.11288838E+01</totfact>
</mgrwt>
</event>
<event>
 4    1  0.2051094E-007  0.1502390E+04  0.7818608E-02  0.8907950E-01
         -2   -1    0    0    0  501 -0.00000000000E+00  0.00000000000E+00  0.79213139409E+03  0.79213139410E+03  0.25500000000E-02 0.  1.
          2   -1    0    0  501    0  0.00000000000E+00 -0.00000000000E+00 -0.29046693656E+04  0.29046693656E+04  0.25500000000E-02 0. -1.
    8880023    1    1    2    0    0  0.64473984621E+03 -0.11864550312E+04 -0.17168922117E+04  0.22814236966E+04  0.65864270000E+03 0.  0.
    8880022    1    1    2    0    0 -0.64473984621E+03  0.11864550312E+04 -0.39564575977E+03  0.14153770631E+04  0.15294330000E+03 0.  0.
<mgrwt>
<rscale>  0 0.14651706E+04</rscale>
<asrwt>0</asrwt>
<pdfrwt beam="1">  1        2 0.44687221E+00 0.15023898E+04</pdfrwt>
<pdfrwt beam="2">  1       -2 0.12186637E+00 0.15023898E+04</pdfrwt>
<totfact> 0.97012959E-01</totfact>
</mgrwt>
</event>
<event>
 4    1  0.2051094E-007  0.6872620E+03  0.7818608E-02  0.1005482E+00
          2   -1    0    0  501    0  0.00000000000E+00  0.00000000000E+00  0.13950042701E+04  0.13950042701E+04  0.25500000000E-02 0. -1.
         -2   -1    0    0    0  501 -0.00000000000E+00 -0.00000000000E+00 -0.18848334597E+03  0.18848334599E+03  0.25500000000E-02 0.  1.
    8880023    1    1    2    0    0  0.18687430367E+03  0.59974267600E+02  0.11310389574E+04  0.13234720426E+04  0.65864270000E+03 0.  0.
    8880022    1    1    2    0    0 -0.18687430367E+03 -0.59974267600E+02  0.75481966760E+02  0.26001557351E+03  0.15294330000E+03 0.  0.
<mgrwt>
<rscale>  0 0.53310453E+03</rscale>
<asrwt>0</asrwt>
<pdfrwt beam="1">  1        2 0.21461604E+00 0.68726205E+03</pdfrwt>
<pdfrwt beam="2">  1       -2 0.28997437E-01 0.68726205E+03</pdfrwt>
<totfact> 0.16218451E+02</totfact>
</mgrwt>
</event>
<event>
 4    1  0.2051094E-007  0.1010241E+04  0.7818608E-02  0.9368280E-01
         -2   -1    0    0    0  501 -0.00000000000E+00  0.00000000000E+00  0.52543025633E+03  0.52543025633E+03  0.25500000000E-02 0.  1.
          2   -1    0    0  501    0  0.00000000000E+00 -0.00000000000E+00 -0.19843405099E+04  0.19843405099E+04  0.25500000000E-02 0. -1.
    8880023    1    1    2    0    0  0.43417572017E+02 -0.76478234538E+03 -0.13999751967E+04  0.17264176433E+04  0.65864270000E+03 0.  1.
    8880022    1    1    2    0    0 -0.43417572017E+02  0.76478234538E+03 -0.58935056909E+02  0.78335312300E+03  0.15294330000E+03 0.  0.
<mgrwt>
<rscale>  0 0.94732732E+03</rscale>
<asrwt>0</asrwt>
<pdfrwt beam="1">  1        2 0.30528315E+00 0.10102412E+04</pdfrwt>
<pdfrwt beam="2">  1       -2 0.80835425E-01 0.10102412E+04</pdfrwt>
<totfact> 0.92112365E+00</totfact>
</mgrwt>
</event>
<event>
 4    1  0.2051094E-007  0.1296231E+04  0.7818608E-02  0.9068822E-01
         -2   -1    0    0    0  501 -0.00000000000E+00  0.00000000000E+00  0.63749555822E+03  0.63749555822E+03  0.25500000000E-02 0.  1.
          2   -1    0    0  501    0  0.00000000000E+00 -0.00000000000E+00 -0.28875787980E+04  0.28875787980E+04  0.25500000000E-02 0. -1.
    8880023    1    1    2    0    0  0.91050584264E+03 -0.64605221211E+03 -0.19795783718E+04  0.23662090116E+04  0.65864270000E+03 0.  0.
    8880022    1    1    2    0    0 -0.91050584264E+03  0.64605221211E+03 -0.27050486793E+03  0.11588653446E+04  0.15294330000E+03 0.  0.
<mgrwt>
<rscale>  0 0.12516374E+04</rscale>
<asrwt>0</asrwt>
<pdfrwt beam="1">  1        2 0.44424289E+00 0.12962309E+04</pdfrwt>
<pdfrwt beam="2">  1       -2 0.98076241E-01 0.12962309E+04</pdfrwt>
<totfact> 0.17283713E+00</totfact>
</mgrwt>
</event>
<event>
 4    1  0.2051094E-007  0.1735841E+04  0.7818608E-02  0.8758883E-01
         -2   -1    0    0    0  501 -0.00000000000E+00  0.00000000000E+00  0.73109741988E+03  0.73109741988E+03  0.25500000000E-02 0.  1.
          2   -1    0    0  501    0  0.00000000000E+00 -0.00000000000E+00 -0.50455767137E+04  0.50455767137E+04  0.25500000000E-02 0. -1.
    8880023    1    1    2    0    0  0.14667279733E+04 -0.65424897677E+03 -0.80352071288E+03  0.19127959676E+04  0.65864270000E+03 0.  0.
    8880022    1    1    2    0    0 -0.14667279733E+04  0.65424897677E+03 -0.35109585809E+04  0.38638781660E+04  0.15294330000E+03 0.  0.
<mgrwt>
<rscale>  0 0.17043584E+04</rscale>
<asrwt>0</asrwt>
<pdfrwt beam="1">  1        2 0.77624255E+00 0.17358407E+04</pdfrwt>
<pdfrwt beam="2">  1       -2 0.11247653E+00 0.17358407E+04</pdfrwt>
<totfact> 0.17899228E-02</totfact>
</mgrwt>
</event>
<event>
 4    1  0.2051094E-007  0.8807173E+03  0.7818608E-02  0.9557724E-01
          2   -1    0    0  501    0  0.00000000000E+00  0.00000000000E+00  0.23989756454E+04  0.23989756454E+04  0.25500000000E-02 0. -1.
         -2   -1    0    0    0  501 -0.00000000000E+00 -0.00000000000E+00 -0.37596789886E+03  0.37596789886E+03  0.25500000000E-02 0.  1.
    8880023    1    1    2    0    0  0.58075943702E+03 -0.67610352927E+02  0.19823919120E+04  0.21692258026E+04  0.65864270000E+03 0.  0.
    8880022    1    1    2    0    0 -0.58075943702E+03  0.67610352927E+02  0.40615834485E+02  0.60571774164E+03  0.15294330000E+03 0.  0.
<mgrwt>
<rscale>  0 0.80158636E+03</rscale>
<asrwt>0</asrwt>
<pdfrwt beam="1">  1        2 0.36907316E+00 0.88071726E+03</pdfrwt>
<pdfrwt beam="2">  1       -2 0.57841218E-01 0.88071726E+03</pdfrwt>
<totfact> 0.11421129E+01</totfact>
</mgrwt>
</event>
<event>
 4    1  0.2051094E-007  0.9651338E+03  0.7818608E-02  0.9428666E-01
          2   -1    0    0  501    0  0.00000000000E+00  0.00000000000E+00  0.28459373695E+04  0.28459373695E+04  0.25500000000E-02 0. -1.
         -2   -1    0    0    0  501 -0.00000000000E+00 -0.00000000000E+00 -0.64516323776E+03  0.64516323777E+03  0.25500000000E-02 0.  1.
    8880023    1    1    2    0    0  0.13920368440E+03 -0.69158905691E+03  0.25224779912E+04  0.27008107138E+04  0.65864270000E+03 0. -1.
    8880022    1    1    2    0    0 -0.13920368440E+03  0.69158905691E+03 -0.32170385952E+03  0.79028989342E+03  0.15294330000E+03 0.  0.
<mgrwt>
<rscale>  0 0.89753649E+03</rscale>
<asrwt>0</asrwt>
<pdfrwt beam="1">  1        2 0.43783651E+00 0.96513382E+03</pdfrwt>
<pdfrwt beam="2">  1       -2 0.99255884E-01 0.96513382E+03</pdfrwt>
<totfact> 0.18622679E+00</totfact>
</mgrwt>
</event>
<event>
 4    1  0.2312609E-007  0.1118052E+04  0.7818608E-02  0.9241219E-01
          2   -1    0    0  501    0  0.00000000000E+00  0.00000000000E+00  0.25146013439E+04  0.25146013439E+04  0.25500000000E-02 0. -1.
         -2   -1    0    0    0  501 -0.00000000000E+00 -0.00000000000E+00 -0.10481314326E+04  0.10481314326E+04  0.25500000000E-02 0.  1.
    8880023    1    1    2    0    0  0.86309965857E+03 -0.26699968020E+03  0.21474611449E+04  0.24210802186E+04  0.65864270000E+03 0.  0.
    8880022    1    1    2    0    0 -0.86309965857E+03  0.26699968020E+03 -0.68099123361E+03  0.11416525580E+04  0.15294330000E+03 0.  1.
<mgrwt>
<rscale>  0 0.10637925E+04</rscale>
<asrwt>0</asrwt>
<pdfrwt beam="1">  1        2 0.38686174E+00 0.11180519E+04</pdfrwt>
<pdfrwt beam="2">  1       -2 0.16125099E+00 0.11180519E+04</pdfrwt>
<totfact> 0.83189076E-01</totfact>
</mgrwt>
</event>
<event>
 4    1  0.2051094E-007  0.8186805E+03  0.7818608E-02  0.9671772E-01
         -2   -1    0    0    0  501 -0.00000000000E+00  0.00000000000E+00  0.14853342582E+04  0.14853342582E+04  0.25500000000E-02 0.  1.
          2   -1    0    0  501    0  0.00000000000E+00 -0.00000000000E+00 -0.95963999214E+03  0.95963999214E+03  0.25500000000E-02 0. -1.
    8880023    1    1    2    0    0  0.48516037454E+03  0.32357533945E+02 -0.72553057235E+03  0.10939069507E+04  0.65864270000E+03 0. -1.
    8880022    1    1    2    0    0 -0.48516037454E+03 -0.32357533945E+02  0.12512248384E+04  0.13510672997E+04  0.15294330000E+03 0.  0.
<mgrwt>
<rscale>  0 0.72722661E+03</rscale>
<asrwt>0</asrwt>
<pdfrwt beam="1">  1        2 0.14763692E+00 0.81868053E+03</pdfrwt>
<pdfrwt beam="2">  1       -2 0.22851296E+00 0.81868053E+03</pdfrwt>
<totfact> 0.23798845E+00</totfact>
</mgrwt>
</event>
<event>
 4    1  0.2051094E-007  0.8660739E+03  0.7818608E-02  0.9582849E-01
         -2   -1    0    0    0  501 -0.00000000000E+00  0.00000000000E+00  0.48832256406E+03  0.48832256407E+03  0.25500000000E-02 0.  1.
          2   -1    0    0  501    0  0.00000000000E+00 -0.00000000000E+00 -0.15545660921E+04  0.15545660921E+04  0.25500000000E-02 0. -1.
    8880023    1    1    2    0    0  0.37949247653E+03  0.41504121940E+03 -0.11651188377E+04  0.14517526875E+04  0.65864270000E+03 0.  0.
    8880022    1    1    2    0    0 -0.37949247653E+03 -0.41504121940E+03  0.98875309648E+02  0.59113596864E+03  0.15294330000E+03 0.  0.
<mgrwt>
<rscale>  0 0.78441812E+03</rscale>
<asrwt>0</asrwt>
<pdfrwt beam="1">  1        2 0.23916401E+00 0.86607388E+03</pdfrwt>
<pdfrwt beam="2">  1       -2 0.75126549E-01 0.86607388E+03</pdfrwt>
<totfact> 0.19025984E+01</totfact>
</mgrwt>
</event>
<event>
 4    1  0.2051094E-007  0.6756552E+03  0.7818608E-02  0.1011896E+00
          2   -1    0    0  501    0  0.00000000000E+00  0.00000000000E+00  0.18949213522E+04  0.18949213522E+04  0.25500000000E-02 0. -1.
         -2   -1    0    0    0  501 -0.00000000000E+00 -0.00000000000E+00 -0.25211804262E+03  0.25211804263E+03  0.25500000000E-02 0.  1.
    8880023    1    1    2    0    0 -0.97040175773E+02 -0.11525159621E+03  0.17720215621E+04  0.18964625884E+04  0.65864270000E+03 0. -1.
    8880022    1    1    2    0    0  0.97040175773E+02  0.11525159621E+03 -0.12921825253E+03  0.25057680648E+03  0.15294330000E+03 0.  0.
<mgrwt>
<rscale>  0 0.50727832E+03</rscale>
<asrwt>0</asrwt>
<pdfrwt beam="1">  1        2 0.29152638E+00 0.67565519E+03</pdfrwt>
<pdfrwt beam="2">  1       -2 0.38787389E-01 0.67565519E+03</pdfrwt>
<totfact> 0.49809944E+01</totfact>
</mgrwt>
</event>
<event>
 4    1  0.2051094E-007  0.1050451E+04  0.7818608E-02  0.9318340E-01
          2   -1    0    0  501    0  0.00000000000E+00  0.00000000000E+00  0.64670678473E+03  0.64670678474E+03  0.25500000000E-02 0. -1.
         -2   -1    0    0    0  501 -0.00000000000E+00 -0.00000000000E+00 -0.17921073425E+04  0.17921073425E+04  0.25500000000E-02 0.  1.
    8880023    1    1    2    0    0 -0.26058261140E+02  0.81789804251E+03 -0.35038651619E+02  0.10510348017E+04  0.65864270000E+03 0.  0.
    8880022    1    1    2    0    0  0.26058261140E+02 -0.81789804251E+03 -0.11103619062E+04  0.13877793256E+04  0.15294330000E+03 0.  0.
<mgrwt>
<rscale>  0 0.99111845E+03</rscale>
<asrwt>0</asrwt>
<pdfrwt beam="1">  1        2 0.99493352E-01 0.10504506E+04</pdfrwt>
<pdfrwt beam="2">  1       -2 0.27570882E+00 0.10504506E+04</pdfrwt>
<totfact> 0.20162271E+00</totfact>
</mgrwt>
</event>
<event>
 4    1  0.2051094E-007  0.7147402E+03  0.7818608E-02  0.9940802E-01
         -2   -1    0    0    0  501 -0.00000000000E+00  0.00000000000E+00  0.15242669130E+03  0.15242669132E+03  0.25500000000E-02 0.  1.
          2   -1    0    0  501    0  0.00000000000E+00 -0.00000000000E+00 -0.28316696512E+04  0.28316696512E+04  0.25500000000E-02 0. -1.
    8880023    1    1    2    0    0 -0.13870480287E+03  0.24042543232E+03 -0.25387377234E+04  0.26374311073E+04  0.65864270000E+03 0. -1.
    8880022    1    1    2    0    0  0.13870480287E+03 -0.24042543232E+03 -0.14050523645E+03  0.34666523525E+03  0.15294330000E+03 0.  0.
<mgrwt>
<rscale>  0 0.58323939E+03</rscale>
<asrwt>0</asrwt>
<pdfrwt beam="1">  1        2 0.43564144E+00 0.71474024E+03</pdfrwt>
<pdfrwt beam="2">  1       -2 0.23450262E-01 0.71474024E+03</pdfrwt>
<totfact> 0.37610260E+01</totfact>
</mgrwt>
</event>
<event>
 4    1  0.2051094E-007  0.9733969E+03  0.7818608E-02  0.9417221E-01
          2   -1    0    0  501    0  0.00000000000E+00  0.00000000000E+00  0.18486188804E+04  0.18486188804E+04  0.25500000000E-02 0. -1.
         -2   -1    0    0    0  501 -0.00000000000E+00 -0.00000000000E+00 -0.60817484931E+03  0.60817484932E+03  0.25500000000E-02 0.  1.
    8880023    1    1    2    0    0  0.67889673449E+03  0.22976206211E+03  0.14015716480E+04  0.17064303889E+04  0.65864270000E+03 0.  0.
    8880022    1    1    2    0    0 -0.67889673449E+03 -0.22976206211E+03 -0.16112761695E+03  0.75036334082E+03  0.15294330000E+03 0.  0.
<mgrwt>
<rscale>  0 0.90671888E+03</rscale>
<asrwt>0</asrwt>
<pdfrwt beam="1">  1        2 0.28440290E+00 0.97339693E+03</pdfrwt>
<pdfrwt beam="2">  1       -2 0.93565362E-01 0.97339693E+03</pdfrwt>
<totfact> 0.78480977E+00</totfact>
</mgrwt>
</event>
<event>
 4    1  0.2051094E-007  0.8006779E+03  0.7818608E-02  0.9709332E-01
         -2   -1    0    0    0  501 -0.00000000000E+00  0.00000000000E+00  0.14326397011E+04  0.14326397011E+04  0.25500000000E-02 0.  1.
          2   -1    0    0  501    0  0.00000000000E+00 -0.00000000000E+00 -0.35168405457E+03  0.35168405458E+03  0.25500000000E-02 0. -1.
    8880023    1    1    2    0    0  0.18822344536E+03  0.41454415163E+03  0.27588058053E+03  0.84687379225E+03  0.65864270000E+03 0.  0.
    8880022    1    1    2    0    0 -0.18822344536E+03 -0.41454415163E+03  0.80507506603E+03  0.93744996346E+03  0.15294330000E+03 0.  0.
<mgrwt>
<rscale>  0 0.70463867E+03</rscale>
<asrwt>0</asrwt>
<pdfrwt beam="1">  1        2 0.54105239E-01 0.80067792E+03</pdfrwt>
<pdfrwt beam="2">  1       -2 0.22040611E+00 0.80067792E+03</pdfrwt>
<totfact> 0.91786167E+00</totfact>
</mgrwt>
</event>
<event>
 4    1  0.2051094E-007  0.1469941E+04  0.7818608E-02  0.8931158E-01
          2   -1    0    0  501    0  0.00000000000E+00  0.00000000000E+00  0.11310909047E+04  0.11310909047E+04  0.25500000000E-02 0. -1.
         -2   -1    0    0    0  501 -0.00000000000E+00 -0.00000000000E+00 -0.17787902928E+04  0.17787902928E+04  0.25500000000E-02 0.  1.
    8880023    1    1    2    0    0  0.10513329683E+04  0.78842593401E+03 -0.59512831893E+03  0.15858450069E+04  0.65864270000E+03 0.  0.
    8880022    1    1    2    0    0 -0.10513329683E+04 -0.78842593401E+03 -0.52571069138E+02  0.13240361906E+04  0.15294330000E+03 0.  0.
<mgrwt>
<rscale>  0 0.14317403E+04</rscale>
<asrwt>0</asrwt>
<pdfrwt beam="1">  1        2 0.17401399E+00 0.14699410E+04</pdfrwt>
<pdfrwt beam="2">  1       -2 0.27366005E+00 0.14699410E+04</pdfrwt>
<totfact> 0.90971025E-01</totfact>
</mgrwt>
</event>
<event>
 4    1  0.2051094E-007  0.7090168E+03  0.7818608E-02  0.9961670E-01
          2   -1    0    0  501    0  0.00000000000E+00  0.00000000000E+00  0.15379964151E+04  0.15379964151E+04  0.25500000000E-02 0. -1.
         -2   -1    0    0    0  501 -0.00000000000E+00 -0.00000000000E+00 -0.73615129726E+03  0.73615129727E+03  0.25500000000E-02 0.  1.
    8880023    1    1    2    0    0 -0.26238629150E+03 -0.69302221564E+01  0.14190014563E+04  0.15862754909E+04  0.65864270000E+03 0. -1.
    8880022    1    1    2    0    0  0.26238629150E+03  0.69302221564E+01 -0.61715633844E+03  0.68787222144E+03  0.15294330000E+03 0.  0.
<mgrwt>
<rscale>  0 0.57363351E+03</rscale>
<asrwt>0</asrwt>
<pdfrwt beam="1">  1        2 0.23661483E+00 0.70901678E+03</pdfrwt>
<pdfrwt beam="2">  1       -2 0.11325405E+00 0.70901678E+03</pdfrwt>
<totfact> 0.76310068E+00</totfact>
</mgrwt>
</event>
<event>
 4    1  0.2051094E-007  0.3097391E+04  0.7818608E-02  0.8221107E-01
         -2   -1    0    0    0  501 -0.00000000000E+00  0.00000000000E+00  0.23849745028E+04  0.23849745028E+04  0.25500000000E-02 0.  1.
          2   -1    0    0  501    0  0.00000000000E+00 -0.00000000000E+00 -0.46850498587E+04  0.46850498587E+04  0.25500000000E-02 0. -1.
    8880023    1    1    2    0    0 -0.96754661644E+03  0.28677303126E+04 -0.25739092391E+04  0.40272624173E+04  0.65864270000E+03 0.  0.
    8880022    1    1    2    0    0  0.96754661644E+03 -0.28677303126E+04  0.27383388312E+03  0.30427619442E+04  0.15294330000E+03 0.  0.
<mgrwt>
<rscale>  0 0.30805098E+04</rscale>
<asrwt>0</asrwt>
<pdfrwt beam="1">  1        2 0.72077690E+00 0.30973915E+04</pdfrwt>
<pdfrwt beam="2">  1       -2 0.36691916E+00 0.30973915E+04</pdfrwt>
<totfact> 0.75563965E-04</totfact>
</mgrwt>
</event>
<event>
 4    1  0.2051094E-007  0.1298098E+04  0.7818608E-02  0.9067204E-01
         -2   -1    0    0    0  501 -0.00000000000E+00  0.00000000000E+00  0.84539356376E+03  0.84539356376E+03  0.25500000000E-02 0.  1.
          2   -1    0    0  501    0  0.00000000000E+00 -0.00000000000E+00 -0.24230471240E+04  0.24230471240E+04  0.25500000000E-02 0. -1.
    8880023    1    1    2    0    0  0.71640406742E+03 -0.85907743495E+03 -0.16932059952E+04  0.21335429631E+04  0.65864270000E+03 0. -1.
    8880022    1    1    2    0    0 -0.71640406742E+03  0.85907743495E+03  0.11555243500E+03  0.11348977246E+04  0.15294330000E+03 0. -1.
<mgrwt>
<rscale>  0 0.12535860E+04</rscale>
<asrwt>0</asrwt>
<pdfrwt beam="1">  1        2 0.37277648E+00 0.12980982E+04</pdfrwt>
<pdfrwt beam="2">  1       -2 0.13006055E+00 0.12980982E+04</pdfrwt>
<totfact> 0.16186550E+00</totfact>
</mgrwt>
</event>
<event>
 4    1  0.2051094E-007  0.8424457E+03  0.7818608E-02  0.9625586E-01
          2   -1    0    0  501    0  0.00000000000E+00  0.00000000000E+00  0.14103102496E+04  0.14103102496E+04  0.25500000000E-02 0. -1.
         -2   -1    0    0    0  501 -0.00000000000E+00 -0.00000000000E+00 -0.69299212370E+03  0.69299212371E+03  0.25500000000E-02 0.  1.
    8880023    1    1    2    0    0 -0.52267317717E+03  0.52127186217E+02  0.11360771873E+04  0.14143500541E+04  0.65864270000E+03 0. -1.
    8880022    1    1    2    0    0  0.52267317717E+03 -0.52127186217E+02 -0.41875906141E+03  0.68895231925E+03  0.15294330000E+03 0.  0.
<mgrwt>
<rscale>  0 0.75625641E+03</rscale>
<asrwt>0</asrwt>
<pdfrwt beam="1">  1        2 0.21697081E+00 0.84244567E+03</pdfrwt>
<pdfrwt beam="2">  1       -2 0.10661417E+00 0.84244567E+03</pdfrwt>
<totfact> 0.10230138E+01</totfact>
</mgrwt>
</event>
<event>
 4    1  0.2106768E-007  0.9299537E+03  0.7818608E-02  0.9479563E-01
         -2   -1    0    0    0  501 -0.00000000000E+00  0.00000000000E+00  0.16524079602E+04  0.16524079602E+04  0.25500000000E-02 0.  1.
          2   -1    0    0  501    0  0.00000000000E+00 -0.00000000000E+00 -0.20738222499E+04  0.20738222499E+04  0.25500000000E-02 0. -1.
    8880023    1    1    2    0    0  0.62218765787E+03 -0.20949051422E+03 -0.18921756048E+04  0.21083506546E+04  0.65864270000E+03 0. -1.
    8880022    1    1    2    0    0 -0.62218765787E+03  0.20949051422E+03  0.14707613151E+04  0.16178795555E+04  0.15294330000E+03 0.  0.
<mgrwt>
<rscale>  0 0.85807501E+03</rscale>
<asrwt>0</asrwt>
<pdfrwt beam="1">  1        2 0.31904958E+00 0.92995374E+03</pdfrwt>
<pdfrwt beam="2">  1       -2 0.25421661E+00 0.92995374E+03</pdfrwt>
<totfact> 0.37439351E-01</totfact>
</mgrwt>
</event>
<event>
 4    1  0.2051094E-007  0.7346747E+03  0.7818608E-02  0.9875740E-01
          2   -1    0    0  501    0  0.00000000000E+00  0.00000000000E+00  0.79808460509E+03  0.79808460509E+03  0.25500000000E-02 0. -1.
         -2   -1    0    0    0  501 -0.00000000000E+00 -0.00000000000E+00 -0.10024328940E+04  0.10024328940E+04  0.25500000000E-02 0.  1.
    8880023    1    1    2    0    0  0.31526217714E+03 -0.80910045628E+02  0.58106498337E+03  0.93668745961E+03  0.65864270000E+03 0.  0.
    8880022    1    1    2    0    0 -0.31526217714E+03  0.80910045628E+02 -0.78541327225E+03  0.86383003946E+03  0.15294330000E+03 0.  0.
<mgrwt>
<rscale>  0 0.61451574E+03</rscale>
<asrwt>0</asrwt>
<pdfrwt beam="1">  1        2 0.12278225E+00 0.73467468E+03</pdfrwt>
<pdfrwt beam="2">  1       -2 0.15422045E+00 0.73467468E+03</pdfrwt>
<totfact> 0.97911401E+00</totfact>
</mgrwt>
</event>
<event>
 4    1  0.2051094E-007  0.1288660E+04  0.7818608E-02  0.9075415E-01
         -2   -1    0    0    0  501 -0.00000000000E+00  0.00000000000E+00  0.30350861441E+04  0.30350861441E+04  0.25500000000E-02 0.  1.
          2   -1    0    0  501    0  0.00000000000E+00 -0.00000000000E+00 -0.13572535045E+04  0.13572535045E+04  0.25500000000E-02 0. -1.
    8880023    1    1    2    0    0 -0.94697858914E+03  0.57451266205E+03  0.26267483682E+04  0.29258247458E+04  0.65864270000E+03 0.  1.
    8880022    1    1    2    0    0  0.94697858914E+03 -0.57451266205E+03 -0.94891572856E+03  0.14665149028E+04  0.15294330000E+03 0.  0.
<mgrwt>
<rscale>  0 0.12437330E+04</rscale>
<asrwt>0</asrwt>
<pdfrwt beam="1">  1        2 0.20880823E+00 0.12886596E+04</pdfrwt>
<pdfrwt beam="2">  1       -2 0.46693632E+00 0.12886596E+04</pdfrwt>
<totfact> 0.39797738E-02</totfact>
</mgrwt>
</event>
<event>
 4    1  0.2051094E-007  0.1016591E+04  0.7818608E-02  0.9360167E-01
          2   -1    0    0  501    0  0.00000000000E+00  0.00000000000E+00  0.64181007678E+03  0.64181007679E+03  0.25500000000E-02 0. -1.
         -2   -1    0    0    0  501 -0.00000000000E+00 -0.00000000000E+00 -0.13642738893E+04  0.13642738893E+04  0.25500000000E-02 0.  1.
    8880023    1    1    2    0    0  0.65268075388E+03 -0.41671820240E+03 -0.14235232369E+03  0.10265089464E+04  0.65864270000E+03 0.  0.
    8880022    1    1    2    0    0 -0.65268075388E+03  0.41671820240E+03 -0.58011148878E+03  0.97957501965E+03  0.15294330000E+03 0.  0.
<mgrwt>
<rscale>  0 0.95427571E+03</rscale>
<asrwt>0</asrwt>
<pdfrwt beam="1">  1        2 0.98740012E-01 0.10165906E+04</pdfrwt>
<pdfrwt beam="2">  1       -2 0.20988829E+00 0.10165906E+04</pdfrwt>
<totfact> 0.52023775E+00</totfact>
</mgrwt>
</event>
<event>
 4    1  0.2051094E-007  0.8136294E+03  0.7818608E-02  0.9682066E-01
         -2   -1    0    0    0  501 -0.00000000000E+00  0.00000000000E+00  0.51426144970E+03  0.51426144971E+03  0.25500000000E-02 0.  1.
          2   -1    0    0  501    0  0.00000000000E+00 -0.00000000000E+00 -0.15714494551E+04  0.15714494551E+04  0.25500000000E-02 0. -1.
    8880023    1    1    2    0    0  0.44550422451E+03 -0.17236188181E+03 -0.12959660008E+04  0.15302028342E+04  0.65864270000E+03 0. -1.
    8880022    1    1    2    0    0 -0.44550422451E+03  0.17236188181E+03  0.23877799542E+03  0.55550807057E+03  0.15294330000E+03 0.  0.
<mgrwt>
<rscale>  0 0.72094688E+03</rscale>
<asrwt>0</asrwt>
<pdfrwt beam="1">  1        2 0.24176145E+00 0.81362942E+03</pdfrwt>
<pdfrwt beam="2">  1       -2 0.79117147E-01 0.81362942E+03</pdfrwt>
<totfact> 0.16685594E+01</totfact>
</mgrwt>
</event>
<event>
 4    1  0.2051094E-007  0.9691662E+03  0.7818608E-02  0.9423058E-01
          2   -1    0    0  501    0  0.00000000000E+00  0.00000000000E+00  0.31354172564E+04  0.31354172564E+04  0.25500000000E-02 0. -1.
         -2   -1    0    0    0  501 -0.00000000000E+00 -0.00000000000E+00 -0.43878581295E+03  0.43878581295E+03  0.25500000000E-02 0.  1.
    8880023    1    1    2    0    0 -0.40958969884E+03 -0.58112754606E+03  0.26766404218E+04  0.28466975779E+04  0.65864270000E+03 0.  0.
    8880022    1    1    2    0    0  0.40958969884E+03  0.58112754606E+03  0.19991021691E+02  0.72750549149E+03  0.15294330000E+03 0.  0.
<mgrwt>
<rscale>  0 0.90202124E+03</rscale>
<asrwt>0</asrwt>
<pdfrwt beam="1">  1        2 0.48237188E+00 0.96916622E+03</pdfrwt>
<pdfrwt beam="2">  1       -2 0.67505511E-01 0.96916622E+03</pdfrwt>
<totfact> 0.29610797E+00</totfact>
</mgrwt>
</event>
<event>
 4    1  0.2051094E-007  0.7378591E+03  0.7818608E-02  0.9866228E-01
         -2   -1    0    0    0  501 -0.00000000000E+00  0.00000000000E+00  0.96187511147E+03  0.96187511147E+03  0.25500000000E-02 0.  1.
          2   -1    0    0  501    0  0.00000000000E+00 -0.00000000000E+00 -0.10740096936E+04  0.10740096936E+04  0.25500000000E-02 0. -1.
    8880023    1    1    2    0    0  0.24865991506E+03 -0.22089399201E+03 -0.90197481846E+03  0.11653302916E+04  0.65864270000E+03 0. -1.
    8880022    1    1    2    0    0 -0.24865991506E+03  0.22089399201E+03  0.78984023632E+03  0.87055451351E+03  0.15294330000E+03 0.  0.
<mgrwt>
<rscale>  0 0.61926326E+03</rscale>
<asrwt>0</asrwt>
<pdfrwt beam="1">  1        2 0.16523226E+00 0.73785914E+03</pdfrwt>
<pdfrwt beam="2">  1       -2 0.14798079E+00 0.73785914E+03</pdfrwt>
<totfact> 0.71691076E+00</totfact>
</mgrwt>
</event>
<event>
 4    1  0.2051094E-007  0.1130984E+04  0.7818608E-02  0.9227319E-01
          2   -1    0    0  501    0  0.00000000000E+00  0.00000000000E+00  0.45525933201E+04  0.45525933201E+04  0.25500000000E-02 0. -1.
         -2   -1    0    0    0  501 -0.00000000000E+00 -0.00000000000E+00 -0.57483213806E+03  0.57483213806E+03  0.25500000000E-02 0.  1.
    8880023    1    1    2    0    0 -0.73796413913E+03 -0.54838216396E+03  0.40380401077E+04  0.41934344141E+04  0.65864270000E+03 0.  0.
    8880022    1    1    2    0    0  0.73796413913E+03  0.54838216396E+03 -0.60278925626E+02  0.93399104401E+03  0.15294330000E+03 0.  0.
<mgrwt>
<rscale>  0 0.10775846E+04</rscale>
<asrwt>0</asrwt>
<pdfrwt beam="1">  1        2 0.70039894E+00 0.11309838E+04</pdfrwt>
<pdfrwt beam="2">  1       -2 0.88435718E-01 0.11309838E+04</pdfrwt>
<totfact> 0.12579474E-01</totfact>
</mgrwt>
</event>
<event>
 4    1  0.2051094E-007  0.8729748E+03  0.7818608E-02  0.9570888E-01
          2   -1    0    0  501    0  0.00000000000E+00  0.00000000000E+00  0.85104420268E+03  0.85104420269E+03  0.25500000000E-02 0. -1.
         -2   -1    0    0    0  501 -0.00000000000E+00 -0.00000000000E+00 -0.14120171146E+04  0.14120171146E+04  0.25500000000E-02 0.  1.
    8880023    1    1    2    0    0  0.33050616753E+03 -0.46801753255E+03  0.53004796213E+03  0.10212912346E+04  0.65864270000E+03 0. -1.
    8880022    1    1    2    0    0 -0.33050616753E+03  0.46801753255E+03 -0.10910208741E+04  0.12417700827E+04  0.15294330000E+03 0.  0.
<mgrwt>
<rscale>  0 0.79253350E+03</rscale>
<asrwt>0</asrwt>
<pdfrwt beam="1">  1        2 0.13092988E+00 0.87297477E+03</pdfrwt>
<pdfrwt beam="2">  1       -2 0.21723340E+00 0.87297477E+03</pdfrwt>
<totfact> 0.32888706E+00</totfact>
</mgrwt>
</event>
<event>
 4    1  0.2051094E-007  0.9052082E+03  0.7818608E-02  0.9517722E-01
          2   -1    0    0  501    0  0.00000000000E+00  0.00000000000E+00  0.19859652540E+04  0.19859652540E+04  0.25500000000E-02 0. -1.
         -2   -1    0    0    0  501 -0.00000000000E+00 -0.00000000000E+00 -0.48800189667E+03  0.48800189668E+03  0.25500000000E-02 0.  1.
    8880023    1    1    2    0    0 -0.37184695843E+03  0.49731424365E+03  0.15882598734E+04  0.18281059185E+04  0.65864270000E+03 0.  0.
    8880022    1    1    2    0    0  0.37184695843E+03 -0.49731424365E+03 -0.90296516073E+02  0.64586123221E+03  0.15294330000E+03 0.  0.
<mgrwt>
<rscale>  0 0.82989766E+03</rscale>
<asrwt>0</asrwt>
<pdfrwt beam="1">  1        2 0.30553312E+00 0.90520817E+03</pdfrwt>
<pdfrwt beam="2">  1       -2 0.75077213E-01 0.90520817E+03</pdfrwt>
<totfact> 0.10983425E+01</totfact>
</mgrwt>
</event>
<event>
 4    1  0.2051094E-007  0.1796373E+04  0.7818608E-02  0.8724545E-01
         -2   -1    0    0    0  501 -0.00000000000E+00  0.00000000000E+00  0.15508321681E+04  0.15508321681E+04  0.25500000000E-02 0.  1.
          2   -1    0    0  501    0  0.00000000000E+00 -0.00000000000E+00 -0.29749043928E+04  0.29749043928E+04  0.25500000000E-02 0. -1.
    8880023    1    1    2    0    0 -0.16059213885E+04  0.46277645248E+03 -0.20580193859E+04  0.27317392903E+04  0.65864270000E+03 0. -1.
    8880022    1    1    2    0    0  0.16059213885E+04 -0.46277645248E+03  0.63394716117E+03  0.17939972706E+04  0.15294330000E+03 0.  0.
<mgrwt>
<rscale>  0 0.17660859E+04</rscale>
<asrwt>0</asrwt>
<pdfrwt beam="1">  1        2 0.45767760E+00 0.17963729E+04</pdfrwt>
<pdfrwt beam="2">  1       -2 0.23858957E+00 0.17963729E+04</pdfrwt>
<totfact> 0.12388811E-01</totfact>
</mgrwt>
</event>
<event>
 4    1  0.2051094E-007  0.7256997E+03  0.7818608E-02  0.9903752E-01
          2   -1    0    0  501    0  0.00000000000E+00  0.00000000000E+00  0.31459154194E+04  0.31459154194E+04  0.25500000000E-02 0. -1.
         -2   -1    0    0    0  501 -0.00000000000E+00 -0.00000000000E+00 -0.22260382885E+03  0.22260382886E+03  0.25500000000E-02 0.  1.
    8880023    1    1    2    0    0 -0.13389614592E+03 -0.27368168230E+03  0.29389765450E+04  0.30272467985E+04  0.65864270000E+03 0. -1.
    8880022    1    1    2    0    0  0.13389614592E+03  0.27368168230E+03 -0.15664954427E+02  0.34127244971E+03  0.15294330000E+03 0.  0.
<mgrwt>
<rscale>  0 0.60079805E+03</rscale>
<asrwt>0</asrwt>
<pdfrwt beam="1">  1        2 0.48398693E+00 0.72569970E+03</pdfrwt>
<pdfrwt beam="2">  1       -2 0.34246747E-01 0.72569970E+03</pdfrwt>
<totfact> 0.12029180E+01</totfact>
</mgrwt>
</event>
<event>
 4    1  0.2051094E-007  0.7597665E+03  0.7818608E-02  0.9805712E-01
         -2   -1    0    0    0  501 -0.00000000000E+00  0.00000000000E+00  0.29788381465E+03  0.29788381466E+03  0.25500000000E-02 0.  1.
          2   -1    0    0  501    0  0.00000000000E+00 -0.00000000000E+00 -0.13248603846E+04  0.13248603846E+04  0.25500000000E-02 0. -1.
    8880023    1    1    2    0    0  0.35402802563E+03 -0.13453258875E+03 -0.93374275794E+03  0.12037942535E+04  0.65864270000E+03 0. -1.
    8880022    1    1    2    0    0 -0.35402802563E+03  0.13453258875E+03 -0.93233811993E+02  0.41894994580E+03  0.15294330000E+03 0.  0.
<mgrwt>
<rscale>  0 0.65056878E+03</rscale>
<asrwt>0</asrwt>
<pdfrwt beam="1">  1        2 0.20382467E+00 0.75976646E+03</pdfrwt>
<pdfrwt beam="2">  1       -2 0.45828280E-01 0.75976646E+03</pdfrwt>
<totfact> 0.73413251E+01</totfact>
</mgrwt>
</event>
<event>
 4    1  0.2051094E-007  0.8937131E+03  0.7818608E-02  0.9536200E-01
          2   -1    0    0  501    0  0.00000000000E+00  0.00000000000E+00  0.44990064567E+03  0.44990064568E+03  0.25500000000E-02 0. -1.
         -2   -1    0    0    0  501 -0.00000000000E+00 -0.00000000000E+00 -0.36214472176E+04  0.36214472176E+04  0.25500000000E-02 0.  1.
    8880023    1    1    2    0    0 -0.32206195541E+03 -0.51106657185E+03 -0.57494515355E+02  0.89556058954E+03  0.65864270000E+03 0.  0.
    8880022    1    1    2    0    0  0.32206195541E+03  0.51106657185E+03 -0.31140520565E+04  0.31757872737E+04  0.15294330000E+03 0.  0.
<mgrwt>
<rscale>  0 0.81666730E+03</rscale>
<asrwt>0</asrwt>
<pdfrwt beam="1">  1        2 0.69215486E-01 0.89371313E+03</pdfrwt>
<pdfrwt beam="2">  1       -2 0.55714571E+00 0.89371313E+03</pdfrwt>
<totfact> 0.55155127E-02</totfact>
</mgrwt>
</event>
<event>
 4    1  0.2051094E-007  0.8632338E+03  0.7818608E-02  0.9587837E-01
          2   -1    0    0  501    0  0.00000000000E+00  0.00000000000E+00  0.15314097003E+04  0.15314097003E+04  0.25500000000E-02 0. -1.
         -2   -1    0    0    0  501 -0.00000000000E+00 -0.00000000000E+00 -0.75692298702E+03  0.75692298702E+03  0.25500000000E-02 0.  1.
    8880023    1    1    2    0    0  0.39659677476E+03  0.39252180523E+03  0.12638727084E+04  0.15305380749E+04  0.65864270000E+03 0. -1.
    8880022    1    1    2    0    0 -0.39659677476E+03 -0.39252180523E+03 -0.48938599516E+03  0.75779461241E+03  0.15294330000E+03 0.  0.
<mgrwt>
<rscale>  0 0.78106477E+03</rscale>
<asrwt>0</asrwt>
<pdfrwt beam="1">  1        2 0.23560149E+00 0.86323379E+03</pdfrwt>
<pdfrwt beam="2">  1       -2 0.11644969E+00 0.86323379E+03</pdfrwt>
<totfact> 0.70396906E+00</totfact>
</mgrwt>
</event>
<event>
 4    1  0.2051094E-007  0.6717761E+03  0.7818608E-02  0.1014420E+00
         -2   -1    0    0    0  501 -0.00000000000E+00  0.00000000000E+00  0.49822555862E+03  0.49822555863E+03  0.25500000000E-02 0.  1.
          2   -1    0    0  501    0  0.00000000000E+00 -0.00000000000E+00 -0.14585808684E+04  0.14585808684E+04  0.25500000000E-02 0. -1.
    8880023    1    1    2    0    0 -0.75592718824E+02 -0.10843749894E+03 -0.13555684506E+04  0.15128942398E+04  0.65864270000E+03 0.  0.
    8880022    1    1    2    0    0  0.75592718824E+02  0.10843749894E+03  0.39521314079E+03  0.44391218725E+03  0.15294330000E+03 0.  1.
<mgrwt>
<rscale>  0 0.49755012E+03</rscale>
<asrwt>0</asrwt>
<pdfrwt beam="1">  1        2 0.22439705E+00 0.67177612E+03</pdfrwt>
<pdfrwt beam="2">  1       -2 0.76650087E-01 0.67177612E+03</pdfrwt>
<totfact> 0.21065038E+01</totfact>
</mgrwt>
</event>
<event>
 4    1  0.2051094E-007  0.1183955E+04  0.7818608E-02  0.9172879E-01
         -2   -1    0    0    0  501 -0.00000000000E+00  0.00000000000E+00  0.83770377183E+03  0.83770377184E+03  0.25500000000E-02 0.  1.
          2   -1    0    0  501    0  0.00000000000E+00 -0.00000000000E+00 -0.21344798107E+04  0.21344798107E+04  0.25500000000E-02 0. -1.
    8880023    1    1    2    0    0  0.64096169231E+03  0.74639624755E+03 -0.15445890986E+04  0.19461513146E+04  0.65864270000E+03 0. -1.
    8880022    1    1    2    0    0 -0.64096169231E+03 -0.74639624755E+03  0.24781305974E+03  0.10260322680E+04  0.15294330000E+03 0.  0.
<mgrwt>
<rscale>  0 0.11337798E+04</rscale>
<asrwt>0</asrwt>
<pdfrwt beam="1">  1        2 0.32838151E+00 0.11839550E+04</pdfrwt>
<pdfrwt beam="2">  1       -2 0.12887750E+00 0.11839550E+04</pdfrwt>
<totfact> 0.24402183E+00</totfact>
</mgrwt>
</event>
<event>
 4    1  0.2051094E-007  0.1656225E+04  0.7818608E-02  0.8806536E-01
          2   -1    0    0  501    0  0.00000000000E+00  0.00000000000E+00  0.21192026235E+04  0.21192026235E+04  0.25500000000E-02 0. -1.
         -2   -1    0    0    0  501 -0.00000000000E+00 -0.00000000000E+00 -0.16800600303E+04  0.16800600303E+04  0.25500000000E-02 0.  1.
    8880023    1    1    2    0    0  0.46561683222E+03 -0.14465383117E+04  0.12453878213E+04  0.20722145529E+04  0.65864270000E+03 0.  0.
    8880022    1    1    2    0    0 -0.46561683222E+03  0.14465383117E+04 -0.80624522806E+03  0.17270481008E+04  0.15294330000E+03 0.  0.
<mgrwt>
<rscale>  0 0.16230096E+04</rscale>
<asrwt>0</asrwt>
<pdfrwt beam="1">  1        2 0.32603117E+00 0.16562253E+04</pdfrwt>
<pdfrwt beam="2">  1       -2 0.25847077E+00 0.16562253E+04</pdfrwt>
<totfact> 0.30116424E-01</totfact>
</mgrwt>
</event>
<event>
 4    1  0.2051094E-007  0.6886723E+03  0.7818608E-02  0.1004790E+00
          2   -1    0    0  501    0  0.00000000000E+00  0.00000000000E+00  0.29321718682E+04  0.29321718682E+04  0.25500000000E-02 0. -1.
         -2   -1    0    0    0  501 -0.00000000000E+00 -0.00000000000E+00 -0.12801419401E+03  0.12801419403E+03  0.25500000000E-02 0.  1.
    8880023    1    1    2    0    0  0.18827102135E+03 -0.70805397280E+02  0.27007290292E+04  0.27871503148E+04  0.65864270000E+03 0. -1.
    8880022    1    1    2    0    0 -0.18827102135E+03  0.70805397280E+02  0.10342864500E+03  0.27303574745E+03  0.15294330000E+03 0.  0.
<mgrwt>
<rscale>  0 0.53598850E+03</rscale>
<asrwt>0</asrwt>
<pdfrwt beam="1">  1        2 0.45110336E+00 0.68867234E+03</pdfrwt>
<pdfrwt beam="2">  1       -2 0.19694492E-01 0.68867234E+03</pdfrwt>
<totfact> 0.44751005E+01</totfact>
</mgrwt>
</event>
<event>
 4    1  0.2051094E-007  0.8001777E+03  0.7818608E-02  0.9710412E-01
         -2   -1    0    0    0  501 -0.00000000000E+00  0.00000000000E+00  0.19829315888E+04  0.19829315888E+04  0.25500000000E-02 0.  1.
          2   -1    0    0  501    0  0.00000000000E+00 -0.00000000000E+00 -0.12799035866E+04  0.12799035866E+04  0.25500000000E-02 0. -1.
    8880023    1    1    2    0    0 -0.16517509817E+03  0.42330990852E+03 -0.11207528828E+04  0.13770879864E+04  0.65864270000E+03 0.  0.
    8880022    1    1    2    0    0  0.16517509817E+03 -0.42330990852E+03  0.18237808849E+04  0.18857471890E+04  0.15294330000E+03 0.  0.
<mgrwt>
<rscale>  0 0.70400234E+03</rscale>
<asrwt>0</asrwt>
<pdfrwt beam="1">  1        2 0.19690824E+00 0.80017767E+03</pdfrwt>
<pdfrwt beam="2">  1       -2 0.30506640E+00 0.80017767E+03</pdfrwt>
<totfact> 0.52328619E-01</totfact>
</mgrwt>
</event>
<event>
 4    1  0.2051094E-007  0.6709866E+03  0.7818608E-02  0.1014965E+00
          2   -1    0    0  501    0  0.00000000000E+00  0.00000000000E+00  0.37953222702E+04  0.37953222702E+04  0.25500000000E-02 0. -1.
         -2   -1    0    0    0  501 -0.00000000000E+00 -0.00000000000E+00 -0.14588089514E+04  0.14588089514E+04  0.25500000000E-02 0.  1.
    8880023    1    1    2    0    0  0.48630866875E+02  0.11852361875E+03  0.37586481040E+04  0.38180700079E+04  0.65864270000E+03 0. -1.
    8880022    1    1    2    0    0 -0.48630866875E+02 -0.11852361875E+03 -0.14221347851E+04  0.14360612137E+04  0.15294330000E+03 0.  0.
<mgrwt>
<rscale>  0 0.49548083E+03</rscale>
<asrwt>0</asrwt>
<pdfrwt beam="1">  1        2 0.58389572E+00 0.67098660E+03</pdfrwt>
<pdfrwt beam="2">  1       -2 0.22443215E+00 0.67098660E+03</pdfrwt>
<totfact> 0.52603491E-02</totfact>
</mgrwt>
</event>
<event>
 4    1  0.2051094E-007  0.7391556E+03  0.7818608E-02  0.9862414E-01
          2   -1    0    0  501    0  0.00000000000E+00  0.00000000000E+00  0.16319598680E+04  0.16319598680E+04  0.25500000000E-02 0. -1.
         -2   -1    0    0    0  501 -0.00000000000E+00 -0.00000000000E+00 -0.21907641131E+04  0.21907641131E+04  0.25500000000E-02 0.  1.
    8880023    1    1    2    0    0 -0.20600002458E+03 -0.26477317499E+03  0.15312940476E+04  0.17003565835E+04  0.65864270000E+03 0. -1.
    8880022    1    1    2    0    0  0.20600002458E+03  0.26477317499E+03 -0.20900982927E+04  0.21223673976E+04  0.15294330000E+03 0.  0.
<mgrwt>
<rscale>  0 0.62117981E+03</rscale>
<asrwt>0</asrwt>
<pdfrwt beam="1">  1        2 0.25107075E+00 0.73915563E+03</pdfrwt>
<pdfrwt beam="2">  1       -2 0.33704064E+00 0.73915563E+03</pdfrwt>
<totfact> 0.21487541E-01</totfact>
</mgrwt>
</event>
<event>
 4    1  0.2051094E-007  0.9525735E+03  0.7818608E-02  0.9446421E-01
          2   -1    0    0  501    0  0.00000000000E+00  0.00000000000E+00  0.18110026569E+04  0.18110026569E+04  0.25500000000E-02 0. -1.
         -2   -1    0    0    0  501 -0.00000000000E+00 -0.00000000000E+00 -0.77538466463E+03  0.77538466463E+03  0.25500000000E-02 0.  1.
    8880023    1    1    2    0    0  0.52070705308E+03  0.44994461096E+03  0.14748911170E+04  0.17557619432E+04  0.65864270000E+03 0. -1.
    8880022    1    1    2    0    0 -0.52070705308E+03 -0.44994461096E+03 -0.43927312468E+03  0.83062537834E+03  0.15294330000E+03 0.  0.
<mgrwt>
<rscale>  0 0.88351914E+03</rscale>
<asrwt>0</asrwt>
<pdfrwt beam="1">  1        2 0.27861579E+00 0.95257346E+03</pdfrwt>
<pdfrwt beam="2">  1       -2 0.11928995E+00 0.95257346E+03</pdfrwt>
<totfact> 0.45970093E+00</totfact>
</mgrwt>
</event>
<event>
 4    1  0.2051094E-007  0.7375139E+03  0.7818608E-02  0.9867249E-01
         -2   -1    0    0    0  501 -0.00000000000E+00  0.00000000000E+00  0.14859767171E+03  0.14859767173E+03  0.25500000000E-02 0.  1.
          2   -1    0    0  501    0  0.00000000000E+00 -0.00000000000E+00 -0.36230346407E+04  0.36230346407E+04  0.25500000000E-02 0. -1.
    8880023    1    1    2    0    0 -0.16783859022E+03 -0.28626335338E+03 -0.32716432669E+04  0.33537406536E+04  0.65864270000E+03 0.  0.
    8880022    1    1    2    0    0  0.16783859022E+03  0.28626335338E+03 -0.20279370211E+03  0.41789165879E+03  0.15294330000E+03 0.  0.
<mgrwt>
<rscale>  0 0.61875129E+03</rscale>
<asrwt>0</asrwt>
<pdfrwt beam="1">  1        2 0.55738988E+00 0.73751387E+03</pdfrwt>
<pdfrwt beam="2">  1       -2 0.22861183E-01 0.73751387E+03</pdfrwt>
<totfact> 0.12153660E+01</totfact>
</mgrwt>
</event>
<event>
 4    1  0.2051094E-007  0.7445540E+03  0.7818608E-02  0.9846875E-01
          2   -1    0    0  501    0  0.00000000000E+00  0.00000000000E+00  0.10091501845E+04  0.10091501845E+04  0.25500000000E-02 0. -1.
         -2   -1    0    0    0  501 -0.00000000000E+00 -0.00000000000E+00 -0.59713122401E+03  0.59713122401E+03  0.25500000000E-02 0.  1.
    8880023    1    1    2    0    0  0.15743710807E+03 -0.30945752850E+03  0.77959833779E+03  0.10780232741E+04  0.65864270000E+03 0. -1.
    8880022    1    1    2    0    0 -0.15743710807E+03  0.30945752850E+03 -0.36757937731E+03  0.52825813441E+03  0.15294330000E+03 0.  0.
<mgrwt>
<rscale>  0 0.62906511E+03</rscale>
<asrwt>0</asrwt>
<pdfrwt beam="1">  1        2 0.15525387E+00 0.74455397E+03</pdfrwt>
<pdfrwt beam="2">  1       -2 0.91866343E-01 0.74455397E+03</pdfrwt>
<totfact> 0.25467568E+01</totfact>
</mgrwt>
</event>
<event>
 4    1  0.2051094E-007  0.1074964E+04  0.7818608E-02  0.9289457E-01
          2   -1    0    0  501    0  0.00000000000E+00  0.00000000000E+00  0.28674530835E+04  0.28674530835E+04  0.25500000000E-02 0. -1.
         -2   -1    0    0    0  501 -0.00000000000E+00 -0.00000000000E+00 -0.39146493451E+03  0.39146493452E+03  0.25500000000E-02 0.  1.
    8880023    1    1    2    0    0 -0.79805576262E+02 -0.84579415238E+03  0.20064624800E+04  0.22762773487E+04  0.65864270000E+03 0.  0.
    8880022    1    1    2    0    0  0.79805576262E+02  0.84579415238E+03  0.46952566902E+03  0.98264066937E+03  0.15294330000E+03 0.  0.
<mgrwt>
<rscale>  0 0.10175933E+04</rscale>
<asrwt>0</asrwt>
<pdfrwt beam="1">  1        2 0.44114661E+00 0.10749637E+04</pdfrwt>
<pdfrwt beam="2">  1       -2 0.60225377E-01 0.10749637E+04</pdfrwt>
<totfact> 0.54562365E+00</totfact>
</mgrwt>
</event>
<event>
 4    1  0.2051094E-007  0.7112599E+03  0.7818608E-02  0.9953352E-01
          2   -1    0    0  501    0  0.00000000000E+00  0.00000000000E+00  0.16333604625E+04  0.16333604625E+04  0.25500000000E-02 0. -1.
         -2   -1    0    0    0  501 -0.00000000000E+00 -0.00000000000E+00 -0.32948843129E+03  0.32948843130E+03  0.25500000000E-02 0.  1.
    8880023    1    1    2    0    0 -0.12192018265E+03  0.23919843604E+03  0.14545081861E+04  0.16190999637E+04  0.65864270000E+03 0. -1.
    8880022    1    1    2    0    0  0.12192018265E+03 -0.23919843604E+03 -0.15063615493E+03  0.34374893007E+03  0.15294330000E+03 0.  0.
<mgrwt>
<rscale>  0 0.57743856E+03</rscale>
<asrwt>0</asrwt>
<pdfrwt beam="1">  1        2 0.25128623E+00 0.71125989E+03</pdfrwt>
<pdfrwt beam="2">  1       -2 0.50690527E-01 0.71125989E+03</pdfrwt>
<totfact> 0.40456830E+01</totfact>
</mgrwt>
</event>
<event>
 4    1  0.2051094E-007  0.1058867E+04  0.7818608E-02  0.9308297E-01
          2   -1    0    0  501    0  0.00000000000E+00  0.00000000000E+00  0.16262860939E+04  0.16262860939E+04  0.25500000000E-02 0. -1.
         -2   -1    0    0    0  501 -0.00000000000E+00 -0.00000000000E+00 -0.71889871079E+03  0.71889871080E+03  0.25500000000E-02 0.  1.
    8880023    1    1    2    0    0 -0.33797929907E+03 -0.75707245103E+03 -0.61741096644E+02  0.10606652969E+04  0.65864270000E+03 0.  0.
    8880022    1    1    2    0    0  0.33797929907E+03  0.75707245103E+03  0.96912847977E+03  0.12845195078E+04  0.15294330000E+03 0.  0.
<mgrwt>
<rscale>  0 0.10002255E+04</rscale>
<asrwt>0</asrwt>
<pdfrwt beam="1">  1        2 0.25019786E+00 0.10588668E+04</pdfrwt>
<pdfrwt beam="2">  1       -2 0.11059980E+00 0.10588668E+04</pdfrwt>
<totfact> 0.69165779E+00</totfact>
</mgrwt>
</event>
<event>
 4    1  0.2384287E-007  0.1218279E+04  0.7818608E-02  0.9139555E-01
          2   -1    0    0  501    0  0.00000000000E+00  0.00000000000E+00  0.33367223018E+04  0.33367223018E+04  0.25500000000E-02 0. -1.
         -2   -1    0    0    0  501 -0.00000000000E+00 -0.00000000000E+00 -0.13927023575E+04  0.13927023575E+04  0.25500000000E-02 0.  1.
    8880023    1    1    2    0    0  0.60322471405E+03 -0.82856124120E+03  0.30073137165E+04  0.32447095065E+04  0.65864270000E+03 0.  0.
    8880022    1    1    2    0    0 -0.60322471405E+03  0.82856124120E+03 -0.10632937721E+04  0.14847151528E+04  0.15294330000E+03 0.  0.
<mgrwt>
<rscale>  0 0.11699702E+04</rscale>
<asrwt>0</asrwt>
<pdfrwt beam="1">  1        2 0.51334188E+00 0.12182791E+04</pdfrwt>
<pdfrwt beam="2">  1       -2 0.21426191E+00 0.12182791E+04</pdfrwt>
<totfact> 0.11159882E-01</totfact>
</mgrwt>
</event>
<event>
 4    1  0.2051094E-007  0.1513595E+04  0.7818608E-02  0.8900095E-01
         -2   -1    0    0    0  501 -0.00000000000E+00  0.00000000000E+00  0.15480547142E+04  0.15480547142E+04  0.25500000000E-02 0.  1.
          2   -1    0    0  501    0  0.00000000000E+00 -0.00000000000E+00 -0.20918246888E+04  0.20918246888E+04  0.25500000000E-02 0. -1.
    8880023    1    1    2    0    0  0.12872479533E+04  0.44738460538E+03 -0.13677585401E+04  0.20400328205E+04  0.65864270000E+03 0.  0.
    8880022    1    1    2    0    0 -0.12872479533E+04 -0.44738460538E+03  0.82398856553E+03  0.15998465825E+04  0.15294330000E+03 0.  0.
<mgrwt>
<rscale>  0 0.14767024E+04</rscale>
<asrwt>0</asrwt>
<pdfrwt beam="1">  1        2 0.32181918E+00 0.15135952E+04</pdfrwt>
<pdfrwt beam="2">  1       -2 0.23816226E+00 0.15135952E+04</pdfrwt>
<totfact> 0.42272945E-01</totfact>
</mgrwt>
</event>
<event>
 4    1  0.2051094E-007  0.9043747E+03  0.7818608E-02  0.9519045E-01
         -2   -1    0    0    0  501 -0.00000000000E+00  0.00000000000E+00  0.54496894379E+03  0.54496894379E+03  0.25500000000E-02 0.  1.
          2   -1    0    0  501    0  0.00000000000E+00 -0.00000000000E+00 -0.40569455589E+04  0.40569455589E+04  0.25500000000E-02 0. -1.
    8880023    1    1    2    0    0  0.47182688012E+03  0.40182426033E+03 -0.37967226845E+04  0.39029471801E+04  0.65864270000E+03 0.  0.
    8880022    1    1    2    0    0 -0.47182688012E+03 -0.40182426033E+03  0.28474606943E+03  0.69896732260E+03  0.15294330000E+03 0.  0.
<mgrwt>
<rscale>  0 0.82894156E+03</rscale>
<asrwt>0</asrwt>
<pdfrwt beam="1">  1        2 0.62414545E+00 0.90437467E+03</pdfrwt>
<pdfrwt beam="2">  1       -2 0.83841379E-01 0.90437467E+03</pdfrwt>
<totfact> 0.41107857E-01</totfact>
</mgrwt>
</event>
<event>
 4    1  0.2051094E-007  0.8317614E+03  0.7818608E-02  0.9645915E-01
         -2   -1    0    0    0  501 -0.00000000000E+00  0.00000000000E+00  0.58655298471E+03  0.58655298472E+03  0.25500000000E-02 0.  1.
          2   -1    0    0  501    0  0.00000000000E+00 -0.00000000000E+00 -0.17861387799E+04  0.17861387799E+04  0.25500000000E-02 0. -1.
    8880023    1    1    2    0    0  0.46976021834E+03  0.19324099242E+03 -0.15344348582E+04  0.17453702427E+04  0.65864270000E+03 0. -1.
    8880022    1    1    2    0    0 -0.46976021834E+03 -0.19324099242E+03  0.33484906296E+03  0.62732152193E+03  0.15294330000E+03 0.  0.
<mgrwt>
<rscale>  0 0.74330351E+03</rscale>
<asrwt>0</asrwt>
<pdfrwt beam="1">  1        2 0.27479058E+00 0.83176135E+03</pdfrwt>
<pdfrwt beam="2">  1       -2 0.90238921E-01 0.83176135E+03</pdfrwt>
<totfact> 0.93999574E+00</totfact>
</mgrwt>
</event>
<event>
 4    1  0.2051094E-007  0.7972753E+03  0.7818608E-02  0.9716719E-01
         -2   -1    0    0    0  501 -0.00000000000E+00  0.00000000000E+00  0.78686259176E+03  0.78686259177E+03  0.25500000000E-02 0.  1.
          2   -1    0    0  501    0  0.00000000000E+00 -0.00000000000E+00 -0.69743816632E+03  0.69743816632E+03  0.25500000000E-02 0. -1.
    8880023    1    1    2    0    0 -0.23596834051E+03  0.38230447202E+03 -0.31845725687E+03  0.85852373163E+03  0.65864270000E+03 0. -1.
    8880022    1    1    2    0    0  0.23596834051E+03 -0.38230447202E+03  0.40788168232E+03  0.62577702646E+03  0.15294330000E+03 0.  0.
<mgrwt>
<rscale>  0 0.70030042E+03</rscale>
<asrwt>0</asrwt>
<pdfrwt beam="1">  1        2 0.10729818E+00 0.79727534E+03</pdfrwt>
<pdfrwt beam="2">  1       -2 0.12105578E+00 0.79727534E+03</pdfrwt>
<totfact> 0.21589659E+01</totfact>
</mgrwt>
</event>
<event>
 4    1  0.2051094E-007  0.6645337E+03  0.7818608E-02  0.1019928E+00
         -2   -1    0    0    0  501 -0.00000000000E+00  0.00000000000E+00  0.11384775740E+03  0.11384775743E+03  0.25500000000E-02 0.  1.
          2   -1    0    0  501    0  0.00000000000E+00 -0.00000000000E+00 -0.16623544640E+04  0.16623544640E+04  0.25500000000E-02 0. -1.
    8880023    1    1    2    0    0 -0.75082870130E+02 -0.46447722221E+02 -0.13820780511E+04  0.15335399486E+04  0.65864270000E+03 0.  0.
    8880022    1    1    2    0    0  0.75082870130E+02  0.46447722221E+02 -0.16642865556E+03  0.24266227291E+03  0.15294330000E+03 0.  0.
<mgrwt>
<rscale>  0 0.47712652E+03</rscale>
<asrwt>0</asrwt>
<pdfrwt beam="1">  1        2 0.25574682E+00 0.66453370E+03</pdfrwt>
<pdfrwt beam="2">  1       -2 0.17515041E-01 0.66453370E+03</pdfrwt>
<totfact> 0.28301224E+02</totfact>
</mgrwt>
</event>
<event>
 4    1  0.2051094E-007  0.1168552E+04  0.7818608E-02  0.9188315E-01
          2   -1    0    0  501    0  0.00000000000E+00  0.00000000000E+00  0.72493032675E+03  0.72493032675E+03  0.25500000000E-02 0. -1.
         -2   -1    0    0    0  501 -0.00000000000E+00 -0.00000000000E+00 -0.25867287399E+04  0.25867287399E+04  0.25500000000E-02 0.  1.
    8880023    1    1    2    0    0  0.75772405981E+03 -0.59796164081E+03  0.44552431882E+02  0.11694011288E+04  0.65864270000E+03 0.  0.
    8880022    1    1    2    0    0 -0.75772405981E+03  0.59796164081E+03 -0.19063508450E+04  0.21422579378E+04  0.15294330000E+03 0.  0.
<mgrwt>
<rscale>  0 0.11174856E+04</rscale>
<asrwt>0</asrwt>
<pdfrwt beam="1">  1        2 0.11152774E+00 0.11685521E+04</pdfrwt>
<pdfrwt beam="2">  1       -2 0.39795826E+00 0.11685521E+04</pdfrwt>
<totfact> 0.29798855E-01</totfact>
</mgrwt>
</event>
<event>
 4    1  0.2051094E-007  0.7428981E+03  0.7818608E-02  0.9851584E-01
          2   -1    0    0  501    0  0.00000000000E+00  0.00000000000E+00  0.92001829593E+03  0.92001829594E+03  0.25500000000E-02 0. -1.
         -2   -1    0    0    0  501 -0.00000000000E+00 -0.00000000000E+00 -0.44312568815E+03  0.44312568816E+03  0.25500000000E-02 0.  1.
    8880023    1    1    2    0    0  0.33859916054E+03  0.58633810850E+02  0.61298390685E+03  0.96314422161E+03  0.65864270000E+03 0.  0.
    8880022    1    1    2    0    0 -0.33859916054E+03 -0.58633810850E+02 -0.13609129907E+03  0.39999976249E+03  0.15294330000E+03 0.  0.
<mgrwt>
<rscale>  0 0.62666206E+03</rscale>
<asrwt>0</asrwt>
<pdfrwt beam="1">  1        2 0.14154128E+00 0.74289806E+03</pdfrwt>
<pdfrwt beam="2">  1       -2 0.68173183E-01 0.74289806E+03</pdfrwt>
<totfact> 0.56819254E+01</totfact>
</mgrwt>
</event>
<event>
 4    1  0.2051094E-007  0.7909553E+03  0.7818608E-02  0.9730705E-01
          2   -1    0    0  501    0  0.00000000000E+00  0.00000000000E+00  0.11713774351E+04  0.11713774351E+04  0.25500000000E-02 0. -1.
         -2   -1    0    0    0  501 -0.00000000000E+00 -0.00000000000E+00 -0.80417632933E+03  0.80417632933E+03  0.25500000000E-02 0.  1.
    8880023    1    1    2    0    0  0.18496601346E+03  0.39697320896E+03  0.94645413774E+03  0.12334446870E+04  0.65864270000E+03 0. -1.
    8880022    1    1    2    0    0 -0.18496601346E+03 -0.39697320896E+03 -0.57925303197E+03  0.74210907744E+03  0.15294330000E+03 0.  0.
<mgrwt>
<rscale>  0 0.69217704E+03</rscale>
<asrwt>0</asrwt>
<pdfrwt beam="1">  1        2 0.18021191E+00 0.79095535E+03</pdfrwt>
<pdfrwt beam="2">  1       -2 0.12371944E+00 0.79095535E+03</pdfrwt>
<totfact> 0.98358275E+00</totfact>
</mgrwt>
</event>
<event>
 4    1  0.2051094E-007  0.9584597E+03  0.7818608E-02  0.9438045E-01
         -2   -1    0    0    0  501 -0.00000000000E+00  0.00000000000E+00  0.15756960198E+04  0.15756960198E+04  0.25500000000E-02 0.  1.
          2   -1    0    0  501    0  0.00000000000E+00 -0.00000000000E+00 -0.73405251101E+03  0.73405251102E+03  0.25500000000E-02 0. -1.
    8880023    1    1    2    0    0  0.69595760753E+03  0.21860213529E+02 -0.26403998332E+03  0.99416406064E+03  0.65864270000E+03 0.  0.
    8880022    1    1    2    0    0 -0.69595760753E+03 -0.21860213529E+02  0.11056834921E+04  0.13155844702E+04  0.15294330000E+03 0.  0.
<mgrwt>
<rscale>  0 0.89009748E+03</rscale>
<asrwt>0</asrwt>
<pdfrwt beam="1">  1        2 0.11293116E+00 0.95845974E+03</pdfrwt>
<pdfrwt beam="2">  1       -2 0.24241477E+00 0.95845974E+03</pdfrwt>
<totfact> 0.27643101E+00</totfact>
</mgrwt>
</event>
<event>
 4    1  0.2051094E-007  0.2140921E+04  0.7818608E-02  0.8554244E-01
         -2   -1    0    0    0  501 -0.00000000000E+00  0.00000000000E+00  0.17107446914E+04  0.17107446914E+04  0.25500000000E-02 0.  1.
          2   -1    0    0  501    0  0.00000000000E+00 -0.00000000000E+00 -0.41829867653E+04  0.41829867653E+04  0.25500000000E-02 0. -1.
    8880023    1    1    2    0    0  0.17180969136E+04 -0.10944756132E+04 -0.30903035795E+04  0.37594574465E+04  0.65864270000E+03 0.  0.
    8880022    1    1    2    0    0 -0.17180969136E+04  0.10944756132E+04  0.61806150567E+03  0.21342740101E+04  0.15294330000E+03 0.  0.
<mgrwt>
<rscale>  0 0.21159637E+04</rscale>
<asrwt>0</asrwt>
<pdfrwt beam="1">  1        2 0.64353642E+00 0.21409213E+04</pdfrwt>
<pdfrwt beam="2">  1       -2 0.26319149E+00 0.21409213E+04</pdfrwt>
<totfact> 0.11235520E-02</totfact>
</mgrwt>
</event>
<event>
 4    1  0.2051094E-007  0.1103627E+04  0.7818608E-02  0.9257029E-01
          2   -1    0    0  501    0  0.00000000000E+00  0.00000000000E+00  0.31591216619E+04  0.31591216619E+04  0.25500000000E-02 0. -1.
         -2   -1    0    0    0  501 -0.00000000000E+00 -0.00000000000E+00 -0.39860586511E+03  0.39860586512E+03  0.25500000000E-02 0.  1.
    8880023    1    1    2    0    0  0.55028423665E+03 -0.69380778454E+03  0.22929365875E+04  0.25447102750E+04  0.65864270000E+03 0.  0.
    8880022    1    1    2    0    0 -0.55028423665E+03  0.69380778454E+03  0.46757920930E+03  0.10130172521E+04  0.15294330000E+03 0.  0.
<mgrwt>
<rscale>  0 0.10483697E+04</rscale>
<asrwt>0</asrwt>
<pdfrwt beam="1">  1        2 0.48601870E+00 0.11036268E+04</pdfrwt>
<pdfrwt beam="2">  1       -2 0.61323981E-01 0.11036268E+04</pdfrwt>
<totfact> 0.34489666E+00</totfact>
</mgrwt>
</event>
<event>
 4    1  0.2051094E-007  0.1069740E+04  0.7818608E-02  0.9295519E-01
          2   -1    0    0  501    0  0.00000000000E+00  0.00000000000E+00  0.22609087253E+04  0.22609087253E+04  0.25500000000E-02 0. -1.
         -2   -1    0    0    0  501 -0.00000000000E+00 -0.00000000000E+00 -0.83019883473E+03  0.83019883473E+03  0.25500000000E-02 0.  1.
    8880023    1    1    2    0    0  0.18949611536E+03  0.82135537107E+03  0.18502243049E+04  0.21372116432E+04  0.65864270000E+03 0. -1.
    8880022    1    1    2    0    0 -0.18949611536E+03 -0.82135537107E+03 -0.41951441429E+03  0.95389591682E+03  0.15294330000E+03 0.  0.
<mgrwt>
<rscale>  0 0.10119642E+04</rscale>
<asrwt>0</asrwt>
<pdfrwt beam="1">  1        2 0.34783211E+00 0.10697400E+04</pdfrwt>
<pdfrwt beam="2">  1       -2 0.12772290E+00 0.10697400E+04</pdfrwt>
<totfact> 0.21516378E+00</totfact>
</mgrwt>
</event>
<event>
 4    1  0.2051094E-007  0.9046437E+03  0.7818608E-02  0.9518618E-01
          2   -1    0    0  501    0  0.00000000000E+00  0.00000000000E+00  0.60609900473E+03  0.60609900474E+03  0.25500000000E-02 0. -1.
         -2   -1    0    0    0  501 -0.00000000000E+00 -0.00000000000E+00 -0.21311330543E+04  0.21311330543E+04  0.25500000000E-02 0.  1.
    8880023    1    1    2    0    0  0.58557914988E+03  0.20412501850E+03  0.17478358944E+03  0.92137368823E+03  0.65864270000E+03 0. -1.
    8880022    1    1    2    0    0 -0.58557914988E+03 -0.20412501850E+03 -0.16998176390E+04  0.18158583708E+04  0.15294330000E+03 0.  0.
<mgrwt>
<rscale>  0 0.82925018E+03</rscale>
<asrwt>0</asrwt>
<pdfrwt beam="1">  1        2 0.93246002E-01 0.90464367E+03</pdfrwt>
<pdfrwt beam="2">  1       -2 0.32786662E+00 0.90464367E+03</pdfrwt>
<totfact> 0.10733527E+00</totfact>
</mgrwt>
</event>
<event>
 4    1  0.2051094E-007  0.9479366E+03  0.7818608E-02  0.9453089E-01
          2   -1    0    0  501    0  0.00000000000E+00  0.00000000000E+00  0.24542089177E+04  0.24542089177E+04  0.25500000000E-02 0. -1.
         -2   -1    0    0    0  501 -0.00000000000E+00 -0.00000000000E+00 -0.64420807366E+03  0.64420807366E+03  0.25500000000E-02 0.  1.
    8880023    1    1    2    0    0  0.58947994500E+03 -0.34247186244E+03  0.21288885893E+04  0.23303970507E+04  0.65864270000E+03 0. -1.
    8880022    1    1    2    0    0 -0.58947994500E+03  0.34247186244E+03 -0.31888774526E+03  0.76801994063E+03  0.15294330000E+03 0.  0.
<mgrwt>
<rscale>  0 0.87832516E+03</rscale>
<asrwt>0</asrwt>
<pdfrwt beam="1">  1        2 0.37757060E+00 0.94793660E+03</pdfrwt>
<pdfrwt beam="2">  1       -2 0.99108935E-01 0.94793660E+03</pdfrwt>
<totfact> 0.31694807E+00</totfact>
</mgrwt>
</event>
<event>
 4    1  0.2051094E-007  0.7671057E+03  0.7818608E-02  0.9787047E-01
          2   -1    0    0  501    0  0.00000000000E+00  0.00000000000E+00  0.21505967296E+04  0.21505967296E+04  0.25500000000E-02 0. -1.
         -2   -1    0    0    0  501 -0.00000000000E+00 -0.00000000000E+00 -0.58028782008E+03  0.58028782009E+03  0.25500000000E-02 0.  1.
    8880023    1    1    2    0    0  0.26466991058E+03  0.29084483889E+03  0.19918466114E+04  0.21344563738E+04  0.65864270000E+03 0. -1.
    8880022    1    1    2    0    0 -0.26466991058E+03 -0.29084483889E+03 -0.42153770191E+03  0.59642817591E+03  0.15294330000E+03 0.  0.
<mgrwt>
<rscale>  0 0.66062318E+03</rscale>
<asrwt>0</asrwt>
<pdfrwt beam="1">  1        2 0.33086104E+00 0.76710566E+03</pdfrwt>
<pdfrwt beam="2">  1       -2 0.89275049E-01 0.76710566E+03</pdfrwt>
<totfact> 0.61453243E+00</totfact>
</mgrwt>
</event>
<event>
 4    1  0.2051094E-007  0.1074687E+04  0.7818608E-02  0.9289776E-01
         -2   -1    0    0    0  501 -0.00000000000E+00  0.00000000000E+00  0.13297751428E+04  0.13297751428E+04  0.25500000000E-02 0.  1.
          2   -1    0    0  501    0  0.00000000000E+00 -0.00000000000E+00 -0.18223309411E+04  0.18223309411E+04  0.25500000000E-02 0. -1.
    8880023    1    1    2    0    0  0.55492854501E+03 -0.64280406896E+03 -0.14875107388E+04  0.18351133931E+04  0.65864270000E+03 0. -1.
    8880022    1    1    2    0    0 -0.55492854501E+03  0.64280406896E+03  0.99495494047E+03  0.13169926908E+04  0.15294330000E+03 0.  0.
<mgrwt>
<rscale>  0 0.10172957E+04</rscale>
<asrwt>0</asrwt>
<pdfrwt beam="1">  1        2 0.28035861E+00 0.10746874E+04</pdfrwt>
<pdfrwt beam="2">  1       -2 0.20458079E+00 0.10746874E+04</pdfrwt>
<totfact> 0.10267025E+00</totfact>
</mgrwt>
</event>
<event>
 4    1  0.2051094E-007  0.1499701E+04  0.7818608E-02  0.8909847E-01
         -2   -1    0    0    0  501 -0.00000000000E+00  0.00000000000E+00  0.97088577673E+03  0.97088577674E+03  0.25500000000E-02 0.  1.
          2   -1    0    0  501    0  0.00000000000E+00 -0.00000000000E+00 -0.21184708450E+04  0.21184708450E+04  0.25500000000E-02 0. -1.
    8880023    1    1    2    0    0  0.11876432533E+04  0.63623635630E+03 -0.45784229377E+03  0.15680315591E+04  0.65864270000E+03 0.  0.
    8880022    1    1    2    0    0 -0.11876432533E+04 -0.63623635630E+03 -0.68974277448E+03  0.15213250626E+04  0.15294330000E+03 0.  0.
<mgrwt>
<rscale>  0 0.14624026E+04</rscale>
<asrwt>0</asrwt>
<pdfrwt beam="1">  1        2 0.32591859E+00 0.14997011E+04</pdfrwt>
<pdfrwt beam="2">  1       -2 0.14936704E+00 0.14997011E+04</pdfrwt>
<totfact> 0.16420428E+00</totfact>
</mgrwt>
</event>
<event>
 4    1  0.2051094E-007  0.1371290E+04  0.7818608E-02  0.9006318E-01
          2   -1    0    0  501    0  0.00000000000E+00  0.00000000000E+00  0.32617565724E+04  0.32617565724E+04  0.25500000000E-02 0. -1.
         -2   -1    0    0    0  501 -0.00000000000E+00 -0.00000000000E+00 -0.55694618174E+03  0.55694618174E+03  0.25500000000E-02 0.  1.
    8880023    1    1    2    0    0  0.97782124082E+03  0.70035155586E+03  0.19722825634E+04  0.24021522427E+04  0.65864270000E+03 0.  0.
    8880022    1    1    2    0    0 -0.97782124082E+03 -0.70035155586E+03  0.73252782724E+03  0.14165505115E+04  0.15294330000E+03 0.  0.
<mgrwt>
<rscale>  0 0.13297267E+04</rscale>
<asrwt>0</asrwt>
<pdfrwt beam="1">  1        2 0.50180870E+00 0.13712902E+04</pdfrwt>
<pdfrwt beam="2">  1       -2 0.85684029E-01 0.13712902E+04</pdfrwt>
<totfact> 0.13639983E+00</totfact>
</mgrwt>
</event>
<event>
 4    1  0.2051094E-007  0.7331994E+03  0.7818608E-02  0.9880219E-01
          2   -1    0    0  501    0  0.00000000000E+00  0.00000000000E+00  0.16586053691E+04  0.16586053691E+04  0.25500000000E-02 0. -1.
         -2   -1    0    0    0  501 -0.00000000000E+00 -0.00000000000E+00 -0.22811101041E+03  0.22811101043E+03  0.25500000000E-02 0.  1.
    8880023    1    1    2    0    0 -0.14976681289E+03  0.28520352362E+03  0.13258551595E+04  0.15150819312E+04  0.65864270000E+03 0. -1.
    8880022    1    1    2    0    0  0.14976681289E+03 -0.28520352362E+03  0.10463919917E+03  0.37163444828E+03  0.15294330000E+03 0.  0.
<mgrwt>
<rscale>  0 0.61229623E+03</rscale>
<asrwt>0</asrwt>
<pdfrwt beam="1">  1        2 0.25517005E+00 0.73319940E+03</pdfrwt>
<pdfrwt beam="2">  1       -2 0.35094002E-01 0.73319940E+03</pdfrwt>
<totfact> 0.80654942E+01</totfact>
</mgrwt>
</event>
<event>
 4    1  0.2051094E-007  0.7363587E+03  0.7818608E-02  0.9870684E-01
         -2   -1    0    0    0  501 -0.00000000000E+00  0.00000000000E+00  0.48207048909E+03  0.48207048910E+03  0.25500000000E-02 0.  1.
          2   -1    0    0  501    0  0.00000000000E+00 -0.00000000000E+00 -0.25111587566E+04  0.25111587566E+04  0.25500000000E-02 0. -1.
    8880023    1    1    2    0    0  0.26598436000E+03 -0.19407781075E+03 -0.23781805867E+04  0.24895716470E+04  0.65864270000E+03 0. -1.
    8880022    1    1    2    0    0 -0.26598436000E+03  0.19407781075E+03  0.34909231919E+03  0.50365759869E+03  0.15294330000E+03 0.  0.
<mgrwt>
<rscale>  0 0.61703352E+03</rscale>
<asrwt>0</asrwt>
<pdfrwt beam="1">  1        2 0.38633211E+00 0.73635866E+03</pdfrwt>
<pdfrwt beam="2">  1       -2 0.74164692E-01 0.73635866E+03</pdfrwt>
<totfact> 0.59088075E+00</totfact>
</mgrwt>
</event>
<event>
 4    1  0.2051094E-007  0.9616192E+03  0.7818608E-02  0.9433590E-01
         -2   -1    0    0    0  501 -0.00000000000E+00  0.00000000000E+00  0.65956559509E+03  0.65956559509E+03  0.25500000000E-02 0.  1.
          2   -1    0    0  501    0  0.00000000000E+00 -0.00000000000E+00 -0.15404018069E+04  0.15404018069E+04  0.25500000000E-02 0. -1.
    8880023    1    1    2    0    0 -0.98703938239E+02 -0.69365614402E+03 -0.10894109962E+04  0.14531097132E+04  0.65864270000E+03 0.  1.
    8880022    1    1    2    0    0  0.98703938239E+02  0.69365614402E+03  0.20857478446E+03  0.74685768878E+03  0.15294330000E+03 0.  0.
<mgrwt>
<rscale>  0 0.89362163E+03</rscale>
<asrwt>0</asrwt>
<pdfrwt beam="1">  1        2 0.23698489E+00 0.96161922E+03</pdfrwt>
<pdfrwt beam="2">  1       -2 0.10147163E+00 0.96161922E+03</pdfrwt>
<totfact> 0.96056570E+00</totfact>
</mgrwt>
</event>
<event>
 4    1  0.2051094E-007  0.7638842E+03  0.7818608E-02  0.9795154E-01
         -2   -1    0    0    0  501 -0.00000000000E+00  0.00000000000E+00  0.37879520657E+03  0.37879520658E+03  0.25500000000E-02 0.  1.
          2   -1    0    0  501    0  0.00000000000E+00 -0.00000000000E+00 -0.18798968074E+04  0.18798968074E+04  0.25500000000E-02 0. -1.
    8880023    1    1    2    0    0  0.38499456527E+03 -0.38575193867E+02 -0.16488342934E+04  0.18171883761E+04  0.65864270000E+03 0.  0.
    8880022    1    1    2    0    0 -0.38499456527E+03  0.38575193867E+02  0.14773269251E+03  0.44150363795E+03  0.15294330000E+03 0.  0.
<mgrwt>
<rscale>  0 0.65623281E+03</rscale>
<asrwt>0</asrwt>
<pdfrwt beam="1">  1        2 0.28921489E+00 0.76388420E+03</pdfrwt>
<pdfrwt beam="2">  1       -2 0.58276186E-01 0.76388420E+03</pdfrwt>
<totfact> 0.22087866E+01</totfact>
</mgrwt>
</event>
<event>
 4    1  0.2051094E-007  0.8793632E+03  0.7818608E-02  0.9560007E-01
         -2   -1    0    0    0  501 -0.00000000000E+00  0.00000000000E+00  0.11543413311E+04  0.11543413311E+04  0.25500000000E-02 0.  1.
          2   -1    0    0  501    0  0.00000000000E+00 -0.00000000000E+00 -0.10826827121E+04  0.10826827121E+04  0.25500000000E-02 0. -1.
    8880023    1    1    2    0    0  0.56415714116E+03  0.14558898537E+03 -0.79240157446E+03  0.11837144479E+04  0.65864270000E+03 0. -1.
    8880022    1    1    2    0    0 -0.56415714116E+03 -0.14558898537E+03  0.86406019349E+03  0.10533095953E+04  0.15294330000E+03 0.  0.
<mgrwt>
<rscale>  0 0.80000696E+03</rscale>
<asrwt>0</asrwt>
<pdfrwt beam="1">  1        2 0.16656657E+00 0.87936320E+03</pdfrwt>
<pdfrwt beam="2">  1       -2 0.17759097E+00 0.87936320E+03</pdfrwt>
<totfact> 0.42288601E+00</totfact>
</mgrwt>
</event>
<event>
 4    1  0.2051094E-007  0.6908813E+03  0.7818608E-02  0.1003737E+00
          2   -1    0    0  501    0  0.00000000000E+00  0.00000000000E+00  0.25727031083E+04  0.25727031083E+04  0.25500000000E-02 0. -1.
         -2   -1    0    0    0  501 -0.00000000000E+00 -0.00000000000E+00 -0.11180580644E+03  0.11180580647E+03  0.25500000000E-02 0.  1.
    8880023    1    1    2    0    0 -0.20624703189E+03  0.31126640588E+02  0.10979148793E+04  0.12972023721E+04  0.65864270000E+03 0.  0.
    8880022    1    1    2    0    0  0.20624703189E+03 -0.31126640588E+02  0.13629824225E+04  0.13873065426E+04  0.15294330000E+03 0.  1.
<mgrwt>
<rscale>  0 0.54041761E+03</rscale>
<asrwt>0</asrwt>
<pdfrwt beam="1">  1        2 0.39580048E+00 0.69088126E+03</pdfrwt>
<pdfrwt beam="2">  1       -2 0.17200893E-01 0.69088126E+03</pdfrwt>
<totfact> 0.91809775E+01</totfact>
</mgrwt>
</event>
<event>
 4    1  0.2051094E-007  0.9797704E+03  0.7818608E-02  0.9408516E-01
         -2   -1    0    0    0  501 -0.00000000000E+00  0.00000000000E+00  0.32158808220E+03  0.32158808221E+03  0.25500000000E-02 0.  1.
          2   -1    0    0  501    0  0.00000000000E+00 -0.00000000000E+00 -0.30047626115E+04  0.30047626115E+04  0.25500000000E-02 0. -1.
    8880023    1    1    2    0    0  0.66689817361E+03  0.28528362142E+03 -0.22820346840E+04  0.24834718489E+04  0.65864270000E+03 0. -1.
    8880022    1    1    2    0    0 -0.66689817361E+03 -0.28528362142E+03 -0.40113984524E+03  0.84287884483E+03  0.15294330000E+03 0.  0.
<mgrwt>
<rscale>  0 0.91378144E+03</rscale>
<asrwt>0</asrwt>
<pdfrwt beam="1">  1        2 0.46227115E+00 0.97977044E+03</pdfrwt>
<pdfrwt beam="2">  1       -2 0.49475092E-01 0.97977044E+03</pdfrwt>
<totfact> 0.68612538E+00</totfact>
</mgrwt>
</event>
<event>
 4    1  0.2051094E-007  0.8554031E+03  0.7818608E-02  0.9601793E-01
          2   -1    0    0  501    0  0.00000000000E+00  0.00000000000E+00  0.27715064203E+04  0.27715064203E+04  0.25500000000E-02 0. -1.
         -2   -1    0    0    0  501 -0.00000000000E+00 -0.00000000000E+00 -0.69144431821E+03  0.69144431821E+03  0.25500000000E-02 0.  1.
    8880023    1    1    2    0    0 -0.54436624098E+03  0.39619025694E+02  0.25731852453E+04  0.27116409763E+04  0.65864270000E+03 0.  0.
    8880022    1    1    2    0    0  0.54436624098E+03 -0.39619025694E+02 -0.49312314316E+03  0.75130976225E+03  0.15294330000E+03 0.  0.
<mgrwt>
<rscale>  0 0.77177600E+03</rscale>
<asrwt>0</asrwt>
<pdfrwt beam="1">  1        2 0.42638559E+00 0.85540311E+03</pdfrwt>
<pdfrwt beam="2">  1       -2 0.10637605E+00 0.85540311E+03</pdfrwt>
<totfact> 0.17795179E+00</totfact>
</mgrwt>
</event>
<event>
 4    1  0.2051094E-007  0.7816889E+03  0.7818608E-02  0.9751885E-01
          2   -1    0    0  501    0  0.00000000000E+00  0.00000000000E+00  0.20159700590E+04  0.20159700590E+04  0.25500000000E-02 0. -1.
         -2   -1    0    0    0  501 -0.00000000000E+00 -0.00000000000E+00 -0.27370165294E+04  0.27370165294E+04  0.25500000000E-02 0.  1.
    8880023    1    1    2    0    0  0.21274160726E+02  0.42044591254E+03  0.19206287279E+04  0.20736085147E+04  0.65864270000E+03 0. -1.
    8880022    1    1    2    0    0 -0.21274160726E+02 -0.42044591254E+03 -0.26416751983E+04  0.26793780737E+04  0.15294330000E+03 0.  0.
<mgrwt>
<rscale>  0 0.68009875E+03</rscale>
<asrwt>0</asrwt>
<pdfrwt beam="1">  1        2 0.31014924E+00 0.78168892E+03</pdfrwt>
<pdfrwt beam="2">  1       -2 0.42107947E+00 0.78168892E+03</pdfrwt>
<totfact> 0.38206581E-02</totfact>
</mgrwt>
</event>
<event>
 4    1  0.2051094E-007  0.2121408E+04  0.7818608E-02  0.8562919E-01
          2   -1    0    0  501    0  0.00000000000E+00  0.00000000000E+00  0.16096538960E+04  0.16096538960E+04  0.25500000000E-02 0. -1.
         -2   -1    0    0    0  501 -0.00000000000E+00 -0.00000000000E+00 -0.30322865082E+04  0.30322865082E+04  0.25500000000E-02 0.  1.
    8880023    1    1    2    0    0  0.19891084663E+04  0.33167821473E+03 -0.15317944026E+04  0.26166328032E+04  0.65864270000E+03 0.  0.
    8880022    1    1    2    0    0 -0.19891084663E+04 -0.33167821473E+03  0.10916179041E+03  0.20253076009E+04  0.15294330000E+03 0.  0.
<mgrwt>
<rscale>  0 0.20962014E+04</rscale>
<asrwt>0</asrwt>
<pdfrwt beam="1">  1        2 0.24763906E+00 0.21214083E+04</pdfrwt>
<pdfrwt beam="2">  1       -2 0.46650562E+00 0.21214083E+04</pdfrwt>
<totfact> 0.26089383E-02</totfact>
</mgrwt>
</event>
<event>
 4    1  0.2051094E-007  0.6982955E+03  0.7818608E-02  0.1000435E+00
         -2   -1    0    0    0  501 -0.00000000000E+00  0.00000000000E+00  0.41680513672E+03  0.41680513672E+03  0.25500000000E-02 0.  1.
          2   -1    0    0  501    0  0.00000000000E+00 -0.00000000000E+00 -0.25756971517E+04  0.25756971517E+04  0.25500000000E-02 0. -1.
    8880023    1    1    2    0    0 -0.10207206741E+03  0.20829699357E+03 -0.24750122442E+04  0.25716341419E+04  0.65864270000E+03 0. -1.
    8880022    1    1    2    0    0  0.10207206741E+03 -0.20829699357E+03  0.31612022920E+03  0.42086814657E+03  0.15294330000E+03 0.  0.
<mgrwt>
<rscale>  0 0.55460039E+03</rscale>
<asrwt>0</asrwt>
<pdfrwt beam="1">  1        2 0.39626109E+00 0.69829546E+03</pdfrwt>
<pdfrwt beam="2">  1       -2 0.64123869E-01 0.69829546E+03</pdfrwt>
<totfact> 0.75024447E+00</totfact>
</mgrwt>
</event>
<event>
 4    1  0.2051094E-007  0.1105338E+04  0.7818608E-02  0.9255136E-01
         -2   -1    0    0    0  501 -0.00000000000E+00  0.00000000000E+00  0.18107821522E+04  0.18107821522E+04  0.25500000000E-02 0.  1.
          2   -1    0    0  501    0  0.00000000000E+00 -0.00000000000E+00 -0.10368819095E+04  0.10368819095E+04  0.25500000000E-02 0. -1.
    8880023    1    1    2    0    0 -0.20516347020E+03  0.86363732875E+03 -0.55923103599E+03  0.12387538266E+04  0.65864270000E+03 0.  0.
    8880022    1    1    2    0    0  0.20516347020E+03 -0.86363732875E+03  0.13331312787E+04  0.16089102351E+04  0.15294330000E+03 0.  0.
<mgrwt>
<rscale>  0 0.10502012E+04</rscale>
<asrwt>0</asrwt>
<pdfrwt beam="1">  1        2 0.15952029E+00 0.11053378E+04</pdfrwt>
<pdfrwt beam="2">  1       -2 0.27858187E+00 0.11053378E+04</pdfrwt>
<totfact> 0.10116405E+00</totfact>
</mgrwt>
</event>
<event>
 4    1  0.2051094E-007  0.1364712E+04  0.7818608E-02  0.9011599E-01
          2   -1    0    0  501    0  0.00000000000E+00  0.00000000000E+00  0.33041060091E+04  0.33041060091E+04  0.25500000000E-02 0. -1.
         -2   -1    0    0    0  501 -0.00000000000E+00 -0.00000000000E+00 -0.62437914963E+03  0.62437914964E+03  0.25500000000E-02 0.  1.
    8880023    1    1    2    0    0  0.63708801865E+03 -0.10113101646E+04  0.52989381588E+03  0.14639764530E+04  0.65864270000E+03 0.  0.
    8880022    1    1    2    0    0 -0.63708801865E+03  0.10113101646E+04  0.21498330436E+04  0.24645087058E+04  0.15294330000E+03 0.  0.
<mgrwt>
<rscale>  0 0.13229013E+04</rscale>
<asrwt>0</asrwt>
<pdfrwt beam="1">  1        2 0.50832400E+00 0.13647123E+04</pdfrwt>
<pdfrwt beam="2">  1       -2 0.96058331E-01 0.13647123E+04</pdfrwt>
<totfact> 0.98067454E-01</totfact>
</mgrwt>
</event>
<event>
 4    1  0.2051094E-007  0.1828342E+04  0.7818608E-02  0.8707019E-01
          2   -1    0    0  501    0  0.00000000000E+00  0.00000000000E+00  0.29482541411E+04  0.29482541411E+04  0.25500000000E-02 0. -1.
         -2   -1    0    0    0  501 -0.00000000000E+00 -0.00000000000E+00 -0.19623320801E+04  0.19623320801E+04  0.25500000000E-02 0.  1.
    8880023    1    1    2    0    0  0.79831951868E+03 -0.15072187647E+04  0.21633128624E+04  0.28324468584E+04  0.65864270000E+03 0.  0.
    8880022    1    1    2    0    0 -0.79831951868E+03  0.15072187647E+04 -0.11773908015E+04  0.20781393628E+04  0.15294330000E+03 0.  0.
<mgrwt>
<rscale>  0 0.17986479E+04</rscale>
<asrwt>0</asrwt>
<pdfrwt beam="1">  1        2 0.45357756E+00 0.18283415E+04</pdfrwt>
<pdfrwt beam="2">  1       -2 0.30189724E+00 0.18283415E+04</pdfrwt>
<totfact> 0.52325314E-02</totfact>
</mgrwt>
</event>
<event>
 4    1  0.2051094E-007  0.8195218E+03  0.7818608E-02  0.9670074E-01
          2   -1    0    0  501    0  0.00000000000E+00  0.00000000000E+00  0.30004040366E+03  0.30004040367E+03  0.25500000000E-02 0. -1.
         -2   -1    0    0    0  501 -0.00000000000E+00 -0.00000000000E+00 -0.24944096670E+04  0.24944096670E+04  0.25500000000E-02 0.  1.
    8880023    1    1    2    0    0  0.19472141495E+03 -0.44708992405E+03 -0.21264218554E+04  0.22788782203E+04  0.65864270000E+03 0.  1.
    8880022    1    1    2    0    0 -0.19472141495E+03  0.44708992405E+03 -0.67947407949E+02  0.51557185037E+03  0.15294330000E+03 0.  0.
<mgrwt>
<rscale>  0 0.72826849E+03</rscale>
<asrwt>0</asrwt>
<pdfrwt beam="1">  1        2 0.46160064E-01 0.81952183E+03</pdfrwt>
<pdfrwt beam="2">  1       -2 0.38375532E+00 0.81952183E+03</pdfrwt>
<totfact> 0.10885000E+00</totfact>
</mgrwt>
</event>
<event>
 4    1  0.2051094E-007  0.7823754E+03  0.7818608E-02  0.9750286E-01
          2   -1    0    0  501    0  0.00000000000E+00  0.00000000000E+00  0.11703598936E+04  0.11703598936E+04  0.25500000000E-02 0. -1.
         -2   -1    0    0    0  501 -0.00000000000E+00 -0.00000000000E+00 -0.91302941222E+03  0.91302941222E+03  0.25500000000E-02 0.  1.
    8880023    1    1    2    0    0 -0.39029709438E+03  0.16114984949E+03  0.96680817785E+03  0.12437159462E+04  0.65864270000E+03 0. -1.
    8880022    1    1    2    0    0  0.39029709438E+03 -0.16114984949E+03 -0.70947769651E+03  0.83967335955E+03  0.15294330000E+03 0.  0.
<mgrwt>
<rscale>  0 0.68100090E+03</rscale>
<asrwt>0</asrwt>
<pdfrwt beam="1">  1        2 0.18005537E+00 0.78237542E+03</pdfrwt>
<pdfrwt beam="2">  1       -2 0.14046606E+00 0.78237542E+03</pdfrwt>
<totfact> 0.71388182E+00</totfact>
</mgrwt>
</event>
<event>
 4    1  0.2051094E-007  0.9987271E+03  0.7818608E-02  0.9383225E-01
         -2   -1    0    0    0  501 -0.00000000000E+00  0.00000000000E+00  0.71635213585E+03  0.71635213585E+03  0.25500000000E-02 0.  1.
          2   -1    0    0  501    0  0.00000000000E+00 -0.00000000000E+00 -0.12649718754E+04  0.12649718754E+04  0.25500000000E-02 0. -1.
    8880023    1    1    2    0    0 -0.35132335429E+03  0.66348886952E+03 -0.67409866211E+03  0.12049335217E+04  0.65864270000E+03 0. -1.
    8880022    1    1    2    0    0  0.35132335429E+03 -0.66348886952E+03  0.12547892255E+03  0.77639048955E+03  0.15294330000E+03 0.  0.
<mgrwt>
<rscale>  0 0.93469157E+03</rscale>
<asrwt>0</asrwt>
<pdfrwt beam="1">  1        2 0.19461106E+00 0.99872708E+03</pdfrwt>
<pdfrwt beam="2">  1       -2 0.11020802E+00 0.99872708E+03</pdfrwt>
<totfact> 0.11263508E+01</totfact>
</mgrwt>
</event>
<event>
 4    1  0.2051094E-007  0.9031567E+03  0.7818608E-02  0.9520983E-01
          2   -1    0    0  501    0  0.00000000000E+00  0.00000000000E+00  0.20000478350E+04  0.20000478350E+04  0.25500000000E-02 0. -1.
         -2   -1    0    0    0  501 -0.00000000000E+00 -0.00000000000E+00 -0.35777151639E+03  0.35777151640E+03  0.25500000000E-02 0.  1.
    8880023    1    1    2    0    0 -0.80823156602E+02  0.61265773689E+03  0.14212375165E+04  0.16839264146E+04  0.65864270000E+03 0. -1.
    8880022    1    1    2    0    0  0.80823156602E+02 -0.61265773689E+03  0.22103880212E+03  0.67389293681E+03  0.15294330000E+03 0.  1.
<mgrwt>
<rscale>  0 0.82754358E+03</rscale>
<asrwt>0</asrwt>
<pdfrwt beam="1">  1        2 0.30769967E+00 0.90315674E+03</pdfrwt>
<pdfrwt beam="2">  1       -2 0.55041771E-01 0.90315674E+03</pdfrwt>
<totfact> 0.21034856E+01</totfact>
</mgrwt>
</event>
<event>
 4    1  0.2051094E-007  0.8085986E+03  0.7818608E-02  0.9692503E-01
          2   -1    0    0  501    0  0.00000000000E+00  0.00000000000E+00  0.26729683833E+04  0.26729683833E+04  0.25500000000E-02 0. -1.
         -2   -1    0    0    0  501 -0.00000000000E+00 -0.00000000000E+00 -0.37985564325E+03  0.37985564326E+03  0.25500000000E-02 0.  1.
    8880023    1    1    2    0    0  0.22545079256E+03  0.41133130276E+03  0.24131859626E+04  0.25450536727E+04  0.65864270000E+03 0. -1.
    8880022    1    1    2    0    0 -0.22545079256E+03 -0.41133130276E+03 -0.12007322255E+03  0.50777035388E+03  0.15294330000E+03 0.  0.
<mgrwt>
<rscale>  0 0.71464893E+03</rscale>
<asrwt>0</asrwt>
<pdfrwt beam="1">  1        2 0.41122592E+00 0.80859861E+03</pdfrwt>
<pdfrwt beam="2">  1       -2 0.58439328E-01 0.80859861E+03</pdfrwt>
<totfact> 0.78765196E+00</totfact>
</mgrwt>
</event>
<event>
 4    1  0.2051094E-007  0.8070772E+03  0.7818608E-02  0.9695697E-01
          2   -1    0    0  501    0  0.00000000000E+00  0.00000000000E+00  0.18500017988E+04  0.18500017988E+04  0.25500000000E-02 0. -1.
         -2   -1    0    0    0  501 -0.00000000000E+00 -0.00000000000E+00 -0.55865938308E+03  0.55865938309E+03  0.25500000000E-02 0.  1.
    8880023    1    1    2    0    0 -0.44471061433E+03  0.14069793899E+03  0.16255080038E+04  0.18148415680E+04  0.65864270000E+03 0. -1.
    8880022    1    1    2    0    0  0.44471061433E+03 -0.14069793899E+03 -0.33416558805E+03  0.59381961384E+03  0.15294330000E+03 0.  0.
<mgrwt>
<rscale>  0 0.71273541E+03</rscale>
<asrwt>0</asrwt>
<pdfrwt beam="1">  1        2 0.28461566E+00 0.80707722E+03</pdfrwt>
<pdfrwt beam="2">  1       -2 0.85947598E-01 0.80707722E+03</pdfrwt>
<totfact> 0.97339059E+00</totfact>
</mgrwt>
</event>
<event>
 4    1  0.2051094E-007  0.1162111E+04  0.7818608E-02  0.9194862E-01
         -2   -1    0    0    0  501 -0.00000000000E+00  0.00000000000E+00  0.13945812226E+04  0.13945812226E+04  0.25500000000E-02 0.  1.
          2   -1    0    0  501    0  0.00000000000E+00 -0.00000000000E+00 -0.10420058938E+04  0.10420058938E+04  0.25500000000E-02 0. -1.
    8880023    1    1    2    0    0  0.41914114010E+03 -0.86082140180E+03 -0.37858491960E+03  0.12222231911E+04  0.65864270000E+03 0.  0.
    8880022    1    1    2    0    0 -0.41914114010E+03  0.86082140180E+03  0.73116024841E+03  0.12143639253E+04  0.15294330000E+03 0.  0.
<mgrwt>
<rscale>  0 0.11106614E+04</rscale>
<asrwt>0</asrwt>
<pdfrwt beam="1">  1        2 0.16030860E+00 0.11621114E+04</pdfrwt>
<pdfrwt beam="2">  1       -2 0.21455096E+00 0.11621114E+04</pdfrwt>
<totfact> 0.24744241E+00</totfact>
</mgrwt>
</event>
<event>
 4    1  0.2051094E-007  0.7305990E+03  0.7818608E-02  0.9888229E-01
          2   -1    0    0  501    0  0.00000000000E+00  0.00000000000E+00  0.37484780012E+04  0.37484780012E+04  0.25500000000E-02 0. -1.
         -2   -1    0    0    0  501 -0.00000000000E+00 -0.00000000000E+00 -0.36048489875E+03  0.36048489876E+03  0.25500000000E-02 0.  1.
    8880023    1    1    2    0    0 -0.38221377704E+02  0.31385329160E+03  0.36167561175E+04  0.36898102637E+04  0.65864270000E+03 0. -1.
    8880022    1    1    2    0    0  0.38221377704E+02 -0.31385329160E+03 -0.22876301509E+03  0.41915263622E+03  0.15294330000E+03 0.  0.
<mgrwt>
<rscale>  0 0.60835145E+03</rscale>
<asrwt>0</asrwt>
<pdfrwt beam="1">  1        2 0.57668893E+00 0.73059905E+03</pdfrwt>
<pdfrwt beam="2">  1       -2 0.55459215E-01 0.73059905E+03</pdfrwt>
<totfact> 0.18113066E+00</totfact>
</mgrwt>
</event>
<event>
 4    1  0.2051094E-007  0.8467246E+03  0.7818608E-02  0.9617628E-01
          2   -1    0    0  501    0  0.00000000000E+00  0.00000000000E+00  0.77679322429E+03  0.77679322430E+03  0.25500000000E-02 0. -1.
         -2   -1    0    0    0  501 -0.00000000000E+00 -0.00000000000E+00 -0.78772829038E+03  0.78772829038E+03  0.25500000000E-02 0.  1.
    8880023    1    1    2    0    0  0.29697995892E+03 -0.44151476407E+03  0.33622231597E+03  0.91103679120E+03  0.65864270000E+03 0.  0.
    8880022    1    1    2    0    0 -0.29697995892E+03  0.44151476407E+03 -0.34715738205E+03  0.65348472348E+03  0.15294330000E+03 0.  0.
<mgrwt>
<rscale>  0 0.76140322E+03</rscale>
<asrwt>0</asrwt>
<pdfrwt beam="1">  1        2 0.11950665E+00 0.84672462E+03</pdfrwt>
<pdfrwt beam="2">  1       -2 0.12118897E+00 0.84672462E+03</pdfrwt>
<totfact> 0.18659370E+01</totfact>
</mgrwt>
</event>
<event>
 4    1  0.2051094E-007  0.7299475E+03  0.7818608E-02  0.9890260E-01
         -2   -1    0    0    0  501 -0.00000000000E+00  0.00000000000E+00  0.12279231165E+04  0.12279231165E+04  0.25500000000E-02 0.  1.
          2   -1    0    0  501    0  0.00000000000E+00 -0.00000000000E+00 -0.12045434811E+04  0.12045434811E+04  0.25500000000E-02 0. -1.
    8880023    1    1    2    0    0  0.37101855652E+02 -0.31246864910E+03 -0.10639273328E+04  0.12902576410E+04  0.65864270000E+03 0. -1.
    8880022    1    1    2    0    0 -0.37101855652E+02  0.31246864910E+03  0.10873069683E+04  0.11422089566E+04  0.15294330000E+03 0.  0.
<mgrwt>
<rscale>  0 0.60735634E+03</rscale>
<asrwt>0</asrwt>
<pdfrwt beam="1">  1        2 0.18531438E+00 0.72994754E+03</pdfrwt>
<pdfrwt beam="2">  1       -2 0.18891125E+00 0.72994754E+03</pdfrwt>
<totfact> 0.30523431E+00</totfact>
</mgrwt>
</event>
<event>
 4    1  0.2051094E-007  0.7104270E+03  0.7818608E-02  0.9956419E-01
          2   -1    0    0  501    0  0.00000000000E+00  0.00000000000E+00  0.91279855600E+03  0.91279855601E+03  0.25500000000E-02 0. -1.
         -2   -1    0    0    0  501 -0.00000000000E+00 -0.00000000000E+00 -0.43151259663E+03  0.43151259663E+03  0.25500000000E-02 0.  1.
    8880023    1    1    2    0    0  0.33377848230E+02  0.26416314555E+03  0.67605051093E+03  0.98068891490E+03  0.65864270000E+03 0.  0.
    8880022    1    1    2    0    0 -0.33377848230E+02 -0.26416314555E+03 -0.19476455156E+03  0.36362223774E+03  0.15294330000E+03 0.  0.
<mgrwt>
<rscale>  0 0.57603194E+03</rscale>
<asrwt>0</asrwt>
<pdfrwt beam="1">  1        2 0.14043054E+00 0.71042695E+03</pdfrwt>
<pdfrwt beam="2">  1       -2 0.66386554E-01 0.71042695E+03</pdfrwt>
<totfact> 0.61013125E+01</totfact>
</mgrwt>
</event>
<event>
 4    1  0.2051094E-007  0.9558870E+03  0.7818608E-02  0.9441694E-01
         -2   -1    0    0    0  501 -0.00000000000E+00  0.00000000000E+00  0.36073011456E+03  0.36073011457E+03  0.25500000000E-02 0.  1.
          2   -1    0    0  501    0  0.00000000000E+00 -0.00000000000E+00 -0.43282495870E+04  0.43282495870E+04  0.25500000000E-02 0. -1.
    8880023    1    1    2    0    0 -0.14715103099E+03 -0.67694633802E+03 -0.38536857004E+04  0.39704676619E+04  0.65864270000E+03 0. -1.
    8880022    1    1    2    0    0  0.14715103099E+03  0.67694633802E+03 -0.11383377204E+03  0.71851203967E+03  0.15294330000E+03 0.  0.
<mgrwt>
<rscale>  0 0.88722432E+03</rscale>
<asrwt>0</asrwt>
<pdfrwt beam="1">  1        2 0.66588452E+00 0.95588701E+03</pdfrwt>
<pdfrwt beam="2">  1       -2 0.55496944E-01 0.95588701E+03</pdfrwt>
<totfact> 0.58813198E-01</totfact>
</mgrwt>
</event>
<event>
 4    1  0.2051094E-007  0.7630699E+03  0.7818608E-02  0.9797224E-01
          2   -1    0    0  501    0  0.00000000000E+00  0.00000000000E+00  0.19084908587E+04  0.19084908587E+04  0.25500000000E-02 0. -1.
         -2   -1    0    0    0  501 -0.00000000000E+00 -0.00000000000E+00 -0.66652019033E+03  0.66652019034E+03  0.25500000000E-02 0.  1.
    8880023    1    1    2    0    0  0.96624862398E+02  0.37300018627E+03  0.17560082851E+04  0.19146385576E+04  0.65864270000E+03 0. -1.
    8880022    1    1    2    0    0 -0.96624862398E+02 -0.37300018627E+03 -0.51403761669E+03  0.66037249138E+03  0.15294330000E+03 0.  0.
<mgrwt>
<rscale>  0 0.65511751E+03</rscale>
<asrwt>0</asrwt>
<pdfrwt beam="1">  1        2 0.29361397E+00 0.76306992E+03</pdfrwt>
<pdfrwt beam="2">  1       -2 0.10254157E+00 0.76306992E+03</pdfrwt>
<totfact> 0.60288861E+00</totfact>
</mgrwt>
</event>
<event>
 4    1  0.2051094E-007  0.1789441E+04  0.7818608E-02  0.8728400E-01
          2   -1    0    0  501    0  0.00000000000E+00  0.00000000000E+00  0.36116538688E+04  0.36116538688E+04  0.25500000000E-02 0. -1.
         -2   -1    0    0    0  501 -0.00000000000E+00 -0.00000000000E+00 -0.93052300926E+03  0.93052300926E+03  0.25500000000E-02 0.  1.
    8880023    1    1    2    0    0  0.16526914007E+04 -0.19209230004E+03  0.21319628192E+04  0.27834086992E+04  0.65864270000E+03 0.  0.
    8880022    1    1    2    0    0 -0.16526914007E+04  0.19209230004E+03  0.54916804035E+03  0.17587681789E+04  0.15294330000E+03 0.  0.
<mgrwt>
<rscale>  0 0.17590218E+04</rscale>
<asrwt>0</asrwt>
<pdfrwt beam="1">  1        2 0.55563905E+00 0.17894408E+04</pdfrwt>
<pdfrwt beam="2">  1       -2 0.14315739E+00 0.17894408E+04</pdfrwt>
<totfact> 0.21202557E-01</totfact>
</mgrwt>
</event>
<event>
 4    1  0.2051094E-007  0.9141257E+03  0.7818608E-02  0.9503725E-01
          2   -1    0    0  501    0  0.00000000000E+00  0.00000000000E+00  0.22744686164E+04  0.22744686164E+04  0.25500000000E-02 0. -1.
         -2   -1    0    0    0  501 -0.00000000000E+00 -0.00000000000E+00 -0.42225975958E+03  0.42225975958E+03  0.25500000000E-02 0.  1.
    8880023    1    1    2    0    0  0.61799245945E+03 -0.14107032533E+03  0.18284403855E+04  0.20442162230E+04  0.65864270000E+03 0. -1.
    8880022    1    1    2    0    0 -0.61799245945E+03  0.14107032533E+03  0.23768471344E+02  0.65251215305E+03  0.15294330000E+03 0.  0.
<mgrwt>
<rscale>  0 0.84009712E+03</rscale>
<asrwt>0</asrwt>
<pdfrwt beam="1">  1        2 0.34991825E+00 0.91412566E+03</pdfrwt>
<pdfrwt beam="2">  1       -2 0.64963040E-01 0.91412566E+03</pdfrwt>
<totfact> 0.10431133E+01</totfact>
</mgrwt>
</event>
<event>
 4    1  0.2051094E-007  0.9644935E+03  0.7818608E-02  0.9429561E-01
          2   -1    0    0  501    0  0.00000000000E+00  0.00000000000E+00  0.28267725381E+04  0.28267725381E+04  0.25500000000E-02 0. -1.
         -2   -1    0    0    0  501 -0.00000000000E+00 -0.00000000000E+00 -0.10218340390E+04  0.10218340390E+04  0.25500000000E-02 0.  1.
    8880023    1    1    2    0    0 -0.93371988262E+02  0.69836897068E+03  0.26013026713E+04  0.27743509766E+04  0.65864270000E+03 0. -1.
    8880022    1    1    2    0    0  0.93371988262E+02 -0.69836897068E+03 -0.79636417217E+03  0.10742556005E+04  0.15294330000E+03 0.  0.
<mgrwt>
<rscale>  0 0.89682369E+03</rscale>
<asrwt>0</asrwt>
<pdfrwt beam="1">  1        2 0.43488808E+00 0.96449352E+03</pdfrwt>
<pdfrwt beam="2">  1       -2 0.15720524E+00 0.96449352E+03</pdfrwt>
<totfact> 0.59967877E-01</totfact>
</mgrwt>
</event>
<event>
 4    1  0.2051094E-007  0.1115446E+04  0.7818608E-02  0.9244050E-01
         -2   -1    0    0    0  501 -0.00000000000E+00  0.00000000000E+00  0.51730440681E+03  0.51730440682E+03  0.25500000000E-02 0.  1.
          2   -1    0    0  501    0  0.00000000000E+00 -0.00000000000E+00 -0.37344749145E+04  0.37344749145E+04  0.25500000000E-02 0. -1.
    8880023    1    1    2    0    0  0.31723693259E+03  0.84247928827E+03 -0.31436701146E+04  0.33356982205E+04  0.65864270000E+03 0. -1.
    8880022    1    1    2    0    0 -0.31723693259E+03 -0.84247928827E+03 -0.73500393147E+02  0.91608110087E+03  0.15294330000E+03 0.  0.
<mgrwt>
<rscale>  0 0.10610099E+04</rscale>
<asrwt>0</asrwt>
<pdfrwt beam="1">  1        2 0.57453459E+00 0.11154465E+04</pdfrwt>
<pdfrwt beam="2">  1       -2 0.79585296E-01 0.11154465E+04</pdfrwt>
<totfact> 0.78700143E-01</totfact>
</mgrwt>
</event>
<event>
 4    1  0.2051094E-007  0.1482710E+04  0.7818608E-02  0.8921942E-01
          2   -1    0    0  501    0  0.00000000000E+00  0.00000000000E+00  0.25127755357E+04  0.25127755357E+04  0.25500000000E-02 0. -1.
         -2   -1    0    0    0  501 -0.00000000000E+00 -0.00000000000E+00 -0.79743554243E+03  0.79743554243E+03  0.25500000000E-02 0.  1.
    8880023    1    1    2    0    0  0.57979089916E+03 -0.11951824618E+04  0.75456642584E+03  0.16636704304E+04  0.65864270000E+03 0.  0.
    8880022    1    1    2    0    0 -0.57979089916E+03  0.11951824618E+04  0.96077356748E+03  0.16465406478E+04  0.15294330000E+03 0.  0.
<mgrwt>
<rscale>  0 0.14449020E+04</rscale>
<asrwt>0</asrwt>
<pdfrwt beam="1">  1        2 0.38658084E+00 0.14827100E+04</pdfrwt>
<pdfrwt beam="2">  1       -2 0.12268239E+00 0.14827100E+04</pdfrwt>
<totfact> 0.16352342E+00</totfact>
</mgrwt>
</event>
<event>
 4    1  0.2082153E-007  0.8129351E+03  0.7818608E-02  0.9683495E-01
         -2   -1    0    0    0  501 -0.00000000000E+00  0.00000000000E+00  0.17143106571E+04  0.17143106571E+04  0.25500000000E-02 0.  1.
          2   -1    0    0  501    0  0.00000000000E+00 -0.00000000000E+00 -0.11975098023E+04  0.11975098023E+04  0.25500000000E-02 0. -1.
    8880023    1    1    2    0    0 -0.39964765605E+03  0.25948987275E+03 -0.10149564985E+04  0.13003846135E+04  0.65864270000E+03 0. -1.
    8880022    1    1    2    0    0  0.39964765605E+03 -0.25948987275E+03  0.15317573533E+04  0.16114358459E+04  0.15294330000E+03 0.  0.
<mgrwt>
<rscale>  0 0.72008029E+03</rscale>
<asrwt>0</asrwt>
<pdfrwt beam="1">  1        2 0.18423228E+00 0.81293508E+03</pdfrwt>
<pdfrwt beam="2">  1       -2 0.26374010E+00 0.81293508E+03</pdfrwt>
<totfact> 0.10344652E+00</totfact>
</mgrwt>
</event>
<event>
 4    1  0.2051094E-007  0.7906412E+03  0.7818608E-02  0.9731409E-01
         -2   -1    0    0    0  501 -0.00000000000E+00  0.00000000000E+00  0.46345755224E+03  0.46345755225E+03  0.25500000000E-02 0.  1.
          2   -1    0    0  501    0  0.00000000000E+00 -0.00000000000E+00 -0.13240880199E+04  0.13240880199E+04  0.25500000000E-02 0. -1.
    8880023    1    1    2    0    0 -0.96639657903E+02 -0.42657253453E+03 -0.10262416352E+04  0.12954865691E+04  0.65864270000E+03 0.  0.
    8880022    1    1    2    0    0  0.96639657903E+02  0.42657253453E+03  0.16561116749E+03  0.49205900307E+03  0.15294330000E+03 0.  0.
<mgrwt>
<rscale>  0 0.69177098E+03</rscale>
<asrwt>0</asrwt>
<pdfrwt beam="1">  1        2 0.20370585E+00 0.79064123E+03</pdfrwt>
<pdfrwt beam="2">  1       -2 0.71301163E-01 0.79064123E+03</pdfrwt>
<totfact> 0.29037969E+01</totfact>
</mgrwt>
</event>
<event>
 4    1  0.2051094E-007  0.1104075E+04  0.7818608E-02  0.9256533E-01
          2   -1    0    0  501    0  0.00000000000E+00  0.00000000000E+00  0.19992271111E+04  0.19992271111E+04  0.25500000000E-02 0. -1.
         -2   -1    0    0    0  501 -0.00000000000E+00 -0.00000000000E+00 -0.59469727651E+03  0.59469727652E+03  0.25500000000E-02 0.  1.
    8880023    1    1    2    0    0  0.84082432742E+03  0.27961662477E+03  0.12731143475E+04  0.16851710164E+04  0.65864270000E+03 0. -1.
    8880022    1    1    2    0    0 -0.84082432742E+03 -0.27961662477E+03  0.13141548707E+03  0.90875337121E+03  0.15294330000E+03 0.  0.
<mgrwt>
<rscale>  0 0.10488493E+04</rscale>
<asrwt>0</asrwt>
<pdfrwt beam="1">  1        2 0.30757341E+00 0.11040748E+04</pdfrwt>
<pdfrwt beam="2">  1       -2 0.91491888E-01 0.11040748E+04</pdfrwt>
<totfact> 0.67337036E+00</totfact>
</mgrwt>
</event>
<event>
 4    1  0.2051094E-007  0.7777294E+03  0.7818608E-02  0.9761198E-01
         -2   -1    0    0    0  501 -0.00000000000E+00  0.00000000000E+00  0.50365336218E+03  0.50365336219E+03  0.25500000000E-02 0.  1.
          2   -1    0    0  501    0  0.00000000000E+00 -0.00000000000E+00 -0.46763268057E+04  0.46763268057E+04  0.25500000000E-02 0. -1.
    8880023    1    1    2    0    0 -0.21287982519E+03 -0.35459135811E+03 -0.45399608970E+04  0.46060946586E+04  0.65864270000E+03 0. -1.
    8880022    1    1    2    0    0  0.21287982519E+03  0.35459135811E+03  0.36728745352E+03  0.57388550927E+03  0.15294330000E+03 0.  0.
<mgrwt>
<rscale>  0 0.67487114E+03</rscale>
<asrwt>0</asrwt>
<pdfrwt beam="1">  1        2 0.71943486E+00 0.77772942E+03</pdfrwt>
<pdfrwt beam="2">  1       -2 0.77485136E-01 0.77772942E+03</pdfrwt>
<totfact> 0.13866097E-01</totfact>
</mgrwt>
</event>
<event>
 4    1  0.2051094E-007  0.7066401E+03  0.7818608E-02  0.9970696E-01
          2   -1    0    0  501    0  0.00000000000E+00  0.00000000000E+00  0.24111039083E+04  0.24111039083E+04  0.25500000000E-02 0. -1.
         -2   -1    0    0    0  501 -0.00000000000E+00 -0.00000000000E+00 -0.16854403024E+03  0.16854403026E+03  0.25500000000E-02 0.  1.
    8880023    1    1    2    0    0 -0.97285579154E+02  0.23678171349E+03  0.21564348199E+04  0.22692623036E+04  0.65864270000E+03 0. -1.
    8880022    1    1    2    0    0  0.97285579154E+02 -0.23678171349E+03  0.86125058205E+02  0.31038563501E+03  0.15294330000E+03 0.  0.
<mgrwt>
<rscale>  0 0.56954062E+03</rscale>
<asrwt>0</asrwt>
<pdfrwt beam="1">  1        2 0.37093905E+00 0.70664013E+03</pdfrwt>
<pdfrwt beam="2">  1       -2 0.25929851E-01 0.70664013E+03</pdfrwt>
<totfact> 0.54867819E+01</totfact>
</mgrwt>
</event>
<event>
 4    1  0.2051094E-007  0.7688737E+03  0.7818608E-02  0.9782653E-01
          2   -1    0    0  501    0  0.00000000000E+00  0.00000000000E+00  0.26968259755E+04  0.26968259755E+04  0.25500000000E-02 0. -1.
         -2   -1    0    0    0  501 -0.00000000000E+00 -0.00000000000E+00 -0.89625606597E+03  0.89625606597E+03  0.25500000000E-02 0.  1.
    8880023    1    1    2    0    0 -0.53418118837E+02 -0.39306882756E+03  0.25871365278E+04  0.26989705849E+04  0.65864270000E+03 0. -1.
    8880022    1    1    2    0    0  0.53418118837E+02  0.39306882756E+03 -0.78656661830E+03  0.89411145651E+03  0.15294330000E+03 0.  0.
<mgrwt>
<rscale>  0 0.66301832E+03</rscale>
<asrwt>0</asrwt>
<pdfrwt beam="1">  1        2 0.41489631E+00 0.76887372E+03</pdfrwt>
<pdfrwt beam="2">  1       -2 0.13788555E+00 0.76887372E+03</pdfrwt>
<totfact> 0.10501820E+00</totfact>
</mgrwt>
</event>
<event>
 4    1  0.4144100E-007  0.9954719E+03  0.7818608E-02  0.9387506E-01
         -2   -1    0    0    0  501 -0.00000000000E+00  0.00000000000E+00  0.10845131849E+04  0.10845131849E+04  0.25500000000E-02 0.  1.
          2   -1    0    0  501    0  0.00000000000E+00 -0.00000000000E+00 -0.20001612846E+04  0.20001612846E+04  0.25500000000E-02 0. -1.
    8880023    1    1    2    0    0 -0.17354834720E+03  0.72597176203E+03 -0.17133540010E+04  0.19815514546E+04  0.65864270000E+03 0. -1.
    8880022    1    1    2    0    0  0.17354834720E+03 -0.72597176203E+03  0.79770590128E+03  0.11031230149E+04  0.15294330000E+03 0.  0.
<mgrwt>
<rscale>  0 0.93111065E+03</rscale>
<asrwt>0</asrwt>
<pdfrwt beam="1">  1        2 0.30771712E+00 0.99547187E+03</pdfrwt>
<pdfrwt beam="2">  1       -2 0.16684818E+00 0.99547187E+03</pdfrwt>
<totfact> 0.14969996E+00</totfact>
</mgrwt>
</event>
<event>
 4    1  0.2051094E-007  0.6750651E+03  0.7818608E-02  0.1012265E+00
          2   -1    0    0  501    0  0.00000000000E+00  0.00000000000E+00  0.64512276515E+03  0.64512276516E+03  0.25500000000E-02 0. -1.
         -2   -1    0    0    0  501 -0.00000000000E+00 -0.00000000000E+00 -0.66071285014E+03  0.66071285014E+03  0.25500000000E-02 0.  1.
    8880023    1    1    2    0    0  0.98023974785E+02  0.11087811099E+03  0.43806155999E+03  0.80474268666E+03  0.65864270000E+03 0. -1.
    8880022    1    1    2    0    0 -0.98023974785E+02 -0.11087811099E+03 -0.45365164498E+03  0.50109292864E+03  0.15294330000E+03 0.  0.
<mgrwt>
<rscale>  0 0.50584177E+03</rscale>
<asrwt>0</asrwt>
<pdfrwt beam="1">  1        2 0.99249656E-01 0.67506508E+03</pdfrwt>
<pdfrwt beam="2">  1       -2 0.10164813E+00 0.67506508E+03</pdfrwt>
<totfact> 0.36747915E+01</totfact>
</mgrwt>
</event>
<event>
 4    1  0.2051094E-007  0.6785830E+03  0.7818608E-02  0.1010137E+00
         -2   -1    0    0    0  501 -0.00000000000E+00  0.00000000000E+00  0.46499717246E+03  0.46499717247E+03  0.25500000000E-02 0.  1.
          2   -1    0    0  501    0  0.00000000000E+00 -0.00000000000E+00 -0.85918474568E+03  0.85918474568E+03  0.25500000000E-02 0. -1.
    8880023    1    1    2    0    0 -0.13323649648E+03 -0.94407156891E+02 -0.68036849436E+03  0.96092464306E+03  0.65864270000E+03 0. -1.
    8880022    1    1    2    0    0  0.13323649648E+03  0.94407156891E+02  0.28618092114E+03  0.36325727509E+03  0.15294330000E+03 0.  0.
<mgrwt>
<rscale>  0 0.51420300E+03</rscale>
<asrwt>0</asrwt>
<pdfrwt beam="1">  1        2 0.13218227E+00 0.67858300E+03</pdfrwt>
<pdfrwt beam="2">  1       -2 0.71538027E-01 0.67858300E+03</pdfrwt>
<totfact> 0.56542200E+01</totfact>
</mgrwt>
</event>
<event>
 4    1  0.2051094E-007  0.7036684E+03  0.7818608E-02  0.9982310E-01
         -2   -1    0    0    0  501 -0.00000000000E+00  0.00000000000E+00  0.60619091063E+03  0.60619091064E+03  0.25500000000E-02 0.  1.
          2   -1    0    0  501    0  0.00000000000E+00 -0.00000000000E+00 -0.20792691290E+04  0.20792691290E+04  0.25500000000E-02 0. -1.
    8880023    1    1    2    0    0  0.23120771270E+03 -0.88780671516E+02 -0.19797721877E+04  0.21011061695E+04  0.65864270000E+03 0. -1.
    8880022    1    1    2    0    0 -0.23120771270E+03  0.88780671516E+02  0.50669396930E+03  0.58435387017E+03  0.15294330000E+03 0.  0.
<mgrwt>
<rscale>  0 0.56432737E+03</rscale>
<asrwt>0</asrwt>
<pdfrwt beam="1">  1        2 0.31988755E+00 0.70366840E+03</pdfrwt>
<pdfrwt beam="2">  1       -2 0.93260141E-01 0.70366840E+03</pdfrwt>
<totfact> 0.61427382E+00</totfact>
</mgrwt>
</event>
<event>
 4    1  0.2051094E-007  0.7750765E+03  0.7818608E-02  0.9767532E-01
          2   -1    0    0  501    0  0.00000000000E+00  0.00000000000E+00  0.93231540789E+03  0.93231540789E+03  0.25500000000E-02 0. -1.
         -2   -1    0    0    0  501 -0.00000000000E+00 -0.00000000000E+00 -0.70886349652E+03  0.70886349652E+03  0.25500000000E-02 0.  1.
    8880023    1    1    2    0    0 -0.29838689368E+03  0.27910318844E+03  0.66441525574E+03  0.10208776452E+04  0.65864270000E+03 0. -1.
    8880022    1    1    2    0    0  0.29838689368E+03 -0.27910318844E+03 -0.44096334437E+03  0.62030125923E+03  0.15294330000E+03 0.  0.
<mgrwt>
<rscale>  0 0.67134443E+03</rscale>
<asrwt>0</asrwt>
<pdfrwt beam="1">  1        2 0.14343314E+00 0.77507647E+03</pdfrwt>
<pdfrwt beam="2">  1       -2 0.10905592E+00 0.77507647E+03</pdfrwt>
<totfact> 0.18960738E+01</totfact>
</mgrwt>
</event>
<event>
 4    1  0.2051094E-007  0.1128569E+04  0.7818608E-02  0.9229895E-01
          2   -1    0    0  501    0  0.00000000000E+00  0.00000000000E+00  0.24387845540E+04  0.24387845540E+04  0.25500000000E-02 0. -1.
         -2   -1    0    0    0  501 -0.00000000000E+00 -0.00000000000E+00 -0.52579616433E+03  0.52579616433E+03  0.25500000000E-02 0.  1.
    8880023    1    1    2    0    0  0.89124223149E+03 -0.21341399162E+03  0.16498618245E+04  0.19989278359E+04  0.65864270000E+03 0. -1.
    8880022    1    1    2    0    0 -0.89124223149E+03  0.21341399162E+03  0.26312656517E+03  0.96565288242E+03  0.15294330000E+03 0.  0.
<mgrwt>
<rscale>  0 0.10750118E+04</rscale>
<asrwt>0</asrwt>
<pdfrwt beam="1">  1        2 0.37519763E+00 0.11285692E+04</pdfrwt>
<pdfrwt beam="2">  1       -2 0.80891717E-01 0.11285692E+04</pdfrwt>
<totfact> 0.50575983E+00</totfact>
</mgrwt>
</event>
<event>
 4    1  0.2051094E-007  0.6683556E+03  0.7818608E-02  0.1016870E+00
         -2   -1    0    0    0  501 -0.00000000000E+00  0.00000000000E+00  0.79542034353E+03  0.79542034353E+03  0.25500000000E-02 0.  1.
          2   -1    0    0  501    0  0.00000000000E+00 -0.00000000000E+00 -0.61859852143E+03  0.61859852144E+03  0.25500000000E-02 0. -1.
    8880023    1    1    2    0    0 -0.11351949748E+03  0.15238194019E+01 -0.41876875652E+03  0.78871190940E+03  0.65864270000E+03 0. -1.
    8880022    1    1    2    0    0  0.11351949748E+03 -0.15238194019E+01  0.59559057861E+03  0.62530695557E+03  0.15294330000E+03 0.  0.
<mgrwt>
<rscale>  0 0.48833188E+03</rscale>
<asrwt>0</asrwt>
<pdfrwt beam="1">  1        2 0.95169004E-01 0.66835560E+03</pdfrwt>
<pdfrwt beam="2">  1       -2 0.12237236E+00 0.66835560E+03</pdfrwt>
<totfact> 0.24667409E+01</totfact>
</mgrwt>
</event>
<event>
 4    1  0.2277537E-007  0.9015110E+03  0.7818608E-02  0.9523610E-01
          2   -1    0    0  501    0  0.00000000000E+00  0.00000000000E+00  0.17029850410E+04  0.17029850410E+04  0.25500000000E-02 0. -1.
         -2   -1    0    0    0  501 -0.00000000000E+00 -0.00000000000E+00 -0.12299317779E+04  0.12299317779E+04  0.25500000000E-02 0.  1.
    8880023    1    1    2    0    0  0.51052141932E+03  0.34391816983E+03  0.14858213864E+04  0.17379261278E+04  0.65864270000E+03 0. -1.
    8880022    1    1    2    0    0 -0.51052141932E+03 -0.34391816983E+03 -0.10127681233E+04  0.11949906911E+04  0.15294330000E+03 0.  0.
<mgrwt>
<rscale>  0 0.82565285E+03</rscale>
<asrwt>0</asrwt>
<pdfrwt beam="1">  1        2 0.26199770E+00 0.90151097E+03</pdfrwt>
<pdfrwt beam="2">  1       -2 0.18922027E+00 0.90151097E+03</pdfrwt>
<totfact> 0.15464300E+00</totfact>
</mgrwt>
</event>
<event>
 4    1  0.2051094E-007  0.7154152E+03  0.7818608E-02  0.9938416E-01
         -2   -1    0    0    0  501 -0.00000000000E+00  0.00000000000E+00  0.13479574694E+03  0.13479574697E+03  0.25500000000E-02 0.  1.
          2   -1    0    0  501    0  0.00000000000E+00 -0.00000000000E+00 -0.20829236873E+04  0.20829236873E+04  0.25500000000E-02 0. -1.
    8880023    1    1    2    0    0  0.22840407987E+03  0.16074903390E+03 -0.15559546079E+04  0.17125459479E+04  0.65864270000E+03 0. -1.
    8880022    1    1    2    0    0 -0.22840407987E+03 -0.16074903390E+03 -0.39217333239E+03  0.50517348629E+03  0.15294330000E+03 0.  1.
<mgrwt>
<rscale>  0 0.58435065E+03</rscale>
<asrwt>0</asrwt>
<pdfrwt beam="1">  1        2 0.32044978E+00 0.71541518E+03</pdfrwt>
<pdfrwt beam="2">  1       -2 0.20737809E-01 0.71541518E+03</pdfrwt>
<totfact> 0.12397018E+02</totfact>
</mgrwt>
</event>
<event>
 4    1  0.2051094E-007  0.7493311E+03  0.7818608E-02  0.9833555E-01
          2   -1    0    0  501    0  0.00000000000E+00  0.00000000000E+00  0.25651803227E+04  0.25651803227E+04  0.25500000000E-02 0. -1.
         -2   -1    0    0    0  501 -0.00000000000E+00 -0.00000000000E+00 -0.11419165466E+04  0.11419165466E+04  0.25500000000E-02 0.  1.
    8880023    1    1    2    0    0 -0.22235733563E+03  0.27972153233E+03  0.24749409980E+04  0.25858905758E+04  0.65864270000E+03 0. -1.
    8880022    1    1    2    0    0  0.22235733563E+03 -0.27972153233E+03 -0.10516772219E+04  0.11212062934E+04  0.15294330000E+03 0.  0.
<mgrwt>
<rscale>  0 0.63592469E+03</rscale>
<asrwt>0</asrwt>
<pdfrwt beam="1">  1        2 0.39464313E+00 0.74933112E+03</pdfrwt>
<pdfrwt beam="2">  1       -2 0.17567947E+00 0.74933112E+03</pdfrwt>
<totfact> 0.65528718E-01</totfact>
</mgrwt>
</event>
<event>
 4    1  0.2051094E-007  0.7580430E+03  0.7818608E-02  0.9810201E-01
          2   -1    0    0  501    0  0.00000000000E+00  0.00000000000E+00  0.16797266209E+04  0.16797266209E+04  0.25500000000E-02 0. -1.
         -2   -1    0    0    0  501 -0.00000000000E+00 -0.00000000000E+00 -0.43289411251E+03  0.43289411251E+03  0.25500000000E-02 0.  1.
    8880023    1    1    2    0    0 -0.25552061708E+03 -0.27482395389E+03  0.14671214065E+04  0.16513856058E+04  0.65864270000E+03 0.  0.
    8880022    1    1    2    0    0  0.25552061708E+03  0.27482395389E+03 -0.22028889804E+03  0.46123512767E+03  0.15294330000E+03 0.  0.
<mgrwt>
<rscale>  0 0.64817988E+03</rscale>
<asrwt>0</asrwt>
<pdfrwt beam="1">  1        2 0.25841948E+00 0.75804301E+03</pdfrwt>
<pdfrwt beam="2">  1       -2 0.66599094E-01 0.75804301E+03</pdfrwt>
<totfact> 0.21397010E+01</totfact>
</mgrwt>
</event>
<event>
 4    1  0.2051094E-007  0.6920682E+03  0.7818608E-02  0.1003185E+00
         -2   -1    0    0    0  501 -0.00000000000E+00  0.00000000000E+00  0.23993560318E+03  0.23993560319E+03  0.25500000000E-02 0.  1.
          2   -1    0    0  501    0  0.00000000000E+00 -0.00000000000E+00 -0.95032663233E+03  0.95032663233E+03  0.25500000000E-02 0. -1.
    8880023    1    1    2    0    0  0.30661998175E+01  0.21245900399E+03 -0.48892352953E+03  0.84735155275E+03  0.65864270000E+03 0. -1.
    8880022    1    1    2    0    0 -0.30661998175E+01 -0.21245900399E+03 -0.22146749962E+03  0.34291068278E+03  0.15294330000E+03 0. -1.
<mgrwt>
<rscale>  0 0.54275596E+03</rscale>
<asrwt>0</asrwt>
<pdfrwt beam="1">  1        2 0.14620410E+00 0.69206823E+03</pdfrwt>
<pdfrwt beam="2">  1       -2 0.36913170E-01 0.69206823E+03</pdfrwt>
<totfact> 0.19022537E+02</totfact>
</mgrwt>
</event>
<event>
 4    1  0.2051094E-007  0.6986996E+03  0.7818608E-02  0.1000264E+00
          2   -1    0    0  501    0  0.00000000000E+00  0.00000000000E+00  0.97262413021E+03  0.97262413021E+03  0.25500000000E-02 0. -1.
         -2   -1    0    0    0  501 -0.00000000000E+00 -0.00000000000E+00 -0.68752441552E+03  0.68752441553E+03  0.25500000000E-02 0.  1.
    8880023    1    1    2    0    0 -0.23272161316E+03  0.14544317274E+02  0.80759776483E+03  0.10678928984E+04  0.65864270000E+03 0.  0.
    8880022    1    1    2    0    0  0.23272161316E+03 -0.14544317274E+02 -0.52249805015E+03  0.59225564735E+03  0.15294330000E+03 0.  0.
<mgrwt>
<rscale>  0 0.55534666E+03</rscale>
<asrwt>0</asrwt>
<pdfrwt beam="1">  1        2 0.14963448E+00 0.69869957E+03</pdfrwt>
<pdfrwt beam="2">  1       -2 0.10577299E+00 0.69869957E+03</pdfrwt>
<totfact> 0.19365496E+01</totfact>
</mgrwt>
</event>
<event>
 4    1  0.2068232E-007  0.1219474E+04  0.7818608E-02  0.9138421E-01
         -2   -1    0    0    0  501 -0.00000000000E+00  0.00000000000E+00  0.95859700543E+03  0.95859700543E+03  0.25500000000E-02 0.  1.
          2   -1    0    0  501    0  0.00000000000E+00 -0.00000000000E+00 -0.24368746072E+04  0.24368746072E+04  0.25500000000E-02 0. -1.
    8880023    1    1    2    0    0 -0.87550797541E+03 -0.53553025312E+03 -0.19144755409E+04  0.22698752542E+04  0.65864270000E+03 0. -1.
    8880022    1    1    2    0    0  0.87550797541E+03  0.53553025312E+03  0.43619793907E+03  0.11255963584E+04  0.15294330000E+03 0.  0.
<mgrwt>
<rscale>  0 0.11712273E+04</rscale>
<asrwt>0</asrwt>
<pdfrwt beam="1">  1        2 0.37490378E+00 0.12194741E+04</pdfrwt>
<pdfrwt beam="2">  1       -2 0.14747646E+00 0.12194741E+04</pdfrwt>
<totfact> 0.11566954E+00</totfact>
</mgrwt>
</event>
<event>
 4    1  0.2051094E-007  0.7361815E+03  0.7818608E-02  0.9871213E-01
          2   -1    0    0  501    0  0.00000000000E+00  0.00000000000E+00  0.34411209372E+04  0.34411209372E+04  0.25500000000E-02 0. -1.
         -2   -1    0    0    0  501 -0.00000000000E+00 -0.00000000000E+00 -0.14191566231E+03  0.14191566233E+03  0.25500000000E-02 0.  1.
    8880023    1    1    2    0    0  0.30366331656E+03 -0.12626017534E+03  0.30629627199E+04  0.31501910849E+04  0.65864270000E+03 0.  0.
    8880022    1    1    2    0    0 -0.30366331656E+03  0.12626017534E+03  0.23624255495E+03  0.43284551458E+03  0.15294330000E+03 0.  0.
<mgrwt>
<rscale>  0 0.61676945E+03</rscale>
<asrwt>0</asrwt>
<pdfrwt beam="1">  1        2 0.52940323E+00 0.73618153E+03</pdfrwt>
<pdfrwt beam="2">  1       -2 0.21833178E-01 0.73618153E+03</pdfrwt>
<totfact> 0.17595390E+01</totfact>
</mgrwt>
</event>
<event>
 4    1  0.2051094E-007  0.9646713E+03  0.7818608E-02  0.9429312E-01
          2   -1    0    0  501    0  0.00000000000E+00  0.00000000000E+00  0.12341142762E+04  0.12341142762E+04  0.25500000000E-02 0. -1.
         -2   -1    0    0    0  501 -0.00000000000E+00 -0.00000000000E+00 -0.13717725035E+04  0.13717725035E+04  0.25500000000E-02 0.  1.
    8880023    1    1    2    0    0 -0.49704146028E+03 -0.49973026751E+03  0.91517243727E+03  0.13297110023E+04  0.65864270000E+03 0.  0.
    8880022    1    1    2    0    0  0.49704146028E+03  0.49973026751E+03 -0.10528306645E+04  0.12761757774E+04  0.15294330000E+03 0.  0.
<mgrwt>
<rscale>  0 0.89702164E+03</rscale>
<asrwt>0</asrwt>
<pdfrwt beam="1">  1        2 0.18986373E+00 0.96467132E+03</pdfrwt>
<pdfrwt beam="2">  1       -2 0.21104193E+00 0.96467132E+03</pdfrwt>
<totfact> 0.20330115E+00</totfact>
</mgrwt>
</event>
<event>
 4    1  0.2051094E-007  0.8900117E+03  0.7818608E-02  0.9542260E-01
          2   -1    0    0  501    0  0.00000000000E+00  0.00000000000E+00  0.11711401636E+04  0.11711401636E+04  0.25500000000E-02 0. -1.
         -2   -1    0    0    0  501 -0.00000000000E+00 -0.00000000000E+00 -0.72124543213E+03  0.72124543214E+03  0.25500000000E-02 0.  1.
    8880023    1    1    2    0    0 -0.28452744268E+03 -0.52664474464E+03  0.78745435417E+03  0.11883623685E+04  0.65864270000E+03 0. -1.
    8880022    1    1    2    0    0  0.28452744268E+03  0.52664474464E+03 -0.33755962266E+03  0.70402322729E+03  0.15294330000E+03 0.  0.
<mgrwt>
<rscale>  0 0.81238586E+03</rscale>
<asrwt>0</asrwt>
<pdfrwt beam="1">  1        2 0.18017541E+00 0.89001166E+03</pdfrwt>
<pdfrwt beam="2">  1       -2 0.11096084E+00 0.89001166E+03</pdfrwt>
<totfact> 0.12727259E+01</totfact>
</mgrwt>
</event>
<event>
 4    1  0.2051094E-007  0.1577522E+04  0.7818608E-02  0.8856749E-01
         -2   -1    0    0    0  501 -0.00000000000E+00  0.00000000000E+00  0.43872543236E+04  0.43872543236E+04  0.25500000000E-02 0.  1.
          2   -1    0    0  501    0  0.00000000000E+00 -0.00000000000E+00 -0.93228709186E+03  0.93228709186E+03  0.25500000000E-02 0. -1.
    8880023    1    1    2    0    0 -0.75121300351E+03  0.12208381912E+04  0.17745106374E+01  0.15775234454E+04  0.65864270000E+03 0.  0.
    8880022    1    1    2    0    0  0.75121300351E+03 -0.12208381912E+04  0.34531927211E+04  0.37420179700E+04  0.15294330000E+03 0.  0.
<mgrwt>
<rscale>  0 0.15423804E+04</rscale>
<asrwt>0</asrwt>
<pdfrwt beam="1">  1        2 0.14342878E+00 0.15775224E+04</pdfrwt>
<pdfrwt beam="2">  1       -2 0.67496220E+00 0.15775224E+04</pdfrwt>
<totfact> 0.71149211E-03</totfact>
</mgrwt>
</event>
<event>
 4    1  0.2051094E-007  0.1691001E+04  0.7818608E-02  0.8785355E-01
          2   -1    0    0  501    0  0.00000000000E+00  0.00000000000E+00  0.34787920130E+04  0.34787920130E+04  0.25500000000E-02 0. -1.
         -2   -1    0    0    0  501 -0.00000000000E+00 -0.00000000000E+00 -0.10768685875E+04  0.10768685876E+04  0.25500000000E-02 0.  1.
    8880023    1    1    2    0    0 -0.14350540926E+04  0.60522111136E+03  0.25064654509E+01  0.16910024633E+04  0.65864270000E+03 0.  0.
    8880022    1    1    2    0    0  0.14350540926E+04 -0.60522111136E+03  0.23994169600E+04  0.28646581372E+04  0.15294330000E+03 0.  0.
<mgrwt>
<rscale>  0 0.16585664E+04</rscale>
<asrwt>0</asrwt>
<pdfrwt beam="1">  1        2 0.53519878E+00 0.16910006E+04</pdfrwt>
<pdfrwt beam="2">  1       -2 0.16567209E+00 0.16910006E+04</pdfrwt>
<totfact> 0.17893379E-01</totfact>
</mgrwt>
</event>
<event>
 4    1  0.2051094E-007  0.7138796E+03  0.7818608E-02  0.9943867E-01
         -2   -1    0    0    0  501 -0.00000000000E+00  0.00000000000E+00  0.99838467948E+03  0.99838467948E+03  0.25500000000E-02 0.  1.
          2   -1    0    0  501    0  0.00000000000E+00 -0.00000000000E+00 -0.23620613298E+04  0.23620613298E+04  0.25500000000E-02 0. -1.
    8880023    1    1    2    0    0  0.15125103463E+03  0.23008056879E+03 -0.22812388954E+04  0.23903294852E+04  0.65864270000E+03 0.  0.
    8880022    1    1    2    0    0 -0.15125103463E+03 -0.23008056879E+03  0.91756224511E+03  0.97011652407E+03  0.15294330000E+03 0.  0.
<mgrwt>
<rscale>  0 0.58181615E+03</rscale>
<asrwt>0</asrwt>
<pdfrwt beam="1">  1        2 0.36339405E+00 0.71387965E+03</pdfrwt>
<pdfrwt beam="2">  1       -2 0.15359764E+00 0.71387965E+03</pdfrwt>
<totfact> 0.12418539E+00</totfact>
</mgrwt>
</event>
<event>
 4    1  0.2051094E-007  0.8019896E+03  0.7818608E-02  0.9706510E-01
         -2   -1    0    0    0  501 -0.00000000000E+00  0.00000000000E+00  0.59564240430E+03  0.59564240431E+03  0.25500000000E-02 0.  1.
          2   -1    0    0  501    0  0.00000000000E+00 -0.00000000000E+00 -0.26161332600E+04  0.26161332600E+04  0.25500000000E-02 0. -1.
    8880023    1    1    2    0    0 -0.45689893606E+03 -0.24910793832E+02 -0.24424970818E+04  0.25707935324E+04  0.65864270000E+03 0. -1.
    8880022    1    1    2    0    0  0.45689893606E+03  0.24910793832E+02  0.42200622616E+03  0.64098213185E+03  0.15294330000E+03 0.  0.
<mgrwt>
<rscale>  0 0.70630483E+03</rscale>
<asrwt>0</asrwt>
<pdfrwt beam="1">  1        2 0.40248203E+00 0.80198965E+03</pdfrwt>
<pdfrwt beam="2">  1       -2 0.91637294E-01 0.80198965E+03</pdfrwt>
<totfact> 0.31503995E+00</totfact>
</mgrwt>
</event>
<event>
 4    1  0.2051094E-007  0.6796976E+03  0.7818608E-02  0.1009495E+00
         -2   -1    0    0    0  501 -0.00000000000E+00  0.00000000000E+00  0.34848473652E+03  0.34848473653E+03  0.25500000000E-02 0.  1.
          2   -1    0    0  501    0  0.00000000000E+00 -0.00000000000E+00 -0.10539940811E+04  0.10539940811E+04  0.25500000000E-02 0. -1.
    8880023    1    1    2    0    0 -0.13750007573E+03 -0.96293253758E+02 -0.88296343837E+03  0.11142770308E+04  0.65864270000E+03 0.  0.
    8880022    1    1    2    0    0  0.13750007573E+03  0.96293253758E+02  0.17745409377E+03  0.28820178688E+03  0.15294330000E+03 0.  1.
<mgrwt>
<rscale>  0 0.51675750E+03</rscale>
<asrwt>0</asrwt>
<pdfrwt beam="1">  1        2 0.16215293E+00 0.67969763E+03</pdfrwt>
<pdfrwt beam="2">  1       -2 0.53613037E-01 0.67969763E+03</pdfrwt>
<totfact> 0.77893725E+01</totfact>
</mgrwt>
</event>
<event>
 4    1  0.2051094E-007  0.1070678E+04  0.7818608E-02  0.9294427E-01
         -2   -1    0    0    0  501 -0.00000000000E+00  0.00000000000E+00  0.94323411965E+03  0.94323411966E+03  0.25500000000E-02 0.  1.
          2   -1    0    0  501    0  0.00000000000E+00 -0.00000000000E+00 -0.26181757431E+04  0.26181757431E+04  0.25500000000E-02 0. -1.
    8880023    1    1    2    0    0 -0.65641568033E+03  0.53071528570E+03 -0.22751047687E+04  0.25144486821E+04  0.65864270000E+03 0. -1.
    8880022    1    1    2    0    0  0.65641568033E+03 -0.53071528570E+03  0.60016314528E+03  0.10469611807E+04  0.15294330000E+03 0.  0.
<mgrwt>
<rscale>  0 0.10129750E+04</rscale>
<asrwt>0</asrwt>
<pdfrwt beam="1">  1        2 0.40279627E+00 0.10706776E+04</pdfrwt>
<pdfrwt beam="2">  1       -2 0.14511294E+00 0.10706776E+04</pdfrwt>
<totfact> 0.96838525E-01</totfact>
</mgrwt>
</event>
<event>
 4    1  0.2051094E-007  0.1108640E+04  0.7818608E-02  0.9251498E-01
          2   -1    0    0  501    0  0.00000000000E+00  0.00000000000E+00  0.12822384259E+04  0.12822384259E+04  0.25500000000E-02 0. -1.
         -2   -1    0    0    0  501 -0.00000000000E+00 -0.00000000000E+00 -0.95444960176E+03  0.95444960176E+03  0.25500000000E-02 0.  1.
    8880023    1    1    2    0    0 -0.62483497644E+03 -0.63628037257E+03  0.63930541521E+03  0.12797629001E+04  0.65864270000E+03 0. -1.
    8880022    1    1    2    0    0  0.62483497644E+03  0.63628037257E+03 -0.31151659104E+03  0.95692512759E+03  0.15294330000E+03 0.  0.
<mgrwt>
<rscale>  0 0.10537338E+04</rscale>
<asrwt>0</asrwt>
<pdfrwt beam="1">  1        2 0.19726745E+00 0.11086396E+04</pdfrwt>
<pdfrwt beam="2">  1       -2 0.14683840E+00 0.11086396E+04</pdfrwt>
<totfact> 0.52651023E+00</totfact>
</mgrwt>
</event>
<event>
 4    1  0.2051094E-007  0.8041010E+03  0.7818608E-02  0.9701998E-01
         -2   -1    0    0    0  501 -0.00000000000E+00  0.00000000000E+00  0.27053126556E+04  0.27053126556E+04  0.25500000000E-02 0.  1.
          2   -1    0    0  501    0  0.00000000000E+00 -0.00000000000E+00 -0.50652630977E+03  0.50652630978E+03  0.25500000000E-02 0. -1.
    8880023    1    1    2    0    0 -0.10089527155E+03  0.45009807915E+03 -0.14597889105E+03  0.81724425943E+03  0.65864270000E+03 0.  0.
    8880022    1    1    2    0    0  0.10089527155E+03 -0.45009807915E+03  0.23447652369E+04  0.23945947059E+04  0.15294330000E+03 0.  0.
<mgrwt>
<rscale>  0 0.70897950E+03</rscale>
<asrwt>0</asrwt>
<pdfrwt beam="1">  1        2 0.77927126E-01 0.80410095E+03</pdfrwt>
<pdfrwt beam="2">  1       -2 0.41620194E+00 0.80410095E+03</pdfrwt>
<totfact> 0.37161492E-01</totfact>
</mgrwt>
</event>
<event>
 4    1  0.2051094E-007  0.1028800E+04  0.7818608E-02  0.9344812E-01
         -2   -1    0    0    0  501 -0.00000000000E+00  0.00000000000E+00  0.67003907978E+03  0.67003907979E+03  0.25500000000E-02 0.  1.
          2   -1    0    0  501    0  0.00000000000E+00 -0.00000000000E+00 -0.17365906608E+04  0.17365906608E+04  0.25500000000E-02 0. -1.
    8880023    1    1    2    0    0  0.24763870985E+03 -0.75052883737E+03 -0.12107577645E+04  0.15888244198E+04  0.65864270000E+03 0.  0.
    8880022    1    1    2    0    0 -0.24763870985E+03  0.75052883737E+03  0.14420618351E+03  0.81780532079E+03  0.15294330000E+03 0.  0.
<mgrwt>
<rscale>  0 0.96759992E+03</rscale>
<asrwt>0</asrwt>
<pdfrwt beam="1">  1        2 0.26716779E+00 0.10287996E+04</pdfrwt>
<pdfrwt beam="2">  1       -2 0.10308294E+00 0.10287996E+04</pdfrwt>
<totfact> 0.71469595E+00</totfact>
</mgrwt>
</event>
<event>
 4    1  0.2051094E-007  0.1017392E+04  0.7818608E-02  0.9359150E-01
         -2   -1    0    0    0  501 -0.00000000000E+00  0.00000000000E+00  0.80867857756E+03  0.80867857756E+03  0.25500000000E-02 0.  1.
          2   -1    0    0  501    0  0.00000000000E+00 -0.00000000000E+00 -0.39772337530E+04  0.39772337530E+04  0.25500000000E-02 0. -1.
    8880023    1    1    2    0    0  0.15065091279E+03 -0.76064436030E+03 -0.36974797370E+04  0.38348979325E+04  0.65864270000E+03 0. -1.
    8880022    1    1    2    0    0 -0.15065091279E+03  0.76064436030E+03  0.52892456164E+03  0.95101439805E+03  0.15294330000E+03 0.  0.
<mgrwt>
<rscale>  0 0.95515139E+03</rscale>
<asrwt>0</asrwt>
<pdfrwt beam="1">  1        2 0.61188211E+00 0.10173916E+04</pdfrwt>
<pdfrwt beam="2">  1       -2 0.12441209E+00 0.10173916E+04</pdfrwt>
<totfact> 0.18089840E-01</totfact>
</mgrwt>
</event>
<event>
 4    1  0.2051094E-007  0.7760232E+03  0.7818608E-02  0.9765263E-01
         -2   -1    0    0    0  501 -0.00000000000E+00  0.00000000000E+00  0.15065588918E+04  0.15065588918E+04  0.25500000000E-02 0.  1.
          2   -1    0    0  501    0  0.00000000000E+00 -0.00000000000E+00 -0.48056936929E+03  0.48056936929E+03  0.25500000000E-02 0. -1.
    8880023    1    1    2    0    0 -0.23153780029E+03  0.33880965440E+03 -0.96719317531E+02  0.78202721661E+03  0.65864270000E+03 0.  0.
    8880022    1    1    2    0    0  0.23153780029E+03 -0.33880965440E+03  0.11227088400E+04  0.12051010445E+04  0.15294330000E+03 0.  0.
<mgrwt>
<rscale>  0 0.67260519E+03</rscale>
<asrwt>0</asrwt>
<pdfrwt beam="1">  1        2 0.73933750E-01 0.77602316E+03</pdfrwt>
<pdfrwt beam="2">  1       -2 0.23177829E+00 0.77602316E+03</pdfrwt>
<totfact> 0.54908272E+00</totfact>
</mgrwt>
</event>
<event>
 4    1  0.2051094E-007  0.7023049E+03  0.7818608E-02  0.9987771E-01
         -2   -1    0    0    0  501 -0.00000000000E+00  0.00000000000E+00  0.27109703067E+03  0.27109703068E+03  0.25500000000E-02 0.  1.
          2   -1    0    0  501    0  0.00000000000E+00 -0.00000000000E+00 -0.17927361037E+04  0.17927361037E+04  0.25500000000E-02 0. -1.
    8880023    1    1    2    0    0  0.24144130293E+03  0.33587106169E+02 -0.16151619817E+04  0.17612440006E+04  0.65864270000E+03 0. -1.
    8880022    1    1    2    0    0 -0.24144130293E+03 -0.33587106169E+02  0.93522908572E+02  0.30258913382E+03  0.15294330000E+03 0.  0.
<mgrwt>
<rscale>  0 0.56189740E+03</rscale>
<asrwt>0</asrwt>
<pdfrwt beam="1">  1        2 0.27580555E+00 0.70230492E+03</pdfrwt>
<pdfrwt beam="2">  1       -2 0.41707237E-01 0.70230492E+03</pdfrwt>
<totfact> 0.48969896E+01</totfact>
</mgrwt>
</event>
<event>
 4    1  0.2051094E-007  0.8772727E+03  0.7818608E-02  0.9563548E-01
          2   -1    0    0  501    0  0.00000000000E+00  0.00000000000E+00  0.24348560425E+04  0.24348560425E+04  0.25500000000E-02 0. -1.
         -2   -1    0    0    0  501 -0.00000000000E+00 -0.00000000000E+00 -0.52665867127E+03  0.52665867127E+03  0.25500000000E-02 0.  1.
    8880023    1    1    2    0    0  0.57683350690E+03  0.55319256273E+02  0.21447232765E+04  0.23172063468E+04  0.65864270000E+03 0.  0.
    8880022    1    1    2    0    0 -0.57683350690E+03 -0.55319256273E+02 -0.23652590529E+03  0.64430836692E+03  0.15294330000E+03 0.  0.
<mgrwt>
<rscale>  0 0.79756537E+03</rscale>
<asrwt>0</asrwt>
<pdfrwt beam="1">  1        2 0.37459324E+00 0.87727266E+03</pdfrwt>
<pdfrwt beam="2">  1       -2 0.81024410E-01 0.87727266E+03</pdfrwt>
<totfact> 0.52335874E+00</totfact>
</mgrwt>
</event>
<event>
 4    1  0.2051094E-007  0.6707036E+03  0.7818608E-02  0.1015163E+00
          2   -1    0    0  501    0  0.00000000000E+00  0.00000000000E+00  0.15503645194E+04  0.15503645194E+04  0.25500000000E-02 0. -1.
         -2   -1    0    0    0  501 -0.00000000000E+00 -0.00000000000E+00 -0.17448044874E+03  0.17448044876E+03  0.25500000000E-02 0.  1.
    8880023    1    1    2    0    0  0.12632489842E+03 -0.86655902246E+01  0.13709582067E+04  0.15262272712E+04  0.65864270000E+03 0. -1.
    8880022    1    1    2    0    0 -0.12632489842E+03  0.86655902246E+01  0.49258639468E+01  0.19861769701E+03  0.15294330000E+03 0.  0.
<mgrwt>
<rscale>  0 0.49473091E+03</rscale>
<asrwt>0</asrwt>
<pdfrwt beam="1">  1        2 0.23851761E+00 0.67070357E+03</pdfrwt>
<pdfrwt beam="2">  1       -2 0.26843147E-01 0.67070357E+03</pdfrwt>
<totfact> 0.15327704E+02</totfact>
</mgrwt>
</event>
<event>
 4    1  0.2051094E-007  0.1957379E+04  0.7818608E-02  0.8640139E-01
         -2   -1    0    0    0  501 -0.00000000000E+00  0.00000000000E+00  0.32095534953E+04  0.32095534953E+04  0.25500000000E-02 0.  1.
          2   -1    0    0  501    0  0.00000000000E+00 -0.00000000000E+00 -0.19987952534E+04  0.19987952534E+04  0.25500000000E-02 0. -1.
    8880023    1    1    2    0    0 -0.12769394142E+04 -0.13292652891E+04 -0.11025496069E+04  0.22465409674E+04  0.65864270000E+03 0. -1.
    8880022    1    1    2    0    0  0.12769394142E+04  0.13292652891E+04  0.23133078488E+04  0.29618077812E+04  0.15294330000E+03 0.  0.
<mgrwt>
<rscale>  0 0.19298513E+04</rscale>
<asrwt>0</asrwt>
<pdfrwt beam="1">  1        2 0.30750696E+00 0.19573785E+04</pdfrwt>
<pdfrwt beam="2">  1       -2 0.49377746E+00 0.19573785E+04</pdfrwt>
<totfact> 0.10638360E-02</totfact>
</mgrwt>
</event>
<event>
 4    1  0.2051094E-007  0.7917986E+03  0.7818608E-02  0.9728818E-01
          2   -1    0    0  501    0  0.00000000000E+00  0.00000000000E+00  0.33842949368E+04  0.33842949368E+04  0.25500000000E-02 0. -1.
         -2   -1    0    0    0  501 -0.00000000000E+00 -0.00000000000E+00 -0.10730719193E+04  0.10730719193E+04  0.25500000000E-02 0.  1.
    8880023    1    1    2    0    0 -0.35141447391E+03 -0.26389898910E+03  0.32844901604E+04  0.33785826361E+04  0.65864270000E+03 0. -1.
    8880022    1    1    2    0    0  0.35141447391E+03  0.26389898910E+03 -0.97326714285E+03  0.10787842200E+04  0.15294330000E+03 0.  0.
<mgrwt>
<rscale>  0 0.69326603E+03</rscale>
<asrwt>0</asrwt>
<pdfrwt beam="1">  1        2 0.52066074E+00 0.79179860E+03</pdfrwt>
<pdfrwt beam="2">  1       -2 0.16508799E+00 0.79179860E+03</pdfrwt>
<totfact> 0.24294813E-01</totfact>
</mgrwt>
</event>
<event>
 4    1  0.2051094E-007  0.1307815E+04  0.7818608E-02  0.9058840E-01
          2   -1    0    0  501    0  0.00000000000E+00  0.00000000000E+00  0.43435841427E+04  0.43435841427E+04  0.25500000000E-02 0. -1.
         -2   -1    0    0    0  501 -0.00000000000E+00 -0.00000000000E+00 -0.62097143976E+03  0.62097143976E+03  0.25500000000E-02 0.  1.
    8880023    1    1    2    0    0  0.69820630026E+03 -0.88830096585E+03  0.27919399697E+03  0.13372846136E+04  0.65864270000E+03 0.  1.
    8880022    1    1    2    0    0 -0.69820630026E+03  0.88830096585E+03  0.34434187060E+04  0.36272709688E+04  0.15294330000E+03 0.  0.
<mgrwt>
<rscale>  0 0.12637209E+04</rscale>
<asrwt>0</asrwt>
<pdfrwt beam="1">  1        2 0.66824369E+00 0.13078153E+04</pdfrwt>
<pdfrwt beam="2">  1       -2 0.95534071E-01 0.13078153E+04</pdfrwt>
<totfact> 0.16028586E-01</totfact>
</mgrwt>
</event>
<event>
 4    1  0.2051094E-007  0.7621951E+03  0.7818608E-02  0.9799458E-01
          2   -1    0    0  501    0  0.00000000000E+00  0.00000000000E+00  0.27131758330E+04  0.27131758330E+04  0.25500000000E-02 0. -1.
         -2   -1    0    0    0  501 -0.00000000000E+00 -0.00000000000E+00 -0.31365566967E+03  0.31365566968E+03  0.25500000000E-02 0.  1.
    8880023    1    1    2    0    0 -0.26361786345E+03  0.27863368252E+03  0.24900409650E+04  0.26040824335E+04  0.65864270000E+03 0. -1.
    8880022    1    1    2    0    0  0.26361786345E+03 -0.27863368252E+03 -0.90520801630E+02  0.42274906920E+03  0.15294330000E+03 0.  0.
<mgrwt>
<rscale>  0 0.65391665E+03</rscale>
<asrwt>0</asrwt>
<pdfrwt beam="1">  1        2 0.41741166E+00 0.76219506E+03</pdfrwt>
<pdfrwt beam="2">  1       -2 0.48254719E-01 0.76219506E+03</pdfrwt>
<totfact> 0.11161407E+01</totfact>
</mgrwt>
</event>
<event>
 4    1  0.2051094E-007  0.1143411E+04  0.7818608E-02  0.9214195E-01
         -2   -1    0    0    0  501 -0.00000000000E+00  0.00000000000E+00  0.66584487409E+03  0.66584487409E+03  0.25500000000E-02 0.  1.
          2   -1    0    0  501    0  0.00000000000E+00 -0.00000000000E+00 -0.23250677549E+04  0.23250677549E+04  0.25500000000E-02 0. -1.
    8880023    1    1    2    0    0  0.37991130144E+03 -0.85395953075E+03 -0.16933196817E+04  0.20432134563E+04  0.65864270000E+03 0.  0.
    8880022    1    1    2    0    0 -0.37991130144E+03  0.85395953075E+03  0.34096800904E+02  0.94769917272E+03  0.15294330000E+03 0.  0.
<mgrwt>
<rscale>  0 0.10908102E+04</rscale>
<asrwt>0</asrwt>
<pdfrwt beam="1">  1        2 0.35770273E+00 0.11434114E+04</pdfrwt>
<pdfrwt beam="2">  1       -2 0.10243767E+00 0.11434114E+04</pdfrwt>
<totfact> 0.33788649E+00</totfact>
</mgrwt>
</event>
<event>
 4    1  0.2051094E-007  0.9404385E+03  0.7818608E-02  0.9464006E-01
          2   -1    0    0  501    0  0.00000000000E+00  0.00000000000E+00  0.78592012231E+03  0.78592012232E+03  0.25500000000E-02 0. -1.
         -2   -1    0    0    0  501 -0.00000000000E+00 -0.00000000000E+00 -0.13419639707E+04  0.13419639707E+04  0.25500000000E-02 0.  1.
    8880023    1    1    2    0    0 -0.52668084279E+03 -0.41619915801E+03  0.33811935785E+03  0.99937448222E+03  0.65864270000E+03 0. -1.
    8880022    1    1    2    0    0  0.52668084279E+03  0.41619915801E+03 -0.89416320626E+03  0.11285096108E+04  0.15294330000E+03 0.  0.
<mgrwt>
<rscale>  0 0.86990296E+03</rscale>
<asrwt>0</asrwt>
<pdfrwt beam="1">  1        2 0.12091079E+00 0.94043854E+03</pdfrwt>
<pdfrwt beam="2">  1       -2 0.20645599E+00 0.94043854E+03</pdfrwt>
<totfact> 0.42551516E+00</totfact>
</mgrwt>
</event>
<event>
 4    1  0.2051094E-007  0.1166718E+04  0.7818608E-02  0.9190174E-01
          2   -1    0    0  501    0  0.00000000000E+00  0.00000000000E+00  0.12930801462E+04  0.12930801462E+04  0.25500000000E-02 0. -1.
         -2   -1    0    0    0  501 -0.00000000000E+00 -0.00000000000E+00 -0.11787304667E+04  0.11787304667E+04  0.25500000000E-02 0.  1.
    8880023    1    1    2    0    0  0.64388227973E+02 -0.96087215742E+03  0.67411618482E+03  0.13474657635E+04  0.65864270000E+03 0.  0.
    8880022    1    1    2    0    0 -0.64388227973E+02  0.96087215742E+03 -0.55976650531E+03  0.11243448494E+04  0.15294330000E+03 0.  0.
<mgrwt>
<rscale>  0 0.11155431E+04</rscale>
<asrwt>0</asrwt>
<pdfrwt beam="1">  1        2 0.19893541E+00 0.11667182E+04</pdfrwt>
<pdfrwt beam="2">  1       -2 0.18134315E+00 0.11667182E+04</pdfrwt>
<totfact> 0.28849900E+00</totfact>
</mgrwt>
</event>
<event>
 4    1  0.2051094E-007  0.9908448E+03  0.7818608E-02  0.9393635E-01
         -2   -1    0    0    0  501 -0.00000000000E+00  0.00000000000E+00  0.13103206878E+04  0.13103206878E+04  0.25500000000E-02 0.  1.
          2   -1    0    0  501    0  0.00000000000E+00 -0.00000000000E+00 -0.90225480966E+03  0.90225480967E+03  0.25500000000E-02 0. -1.
    8880023    1    1    2    0    0  0.20166021682E+03 -0.71224740445E+03 -0.43337949262E+03  0.10814763978E+04  0.65864270000E+03 0.  0.
    8880022    1    1    2    0    0 -0.20166021682E+03  0.71224740445E+03  0.84144537073E+03  0.11310990996E+04  0.15294330000E+03 0.  0.
<mgrwt>
<rscale>  0 0.92601382E+03</rscale>
<asrwt>0</asrwt>
<pdfrwt beam="1">  1        2 0.13880843E+00 0.99084480E+03</pdfrwt>
<pdfrwt beam="2">  1       -2 0.20158780E+00 0.99084480E+03</pdfrwt>
<totfact> 0.37692471E+00</totfact>
</mgrwt>
</event>
<event>
 4    1  0.2051094E-007  0.1206149E+04  0.7818608E-02  0.9151168E-01
         -2   -1    0    0    0  501 -0.00000000000E+00  0.00000000000E+00  0.61568954401E+03  0.61568954402E+03  0.25500000000E-02 0.  1.
          2   -1    0    0  501    0  0.00000000000E+00 -0.00000000000E+00 -0.27972112346E+04  0.27972112346E+04  0.25500000000E-02 0. -1.
    8880023    1    1    2    0    0  0.10392769512E+03 -0.10050791827E+04 -0.20554505443E+04  0.23832063015E+04  0.65864270000E+03 0. -1.
    8880022    1    1    2    0    0 -0.10392769512E+03  0.10050791827E+04 -0.12607114637E+03  0.10296944772E+04  0.15294330000E+03 0.  0.
<mgrwt>
<rscale>  0 0.11571985E+04</rscale>
<asrwt>0</asrwt>
<pdfrwt beam="1">  1        2 0.43034018E+00 0.12061490E+04</pdfrwt>
<pdfrwt beam="2">  1       -2 0.94721469E-01 0.12061490E+04</pdfrwt>
<totfact> 0.21508753E+00</totfact>
</mgrwt>
</event>
<event>
 4    1  0.2051094E-007  0.7503171E+03  0.7818608E-02  0.9830853E-01
         -2   -1    0    0    0  501 -0.00000000000E+00  0.00000000000E+00  0.13575445958E+04  0.13575445958E+04  0.25500000000E-02 0.  1.
          2   -1    0    0  501    0  0.00000000000E+00 -0.00000000000E+00 -0.28942453638E+03  0.28942453639E+03  0.25500000000E-02 0. -1.
    8880023    1    1    2    0    0 -0.94305414206E+02 -0.34680266802E+03  0.34657871956E+03  0.82649417228E+03  0.65864270000E+03 0. -1.
    8880022    1    1    2    0    0  0.94305414206E+02  0.34680266802E+03  0.72154133990E+03  0.82047495995E+03  0.15294330000E+03 0.  0.
<mgrwt>
<rscale>  0 0.63732765E+03</rscale>
<asrwt>0</asrwt>
<pdfrwt beam="1">  1        2 0.44526853E-01 0.75031714E+03</pdfrwt>
<pdfrwt beam="2">  1       -2 0.20885301E+00 0.75031714E+03</pdfrwt>
<totfact> 0.13560062E+01</totfact>
</mgrwt>
</event>
<event>
 4    1  0.2051094E-007  0.1498181E+04  0.7818608E-02  0.8910921E-01
          2   -1    0    0  501    0  0.00000000000E+00  0.00000000000E+00  0.13219712015E+04  0.13219712015E+04  0.25500000000E-02 0. -1.
         -2   -1    0    0    0  501 -0.00000000000E+00 -0.00000000000E+00 -0.22779766400E+04  0.22779766400E+04  0.25500000000E-02 0.  1.
    8880023    1    1    2    0    0 -0.81335323527E+03  0.10720045549E+04  0.53020955807E+03  0.15892355498E+04  0.65864270000E+03 0.  0.
    8880022    1    1    2    0    0  0.81335323527E+03 -0.10720045549E+04 -0.14862149965E+04  0.20107122917E+04  0.15294330000E+03 0.  0.
<mgrwt>
<rscale>  0 0.14608379E+04</rscale>
<asrwt>0</asrwt>
<pdfrwt beam="1">  1        2 0.20338019E+00 0.14981814E+04</pdfrwt>
<pdfrwt beam="2">  1       -2 0.35045794E+00 0.14981814E+04</pdfrwt>
<totfact> 0.23427351E-01</totfact>
</mgrwt>
</event>
<event>
 4    1  0.2051094E-007  0.7381594E+03  0.7818608E-02  0.9865341E-01
         -2   -1    0    0    0  501 -0.00000000000E+00  0.00000000000E+00  0.44201763546E+03  0.44201763547E+03  0.25500000000E-02 0.  1.
          2   -1    0    0  501    0  0.00000000000E+00 -0.00000000000E+00 -0.15134328550E+04  0.15134328550E+04  0.25500000000E-02 0. -1.
    8880023    1    1    2    0    0 -0.11133397259E+02 -0.33308421833E+03 -0.13200475899E+04  0.15124169052E+04  0.65864270000E+03 0. -1.
    8880022    1    1    2    0    0  0.11133397259E+02  0.33308421833E+03  0.24863237045E+03  0.44303358528E+03  0.15294330000E+03 0.  0.
<mgrwt>
<rscale>  0 0.61970789E+03</rscale>
<asrwt>0</asrwt>
<pdfrwt beam="1">  1        2 0.23283582E+00 0.73815937E+03</pdfrwt>
<pdfrwt beam="2">  1       -2 0.68002714E-01 0.73815937E+03</pdfrwt>
<totfact> 0.25322914E+01</totfact>
</mgrwt>
</event>
<event>
 4    1  0.2051094E-007  0.9632669E+03  0.7818608E-02  0.9431277E-01
          2   -1    0    0  501    0  0.00000000000E+00  0.00000000000E+00  0.10451037356E+04  0.10451037356E+04  0.25500000000E-02 0. -1.
         -2   -1    0    0    0  501 -0.00000000000E+00 -0.00000000000E+00 -0.73981598066E+03  0.73981598067E+03  0.25500000000E-02 0.  1.
    8880023    1    1    2    0    0  0.90455528300E+02 -0.69705858658E+03  0.42992008860E+03  0.10548527691E+04  0.65864270000E+03 0.  1.
    8880022    1    1    2    0    0 -0.90455528300E+02  0.69705858658E+03 -0.12463233364E+03  0.73006694715E+03  0.15294330000E+03 0.  0.
<mgrwt>
<rscale>  0 0.89545764E+03</rscale>
<asrwt>0</asrwt>
<pdfrwt beam="1">  1        2 0.16078519E+00 0.96326688E+03</pdfrwt>
<pdfrwt beam="2">  1       -2 0.11381784E+00 0.96326688E+03</pdfrwt>
<totfact> 0.14201058E+01</totfact>
</mgrwt>
</event>
<event>
 4    1  0.2051094E-007  0.7734303E+03  0.7818608E-02  0.9771502E-01
          2   -1    0    0  501    0  0.00000000000E+00  0.00000000000E+00  0.16055501032E+04  0.16055501032E+04  0.25500000000E-02 0. -1.
         -2   -1    0    0    0  501 -0.00000000000E+00 -0.00000000000E+00 -0.96965759829E+03  0.96965759829E+03  0.25500000000E-02 0.  1.
    8880023    1    1    2    0    0  0.12525960867E+03 -0.38560887341E+03  0.14554231948E+04  0.16481659671E+04  0.65864270000E+03 0. -1.
    8880022    1    1    2    0    0 -0.12525960867E+03  0.38560887341E+03 -0.81953068984E+03  0.92704173446E+03  0.15294330000E+03 0.  0.
<mgrwt>
<rscale>  0 0.66914592E+03</rscale>
<asrwt>0</asrwt>
<pdfrwt beam="1">  1        2 0.24700771E+00 0.77343027E+03</pdfrwt>
<pdfrwt beam="2">  1       -2 0.14917809E+00 0.77343027E+03</pdfrwt>
<totfact> 0.34498698E+00</totfact>
</mgrwt>
</event>
<event>
 4    1  0.2051094E-007  0.1132995E+04  0.7818608E-02  0.9225180E-01
          2   -1    0    0  501    0  0.00000000000E+00  0.00000000000E+00  0.17586519921E+04  0.17586519921E+04  0.25500000000E-02 0. -1.
         -2   -1    0    0    0  501 -0.00000000000E+00 -0.00000000000E+00 -0.11397212607E+04  0.11397212607E+04  0.25500000000E-02 0.  1.
    8880023    1    1    2    0    0  0.44575938095E+03  0.80694818837E+03  0.13130561547E+04  0.17342991311E+04  0.65864270000E+03 0. -1.
    8880022    1    1    2    0    0 -0.44575938095E+03 -0.80694818837E+03 -0.69412542340E+03  0.11640741217E+04  0.15294330000E+03 0.  0.
<mgrwt>
<rscale>  0 0.10797265E+04</rscale>
<asrwt>0</asrwt>
<pdfrwt beam="1">  1        2 0.27056184E+00 0.11329947E+04</pdfrwt>
<pdfrwt beam="2">  1       -2 0.17534173E+00 0.11329947E+04</pdfrwt>
<totfact> 0.17390489E+00</totfact>
</mgrwt>
</event>
<event>
 4    1  0.2051094E-007  0.7522214E+03  0.7818608E-02  0.9825678E-01
         -2   -1    0    0    0  501 -0.00000000000E+00  0.00000000000E+00  0.29706512621E+03  0.29706512622E+03  0.25500000000E-02 0.  1.
          2   -1    0    0  501    0  0.00000000000E+00 -0.00000000000E+00 -0.30142115669E+04  0.30142115669E+04  0.25500000000E-02 0. -1.
    8880023    1    1    2    0    0  0.26851459920E+03  0.24479940544E+03 -0.28077502255E+04  0.29067676849E+04  0.65864270000E+03 0. -1.
    8880022    1    1    2    0    0 -0.26851459920E+03 -0.24479940544E+03  0.90603784820E+02  0.40450900821E+03  0.15294330000E+03 0.  0.
<mgrwt>
<rscale>  0 0.64002524E+03</rscale>
<asrwt>0</asrwt>
<pdfrwt beam="1">  1        2 0.46372484E+00 0.75222141E+03</pdfrwt>
<pdfrwt beam="2">  1       -2 0.45702329E-01 0.75222141E+03</pdfrwt>
<totfact> 0.82409172E+00</totfact>
</mgrwt>
</event>
<event>
 4    1  0.2051094E-007  0.9621065E+03  0.7818608E-02  0.9432905E-01
          2   -1    0    0  501    0  0.00000000000E+00  0.00000000000E+00  0.33402796247E+04  0.33402796247E+04  0.25500000000E-02 0. -1.
         -2   -1    0    0    0  501 -0.00000000000E+00 -0.00000000000E+00 -0.49386857836E+03  0.49386857837E+03  0.25500000000E-02 0.  1.
    8880023    1    1    2    0    0 -0.68545568260E+03 -0.14828770206E+03  0.67991320712E+02  0.96450596750E+03  0.65864270000E+03 0.  1.
    8880022    1    1    2    0    0  0.68545568260E+03  0.14828770206E+03  0.27784197256E+04  0.28696422356E+04  0.15294330000E+03 0.  0.
<mgrwt>
<rscale>  0 0.89416476E+03</rscale>
<asrwt>0</asrwt>
<pdfrwt beam="1">  1        2 0.51388917E+00 0.96210651E+03</pdfrwt>
<pdfrwt beam="2">  1       -2 0.75979782E-01 0.96210651E+03</pdfrwt>
<totfact> 0.16844012E+00</totfact>
</mgrwt>
</event>
<event>
 4    1  0.2051094E-007  0.7706909E+03  0.7818608E-02  0.9778177E-01
          2   -1    0    0  501    0  0.00000000000E+00  0.00000000000E+00  0.15188878902E+04  0.15188878902E+04  0.25500000000E-02 0. -1.
         -2   -1    0    0    0  501 -0.00000000000E+00 -0.00000000000E+00 -0.77582102894E+03  0.77582102894E+03  0.25500000000E-02 0.  1.
    8880023    1    1    2    0    0  0.36166016256E+03 -0.17133664014E+03  0.13483985955E+04  0.15531076254E+04  0.65864270000E+03 0. -1.
    8880022    1    1    2    0    0 -0.36166016256E+03  0.17133664014E+03 -0.60533173423E+03  0.74160129377E+03  0.15294330000E+03 0.  0.
<mgrwt>
<rscale>  0 0.66546972E+03</rscale>
<asrwt>0</asrwt>
<pdfrwt beam="1">  1        2 0.23367506E+00 0.77069094E+03</pdfrwt>
<pdfrwt beam="2">  1       -2 0.11935708E+00 0.77069094E+03</pdfrwt>
<totfact> 0.68148499E+00</totfact>
</mgrwt>
</event>
<event>
 4    1  0.2051094E-007  0.7102722E+03  0.7818608E-02  0.9956992E-01
         -2   -1    0    0    0  501 -0.00000000000E+00  0.00000000000E+00  0.98284314872E+03  0.98284314872E+03  0.25500000000E-02 0.  1.
          2   -1    0    0  501    0  0.00000000000E+00 -0.00000000000E+00 -0.66824176781E+03  0.66824176781E+03  0.25500000000E-02 0. -1.
    8880023    1    1    2    0    0  0.26516498113E+03 -0.19075315232E+02 -0.44070144492E+03  0.83588534183E+03  0.65864270000E+03 0. -1.
    8880022    1    1    2    0    0 -0.26516498113E+03  0.19075315232E+02  0.75530282583E+03  0.81519957470E+03  0.15294330000E+03 0.  0.
<mgrwt>
<rscale>  0 0.57576973E+03</rscale>
<asrwt>0</asrwt>
<pdfrwt beam="1">  1        2 0.10280643E+00 0.71027216E+03</pdfrwt>
<pdfrwt beam="2">  1       -2 0.15120664E+00 0.71027216E+03</pdfrwt>
<totfact> 0.12987545E+01</totfact>
</mgrwt>
</event>
<event>
 4    1  0.2051094E-007  0.1248818E+04  0.7818608E-02  0.9111069E-01
         -2   -1    0    0    0  501 -0.00000000000E+00  0.00000000000E+00  0.16050765605E+04  0.16050765605E+04  0.25500000000E-02 0.  1.
          2   -1    0    0  501    0  0.00000000000E+00 -0.00000000000E+00 -0.20603756020E+04  0.20603756020E+04  0.25500000000E-02 0. -1.
    8880023    1    1    2    0    0  0.73379915245E+03 -0.76633850618E+03 -0.16441655734E+04  0.20646613624E+04  0.65864270000E+03 0.  0.
    8880022    1    1    2    0    0 -0.73379915245E+03  0.76633850618E+03  0.11888665319E+04  0.16007908001E+04  0.15294330000E+03 0.  0.
<mgrwt>
<rscale>  0 0.12020440E+04</rscale>
<asrwt>0</asrwt>
<pdfrwt beam="1">  1        2 0.31698086E+00 0.12488179E+04</pdfrwt>
<pdfrwt beam="2">  1       -2 0.24693486E+00 0.12488179E+04</pdfrwt>
<totfact> 0.40114385E-01</totfact>
</mgrwt>
</event>
<event>
 4    1  0.2051094E-007  0.6788358E+03  0.7818608E-02  0.1009990E+00
          2   -1    0    0  501    0  0.00000000000E+00  0.00000000000E+00  0.17814613188E+04  0.17814613188E+04  0.25500000000E-02 0. -1.
         -2   -1    0    0    0  501 -0.00000000000E+00 -0.00000000000E+00 -0.26637182337E+03  0.26637182339E+03  0.25500000000E-02 0.  1.
    8880023    1    1    2    0    0  0.16430634615E+03 -0.33609379696E+01  0.16512006519E+04  0.17852959616E+04  0.65864270000E+03 0. -1.
    8880022    1    1    2    0    0 -0.16430634615E+03  0.33609379696E+01 -0.13611115646E+03  0.26253718064E+03  0.15294330000E+03 0.  0.
<mgrwt>
<rscale>  0 0.51478617E+03</rscale>
<asrwt>0</asrwt>
<pdfrwt beam="1">  1        2 0.27407098E+00 0.67883583E+03</pdfrwt>
<pdfrwt beam="2">  1       -2 0.40980280E-01 0.67883583E+03</pdfrwt>
<totfact> 0.51557989E+01</totfact>
</mgrwt>
</event>
<event>
 4    1  0.2051094E-007  0.9409886E+03  0.7818608E-02  0.9463200E-01
          2   -1    0    0  501    0  0.00000000000E+00  0.00000000000E+00  0.15792327341E+04  0.15792327341E+04  0.25500000000E-02 0. -1.
         -2   -1    0    0    0  501 -0.00000000000E+00 -0.00000000000E+00 -0.58430419987E+03  0.58430419988E+03  0.25500000000E-02 0.  1.
    8880023    1    1    2    0    0  0.13500021832E+03  0.65834969759E+03  0.11202358218E+04  0.14630064545E+04  0.65864270000E+03 0. -1.
    8880022    1    1    2    0    0 -0.13500021832E+03 -0.65834969759E+03 -0.12530728760E+03  0.70053047943E+03  0.15294330000E+03 0.  0.
<mgrwt>
<rscale>  0 0.87052184E+03</rscale>
<asrwt>0</asrwt>
<pdfrwt beam="1">  1        2 0.24295888E+00 0.94098862E+03</pdfrwt>
<pdfrwt beam="2">  1       -2 0.89892956E-01 0.94098862E+03</pdfrwt>
<totfact> 0.12174563E+01</totfact>
</mgrwt>
</event>
<event>
 4    1  0.2051094E-007  0.1153905E+04  0.7818608E-02  0.9203287E-01
         -2   -1    0    0    0  501 -0.00000000000E+00  0.00000000000E+00  0.86549559950E+03  0.86549559950E+03  0.25500000000E-02 0.  1.
          2   -1    0    0  501    0  0.00000000000E+00 -0.00000000000E+00 -0.22832206413E+04  0.22832206413E+04  0.25500000000E-02 0. -1.
    8880023    1    1    2    0    0 -0.47010677586E+03  0.82260908195E+03 -0.17813357210E+04  0.21224168393E+04  0.65864270000E+03 0. -1.
    8880022    1    1    2    0    0  0.47010677586E+03 -0.82260908195E+03  0.36361067926E+03  0.10262994015E+04  0.15294330000E+03 0.  0.
<mgrwt>
<rscale>  0 0.11019567E+04</rscale>
<asrwt>0</asrwt>
<pdfrwt beam="1">  1        2 0.35126471E+00 0.11539048E+04</pdfrwt>
<pdfrwt beam="2">  1       -2 0.13315317E+00 0.11539048E+04</pdfrwt>
<totfact> 0.18603820E+00</totfact>
</mgrwt>
</event>
<event>
 4    1  0.2051094E-007  0.7648146E+03  0.7818608E-02  0.9792799E-01
          2   -1    0    0  501    0  0.00000000000E+00  0.00000000000E+00  0.16570194628E+04  0.16570194628E+04  0.25500000000E-02 0. -1.
         -2   -1    0    0    0  501 -0.00000000000E+00 -0.00000000000E+00 -0.82573035044E+03  0.82573035045E+03  0.25500000000E-02 0.  1.
    8880023    1    1    2    0    0  0.17846041406E+03 -0.34537381639E+03  0.15060581075E+04  0.16891277103E+04  0.65864270000E+03 0. -1.
    8880022    1    1    2    0    0 -0.17846041406E+03  0.34537381639E+03 -0.67476899513E+03  0.79362210291E+03  0.15294330000E+03 0.  0.
<mgrwt>
<rscale>  0 0.65750441E+03</rscale>
<asrwt>0</asrwt>
<pdfrwt beam="1">  1        2 0.25492607E+00 0.76481462E+03</pdfrwt>
<pdfrwt beam="2">  1       -2 0.12703544E+00 0.76481462E+03</pdfrwt>
<totfact> 0.48961283E+00</totfact>
</mgrwt>
</event>
<event>
 4    1  0.2051094E-007  0.9757849E+03  0.7818608E-02  0.9413947E-01
          2   -1    0    0  501    0  0.00000000000E+00  0.00000000000E+00  0.16826501990E+04  0.16826501990E+04  0.25500000000E-02 0. -1.
         -2   -1    0    0    0  501 -0.00000000000E+00 -0.00000000000E+00 -0.71986064887E+03  0.71986064888E+03  0.25500000000E-02 0.  1.
    8880023    1    1    2    0    0  0.46884340169E+01 -0.71994726737E+03  0.12728498006E+04  0.16038400389E+04  0.65864270000E+03 0.  0.
    8880022    1    1    2    0    0 -0.46884340169E+01  0.71994726737E+03 -0.31006025046E+03  0.79867080900E+03  0.15294330000E+03 0.  1.
<mgrwt>
<rscale>  0 0.90936706E+03</rscale>
<asrwt>0</asrwt>
<pdfrwt beam="1">  1        2 0.25886926E+00 0.97578494E+03</pdfrwt>
<pdfrwt beam="2">  1       -2 0.11074779E+00 0.97578494E+03</pdfrwt>
<totfact> 0.64734773E+00</totfact>
</mgrwt>
</event>
<event>
 4    1  0.2051094E-007  0.6866005E+03  0.7818608E-02  0.1005812E+00
         -2   -1    0    0    0  501 -0.00000000000E+00  0.00000000000E+00  0.11452163146E+04  0.11452163147E+04  0.25500000000E-02 0.  1.
          2   -1    0    0  501    0  0.00000000000E+00 -0.00000000000E+00 -0.47141536345E+03  0.47141536346E+03  0.25500000000E-02 0. -1.
    8880023    1    1    2    0    0 -0.37708260081E+02 -0.19023176274E+03 -0.19471785782E+03  0.71367729882E+03  0.65864270000E+03 0. -1.
    8880022    1    1    2    0    0  0.37708260081E+02  0.19023176274E+03  0.86851880902E+03  0.90295437929E+03  0.15294330000E+03 0.  0.
<mgrwt>
<rscale>  0 0.53173570E+03</rscale>
<asrwt>0</asrwt>
<pdfrwt beam="1">  1        2 0.72525442E-01 0.68660050E+03</pdfrwt>
<pdfrwt beam="2">  1       -2 0.17618712E+00 0.68660050E+03</pdfrwt>
<totfact> 0.12993308E+01</totfact>
</mgrwt>
</event>
<event>
 4    1  0.2051094E-007  0.9163891E+03  0.7818608E-02  0.9500218E-01
         -2   -1    0    0    0  501 -0.00000000000E+00  0.00000000000E+00  0.82001387301E+03  0.82001387301E+03  0.25500000000E-02 0.  1.
          2   -1    0    0  501    0  0.00000000000E+00 -0.00000000000E+00 -0.18259358404E+04  0.18259358404E+04  0.25500000000E-02 0. -1.
    8880023    1    1    2    0    0  0.41550405592E+03 -0.48302705158E+03 -0.15457487093E+04  0.17969719062E+04  0.65864270000E+03 0. -1.
    8880022    1    1    2    0    0 -0.41550405592E+03  0.48302705158E+03  0.53982674185E+03  0.84897780729E+03  0.15294330000E+03 0.  0.
<mgrwt>
<rscale>  0 0.84267754E+03</rscale>
<asrwt>0</asrwt>
<pdfrwt beam="1">  1        2 0.28091321E+00 0.91638909E+03</pdfrwt>
<pdfrwt beam="2">  1       -2 0.12615598E+00 0.91638909E+03</pdfrwt>
<totfact> 0.39391960E+00</totfact>
</mgrwt>
</event>
<event>
 4    1  0.2051094E-007  0.1094094E+04  0.7818608E-02  0.9267661E-01
          2   -1    0    0  501    0  0.00000000000E+00  0.00000000000E+00  0.33744518163E+04  0.33744518163E+04  0.25500000000E-02 0. -1.
         -2   -1    0    0    0  501 -0.00000000000E+00 -0.00000000000E+00 -0.69095515946E+03  0.69095515946E+03  0.25500000000E-02 0.  1.
    8880023    1    1    2    0    0  0.87262788407E+03  0.41853066934E+02  0.29442417347E+04  0.31409553805E+04  0.65864270000E+03 0.  0.
    8880022    1    1    2    0    0 -0.87262788407E+03 -0.41853066934E+02 -0.26074507794E+03  0.92445159525E+03  0.15294330000E+03 0.  0.
<mgrwt>
<rscale>  0 0.10381539E+04</rscale>
<asrwt>0</asrwt>
<pdfrwt beam="1">  1        2 0.51914643E+00 0.10940938E+04</pdfrwt>
<pdfrwt beam="2">  1       -2 0.10630079E+00 0.10940938E+04</pdfrwt>
<totfact> 0.71745207E-01</totfact>
</mgrwt>
</event>
<event>
 4    1  0.2051094E-007  0.2066664E+04  0.7818608E-02  0.8587811E-01
         -2   -1    0    0    0  501 -0.00000000000E+00  0.00000000000E+00  0.23216411542E+04  0.23216411542E+04  0.25500000000E-02 0.  1.
          2   -1    0    0  501    0  0.00000000000E+00 -0.00000000000E+00 -0.19235134439E+04  0.19235134439E+04  0.25500000000E-02 0. -1.
    8880023    1    1    2    0    0  0.15255201954E+04  0.12288529753E+04  0.84061612199E+03  0.22310843042E+04  0.65864270000E+03 0.  0.
    8880022    1    1    2    0    0 -0.15255201954E+04 -0.12288529753E+04 -0.44248841166E+03  0.20140702939E+04  0.15294330000E+03 0.  0.
<mgrwt>
<rscale>  0 0.20407297E+04</rscale>
<asrwt>0</asrwt>
<pdfrwt beam="1">  1        2 0.29592515E+00 0.20666644E+04</pdfrwt>
<pdfrwt beam="2">  1       -2 0.35717556E+00 0.20666644E+04</pdfrwt>
<totfact> 0.91261974E-02</totfact>
</mgrwt>
</event>
<event>
 4    1  0.2051094E-007  0.6820955E+03  0.7818608E-02  0.1008162E+00
          2   -1    0    0  501    0  0.00000000000E+00  0.00000000000E+00  0.65774480324E+03  0.65774480324E+03  0.25500000000E-02 0. -1.
         -2   -1    0    0    0  501 -0.00000000000E+00 -0.00000000000E+00 -0.92337385432E+03  0.92337385432E+03  0.25500000000E-02 0.  1.
    8880023    1    1    2    0    0 -0.22707028277E+02 -0.17586480530E+03  0.45730295364E+03  0.82120657361E+03  0.65864270000E+03 0. -1.
    8880022    1    1    2    0    0  0.22707028277E+02  0.17586480530E+03 -0.72293200472E+03  0.75991208395E+03  0.15294330000E+03 0.  0.
<mgrwt>
<rscale>  0 0.52211575E+03</rscale>
<asrwt>0</asrwt>
<pdfrwt beam="1">  1        2 0.10119151E+00 0.68209548E+03</pdfrwt>
<pdfrwt beam="2">  1       -2 0.14205752E+00 0.68209548E+03</pdfrwt>
<totfact> 0.15648207E+01</totfact>
</mgrwt>
</event>
<event>
 4    1  0.2051094E-007  0.7415384E+03  0.7818608E-02  0.9855488E-01
          2   -1    0    0  501    0  0.00000000000E+00  0.00000000000E+00  0.15221134771E+04  0.15221134771E+04  0.25500000000E-02 0. -1.
         -2   -1    0    0    0  501 -0.00000000000E+00 -0.00000000000E+00 -0.40394606695E+03  0.40394606696E+03  0.25500000000E-02 0.  1.
    8880023    1    1    2    0    0 -0.17532823773E+03  0.29211121216E+03  0.13106844541E+04  0.15059126454E+04  0.65864270000E+03 0. -1.
    8880022    1    1    2    0    0  0.17532823773E+03 -0.29211121216E+03 -0.19251704393E+03  0.42014689863E+03  0.15294330000E+03 0.  0.
<mgrwt>
<rscale>  0 0.62467865E+03</rscale>
<asrwt>0</asrwt>
<pdfrwt beam="1">  1        2 0.23417130E+00 0.74153837E+03</pdfrwt>
<pdfrwt beam="2">  1       -2 0.62145549E-01 0.74153837E+03</pdfrwt>
<totfact> 0.30376263E+01</totfact>
</mgrwt>
</event>
<event>
 4    1  0.2051094E-007  0.8071569E+03  0.7818608E-02  0.9695530E-01
          2   -1    0    0  501    0  0.00000000000E+00  0.00000000000E+00  0.18167917264E+04  0.18167917264E+04  0.25500000000E-02 0. -1.
         -2   -1    0    0    0  501 -0.00000000000E+00 -0.00000000000E+00 -0.13785232048E+04  0.13785232048E+04  0.25500000000E-02 0.  1.
    8880023    1    1    2    0    0 -0.42920823116E+03 -0.18295434943E+03  0.16779199351E+04  0.18619660348E+04  0.65864270000E+03 0. -1.
    8880022    1    1    2    0    0  0.42920823116E+03  0.18295434943E+03 -0.12396514135E+04  0.13333488965E+04  0.15294330000E+03 0.  0.
<mgrwt>
<rscale>  0 0.71283568E+03</rscale>
<asrwt>0</asrwt>
<pdfrwt beam="1">  1        2 0.27950642E+00 0.80715687E+03</pdfrwt>
<pdfrwt beam="2">  1       -2 0.21208049E+00 0.80715687E+03</pdfrwt>
<totfact> 0.96572315E-01</totfact>
</mgrwt>
</event>
<event>
 4    1  0.2051094E-007  0.9052016E+03  0.7818608E-02  0.9517732E-01
          2   -1    0    0  501    0  0.00000000000E+00  0.00000000000E+00  0.21388725036E+04  0.21388725036E+04  0.25500000000E-02 0. -1.
         -2   -1    0    0    0  501 -0.00000000000E+00 -0.00000000000E+00 -0.57731609997E+03  0.57731609998E+03  0.25500000000E-02 0.  1.
    8880023    1    1    2    0    0 -0.53344190876E+03 -0.31783565505E+03  0.18150670449E+04  0.20282648637E+04  0.65864270000E+03 0. -1.
    8880022    1    1    2    0    0  0.53344190876E+03  0.31783565505E+03 -0.25351064125E+03  0.68792373988E+03  0.15294330000E+03 0.  0.
<mgrwt>
<rscale>  0 0.82989016E+03</rscale>
<asrwt>0</asrwt>
<pdfrwt beam="1">  1        2 0.32905730E+00 0.90520162E+03</pdfrwt>
<pdfrwt beam="2">  1       -2 0.88817864E-01 0.90520162E+03</pdfrwt>
<totfact> 0.61842230E+00</totfact>
</mgrwt>
</event>
<event>
 4    1  0.2051094E-007  0.7428404E+03  0.7818608E-02  0.9851749E-01
          2   -1    0    0  501    0  0.00000000000E+00  0.00000000000E+00  0.14583608537E+04  0.14583608537E+04  0.25500000000E-02 0. -1.
         -2   -1    0    0    0  501 -0.00000000000E+00 -0.00000000000E+00 -0.93192231603E+03  0.93192231603E+03  0.25500000000E-02 0.  1.
    8880023    1    1    2    0    0 -0.34169497166E+03 -0.35302159422E+02  0.13185777749E+04  0.15134263282E+04  0.65864270000E+03 0.  0.
    8880022    1    1    2    0    0  0.34169497166E+03  0.35302159422E+02 -0.79213923732E+03  0.87685684146E+03  0.15294330000E+03 0.  0.
<mgrwt>
<rscale>  0 0.62657819E+03</rscale>
<asrwt>0</asrwt>
<pdfrwt beam="1">  1        2 0.22436321E+00 0.74284043E+03</pdfrwt>
<pdfrwt beam="2">  1       -2 0.14337266E+00 0.74284043E+03</pdfrwt>
<totfact> 0.46434081E+00</totfact>
</mgrwt>
</event>
<event>
 4    1  0.2051094E-007  0.9009079E+03  0.7818608E-02  0.9524576E-01
          2   -1    0    0  501    0  0.00000000000E+00  0.00000000000E+00  0.22201765278E+04  0.22201765278E+04  0.25500000000E-02 0. -1.
         -2   -1    0    0    0  501 -0.00000000000E+00 -0.00000000000E+00 -0.30816709697E+03  0.30816709698E+03  0.25500000000E-02 0.  1.
    8880023    1    1    2    0    0  0.61416122012E+03  0.25115190348E+02  0.15658211771E+04  0.18064968702E+04  0.65864270000E+03 0.  0.
    8880022    1    1    2    0    0 -0.61416122012E+03 -0.25115190348E+02  0.34618825376E+03  0.72184675461E+03  0.15294330000E+03 0.  0.
<mgrwt>
<rscale>  0 0.82495949E+03</rscale>
<asrwt>0</asrwt>
<pdfrwt beam="1">  1        2 0.34156561E+00 0.90090787E+03</pdfrwt>
<pdfrwt beam="2">  1       -2 0.47410324E-01 0.90090787E+03</pdfrwt>
<totfact> 0.21601629E+01</totfact>
</mgrwt>
</event>
<event>
 4    1  0.2516351E-007  0.2320806E+04  0.7818608E-02  0.8478739E-01
         -2   -1    0    0    0  501 -0.00000000000E+00  0.00000000000E+00  0.22691041712E+04  0.22691041712E+04  0.25500000000E-02 0.  1.
          2   -1    0    0  501    0  0.00000000000E+00 -0.00000000000E+00 -0.34086212071E+04  0.34086212071E+04  0.25500000000E-02 0. -1.
    8880023    1    1    2    0    0 -0.16174651494E+04  0.15284431231E+04 -0.22089351336E+04  0.32039875969E+04  0.65864270000E+03 0.  0.
    8880022    1    1    2    0    0  0.16174651494E+04 -0.15284431231E+04  0.10694180978E+04  0.24737377814E+04  0.15294330000E+03 0.  0.
<mgrwt>
<rscale>  0 0.22979269E+04</rscale>
<asrwt>0</asrwt>
<pdfrwt beam="1">  1        2 0.52440326E+00 0.23208063E+04</pdfrwt>
<pdfrwt beam="2">  1       -2 0.34909295E+00 0.23208063E+04</pdfrwt>
<totfact> 0.12620372E-02</totfact>
</mgrwt>
</event>
<event>
 4    1  0.2051094E-007  0.9613085E+03  0.7818608E-02  0.9434027E-01
         -2   -1    0    0    0  501 -0.00000000000E+00  0.00000000000E+00  0.34559661065E+03  0.34559661066E+03  0.25500000000E-02 0.  1.
          2   -1    0    0  501    0  0.00000000000E+00 -0.00000000000E+00 -0.21736252526E+04  0.21736252526E+04  0.25500000000E-02 0. -1.
    8880023    1    1    2    0    0 -0.21183108911E+03  0.66740652336E+03 -0.13515982102E+04  0.16585933214E+04  0.65864270000E+03 0. -1.
    8880022    1    1    2    0    0  0.21183108911E+03 -0.66740652336E+03 -0.47643043175E+03  0.86062854185E+03  0.15294330000E+03 0.  0.
<mgrwt>
<rscale>  0 0.89327529E+03</rscale>
<asrwt>0</asrwt>
<pdfrwt beam="1">  1        2 0.33440388E+00 0.96130853E+03</pdfrwt>
<pdfrwt beam="2">  1       -2 0.53168711E-01 0.96130853E+03</pdfrwt>
<totfact> 0.18012149E+01</totfact>
</mgrwt>
</event>
<event>
 4    1  0.2051094E-007  0.9787449E+03  0.7818608E-02  0.9409910E-01
          2   -1    0    0  501    0  0.00000000000E+00  0.00000000000E+00  0.33189258237E+04  0.33189258237E+04  0.25500000000E-02 0. -1.
         -2   -1    0    0    0  501 -0.00000000000E+00 -0.00000000000E+00 -0.26616677257E+03  0.26616677258E+03  0.25500000000E-02 0.  1.
    8880023    1    1    2    0    0  0.13372929758E+03  0.71151099780E+03  0.98353338593E+03  0.13875444326E+04  0.65864270000E+03 0.  0.
    8880022    1    1    2    0    0 -0.13372929758E+03 -0.71151099780E+03  0.20692256652E+04  0.21975481637E+04  0.15294330000E+03 0.  0.
<mgrwt>
<rscale>  0 0.91264619E+03</rscale>
<asrwt>0</asrwt>
<pdfrwt beam="1">  1        2 0.51060396E+00 0.97874493E+03</pdfrwt>
<pdfrwt beam="2">  1       -2 0.40948735E-01 0.97874493E+03</pdfrwt>
<totfact> 0.63233678E+00</totfact>
</mgrwt>
</event>
<event>
 4    1  0.2051094E-007  0.7533875E+03  0.7818608E-02  0.9822537E-01
         -2   -1    0    0    0  501 -0.00000000000E+00  0.00000000000E+00  0.19350003989E+03  0.19350003991E+03  0.25500000000E-02 0.  1.
          2   -1    0    0  501    0  0.00000000000E+00 -0.00000000000E+00 -0.19674379332E+04  0.19674379332E+04  0.25500000000E-02 0. -1.
    8880023    1    1    2    0    0  0.20132753639E+03  0.30536826175E+03 -0.15014747443E+04  0.16798866528E+04  0.65864270000E+03 0. -1.
    8880022    1    1    2    0    0 -0.20132753639E+03 -0.30536826175E+03 -0.27246314900E+03  0.48105132031E+03  0.15294330000E+03 0.  1.
<mgrwt>
<rscale>  0 0.64166962E+03</rscale>
<asrwt>0</asrwt>
<pdfrwt beam="1">  1        2 0.30268275E+00 0.75338752E+03</pdfrwt>
<pdfrwt beam="2">  1       -2 0.29769238E-01 0.75338752E+03</pdfrwt>
<totfact> 0.74380444E+01</totfact>
</mgrwt>
</event>
<event>
 4    1  0.2051094E-007  0.1450320E+04  0.7818608E-02  0.8945538E-01
         -2   -1    0    0    0  501 -0.00000000000E+00  0.00000000000E+00  0.13934853127E+04  0.13934853127E+04  0.25500000000E-02 0.  1.
          2   -1    0    0  501    0  0.00000000000E+00 -0.00000000000E+00 -0.26583915768E+04  0.26583915768E+04  0.25500000000E-02 0. -1.
    8880023    1    1    2    0    0  0.12770306453E+04 -0.19700159387E+03 -0.20657361361E+04  0.25240231551E+04  0.65864270000E+03 0. -1.
    8880022    1    1    2    0    0 -0.12770306453E+04  0.19700159387E+03  0.80082987202E+03  0.15278537345E+04  0.15294330000E+03 0.  0.
<mgrwt>
<rscale>  0 0.14114978E+04</rscale>
<asrwt>0</asrwt>
<pdfrwt beam="1">  1        2 0.40898332E+00 0.14503197E+04</pdfrwt>
<pdfrwt beam="2">  1       -2 0.21438236E+00 0.14503197E+04</pdfrwt>
<totfact> 0.28515773E-01</totfact>
</mgrwt>
</event>
<event>
 4    1  0.2051094E-007  0.8349898E+03  0.7818608E-02  0.9639701E-01
          2   -1    0    0  501    0  0.00000000000E+00  0.00000000000E+00  0.29704450693E+04  0.29704450693E+04  0.25500000000E-02 0. -1.
         -2   -1    0    0    0  501 -0.00000000000E+00 -0.00000000000E+00 -0.20256133275E+03  0.20256133276E+03  0.25500000000E-02 0.  1.
    8880023    1    1    2    0    0 -0.47919660993E+02 -0.51098089232E+03  0.89050257548E+03  0.12207386327E+04  0.65864270000E+03 0.  1.
    8880022    1    1    2    0    0  0.47919660993E+02  0.51098089232E+03  0.18773811611E+04  0.19522677693E+04  0.15294330000E+03 0.  0.
<mgrwt>
<rscale>  0 0.74723339E+03</rscale>
<asrwt>0</asrwt>
<pdfrwt beam="1">  1        2 0.45699152E+00 0.83498980E+03</pdfrwt>
<pdfrwt beam="2">  1       -2 0.31163284E-01 0.83498980E+03</pdfrwt>
<totfact> 0.18123144E+01</totfact>
</mgrwt>
</event>
<event>
 4    1  0.2051094E-007  0.7378387E+03  0.7818608E-02  0.9866288E-01
          2   -1    0    0  501    0  0.00000000000E+00  0.00000000000E+00  0.70105185324E+03  0.70105185324E+03  0.25500000000E-02 0. -1.
         -2   -1    0    0    0  501 -0.00000000000E+00 -0.00000000000E+00 -0.11925420327E+04  0.11925420327E+04  0.25500000000E-02 0.  1.
    8880023    1    1    2    0    0  0.26941161897E+02  0.33146633368E+03  0.46316756978E+03  0.87116597760E+03  0.65864270000E+03 0.  0.
    8880022    1    1    2    0    0 -0.26941161897E+02 -0.33146633368E+03 -0.95465774920E+03  0.10224279083E+04  0.15294330000E+03 0.  0.
<mgrwt>
<rscale>  0 0.61923298E+03</rscale>
<asrwt>0</asrwt>
<pdfrwt beam="1">  1        2 0.10785413E+00 0.73783871E+03</pdfrwt>
<pdfrwt beam="2">  1       -2 0.18346801E+00 0.73783871E+03</pdfrwt>
<totfact> 0.71601601E+00</totfact>
</mgrwt>
</event>
<event>
 4    1  0.2051094E-007  0.1330404E+04  0.7818608E-02  0.9039739E-01
         -2   -1    0    0    0  501 -0.00000000000E+00  0.00000000000E+00  0.15075350833E+04  0.15075350833E+04  0.25500000000E-02 0.  1.
          2   -1    0    0  501    0  0.00000000000E+00 -0.00000000000E+00 -0.13457254134E+04  0.13457254134E+04  0.25500000000E-02 0. -1.
    8880023    1    1    2    0    0 -0.72483367552E+03 -0.90043297511E+03  0.77104838286E+03  0.15376895704E+04  0.65864270000E+03 0.  0.
    8880022    1    1    2    0    0  0.72483367552E+03  0.90043297511E+03 -0.60923871302E+03  0.13155709264E+04  0.15294330000E+03 0.  0.
<mgrwt>
<rscale>  0 0.12872478E+04</rscale>
<asrwt>0</asrwt>
<pdfrwt beam="1">  1        2 0.20703468E+00 0.13304036E+04</pdfrwt>
<pdfrwt beam="2">  1       -2 0.23192848E+00 0.13304036E+04</pdfrwt>
<totfact> 0.12384179E+00</totfact>
</mgrwt>
</event>
<event>
 4    1  0.2051094E-007  0.1057677E+04  0.7818608E-02  0.9309709E-01
          2   -1    0    0  501    0  0.00000000000E+00  0.00000000000E+00  0.97981068333E+03  0.97981068333E+03  0.25500000000E-02 0. -1.
         -2   -1    0    0    0  501 -0.00000000000E+00 -0.00000000000E+00 -0.16760608649E+04  0.16760608649E+04  0.25500000000E-02 0.  1.
    8880023    1    1    2    0    0 -0.82670513184E+03 -0.37794858871E+02  0.51861464622E+03  0.11779818266E+04  0.65864270000E+03 0. -1.
    8880022    1    1    2    0    0  0.82670513184E+03  0.37794858871E+02 -0.12148648278E+04  0.14778897216E+04  0.15294330000E+03 0.  0.
<mgrwt>
<rscale>  0 0.99893886E+03</rscale>
<asrwt>0</asrwt>
<pdfrwt beam="1">  1        2 0.15074011E+00 0.10576767E+04</pdfrwt>
<pdfrwt beam="2">  1       -2 0.25785552E+00 0.10576767E+04</pdfrwt>
<totfact> 0.14787907E+00</totfact>
</mgrwt>
</event>
<event>
 4    1  0.2051094E-007  0.1516812E+04  0.7818608E-02  0.8897854E-01
         -2   -1    0    0    0  501 -0.00000000000E+00  0.00000000000E+00  0.22167207724E+04  0.22167207724E+04  0.25500000000E-02 0.  1.
          2   -1    0    0  501    0  0.00000000000E+00 -0.00000000000E+00 -0.11998647239E+04  0.11998647239E+04  0.25500000000E-02 0. -1.
    8880023    1    1    2    0    0 -0.45892114245E+03 -0.12869735263E+04 -0.26153860359E+03  0.15391952832E+04  0.65864270000E+03 0.  0.
    8880022    1    1    2    0    0  0.45892114245E+03  0.12869735263E+04  0.12783946521E+04  0.18773902130E+04  0.15294330000E+03 0.  0.
<mgrwt>
<rscale>  0 0.14800121E+04</rscale>
<asrwt>0</asrwt>
<pdfrwt beam="1">  1        2 0.18459457E+00 0.15168123E+04</pdfrwt>
<pdfrwt beam="2">  1       -2 0.34103396E+00 0.15168123E+04</pdfrwt>
<totfact> 0.31676966E-01</totfact>
</mgrwt>
</event>
<event>
 4    1  0.2051094E-007  0.1361578E+04  0.7818608E-02  0.9014128E-01
         -2   -1    0    0    0  501 -0.00000000000E+00  0.00000000000E+00  0.11363276446E+04  0.11363276446E+04  0.25500000000E-02 0.  1.
          2   -1    0    0  501    0  0.00000000000E+00 -0.00000000000E+00 -0.24023020257E+04  0.24023020257E+04  0.25500000000E-02 0. -1.
    8880023    1    1    2    0    0  0.36212786292E+03 -0.11353178048E+04 -0.17722272185E+04  0.22348786605E+04  0.65864270000E+03 0. -1.
    8880022    1    1    2    0    0 -0.36212786292E+03  0.11353178048E+04  0.50625283737E+03  0.13037510098E+04  0.15294330000E+03 0.  0.
<mgrwt>
<rscale>  0 0.13196475E+04</rscale>
<asrwt>0</asrwt>
<pdfrwt beam="1">  1        2 0.36958493E+00 0.13615775E+04</pdfrwt>
<pdfrwt beam="2">  1       -2 0.17481964E+00 0.13615775E+04</pdfrwt>
<totfact> 0.74664097E-01</totfact>
</mgrwt>
</event>
<event>
 4    1  0.2051094E-007  0.8533020E+03  0.7818608E-02  0.9605591E-01
         -2   -1    0    0    0  501 -0.00000000000E+00  0.00000000000E+00  0.30009063526E+03  0.30009063527E+03  0.25500000000E-02 0.  1.
          2   -1    0    0  501    0  0.00000000000E+00 -0.00000000000E+00 -0.23881819453E+04  0.23881819453E+04  0.25500000000E-02 0. -1.
    8880023    1    1    2    0    0 -0.10383847597E+03 -0.53247691757E+03 -0.46861697896E+03  0.97351228861E+03  0.65864270000E+03 0.  1.
    8880022    1    1    2    0    0  0.10383847597E+03  0.53247691757E+03 -0.16194743311E+04  0.17147602920E+04  0.15294330000E+03 0.  0.
<mgrwt>
<rscale>  0 0.76927250E+03</rscale>
<asrwt>0</asrwt>
<pdfrwt beam="1">  1        2 0.36741259E+00 0.85330200E+03</pdfrwt>
<pdfrwt beam="2">  1       -2 0.46167792E-01 0.85330200E+03</pdfrwt>
<totfact> 0.18469092E+01</totfact>
</mgrwt>
</event>
<event>
 4    1  0.2051094E-007  0.1146587E+04  0.7818608E-02  0.9210878E-01
          2   -1    0    0  501    0  0.00000000000E+00  0.00000000000E+00  0.21710452829E+04  0.21710452829E+04  0.25500000000E-02 0. -1.
         -2   -1    0    0    0  501 -0.00000000000E+00 -0.00000000000E+00 -0.70958581710E+03  0.70958581710E+03  0.25500000000E-02 0.  1.
    8880023    1    1    2    0    0  0.90739954509E+03 -0.23974448262E+03  0.15473261525E+04  0.19258452118E+04  0.65864270000E+03 0.  0.
    8880022    1    1    2    0    0 -0.90739954509E+03  0.23974448262E+03 -0.85866686697E+02  0.95478588818E+03  0.15294330000E+03 0.  0.
<mgrwt>
<rscale>  0 0.10941853E+04</rscale>
<asrwt>0</asrwt>
<pdfrwt beam="1">  1        2 0.33400696E+00 0.11465869E+04</pdfrwt>
<pdfrwt beam="2">  1       -2 0.10916705E+00 0.11465869E+04</pdfrwt>
<totfact> 0.35327550E+00</totfact>
</mgrwt>
</event>
<event>
 4    1  0.2051094E-007  0.1147940E+04  0.7818608E-02  0.9209468E-01
          2   -1    0    0  501    0  0.00000000000E+00  0.00000000000E+00  0.27065160457E+04  0.27065160457E+04  0.25500000000E-02 0. -1.
         -2   -1    0    0    0  501 -0.00000000000E+00 -0.00000000000E+00 -0.52307375244E+03  0.52307375244E+03  0.25500000000E-02 0.  1.
    8880023    1    1    2    0    0 -0.93081285852E+03 -0.13245516472E+03  0.19271923601E+04  0.22431757727E+04  0.65864270000E+03 0.  0.
    8880022    1    1    2    0    0  0.93081285852E+03  0.13245516472E+03  0.25624993315E+03  0.98641402540E+03  0.15294330000E+03 0.  0.
<mgrwt>
<rscale>  0 0.10956233E+04</rscale>
<asrwt>0</asrwt>
<pdfrwt beam="1">  1        2 0.41638708E+00 0.11479404E+04</pdfrwt>
<pdfrwt beam="2">  1       -2 0.80472886E-01 0.11479404E+04</pdfrwt>
<totfact> 0.35721773E+00</totfact>
</mgrwt>
</event>
<event>
 4    1  0.2051094E-007  0.8762110E+03  0.7818608E-02  0.9565353E-01
         -2   -1    0    0    0  501 -0.00000000000E+00  0.00000000000E+00  0.33721983661E+03  0.33721983661E+03  0.25500000000E-02 0.  1.
          2   -1    0    0  501    0  0.00000000000E+00 -0.00000000000E+00 -0.20624655726E+04  0.20624655726E+04  0.25500000000E-02 0. -1.
    8880023    1    1    2    0    0  0.11323756215E+03  0.56666806298E+03 -0.43620170408E+03  0.97878372074E+03  0.65864270000E+03 0.  0.
    8880022    1    1    2    0    0 -0.11323756215E+03 -0.56666806298E+03 -0.12890440319E+04  0.14209016885E+04  0.15294330000E+03 0.  0.
<mgrwt>
<rscale>  0 0.79632391E+03</rscale>
<asrwt>0</asrwt>
<pdfrwt beam="1">  1        2 0.31730239E+00 0.87621096E+03</pdfrwt>
<pdfrwt beam="2">  1       -2 0.51879976E-01 0.87621096E+03</pdfrwt>
<totfact> 0.22035311E+01</totfact>
</mgrwt>
</event>
<event>
 4    1  0.2051094E-007  0.6953839E+03  0.7818608E-02  0.1001692E+00
         -2   -1    0    0    0  501 -0.00000000000E+00  0.00000000000E+00  0.57540053328E+03  0.57540053328E+03  0.25500000000E-02 0.  1.
          2   -1    0    0  501    0  0.00000000000E+00 -0.00000000000E+00 -0.26182644416E+04  0.26182644416E+04  0.25500000000E-02 0. -1.
    8880023    1    1    2    0    0  0.22304349747E+03 -0.33364901676E+00 -0.25368838488E+04  0.26304635298E+04  0.65864270000E+03 0. -1.
    8880022    1    1    2    0    0 -0.22304349747E+03  0.33364901676E+00  0.49401994050E+03  0.56320144506E+03  0.15294330000E+03 0.  0.
<mgrwt>
<rscale>  0 0.54914616E+03</rscale>
<asrwt>0</asrwt>
<pdfrwt beam="1">  1        2 0.40280991E+00 0.69538386E+03</pdfrwt>
<pdfrwt beam="2">  1       -2 0.88523160E-01 0.69538386E+03</pdfrwt>
<totfact> 0.34725692E+00</totfact>
</mgrwt>
</event>
<event>
 4    1  0.2051094E-007  0.7589103E+03  0.7818608E-02  0.9807937E-01
         -2   -1    0    0    0  501 -0.00000000000E+00  0.00000000000E+00  0.33033553681E+03  0.33033553682E+03  0.25500000000E-02 0.  1.
          2   -1    0    0  501    0  0.00000000000E+00 -0.00000000000E+00 -0.19227499262E+04  0.19227499262E+04  0.25500000000E-02 0. -1.
    8880023    1    1    2    0    0 -0.37649316272E+03 -0.19687407315E+02 -0.16741290073E+04  0.18381112140E+04  0.65864270000E+03 0. -1.
    8880022    1    1    2    0    0  0.37649316272E+03  0.19687407315E+02  0.81714617904E+02  0.41497424905E+03  0.15294330000E+03 0.  0.
<mgrwt>
<rscale>  0 0.64938349E+03</rscale>
<asrwt>0</asrwt>
<pdfrwt beam="1">  1        2 0.29580767E+00 0.75891034E+03</pdfrwt>
<pdfrwt beam="2">  1       -2 0.50820853E-01 0.75891034E+03</pdfrwt>
<totfact> 0.27809783E+01</totfact>
</mgrwt>
</event>
<event>
 4    1  0.2051094E-007  0.1238369E+04  0.7818608E-02  0.9120698E-01
         -2   -1    0    0    0  501 -0.00000000000E+00  0.00000000000E+00  0.10414918232E+04  0.10414918232E+04  0.25500000000E-02 0.  1.
          2   -1    0    0  501    0  0.00000000000E+00 -0.00000000000E+00 -0.15652526672E+04  0.15652526672E+04  0.25500000000E-02 0. -1.
    8880023    1    1    2    0    0  0.42153917597E+03 -0.96023600695E+03 -0.84517587750E+03  0.14992934790E+04  0.65864270000E+03 0. -1.
    8880022    1    1    2    0    0 -0.42153917597E+03  0.96023600695E+03  0.32141503349E+03  0.11074510114E+04  0.15294330000E+03 0.  0.
<mgrwt>
<rscale>  0 0.11910826E+04</rscale>
<asrwt>0</asrwt>
<pdfrwt beam="1">  1        2 0.24080810E+00 0.12383694E+04</pdfrwt>
<pdfrwt beam="2">  1       -2 0.16022951E+00 0.12383694E+04</pdfrwt>
<totfact> 0.28316834E+00</totfact>
</mgrwt>
</event>
<event>
 4    1  0.3105595E-007  0.1027636E+04  0.7818608E-02  0.9346262E-01
         -2   -1    0    0    0  501 -0.00000000000E+00  0.00000000000E+00  0.10403766274E+04  0.10403766274E+04  0.25500000000E-02 0.  1.
          2   -1    0    0  501    0  0.00000000000E+00 -0.00000000000E+00 -0.20353488613E+04  0.20353488613E+04  0.25500000000E-02 0. -1.
    8880023    1    1    2    0    0 -0.72253088244E+03  0.31650434573E+03 -0.17133572124E+04  0.19979061591E+04  0.65864270000E+03 0.  0.
    8880022    1    1    2    0    0  0.72253088244E+03 -0.31650434573E+03  0.71838497854E+03  0.10778193296E+04  0.15294330000E+03 0.  0.
<mgrwt>
<rscale>  0 0.96633219E+03</rscale>
<asrwt>0</asrwt>
<pdfrwt beam="1">  1        2 0.31313059E+00 0.10276362E+04</pdfrwt>
<pdfrwt beam="2">  1       -2 0.16005794E+00 0.10276362E+04</pdfrwt>
<totfact> 0.15974457E+00</totfact>
</mgrwt>
</event>
<event>
 4    1  0.2051094E-007  0.7921398E+03  0.7818608E-02  0.9728056E-01
         -2   -1    0    0    0  501 -0.00000000000E+00  0.00000000000E+00  0.17585438470E+03  0.17585438472E+03  0.25500000000E-02 0.  1.
          2   -1    0    0  501    0  0.00000000000E+00 -0.00000000000E+00 -0.33265221596E+04  0.33265221596E+04  0.25500000000E-02 0. -1.
    8880023    1    1    2    0    0  0.48698459047E+02 -0.43738286793E+03 -0.87834792994E+03  0.11827851053E+04  0.65864270000E+03 0.  0.
    8880022    1    1    2    0    0 -0.48698459047E+02  0.43738286793E+03 -0.22723198449E+04  0.23195914390E+04  0.15294330000E+03 0.  0.
<mgrwt>
<rscale>  0 0.69370625E+03</rscale>
<asrwt>0</asrwt>
<pdfrwt beam="1">  1        2 0.51177259E+00 0.79213984E+03</pdfrwt>
<pdfrwt beam="2">  1       -2 0.27054523E-01 0.79213984E+03</pdfrwt>
<totfact> 0.14118666E+01</totfact>
</mgrwt>
</event>
<event>
 4    1  0.2051094E-007  0.7742689E+03  0.7818608E-02  0.9769476E-01
          2   -1    0    0  501    0  0.00000000000E+00  0.00000000000E+00  0.97719104530E+03  0.97719104530E+03  0.25500000000E-02 0. -1.
         -2   -1    0    0    0  501 -0.00000000000E+00 -0.00000000000E+00 -0.44069488885E+03  0.44069488886E+03  0.25500000000E-02 0.  1.
    8880023    1    1    2    0    0 -0.30240899866E+03  0.27245358255E+03  0.59855653937E+03  0.97865330644E+03  0.65864270000E+03 0.  1.
    8880022    1    1    2    0    0  0.30240899866E+03 -0.27245358255E+03 -0.62060382926E+02  0.43923262773E+03  0.15294330000E+03 0.  0.
<mgrwt>
<rscale>  0 0.67026693E+03</rscale>
<asrwt>0</asrwt>
<pdfrwt beam="1">  1        2 0.15033708E+00 0.77426892E+03</pdfrwt>
<pdfrwt beam="2">  1       -2 0.67799214E-01 0.77426892E+03</pdfrwt>
<totfact> 0.52614104E+01</totfact>
</mgrwt>
</event>
<event>
 4    1  0.2051094E-007  0.1250973E+04  0.7818608E-02  0.9109098E-01
          2   -1    0    0  501    0  0.00000000000E+00  0.00000000000E+00  0.12559923143E+04  0.12559923143E+04  0.25500000000E-02 0. -1.
         -2   -1    0    0    0  501 -0.00000000000E+00 -0.00000000000E+00 -0.12577349265E+04  0.12577349265E+04  0.25500000000E-02 0.  1.
    8880023    1    1    2    0    0 -0.32932628162E+03  0.10112703540E+04  0.47514499795E+03  0.13381690864E+04  0.65864270000E+03 0.  0.
    8880022    1    1    2    0    0  0.32932628162E+03 -0.10112703540E+04 -0.47688761016E+03  0.11755581544E+04  0.15294330000E+03 0.  0.
<mgrwt>
<rscale>  0 0.12043035E+04</rscale>
<asrwt>0</asrwt>
<pdfrwt beam="1">  1        2 0.19322959E+00 0.12509731E+04</pdfrwt>
<pdfrwt beam="2">  1       -2 0.19349768E+00 0.12509731E+04</pdfrwt>
<totfact> 0.24890813E+00</totfact>
</mgrwt>
</event>
<event>
 4    1  0.2051094E-007  0.1146194E+04  0.7818608E-02  0.9211288E-01
         -2   -1    0    0    0  501 -0.00000000000E+00  0.00000000000E+00  0.16756082781E+04  0.16756082781E+04  0.25500000000E-02 0.  1.
          2   -1    0    0  501    0  0.00000000000E+00 -0.00000000000E+00 -0.25149088833E+04  0.25149088833E+04  0.25500000000E-02 0. -1.
    8880023    1    1    2    0    0 -0.77757635215E+03 -0.52471377829E+03 -0.22292662688E+04  0.25066686730E+04  0.65864270000E+03 0.  0.
    8880022    1    1    2    0    0  0.77757635215E+03  0.52471377829E+03  0.13899656637E+04  0.16838484884E+04  0.15294330000E+03 0.  1.
<mgrwt>
<rscale>  0 0.10937674E+04</rscale>
<asrwt>0</asrwt>
<pdfrwt beam="1">  1        2 0.38690906E+00 0.11461936E+04</pdfrwt>
<pdfrwt beam="2">  1       -2 0.25778589E+00 0.11461936E+04</pdfrwt>
<totfact> 0.19380872E-01</totfact>
</mgrwt>
</event>
<event>
 4    1  0.2051094E-007  0.7926062E+03  0.7818608E-02  0.9727017E-01
          2   -1    0    0  501    0  0.00000000000E+00  0.00000000000E+00  0.14083773852E+04  0.14083773852E+04  0.25500000000E-02 0. -1.
         -2   -1    0    0    0  501 -0.00000000000E+00 -0.00000000000E+00 -0.76191738390E+03  0.76191738390E+03  0.25500000000E-02 0.  1.
    8880023    1    1    2    0    0  0.37322254899E+03 -0.23477516505E+03  0.12050827380E+04  0.14423761857E+04  0.65864270000E+03 0. -1.
    8880022    1    1    2    0    0 -0.37322254899E+03  0.23477516505E+03 -0.55862273670E+03  0.72791858348E+03  0.15294330000E+03 0.  0.
<mgrwt>
<rscale>  0 0.69430752E+03</rscale>
<asrwt>0</asrwt>
<pdfrwt beam="1">  1        2 0.21667344E+00 0.79260624E+03</pdfrwt>
<pdfrwt beam="2">  1       -2 0.11721806E+00 0.79260624E+03</pdfrwt>
<totfact> 0.81940649E+00</totfact>
</mgrwt>
</event>
<event>
 4    1  0.2051094E-007  0.1664719E+04  0.7818608E-02  0.8801308E-01
         -2   -1    0    0    0  501 -0.00000000000E+00  0.00000000000E+00  0.98110232436E+03  0.98110232436E+03  0.25500000000E-02 0.  1.
          2   -1    0    0  501    0  0.00000000000E+00 -0.00000000000E+00 -0.33930207457E+04  0.33930207457E+04  0.25500000000E-02 0. -1.
    8880023    1    1    2    0    0  0.13354348726E+04 -0.74437435414E+03 -0.19402208043E+03  0.16759875453E+04  0.65864270000E+03 0.  0.
    8880022    1    1    2    0    0 -0.13354348726E+04  0.74437435414E+03 -0.22178963409E+04  0.26981355248E+04  0.15294330000E+03 0.  0.
<mgrwt>
<rscale>  0 0.16316979E+04</rscale>
<asrwt>0</asrwt>
<pdfrwt beam="1">  1        2 0.52200319E+00 0.16647191E+04</pdfrwt>
<pdfrwt beam="2">  1       -2 0.15093882E+00 0.16647191E+04</pdfrwt>
<totfact> 0.26517407E-01</totfact>
</mgrwt>
</event>
<event>
 4    1  0.2051094E-007  0.7275444E+03  0.7818608E-02  0.9897839E-01
          2   -1    0    0  501    0  0.00000000000E+00  0.00000000000E+00  0.11544359298E+04  0.11544359298E+04  0.25500000000E-02 0. -1.
         -2   -1    0    0    0  501 -0.00000000000E+00 -0.00000000000E+00 -0.33048805725E+03  0.33048805726E+03  0.25500000000E-02 0.  1.
    8880023    1    1    2    0    0 -0.38762787659E+02 -0.30660734638E+03  0.87323170933E+03  0.11365977490E+04  0.65864270000E+03 0. -1.
    8880022    1    1    2    0    0  0.38762787659E+02  0.30660734638E+03 -0.49283836776E+02  0.34832623809E+03  0.15294330000E+03 0.  0.
<mgrwt>
<rscale>  0 0.60366137E+03</rscale>
<asrwt>0</asrwt>
<pdfrwt beam="1">  1        2 0.17760553E+00 0.72754438E+03</pdfrwt>
<pdfrwt beam="2">  1       -2 0.50844316E-01 0.72754438E+03</pdfrwt>
<totfact> 0.75102830E+01</totfact>
</mgrwt>
</event>
<event>
 4    1  0.2051094E-007  0.1583004E+04  0.7818608E-02  0.8853143E-01
          2   -1    0    0  501    0  0.00000000000E+00  0.00000000000E+00  0.28820034632E+04  0.28820034632E+04  0.25500000000E-02 0. -1.
         -2   -1    0    0    0  501 -0.00000000000E+00 -0.00000000000E+00 -0.14202557491E+04  0.14202557491E+04  0.25500000000E-02 0.  1.
    8880023    1    1    2    0    0  0.10834253530E+04 -0.94777760475E+03  0.21737378053E+04  0.26890591544E+04  0.65864270000E+03 0.  0.
    8880022    1    1    2    0    0 -0.10834253530E+04  0.94777760475E+03 -0.71199009116E+03  0.16132000578E+04  0.15294330000E+03 0.  0.
<mgrwt>
<rscale>  0 0.15480043E+04</rscale>
<asrwt>0</asrwt>
<pdfrwt beam="1">  1        2 0.44338515E+00 0.15830045E+04</pdfrwt>
<pdfrwt beam="2">  1       -2 0.21850089E+00 0.15830045E+04</pdfrwt>
<totfact> 0.19388048E-01</totfact>
</mgrwt>
</event>
<event>
 4    1  0.2051094E-007  0.7051037E+03  0.7818608E-02  0.9976653E-01
          2   -1    0    0  501    0  0.00000000000E+00  0.00000000000E+00  0.82337503243E+03  0.82337503243E+03  0.25500000000E-02 0. -1.
         -2   -1    0    0    0  501 -0.00000000000E+00 -0.00000000000E+00 -0.80780153984E+03  0.80780153985E+03  0.25500000000E-02 0.  1.
    8880023    1    1    2    0    0 -0.21376803784E+03  0.13290717775E+03  0.63270685723E+03  0.94735910053E+03  0.65864270000E+03 0. -1.
    8880022    1    1    2    0    0  0.21376803784E+03 -0.13290717775E+03 -0.61713336464E+03  0.68381747175E+03  0.15294330000E+03 0.  0.
<mgrwt>
<rscale>  0 0.56685916E+03</rscale>
<asrwt>0</asrwt>
<pdfrwt beam="1">  1        2 0.12667308E+00 0.70510375E+03</pdfrwt>
<pdfrwt beam="2">  1       -2 0.12427716E+00 0.70510375E+03</pdfrwt>
<totfact> 0.16444184E+01</totfact>
</mgrwt>
</event>
<event>
 4    1  0.2051094E-007  0.7518960E+03  0.7818608E-02  0.9826558E-01
          2   -1    0    0  501    0  0.00000000000E+00  0.00000000000E+00  0.13578422740E+04  0.13578422740E+04  0.25500000000E-02 0. -1.
         -2   -1    0    0    0  501 -0.00000000000E+00 -0.00000000000E+00 -0.37987982925E+03  0.37987982926E+03  0.25500000000E-02 0.  1.
    8880023    1    1    2    0    0  0.16859832485E+03 -0.32111063601E+03  0.10939017967E+04  0.13273917217E+04  0.65864270000E+03 0. -1.
    8880022    1    1    2    0    0 -0.16859832485E+03  0.32111063601E+03 -0.11593935196E+03  0.41033038158E+03  0.15294330000E+03 0.  0.
<mgrwt>
<rscale>  0 0.63956541E+03</rscale>
<asrwt>0</asrwt>
<pdfrwt beam="1">  1        2 0.20889881E+00 0.75189603E+03</pdfrwt>
<pdfrwt beam="2">  1       -2 0.58443050E-01 0.75189603E+03</pdfrwt>
<totfact> 0.42729928E+01</totfact>
</mgrwt>
</event>
<event>
 4    1  0.2051094E-007  0.8098386E+03  0.7818608E-02  0.9689913E-01
         -2   -1    0    0    0  501 -0.00000000000E+00  0.00000000000E+00  0.35204588324E+03  0.35204588325E+03  0.25500000000E-02 0.  1.
          2   -1    0    0  501    0  0.00000000000E+00 -0.00000000000E+00 -0.17733905762E+04  0.17733905762E+04  0.25500000000E-02 0. -1.
    8880023    1    1    2    0    0 -0.46338949655E+03 -0.85431843996E+02 -0.14145787964E+04  0.16299913506E+04  0.65864270000E+03 0.  0.
    8880022    1    1    2    0    0  0.46338949655E+03  0.85431843996E+02 -0.67658965006E+01  0.49544510882E+03  0.15294330000E+03 0.  0.
<mgrwt>
<rscale>  0 0.71620547E+03</rscale>
<asrwt>0</asrwt>
<pdfrwt beam="1">  1        2 0.27282931E+00 0.80983865E+03</pdfrwt>
<pdfrwt beam="2">  1       -2 0.54160906E-01 0.80983865E+03</pdfrwt>
<totfact> 0.29255456E+01</totfact>
</mgrwt>
</event>
<event>
 4    1  0.2051094E-007  0.1525831E+04  0.7818608E-02  0.8891608E-01
          2   -1    0    0  501    0  0.00000000000E+00  0.00000000000E+00  0.12289834414E+04  0.12289834414E+04  0.25500000000E-02 0. -1.
         -2   -1    0    0    0  501 -0.00000000000E+00 -0.00000000000E+00 -0.21841778082E+04  0.21841778082E+04  0.25500000000E-02 0.  1.
    8880023    1    1    2    0    0 -0.99938631242E+03  0.94634859882E+03  0.28729865168E+03  0.15526427128E+04  0.65864270000E+03 0.  0.
    8880022    1    1    2    0    0  0.99938631242E+03 -0.94634859882E+03 -0.12424930185E+04  0.18605185369E+04  0.15294330000E+03 0.  0.
<mgrwt>
<rscale>  0 0.14892872E+04</rscale>
<asrwt>0</asrwt>
<pdfrwt beam="1">  1        2 0.18907438E+00 0.15258306E+04</pdfrwt>
<pdfrwt beam="2">  1       -2 0.33602735E+00 0.15258306E+04</pdfrwt>
<totfact> 0.32660457E-01</totfact>
</mgrwt>
</event>
<event>
 4    1  0.2051094E-007  0.1327044E+04  0.7818608E-02  0.9042551E-01
         -2   -1    0    0    0  501 -0.00000000000E+00  0.00000000000E+00  0.88791494860E+03  0.88791494860E+03  0.25500000000E-02 0.  1.
          2   -1    0    0  501    0  0.00000000000E+00 -0.00000000000E+00 -0.27343658704E+04  0.27343658704E+04  0.25500000000E-02 0. -1.
    8880023    1    1    2    0    0 -0.53564706491E+03 -0.10199595786E+04 -0.20503834033E+04  0.24423590291E+04  0.65864270000E+03 0.  0.
    8880022    1    1    2    0    0  0.53564706491E+03  0.10199595786E+04  0.20393248153E+03  0.11799217899E+04  0.15294330000E+03 0.  0.
<mgrwt>
<rscale>  0 0.12837513E+04</rscale>
<asrwt>0</asrwt>
<pdfrwt beam="1">  1        2 0.42067167E+00 0.13270439E+04</pdfrwt>
<pdfrwt beam="2">  1       -2 0.13660230E+00 0.13270439E+04</pdfrwt>
<totfact> 0.93693263E-01</totfact>
</mgrwt>
</event>
<event>
 4    1  0.2051094E-007  0.7477424E+03  0.7818608E-02  0.9837942E-01
          2   -1    0    0  501    0  0.00000000000E+00  0.00000000000E+00  0.97582221167E+03  0.97582221167E+03  0.25500000000E-02 0. -1.
         -2   -1    0    0    0  501 -0.00000000000E+00 -0.00000000000E+00 -0.58351207418E+03  0.58351207418E+03  0.25500000000E-02 0.  1.
    8880023    1    1    2    0    0 -0.31788711735E+02  0.35255927349E+03  0.73129620592E+03  0.10459029164E+04  0.65864270000E+03 0.  0.
    8880022    1    1    2    0    0  0.31788711735E+02 -0.35255927349E+03 -0.33898606842E+03  0.51343136944E+03  0.15294330000E+03 0.  0.
<mgrwt>
<rscale>  0 0.63365516E+03</rscale>
<asrwt>0</asrwt>
<pdfrwt beam="1">  1        2 0.15012649E+00 0.74774245E+03</pdfrwt>
<pdfrwt beam="2">  1       -2 0.89771089E-01 0.74774245E+03</pdfrwt>
<totfact> 0.28207235E+01</totfact>
</mgrwt>
</event>
<event>
 4    1  0.2051094E-007  0.1434879E+04  0.7818608E-02  0.8957044E-01
         -2   -1    0    0    0  501 -0.00000000000E+00  0.00000000000E+00  0.13710875254E+04  0.13710875254E+04  0.25500000000E-02 0.  1.
          2   -1    0    0  501    0  0.00000000000E+00 -0.00000000000E+00 -0.14068598459E+04  0.14068598459E+04  0.25500000000E-02 0. -1.
    8880023    1    1    2    0    0  0.10405057301E+04  0.73648799873E+03 -0.30297046266E+03  0.14665156168E+04  0.65864270000E+03 0.  0.
    8880022    1    1    2    0    0 -0.10405057301E+04 -0.73648799873E+03  0.26719814216E+03  0.13114317546E+04  0.15294330000E+03 0.  0.
<mgrwt>
<rscale>  0 0.13955524E+04</rscale>
<asrwt>0</asrwt>
<pdfrwt beam="1">  1        2 0.21643998E+00 0.14348787E+04</pdfrwt>
<pdfrwt beam="2">  1       -2 0.21093654E+00 0.14348787E+04</pdfrwt>
<totfact> 0.15353313E+00</totfact>
</mgrwt>
</event>
<event>
 4    1  0.2051094E-007  0.6592732E+03  0.7818608E-02  0.1024914E+00
         -2   -1    0    0    0  501 -0.00000000000E+00  0.00000000000E+00  0.31440004608E+03  0.31440004609E+03  0.25500000000E-02 0.  1.
          2   -1    0    0  501    0  0.00000000000E+00 -0.00000000000E+00 -0.17611727049E+04  0.17611727049E+04  0.25500000000E-02 0. -1.
    8880023    1    1    2    0    0  0.68098561059E+01  0.28010326266E+02 -0.16745761795E+04  0.17996795659E+04  0.65864270000E+03 0. -1.
    8880022    1    1    2    0    0 -0.68098561059E+01 -0.28010326266E+02  0.22780352072E+03  0.27589318510E+03  0.15294330000E+03 0.  0.
<mgrwt>
<rscale>  0 0.45954355E+03</rscale>
<asrwt>0</asrwt>
<pdfrwt beam="1">  1        2 0.27094964E+00 0.65927320E+03</pdfrwt>
<pdfrwt beam="2">  1       -2 0.48369239E-01 0.65927320E+03</pdfrwt>
<totfact> 0.38142341E+01</totfact>
</mgrwt>
</event>
<event>
 4    1  0.2051094E-007  0.1164362E+04  0.7818608E-02  0.9192569E-01
          2   -1    0    0  501    0  0.00000000000E+00  0.00000000000E+00  0.34744108240E+04  0.34744108240E+04  0.25500000000E-02 0. -1.
         -2   -1    0    0    0  501 -0.00000000000E+00 -0.00000000000E+00 -0.54543805658E+03  0.54543805659E+03  0.25500000000E-02 0.  1.
    8880023    1    1    2    0    0 -0.93384953963E+03  0.22327732281E+03  0.28083007488E+04  0.30401136537E+04  0.65864270000E+03 0.  0.
    8880022    1    1    2    0    0  0.93384953963E+03 -0.22327732281E+03  0.12067201855E+03  0.97973522680E+03  0.15294330000E+03 0.  0.
<mgrwt>
<rscale>  0 0.11130463E+04</rscale>
<asrwt>0</asrwt>
<pdfrwt beam="1">  1        2 0.53452475E+00 0.11643616E+04</pdfrwt>
<pdfrwt beam="2">  1       -2 0.83913546E-01 0.11643616E+04</pdfrwt>
<totfact> 0.10589033E+00</totfact>
</mgrwt>
</event>
<event>
 4    1  0.2051094E-007  0.6588621E+03  0.7818608E-02  0.1025354E+00
         -2   -1    0    0    0  501 -0.00000000000E+00  0.00000000000E+00  0.65966645444E+03  0.65966645445E+03  0.25500000000E-02 0.  1.
          2   -1    0    0  501    0  0.00000000000E+00 -0.00000000000E+00 -0.14771147721E+04  0.14771147721E+04  0.25500000000E-02 0. -1.
    8880023    1    1    2    0    0 -0.13147762392E+02  0.10780838647E+02 -0.13930296616E+04  0.15409837554E+04  0.65864270000E+03 0. -1.
    8880022    1    1    2    0    0  0.13147762392E+02 -0.10780838647E+02  0.57558134392E+03  0.59579747114E+03  0.15294330000E+03 0.  0.
<mgrwt>
<rscale>  0 0.45803147E+03</rscale>
<asrwt>0</asrwt>
<pdfrwt beam="1">  1        2 0.22724843E+00 0.65886212E+03</pdfrwt>
<pdfrwt beam="2">  1       -2 0.10148715E+00 0.65886212E+03</pdfrwt>
<totfact> 0.10822121E+01</totfact>
</mgrwt>
</event>
<event>
 4    1  0.2051094E-007  0.7874534E+03  0.7818608E-02  0.9738611E-01
          2   -1    0    0  501    0  0.00000000000E+00  0.00000000000E+00  0.10743649805E+04  0.10743649805E+04  0.25500000000E-02 0. -1.
         -2   -1    0    0    0  501 -0.00000000000E+00 -0.00000000000E+00 -0.14563878343E+04  0.14563878343E+04  0.25500000000E-02 0.  1.
    8880023    1    1    2    0    0  0.38838815665E+03  0.18822142853E+03  0.88435778461E+03  0.11841332543E+04  0.65864270000E+03 0. -1.
    8880022    1    1    2    0    0 -0.38838815665E+03 -0.18822142853E+03 -0.12663806384E+04  0.13466195605E+04  0.15294330000E+03 0.  0.
<mgrwt>
<rscale>  0 0.68763697E+03</rscale>
<asrwt>0</asrwt>
<pdfrwt beam="1">  1        2 0.16528692E+00 0.78745341E+03</pdfrwt>
<pdfrwt beam="2">  1       -2 0.22405967E+00 0.78745341E+03</pdfrwt>
<totfact> 0.21546753E+00</totfact>
</mgrwt>
</event>
<event>
 4    1  0.2051094E-007  0.7017568E+03  0.7818608E-02  0.9989990E-01
         -2   -1    0    0    0  501 -0.00000000000E+00  0.00000000000E+00  0.15539148601E+03  0.15539148603E+03  0.25500000000E-02 0.  1.
          2   -1    0    0  501    0  0.00000000000E+00 -0.00000000000E+00 -0.35978448986E+04  0.35978448986E+04  0.25500000000E-02 0. -1.
    8880023    1    1    2    0    0  0.34652552250E+02 -0.23969071918E+03 -0.33902090009E+04  0.34620773700E+04  0.65864270000E+03 0. -1.
    8880022    1    1    2    0    0 -0.34652552250E+02  0.23969071918E+03 -0.52244411777E+02  0.29115901465E+03  0.15294330000E+03 0.  0.
<mgrwt>
<rscale>  0 0.56091351E+03</rscale>
<asrwt>0</asrwt>
<pdfrwt beam="1">  1        2 0.55351454E+00 0.70175683E+03</pdfrwt>
<pdfrwt beam="2">  1       -2 0.23906385E-01 0.70175683E+03</pdfrwt>
<totfact> 0.11770305E+01</totfact>
</mgrwt>
</event>
<event>
 4    1  0.2051094E-007  0.7480248E+03  0.7818608E-02  0.9837159E-01
         -2   -1    0    0    0  501 -0.00000000000E+00  0.00000000000E+00  0.66332006641E+03  0.66332006642E+03  0.25500000000E-02 0.  1.
          2   -1    0    0  501    0  0.00000000000E+00 -0.00000000000E+00 -0.16253507475E+04  0.16253507476E+04  0.25500000000E-02 0. -1.
    8880023    1    1    2    0    0 -0.21654650429E+03  0.28078203937E+03 -0.14707155284E+04  0.16500137315E+04  0.65864270000E+03 0. -1.
    8880022    1    1    2    0    0  0.21654650429E+03 -0.28078203937E+03  0.50868484730E+03  0.63865708251E+03  0.15294330000E+03 0.  0.
<mgrwt>
<rscale>  0 0.63405940E+03</rscale>
<asrwt>0</asrwt>
<pdfrwt beam="1">  1        2 0.25005396E+00 0.74802483E+03</pdfrwt>
<pdfrwt beam="2">  1       -2 0.10204924E+00 0.74802483E+03</pdfrwt>
<totfact> 0.87285541E+00</totfact>
</mgrwt>
</event>
<event>
 4    1  0.2051094E-007  0.1028538E+04  0.7818608E-02  0.9345139E-01
         -2   -1    0    0    0  501 -0.00000000000E+00  0.00000000000E+00  0.53632405460E+03  0.53632405461E+03  0.25500000000E-02 0.  1.
          2   -1    0    0  501    0  0.00000000000E+00 -0.00000000000E+00 -0.22043291925E+04  0.22043291925E+04  0.25500000000E-02 0. -1.
    8880023    1    1    2    0    0  0.70252922563E+03 -0.36129199004E+03 -0.16395899196E+04  0.19354959379E+04  0.65864270000E+03 0.  0.
    8880022    1    1    2    0    0 -0.70252922563E+03  0.36129199004E+03 -0.28415218308E+02  0.80515730921E+03  0.15294330000E+03 0.  0.
<mgrwt>
<rscale>  0 0.96731435E+03</rscale>
<asrwt>0</asrwt>
<pdfrwt beam="1">  1        2 0.33912756E+00 0.10285375E+04</pdfrwt>
<pdfrwt beam="2">  1       -2 0.82511394E-01 0.10285375E+04</pdfrwt>
<totfact> 0.66287984E+00</totfact>
</mgrwt>
</event>
<event>
 4    1  0.2051094E-007  0.9298317E+03  0.7818608E-02  0.9479746E-01
         -2   -1    0    0    0  501 -0.00000000000E+00  0.00000000000E+00  0.20513713822E+04  0.20513713822E+04  0.25500000000E-02 0.  1.
          2   -1    0    0  501    0  0.00000000000E+00 -0.00000000000E+00 -0.74907907171E+03  0.74907907171E+03  0.25500000000E-02 0. -1.
    8880023    1    1    2    0    0 -0.63829705702E+03 -0.15281903333E+03 -0.36747629119E+03  0.99981289290E+03  0.65864270000E+03 0. -1.
    8880022    1    1    2    0    0  0.63829705702E+03  0.15281903333E+03  0.16697686017E+04  0.18006375610E+04  0.15294330000E+03 0.  0.
<mgrwt>
<rscale>  0 0.85793697E+03</rscale>
<asrwt>0</asrwt>
<pdfrwt beam="1">  1        2 0.11524293E+00 0.92983170E+03</pdfrwt>
<pdfrwt beam="2">  1       -2 0.31559560E+00 0.92983170E+03</pdfrwt>
<totfact> 0.97395709E-01</totfact>
</mgrwt>
</event>
<event>
 4    1  0.2051094E-007  0.8189626E+03  0.7818608E-02  0.9671202E-01
          2   -1    0    0  501    0  0.00000000000E+00  0.00000000000E+00  0.82648623272E+03  0.82648623272E+03  0.25500000000E-02 0. -1.
         -2   -1    0    0    0  501 -0.00000000000E+00 -0.00000000000E+00 -0.10060289884E+04  0.10060289884E+04  0.25500000000E-02 0.  1.
    8880023    1    1    2    0    0 -0.45282996964E+03  0.17842249201E+03  0.51746299539E+03  0.96874543865E+03  0.65864270000E+03 0. -1.
    8880022    1    1    2    0    0  0.45282996964E+03 -0.17842249201E+03 -0.69700575103E+03  0.86376978243E+03  0.15294330000E+03 0.  0.
<mgrwt>
<rscale>  0 0.72757608E+03</rscale>
<asrwt>0</asrwt>
<pdfrwt beam="1">  1        2 0.12715173E+00 0.81896262E+03</pdfrwt>
<pdfrwt beam="2">  1       -2 0.15477369E+00 0.81896262E+03</pdfrwt>
<totfact> 0.91696359E+00</totfact>
</mgrwt>
</event>
<event>
 4    1  0.2051094E-007  0.9839575E+03  0.7818608E-02  0.9402854E-01
         -2   -1    0    0    0  501 -0.00000000000E+00  0.00000000000E+00  0.12275110658E+04  0.12275110658E+04  0.25500000000E-02 0.  1.
          2   -1    0    0  501    0  0.00000000000E+00 -0.00000000000E+00 -0.15121891418E+04  0.15121891418E+04  0.25500000000E-02 0. -1.
    8880023    1    1    2    0    0  0.37186488536E+03  0.62934785597E+03 -0.12042145492E+04  0.15550900628E+04  0.65864270000E+03 0.  0.
    8880022    1    1    2    0    0 -0.37186488536E+03 -0.62934785597E+03  0.91953647308E+03  0.11846101448E+04  0.15294330000E+03 0.  0.
<mgrwt>
<rscale>  0 0.91841208E+03</rscale>
<asrwt>0</asrwt>
<pdfrwt beam="1">  1        2 0.23264448E+00 0.98395753E+03</pdfrwt>
<pdfrwt beam="2">  1       -2 0.18884786E+00 0.98395753E+03</pdfrwt>
<totfact> 0.19620638E+00</totfact>
</mgrwt>
</event>
<event>
 4    1  0.2051094E-007  0.1192199E+04  0.7818608E-02  0.9164743E-01
          2   -1    0    0  501    0  0.00000000000E+00  0.00000000000E+00  0.15429320194E+04  0.15429320194E+04  0.25500000000E-02 0. -1.
         -2   -1    0    0    0  501 -0.00000000000E+00 -0.00000000000E+00 -0.31762148694E+04  0.31762148694E+04  0.25500000000E-02 0.  1.
    8880023    1    1    2    0    0 -0.99098037529E+03 -0.74061915496E+02  0.12128197667E+04  0.17006672997E+04  0.65864270000E+03 0.  0.
    8880022    1    1    2    0    0  0.99098037529E+03  0.74061915496E+02 -0.28461026167E+04  0.30184795891E+04  0.15294330000E+03 0.  0.
<mgrwt>
<rscale>  0 0.11424863E+04</rscale>
<asrwt>0</asrwt>
<pdfrwt beam="1">  1        2 0.23737416E+00 0.11921986E+04</pdfrwt>
<pdfrwt beam="2">  1       -2 0.48864844E+00 0.11921986E+04</pdfrwt>
<totfact> 0.22843342E-02</totfact>
</mgrwt>
</event>
<event>
 4    1  0.2051094E-007  0.1589234E+04  0.7818608E-02  0.8849066E-01
          2   -1    0    0  501    0  0.00000000000E+00  0.00000000000E+00  0.18760540995E+04  0.18760540995E+04  0.25500000000E-02 0. -1.
         -2   -1    0    0    0  501 -0.00000000000E+00 -0.00000000000E+00 -0.17933912205E+04  0.17933912205E+04  0.25500000000E-02 0.  1.
    8880023    1    1    2    0    0  0.46795056253E+03 -0.13685308204E+04  0.10661662364E+04  0.19137332587E+04  0.65864270000E+03 0.  0.
    8880022    1    1    2    0    0 -0.46795056253E+03  0.13685308204E+04 -0.98350335736E+03  0.17557120614E+04  0.15294330000E+03 0.  0.
<mgrwt>
<rscale>  0 0.15543935E+04</rscale>
<asrwt>0</asrwt>
<pdfrwt beam="1">  1        2 0.28862371E+00 0.15892339E+04</pdfrwt>
<pdfrwt beam="2">  1       -2 0.27590634E+00 0.15892339E+04</pdfrwt>
<totfact> 0.32442507E-01</totfact>
</mgrwt>
</event>
<event>
 4    1  0.2051094E-007  0.1414777E+04  0.7818608E-02  0.8972285E-01
          2   -1    0    0  501    0  0.00000000000E+00  0.00000000000E+00  0.17036430964E+04  0.17036430964E+04  0.25500000000E-02 0. -1.
         -2   -1    0    0    0  501 -0.00000000000E+00 -0.00000000000E+00 -0.21390893937E+04  0.21390893937E+04  0.25500000000E-02 0.  1.
    8880023    1    1    2    0    0  0.11088915850E+04 -0.58150028329E+03  0.11453888327E+04  0.18203046205E+04  0.65864270000E+03 0.  0.
    8880022    1    1    2    0    0 -0.11088915850E+04  0.58150028329E+03 -0.15808351299E+04  0.20224278696E+04  0.15294330000E+03 0.  0.
<mgrwt>
<rscale>  0 0.13747720E+04</rscale>
<asrwt>0</asrwt>
<pdfrwt beam="1">  1        2 0.26209894E+00 0.14147768E+04</pdfrwt>
<pdfrwt beam="2">  1       -2 0.32909067E+00 0.14147768E+04</pdfrwt>
<totfact> 0.19501196E-01</totfact>
</mgrwt>
</event>
<event>
 4    1  0.2051094E-007  0.7873201E+03  0.7818608E-02  0.9738915E-01
          2   -1    0    0  501    0  0.00000000000E+00  0.00000000000E+00  0.16052049565E+04  0.16052049565E+04  0.25500000000E-02 0. -1.
         -2   -1    0    0    0  501 -0.00000000000E+00 -0.00000000000E+00 -0.10401435157E+04  0.10401435157E+04  0.25500000000E-02 0.  1.
    8880023    1    1    2    0    0  0.28372334660E+03  0.32490594176E+03  0.14494954741E+04  0.16495181551E+04  0.65864270000E+03 0. -1.
    8880022    1    1    2    0    0 -0.28372334660E+03 -0.32490594176E+03 -0.88443403318E+03  0.99583031710E+03  0.15294330000E+03 0.  0.
<mgrwt>
<rscale>  0 0.68746363E+03</rscale>
<asrwt>0</asrwt>
<pdfrwt beam="1">  1        2 0.24695461E+00 0.78732015E+03</pdfrwt>
<pdfrwt beam="2">  1       -2 0.16002208E+00 0.78732015E+03</pdfrwt>
<totfact> 0.28543235E+00</totfact>
</mgrwt>
</event>
<event>
 4    1  0.2051094E-007  0.9707422E+03  0.7818608E-02  0.9420878E-01
         -2   -1    0    0    0  501 -0.00000000000E+00  0.00000000000E+00  0.62378334310E+03  0.62378334310E+03  0.25500000000E-02 0.  1.
          2   -1    0    0  501    0  0.00000000000E+00 -0.00000000000E+00 -0.32564505117E+04  0.32564505117E+04  0.25500000000E-02 0. -1.
    8880023    1    1    2    0    0 -0.71297662727E+03 -0.13946365428E+02 -0.29345148727E+04  0.30909089143E+04  0.65864270000E+03 0.  0.
    8880022    1    1    2    0    0  0.71297662727E+03  0.13946365428E+02  0.30184770414E+03  0.78932494047E+03  0.15294330000E+03 0.  0.
<mgrwt>
<rscale>  0 0.90377204E+03</rscale>
<asrwt>0</asrwt>
<pdfrwt beam="1">  1        2 0.50099238E+00 0.97074218E+03</pdfrwt>
<pdfrwt beam="2">  1       -2 0.95966670E-01 0.97074218E+03</pdfrwt>
<totfact> 0.11181154E+00</totfact>
</mgrwt>
</event>
<event>
 4    1  0.2051094E-007  0.9309881E+03  0.7818608E-02  0.9478013E-01
         -2   -1    0    0    0  501 -0.00000000000E+00  0.00000000000E+00  0.52558622429E+03  0.52558622430E+03  0.25500000000E-02 0.  1.
          2   -1    0    0  501    0  0.00000000000E+00 -0.00000000000E+00 -0.12507887577E+04  0.12507887577E+04  0.25500000000E-02 0. -1.
    8880023    1    1    2    0    0  0.51420500073E+03  0.41051408168E+03 -0.53860379397E+03  0.10755616427E+04  0.65864270000E+03 0. -1.
    8880022    1    1    2    0    0 -0.51420500073E+03 -0.41051408168E+03 -0.18659873948E+03  0.70081333936E+03  0.15294330000E+03 0.  0.
<mgrwt>
<rscale>  0 0.85924459E+03</rscale>
<asrwt>0</asrwt>
<pdfrwt beam="1">  1        2 0.19242904E+00 0.93098808E+03</pdfrwt>
<pdfrwt beam="2">  1       -2 0.80859419E-01 0.93098808E+03</pdfrwt>
<totfact> 0.23882729E+01</totfact>
</mgrwt>
</event>
<event>
 4    1  0.2223668E-007  0.8199972E+03  0.7818608E-02  0.9669117E-01
         -2   -1    0    0    0  501 -0.00000000000E+00  0.00000000000E+00  0.10317616380E+04  0.10317616380E+04  0.25500000000E-02 0.  1.
          2   -1    0    0  501    0  0.00000000000E+00 -0.00000000000E+00 -0.23458182092E+04  0.23458182092E+04  0.25500000000E-02 0. -1.
    8880023    1    1    2    0    0 -0.17112190145E+03  0.45749593570E+03 -0.22036390225E+04  0.23512593188E+04  0.65864270000E+03 0. -1.
    8880022    1    1    2    0    0  0.17112190145E+03 -0.45749593570E+03  0.88958245134E+03  0.10263205284E+04  0.15294330000E+03 0.  0.
<mgrwt>
<rscale>  0 0.72885671E+03</rscale>
<asrwt>0</asrwt>
<pdfrwt beam="1">  1        2 0.36089511E+00 0.81999722E+03</pdfrwt>
<pdfrwt beam="2">  1       -2 0.15873256E+00 0.81999722E+03</pdfrwt>
<totfact> 0.11362854E+00</totfact>
</mgrwt>
</event>
<event>
 4    1  0.2051094E-007  0.7480330E+03  0.7818608E-02  0.9837137E-01
          2   -1    0    0  501    0  0.00000000000E+00  0.00000000000E+00  0.37076979509E+04  0.37076979509E+04  0.25500000000E-02 0. -1.
         -2   -1    0    0    0  501 -0.00000000000E+00 -0.00000000000E+00 -0.24146415870E+03  0.24146415872E+03  0.25500000000E-02 0.  1.
    8880023    1    1    2    0    0  0.19972332325E+03  0.29300804339E+03  0.34831936265E+04  0.35626101618E+04  0.65864270000E+03 0.  0.
    8880022    1    1    2    0    0 -0.19972332325E+03 -0.29300804339E+03 -0.16959834290E+02  0.38655194778E+03  0.15294330000E+03 0.  0.
<mgrwt>
<rscale>  0 0.63407104E+03</rscale>
<asrwt>0</asrwt>
<pdfrwt beam="1">  1        2 0.57041503E+00 0.74803297E+03</pdfrwt>
<pdfrwt beam="2">  1       -2 0.37148335E-01 0.74803297E+03</pdfrwt>
<totfact> 0.43015967E+00</totfact>
</mgrwt>
</event>
<event>
 4    1  0.2371312E-007  0.1243474E+04  0.7818608E-02  0.9115979E-01
          2   -1    0    0  501    0  0.00000000000E+00  0.00000000000E+00  0.18858383470E+04  0.18858383470E+04  0.25500000000E-02 0. -1.
         -2   -1    0    0    0  501 -0.00000000000E+00 -0.00000000000E+00 -0.12992219094E+04  0.12992219094E+04  0.25500000000E-02 0.  1.
    8880023    1    1    2    0    0 -0.10072584105E+04  0.31280487558E+03  0.13791349535E+04  0.18569436776E+04  0.65864270000E+03 0. -1.
    8880022    1    1    2    0    0  0.10072584105E+04 -0.31280487558E+03 -0.79251851585E+03  0.13281165787E+04  0.15294330000E+03 0.  0.
<mgrwt>
<rscale>  0 0.11964390E+04</rscale>
<asrwt>0</asrwt>
<pdfrwt beam="1">  1        2 0.29012897E+00 0.12434736E+04</pdfrwt>
<pdfrwt beam="2">  1       -2 0.19988030E+00 0.12434736E+04</pdfrwt>
<totfact> 0.99492852E-01</totfact>
</mgrwt>
</event>
<event>
 4    1  0.2051094E-007  0.6684598E+03  0.7818608E-02  0.1016792E+00
          2   -1    0    0  501    0  0.00000000000E+00  0.00000000000E+00  0.30712514965E+04  0.30712514965E+04  0.25500000000E-02 0. -1.
         -2   -1    0    0    0  501 -0.00000000000E+00 -0.00000000000E+00 -0.28016028764E+03  0.28016028765E+03  0.25500000000E-02 0.  1.
    8880023    1    1    2    0    0 -0.10847472617E+03 -0.35518768791E+02  0.29970132911E+04  0.30706558294E+04  0.65864270000E+03 0. -1.
    8880022    1    1    2    0    0  0.10847472617E+03  0.35518768791E+02 -0.20592208226E+03  0.28075595476E+03  0.15294330000E+03 0.  0.
<mgrwt>
<rscale>  0 0.48862309E+03</rscale>
<asrwt>0</asrwt>
<pdfrwt beam="1">  1        2 0.47250024E+00 0.66845984E+03</pdfrwt>
<pdfrwt beam="2">  1       -2 0.43101582E-01 0.66845984E+03</pdfrwt>
<totfact> 0.86803472E+00</totfact>
</mgrwt>
</event>
<event>
 4    1  0.2051094E-007  0.1047346E+04  0.7818608E-02  0.9322079E-01
          2   -1    0    0  501    0  0.00000000000E+00  0.00000000000E+00  0.28491705512E+04  0.28491705512E+04  0.25500000000E-02 0. -1.
         -2   -1    0    0    0  501 -0.00000000000E+00 -0.00000000000E+00 -0.56317557573E+03  0.56317557573E+03  0.25500000000E-02 0.  1.
    8880023    1    1    2    0    0  0.65683622669E+03 -0.48134149108E+03  0.23585255584E+04  0.25806155226E+04  0.65864270000E+03 0. -1.
    8880022    1    1    2    0    0 -0.65683622669E+03  0.48134149108E+03 -0.72530582894E+02  0.83173060434E+03  0.15294330000E+03 0.  0.
<mgrwt>
<rscale>  0 0.98775423E+03</rscale>
<asrwt>0</asrwt>
<pdfrwt beam="1">  1        2 0.43833393E+00 0.10473460E+04</pdfrwt>
<pdfrwt beam="2">  1       -2 0.86642396E-01 0.10473460E+04</pdfrwt>
<totfact> 0.25145878E+00</totfact>
</mgrwt>
</event>
<event>
 4    1  0.2051094E-007  0.1722602E+04  0.7818608E-02  0.8766603E-01
          2   -1    0    0  501    0  0.00000000000E+00  0.00000000000E+00  0.75846040210E+03  0.75846040210E+03  0.25500000000E-02 0. -1.
         -2   -1    0    0    0  501 -0.00000000000E+00 -0.00000000000E+00 -0.37471144617E+04  0.37471144617E+04  0.25500000000E-02 0.  1.
    8880023    1    1    2    0    0 -0.36241300125E+03 -0.15499042090E+04 -0.19346389880E+04  0.25904023743E+04  0.65864270000E+03 0.  1.
    8880022    1    1    2    0    0  0.36241300125E+03  0.15499042090E+04 -0.10540150716E+04  0.19151724896E+04  0.15294330000E+03 0. -1.
<mgrwt>
<rscale>  0 0.16908445E+04</rscale>
<asrwt>0</asrwt>
<pdfrwt beam="1">  1        2 0.11668622E+00 0.17226017E+04</pdfrwt>
<pdfrwt beam="2">  1       -2 0.57647913E+00 0.17226017E+04</pdfrwt>
<totfact> 0.21367883E-02</totfact>
</mgrwt>
</event>
<event>
 4    1  0.2051094E-007  0.1204626E+04  0.7818608E-02  0.9152638E-01
         -2   -1    0    0    0  501 -0.00000000000E+00  0.00000000000E+00  0.84525549914E+03  0.84525549914E+03  0.25500000000E-02 0.  1.
          2   -1    0    0  501    0  0.00000000000E+00 -0.00000000000E+00 -0.25862565531E+04  0.25862565531E+04  0.25500000000E-02 0. -1.
    8880023    1    1    2    0    0  0.41950441188E+03 -0.91724080608E+03 -0.20394118445E+04  0.23686125740E+04  0.65864270000E+03 0.  0.
    8880022    1    1    2    0    0 -0.41950441188E+03  0.91724080608E+03  0.29841079055E+03  0.10628994782E+04  0.15294330000E+03 0.  0.
<mgrwt>
<rscale>  0 0.11555941E+04</rscale>
<asrwt>0</asrwt>
<pdfrwt beam="1">  1        2 0.39788562E+00 0.12046264E+04</pdfrwt>
<pdfrwt beam="2">  1       -2 0.13003931E+00 0.12046264E+04</pdfrwt>
<totfact> 0.13186489E+00</totfact>
</mgrwt>
</event>
<event>
 4    1  0.2051094E-007  0.9061003E+03  0.7818608E-02  0.9516309E-01
          2   -1    0    0  501    0  0.00000000000E+00  0.00000000000E+00  0.30906817503E+04  0.30906817503E+04  0.25500000000E-02 0. -1.
         -2   -1    0    0    0  501 -0.00000000000E+00 -0.00000000000E+00 -0.94343330627E+03  0.94343330627E+03  0.25500000000E-02 0.  1.
    8880023    1    1    2    0    0  0.50445768971E+03  0.36432125083E+03  0.29042544311E+04  0.30423200918E+04  0.65864270000E+03 0.  0.
    8880022    1    1    2    0    0 -0.50445768971E+03 -0.36432125083E+03 -0.75700598708E+03  0.99179496470E+03  0.15294330000E+03 0.  0.
<mgrwt>
<rscale>  0 0.83092048E+03</rscale>
<asrwt>0</asrwt>
<pdfrwt beam="1">  1        2 0.47548949E+00 0.90610029E+03</pdfrwt>
<pdfrwt beam="2">  1       -2 0.14514359E+00 0.90610029E+03</pdfrwt>
<totfact> 0.51715611E-01</totfact>
</mgrwt>
</event>
<event>
 4    1  0.2051094E-007  0.7075256E+03  0.7818608E-02  0.9967307E-01
         -2   -1    0    0    0  501 -0.00000000000E+00  0.00000000000E+00  0.11124458523E+04  0.11124458523E+04  0.25500000000E-02 0.  1.
          2   -1    0    0  501    0  0.00000000000E+00 -0.00000000000E+00 -0.31297823872E+03  0.31297823873E+03  0.25500000000E-02 0. -1.
    8880023    1    1    2    0    0 -0.14138062185E+03 -0.21631858540E+03  0.16949864525E+03  0.72754533029E+03  0.65864270000E+03 0. -1.
    8880022    1    1    2    0    0  0.14138062185E+03  0.21631858540E+03  0.62996896830E+03  0.69787876072E+03  0.15294330000E+03 0.  0.
<mgrwt>
<rscale>  0 0.57107308E+03</rscale>
<asrwt>0</asrwt>
<pdfrwt beam="1">  1        2 0.48150498E-01 0.70752556E+03</pdfrwt>
<pdfrwt beam="2">  1       -2 0.17114552E+00 0.70752556E+03</pdfrwt>
<totfact> 0.22284667E+01</totfact>
</mgrwt>
</event>
<event>
 4    1  0.2051094E-007  0.8569885E+03  0.7818608E-02  0.9598943E-01
          2   -1    0    0  501    0  0.00000000000E+00  0.00000000000E+00  0.30507593065E+04  0.30507593065E+04  0.25500000000E-02 0. -1.
         -2   -1    0    0    0  501 -0.00000000000E+00 -0.00000000000E+00 -0.23122259748E+03  0.23122259750E+03  0.25500000000E-02 0.  1.
    8880023    1    1    2    0    0 -0.31924287622E+03 -0.44576114822E+03  0.24689632792E+04  0.26134668346E+04  0.65864270000E+03 0.  1.
    8880022    1    1    2    0    0  0.31924287622E+03  0.44576114822E+03  0.35057342979E+03  0.66851506936E+03  0.15294330000E+03 0.  0.
<mgrwt>
<rscale>  0 0.77366178E+03</rscale>
<asrwt>0</asrwt>
<pdfrwt beam="1">  1        2 0.46934755E+00 0.85698846E+03</pdfrwt>
<pdfrwt beam="2">  1       -2 0.35572710E-01 0.85698846E+03</pdfrwt>
<totfact> 0.12549569E+01</totfact>
</mgrwt>
</event>
<event>
 4    1  0.2051094E-007  0.9073202E+03  0.7818608E-02  0.9514381E-01
          2   -1    0    0  501    0  0.00000000000E+00  0.00000000000E+00  0.48152409138E+03  0.48152409139E+03  0.25500000000E-02 0. -1.
         -2   -1    0    0    0  501 -0.00000000000E+00 -0.00000000000E+00 -0.21898111967E+04  0.21898111967E+04  0.25500000000E-02 0.  1.
    8880023    1    1    2    0    0  0.45492059746E+03 -0.42716155586E+03 -0.68190570522E+02  0.90987906063E+03  0.65864270000E+03 0. -1.
    8880022    1    1    2    0    0 -0.45492059746E+03  0.42716155586E+03 -0.16400965348E+04  0.17614562274E+04  0.15294330000E+03 0.  0.
<mgrwt>
<rscale>  0 0.83231821E+03</rscale>
<asrwt>0</asrwt>
<pdfrwt beam="1">  1        2 0.74080630E-01 0.90732020E+03</pdfrwt>
<pdfrwt beam="2">  1       -2 0.33689403E+00 0.90732020E+03</pdfrwt>
<totfact> 0.12405197E+00</totfact>
</mgrwt>
</event>
<event>
 4    1  0.2051094E-007  0.9656192E+03  0.7818608E-02  0.9427989E-01
         -2   -1    0    0    0  501 -0.00000000000E+00  0.00000000000E+00  0.33139424644E+04  0.33139424644E+04  0.25500000000E-02 0.  1.
          2   -1    0    0  501    0  0.00000000000E+00 -0.00000000000E+00 -0.31651636611E+03  0.31651636613E+03  0.25500000000E-02 0. -1.
    8880023    1    1    2    0    0 -0.67401094812E+03 -0.21052183232E+03  0.62446733099E+03  0.11499477613E+04  0.65864270000E+03 0.  0.
    8880022    1    1    2    0    0  0.67401094812E+03  0.21052183232E+03  0.23729587673E+04  0.24805110692E+04  0.15294330000E+03 0.  0.
<mgrwt>
<rscale>  0 0.89807668E+03</rscale>
<asrwt>0</asrwt>
<pdfrwt beam="1">  1        2 0.48694825E-01 0.96561918E+03</pdfrwt>
<pdfrwt beam="2">  1       -2 0.50983731E+00 0.96561918E+03</pdfrwt>
<totfact> 0.15102075E-01</totfact>
</mgrwt>
</event>
<event>
 4    1  0.2051094E-007  0.8056598E+03  0.7818608E-02  0.9698689E-01
          2   -1    0    0  501    0  0.00000000000E+00  0.00000000000E+00  0.10090953948E+04  0.10090953949E+04  0.25500000000E-02 0. -1.
         -2   -1    0    0    0  501 -0.00000000000E+00 -0.00000000000E+00 -0.59786584695E+03  0.59786584695E+03  0.25500000000E-02 0.  1.
    8880023    1    1    2    0    0 -0.50249691696E+02 -0.46125103693E+03  0.67563578796E+03  0.10514615898E+04  0.65864270000E+03 0. -1.
    8880022    1    1    2    0    0  0.50249691696E+02  0.46125103693E+03 -0.26440624006E+03  0.55549965201E+03  0.15294330000E+03 0.  0.
<mgrwt>
<rscale>  0 0.71094881E+03</rscale>
<asrwt>0</asrwt>
<pdfrwt beam="1">  1        2 0.15524544E+00 0.80565983E+03</pdfrwt>
<pdfrwt beam="2">  1       -2 0.91979362E-01 0.80565983E+03</pdfrwt>
<totfact> 0.25247115E+01</totfact>
</mgrwt>
</event>
<event>
 4    1  0.2051094E-007  0.7249115E+03  0.7818608E-02  0.9906304E-01
         -2   -1    0    0    0  501 -0.00000000000E+00  0.00000000000E+00  0.66011296215E+03  0.66011296215E+03  0.25500000000E-02 0.  1.
          2   -1    0    0  501    0  0.00000000000E+00 -0.00000000000E+00 -0.70282659781E+03  0.70282659781E+03  0.25500000000E-02 0. -1.
    8880023    1    1    2    0    0 -0.29615122226E+03  0.63094799917E+02 -0.43413980741E+03  0.84496986861E+03  0.65864270000E+03 0.  0.
    8880022    1    1    2    0    0  0.29615122226E+03 -0.63094799917E+02  0.39142617175E+03  0.51796969136E+03  0.15294330000E+03 0.  0.
<mgrwt>
<rscale>  0 0.59956719E+03</rscale>
<asrwt>0</asrwt>
<pdfrwt beam="1">  1        2 0.10812717E+00 0.72491152E+03</pdfrwt>
<pdfrwt beam="2">  1       -2 0.10155584E+00 0.72491152E+03</pdfrwt>
<totfact> 0.32958856E+01</totfact>
</mgrwt>
</event>
<event>
 4    1  0.2051094E-007  0.8026299E+03  0.7818608E-02  0.9705138E-01
         -2   -1    0    0    0  501 -0.00000000000E+00  0.00000000000E+00  0.10642065739E+04  0.10642065739E+04  0.25500000000E-02 0.  1.
          2   -1    0    0  501    0  0.00000000000E+00 -0.00000000000E+00 -0.12530844447E+04  0.12530844447E+04  0.25500000000E-02 0. -1.
    8880023    1    1    2    0    0 -0.63043957121E+02  0.45434561575E+03 -0.10548396688E+04  0.13254815775E+04  0.65864270000E+03 0.  0.
    8880022    1    1    2    0    0  0.63043957121E+02 -0.45434561575E+03  0.86596179799E+03  0.99180944121E+03  0.15294330000E+03 0.  0.
<mgrwt>
<rscale>  0 0.70711679E+03</rscale>
<asrwt>0</asrwt>
<pdfrwt beam="1">  1        2 0.19278222E+00 0.80262986E+03</pdfrwt>
<pdfrwt beam="2">  1       -2 0.16372409E+00 0.80262986E+03</pdfrwt>
<totfact> 0.42312137E+00</totfact>
</mgrwt>
</event>
<event>
 4    1  0.2051094E-007  0.1117022E+04  0.7818608E-02  0.9242337E-01
          2   -1    0    0  501    0  0.00000000000E+00  0.00000000000E+00  0.29210452254E+04  0.29210452254E+04  0.25500000000E-02 0. -1.
         -2   -1    0    0    0  501 -0.00000000000E+00 -0.00000000000E+00 -0.44653842677E+03  0.44653842677E+03  0.25500000000E-02 0.  1.
    8880023    1    1    2    0    0  0.90217680708E+03  0.23277960370E+01  0.21005143034E+04  0.23790542143E+04  0.65864270000E+03 0.  0.
    8880022    1    1    2    0    0 -0.90217680708E+03 -0.23277960370E+01  0.37399249523E+03  0.98852943779E+03  0.15294330000E+03 0.  0.
<mgrwt>
<rscale>  0 0.10626929E+04</rscale>
<asrwt>0</asrwt>
<pdfrwt beam="1">  1        2 0.44939156E+00 0.11170222E+04</pdfrwt>
<pdfrwt beam="2">  1       -2 0.68698222E-01 0.11170222E+04</pdfrwt>
<totfact> 0.37919241E+00</totfact>
</mgrwt>
</event>
<event>
 4    1  0.2051094E-007  0.8038285E+03  0.7818608E-02  0.9702578E-01
          2   -1    0    0  501    0  0.00000000000E+00  0.00000000000E+00  0.17436045393E+04  0.17436045393E+04  0.25500000000E-02 0. -1.
         -2   -1    0    0    0  501 -0.00000000000E+00 -0.00000000000E+00 -0.57896830163E+03  0.57896830164E+03  0.25500000000E-02 0.  1.
    8880023    1    1    2    0    0 -0.67444493340E+01  0.46074340394E+03  0.15209795378E+04  0.17203252403E+04  0.65864270000E+03 0. -1.
    8880022    1    1    2    0    0  0.67444493340E+01 -0.46074340394E+03 -0.35634330013E+03  0.60224760060E+03  0.15294330000E+03 0.  0.
<mgrwt>
<rscale>  0 0.70863477E+03</rscale>
<asrwt>0</asrwt>
<pdfrwt beam="1">  1        2 0.26824685E+00 0.80382845E+03</pdfrwt>
<pdfrwt beam="2">  1       -2 0.89072048E-01 0.80382845E+03</pdfrwt>
<totfact> 0.10258104E+01</totfact>
</mgrwt>
</event>
<event>
 4    1  0.2051094E-007  0.7056384E+03  0.7818608E-02  0.9974569E-01
          2   -1    0    0  501    0  0.00000000000E+00  0.00000000000E+00  0.24227726926E+04  0.24227726926E+04  0.25500000000E-02 0. -1.
         -2   -1    0    0    0  501 -0.00000000000E+00 -0.00000000000E+00 -0.33656146705E+03  0.33656146705E+03  0.25500000000E-02 0.  1.
    8880023    1    1    2    0    0 -0.11912955893E+03 -0.22343569447E+03  0.22925335792E+04  0.23986737542E+04  0.65864270000E+03 0. -1.
    8880022    1    1    2    0    0  0.11912955893E+03  0.22343569447E+03 -0.20632235366E+03  0.36066040538E+03  0.15294330000E+03 0.  0.
<mgrwt>
<rscale>  0 0.56779559E+03</rscale>
<asrwt>0</asrwt>
<pdfrwt beam="1">  1        2 0.37273425E+00 0.70563841E+03</pdfrwt>
<pdfrwt beam="2">  1       -2 0.51778689E-01 0.70563841E+03</pdfrwt>
<totfact> 0.14306673E+01</totfact>
</mgrwt>
</event>
<event>
 4    1  0.2051094E-007  0.8877039E+03  0.7818608E-02  0.9546066E-01
         -2   -1    0    0    0  501 -0.00000000000E+00  0.00000000000E+00  0.57241850867E+03  0.57241850867E+03  0.25500000000E-02 0.  1.
          2   -1    0    0  501    0  0.00000000000E+00 -0.00000000000E+00 -0.20447231555E+04  0.20447231555E+04  0.25500000000E-02 0. -1.
    8880023    1    1    2    0    0  0.41988042828E+02  0.59367085531E+03 -0.17349576375E+04  0.19488705166E+04  0.65864270000E+03 0. -1.
    8880022    1    1    2    0    0 -0.41988042828E+02 -0.59367085531E+03  0.26265299068E+03  0.66827114759E+03  0.15294330000E+03 0.  0.
<mgrwt>
<rscale>  0 0.80971106E+03</rscale>
<asrwt>0</asrwt>
<pdfrwt beam="1">  1        2 0.31457279E+00 0.88770394E+03</pdfrwt>
<pdfrwt beam="2">  1       -2 0.88064387E-01 0.88770394E+03</pdfrwt>
<totfact> 0.71234732E+00</totfact>
</mgrwt>
</event>
<event>
 4    1  0.2051094E-007  0.8548055E+03  0.7818608E-02  0.9602871E-01
         -2   -1    0    0    0  501 -0.00000000000E+00  0.00000000000E+00  0.18724037524E+04  0.18724037524E+04  0.25500000000E-02 0.  1.
          2   -1    0    0  501    0  0.00000000000E+00 -0.00000000000E+00 -0.10448514363E+04  0.10448514363E+04  0.25500000000E-02 0. -1.
    8880023    1    1    2    0    0  0.28120998743E+03  0.46669389056E+03 -0.81431343533E+03  0.11805925723E+04  0.65864270000E+03 0. -1.
    8880022    1    1    2    0    0 -0.28120998743E+03 -0.46669389056E+03  0.16418657514E+04  0.17366626164E+04  0.15294330000E+03 0.  0.
<mgrwt>
<rscale>  0 0.77106444E+03</rscale>
<asrwt>0</asrwt>
<pdfrwt beam="1">  1        2 0.16074638E+00 0.85480550E+03</pdfrwt>
<pdfrwt beam="2">  1       -2 0.28806211E+00 0.85480550E+03</pdfrwt>
<totfact> 0.90855536E-01</totfact>
</mgrwt>
</event>
<event>
 4    1  0.2595666E-007  0.9893044E+03  0.7818608E-02  0.9395686E-01
         -2   -1    0    0    0  501 -0.00000000000E+00  0.00000000000E+00  0.12004613031E+04  0.12004613031E+04  0.25500000000E-02 0.  1.
          2   -1    0    0  501    0  0.00000000000E+00 -0.00000000000E+00 -0.18254929791E+04  0.18254929791E+04  0.25500000000E-02 0. -1.
    8880023    1    1    2    0    0 -0.67884003381E+03  0.28998125560E+03 -0.15462176924E+04  0.18356231309E+04  0.65864270000E+03 0. -1.
    8880022    1    1    2    0    0  0.67884003381E+03 -0.28998125560E+03  0.92118601634E+03  0.11903311513E+04  0.15294330000E+03 0.  0.
<mgrwt>
<rscale>  0 0.92431518E+03</rscale>
<asrwt>0</asrwt>
<pdfrwt beam="1">  1        2 0.28084507E+00 0.98930436E+03</pdfrwt>
<pdfrwt beam="2">  1       -2 0.18468635E+00 0.98930436E+03</pdfrwt>
<totfact> 0.14025594E+00</totfact>
</mgrwt>
</event>
<event>
 4    1  0.2051094E-007  0.8459132E+03  0.7818608E-02  0.9619130E-01
          2   -1    0    0  501    0  0.00000000000E+00  0.00000000000E+00  0.21531526769E+04  0.21531526769E+04  0.25500000000E-02 0. -1.
         -2   -1    0    0    0  501 -0.00000000000E+00 -0.00000000000E+00 -0.28259172069E+03  0.28259172070E+03  0.25500000000E-02 0.  1.
    8880023    1    1    2    0    0 -0.53055068010E+02  0.52815165146E+03  0.16233887139E+04  0.18305627905E+04  0.65864270000E+03 0.  1.
    8880022    1    1    2    0    0  0.53055068010E+02 -0.52815165146E+03  0.24717224223E+03  0.60518160706E+03  0.15294330000E+03 0.  0.
<mgrwt>
<rscale>  0 0.76042898E+03</rscale>
<asrwt>0</asrwt>
<pdfrwt beam="1">  1        2 0.33125426E+00 0.84591324E+03</pdfrwt>
<pdfrwt beam="2">  1       -2 0.43475649E-01 0.84591324E+03</pdfrwt>
<totfact> 0.28167181E+01</totfact>
</mgrwt>
</event>
<event>
 4    1  0.2741906E-007  0.9473759E+03  0.7818608E-02  0.9453900E-01
          2   -1    0    0  501    0  0.00000000000E+00  0.00000000000E+00  0.16511856279E+04  0.16511856279E+04  0.25500000000E-02 0. -1.
         -2   -1    0    0    0  501 -0.00000000000E+00 -0.00000000000E+00 -0.12392950354E+04  0.12392950354E+04  0.25500000000E-02 0.  1.
    8880023    1    1    2    0    0 -0.66210943633E+03  0.15912877305E+03  0.13941128198E+04  0.16855478731E+04  0.65864270000E+03 0. -1.
    8880022    1    1    2    0    0  0.66210943633E+03 -0.15912877305E+03 -0.98222222724E+03  0.12049327902E+04  0.15294330000E+03 0.  0.
<mgrwt>
<rscale>  0 0.87769635E+03</rscale>
<asrwt>0</asrwt>
<pdfrwt beam="1">  1        2 0.25402856E+00 0.94737589E+03</pdfrwt>
<pdfrwt beam="2">  1       -2 0.19066078E+00 0.94737589E+03</pdfrwt>
<totfact> 0.16045299E+00</totfact>
</mgrwt>
</event>
<event>
 4    1  0.2051094E-007  0.1603023E+04  0.7818608E-02  0.8840117E-01
          2   -1    0    0  501    0  0.00000000000E+00  0.00000000000E+00  0.29247484329E+04  0.29247484329E+04  0.25500000000E-02 0. -1.
         -2   -1    0    0    0  501 -0.00000000000E+00 -0.00000000000E+00 -0.86456291020E+03  0.86456291020E+03  0.25500000000E-02 0.  1.
    8880023    1    1    2    0    0 -0.14530549258E+04 -0.15653957788E+03  0.15607159251E+04  0.22373014240E+04  0.65864270000E+03 0.  0.
    8880022    1    1    2    0    0  0.14530549258E+04  0.15653957788E+03  0.49946959753E+03  0.15520099190E+04  0.15294330000E+03 0.  0.
<mgrwt>
<rscale>  0 0.15685310E+04</rscale>
<asrwt>0</asrwt>
<pdfrwt beam="1">  1        2 0.44996130E+00 0.16030232E+04</pdfrwt>
<pdfrwt beam="2">  1       -2 0.13300968E+00 0.16030232E+04</pdfrwt>
<totfact> 0.74680146E-01</totfact>
</mgrwt>
</event>
<event>
 4    1  0.2051094E-007  0.7055649E+03  0.7818608E-02  0.9974854E-01
         -2   -1    0    0    0  501 -0.00000000000E+00  0.00000000000E+00  0.47658600863E+03  0.47658600864E+03  0.25500000000E-02 0.  1.
          2   -1    0    0  501    0  0.00000000000E+00 -0.00000000000E+00 -0.12972076689E+04  0.12972076689E+04  0.25500000000E-02 0. -1.
    8880023    1    1    2    0    0  0.14852732920E+03 -0.20481999790E+03 -0.11386776798E+04  0.13395553978E+04  0.65864270000E+03 0.  0.
    8880022    1    1    2    0    0 -0.14852732920E+03  0.20481999790E+03  0.31805601950E+03  0.43423827977E+03  0.15294330000E+03 0.  1.
<mgrwt>
<rscale>  0 0.56766702E+03</rscale>
<asrwt>0</asrwt>
<pdfrwt beam="1">  1        2 0.19957041E+00 0.70556488E+03</pdfrwt>
<pdfrwt beam="2">  1       -2 0.73320925E-01 0.70556488E+03</pdfrwt>
<totfact> 0.28561810E+01</totfact>
</mgrwt>
</event>
<event>
 4    1  0.2051094E-007  0.7986735E+03  0.7818608E-02  0.9713672E-01
         -2   -1    0    0    0  501 -0.00000000000E+00  0.00000000000E+00  0.43876126028E+03  0.43876126029E+03  0.25500000000E-02 0.  1.
          2   -1    0    0  501    0  0.00000000000E+00 -0.00000000000E+00 -0.13513786235E+04  0.13513786235E+04  0.25500000000E-02 0. -1.
    8880023    1    1    2    0    0  0.43241205461E+03  0.13072476898E+03 -0.10257113041E+04  0.12999857829E+04  0.65864270000E+03 0. -1.
    8880022    1    1    2    0    0 -0.43241205461E+03 -0.13072476898E+03  0.11309394081E+03  0.49015410093E+03  0.15294330000E+03 0.  0.
<mgrwt>
<rscale>  0 0.70208594E+03</rscale>
<asrwt>0</asrwt>
<pdfrwt beam="1">  1        2 0.20790440E+00 0.79867350E+03</pdfrwt>
<pdfrwt beam="2">  1       -2 0.67501733E-01 0.79867350E+03</pdfrwt>
<totfact> 0.31537286E+01</totfact>
</mgrwt>
</event>
<event>
 4    1  0.2051094E-007  0.9281844E+03  0.7818608E-02  0.9482222E-01
         -2   -1    0    0    0  501 -0.00000000000E+00  0.00000000000E+00  0.10254500610E+04  0.10254500611E+04  0.25500000000E-02 0.  1.
          2   -1    0    0  501    0  0.00000000000E+00 -0.00000000000E+00 -0.11476408086E+04  0.11476408086E+04  0.25500000000E-02 0. -1.
    8880023    1    1    2    0    0 -0.29725302417E+03 -0.58254333519E+03 -0.79522677282E+03  0.12222568978E+04  0.65864270000E+03 0. -1.
    8880022    1    1    2    0    0  0.29725302417E+03  0.58254333519E+03  0.67303602525E+03  0.95083397187E+03  0.15294330000E+03 0.  0.
<mgrwt>
<rscale>  0 0.85607288E+03</rscale>
<asrwt>0</asrwt>
<pdfrwt beam="1">  1        2 0.17656012E+00 0.92818441E+03</pdfrwt>
<pdfrwt beam="2">  1       -2 0.15776155E+00 0.92818441E+03</pdfrwt>
<totfact> 0.53249730E+00</totfact>
</mgrwt>
</event>
<event>
 4    1  0.2051094E-007  0.8952154E+03  0.7818608E-02  0.9533756E-01
         -2   -1    0    0    0  501 -0.00000000000E+00  0.00000000000E+00  0.35025391799E+03  0.35025391800E+03  0.25500000000E-02 0.  1.
          2   -1    0    0  501    0  0.00000000000E+00 -0.00000000000E+00 -0.28410679758E+04  0.28410679758E+04  0.25500000000E-02 0. -1.
    8880023    1    1    2    0    0 -0.63945715062E+02 -0.60291909838E+03 -0.23973998642E+04  0.25590890584E+04  0.65864270000E+03 0. -1.
    8880022    1    1    2    0    0  0.63945715062E+02  0.60291909838E+03 -0.93414193695E+02  0.63223283548E+03  0.15294330000E+03 0.  0.
<mgrwt>
<rscale>  0 0.81840200E+03</rscale>
<asrwt>0</asrwt>
<pdfrwt beam="1">  1        2 0.43708737E+00 0.89521545E+03</pdfrwt>
<pdfrwt beam="2">  1       -2 0.53885220E-01 0.89521545E+03</pdfrwt>
<totfact> 0.73268317E+00</totfact>
</mgrwt>
</event>
<event>
 4    1  0.2051094E-007  0.7565232E+03  0.7818608E-02  0.9814193E-01
         -2   -1    0    0    0  501 -0.00000000000E+00  0.00000000000E+00  0.70019065962E+03  0.70019065963E+03  0.25500000000E-02 0.  1.
          2   -1    0    0  501    0  0.00000000000E+00 -0.00000000000E+00 -0.11038187905E+04  0.11038187905E+04  0.25500000000E-02 0. -1.
    8880023    1    1    2    0    0  0.27717279917E+03  0.24837966680E+03 -0.89305117692E+03  0.11704135296E+04  0.65864270000E+03 0. -1.
    8880022    1    1    2    0    0 -0.27717279917E+03 -0.24837966680E+03  0.48942304603E+03  0.63359592051E+03  0.15294330000E+03 0.  0.
<mgrwt>
<rscale>  0 0.64606400E+03</rscale>
<asrwt>0</asrwt>
<pdfrwt beam="1">  1        2 0.16981828E+00 0.75652325E+03</pdfrwt>
<pdfrwt beam="2">  1       -2 0.10772164E+00 0.75652325E+03</pdfrwt>
<totfact> 0.15235090E+01</totfact>
</mgrwt>
</event>
<event>
 4    1  0.2051094E-007  0.1016828E+04  0.7818608E-02  0.9359865E-01
         -2   -1    0    0    0  501 -0.00000000000E+00  0.00000000000E+00  0.11776313717E+04  0.11776313717E+04  0.25500000000E-02 0.  1.
          2   -1    0    0  501    0  0.00000000000E+00 -0.00000000000E+00 -0.14223084727E+04  0.14223084727E+04  0.25500000000E-02 0. -1.
    8880023    1    1    2    0    0  0.33986437658E+03  0.69614752457E+03 -0.10572636617E+04  0.14668830311E+04  0.65864270000E+03 0.  0.
    8880022    1    1    2    0    0 -0.33986437658E+03 -0.69614752457E+03  0.81258656066E+03  0.11330568132E+04  0.15294330000E+03 0.  0.
<mgrwt>
<rscale>  0 0.95453537E+03</rscale>
<asrwt>0</asrwt>
<pdfrwt beam="1">  1        2 0.21881669E+00 0.10168281E+04</pdfrwt>
<pdfrwt beam="2">  1       -2 0.18117406E+00 0.10168281E+04</pdfrwt>
<totfact> 0.24765501E+00</totfact>
</mgrwt>
</event>
<event>
 4    1  0.2051094E-007  0.7371109E+03  0.7818608E-02  0.9868444E-01
         -2   -1    0    0    0  501 -0.00000000000E+00  0.00000000000E+00  0.71852049116E+03  0.71852049117E+03  0.25500000000E-02 0.  1.
          2   -1    0    0  501    0  0.00000000000E+00 -0.00000000000E+00 -0.95494894498E+03  0.95494894498E+03  0.25500000000E-02 0. -1.
    8880023    1    1    2    0    0 -0.14834459177E+03 -0.29583128904E+03 -0.74480125884E+03  0.10478842450E+04  0.65864270000E+03 0. -1.
    8880022    1    1    2    0    0  0.14834459177E+03  0.29583128904E+03  0.50837280503E+03  0.62558519115E+03  0.15294330000E+03 0.  0.
<mgrwt>
<rscale>  0 0.61815293E+03</rscale>
<asrwt>0</asrwt>
<pdfrwt beam="1">  1        2 0.14691522E+00 0.73711090E+03</pdfrwt>
<pdfrwt beam="2">  1       -2 0.11054161E+00 0.73711090E+03</pdfrwt>
<totfact> 0.17801974E+01</totfact>
</mgrwt>
</event>
<event>
 4    1  0.2051094E-007  0.1014652E+04  0.7818608E-02  0.9362635E-01
          2   -1    0    0  501    0  0.00000000000E+00  0.00000000000E+00  0.21970762607E+04  0.21970762607E+04  0.25500000000E-02 0. -1.
         -2   -1    0    0    0  501 -0.00000000000E+00 -0.00000000000E+00 -0.16714916364E+04  0.16714916364E+04  0.25500000000E-02 0.  1.
    8880023    1    1    2    0    0 -0.39927958854E+03 -0.66051756006E+03  0.19744130901E+04  0.22198704678E+04  0.65864270000E+03 0.  0.
    8880022    1    1    2    0    0  0.39927958854E+03  0.66051756006E+03 -0.14488284658E+04  0.16486974293E+04  0.15294330000E+03 0.  0.
<mgrwt>
<rscale>  0 0.95215520E+03</rscale>
<asrwt>0</asrwt>
<pdfrwt beam="1">  1        2 0.33801173E+00 0.10146516E+04</pdfrwt>
<pdfrwt beam="2">  1       -2 0.25715256E+00 0.10146516E+04</pdfrwt>
<totfact> 0.30237604E-01</totfact>
</mgrwt>
</event>
<event>
 4    1  0.2051094E-007  0.9186728E+03  0.7818608E-02  0.9496697E-01
         -2   -1    0    0    0  501 -0.00000000000E+00  0.00000000000E+00  0.97897860629E+03  0.97897860629E+03  0.25500000000E-02 0.  1.
          2   -1    0    0  501    0  0.00000000000E+00 -0.00000000000E+00 -0.12017396230E+04  0.12017396230E+04  0.25500000000E-02 0. -1.
    8880023    1    1    2    0    0 -0.61771795618E+03 -0.16903867674E+03 -0.86435742322E+03  0.12613776235E+04  0.65864270000E+03 0. -1.
    8880022    1    1    2    0    0  0.61771795618E+03  0.16903867674E+03  0.64159640652E+03  0.91934060582E+03  0.15294330000E+03 0.  0.
<mgrwt>
<rscale>  0 0.84527777E+03</rscale>
<asrwt>0</asrwt>
<pdfrwt beam="1">  1        2 0.18488302E+00 0.91867282E+03</pdfrwt>
<pdfrwt beam="2">  1       -2 0.15061209E+00 0.91867282E+03</pdfrwt>
<totfact> 0.56010865E+00</totfact>
</mgrwt>
</event>
<event>
 4    1  0.2051094E-007  0.6739657E+03  0.7818608E-02  0.1012966E+00
          2   -1    0    0  501    0  0.00000000000E+00  0.00000000000E+00  0.13619483025E+03  0.13619483028E+03  0.25500000000E-02 0. -1.
         -2   -1    0    0    0  501 -0.00000000000E+00 -0.00000000000E+00 -0.16033858386E+04  0.16033858386E+04  0.25500000000E-02 0.  1.
    8880023    1    1    2    0    0 -0.14289702531E+03 -0.22201456388E+00 -0.83161972172E+03  0.10704303700E+04  0.65864270000E+03 0. -1.
    8880022    1    1    2    0    0  0.14289702531E+03  0.22201456388E+00 -0.63557128662E+03  0.66915029890E+03  0.15294330000E+03 0.  1.
<mgrwt>
<rscale>  0 0.50312580E+03</rscale>
<asrwt>0</asrwt>
<pdfrwt beam="1">  1        2 0.20953052E-01 0.67396574E+03</pdfrwt>
<pdfrwt beam="2">  1       -2 0.24667473E+00 0.67396574E+03</pdfrwt>
<totfact> 0.18716305E+01</totfact>
</mgrwt>
</event>
<event>
 4    1  0.2051094E-007  0.1482212E+04  0.7818608E-02  0.8922300E-01
         -2   -1    0    0    0  501 -0.00000000000E+00  0.00000000000E+00  0.94761780261E+03  0.94761780261E+03  0.25500000000E-02 0.  1.
          2   -1    0    0  501    0  0.00000000000E+00 -0.00000000000E+00 -0.23110571210E+04  0.23110571210E+04  0.25500000000E-02 0. -1.
    8880023    1    1    2    0    0  0.90065633248E+03 -0.97568475307E+03 -0.12097989608E+04  0.19132606457E+04  0.65864270000E+03 0.  0.
    8880022    1    1    2    0    0 -0.90065633248E+03  0.97568475307E+03 -0.15364035755E+03  0.13454142779E+04  0.15294330000E+03 0.  0.
<mgrwt>
<rscale>  0 0.14443891E+04</rscale>
<asrwt>0</asrwt>
<pdfrwt beam="1">  1        2 0.35554725E+00 0.14822121E+04</pdfrwt>
<pdfrwt beam="2">  1       -2 0.14578735E+00 0.14822121E+04</pdfrwt>
<totfact> 0.13665474E+00</totfact>
</mgrwt>
</event>
<event>
 4    1  0.2051094E-007  0.1761385E+04  0.7818608E-02  0.8744203E-01
         -2   -1    0    0    0  501 -0.00000000000E+00  0.00000000000E+00  0.21789550913E+04  0.21789550913E+04  0.25500000000E-02 0.  1.
          2   -1    0    0  501    0  0.00000000000E+00 -0.00000000000E+00 -0.20013743028E+04  0.20013743028E+04  0.25500000000E-02 0. -1.
    8880023    1    1    2    0    0 -0.61089978500E+03 -0.15150806713E+04 -0.11210199693E+04  0.20878610983E+04  0.65864270000E+03 0.  0.
    8880022    1    1    2    0    0  0.61089978500E+03  0.15150806713E+04  0.12986007578E+04  0.20924682958E+04  0.15294330000E+03 0.  0.
<mgrwt>
<rscale>  0 0.17304193E+04</rscale>
<asrwt>0</asrwt>
<pdfrwt beam="1">  1        2 0.30790374E+00 0.17613853E+04</pdfrwt>
<pdfrwt beam="2">  1       -2 0.33522386E+00 0.17613853E+04</pdfrwt>
<totfact> 0.11698925E-01</totfact>
</mgrwt>
</event>
<event>
 4    1  0.2051094E-007  0.1043020E+04  0.7818608E-02  0.9327319E-01
         -2   -1    0    0    0  501 -0.00000000000E+00  0.00000000000E+00  0.69399010225E+03  0.69399010226E+03  0.25500000000E-02 0.  1.
          2   -1    0    0  501    0  0.00000000000E+00 -0.00000000000E+00 -0.24669582514E+04  0.24669582514E+04  0.25500000000E-02 0. -1.
    8880023    1    1    2    0    0  0.13252768153E+03  0.79782034313E+03 -0.20437064104E+04  0.22944774970E+04  0.65864270000E+03 0. -1.
    8880022    1    1    2    0    0 -0.13252768153E+03 -0.79782034313E+03  0.27073826123E+03  0.86647085663E+03  0.15294330000E+03 0.  0.
<mgrwt>
<rscale>  0 0.98306219E+03</rscale>
<asrwt>0</asrwt>
<pdfrwt beam="1">  1        2 0.37953203E+00 0.10430202E+04</pdfrwt>
<pdfrwt beam="2">  1       -2 0.10676771E+00 0.10430202E+04</pdfrwt>
<totfact> 0.25725776E+00</totfact>
</mgrwt>
</event>
<event>
 4    1  0.2051094E-007  0.7072632E+03  0.7818608E-02  0.9968308E-01
          2   -1    0    0  501    0  0.00000000000E+00  0.00000000000E+00  0.74915144793E+03  0.74915144793E+03  0.25500000000E-02 0. -1.
         -2   -1    0    0    0  501 -0.00000000000E+00 -0.00000000000E+00 -0.83222122104E+03  0.83222122105E+03  0.25500000000E-02 0.  1.
    8880023    1    1    2    0    0  0.22324164595E+03  0.12874071656E+03  0.54009310783E+03  0.88989986851E+03  0.65864270000E+03 0. -1.
    8880022    1    1    2    0    0 -0.22324164595E+03 -0.12874071656E+03 -0.62316288095E+03  0.69147280047E+03  0.15294330000E+03 0.  0.
<mgrwt>
<rscale>  0 0.57061993E+03</rscale>
<asrwt>0</asrwt>
<pdfrwt beam="1">  1        2 0.11525407E+00 0.70726318E+03</pdfrwt>
<pdfrwt beam="2">  1       -2 0.12803403E+00 0.70726318E+03</pdfrwt>
<totfact> 0.17271816E+01</totfact>
</mgrwt>
</event>
<event>
 4    1  0.2051094E-007  0.7439888E+03  0.7818608E-02  0.9848477E-01
          2   -1    0    0  501    0  0.00000000000E+00  0.00000000000E+00  0.19323938243E+04  0.19323938243E+04  0.25500000000E-02 0. -1.
         -2   -1    0    0    0  501 -0.00000000000E+00 -0.00000000000E+00 -0.18122306103E+03  0.18122306105E+03  0.25500000000E-02 0.  1.
    8880023    1    1    2    0    0 -0.34457888503E+03  0.31217482028E+02  0.14513203585E+04  0.16309046963E+04  0.65864270000E+03 0.  0.
    8880022    1    1    2    0    0  0.34457888503E+03 -0.31217482028E+02  0.29985040476E+03  0.48271218904E+03  0.15294330000E+03 0.  0.
<mgrwt>
<rscale>  0 0.62824647E+03</rscale>
<asrwt>0</asrwt>
<pdfrwt beam="1">  1        2 0.29729134E+00 0.74398881E+03</pdfrwt>
<pdfrwt beam="2">  1       -2 0.27880473E-01 0.74398881E+03</pdfrwt>
<totfact> 0.87802727E+01</totfact>
</mgrwt>
</event>
<event>
 4    1  0.2051094E-007  0.1307930E+04  0.7818608E-02  0.9058742E-01
          2   -1    0    0  501    0  0.00000000000E+00  0.00000000000E+00  0.13531845874E+04  0.13531845874E+04  0.25500000000E-02 0. -1.
         -2   -1    0    0    0  501 -0.00000000000E+00 -0.00000000000E+00 -0.14020754216E+04  0.14020754216E+04  0.25500000000E-02 0.  1.
    8880023    1    1    2    0    0 -0.55191782029E+03  0.98603127209E+03 -0.65621886053E+03  0.14633196333E+04  0.65864270000E+03 0.  1.
    8880022    1    1    2    0    0  0.55191782029E+03 -0.98603127209E+03  0.60732802633E+03  0.12919403757E+04  0.15294330000E+03 0.  0.
<mgrwt>
<rscale>  0 0.12638406E+04</rscale>
<asrwt>0</asrwt>
<pdfrwt beam="1">  1        2 0.20818224E+00 0.13079301E+04</pdfrwt>
<pdfrwt beam="2">  1       -2 0.21570391E+00 0.13079301E+04</pdfrwt>
<totfact> 0.15553750E+00</totfact>
</mgrwt>
</event>
<event>
 4    1  0.2051094E-007  0.9216688E+03  0.7818608E-02  0.9492105E-01
         -2   -1    0    0    0  501 -0.00000000000E+00  0.00000000000E+00  0.10319941599E+04  0.10319941599E+04  0.25500000000E-02 0.  1.
          2   -1    0    0  501    0  0.00000000000E+00 -0.00000000000E+00 -0.11078380266E+04  0.11078380266E+04  0.25500000000E-02 0. -1.
    8880023    1    1    2    0    0  0.55150174842E+03 -0.33392965121E+03 -0.75467359661E+03  0.11912202291E+04  0.65864270000E+03 0. -1.
    8880022    1    1    2    0    0 -0.55150174842E+03  0.33392965121E+03  0.67882972993E+03  0.94861195740E+03  0.15294330000E+03 0.  0.
<mgrwt>
<rscale>  0 0.84868400E+03</rscale>
<asrwt>0</asrwt>
<pdfrwt beam="1">  1        2 0.17043662E+00 0.92166881E+03</pdfrwt>
<pdfrwt beam="2">  1       -2 0.15876833E+00 0.92166881E+03</pdfrwt>
<totfact> 0.55388565E+00</totfact>
</mgrwt>
</event>
<event>
 4    1  0.2051094E-007  0.1321118E+04  0.7818608E-02  0.9047535E-01
          2   -1    0    0  501    0  0.00000000000E+00  0.00000000000E+00  0.43430261777E+04  0.43430261777E+04  0.25500000000E-02 0. -1.
         -2   -1    0    0    0  501 -0.00000000000E+00 -0.00000000000E+00 -0.64500139669E+03  0.64500139670E+03  0.25500000000E-02 0.  1.
    8880023    1    1    2    0    0 -0.25250449900E+03  0.11170421323E+04  0.35926294755E+04  0.38278373009E+04  0.65864270000E+03 0. -1.
    8880022    1    1    2    0    0  0.25250449900E+03 -0.11170421323E+04  0.10539530545E+03  0.11601902735E+04  0.15294330000E+03 0.  0.
<mgrwt>
<rscale>  0 0.12775814E+04</rscale>
<asrwt>0</asrwt>
<pdfrwt beam="1">  1        2 0.66815786E+00 0.13211177E+04</pdfrwt>
<pdfrwt beam="2">  1       -2 0.99230987E-01 0.13211177E+04</pdfrwt>
<totfact> 0.14635277E-01</totfact>
</mgrwt>
</event>
<event>
 4    1  0.2051094E-007  0.1845592E+04  0.7818608E-02  0.8697727E-01
          2   -1    0    0  501    0  0.00000000000E+00  0.00000000000E+00  0.20058008614E+04  0.20058008614E+04  0.25500000000E-02 0. -1.
         -2   -1    0    0    0  501 -0.00000000000E+00 -0.00000000000E+00 -0.26914961193E+04  0.26914961193E+04  0.25500000000E-02 0.  1.
    8880023    1    1    2    0    0  0.14449976157E+04  0.94041493010E+03  0.11497851268E+04  0.21744457671E+04  0.65864270000E+03 0.  0.
    8880022    1    1    2    0    0 -0.14449976157E+04 -0.94041493010E+03 -0.18354803847E+04  0.25228512135E+04  0.15294330000E+03 0.  0.
<mgrwt>
<rscale>  0 0.18162082E+04</rscale>
<asrwt>0</asrwt>
<pdfrwt beam="1">  1        2 0.30858475E+00 0.18455917E+04</pdfrwt>
<pdfrwt beam="2">  1       -2 0.41407633E+00 0.18455917E+04</pdfrwt>
<totfact> 0.35803381E-02</totfact>
</mgrwt>
</event>
<event>
 4    1  0.2051094E-007  0.7422191E+03  0.7818608E-02  0.9853529E-01
          2   -1    0    0  501    0  0.00000000000E+00  0.00000000000E+00  0.12897826218E+04  0.12897826218E+04  0.25500000000E-02 0. -1.
         -2   -1    0    0    0  501 -0.00000000000E+00 -0.00000000000E+00 -0.62670148004E+03  0.62670148005E+03  0.25500000000E-02 0.  1.
    8880023    1    1    2    0    0  0.29857587583E+03  0.16712714016E+03  0.11087006710E+04  0.13342062880E+04  0.65864270000E+03 0. -1.
    8880022    1    1    2    0    0 -0.29857587583E+03 -0.16712714016E+03 -0.44561952931E+03  0.58227781387E+03  0.15294330000E+03 0.  0.
<mgrwt>
<rscale>  0 0.62567287E+03</rscale>
<asrwt>0</asrwt>
<pdfrwt beam="1">  1        2 0.19842809E+00 0.74221913E+03</pdfrwt>
<pdfrwt beam="2">  1       -2 0.96415614E-01 0.74221913E+03</pdfrwt>
<totfact> 0.15415296E+01</totfact>
</mgrwt>
</event>
<event>
 4    1  0.2051094E-007  0.1019881E+04  0.7818608E-02  0.9355997E-01
          2   -1    0    0  501    0  0.00000000000E+00  0.00000000000E+00  0.37676056601E+03  0.37676056602E+03  0.25500000000E-02 0. -1.
         -2   -1    0    0    0  501 -0.00000000000E+00 -0.00000000000E+00 -0.25047551274E+04  0.25047551274E+04  0.25500000000E-02 0.  1.
    8880023    1    1    2    0    0 -0.67928711671E+03  0.38067803010E+03 -0.16932376163E+04  0.19766665326E+04  0.65864270000E+03 0.  0.
    8880022    1    1    2    0    0  0.67928711671E+03 -0.38067803010E+03 -0.43475694507E+03  0.90484916082E+03  0.15294330000E+03 0.  0.
<mgrwt>
<rscale>  0 0.95787117E+03</rscale>
<asrwt>0</asrwt>
<pdfrwt beam="1">  1        2 0.57963166E-01 0.10198809E+04</pdfrwt>
<pdfrwt beam="2">  1       -2 0.38534693E+00 0.10198809E+04</pdfrwt>
<totfact> 0.80054186E-01</totfact>
</mgrwt>
</event>
<event>
 4    1  0.2051094E-007  0.8121292E+03  0.7818608E-02  0.9685159E-01
         -2   -1    0    0    0  501 -0.00000000000E+00  0.00000000000E+00  0.83403637935E+03  0.83403637935E+03  0.25500000000E-02 0.  1.
          2   -1    0    0  501    0  0.00000000000E+00 -0.00000000000E+00 -0.13038640039E+04  0.13038640039E+04  0.25500000000E-02 0. -1.
    8880023    1    1    2    0    0  0.33173983154E+03 -0.34013565395E+03 -0.10789214587E+04  0.13504167132E+04  0.65864270000E+03 0. -1.
    8880022    1    1    2    0    0 -0.33173983154E+03  0.34013565395E+03  0.60909383411E+03  0.78748367011E+03  0.15294330000E+03 0.  0.
<mgrwt>
<rscale>  0 0.71907340E+03</rscale>
<asrwt>0</asrwt>
<pdfrwt beam="1">  1        2 0.20059446E+00 0.81212917E+03</pdfrwt>
<pdfrwt beam="2">  1       -2 0.12831329E+00 0.81212917E+03</pdfrwt>
<totfact> 0.74827829E+00</totfact>
</mgrwt>
</event>
<event>
 4    1  0.2051094E-007  0.1133759E+04  0.7818608E-02  0.9224369E-01
          2   -1    0    0  501    0  0.00000000000E+00  0.00000000000E+00  0.91783944674E+03  0.91783944674E+03  0.25500000000E-02 0. -1.
         -2   -1    0    0    0  501 -0.00000000000E+00 -0.00000000000E+00 -0.32748594942E+04  0.32748594942E+04  0.25500000000E-02 0.  1.
    8880023    1    1    2    0    0 -0.62626140979E+03  0.67778762912E+03  0.46068754718E+03  0.12237821072E+04  0.65864270000E+03 0.  0.
    8880022    1    1    2    0    0  0.62626140979E+03 -0.67778762912E+03 -0.28177075946E+04  0.29689168337E+04  0.15294330000E+03 0.  0.
<mgrwt>
<rscale>  0 0.10805405E+04</rscale>
<asrwt>0</asrwt>
<pdfrwt beam="1">  1        2 0.14120607E+00 0.11337591E+04</pdfrwt>
<pdfrwt beam="2">  1       -2 0.50382453E+00 0.11337591E+04</pdfrwt>
<totfact> 0.43984688E-02</totfact>
</mgrwt>
</event>
<event>
 4    1  0.2051094E-007  0.6959460E+03  0.7818608E-02  0.1001445E+00
         -2   -1    0    0    0  501 -0.00000000000E+00  0.00000000000E+00  0.96414477235E+03  0.96414477235E+03  0.25500000000E-02 0.  1.
          2   -1    0    0  501    0  0.00000000000E+00 -0.00000000000E+00 -0.34272095064E+03  0.34272095065E+03  0.25500000000E-02 0. -1.
    8880023    1    1    2    0    0  0.22420829852E+03 -0.16162417815E+02  0.79384126010E+02  0.70045887146E+03  0.65864270000E+03 0. -1.
    8880022    1    1    2    0    0 -0.22420829852E+03  0.16162417815E+02  0.54203969570E+03  0.60640685155E+03  0.15294330000E+03 0.  0.
<mgrwt>
<rscale>  0 0.55021007E+03</rscale>
<asrwt>0</asrwt>
<pdfrwt beam="1">  1        2 0.52726302E-01 0.69594597E+03</pdfrwt>
<pdfrwt beam="2">  1       -2 0.14832996E+00 0.69594597E+03</pdfrwt>
<totfact> 0.29676619E+01</totfact>
</mgrwt>
</event>
<event>
 4    1  0.2051094E-007  0.1321671E+04  0.7818608E-02  0.9047068E-01
          2   -1    0    0  501    0  0.00000000000E+00  0.00000000000E+00  0.13243982522E+04  0.13243982522E+04  0.25500000000E-02 0. -1.
         -2   -1    0    0    0  501 -0.00000000000E+00 -0.00000000000E+00 -0.14922748547E+04  0.14922748547E+04  0.25500000000E-02 0.  1.
    8880023    1    1    2    0    0  0.41435232284E+03  0.10683235868E+04  0.57627740274E+03  0.14418422191E+04  0.65864270000E+03 0.  0.
    8880022    1    1    2    0    0 -0.41435232284E+03 -0.10683235868E+04 -0.74415400533E+03  0.13748308878E+04  0.15294330000E+03 0.  0.
<mgrwt>
<rscale>  0 0.12781572E+04</rscale>
<asrwt>0</asrwt>
<pdfrwt beam="1">  1        2 0.20375358E+00 0.13216707E+04</pdfrwt>
<pdfrwt beam="2">  1       -2 0.22958075E+00 0.13216707E+04</pdfrwt>
<totfact> 0.13193700E+00</totfact>
</mgrwt>
</event>
<event>
 4    1  0.2051094E-007  0.9784318E+03  0.7818608E-02  0.9410336E-01
          2   -1    0    0  501    0  0.00000000000E+00  0.00000000000E+00  0.13722463374E+04  0.13722463374E+04  0.25500000000E-02 0. -1.
         -2   -1    0    0    0  501 -0.00000000000E+00 -0.00000000000E+00 -0.13979423231E+04  0.13979423231E+04  0.25500000000E-02 0.  1.
    8880023    1    1    2    0    0  0.66295228304E+03 -0.28984954839E+03  0.10689575903E+04  0.14491373387E+04  0.65864270000E+03 0.  0.
    8880022    1    1    2    0    0 -0.66295228304E+03  0.28984954839E+03 -0.10946535760E+04  0.13210513217E+04  0.15294330000E+03 0.  0.
<mgrwt>
<rscale>  0 0.91229943E+03</rscale>
<asrwt>0</asrwt>
<pdfrwt beam="1">  1        2 0.21111482E+00 0.97843175E+03</pdfrwt>
<pdfrwt beam="2">  1       -2 0.21506805E+00 0.97843175E+03</pdfrwt>
<totfact> 0.15897831E+00</totfact>
</mgrwt>
</event>
<event>
 4    1  0.2051094E-007  0.1224916E+04  0.7818608E-02  0.9133275E-01
          2   -1    0    0  501    0  0.00000000000E+00  0.00000000000E+00  0.67211908599E+03  0.67211908599E+03  0.25500000000E-02 0. -1.
         -2   -1    0    0    0  501 -0.00000000000E+00 -0.00000000000E+00 -0.20182731147E+04  0.20182731147E+04  0.25500000000E-02 0.  1.
    8880023    1    1    2    0    0 -0.72706169028E+03 -0.73347767178E+03 -0.42044291744E+03  0.12950639558E+04  0.65864270000E+03 0.  0.
    8880022    1    1    2    0    0  0.72706169028E+03  0.73347767178E+03 -0.92571111123E+03  0.13953282449E+04  0.15294330000E+03 0.  0.
<mgrwt>
<rscale>  0 0.11769498E+04</rscale>
<asrwt>0</asrwt>
<pdfrwt beam="1">  1        2 0.10340294E+00 0.12249157E+04</pdfrwt>
<pdfrwt beam="2">  1       -2 0.31050355E+00 0.12249157E+04</pdfrwt>
<totfact> 0.11592334E+00</totfact>
</mgrwt>
</event>
<event>
 4    1  0.2051094E-007  0.9577850E+03  0.7818608E-02  0.9439000E-01
         -2   -1    0    0    0  501 -0.00000000000E+00  0.00000000000E+00  0.55780090816E+03  0.55780090816E+03  0.25500000000E-02 0.  1.
          2   -1    0    0  501    0  0.00000000000E+00 -0.00000000000E+00 -0.42459048088E+04  0.42459048088E+04  0.25500000000E-02 0. -1.
    8880023    1    1    2    0    0  0.68953724800E+03  0.89890727215E+02 -0.39351801048E+04  0.40500610640E+04  0.65864270000E+03 0. -1.
    8880022    1    1    2    0    0 -0.68953724800E+03 -0.89890727215E+02  0.24707620413E+03  0.75364465293E+03  0.15294330000E+03 0.  0.
<mgrwt>
<rscale>  0 0.88934429E+03</rscale>
<asrwt>0</asrwt>
<pdfrwt beam="1">  1        2 0.65321610E+00 0.95778503E+03</pdfrwt>
<pdfrwt beam="2">  1       -2 0.85815527E-01 0.95778503E+03</pdfrwt>
<totfact> 0.26789215E-01</totfact>
</mgrwt>
</event>
<event>
 4    1  0.2051094E-007  0.8069002E+03  0.7818608E-02  0.9696070E-01
          2   -1    0    0  501    0  0.00000000000E+00  0.00000000000E+00  0.10878306917E+04  0.10878306918E+04  0.25500000000E-02 0. -1.
         -2   -1    0    0    0  501 -0.00000000000E+00 -0.00000000000E+00 -0.11944514782E+04  0.11944514782E+04  0.25500000000E-02 0.  1.
    8880023    1    1    2    0    0  0.46476876691E+03  0.35605091469E+02  0.87171026597E+03  0.11878412029E+04  0.65864270000E+03 0. -1.
    8880022    1    1    2    0    0 -0.46476876691E+03 -0.35605091469E+02 -0.97833105238E+03  0.10944409670E+04  0.15294330000E+03 0.  0.
<mgrwt>
<rscale>  0 0.71251248E+03</rscale>
<asrwt>0</asrwt>
<pdfrwt beam="1">  1        2 0.16735857E+00 0.80690020E+03</pdfrwt>
<pdfrwt beam="2">  1       -2 0.18376177E+00 0.80690020E+03</pdfrwt>
<totfact> 0.38435536E+00</totfact>
</mgrwt>
</event>
<event>
 4    1  0.2051094E-007  0.8882417E+03  0.7818608E-02  0.9545177E-01
         -2   -1    0    0    0  501 -0.00000000000E+00  0.00000000000E+00  0.23704705875E+04  0.23704705875E+04  0.25500000000E-02 0.  1.
          2   -1    0    0  501    0  0.00000000000E+00 -0.00000000000E+00 -0.69387944653E+03  0.69387944654E+03  0.25500000000E-02 0. -1.
    8880023    1    1    2    0    0 -0.58663595204E+03 -0.10498307714E+03 -0.34372139293E+03  0.95242731425E+03  0.65864270000E+03 0. -1.
    8880022    1    1    2    0    0  0.58663595204E+03  0.10498307714E+03  0.20203125339E+04  0.21119227198E+04  0.15294330000E+03 0.  0.
<mgrwt>
<rscale>  0 0.81033479E+03</rscale>
<asrwt>0</asrwt>
<pdfrwt beam="1">  1        2 0.10675068E+00 0.88824174E+03</pdfrwt>
<pdfrwt beam="2">  1       -2 0.36468779E+00 0.88824174E+03</pdfrwt>
<totfact> 0.53708443E-01</totfact>
</mgrwt>
</event>
<event>
 4    1  0.2051094E-007  0.1281828E+04  0.7818608E-02  0.9081413E-01
          2   -1    0    0  501    0  0.00000000000E+00  0.00000000000E+00  0.12803023256E+04  0.12803023256E+04  0.25500000000E-02 0. -1.
         -2   -1    0    0    0  501 -0.00000000000E+00 -0.00000000000E+00 -0.12802703430E+04  0.12802703430E+04  0.25500000000E-02 0.  1.
    8880023    1    1    2    0    0 -0.57037751620E+03 -0.94018243453E+03  0.45573771624E+03  0.13604339725E+04  0.65864270000E+03 0.  0.
    8880022    1    1    2    0    0  0.57037751620E+03  0.94018243453E+03 -0.45570573366E+03  0.12001386961E+04  0.15294330000E+03 0.  0.
<mgrwt>
<rscale>  0 0.12365965E+04</rscale>
<asrwt>0</asrwt>
<pdfrwt beam="1">  1        2 0.19696959E+00 0.12818283E+04</pdfrwt>
<pdfrwt beam="2">  1       -2 0.19696467E+00 0.12818283E+04</pdfrwt>
<totfact> 0.22767898E+00</totfact>
</mgrwt>
</event>
<event>
 4    1  0.2051094E-007  0.1128899E+04  0.7818608E-02  0.9229542E-01
          2   -1    0    0  501    0  0.00000000000E+00  0.00000000000E+00  0.20599881639E+04  0.20599881639E+04  0.25500000000E-02 0. -1.
         -2   -1    0    0    0  501 -0.00000000000E+00 -0.00000000000E+00 -0.65154443221E+03  0.65154443221E+03  0.25500000000E-02 0.  1.
    8880023    1    1    2    0    0 -0.70953708883E+03 -0.58065550599E+03  0.13781962232E+04  0.17815270790E+04  0.65864270000E+03 0. -1.
    8880022    1    1    2    0    0  0.70953708883E+03  0.58065550599E+03  0.30247508398E+02  0.93000551710E+03  0.15294330000E+03 0.  0.
<mgrwt>
<rscale>  0 0.10753637E+04</rscale>
<asrwt>0</asrwt>
<pdfrwt beam="1">  1        2 0.31692126E+00 0.11288994E+04</pdfrwt>
<pdfrwt beam="2">  1       -2 0.10023761E+00 0.11288994E+04</pdfrwt>
<totfact> 0.50129798E+00</totfact>
</mgrwt>
</event>
<event>
 4    1  0.2051094E-007  0.1651759E+04  0.7818608E-02  0.8809299E-01
         -2   -1    0    0    0  501 -0.00000000000E+00  0.00000000000E+00  0.18712239147E+04  0.18712239147E+04  0.25500000000E-02 0.  1.
          2   -1    0    0  501    0  0.00000000000E+00 -0.00000000000E+00 -0.17423994609E+04  0.17423994609E+04  0.25500000000E-02 0. -1.
    8880023    1    1    2    0    0  0.10197847980E+04  0.11200604114E+04 -0.79466093747E+03  0.18329736963E+04  0.65864270000E+03 0.  0.
    8880022    1    1    2    0    0 -0.10197847980E+04 -0.11200604114E+04  0.92348539127E+03  0.17806496793E+04  0.15294330000E+03 0.  0.
<mgrwt>
<rscale>  0 0.16184396E+04</rscale>
<asrwt>0</asrwt>
<pdfrwt beam="1">  1        2 0.26806146E+00 0.16517586E+04</pdfrwt>
<pdfrwt beam="2">  1       -2 0.28788060E+00 0.16517586E+04</pdfrwt>
<totfact> 0.32351948E-01</totfact>
</mgrwt>
</event>
<event>
 4    1  0.2051094E-007  0.2002680E+04  0.7818608E-02  0.8618002E-01
         -2   -1    0    0    0  501 -0.00000000000E+00  0.00000000000E+00  0.17229704640E+04  0.17229704640E+04  0.25500000000E-02 0.  1.
          2   -1    0    0  501    0  0.00000000000E+00 -0.00000000000E+00 -0.29254730160E+04  0.29254730160E+04  0.25500000000E-02 0. -1.
    8880023    1    1    2    0    0  0.17897193425E+04  0.61140947188E+03 -0.17649229317E+04  0.26693969409E+04  0.65864270000E+03 0.  0.
    8880022    1    1    2    0    0 -0.17897193425E+04 -0.61140947188E+03  0.56242037963E+03  0.19790465391E+04  0.15294330000E+03 0.  0.
<mgrwt>
<rscale>  0 0.19758371E+04</rscale>
<asrwt>0</asrwt>
<pdfrwt beam="1">  1        2 0.45007277E+00 0.20026800E+04</pdfrwt>
<pdfrwt beam="2">  1       -2 0.26507238E+00 0.20026800E+04</pdfrwt>
<totfact> 0.89261358E-02</totfact>
</mgrwt>
</event>
<event>
 4    1  0.2051094E-007  0.1021433E+04  0.7818608E-02  0.9354038E-01
          2   -1    0    0  501    0  0.00000000000E+00  0.00000000000E+00  0.35153768805E+04  0.35153768805E+04  0.25500000000E-02 0. -1.
         -2   -1    0    0    0  501 -0.00000000000E+00 -0.00000000000E+00 -0.60861193799E+03  0.60861193799E+03  0.25500000000E-02 0.  1.
    8880023    1    1    2    0    0 -0.64711934652E+03  0.43675163677E+03  0.31342978918E+04  0.32965358972E+04  0.65864270000E+03 0.  0.
    8880022    1    1    2    0    0  0.64711934652E+03 -0.43675163677E+03 -0.22753294930E+03  0.82745292126E+03  0.15294330000E+03 0.  0.
<mgrwt>
<rscale>  0 0.95956622E+03</rscale>
<asrwt>0</asrwt>
<pdfrwt beam="1">  1        2 0.54082721E+00 0.10214331E+04</pdfrwt>
<pdfrwt beam="2">  1       -2 0.93632606E-01 0.10214331E+04</pdfrwt>
<totfact> 0.78794495E-01</totfact>
</mgrwt>
</event>
<event>
 4    1  0.2051094E-007  0.6735867E+03  0.7818608E-02  0.1013212E+00
          2   -1    0    0  501    0  0.00000000000E+00  0.00000000000E+00  0.10151164032E+04  0.10151164032E+04  0.25500000000E-02 0. -1.
         -2   -1    0    0    0  501 -0.00000000000E+00 -0.00000000000E+00 -0.83960161342E+03  0.83960161343E+03  0.25500000000E-02 0.  1.
    8880023    1    1    2    0    0 -0.11863249986E+03  0.76388422674E+02  0.88680379755E+03  0.11136157518E+04  0.65864270000E+03 0. -1.
    8880022    1    1    2    0    0  0.11863249986E+03 -0.76388422674E+02 -0.71128900782E+03  0.74110226474E+03  0.15294330000E+03 0.  0.
<mgrwt>
<rscale>  0 0.50217694E+03</rscale>
<asrwt>0</asrwt>
<pdfrwt beam="1">  1        2 0.15617175E+00 0.67358672E+03</pdfrwt>
<pdfrwt beam="2">  1       -2 0.12916948E+00 0.67358672E+03</pdfrwt>
<totfact> 0.11168646E+01</totfact>
</mgrwt>
</event>
<event>
 4    1  0.2112606E-007  0.9358776E+03  0.7818608E-02  0.9470731E-01
          2   -1    0    0  501    0  0.00000000000E+00  0.00000000000E+00  0.17696968521E+04  0.17696968521E+04  0.25500000000E-02 0. -1.
         -2   -1    0    0    0  501 -0.00000000000E+00 -0.00000000000E+00 -0.10799474405E+04  0.10799474405E+04  0.25500000000E-02 0.  1.
    8880023    1    1    2    0    0  0.61488061953E+03 -0.25293979449E+03  0.15138570143E+04  0.17797836897E+04  0.65864270000E+03 0. -1.
    8880022    1    1    2    0    0 -0.61488061953E+03  0.25293979449E+03 -0.82410760274E+03  0.10698606030E+04  0.15294330000E+03 0.  0.
<mgrwt>
<rscale>  0 0.86476526E+03</rscale>
<asrwt>0</asrwt>
<pdfrwt beam="1">  1        2 0.27226105E+00 0.93587762E+03</pdfrwt>
<pdfrwt beam="2">  1       -2 0.16614576E+00 0.93587762E+03</pdfrwt>
<totfact> 0.20448273E+00</totfact>
</mgrwt>
</event>
<event>
 4    1  0.2051094E-007  0.8362756E+03  0.7818608E-02  0.9637243E-01
         -2   -1    0    0    0  501 -0.00000000000E+00  0.00000000000E+00  0.19833268385E+03  0.19833268387E+03  0.25500000000E-02 0.  1.
          2   -1    0    0  501    0  0.00000000000E+00 -0.00000000000E+00 -0.34665076115E+04  0.34665076115E+04  0.25500000000E-02 0. -1.
    8880023    1    1    2    0    0 -0.37642360725E+03 -0.35192600499E+03 -0.28875093493E+04  0.30061715011E+04  0.65864270000E+03 0. -1.
    8880022    1    1    2    0    0  0.37642360725E+03  0.35192600499E+03 -0.38066557836E+03  0.65866879434E+03  0.15294330000E+03 0. -1.
<mgrwt>
<rscale>  0 0.74879460E+03</rscale>
<asrwt>0</asrwt>
<pdfrwt beam="1">  1        2 0.53330882E+00 0.83627558E+03</pdfrwt>
<pdfrwt beam="2">  1       -2 0.30512723E-01 0.83627558E+03</pdfrwt>
<totfact> 0.90513919E+00</totfact>
</mgrwt>
</event>
<event>
 4    1  0.2051094E-007  0.6800104E+03  0.7818608E-02  0.1009318E+00
         -2   -1    0    0    0  501 -0.00000000000E+00  0.00000000000E+00  0.52556223453E+03  0.52556223454E+03  0.25500000000E-02 0.  1.
          2   -1    0    0  501    0  0.00000000000E+00 -0.00000000000E+00 -0.10087894352E+04  0.10087894352E+04  0.25500000000E-02 0. -1.
    8880023    1    1    2    0    0 -0.15983264113E+03  0.55294403838E+02 -0.85852751774E+03  0.10952094089E+04  0.65864270000E+03 0. -1.
    8880022    1    1    2    0    0  0.15983264113E+03 -0.55294403838E+02  0.37530031708E+03  0.43914226087E+03  0.15294330000E+03 0.  0.
<mgrwt>
<rscale>  0 0.51746680E+03</rscale>
<asrwt>0</asrwt>
<pdfrwt beam="1">  1        2 0.15519837E+00 0.68001040E+03</pdfrwt>
<pdfrwt beam="2">  1       -2 0.80855728E-01 0.68001040E+03</pdfrwt>
<totfact> 0.34331994E+01</totfact>
</mgrwt>
</event>
<event>
 4    1  0.2051094E-007  0.6604871E+03  0.7818608E-02  0.1023663E+00
          2   -1    0    0  501    0  0.00000000000E+00  0.00000000000E+00  0.17010569629E+04  0.17010569629E+04  0.25500000000E-02 0. -1.
         -2   -1    0    0    0  501 -0.00000000000E+00 -0.00000000000E+00 -0.51205850806E+03  0.51205850806E+03  0.25500000000E-02 0.  1.
    8880023    1    1    2    0    0  0.46241994754E+02 -0.17167293169E+02  0.16219643178E+04  0.17512885235E+04  0.65864270000E+03 0. -1.
    8880022    1    1    2    0    0 -0.46241994754E+02  0.17167293169E+02 -0.43296586289E+03  0.46182694754E+03  0.15294330000E+03 0.  0.
<mgrwt>
<rscale>  0 0.46387681E+03</rscale>
<asrwt>0</asrwt>
<pdfrwt beam="1">  1        2 0.26170106E+00 0.66048713E+03</pdfrwt>
<pdfrwt beam="2">  1       -2 0.78778234E-01 0.66048713E+03</pdfrwt>
<totfact> 0.14597705E+01</totfact>
</mgrwt>
</event>
<event>
 4    1  0.2051094E-007  0.6792611E+03  0.7818608E-02  0.1009745E+00
          2   -1    0    0  501    0  0.00000000000E+00  0.00000000000E+00  0.30829264014E+04  0.30829264014E+04  0.25500000000E-02 0. -1.
         -2   -1    0    0    0  501 -0.00000000000E+00 -0.00000000000E+00 -0.16012130742E+03  0.16012130744E+03  0.25500000000E-02 0.  1.
    8880023    1    1    2    0    0 -0.11957791724E+03  0.11526759908E+03  0.29392028265E+04  0.30166718348E+04  0.65864270000E+03 0. -1.
    8880022    1    1    2    0    0  0.11957791724E+03 -0.11526759908E+03 -0.16397732479E+02  0.22637587401E+03  0.15294330000E+03 0.  0.
<mgrwt>
<rscale>  0 0.51576222E+03</rscale>
<asrwt>0</asrwt>
<pdfrwt beam="1">  1        2 0.47429638E+00 0.67926115E+03</pdfrwt>
<pdfrwt beam="2">  1       -2 0.24634046E-01 0.67926115E+03</pdfrwt>
<totfact> 0.24396420E+01</totfact>
</mgrwt>
</event>
<event>
 4    1  0.2051094E-007  0.7904682E+03  0.7818608E-02  0.9731798E-01
          2   -1    0    0  501    0  0.00000000000E+00  0.00000000000E+00  0.11022541909E+04  0.11022541909E+04  0.25500000000E-02 0. -1.
         -2   -1    0    0    0  501 -0.00000000000E+00 -0.00000000000E+00 -0.12639665343E+04  0.12639665343E+04  0.25500000000E-02 0.  1.
    8880023    1    1    2    0    0  0.28245524847E+03 -0.33353990469E+03  0.90603455171E+03  0.12023887269E+04  0.65864270000E+03 0.  0.
    8880022    1    1    2    0    0 -0.28245524847E+03  0.33353990469E+03 -0.10677468951E+04  0.11638319983E+04  0.15294330000E+03 0.  0.
<mgrwt>
<rscale>  0 0.69154725E+03</rscale>
<asrwt>0</asrwt>
<pdfrwt beam="1">  1        2 0.16957757E+00 0.79046824E+03</pdfrwt>
<pdfrwt beam="2">  1       -2 0.19445639E+00 0.79046824E+03</pdfrwt>
<totfact> 0.32013157E+00</totfact>
</mgrwt>
</event>
<event>
 4    1  0.2051094E-007  0.9914638E+03  0.7818608E-02  0.9392812E-01
          2   -1    0    0  501    0  0.00000000000E+00  0.00000000000E+00  0.39930655345E+03  0.39930655346E+03  0.25500000000E-02 0. -1.
         -2   -1    0    0    0  501 -0.00000000000E+00 -0.00000000000E+00 -0.21573801256E+04  0.21573801256E+04  0.25500000000E-02 0.  1.
    8880023    1    1    2    0    0 -0.52219260240E+03 -0.52583758962E+03 -0.55724648301E+03  0.11373320244E+04  0.65864270000E+03 0. -1.
    8880022    1    1    2    0    0  0.52219260240E+03  0.52583758962E+03 -0.12008270891E+04  0.14193546546E+04  0.15294330000E+03 0.  0.
<mgrwt>
<rscale>  0 0.92669614E+03</rscale>
<asrwt>0</asrwt>
<pdfrwt beam="1">  1        2 0.61431779E-01 0.99146381E+03</pdfrwt>
<pdfrwt beam="2">  1       -2 0.33190463E+00 0.99146381E+03</pdfrwt>
<totfact> 0.16323816E+00</totfact>
</mgrwt>
</event>
<event>
 4    1  0.2051094E-007  0.1007620E+04  0.7818608E-02  0.9371656E-01
          2   -1    0    0  501    0  0.00000000000E+00  0.00000000000E+00  0.18659689708E+04  0.18659689708E+04  0.25500000000E-02 0. -1.
         -2   -1    0    0    0  501 -0.00000000000E+00 -0.00000000000E+00 -0.66929016917E+03  0.66929016917E+03  0.25500000000E-02 0.  1.
    8880023    1    1    2    0    0  0.13222064490E+03  0.75100239448E+03  0.14060609968E+04  0.17298279187E+04  0.65864270000E+03 0.  0.
    8880022    1    1    2    0    0 -0.13222064490E+03 -0.75100239448E+03 -0.20938219518E+03  0.80543122123E+03  0.15294330000E+03 0.  0.
<mgrwt>
<rscale>  0 0.94445431E+03</rscale>
<asrwt>0</asrwt>
<pdfrwt beam="1">  1        2 0.28707215E+00 0.10076195E+04</pdfrwt>
<pdfrwt beam="2">  1       -2 0.10296772E+00 0.10076195E+04</pdfrwt>
<totfact> 0.60958850E+00</totfact>
</mgrwt>
</event>
<event>
 4    1  0.2051094E-007  0.7972719E+03  0.7818608E-02  0.9716726E-01
         -2   -1    0    0    0  501 -0.00000000000E+00  0.00000000000E+00  0.47323823427E+03  0.47323823427E+03  0.25500000000E-02 0.  1.
          2   -1    0    0  501    0  0.00000000000E+00 -0.00000000000E+00 -0.17683242345E+04  0.17683242345E+04  0.25500000000E-02 0. -1.
    8880023    1    1    2    0    0 -0.41699310130E+03  0.16717943774E+03 -0.15199864705E+04  0.17163919388E+04  0.65864270000E+03 0.  0.
    8880022    1    1    2    0    0  0.41699310130E+03 -0.16717943774E+03  0.22490047029E+03  0.52517052991E+03  0.15294330000E+03 0.  0.
<mgrwt>
<rscale>  0 0.70029597E+03</rscale>
<asrwt>0</asrwt>
<pdfrwt beam="1">  1        2 0.27204988E+00 0.79727186E+03</pdfrwt>
<pdfrwt beam="2">  1       -2 0.72805883E-01 0.79727186E+03</pdfrwt>
<totfact> 0.15677304E+01</totfact>
</mgrwt>
</event>
<event>
 4    1  0.2051094E-007  0.2039828E+04  0.7818608E-02  0.8600326E-01
         -2   -1    0    0    0  501 -0.00000000000E+00  0.00000000000E+00  0.24499841381E+04  0.24499841381E+04  0.25500000000E-02 0.  1.
          2   -1    0    0  501    0  0.00000000000E+00 -0.00000000000E+00 -0.24678414282E+04  0.24678414282E+04  0.25500000000E-02 0. -1.
    8880023    1    1    2    0    0  0.25348078911E+02 -0.19303999518E+04 -0.14555426546E+04  0.25058932788E+04  0.65864270000E+03 0.  0.
    8880022    1    1    2    0    0 -0.25348078911E+02  0.19303999518E+04  0.14376853646E+04  0.24119322875E+04  0.15294330000E+03 0.  0.
<mgrwt>
<rscale>  0 0.20135199E+04</rscale>
<asrwt>0</asrwt>
<pdfrwt beam="1">  1        2 0.37966791E+00 0.20398276E+04</pdfrwt>
<pdfrwt beam="2">  1       -2 0.37692063E+00 0.20398276E+04</pdfrwt>
<totfact> 0.33491215E-02</totfact>
</mgrwt>
</event>
<event>
 4    1  0.2051094E-007  0.9214412E+03  0.7818608E-02  0.9492453E-01
          2   -1    0    0  501    0  0.00000000000E+00  0.00000000000E+00  0.10187104992E+04  0.10187104992E+04  0.25500000000E-02 0. -1.
         -2   -1    0    0    0  501 -0.00000000000E+00 -0.00000000000E+00 -0.11232492585E+04  0.11232492585E+04  0.25500000000E-02 0.  1.
    8880023    1    1    2    0    0  0.16145399021E+03  0.62383990989E+03  0.65777334061E+03  0.11321305570E+04  0.65864270000E+03 0.  0.
    8880022    1    1    2    0    0 -0.16145399021E+03 -0.62383990989E+03 -0.76231209986E+03  0.10098292008E+04  0.15294330000E+03 0.  0.
<mgrwt>
<rscale>  0 0.84842539E+03</rscale>
<asrwt>0</asrwt>
<pdfrwt beam="1">  1        2 0.15672469E+00 0.92144117E+03</pdfrwt>
<pdfrwt beam="2">  1       -2 0.17280758E+00 0.92144117E+03</pdfrwt>
<totfact> 0.49858888E+00</totfact>
</mgrwt>
</event>
<event>
 4    1  0.2051094E-007  0.1345063E+04  0.7818608E-02  0.9027591E-01
         -2   -1    0    0    0  501 -0.00000000000E+00  0.00000000000E+00  0.13528254748E+04  0.13528254748E+04  0.25500000000E-02 0.  1.
          2   -1    0    0  501    0  0.00000000000E+00 -0.00000000000E+00 -0.20855669568E+04  0.20855669568E+04  0.25500000000E-02 0. -1.
    8880023    1    1    2    0    0  0.11677044481E+04  0.10885424653E+03 -0.15107344375E+04  0.20227485439E+04  0.65864270000E+03 0. -1.
    8880022    1    1    2    0    0 -0.11677044481E+04 -0.10885424653E+03  0.77799295541E+03  0.14156438877E+04  0.15294330000E+03 0.  0.
<mgrwt>
<rscale>  0 0.13024928E+04</rscale>
<asrwt>0</asrwt>
<pdfrwt beam="1">  1        2 0.32085646E+00 0.13450625E+04</pdfrwt>
<pdfrwt beam="2">  1       -2 0.20812700E+00 0.13450625E+04</pdfrwt>
<totfact> 0.67292266E-01</totfact>
</mgrwt>
</event>
<event>
 4    1  0.2051094E-007  0.9649933E+03  0.7818608E-02  0.9428862E-01
         -2   -1    0    0    0  501 -0.00000000000E+00  0.00000000000E+00  0.55773140157E+03  0.55773140158E+03  0.25500000000E-02 0.  1.
          2   -1    0    0  501    0  0.00000000000E+00 -0.00000000000E+00 -0.27181146510E+04  0.27181146510E+04  0.25500000000E-02 0. -1.
    8880023    1    1    2    0    0 -0.66914982706E+03 -0.22280114264E+03 -0.23408579068E+04  0.25319612529E+04  0.65864270000E+03 0. -1.
    8880022    1    1    2    0    0  0.66914982706E+03  0.22280114264E+03  0.18047465735E+03  0.74388479967E+03  0.15294330000E+03 0.  0.
<mgrwt>
<rscale>  0 0.89738006E+03</rscale>
<asrwt>0</asrwt>
<pdfrwt beam="1">  1        2 0.41817148E+00 0.96499329E+03</pdfrwt>
<pdfrwt beam="2">  1       -2 0.85804833E-01 0.96499329E+03</pdfrwt>
<totfact> 0.31139119E+00</totfact>
</mgrwt>
</event>
<event>
 4    1  0.2051094E-007  0.1442597E+04  0.7818608E-02  0.8951271E-01
          2   -1    0    0  501    0  0.00000000000E+00  0.00000000000E+00  0.13045374608E+04  0.13045374608E+04  0.25500000000E-02 0. -1.
         -2   -1    0    0    0  501 -0.00000000000E+00 -0.00000000000E+00 -0.41851635662E+04  0.41851635662E+04  0.25500000000E-02 0.  1.
    8880023    1    1    2    0    0 -0.11414184125E+04 -0.58689033550E+03  0.75707815719E+03  0.16291880802E+04  0.65864270000E+03 0.  0.
    8880022    1    1    2    0    0  0.11414184125E+04  0.58689033550E+03 -0.36377042625E+04  0.38605129468E+04  0.15294330000E+03 0.  0.
<mgrwt>
<rscale>  0 0.14035247E+04</rscale>
<asrwt>0</asrwt>
<pdfrwt beam="1">  1        2 0.20069807E+00 0.14425971E+04</pdfrwt>
<pdfrwt beam="2">  1       -2 0.64387131E+00 0.14425971E+04</pdfrwt>
<totfact> 0.53323466E-03</totfact>
</mgrwt>
</event>
<event>
 4    1  0.2051094E-007  0.7800192E+03  0.7818608E-02  0.9755792E-01
          2   -1    0    0  501    0  0.00000000000E+00  0.00000000000E+00  0.23901740083E+04  0.23901740083E+04  0.25500000000E-02 0. -1.
         -2   -1    0    0    0  501 -0.00000000000E+00 -0.00000000000E+00 -0.26970286900E+03  0.26970286901E+03  0.25500000000E-02 0.  1.
    8880023    1    1    2    0    0 -0.34043896493E+03 -0.24232427413E+03  0.20699414321E+04  0.22120324322E+04  0.65864270000E+03 0.  0.
    8880022    1    1    2    0    0  0.34043896493E+03  0.24232427413E+03  0.50529707227E+02  0.44784444510E+03  0.15294330000E+03 0.  0.
<mgrwt>
<rscale>  0 0.67789939E+03</rscale>
<asrwt>0</asrwt>
<pdfrwt beam="1">  1        2 0.36771908E+00 0.78001920E+03</pdfrwt>
<pdfrwt beam="2">  1       -2 0.41492749E-01 0.78001920E+03</pdfrwt>
<totfact> 0.23002075E+01</totfact>
</mgrwt>
</event>
<event>
 4    1  0.3231520E-007  0.8678225E+03  0.7818608E-02  0.9579797E-01
          2   -1    0    0  501    0  0.00000000000E+00  0.00000000000E+00  0.18160222324E+04  0.18160222324E+04  0.25500000000E-02 0. -1.
         -2   -1    0    0    0  501 -0.00000000000E+00 -0.00000000000E+00 -0.12050601218E+04  0.12050601218E+04  0.25500000000E-02 0.  1.
    8880023    1    1    2    0    0  0.55731174937E+03 -0.93323487510E+02  0.16295669606E+04  0.18462405978E+04  0.65864270000E+03 0. -1.
    8880022    1    1    2    0    0 -0.55731174937E+03  0.93323487510E+02 -0.10186048500E+04  0.11748417565E+04  0.15294330000E+03 0.  0.
<mgrwt>
<rscale>  0 0.78647878E+03</rscale>
<asrwt>0</asrwt>
<pdfrwt beam="1">  1        2 0.27938804E+00 0.86782249E+03</pdfrwt>
<pdfrwt beam="2">  1       -2 0.18539386E+00 0.86782249E+03</pdfrwt>
<totfact> 0.14299397E+00</totfact>
</mgrwt>
</event>
<event>
 4    1  0.2051094E-007  0.8352576E+03  0.7818608E-02  0.9639188E-01
         -2   -1    0    0    0  501 -0.00000000000E+00  0.00000000000E+00  0.20131387721E+03  0.20131387722E+03  0.25500000000E-02 0.  1.
          2   -1    0    0  501    0  0.00000000000E+00 -0.00000000000E+00 -0.28117489588E+04  0.28117489588E+04  0.25500000000E-02 0. -1.
    8880023    1    1    2    0    0 -0.26493327123E+03  0.44006304623E+03 -0.21498196248E+04  0.23063780584E+04  0.65864270000E+03 0. -1.
    8880022    1    1    2    0    0  0.26493327123E+03 -0.44006304623E+03 -0.46061545677E+03  0.70668477760E+03  0.15294330000E+03 0.  0.
<mgrwt>
<rscale>  0 0.74755878E+03</rscale>
<asrwt>0</asrwt>
<pdfrwt beam="1">  1        2 0.43257674E+00 0.83525764E+03</pdfrwt>
<pdfrwt beam="2">  1       -2 0.30971368E-01 0.83525764E+03</pdfrwt>
<totfact> 0.22843876E+01</totfact>
</mgrwt>
</event>
<event>
 4    1  0.2051094E-007  0.1164137E+04  0.7818608E-02  0.9192797E-01
         -2   -1    0    0    0  501 -0.00000000000E+00  0.00000000000E+00  0.13014730784E+04  0.13014730784E+04  0.25500000000E-02 0.  1.
          2   -1    0    0  501    0  0.00000000000E+00 -0.00000000000E+00 -0.20600792721E+04  0.20600792721E+04  0.25500000000E-02 0. -1.
    8880023    1    1    2    0    0 -0.95260692205E+03 -0.11808907187E+03 -0.16656009608E+04  0.20321027886E+04  0.65864270000E+03 0.  0.
    8880022    1    1    2    0    0  0.95260692205E+03  0.11808907187E+03  0.90699476713E+03  0.13294495618E+04  0.15294330000E+03 0.  0.
<mgrwt>
<rscale>  0 0.11128084E+04</rscale>
<asrwt>0</asrwt>
<pdfrwt beam="1">  1        2 0.31693527E+00 0.11641371E+04</pdfrwt>
<pdfrwt beam="2">  1       -2 0.20022663E+00 0.11641371E+04</pdfrwt>
<totfact> 0.80043070E-01</totfact>
</mgrwt>
</event>
<event>
 4    1  0.2051094E-007  0.7223058E+03  0.7818608E-02  0.9914860E-01
         -2   -1    0    0    0  501 -0.00000000000E+00  0.00000000000E+00  0.42103119467E+03  0.42103119468E+03  0.25500000000E-02 0.  1.
          2   -1    0    0  501    0  0.00000000000E+00 -0.00000000000E+00 -0.68401678959E+03  0.68401678960E+03  0.25500000000E-02 0. -1.
    8880023    1    1    2    0    0  0.16953348796E+03  0.24325670360E+03 -0.86070402565E+02  0.72741580121E+03  0.65864270000E+03 0.  1.
    8880022    1    1    2    0    0 -0.16953348796E+03 -0.24325670360E+03 -0.17691519236E+03  0.37763218307E+03  0.15294330000E+03 0.  0.
<mgrwt>
<rscale>  0 0.59546490E+03</rscale>
<asrwt>0</asrwt>
<pdfrwt beam="1">  1        2 0.10523335E+00 0.72230578E+03</pdfrwt>
<pdfrwt beam="2">  1       -2 0.64774030E-01 0.72230578E+03</pdfrwt>
<totfact> 0.94064446E+01</totfact>
</mgrwt>
</event>
<event>
 4    1  0.2051094E-007  0.7124611E+03  0.7818608E-02  0.9948973E-01
          2   -1    0    0  501    0  0.00000000000E+00  0.00000000000E+00  0.16772460233E+04  0.16772460233E+04  0.25500000000E-02 0. -1.
         -2   -1    0    0    0  501 -0.00000000000E+00 -0.00000000000E+00 -0.23597830856E+03  0.23597830858E+03  0.25500000000E-02 0.  1.
    8880023    1    1    2    0    0 -0.15602948008E+03  0.22236316523E+03  0.14341867665E+04  0.16014032794E+04  0.65864270000E+03 0. -1.
    8880022    1    1    2    0    0  0.15602948008E+03 -0.22236316523E+03  0.70809482291E+01  0.31182105244E+03  0.15294330000E+03 0.  0.
<mgrwt>
<rscale>  0 0.57945433E+03</rscale>
<asrwt>0</asrwt>
<pdfrwt beam="1">  1        2 0.25803785E+00 0.71246107E+03</pdfrwt>
<pdfrwt beam="2">  1       -2 0.36304356E-01 0.71246107E+03</pdfrwt>
<totfact> 0.74001554E+01</totfact>
</mgrwt>
</event>
<event>
 4    1  0.2051094E-007  0.8302487E+03  0.7818608E-02  0.9648849E-01
         -2   -1    0    0    0  501 -0.00000000000E+00  0.00000000000E+00  0.17733288479E+04  0.17733288479E+04  0.25500000000E-02 0.  1.
          2   -1    0    0  501    0  0.00000000000E+00 -0.00000000000E+00 -0.10343390549E+04  0.10343390549E+04  0.25500000000E-02 0. -1.
    8880023    1    1    2    0    0 -0.13674464557E+02  0.50528766801E+03 -0.81680726678E+03  0.11646831912E+04  0.65864270000E+03 0. -1.
    8880022    1    1    2    0    0  0.13674464557E+02 -0.50528766801E+03  0.15557970598E+04  0.16429847116E+04  0.15294330000E+03 0.  0.
<mgrwt>
<rscale>  0 0.74145719E+03</rscale>
<asrwt>0</asrwt>
<pdfrwt beam="1">  1        2 0.15912909E+00 0.83024865E+03</pdfrwt>
<pdfrwt beam="2">  1       -2 0.27281982E+00 0.83024865E+03</pdfrwt>
<totfact> 0.11440316E+00</totfact>
</mgrwt>
</event>
<event>
 4    1  0.2051094E-007  0.8188484E+03  0.7818608E-02  0.9671433E-01
          2   -1    0    0  501    0  0.00000000000E+00  0.00000000000E+00  0.12373199991E+04  0.12373199991E+04  0.25500000000E-02 0. -1.
         -2   -1    0    0    0  501 -0.00000000000E+00 -0.00000000000E+00 -0.39156556224E+03  0.39156556224E+03  0.25500000000E-02 0.  1.
    8880023    1    1    2    0    0 -0.15580934035E+03  0.46089683826E+03  0.74912003953E+03  0.11098168705E+04  0.65864270000E+03 0.  0.
    8880022    1    1    2    0    0  0.15580934035E+03 -0.46089683826E+03  0.96634397287E+02  0.51906869084E+03  0.15294330000E+03 0. -1.
<mgrwt>
<rscale>  0 0.72743456E+03</rscale>
<asrwt>0</asrwt>
<pdfrwt beam="1">  1        2 0.19035692E+00 0.81884837E+03</pdfrwt>
<pdfrwt beam="2">  1       -2 0.60240856E-01 0.81884837E+03</pdfrwt>
<totfact> 0.46762868E+01</totfact>
</mgrwt>
</event>
<event>
 4    1  0.2051094E-007  0.1240004E+04  0.7818608E-02  0.9119184E-01
          2   -1    0    0  501    0  0.00000000000E+00  0.00000000000E+00  0.23975169957E+04  0.23975169957E+04  0.25500000000E-02 0. -1.
         -2   -1    0    0    0  501 -0.00000000000E+00 -0.00000000000E+00 -0.10191279363E+04  0.10191279363E+04  0.25500000000E-02 0.  1.
    8880023    1    1    2    0    0  0.10505791481E+04 -0.90644710830E+01  0.18723003107E+04  0.22456886184E+04  0.65864270000E+03 0.  0.
    8880022    1    1    2    0    0 -0.10505791481E+04  0.90644710830E+01 -0.49391125130E+03  0.11709563136E+04  0.15294330000E+03 0.  0.
<mgrwt>
<rscale>  0 0.11927979E+04</rscale>
<asrwt>0</asrwt>
<pdfrwt beam="1">  1        2 0.36884877E+00 0.12400036E+04</pdfrwt>
<pdfrwt beam="2">  1       -2 0.15678891E+00 0.12400036E+04</pdfrwt>
<totfact> 0.10310087E+00</totfact>
</mgrwt>
</event>
<event>
 4    1  0.2051094E-007  0.8157284E+03  0.7818608E-02  0.9677766E-01
          2   -1    0    0  501    0  0.00000000000E+00  0.00000000000E+00  0.19987586340E+04  0.19987586340E+04  0.25500000000E-02 0. -1.
         -2   -1    0    0    0  501 -0.00000000000E+00 -0.00000000000E+00 -0.50014526279E+03  0.50014526280E+03  0.25500000000E-02 0.  1.
    8880023    1    1    2    0    0  0.34746842515E+03  0.33296888668E+03  0.17529836406E+04  0.19334850495E+04  0.65864270000E+03 0. -1.
    8880022    1    1    2    0    0 -0.34746842515E+03 -0.33296888668E+03 -0.25437026939E+03  0.56541884735E+03  0.15294330000E+03 0.  0.
<mgrwt>
<rscale>  0 0.72356154E+03</rscale>
<asrwt>0</asrwt>
<pdfrwt beam="1">  1        2 0.30750132E+00 0.81572838E+03</pdfrwt>
<pdfrwt beam="2">  1       -2 0.76945428E-01 0.81572838E+03</pdfrwt>
<totfact> 0.10351531E+01</totfact>
</mgrwt>
</event>
<event>
 4    1  0.2051094E-007  0.1376065E+04  0.7818608E-02  0.9002507E-01
         -2   -1    0    0    0  501 -0.00000000000E+00  0.00000000000E+00  0.12869957109E+04  0.12869957109E+04  0.25500000000E-02 0.  1.
          2   -1    0    0  501    0  0.00000000000E+00 -0.00000000000E+00 -0.14271678655E+04  0.14271678655E+04  0.25500000000E-02 0. -1.
    8880023    1    1    2    0    0  0.10821680091E+04  0.53726888251E+03 -0.46713788886E+03  0.14531942284E+04  0.65864270000E+03 0.  0.
    8880022    1    1    2    0    0 -0.10821680091E+04 -0.53726888251E+03  0.32696573432E+03  0.12609693480E+04  0.15294330000E+03 0.  0.
<mgrwt>
<rscale>  0 0.13346793E+04</rscale>
<asrwt>0</asrwt>
<pdfrwt beam="1">  1        2 0.21956429E+00 0.13760653E+04</pdfrwt>
<pdfrwt beam="2">  1       -2 0.19799934E+00 0.13760653E+04</pdfrwt>
<totfact> 0.18252287E+00</totfact>
</mgrwt>
</event>
<event>
 4    1  0.2051094E-007  0.9226466E+03  0.7818608E-02  0.9490613E-01
         -2   -1    0    0    0  501 -0.00000000000E+00  0.00000000000E+00  0.14805105014E+04  0.14805105014E+04  0.25500000000E-02 0.  1.
          2   -1    0    0  501    0  0.00000000000E+00 -0.00000000000E+00 -0.21082751321E+04  0.21082751321E+04  0.25500000000E-02 0. -1.
    8880023    1    1    2    0    0 -0.64093892999E+03 -0.81632269741E+02 -0.19232202541E+04  0.21330852987E+04  0.65864270000E+03 0. -1.
    8880022    1    1    2    0    0  0.64093892999E+03  0.81632269741E+02  0.12954556235E+04  0.14557003348E+04  0.15294330000E+03 0.  0.
<mgrwt>
<rscale>  0 0.84979448E+03</rscale>
<asrwt>0</asrwt>
<pdfrwt beam="1">  1        2 0.32435002E+00 0.92264660E+03</pdfrwt>
<pdfrwt beam="2">  1       -2 0.22777084E+00 0.92264660E+03</pdfrwt>
<totfact> 0.52144732E-01</totfact>
</mgrwt>
</event>
<event>
 4    1  0.2051094E-007  0.9153974E+03  0.7818608E-02  0.9501753E-01
         -2   -1    0    0    0  501 -0.00000000000E+00  0.00000000000E+00  0.61546517407E+03  0.61546517408E+03  0.25500000000E-02 0.  1.
          2   -1    0    0  501    0  0.00000000000E+00 -0.00000000000E+00 -0.28662028718E+04  0.28662028718E+04  0.25500000000E-02 0. -1.
    8880023    1    1    2    0    0 -0.60313219489E+03 -0.20093216297E+03 -0.25885912417E+04  0.27456796976E+04  0.65864270000E+03 0. -1.
    8880022    1    1    2    0    0  0.60313219489E+03  0.20093216297E+03  0.33785354400E+03  0.73598834831E+03  0.15294330000E+03 0.  0.
<mgrwt>
<rscale>  0 0.84154736E+03</rscale>
<asrwt>0</asrwt>
<pdfrwt beam="1">  1        2 0.44095428E+00 0.91539739E+03</pdfrwt>
<pdfrwt beam="2">  1       -2 0.94686951E-01 0.91539739E+03</pdfrwt>
<totfact> 0.20399037E+00</totfact>
</mgrwt>
</event>
<event>
 4    1  0.2051094E-007  0.1056881E+04  0.7818608E-02  0.9310654E-01
          2   -1    0    0  501    0  0.00000000000E+00  0.00000000000E+00  0.15848441552E+04  0.15848441552E+04  0.25500000000E-02 0. -1.
         -2   -1    0    0    0  501 -0.00000000000E+00 -0.00000000000E+00 -0.67395999352E+03  0.67395999353E+03  0.25500000000E-02 0.  1.
    8880023    1    1    2    0    0 -0.52000934626E+03  0.64247832184E+03  0.94468340863E+03  0.14175419087E+04  0.65864270000E+03 0.  0.
    8880022    1    1    2    0    0  0.52000934626E+03 -0.64247832184E+03 -0.33799247001E+02  0.84126223994E+03  0.15294330000E+03 0.  0.
<mgrwt>
<rscale>  0 0.99807883E+03</rscale>
<asrwt>0</asrwt>
<pdfrwt beam="1">  1        2 0.24382217E+00 0.10568814E+04</pdfrwt>
<pdfrwt beam="2">  1       -2 0.10368615E+00 0.10568814E+04</pdfrwt>
<totfact> 0.85302010E+00</totfact>
</mgrwt>
</event>
<event>
 4    1  0.2051094E-007  0.7147751E+03  0.7818608E-02  0.9940679E-01
         -2   -1    0    0    0  501 -0.00000000000E+00  0.00000000000E+00  0.20839921096E+03  0.20839921097E+03  0.25500000000E-02 0.  1.
          2   -1    0    0  501    0  0.00000000000E+00 -0.00000000000E+00 -0.17078841485E+04  0.17078841485E+04  0.25500000000E-02 0. -1.
    8880023    1    1    2    0    0  0.24729591346E+03 -0.12624579332E+03 -0.14195794663E+04  0.15893738819E+04  0.65864270000E+03 0.  0.
    8880022    1    1    2    0    0 -0.24729591346E+03  0.12624579332E+03 -0.79905471220E+02  0.32690947752E+03  0.15294330000E+03 0.  0.
<mgrwt>
<rscale>  0 0.58329692E+03</rscale>
<asrwt>0</asrwt>
<pdfrwt beam="1">  1        2 0.26275140E+00 0.71477512E+03</pdfrwt>
<pdfrwt beam="2">  1       -2 0.32061418E-01 0.71477512E+03</pdfrwt>
<totfact> 0.90085274E+01</totfact>
</mgrwt>
</event>
<event>
 4    1  0.2051094E-007  0.7517480E+03  0.7818608E-02  0.9826959E-01
         -2   -1    0    0    0  501 -0.00000000000E+00  0.00000000000E+00  0.18275087896E+03  0.18275087898E+03  0.25500000000E-02 0.  1.
          2   -1    0    0  501    0  0.00000000000E+00 -0.00000000000E+00 -0.24943851978E+04  0.24943851978E+04  0.25500000000E-02 0. -1.
    8880023    1    1    2    0    0 -0.25678222276E+02 -0.36146286664E+03 -0.20999744508E+04  0.22304747646E+04  0.65864270000E+03 0.  0.
    8880022    1    1    2    0    0  0.25678222276E+02  0.36146286664E+03 -0.21165986799E+03  0.44666131218E+03  0.15294330000E+03 0.  0.
<mgrwt>
<rscale>  0 0.63935598E+03</rscale>
<asrwt>0</asrwt>
<pdfrwt beam="1">  1        2 0.38375154E+00 0.75174795E+03</pdfrwt>
<pdfrwt beam="2">  1       -2 0.28115522E-01 0.75174795E+03</pdfrwt>
<totfact> 0.42227669E+01</totfact>
</mgrwt>
</event>
<event>
 4    1  0.2051094E-007  0.6726519E+03  0.7818608E-02  0.1013829E+00
          2   -1    0    0  501    0  0.00000000000E+00  0.00000000000E+00  0.15385197359E+04  0.15385197359E+04  0.25500000000E-02 0. -1.
         -2   -1    0    0    0  501 -0.00000000000E+00 -0.00000000000E+00 -0.46849078969E+03  0.46849078970E+03  0.25500000000E-02 0.  1.
    8880023    1    1    2    0    0 -0.11211214045E+03 -0.77982461241E+02  0.14370005018E+04  0.15866414354E+04  0.65864270000E+03 0. -1.
    8880022    1    1    2    0    0  0.11211214045E+03  0.77982461241E+02 -0.36697155560E+03  0.42036909013E+03  0.15294330000E+03 0.  0.
<mgrwt>
<rscale>  0 0.49980808E+03</rscale>
<asrwt>0</asrwt>
<pdfrwt beam="1">  1        2 0.23669535E+00 0.67265192E+03</pdfrwt>
<pdfrwt beam="2">  1       -2 0.72075505E-01 0.67265192E+03</pdfrwt>
<totfact> 0.21785522E+01</totfact>
</mgrwt>
</event>
<event>
 4    1  0.2051094E-007  0.1061440E+04  0.7818608E-02  0.9305254E-01
          2   -1    0    0  501    0  0.00000000000E+00  0.00000000000E+00  0.25839663225E+04  0.25839663225E+04  0.25500000000E-02 0. -1.
         -2   -1    0    0    0  501 -0.00000000000E+00 -0.00000000000E+00 -0.39748356695E+03  0.39748356696E+03  0.25500000000E-02 0.  1.
    8880023    1    1    2    0    0 -0.67022449928E+03 -0.49360318847E+03  0.17031974449E+04  0.20068723750E+04  0.65864270000E+03 0. -1.
    8880022    1    1    2    0    0  0.67022449928E+03  0.49360318847E+03  0.48328531064E+03  0.97457751441E+03  0.15294330000E+03 0.  1.
<mgrwt>
<rscale>  0 0.10030064E+04</rscale>
<asrwt>0</asrwt>
<pdfrwt beam="1">  1        2 0.39753329E+00 0.10614402E+04</pdfrwt>
<pdfrwt beam="2">  1       -2 0.61151317E-01 0.10614402E+04</pdfrwt>
<totfact> 0.77798070E+00</totfact>
</mgrwt>
</event>
<event>
 4    1  0.2051094E-007  0.1078687E+04  0.7818608E-02  0.9285165E-01
         -2   -1    0    0    0  501 -0.00000000000E+00  0.00000000000E+00  0.26132088229E+04  0.26132088229E+04  0.25500000000E-02 0.  1.
          2   -1    0    0  501    0  0.00000000000E+00 -0.00000000000E+00 -0.18934625934E+04  0.18934625934E+04  0.25500000000E-02 0. -1.
    8880023    1    1    2    0    0  0.81447847948E+03  0.25764329297E+03 -0.16565875563E+04  0.19768277107E+04  0.65864270000E+03 0.  0.
    8880022    1    1    2    0    0 -0.81447847948E+03 -0.25764329297E+03  0.23763337858E+04  0.25298437056E+04  0.15294330000E+03 0.  0.
<mgrwt>
<rscale>  0 0.10216015E+04</rscale>
<asrwt>0</asrwt>
<pdfrwt beam="1">  1        2 0.29130194E+00 0.10786869E+04</pdfrwt>
<pdfrwt beam="2">  1       -2 0.40203213E+00 0.10786869E+04</pdfrwt>
<totfact> 0.55460866E-02</totfact>
</mgrwt>
</event>
<event>
 4    1  0.2051094E-007  0.1125256E+04  0.7818608E-02  0.9233444E-01
          2   -1    0    0  501    0  0.00000000000E+00  0.00000000000E+00  0.69729994182E+03  0.69729994183E+03  0.25500000000E-02 0. -1.
         -2   -1    0    0    0  501 -0.00000000000E+00 -0.00000000000E+00 -0.24240030014E+04  0.24240030014E+04  0.25500000000E-02 0.  1.
    8880023    1    1    2    0    0 -0.89587983898E+03  0.17260034584E+03  0.41180514157E+02  0.11260095942E+04  0.65864270000E+03 0.  0.
    8880022    1    1    2    0    0  0.89587983898E+03 -0.17260034584E+03 -0.17678835737E+04  0.19952933490E+04  0.15294330000E+03 0.  0.
<mgrwt>
<rscale>  0 0.10714800E+04</rscale>
<asrwt>0</asrwt>
<pdfrwt beam="1">  1        2 0.10727692E+00 0.11252563E+04</pdfrwt>
<pdfrwt beam="2">  1       -2 0.37292353E+00 0.11252563E+04</pdfrwt>
<totfact> 0.45694930E-01</totfact>
</mgrwt>
</event>
<event>
 4    1  0.2051094E-007  0.1220585E+04  0.7818608E-02  0.9137367E-01
          2   -1    0    0  501    0  0.00000000000E+00  0.00000000000E+00  0.30630779983E+04  0.30630779983E+04  0.25500000000E-02 0. -1.
         -2   -1    0    0    0  501 -0.00000000000E+00 -0.00000000000E+00 -0.73166024864E+03  0.73166024864E+03  0.25500000000E-02 0.  1.
    8880023    1    1    2    0    0  0.10028357771E+04  0.22436217142E+03  0.24616667421E+04  0.27476592466E+04  0.65864270000E+03 0.  0.
    8880022    1    1    2    0    0 -0.10028357771E+04 -0.22436217142E+03 -0.13024899249E+03  0.10470790003E+04  0.15294330000E+03 0.  0.
<mgrwt>
<rscale>  0 0.11723961E+04</rscale>
<asrwt>0</asrwt>
<pdfrwt beam="1">  1        2 0.47124276E+00 0.12205852E+04</pdfrwt>
<pdfrwt beam="2">  1       -2 0.11256312E+00 0.12205852E+04</pdfrwt>
<totfact> 0.97431877E-01</totfact>
</mgrwt>
</event>
<event>
 4    1  0.2051094E-007  0.1182456E+04  0.7818608E-02  0.9174368E-01
         -2   -1    0    0    0  501 -0.00000000000E+00  0.00000000000E+00  0.35564986669E+03  0.35564986670E+03  0.25500000000E-02 0.  1.
          2   -1    0    0  501    0  0.00000000000E+00 -0.00000000000E+00 -0.50449046993E+04  0.50449046993E+04  0.25500000000E-02 0. -1.
    8880023    1    1    2    0    0 -0.61721738245E+03 -0.76382913145E+03 -0.90798858025E+03  0.14908540195E+04  0.65864270000E+03 0. -1.
    8880022    1    1    2    0    0  0.61721738245E+03  0.76382913145E+03 -0.37812662524E+04  0.39097005465E+04  0.15294330000E+03 0.  0.
<mgrwt>
<rscale>  0 0.11321957E+04</rscale>
<asrwt>0</asrwt>
<pdfrwt beam="1">  1        2 0.77613913E+00 0.11824561E+04</pdfrwt>
<pdfrwt beam="2">  1       -2 0.54715368E-01 0.11824561E+04</pdfrwt>
<totfact> 0.10063536E-01</totfact>
</mgrwt>
</event>
<event>
 4    1  0.2051094E-007  0.1029030E+04  0.7818608E-02  0.9344525E-01
          2   -1    0    0  501    0  0.00000000000E+00  0.00000000000E+00  0.81903994313E+03  0.81903994313E+03  0.25500000000E-02 0. -1.
         -2   -1    0    0    0  501 -0.00000000000E+00 -0.00000000000E+00 -0.11912954600E+04  0.11912954600E+04  0.25500000000E-02 0.  1.
    8880023    1    1    2    0    0 -0.78962768929E+03  0.39763009906E+02 -0.57655098102E+03  0.11795398360E+04  0.65864270000E+03 0.  0.
    8880022    1    1    2    0    0  0.78962768929E+03 -0.39763009906E+02  0.20429546420E+03  0.83079556712E+03  0.15294330000E+03 0.  0.
<mgrwt>
<rscale>  0 0.96785112E+03</rscale>
<asrwt>0</asrwt>
<pdfrwt beam="1">  1        2 0.12600614E+00 0.10290302E+04</pdfrwt>
<pdfrwt beam="2">  1       -2 0.18327623E+00 0.10290302E+04</pdfrwt>
<totfact> 0.56847321E+00</totfact>
</mgrwt>
</event>
<event>
 4    1  0.2051094E-007  0.1043257E+04  0.7818608E-02  0.9327031E-01
          2   -1    0    0  501    0  0.00000000000E+00  0.00000000000E+00  0.35349784337E+04  0.35349784337E+04  0.25500000000E-02 0. -1.
         -2   -1    0    0    0  501 -0.00000000000E+00 -0.00000000000E+00 -0.35022661676E+03  0.35022661677E+03  0.25500000000E-02 0.  1.
    8880023    1    1    2    0    0  0.37294948386E+03  0.71797216318E+03  0.27767709364E+04  0.29662842723E+04  0.65864270000E+03 0.  0.
    8880022    1    1    2    0    0 -0.37294948386E+03 -0.71797216318E+03  0.40798088051E+03  0.91892077813E+03  0.15294330000E+03 0.  0.
<mgrwt>
<rscale>  0 0.98331940E+03</rscale>
<asrwt>0</asrwt>
<pdfrwt beam="1">  1        2 0.54384279E+00 0.10432572E+04</pdfrwt>
<pdfrwt beam="2">  1       -2 0.53881023E-01 0.10432572E+04</pdfrwt>
<totfact> 0.25696643E+00</totfact>
</mgrwt>
</event>
<event>
 4    1  0.2051094E-007  0.1084133E+04  0.7818608E-02  0.9278931E-01
         -2   -1    0    0    0  501 -0.00000000000E+00  0.00000000000E+00  0.10194322639E+04  0.10194322639E+04  0.25500000000E-02 0.  1.
          2   -1    0    0  501    0  0.00000000000E+00 -0.00000000000E+00 -0.15679114090E+04  0.15679114090E+04  0.25500000000E-02 0. -1.
    8880023    1    1    2    0    0 -0.25793891360E+03  0.82158465275E+03 -0.11071360570E+04  0.15495464755E+04  0.65864270000E+03 0.  0.
    8880022    1    1    2    0    0  0.25793891360E+03 -0.82158465275E+03  0.55865691187E+03  0.10377971974E+04  0.15294330000E+03 0.  0.
<mgrwt>
<rscale>  0 0.10274584E+04</rscale>
<asrwt>0</asrwt>
<pdfrwt beam="1">  1        2 0.24121714E+00 0.10841328E+04</pdfrwt>
<pdfrwt beam="2">  1       -2 0.15683573E+00 0.10841328E+04</pdfrwt>
<totfact> 0.30399188E+00</totfact>
</mgrwt>
</event>
<event>
 4    1  0.2051094E-007  0.7387373E+03  0.7818608E-02  0.9863641E-01
         -2   -1    0    0    0  501 -0.00000000000E+00  0.00000000000E+00  0.11473012316E+04  0.11473012316E+04  0.25500000000E-02 0.  1.
          2   -1    0    0  501    0  0.00000000000E+00 -0.00000000000E+00 -0.39713462696E+03  0.39713462697E+03  0.25500000000E-02 0. -1.
    8880023    1    1    2    0    0 -0.21033477120E+03 -0.26015746209E+03  0.34234380001E+02  0.73953013468E+03  0.65864270000E+03 0. -1.
    8880022    1    1    2    0    0  0.21033477120E+03  0.26015746209E+03  0.71593222461E+03  0.80490572387E+03  0.15294330000E+03 0.  0.
<mgrwt>
<rscale>  0 0.62056243E+03</rscale>
<asrwt>0</asrwt>
<pdfrwt beam="1">  1        2 0.61097636E-01 0.73873732E+03</pdfrwt>
<pdfrwt beam="2">  1       -2 0.17650788E+00 0.73873732E+03</pdfrwt>
<totfact> 0.15624120E+01</totfact>
</mgrwt>
</event>
<event>
 4    1  0.2051094E-007  0.1086533E+04  0.7818608E-02  0.9276200E-01
          2   -1    0    0  501    0  0.00000000000E+00  0.00000000000E+00  0.18062955471E+04  0.18062955471E+04  0.25500000000E-02 0. -1.
         -2   -1    0    0    0  501 -0.00000000000E+00 -0.00000000000E+00 -0.21016686625E+04  0.21016686626E+04  0.25500000000E-02 0.  1.
    8880023    1    1    2    0    0  0.19874213974E+02  0.86391480969E+03  0.15335180874E+04  0.18794232396E+04  0.65864270000E+03 0.  0.
    8880022    1    1    2    0    0 -0.19874213974E+02 -0.86391480969E+03 -0.18288912028E+04  0.20285409701E+04  0.15294330000E+03 0.  0.
<mgrwt>
<rscale>  0 0.10300376E+04</rscale>
<asrwt>0</asrwt>
<pdfrwt beam="1">  1        2 0.27789162E+00 0.10865330E+04</pdfrwt>
<pdfrwt beam="2">  1       -2 0.32333364E+00 0.10865330E+04</pdfrwt>
<totfact> 0.19470218E-01</totfact>
</mgrwt>
</event>
<event>
 4    1  0.2051094E-007  0.1112933E+04  0.7818608E-02  0.9246792E-01
          2   -1    0    0  501    0  0.00000000000E+00  0.00000000000E+00  0.23898330542E+04  0.23898330542E+04  0.25500000000E-02 0. -1.
         -2   -1    0    0    0  501 -0.00000000000E+00 -0.00000000000E+00 -0.48311444861E+03  0.48311444862E+03  0.25500000000E-02 0.  1.
    8880023    1    1    2    0    0  0.87513302137E+03 -0.19735991884E+03  0.15206014235E+04  0.18843692945E+04  0.65864270000E+03 0.  0.
    8880022    1    1    2    0    0 -0.87513302137E+03  0.19735991884E+03  0.38611718208E+03  0.98857820832E+03  0.15294330000E+03 0.  0.
<mgrwt>
<rscale>  0 0.10583238E+04</rscale>
<asrwt>0</asrwt>
<pdfrwt beam="1">  1        2 0.36766663E+00 0.11129326E+04</pdfrwt>
<pdfrwt beam="2">  1       -2 0.74325299E-01 0.11129326E+04</pdfrwt>
<totfact> 0.65329326E+00</totfact>
</mgrwt>
</event>
<event>
 4    1  0.2051094E-007  0.1112894E+04  0.7818608E-02  0.9246834E-01
         -2   -1    0    0    0  501 -0.00000000000E+00  0.00000000000E+00  0.16473226503E+04  0.16473226503E+04  0.25500000000E-02 0.  1.
          2   -1    0    0  501    0  0.00000000000E+00 -0.00000000000E+00 -0.20915392351E+04  0.20915392351E+04  0.25500000000E-02 0. -1.
    8880023    1    1    2    0    0  0.75834502877E+03  0.47920376504E+03 -0.17938909273E+04  0.21110609409E+04  0.65864270000E+03 0. -1.
    8880022    1    1    2    0    0 -0.75834502877E+03 -0.47920376504E+03  0.13496743424E+04  0.16278009444E+04  0.15294330000E+03 0.  0.
<mgrwt>
<rscale>  0 0.10582829E+04</rscale>
<asrwt>0</asrwt>
<pdfrwt beam="1">  1        2 0.32177527E+00 0.11128943E+04</pdfrwt>
<pdfrwt beam="2">  1       -2 0.25343425E+00 0.11128943E+04</pdfrwt>
<totfact> 0.35871463E-01</totfact>
</mgrwt>
</event>
<event>
 4    1  0.2051094E-007  0.9511793E+03  0.7818608E-02  0.9448419E-01
         -2   -1    0    0    0  501 -0.00000000000E+00  0.00000000000E+00  0.67828432188E+03  0.67828432188E+03  0.25500000000E-02 0.  1.
          2   -1    0    0  501    0  0.00000000000E+00 -0.00000000000E+00 -0.14735714177E+04  0.14735714177E+04  0.25500000000E-02 0. -1.
    8880023    1    1    2    0    0 -0.29113672508E+03 -0.62142681239E+03 -0.10381485731E+04  0.14080108458E+04  0.65864270000E+03 0. -1.
    8880022    1    1    2    0    0  0.29113672508E+03  0.62142681239E+03  0.24286147728E+03  0.74384489378E+03  0.15294330000E+03 0.  0.
<mgrwt>
<rscale>  0 0.88195862E+03</rscale>
<asrwt>0</asrwt>
<pdfrwt beam="1">  1        2 0.22670329E+00 0.95117931E+03</pdfrwt>
<pdfrwt beam="2">  1       -2 0.10435144E+00 0.95117931E+03</pdfrwt>
<totfact> 0.98027473E+00</totfact>
</mgrwt>
</event>
<event>
 4    1  0.2051094E-007  0.6671650E+03  0.7818608E-02  0.1017782E+00
         -2   -1    0    0    0  501 -0.00000000000E+00  0.00000000000E+00  0.87580524319E+02  0.87580524356E+02  0.25500000000E-02 0.  1.
          2   -1    0    0  501    0  0.00000000000E+00 -0.00000000000E+00 -0.32706797431E+04  0.32706797431E+04  0.25500000000E-02 0. -1.
    8880023    1    1    2    0    0 -0.10539186533E+03 -0.13839780197E+02 -0.30671311592E+04  0.31388537301E+04  0.65864270000E+03 0. -1.
    8880022    1    1    2    0    0  0.10539186533E+03  0.13839780197E+02 -0.11596805960E+03  0.21940653741E+03  0.15294330000E+03 0.  0.
<mgrwt>
<rscale>  0 0.48495506E+03</rscale>
<asrwt>0</asrwt>
<pdfrwt beam="1">  1        2 0.50318141E+00 0.66716504E+03</pdfrwt>
<pdfrwt beam="2">  1       -2 0.13473929E-01 0.66716504E+03</pdfrwt>
<totfact> 0.52805007E+01</totfact>
</mgrwt>
</event>
<event>
 4    1  0.2051094E-007  0.7030111E+03  0.7818608E-02  0.9984932E-01
          2   -1    0    0  501    0  0.00000000000E+00  0.00000000000E+00  0.69462321115E+03  0.69462321115E+03  0.25500000000E-02 0. -1.
         -2   -1    0    0    0  501 -0.00000000000E+00 -0.00000000000E+00 -0.62409854535E+03  0.62409854536E+03  0.25500000000E-02 0.  1.
    8880023    1    1    2    0    0 -0.22448736522E+03 -0.10009913305E+03  0.45502866988E+03  0.83742206220E+03  0.65864270000E+03 0. -1.
    8880022    1    1    2    0    0  0.22448736522E+03  0.10009913305E+03 -0.38450400408E+03  0.48129969432E+03  0.15294330000E+03 0.  0.
<mgrwt>
<rscale>  0 0.56315906E+03</rscale>
<asrwt>0</asrwt>
<pdfrwt beam="1">  1        2 0.10686511E+00 0.70301111E+03</pdfrwt>
<pdfrwt beam="2">  1       -2 0.96015161E-01 0.70301111E+03</pdfrwt>
<totfact> 0.38256708E+01</totfact>
</mgrwt>
</event>
<event>
 4    1  0.2051094E-007  0.8544203E+03  0.7818608E-02  0.9603567E-01
         -2   -1    0    0    0  501 -0.00000000000E+00  0.00000000000E+00  0.41702316126E+03  0.41702316127E+03  0.25500000000E-02 0.  1.
          2   -1    0    0  501    0  0.00000000000E+00 -0.00000000000E+00 -0.16937190983E+04  0.16937190983E+04  0.25500000000E-02 0. -1.
    8880023    1    1    2    0    0 -0.34267453544E+02  0.54318470019E+03 -0.12875917792E+04  0.15452917760E+04  0.65864270000E+03 0.  0.
    8880022    1    1    2    0    0  0.34267453544E+02 -0.54318470019E+03  0.10895842234E+02  0.56545048349E+03  0.15294330000E+03 0.  0.
<mgrwt>
<rscale>  0 0.77060560E+03</rscale>
<asrwt>0</asrwt>
<pdfrwt beam="1">  1        2 0.26057217E+00 0.85442032E+03</pdfrwt>
<pdfrwt beam="2">  1       -2 0.64157410E-01 0.85442032E+03</pdfrwt>
<totfact> 0.22524885E+01</totfact>
</mgrwt>
</event>
<event>
 4    1  0.2051094E-007  0.1380641E+04  0.7818608E-02  0.8998873E-01
         -2   -1    0    0    0  501 -0.00000000000E+00  0.00000000000E+00  0.21167778635E+04  0.21167778635E+04  0.25500000000E-02 0.  1.
          2   -1    0    0  501    0  0.00000000000E+00 -0.00000000000E+00 -0.87124973549E+03  0.87124973549E+03  0.25500000000E-02 0. -1.
    8880023    1    1    2    0    0  0.90638310770E+03 -0.80674003771E+03  0.23276865431E+03  0.14001254512E+04  0.65864270000E+03 0.  0.
    8880022    1    1    2    0    0 -0.90638310770E+03  0.80674003771E+03  0.10127594737E+04  0.15879021478E+04  0.15294330000E+03 0.  0.
<mgrwt>
<rscale>  0 0.13394239E+04</rscale>
<asrwt>0</asrwt>
<pdfrwt beam="1">  1        2 0.13403842E+00 0.13806412E+04</pdfrwt>
<pdfrwt beam="2">  1       -2 0.32565813E+00 0.13806412E+04</pdfrwt>
<totfact> 0.65231274E-01</totfact>
</mgrwt>
</event>
<event>
 4    1  0.2051094E-007  0.8157034E+03  0.7818608E-02  0.9677817E-01
         -2   -1    0    0    0  501 -0.00000000000E+00  0.00000000000E+00  0.85914831325E+03  0.85914831325E+03  0.25500000000E-02 0.  1.
          2   -1    0    0  501    0  0.00000000000E+00 -0.00000000000E+00 -0.13467160360E+04  0.13467160360E+04  0.25500000000E-02 0. -1.
    8880023    1    1    2    0    0  0.46385701758E+03  0.12805632677E+03 -0.11269283325E+04  0.13911647740E+04  0.65864270000E+03 0.  0.
    8880022    1    1    2    0    0 -0.46385701758E+03 -0.12805632677E+03  0.63936060975E+03  0.81469957524E+03  0.15294330000E+03 0.  0.
<mgrwt>
<rscale>  0 0.72353041E+03</rscale>
<asrwt>0</asrwt>
<pdfrwt beam="1">  1        2 0.20718708E+00 0.81570335E+03</pdfrwt>
<pdfrwt beam="2">  1       -2 0.13217666E+00 0.81570335E+03</pdfrwt>
<totfact> 0.65550646E+00</totfact>
</mgrwt>
</event>
<event>
 4    1  0.2051094E-007  0.7983520E+03  0.7818608E-02  0.9714371E-01
          2   -1    0    0  501    0  0.00000000000E+00  0.00000000000E+00  0.31479973015E+03  0.31479973016E+03  0.25500000000E-02 0. -1.
         -2   -1    0    0    0  501 -0.00000000000E+00 -0.00000000000E+00 -0.16496396140E+04  0.16496396140E+04  0.25500000000E-02 0.  1.
    8880023    1    1    2    0    0 -0.41914171920E+03 -0.16696075623E+03 -0.35256026740E+03  0.87273399344E+03  0.65864270000E+03 0.  1.
    8880022    1    1    2    0    0  0.41914171920E+03  0.16696075623E+03 -0.98227961643E+03  0.10917053507E+04  0.15294330000E+03 0.  0.
<mgrwt>
<rscale>  0 0.70167570E+03</rscale>
<asrwt>0</asrwt>
<pdfrwt beam="1">  1        2 0.48430729E-01 0.79835198E+03</pdfrwt>
<pdfrwt beam="2">  1       -2 0.25379071E+00 0.79835198E+03</pdfrwt>
<totfact> 0.64806630E+00</totfact>
</mgrwt>
</event>
<event>
 4    1  0.2051094E-007  0.1032904E+04  0.7818608E-02  0.9339722E-01
         -2   -1    0    0    0  501 -0.00000000000E+00  0.00000000000E+00  0.80781175620E+03  0.80781175621E+03  0.25500000000E-02 0.  1.
          2   -1    0    0  501    0  0.00000000000E+00 -0.00000000000E+00 -0.21392856054E+04  0.21392856054E+04  0.25500000000E-02 0. -1.
    8880023    1    1    2    0    0 -0.70908615608E+02  0.79249711895E+03 -0.17523210992E+04  0.20340892695E+04  0.65864270000E+03 0. -1.
    8880022    1    1    2    0    0  0.70908615608E+02 -0.79249711895E+03  0.42084725004E+03  0.91300809208E+03  0.15294330000E+03 0.  0.
<mgrwt>
<rscale>  0 0.97206841E+03</rscale>
<asrwt>0</asrwt>
<pdfrwt beam="1">  1        2 0.32912086E+00 0.10329036E+04</pdfrwt>
<pdfrwt beam="2">  1       -2 0.12427873E+00 0.10329036E+04</pdfrwt>
<totfact> 0.27075949E+00</totfact>
</mgrwt>
</event>
<event>
 4    1  0.2051094E-007  0.1125070E+04  0.7818608E-02  0.9233645E-01
         -2   -1    0    0    0  501 -0.00000000000E+00  0.00000000000E+00  0.62432935287E+03  0.62432935287E+03  0.25500000000E-02 0.  1.
          2   -1    0    0  501    0  0.00000000000E+00 -0.00000000000E+00 -0.35182970214E+04  0.35182970214E+04  0.25500000000E-02 0. -1.
    8880023    1    1    2    0    0  0.76932598606E+03 -0.49000913565E+03 -0.30072885970E+04  0.32108513415E+04  0.65864270000E+03 0.  0.
    8880022    1    1    2    0    0 -0.76932598606E+03  0.49000913565E+03  0.11332092840E+03  0.93177503276E+03  0.15294330000E+03 0.  0.
<mgrwt>
<rscale>  0 0.10712809E+04</rscale>
<asrwt>0</asrwt>
<pdfrwt beam="1">  1        2 0.54127645E+00 0.11250696E+04</pdfrwt>
<pdfrwt beam="2">  1       -2 0.96050672E-01 0.11250696E+04</pdfrwt>
<totfact> 0.72620871E-01</totfact>
</mgrwt>
</event>
<event>
 4    1  0.2051094E-007  0.1119171E+04  0.7818608E-02  0.9240006E-01
         -2   -1    0    0    0  501 -0.00000000000E+00  0.00000000000E+00  0.69089839366E+03  0.69089839367E+03  0.25500000000E-02 0.  1.
          2   -1    0    0  501    0  0.00000000000E+00 -0.00000000000E+00 -0.17445124937E+04  0.17445124937E+04  0.25500000000E-02 0. -1.
    8880023    1    1    2    0    0 -0.22266802129E+03  0.87701298421E+03 -0.10244910195E+04  0.15172754785E+04  0.65864270000E+03 0. -1.
    8880022    1    1    2    0    0  0.22266802129E+03 -0.87701298421E+03 -0.29123080468E+02  0.91813540887E+03  0.15294330000E+03 0.  0.
<mgrwt>
<rscale>  0 0.10649869E+04</rscale>
<asrwt>0</asrwt>
<pdfrwt beam="1">  1        2 0.26838654E+00 0.11191707E+04</pdfrwt>
<pdfrwt beam="2">  1       -2 0.10629206E+00 0.11191707E+04</pdfrwt>
<totfact> 0.65101438E+00</totfact>
</mgrwt>
</event>
