<event>
 4    1  0.4055965E-007  0.6688966E+03  0.7818608E-02  0.1016466E+00
          1   -1    0    0  501    0  0.00000000000E+00  0.00000000000E+00  0.12383001118E+04  0.12383001118E+04  0.50400000000E-02 0. -1.
         -1   -1    0    0    0  501 -0.00000000000E+00 -0.00000000000E+00 -0.65793692337E+03  0.65793692339E+03  0.50400000000E-02 0.  1.
    8880023    1    1    2    0    0  0.63082713561E+02  0.98148120300E+02  0.11304296710E+04  0.13135044460E+04  0.65864270000E+03 0. -1.
    8880022    1    1    2    0    0 -0.63082713561E+02 -0.98148120300E+02 -0.55006648257E+03  0.58273258921E+03  0.15294330000E+03 0.  0.
<mgrwt>
<rscale>  0 0.48983581E+03</rscale>
<asrwt>0</asrwt>
<pdfrwt beam="1">  1        1 0.19050771E+00 0.66889662E+03</pdfrwt>
<pdfrwt beam="2">  1       -1 0.10122107E+00 0.66889662E+03</pdfrwt>
<totfact> 0.97361237E+00</totfact>
</mgrwt>
</event>
<event>
 4    1  0.4055965E-007  0.7422978E+03  0.7818608E-02  0.9853304E-01
          1   -1    0    0  501    0  0.00000000000E+00  0.00000000000E+00  0.72557521135E+03  0.72557521137E+03  0.50400000000E-02 0. -1.
         -1   -1    0    0    0  501 -0.00000000000E+00 -0.00000000000E+00 -0.59343708709E+03  0.59343708711E+03  0.50400000000E-02 0.  1.
    8880023    1    1    2    0    0 -0.33925416054E+03  0.45852491818E+02  0.41399312771E+03  0.84993902870E+03  0.65864270000E+03 0.  0.
    8880022    1    1    2    0    0  0.33925416054E+03 -0.45852491818E+02 -0.28185500345E+03  0.46907326979E+03  0.15294330000E+03 0.  0.
<mgrwt>
<rscale>  0 0.62578762E+03</rscale>
<asrwt>0</asrwt>
<pdfrwt beam="1">  1        1 0.11162696E+00 0.74229781E+03</pdfrwt>
<pdfrwt beam="2">  1       -1 0.91298013E-01 0.74229781E+03</pdfrwt>
<totfact> 0.30950717E+01</totfact>
</mgrwt>
</event>
<event>
 4    1  0.4055965E-007  0.8888336E+03  0.7818608E-02  0.9544200E-01
          1   -1    0    0  501    0  0.00000000000E+00  0.00000000000E+00  0.99476950506E+03  0.99476950507E+03  0.50400000000E-02 0. -1.
         -1   -1    0    0    0  501 -0.00000000000E+00 -0.00000000000E+00 -0.78602108469E+03  0.78602108470E+03  0.50400000000E-02 0.  1.
    8880023    1    1    2    0    0 -0.49817842773E+03  0.32868405544E+03 -0.34398102143E+03  0.95307297911E+03  0.65864270000E+03 0.  0.
    8880022    1    1    2    0    0  0.49817842773E+03 -0.32868405544E+03  0.55272944180E+03  0.82771761066E+03  0.15294330000E+03 0.  0.
<mgrwt>
<rscale>  0 0.81102094E+03</rscale>
<asrwt>0</asrwt>
<pdfrwt beam="1">  1        1 0.15304146E+00 0.88883360E+03</pdfrwt>
<pdfrwt beam="2">  1       -1 0.12092632E+00 0.88883360E+03</pdfrwt>
<totfact> 0.94156717E+00</totfact>
</mgrwt>
</event>
<event>
 4    1  0.4055965E-007  0.8551520E+03  0.7818608E-02  0.9602246E-01
          1   -1    0    0  501    0  0.00000000000E+00  0.00000000000E+00  0.27066963968E+04  0.27066963968E+04  0.50400000000E-02 0. -1.
         -1   -1    0    0    0  501 -0.00000000000E+00 -0.00000000000E+00 -0.25998161018E+03  0.25998161023E+03  0.50400000000E-02 0.  1.
    8880023    1    1    2    0    0  0.49068705347E+03  0.23811958931E+03  0.21777145689E+04  0.23395994686E+04  0.65864270000E+03 0. -1.
    8880022    1    1    2    0    0 -0.49068705347E+03 -0.23811958931E+03  0.26900021763E+03  0.62707853843E+03  0.15294330000E+03 0.  0.
<mgrwt>
<rscale>  0 0.77147705E+03</rscale>
<asrwt>0</asrwt>
<pdfrwt beam="1">  1        1 0.41641481E+00 0.85515199E+03</pdfrwt>
<pdfrwt beam="2">  1       -1 0.39997173E-01 0.85515199E+03</pdfrwt>
<totfact> 0.61641000E+00</totfact>
</mgrwt>
</event>
<event>
 4    1  0.4055965E-007  0.7379974E+03  0.7818608E-02  0.9865819E-01
          1   -1    0    0  501    0  0.00000000000E+00  0.00000000000E+00  0.66929713809E+03  0.66929713811E+03  0.50400000000E-02 0. -1.
         -1   -1    0    0    0  501 -0.00000000000E+00 -0.00000000000E+00 -0.57238402933E+03  0.57238402935E+03  0.50400000000E-02 0.  1.
    8880023    1    1    2    0    0  0.29505529125E+03 -0.15418270283E+03  0.32898072733E+03  0.80800275740E+03  0.65864270000E+03 0.  0.
    8880022    1    1    2    0    0 -0.29505529125E+03  0.15418270283E+03 -0.23206761857E+03  0.43367841006E+03  0.15294330000E+03 0.  0.
<mgrwt>
<rscale>  0 0.61946805E+03</rscale>
<asrwt>0</asrwt>
<pdfrwt beam="1">  1        1 0.10296879E+00 0.73799738E+03</pdfrwt>
<pdfrwt beam="2">  1       -1 0.88059082E-01 0.73799738E+03</pdfrwt>
<totfact> 0.37865756E+01</totfact>
</mgrwt>
</event>
<event>
 4    1  0.4055965E-007  0.7948787E+03  0.7818608E-02  0.9721981E-01
         -1   -1    0    0    0  501 -0.00000000000E+00  0.00000000000E+00  0.15982461401E+04  0.15982461402E+04  0.50400000000E-02 0.  1.
          1   -1    0    0  501    0  0.00000000000E+00 -0.00000000000E+00 -0.49044649104E+03  0.49044649107E+03  0.50400000000E-02 0. -1.
    8880023    1    1    2    0    0  0.43429617627E+03  0.96999104381E+02 -0.91747258093E+02  0.80015608515E+03  0.65864270000E+03 0.  0.
    8880022    1    1    2    0    0 -0.43429617627E+03 -0.96999104381E+02  0.11995469072E+04  0.12885365461E+04  0.15294330000E+03 0.  0.
<mgrwt>
<rscale>  0 0.69723023E+03</rscale>
<asrwt>0</asrwt>
<pdfrwt beam="1">  1        1 0.75453306E-01 0.79487873E+03</pdfrwt>
<pdfrwt beam="2">  1       -1 0.24588402E+00 0.79487873E+03</pdfrwt>
<totfact> 0.34940753E+00</totfact>
</mgrwt>
</event>
<event>
 4    1  0.4055965E-007  0.7573211E+03  0.7818608E-02  0.9812093E-01
          1   -1    0    0  501    0  0.00000000000E+00  0.00000000000E+00  0.13165272570E+03  0.13165272579E+03  0.50400000000E-02 0. -1.
         -1   -1    0    0    0  501 -0.00000000000E+00 -0.00000000000E+00 -0.25608246317E+04  0.25608246317E+04  0.50400000000E-02 0.  1.
    8880023    1    1    2    0    0  0.16111774343E+03  0.33729237060E+03 -0.15695469400E+04  0.17427027497E+04  0.65864270000E+03 0. -1.
    8880022    1    1    2    0    0 -0.16111774343E+03 -0.33729237060E+03 -0.85962496598E+03  0.94977460783E+03  0.15294330000E+03 0.  1.
<mgrwt>
<rscale>  0 0.64717594E+03</rscale>
<asrwt>0</asrwt>
<pdfrwt beam="1">  1        1 0.20254267E-01 0.75732112E+03</pdfrwt>
<pdfrwt beam="2">  1       -1 0.39397298E+00 0.75732112E+03</pdfrwt>
<totfact> 0.21511707E+00</totfact>
</mgrwt>
</event>
<event>
 4    1  0.4055965E-007  0.8015643E+03  0.7818608E-02  0.9707424E-01
          1   -1    0    0  501    0  0.00000000000E+00  0.00000000000E+00  0.29280705088E+04  0.29280705088E+04  0.50400000000E-02 0. -1.
         -1   -1    0    0    0  501 -0.00000000000E+00 -0.00000000000E+00 -0.25766793294E+03  0.25766793299E+03  0.50400000000E-02 0.  1.
    8880023    1    1    2    0    0  0.24653893875E+03  0.38459554206E+03  0.25720364519E+04  0.26940447093E+04  0.65864270000E+03 0. -1.
    8880022    1    1    2    0    0 -0.24653893875E+03 -0.38459554206E+03  0.98366123994E+02  0.49169373258E+03  0.15294330000E+03 0.  0.
<mgrwt>
<rscale>  0 0.70576498E+03</rscale>
<asrwt>0</asrwt>
<pdfrwt beam="1">  1        1 0.45047241E+00 0.80156434E+03</pdfrwt>
<pdfrwt beam="2">  1       -1 0.39641218E-01 0.80156434E+03</pdfrwt>
<totfact> 0.44151129E+00</totfact>
</mgrwt>
</event>
<event>
 4    1  0.4055965E-007  0.7848446E+03  0.7818608E-02  0.9744578E-01
          1   -1    0    0  501    0  0.00000000000E+00  0.00000000000E+00  0.88341649255E+03  0.88341649257E+03  0.50400000000E-02 0. -1.
         -1   -1    0    0    0  501 -0.00000000000E+00 -0.00000000000E+00 -0.11751734497E+04  0.11751734497E+04  0.50400000000E-02 0.  1.
    8880023    1    1    2    0    0 -0.39381737940E+03  0.16455596282E+03  0.64630481376E+03  0.10167059121E+04  0.65864270000E+03 0. -1.
    8880022    1    1    2    0    0  0.39381737940E+03 -0.16455596282E+03 -0.93806177087E+03  0.10418840301E+04  0.15294330000E+03 0.  0.
<mgrwt>
<rscale>  0 0.68423568E+03</rscale>
<asrwt>0</asrwt>
<pdfrwt beam="1">  1        1 0.13591023E+00 0.78484457E+03</pdfrwt>
<pdfrwt beam="2">  1       -1 0.18079591E+00 0.78484457E+03</pdfrwt>
<totfact> 0.39812386E+00</totfact>
</mgrwt>
</event>
<event>
 4    1  0.4055965E-007  0.6841675E+03  0.7818608E-02  0.1007058E+00
          1   -1    0    0  501    0  0.00000000000E+00  0.00000000000E+00  0.19590946738E+04  0.19590946738E+04  0.50400000000E-02 0. -1.
         -1   -1    0    0    0  501 -0.00000000000E+00 -0.00000000000E+00 -0.27958634672E+03  0.27958634677E+03  0.50400000000E-02 0.  1.
    8880023    1    1    2    0    0 -0.98001173610E+02 -0.15706900702E+03  0.18310704868E+04  0.19547133388E+04  0.65864270000E+03 0. -1.
    8880022    1    1    2    0    0  0.98001173610E+02  0.15706900702E+03 -0.15156215975E+03  0.28396768175E+03  0.15294330000E+03 0.  0.
<mgrwt>
<rscale>  0 0.52660783E+03</rscale>
<asrwt>0</asrwt>
<pdfrwt beam="1">  1        1 0.30139917E+00 0.68416746E+03</pdfrwt>
<pdfrwt beam="2">  1       -1 0.43013286E-01 0.68416746E+03</pdfrwt>
<totfact> 0.17796933E+01</totfact>
</mgrwt>
</event>
<event>
 4    1  0.4055965E-007  0.1039510E+04  0.7818608E-02  0.9331600E-01
          1   -1    0    0  501    0  0.00000000000E+00  0.00000000000E+00  0.79234983892E+03  0.79234983893E+03  0.50400000000E-02 0. -1.
         -1   -1    0    0    0  501 -0.00000000000E+00 -0.00000000000E+00 -0.11417674463E+04  0.11417674463E+04  0.50400000000E-02 0.  1.
    8880023    1    1    2    0    0 -0.36711204896E+03  0.71554088846E+03  0.11211095719E+02  0.10395700623E+04  0.65864270000E+03 0.  1.
    8880022    1    1    2    0    0  0.36711204896E+03 -0.71554088846E+03 -0.36062870312E+03  0.89454722294E+03  0.15294330000E+03 0. -1.
<mgrwt>
<rscale>  0 0.97925056E+03</rscale>
<asrwt>0</asrwt>
<pdfrwt beam="1">  1        1 0.12189998E+00 0.10395096E+04</pdfrwt>
<pdfrwt beam="2">  1       -1 0.17565653E+00 0.10395096E+04</pdfrwt>
<totfact> 0.50162382E+00</totfact>
</mgrwt>
</event>
<event>
 4    1  0.4055965E-007  0.7857692E+03  0.7818608E-02  0.9742455E-01
          1   -1    0    0  501    0  0.00000000000E+00  0.00000000000E+00  0.17329800336E+04  0.17329800336E+04  0.50400000000E-02 0. -1.
         -1   -1    0    0    0  501 -0.00000000000E+00 -0.00000000000E+00 -0.52636757809E+03  0.52636757812E+03  0.50400000000E-02 0.  1.
    8880023    1    1    2    0    0 -0.36689913425E+03 -0.22137756517E+03  0.15170991970E+04  0.17085149050E+04  0.65864270000E+03 0.  0.
    8880022    1    1    2    0    0  0.36689913425E+03  0.22137756517E+03 -0.31048674148E+03  0.55083270666E+03  0.15294330000E+03 0.  1.
<mgrwt>
<rscale>  0 0.68544305E+03</rscale>
<asrwt>0</asrwt>
<pdfrwt beam="1">  1        1 0.26661231E+00 0.78576918E+03</pdfrwt>
<pdfrwt beam="2">  1       -1 0.80979628E-01 0.78576918E+03</pdfrwt>
<totfact> 0.71375144E+00</totfact>
</mgrwt>
</event>
<event>
 4    1  0.4055965E-007  0.7858087E+03  0.7818608E-02  0.9742365E-01
          1   -1    0    0  501    0  0.00000000000E+00  0.00000000000E+00  0.10206140365E+04  0.10206140365E+04  0.50400000000E-02 0. -1.
         -1   -1    0    0    0  501 -0.00000000000E+00 -0.00000000000E+00 -0.92683533151E+03  0.92683533153E+03  0.50400000000E-02 0.  1.
    8880023    1    1    2    0    0  0.22638994678E+03 -0.36391303795E+03  0.79092778435E+03  0.11149269364E+04  0.65864270000E+03 0. -1.
    8880022    1    1    2    0    0 -0.22638994678E+03  0.36391303795E+03 -0.69714907940E+03  0.83252243160E+03  0.15294330000E+03 0.  0.
<mgrwt>
<rscale>  0 0.68549461E+03</rscale>
<asrwt>0</asrwt>
<pdfrwt beam="1">  1        1 0.15701754E+00 0.78580870E+03</pdfrwt>
<pdfrwt beam="2">  1       -1 0.14259005E+00 0.78580870E+03</pdfrwt>
<totfact> 0.59997238E+00</totfact>
</mgrwt>
</event>
<event>
 4    1  0.4055965E-007  0.8252494E+03  0.7818608E-02  0.9658647E-01
          1   -1    0    0  501    0  0.00000000000E+00  0.00000000000E+00  0.11421349402E+04  0.11421349402E+04  0.50400000000E-02 0. -1.
         -1   -1    0    0    0  501 -0.00000000000E+00 -0.00000000000E+00 -0.46647594209E+03  0.46647594212E+03  0.50400000000E-02 0.  1.
    8880023    1    1    2    0    0 -0.40952898593E+03 -0.28197925668E+03  0.97695186091E+02  0.83101194165E+03  0.65864270000E+03 0.  0.
    8880022    1    1    2    0    0  0.40952898593E+03  0.28197925668E+03  0.57796381201E+03  0.77759894066E+03  0.15294330000E+03 0.  0.
<mgrwt>
<rscale>  0 0.73533201E+03</rscale>
<asrwt>0</asrwt>
<pdfrwt beam="1">  1        1 0.17571306E+00 0.82524935E+03</pdfrwt>
<pdfrwt beam="2">  1       -1 0.71765531E-01 0.82524935E+03</pdfrwt>
<totfact> 0.23587315E+01</totfact>
</mgrwt>
</event>
<event>
 4    1  0.4055965E-007  0.7696307E+03  0.7818608E-02  0.9780784E-01
          1   -1    0    0  501    0  0.00000000000E+00  0.00000000000E+00  0.33429042118E+03  0.33429042122E+03  0.50400000000E-02 0. -1.
         -1   -1    0    0    0  501 -0.00000000000E+00 -0.00000000000E+00 -0.15955287107E+04  0.15955287107E+04  0.50400000000E-02 0.  1.
    8880023    1    1    2    0    0 -0.38119249244E+03 -0.11495007504E+03 -0.21365203544E+03  0.79873564748E+03  0.65864270000E+03 0.  0.
    8880022    1    1    2    0    0  0.38119249244E+03  0.11495007504E+03 -0.10475862541E+04  0.11310834845E+04  0.15294330000E+03 0.  0.
<mgrwt>
<rscale>  0 0.66404075E+03</rscale>
<asrwt>0</asrwt>
<pdfrwt beam="1">  1        1 0.51429297E-01 0.76963072E+03</pdfrwt>
<pdfrwt beam="2">  1       -1 0.24546595E+00 0.76963072E+03</pdfrwt>
<totfact> 0.58800570E+00</totfact>
</mgrwt>
</event>
<event>
 4    1  0.4055965E-007  0.7579012E+03  0.7818608E-02  0.9810572E-01
          1   -1    0    0  501    0  0.00000000000E+00  0.00000000000E+00  0.49989662540E+03  0.49989662542E+03  0.50400000000E-02 0. -1.
         -1   -1    0    0    0  501 -0.00000000000E+00 -0.00000000000E+00 -0.72348385150E+03  0.72348385151E+03  0.50400000000E-02 0.  1.
    8880023    1    1    2    0    0 -0.72902346777E+02 -0.36781682389E+03  0.58777006280E+01  0.75792395511E+03  0.65864270000E+03 0.  0.
    8880022    1    1    2    0    0  0.72902346777E+02  0.36781682389E+03 -0.22946492673E+03  0.46545652183E+03  0.15294330000E+03 0.  0.
<mgrwt>
<rscale>  0 0.64798278E+03</rscale>
<asrwt>0</asrwt>
<pdfrwt beam="1">  1        1 0.76907173E-01 0.75790116E+03</pdfrwt>
<pdfrwt beam="2">  1       -1 0.11130521E+00 0.75790116E+03</pdfrwt>
<totfact> 0.33643674E+01</totfact>
</mgrwt>
</event>
<event>
 4    1  0.4055965E-007  0.8487616E+03  0.7818608E-02  0.9613876E-01
          1   -1    0    0  501    0  0.00000000000E+00  0.00000000000E+00  0.63592305521E+03  0.63592305523E+03  0.50400000000E-02 0. -1.
         -1   -1    0    0    0  501 -0.00000000000E+00 -0.00000000000E+00 -0.13941825180E+04  0.13941825181E+04  0.50400000000E-02 0.  1.
    8880023    1    1    2    0    0 -0.47855491741E+03 -0.23994006145E+03  0.24439160917E+03  0.88324600592E+03  0.65864270000E+03 0. -1.
    8880022    1    1    2    0    0  0.47855491741E+03  0.23994006145E+03 -0.10026510720E+04  0.11468595674E+04  0.15294330000E+03 0.  0.
<mgrwt>
<rscale>  0 0.76384563E+03</rscale>
<asrwt>0</asrwt>
<pdfrwt beam="1">  1        1 0.97834317E-01 0.84876160E+03</pdfrwt>
<pdfrwt beam="2">  1       -1 0.21448962E+00 0.84876160E+03</pdfrwt>
<totfact> 0.38612477E+00</totfact>
</mgrwt>
</event>
<event>
 4    1  0.4055965E-007  0.9960348E+03  0.7818608E-02  0.9386764E-01
          1   -1    0    0  501    0  0.00000000000E+00  0.00000000000E+00  0.66444892494E+03  0.66444892496E+03  0.50400000000E-02 0. -1.
         -1   -1    0    0    0  501 -0.00000000000E+00 -0.00000000000E+00 -0.44273269463E+04  0.44273269463E+04  0.50400000000E-02 0.  1.
    8880023    1    1    2    0    0 -0.66215505684E+03 -0.34615854266E+03  0.23369498887E+03  0.10230828950E+04  0.65864270000E+03 0.  0.
    8880022    1    1    2    0    0  0.66215505684E+03  0.34615854266E+03 -0.39965730103E+04  0.40686929763E+04  0.15294330000E+03 0.  0.
<mgrwt>
<rscale>  0 0.93173015E+03</rscale>
<asrwt>0</asrwt>
<pdfrwt beam="1">  1        1 0.10222291E+00 0.99603477E+03</pdfrwt>
<pdfrwt beam="2">  1       -1 0.68112720E+00 0.99603477E+03</pdfrwt>
<totfact> 0.68527003E-03</totfact>
</mgrwt>
</event>
<event>
 4    1  0.4055965E-007  0.8425588E+03  0.7818608E-02  0.9625374E-01
          1   -1    0    0  501    0  0.00000000000E+00  0.00000000000E+00  0.84150224684E+03  0.84150224685E+03  0.50400000000E-02 0. -1.
         -1   -1    0    0    0  501 -0.00000000000E+00 -0.00000000000E+00 -0.10982833632E+04  0.10982833632E+04  0.50400000000E-02 0.  1.
    8880023    1    1    2    0    0 -0.91118292361E+01  0.52536847299E+03  0.51961584348E+03  0.98990195924E+03  0.65864270000E+03 0.  0.
    8880022    1    1    2    0    0  0.91118292361E+01 -0.52536847299E+03 -0.77639695987E+03  0.94988365085E+03  0.15294330000E+03 0.  0.
<mgrwt>
<rscale>  0 0.75639273E+03</rscale>
<asrwt>0</asrwt>
<pdfrwt beam="1">  1        1 0.12946188E+00 0.84255876E+03</pdfrwt>
<pdfrwt beam="2">  1       -1 0.16896667E+00 0.84255876E+03</pdfrwt>
<totfact> 0.52116226E+00</totfact>
</mgrwt>
</event>
<event>
 4    1  0.4055965E-007  0.7417009E+03  0.7818608E-02  0.9855020E-01
          1   -1    0    0  501    0  0.00000000000E+00  0.00000000000E+00  0.23154377862E+04  0.23154377862E+04  0.50400000000E-02 0. -1.
         -1   -1    0    0    0  501 -0.00000000000E+00 -0.00000000000E+00 -0.16479957478E+03  0.16479957485E+03  0.50400000000E-02 0.  1.
    8880023    1    1    2    0    0 -0.33578149165E+03  0.59672020774E+02  0.18733786944E+04  0.20148617569E+04  0.65864270000E+03 0.  0.
    8880022    1    1    2    0    0  0.33578149165E+03 -0.59672020774E+02  0.27725951694E+03  0.46537560416E+03  0.15294330000E+03 0.  0.
<mgrwt>
<rscale>  0 0.62491617E+03</rscale>
<asrwt>0</asrwt>
<pdfrwt beam="1">  1        1 0.35622121E+00 0.74170086E+03</pdfrwt>
<pdfrwt beam="2">  1       -1 0.25353780E-01 0.74170086E+03</pdfrwt>
<totfact> 0.25927899E+01</totfact>
</mgrwt>
</event>
<event>
 4    1  0.4055965E-007  0.9025679E+03  0.7818608E-02  0.9521922E-01
         -1   -1    0    0    0  501 -0.00000000000E+00  0.00000000000E+00  0.20940181835E+04  0.20940181835E+04  0.50400000000E-02 0.  1.
          1   -1    0    0  501    0  0.00000000000E+00 -0.00000000000E+00 -0.71693322409E+03  0.71693322411E+03  0.50400000000E-02 0. -1.
    8880023    1    1    2    0    0 -0.51844641573E+03 -0.33471163155E+03  0.18231299618E+04  0.20343135516E+04  0.65864270000E+03 0.  0.
    8880022    1    1    2    0    0  0.51844641573E+03  0.33471163155E+03 -0.44604500238E+03  0.77663785605E+03  0.15294330000E+03 0.  0.
<mgrwt>
<rscale>  0 0.82686729E+03</rscale>
<asrwt>0</asrwt>
<pdfrwt beam="1">  1        1 0.11029742E+00 0.90256787E+03</pdfrwt>
<pdfrwt beam="2">  1       -1 0.32215664E+00 0.90256787E+03</pdfrwt>
<totfact> 0.64264902E-01</totfact>
</mgrwt>
</event>
<event>
 4    1  0.4055965E-007  0.7294991E+03  0.7818608E-02  0.9891664E-01
         -1   -1    0    0    0  501 -0.00000000000E+00  0.00000000000E+00  0.10947294222E+04  0.10947294222E+04  0.50400000000E-02 0.  1.
          1   -1    0    0  501    0  0.00000000000E+00 -0.00000000000E+00 -0.77504928547E+03  0.77504928549E+03  0.50400000000E-02 0. -1.
    8880023    1    1    2    0    0 -0.19056734498E+03 -0.24908388847E+03 -0.56244687534E+03  0.92114895121E+03  0.65864270000E+03 0. -1.
    8880022    1    1    2    0    0  0.19056734498E+03  0.24908388847E+03  0.88212701208E+03  0.94862975650E+03  0.15294330000E+03 0.  0.
<mgrwt>
<rscale>  0 0.60666974E+03</rscale>
<asrwt>0</asrwt>
<pdfrwt beam="1">  1        1 0.11923835E+00 0.72949908E+03</pdfrwt>
<pdfrwt beam="2">  1       -1 0.16841991E+00 0.72949908E+03</pdfrwt>
<totfact> 0.60984829E+00</totfact>
</mgrwt>
</event>
<event>
 4    1  0.4055965E-007  0.8587226E+03  0.7818608E-02  0.9595840E-01
          1   -1    0    0  501    0  0.00000000000E+00  0.00000000000E+00  0.45852924713E+03  0.45852924715E+03  0.50400000000E-02 0. -1.
         -1   -1    0    0    0  501 -0.00000000000E+00 -0.00000000000E+00 -0.13929450968E+04  0.13929450968E+04  0.50400000000E-02 0.  1.
    8880023    1    1    2    0    0 -0.34275763219E+03 -0.43140649484E+03 -0.13602620708E+03  0.86942952186E+03  0.65864270000E+03 0. -1.
    8880022    1    1    2    0    0  0.34275763219E+03  0.43140649484E+03 -0.79838964260E+03  0.98204482211E+03  0.15294330000E+03 0.  1.
<mgrwt>
<rscale>  0 0.77572150E+03</rscale>
<asrwt>0</asrwt>
<pdfrwt beam="1">  1        1 0.70542962E-01 0.85872264E+03</pdfrwt>
<pdfrwt beam="2">  1       -1 0.21429924E+00 0.85872264E+03</pdfrwt>
<totfact> 0.61275282E+00</totfact>
</mgrwt>
</event>
<event>
 4    1  0.4055965E-007  0.7046733E+03  0.7818608E-02  0.9978340E-01
          1   -1    0    0  501    0  0.00000000000E+00  0.00000000000E+00  0.86952238135E+03  0.86952238137E+03  0.50400000000E-02 0. -1.
         -1   -1    0    0    0  501 -0.00000000000E+00 -0.00000000000E+00 -0.76733054155E+03  0.76733054157E+03  0.50400000000E-02 0.  1.
    8880023    1    1    2    0    0 -0.10178843529E+03  0.22889611969E+03  0.68598380481E+03  0.98343190201E+03  0.65864270000E+03 0. -1.
    8880022    1    1    2    0    0  0.10178843529E+03 -0.22889611969E+03 -0.58379196501E+03  0.65342102093E+03  0.15294330000E+03 0.  0.
<mgrwt>
<rscale>  0 0.56610274E+03</rscale>
<asrwt>0</asrwt>
<pdfrwt beam="1">  1        1 0.13377267E+00 0.70467335E+03</pdfrwt>
<pdfrwt beam="2">  1       -1 0.11805085E+00 0.70467335E+03</pdfrwt>
<totfact> 0.12879944E+01</totfact>
</mgrwt>
</event>
<event>
 4    1  0.4055965E-007  0.6668471E+03  0.7818608E-02  0.1018032E+00
         -1   -1    0    0    0  501 -0.00000000000E+00  0.00000000000E+00  0.20002984032E+03  0.20002984039E+03  0.50400000000E-02 0.  1.
          1   -1    0    0  501    0  0.00000000000E+00 -0.00000000000E+00 -0.15050224201E+04  0.15050224202E+04  0.50400000000E-02 0. -1.
    8880023    1    1    2    0    0  0.98548312529E+02  0.34103427999E+02 -0.13576638944E+04  0.15125925658E+04  0.65864270000E+03 0. -1.
    8880022    1    1    2    0    0 -0.98548312529E+02 -0.34103427999E+02  0.52671314577E+02  0.19245969474E+03  0.15294330000E+03 0.  0.
<mgrwt>
<rscale>  0 0.48403677E+03</rscale>
<asrwt>0</asrwt>
<pdfrwt beam="1">  1        1 0.23154190E+00 0.66684707E+03</pdfrwt>
<pdfrwt beam="2">  1       -1 0.30773823E-01 0.66684707E+03</pdfrwt>
<totfact> 0.65539593E+01</totfact>
</mgrwt>
</event>
<event>
 4    1  0.4055965E-007  0.7378858E+03  0.7818608E-02  0.9866149E-01
          1   -1    0    0  501    0  0.00000000000E+00  0.00000000000E+00  0.26699507089E+04  0.26699507089E+04  0.50400000000E-02 0. -1.
         -1   -1    0    0    0  501 -0.00000000000E+00 -0.00000000000E+00 -0.38595380547E+03  0.38595380551E+03  0.50400000000E-02 0.  1.
    8880023    1    1    2    0    0 -0.15150709613E+03 -0.29616024950E+03  0.25163207690E+04  0.26222787252E+04  0.65864270000E+03 0. -1.
    8880022    1    1    2    0    0  0.15150709613E+03  0.29616024950E+03 -0.23232386560E+03  0.43362578925E+03  0.15294330000E+03 0.  0.
<mgrwt>
<rscale>  0 0.61930280E+03</rscale>
<asrwt>0</asrwt>
<pdfrwt beam="1">  1        1 0.41076164E+00 0.73788583E+03</pdfrwt>
<pdfrwt beam="2">  1       -1 0.59377509E-01 0.73788583E+03</pdfrwt>
<totfact> 0.31625994E+00</totfact>
</mgrwt>
</event>
<event>
 4    1  0.4055965E-007  0.1122414E+04  0.7818608E-02  0.9236502E-01
         -1   -1    0    0    0  501 -0.00000000000E+00  0.00000000000E+00  0.17742937638E+04  0.17742937638E+04  0.50400000000E-02 0.  1.
          1   -1    0    0  501    0  0.00000000000E+00 -0.00000000000E+00 -0.12087347088E+04  0.12087347088E+04  0.50400000000E-02 0. -1.
    8880023    1    1    2    0    0 -0.82045862836E+03  0.39096124458E+03 -0.76942205732E+03  0.13608172413E+04  0.65864270000E+03 0. -1.
    8880022    1    1    2    0    0  0.82045862836E+03 -0.39096124458E+03  0.13349811124E+04  0.16222112313E+04  0.15294330000E+03 0.  0.
<mgrwt>
<rscale>  0 0.10684483E+04</rscale>
<asrwt>0</asrwt>
<pdfrwt beam="1">  1        1 0.18595919E+00 0.11224140E+04</pdfrwt>
<pdfrwt beam="2">  1       -1 0.27296827E+00 0.11224140E+04</pdfrwt>
<totfact> 0.51685313E-01</totfact>
</mgrwt>
</event>
<event>
 4    1  0.4055965E-007  0.7363826E+03  0.7818608E-02  0.9870612E-01
         -1   -1    0    0    0  501 -0.00000000000E+00  0.00000000000E+00  0.22645955071E+04  0.22645955071E+04  0.50400000000E-02 0.  1.
          1   -1    0    0  501    0  0.00000000000E+00 -0.00000000000E+00 -0.21867516129E+03  0.21867516135E+03  0.50400000000E-02 0. -1.
    8880023    1    1    2    0    0 -0.72927720021E+02 -0.32113972238E+03  0.48754389595E+03  0.88315255216E+03  0.65864270000E+03 0. -1.
    8880022    1    1    2    0    0  0.72927720021E+02  0.32113972238E+03  0.15583764499E+04  0.16001181163E+04  0.15294330000E+03 0.  0.
<mgrwt>
<rscale>  0 0.61706923E+03</rscale>
<asrwt>0</asrwt>
<pdfrwt beam="1">  1        1 0.33642333E-01 0.73638263E+03</pdfrwt>
<pdfrwt beam="2">  1       -1 0.34839930E+00 0.73638263E+03</pdfrwt>
<totfact> 0.22316092E+00</totfact>
</mgrwt>
</event>
<event>
 4    1  0.4055965E-007  0.7888356E+03  0.7818608E-02  0.9735477E-01
         -1   -1    0    0    0  501 -0.00000000000E+00  0.00000000000E+00  0.10632107414E+04  0.10632107414E+04  0.50400000000E-02 0.  1.
          1   -1    0    0  501    0  0.00000000000E+00 -0.00000000000E+00 -0.13009780067E+04  0.13009780067E+04  0.50400000000E-02 0. -1.
    8880023    1    1    2    0    0 -0.42856756136E+03  0.69146605684E+02 -0.11195299715E+04  0.13695287405E+04  0.65864270000E+03 0.  0.
    8880022    1    1    2    0    0  0.42856756136E+03 -0.69146605684E+02  0.88176270617E+03  0.99466000761E+03  0.15294330000E+03 0.  0.
<mgrwt>
<rscale>  0 0.68943235E+03</rscale>
<asrwt>0</asrwt>
<pdfrwt beam="1">  1        1 0.20015046E+00 0.78883561E+03</pdfrwt>
<pdfrwt beam="2">  1       -1 0.16357088E+00 0.78883561E+03</pdfrwt>
<totfact> 0.25709502E+00</totfact>
</mgrwt>
</event>
<event>
 4    1  0.4055965E-007  0.7468012E+03  0.7818608E-02  0.9840561E-01
          1   -1    0    0  501    0  0.00000000000E+00  0.00000000000E+00  0.95855649784E+03  0.95855649785E+03  0.50400000000E-02 0. -1.
         -1   -1    0    0    0  501 -0.00000000000E+00 -0.00000000000E+00 -0.85847804708E+03  0.85847804709E+03  0.50400000000E-02 0.  1.
    8880023    1    1    2    0    0  0.26705165554E+03 -0.22931476096E+03  0.75245416205E+03  0.10601411786E+04  0.65864270000E+03 0.  0.
    8880022    1    1    2    0    0 -0.26705165554E+03  0.22931476096E+03 -0.65237571129E+03  0.75689336634E+03  0.15294330000E+03 0.  0.
<mgrwt>
<rscale>  0 0.63230514E+03</rscale>
<asrwt>0</asrwt>
<pdfrwt beam="1">  1        1 0.14747023E+00 0.74680121E+03</pdfrwt>
<pdfrwt beam="2">  1       -1 0.13207355E+00 0.74680121E+03</pdfrwt>
<totfact> 0.82172838E+00</totfact>
</mgrwt>
</event>
<event>
 4    1  0.4055965E-007  0.7335301E+03  0.7818608E-02  0.9879211E-01
          1   -1    0    0  501    0  0.00000000000E+00  0.00000000000E+00  0.10052897519E+04  0.10052897520E+04  0.50400000000E-02 0. -1.
         -1   -1    0    0    0  501 -0.00000000000E+00 -0.00000000000E+00 -0.35173491413E+03  0.35173491417E+03  0.50400000000E-02 0.  1.
    8880023    1    1    2    0    0  0.16873965447E+03  0.27528733097E+03  0.67804875888E+03  0.99890765903E+03  0.65864270000E+03 0.  0.
    8880022    1    1    2    0    0 -0.16873965447E+03 -0.27528733097E+03 -0.24493921064E+02  0.35811700709E+03  0.15294330000E+03 0.  0.
<mgrwt>
<rscale>  0 0.61279489E+03</rscale>
<asrwt>0</asrwt>
<pdfrwt beam="1">  1        1 0.15465996E+00 0.73353009E+03</pdfrwt>
<pdfrwt beam="2">  1       -1 0.54113064E-01 0.73353009E+03</pdfrwt>
<totfact> 0.52992098E+01</totfact>
</mgrwt>
</event>
<event>
 4    1  0.4055965E-007  0.8742593E+03  0.7818608E-02  0.9568685E-01
         -1   -1    0    0    0  501 -0.00000000000E+00  0.00000000000E+00  0.84094929429E+03  0.84094929431E+03  0.50400000000E-02 0.  1.
          1   -1    0    0  501    0  0.00000000000E+00 -0.00000000000E+00 -0.10223579175E+04  0.10223579175E+04  0.50400000000E-02 0. -1.
    8880023    1    1    2    0    0 -0.10151259214E+02  0.57481832623E+03 -0.66355245736E+03  0.10975569353E+04  0.65864270000E+03 0. -1.
    8880022    1    1    2    0    0  0.10151259214E+02 -0.57481832623E+03  0.48214383414E+03  0.76575027656E+03  0.15294330000E+03 0.  0.
<mgrwt>
<rscale>  0 0.79403918E+03</rscale>
<asrwt>0</asrwt>
<pdfrwt beam="1">  1        1 0.15728583E+00 0.87425932E+03</pdfrwt>
<pdfrwt beam="2">  1       -1 0.12937681E+00 0.87425932E+03</pdfrwt>
<totfact> 0.75895413E+00</totfact>
</mgrwt>
</event>
<event>
 4    1  0.4055966E-007  0.8519536E+03  0.7818608E-02  0.9608040E-01
          1   -1    0    0  501    0  0.00000000000E+00  0.00000000000E+00  0.16174494933E+04  0.16174494933E+04  0.50400000000E-02 0. -1.
         -1   -1    0    0    0  501 -0.00000000000E+00 -0.00000000000E+00 -0.67160732099E+03  0.67160732101E+03  0.50400000000E-02 0.  1.
    8880023    1    1    2    0    0 -0.50655281804E+03  0.18819938724E+03  0.13505536836E+04  0.15968156517E+04  0.65864270000E+03 0.  0.
    8880022    1    1    2    0    0  0.50655281804E+03 -0.18819938724E+03 -0.40471151133E+03  0.69224116263E+03  0.15294330000E+03 0.  0.
<mgrwt>
<rscale>  0 0.76766330E+03</rscale>
<asrwt>0</asrwt>
<pdfrwt beam="1">  1        1 0.24883838E+00 0.85195362E+03</pdfrwt>
<pdfrwt beam="2">  1       -1 0.10332420E+00 0.85195362E+03</pdfrwt>
<totfact> 0.49271823E+00</totfact>
</mgrwt>
</event>
<event>
 4    1  0.4055965E-007  0.6647847E+03  0.7818608E-02  0.1019715E+00
          1   -1    0    0  501    0  0.00000000000E+00  0.00000000000E+00  0.16666827199E+04  0.16666827199E+04  0.50400000000E-02 0. -1.
         -1   -1    0    0    0  501 -0.00000000000E+00 -0.00000000000E+00 -0.55441484936E+03  0.55441484938E+03  0.50400000000E-02 0.  1.
    8880023    1    1    2    0    0 -0.22687661602E+02  0.87257243794E+02  0.15835782792E+04  0.17174571113E+04  0.65864270000E+03 0. -1.
    8880022    1    1    2    0    0  0.22687661602E+02 -0.87257243794E+02 -0.47131040866E+03  0.50364045797E+03  0.15294330000E+03 0.  0.
<mgrwt>
<rscale>  0 0.47789713E+03</rscale>
<asrwt>0</asrwt>
<pdfrwt beam="1">  1        1 0.25641273E+00 0.66478475E+03</pdfrwt>
<pdfrwt beam="2">  1       -1 0.85294592E-01 0.66478475E+03</pdfrwt>
<totfact> 0.72204369E+00</totfact>
</mgrwt>
</event>
<event>
 4    1  0.4055965E-007  0.8512632E+03  0.7818608E-02  0.9609298E-01
         -1   -1    0    0    0  501 -0.00000000000E+00  0.00000000000E+00  0.15536574252E+04  0.15536574252E+04  0.50400000000E-02 0.  1.
          1   -1    0    0  501    0  0.00000000000E+00 -0.00000000000E+00 -0.77331668406E+03  0.77331668408E+03  0.50400000000E-02 0. -1.
    8880023    1    1    2    0    0 -0.43025424638E+03 -0.32514616391E+03 -0.45873331530E+03  0.96699803788E+03  0.65864270000E+03 0.  0.
    8880022    1    1    2    0    0  0.43025424638E+03  0.32514616391E+03  0.12390740564E+04  0.13599760714E+04  0.15294330000E+03 0.  0.
<mgrwt>
<rscale>  0 0.76683848E+03</rscale>
<asrwt>0</asrwt>
<pdfrwt beam="1">  1        1 0.11897180E+00 0.85126315E+03</pdfrwt>
<pdfrwt beam="2">  1       -1 0.23902422E+00 0.85126315E+03</pdfrwt>
<totfact> 0.19744715E+00</totfact>
</mgrwt>
</event>
<event>
 4    1  0.4055965E-007  0.6837184E+03  0.7818608E-02  0.1007294E+00
         -1   -1    0    0    0  501 -0.00000000000E+00  0.00000000000E+00  0.21709495258E+03  0.21709495264E+03  0.50400000000E-02 0.  1.
          1   -1    0    0  501    0  0.00000000000E+00 -0.00000000000E+00 -0.23811256065E+04  0.23811256065E+04  0.50400000000E-02 0. -1.
    8880023    1    1    2    0    0  0.16061768319E+03 -0.88671457001E+02 -0.22443796771E+04  0.23462120553E+04  0.65864270000E+03 0. -1.
    8880022    1    1    2    0    0 -0.16061768319E+03  0.88671457001E+02  0.80349023185E+02  0.25200850379E+03  0.15294330000E+03 0.  0.
<mgrwt>
<rscale>  0 0.52564450E+03</rscale>
<asrwt>0</asrwt>
<pdfrwt beam="1">  1        1 0.36632700E+00 0.68371842E+03</pdfrwt>
<pdfrwt beam="2">  1       -1 0.33399225E-01 0.68371842E+03</pdfrwt>
<totfact> 0.14639589E+01</totfact>
</mgrwt>
</event>
<event>
 4    1  0.4055965E-007  0.1252188E+04  0.7818608E-02  0.9107990E-01
          1   -1    0    0  501    0  0.00000000000E+00  0.00000000000E+00  0.22733954315E+04  0.22733954315E+04  0.50400000000E-02 0. -1.
         -1   -1    0    0    0  501 -0.00000000000E+00 -0.00000000000E+00 -0.68094458241E+03  0.68094458243E+03  0.50400000000E-02 0.  1.
    8880023    1    1    2    0    0 -0.15691964250E+03  0.10533468433E+04  0.13693452497E+04  0.18555538164E+04  0.65864270000E+03 0.  0.
    8880022    1    1    2    0    0  0.15691964250E+03 -0.10533468433E+04  0.22310559940E+03  0.10987861975E+04  0.15294330000E+03 0.  0.
<mgrwt>
<rscale>  0 0.12055764E+04</rscale>
<asrwt>0</asrwt>
<pdfrwt beam="1">  1        1 0.34975314E+00 0.12521875E+04</pdfrwt>
<pdfrwt beam="2">  1       -1 0.10476070E+00 0.12521875E+04</pdfrwt>
<totfact> 0.16304943E+00</totfact>
</mgrwt>
</event>
<event>
 4    1  0.4055965E-007  0.7774050E+03  0.7818608E-02  0.9761968E-01
          1   -1    0    0  501    0  0.00000000000E+00  0.00000000000E+00  0.10201560518E+04  0.10201560518E+04  0.50400000000E-02 0. -1.
         -1   -1    0    0    0  501 -0.00000000000E+00 -0.00000000000E+00 -0.74147487642E+03  0.74147487644E+03  0.50400000000E-02 0.  1.
    8880023    1    1    2    0    0 -0.82262311138E+02  0.40469898230E+03  0.77526355763E+03  0.10979035222E+04  0.65864270000E+03 0.  0.
    8880022    1    1    2    0    0  0.82262311138E+02 -0.40469898230E+03 -0.49658238225E+03  0.66372740601E+03  0.15294330000E+03 0.  0.
<mgrwt>
<rscale>  0 0.67444095E+03</rscale>
<asrwt>0</asrwt>
<pdfrwt beam="1">  1        1 0.15694708E+00 0.77740502E+03</pdfrwt>
<pdfrwt beam="2">  1       -1 0.11407306E+00 0.77740502E+03</pdfrwt>
<totfact> 0.10506664E+01</totfact>
</mgrwt>
</event>
<event>
 4    1  0.4055965E-007  0.7981924E+03  0.7818608E-02  0.9714718E-01
          1   -1    0    0  501    0  0.00000000000E+00  0.00000000000E+00  0.37156829630E+04  0.37156829630E+04  0.50400000000E-02 0. -1.
         -1   -1    0    0    0  501 -0.00000000000E+00 -0.00000000000E+00 -0.18191968493E+03  0.18191968500E+03  0.50400000000E-02 0.  1.
    8880023    1    1    2    0    0  0.43568644857E+03 -0.11609584269E+03  0.32428510983E+04  0.33396398575E+04  0.65864270000E+03 0.  0.
    8880022    1    1    2    0    0 -0.43568644857E+03  0.11609584269E+03  0.29091217975E+03  0.55796279043E+03  0.15294330000E+03 0.  0.
<mgrwt>
<rscale>  0 0.70147203E+03</rscale>
<asrwt>0</asrwt>
<pdfrwt beam="1">  1        1 0.57164353E+00 0.79819242E+03</pdfrwt>
<pdfrwt beam="2">  1       -1 0.27987644E-01 0.79819242E+03</pdfrwt>
<totfact> 0.20845112E+00</totfact>
</mgrwt>
</event>
<event>
 4    1  0.4055965E-007  0.8087172E+03  0.7818608E-02  0.9692255E-01
          1   -1    0    0  501    0  0.00000000000E+00  0.00000000000E+00  0.33548275677E+04  0.33548275677E+04  0.50400000000E-02 0. -1.
         -1   -1    0    0    0  501 -0.00000000000E+00 -0.00000000000E+00 -0.48971644163E+03  0.48971644166E+03  0.50400000000E-02 0.  1.
    8880023    1    1    2    0    0 -0.29339958019E+03 -0.36623752725E+03  0.31652208156E+04  0.32669016297E+04  0.65864270000E+03 0.  0.
    8880022    1    1    2    0    0  0.29339958019E+03  0.36623752725E+03 -0.30010968956E+03  0.57764237968E+03  0.15294330000E+03 0.  1.
<mgrwt>
<rscale>  0 0.71479786E+03</rscale>
<asrwt>0</asrwt>
<pdfrwt beam="1">  1        1 0.51612732E+00 0.80871716E+03</pdfrwt>
<pdfrwt beam="2">  1       -1 0.75340991E-01 0.80871716E+03</pdfrwt>
<totfact> 0.61774885E-01</totfact>
</mgrwt>
</event>
<event>
 4    1  0.4055965E-007  0.8665312E+03  0.7818608E-02  0.9582050E-01
          1   -1    0    0  501    0  0.00000000000E+00  0.00000000000E+00  0.28542070705E+04  0.28542070705E+04  0.50400000000E-02 0. -1.
         -1   -1    0    0    0  501 -0.00000000000E+00 -0.00000000000E+00 -0.31148714594E+03  0.31148714598E+03  0.50400000000E-02 0.  1.
    8880023    1    1    2    0    0  0.18983773616E+03  0.53012046517E+03  0.24186095613E+04  0.25691532632E+04  0.65864270000E+03 0.  0.
    8880022    1    1    2    0    0 -0.18983773616E+03 -0.53012046517E+03  0.12411036328E+03  0.59654095328E+03  0.15294330000E+03 0.  1.
<mgrwt>
<rscale>  0 0.78495732E+03</rscale>
<asrwt>0</asrwt>
<pdfrwt beam="1">  1        1 0.43910876E+00 0.86653118E+03</pdfrwt>
<pdfrwt beam="2">  1       -1 0.47921101E-01 0.86653118E+03</pdfrwt>
<totfact> 0.34679411E+00</totfact>
</mgrwt>
</event>
<event>
 4    1  0.4055965E-007  0.9016531E+03  0.7818608E-02  0.9523383E-01
          1   -1    0    0  501    0  0.00000000000E+00  0.00000000000E+00  0.61185007701E+03  0.61185007704E+03  0.50400000000E-02 0. -1.
         -1   -1    0    0    0  501 -0.00000000000E+00 -0.00000000000E+00 -0.18821025884E+04  0.18821025884E+04  0.50400000000E-02 0.  1.
    8880023    1    1    2    0    0 -0.61576604018E+03 -0.53881244169E+00  0.17236026975E+03  0.91797950708E+03  0.65864270000E+03 0.  0.
    8880022    1    1    2    0    0  0.61576604018E+03  0.53881244169E+00 -0.14426127811E+04  0.15759731583E+04  0.15294330000E+03 0.  0.
<mgrwt>
<rscale>  0 0.82581621E+03</rscale>
<asrwt>0</asrwt>
<pdfrwt beam="1">  1        1 0.94130782E-01 0.90165310E+03</pdfrwt>
<pdfrwt beam="2">  1       -1 0.28955424E+00 0.90165310E+03</pdfrwt>
<totfact> 0.13194861E+00</totfact>
</mgrwt>
</event>
<event>
 4    1  0.4055965E-007  0.6808242E+03  0.7818608E-02  0.1008861E+00
          1   -1    0    0  501    0  0.00000000000E+00  0.00000000000E+00  0.51530274563E+03  0.51530274565E+03  0.50400000000E-02 0. -1.
         -1   -1    0    0    0  501 -0.00000000000E+00 -0.00000000000E+00 -0.11910842133E+04  0.11910842134E+04  0.50400000000E-02 0.  1.
    8880023    1    1    2    0    0 -0.10833406607E+03 -0.13407124717E+03  0.27039428862E+03  0.73255351120E+03  0.65864270000E+03 0. -1.
    8880022    1    1    2    0    0  0.10833406607E+03  0.13407124717E+03 -0.94617575633E+03  0.97383344781E+03  0.15294330000E+03 0.  0.
<mgrwt>
<rscale>  0 0.51929739E+03</rscale>
<asrwt>0</asrwt>
<pdfrwt beam="1">  1        1 0.79277346E-01 0.68082419E+03</pdfrwt>
<pdfrwt beam="2">  1       -1 0.18324372E+00 0.68082419E+03</pdfrwt>
<totfact> 0.87335409E+00</totfact>
</mgrwt>
</event>
<event>
 4    1  0.4055965E-007  0.6665678E+03  0.7818608E-02  0.1018253E+00
         -1   -1    0    0    0  501 -0.00000000000E+00  0.00000000000E+00  0.28960856182E+03  0.28960856186E+03  0.50400000000E-02 0.  1.
          1   -1    0    0  501    0  0.00000000000E+00 -0.00000000000E+00 -0.11886984729E+04  0.11886984729E+04  0.50400000000E-02 0. -1.
    8880023    1    1    2    0    0  0.27501748032E+02 -0.98721936562E+02 -0.10476593853E+04  0.12417337721E+04  0.65864270000E+03 0. -1.
    8880022    1    1    2    0    0 -0.27501748032E+02  0.98721936562E+02  0.14856947425E+03  0.23657326264E+03  0.15294330000E+03 0.  0.
<mgrwt>
<rscale>  0 0.48322413E+03</rscale>
<asrwt>0</asrwt>
<pdfrwt beam="1">  1        1 0.18287668E+00 0.66656776E+03</pdfrwt>
<pdfrwt beam="2">  1       -1 0.44555164E-01 0.66656776E+03</pdfrwt>
<totfact> 0.56173609E+01</totfact>
</mgrwt>
</event>
<event>
 4    1  0.4055965E-007  0.6784609E+03  0.7818608E-02  0.1010208E+00
          1   -1    0    0  501    0  0.00000000000E+00  0.00000000000E+00  0.94984879707E+03  0.94984879708E+03  0.50400000000E-02 0. -1.
         -1   -1    0    0    0  501 -0.00000000000E+00 -0.00000000000E+00 -0.11565656554E+04  0.11565656554E+04  0.50400000000E-02 0.  1.
    8880023    1    1    2    0    0 -0.10702478089E+03 -0.12265665663E+03  0.81507270065E+03  0.10604964275E+04  0.65864270000E+03 0. -1.
    8880022    1    1    2    0    0  0.10702478089E+03  0.12265665663E+03 -0.10217895590E+04  0.10459180250E+04  0.15294330000E+03 0.  0.
<mgrwt>
<rscale>  0 0.51392052E+03</rscale>
<asrwt>0</asrwt>
<pdfrwt beam="1">  1        1 0.14613058E+00 0.67846088E+03</pdfrwt>
<pdfrwt beam="2">  1       -1 0.17793318E+00 0.67846088E+03</pdfrwt>
<totfact> 0.37540814E+00</totfact>
</mgrwt>
</event>
<event>
 4    1  0.4055965E-007  0.7502854E+03  0.7818608E-02  0.9830940E-01
          1   -1    0    0  501    0  0.00000000000E+00  0.00000000000E+00  0.17363536627E+04  0.17363536627E+04  0.50400000000E-02 0. -1.
         -1   -1    0    0    0  501 -0.00000000000E+00 -0.00000000000E+00 -0.35877243250E+03  0.35877243253E+03  0.50400000000E-02 0.  1.
    8880023    1    1    2    0    0 -0.34904349845E+03 -0.85361647443E+02  0.15072258077E+04  0.16836442072E+04  0.65864270000E+03 0.  0.
    8880022    1    1    2    0    0  0.34904349845E+03  0.85361647443E+02 -0.12964457755E+03  0.41148188802E+03  0.15294330000E+03 0.  0.
<mgrwt>
<rscale>  0 0.63728255E+03</rscale>
<asrwt>0</asrwt>
<pdfrwt beam="1">  1        1 0.26713133E+00 0.75028540E+03</pdfrwt>
<pdfrwt beam="2">  1       -1 0.55195759E-01 0.75028540E+03</pdfrwt>
<totfact> 0.15521427E+01</totfact>
</mgrwt>
</event>
<event>
 4    1  0.4055965E-007  0.7778987E+03  0.7818608E-02  0.9760796E-01
         -1   -1    0    0    0  501 -0.00000000000E+00  0.00000000000E+00  0.81593957161E+03  0.81593957162E+03  0.50400000000E-02 0.  1.
          1   -1    0    0  501    0  0.00000000000E+00 -0.00000000000E+00 -0.10152555101E+04  0.10152555101E+04  0.50400000000E-02 0. -1.
    8880023    1    1    2    0    0 -0.32279366544E+03  0.25907599892E+03 -0.78018441166E+03  0.11017322933E+04  0.65864270000E+03 0.  0.
    8880022    1    1    2    0    0  0.32279366544E+03 -0.25907599892E+03  0.58086847313E+03  0.72946278846E+03  0.15294330000E+03 0.  0.
<mgrwt>
<rscale>  0 0.67509545E+03</rscale>
<asrwt>0</asrwt>
<pdfrwt beam="1">  1        1 0.15619316E+00 0.77789866E+03</pdfrwt>
<pdfrwt beam="2">  1       -1 0.12552916E+00 0.77789866E+03</pdfrwt>
<totfact> 0.83938669E+00</totfact>
</mgrwt>
</event>
<event>
 4    1  0.4055965E-007  0.7884502E+03  0.7818608E-02  0.9736349E-01
          1   -1    0    0  501    0  0.00000000000E+00  0.00000000000E+00  0.42677472555E+04  0.42677472555E+04  0.50400000000E-02 0. -1.
         -1   -1    0    0    0  501 -0.00000000000E+00 -0.00000000000E+00 -0.18872846287E+03  0.18872846294E+03  0.50400000000E-02 0.  1.
    8880023    1    1    2    0    0 -0.36722612401E+03 -0.23019237836E+03  0.38736477042E+04  0.39530747906E+04  0.65864270000E+03 0. -1.
    8880022    1    1    2    0    0  0.36722612401E+03  0.23019237836E+03  0.20537108841E+03  0.50340092787E+03  0.15294330000E+03 0.  0.
<mgrwt>
<rscale>  0 0.68893223E+03</rscale>
<asrwt>0</asrwt>
<pdfrwt beam="1">  1        1 0.65657641E+00 0.78845023E+03</pdfrwt>
<pdfrwt beam="2">  1       -1 0.29035152E-01 0.78845023E+03</pdfrwt>
<totfact> 0.65368191E-01</totfact>
</mgrwt>
</event>
<event>
 4    1  0.5598964E-007  0.7009124E+03  0.7818608E-02  0.9993437E-01
          1   -1    0    0  501    0  0.00000000000E+00  0.00000000000E+00  0.22877984573E+04  0.22877984573E+04  0.50400000000E-02 0. -1.
         -1   -1    0    0    0  501 -0.00000000000E+00 -0.00000000000E+00 -0.83212416520E+03  0.83212416522E+03  0.50400000000E-02 0.  1.
    8880023    1    1    2    0    0  0.21692577946E+03  0.10203541459E+03  0.22075078865E+04  0.23161108123E+04  0.65864270000E+03 0. -1.
    8880022    1    1    2    0    0 -0.21692577946E+03 -0.10203541459E+03 -0.75183359438E+03  0.80381181024E+03  0.15294330000E+03 0.  0.
<mgrwt>
<rscale>  0 0.55938951E+03</rscale>
<asrwt>0</asrwt>
<pdfrwt beam="1">  1        1 0.35196899E+00 0.70091242E+03</pdfrwt>
<pdfrwt beam="2">  1       -1 0.12801910E+00 0.70091242E+03</pdfrwt>
<totfact> 0.10751809E+00</totfact>
</mgrwt>
</event>
<event>
 4    1  0.4055965E-007  0.6736944E+03  0.7818608E-02  0.1013142E+00
         -1   -1    0    0    0  501 -0.00000000000E+00  0.00000000000E+00  0.13196220337E+04  0.13196220337E+04  0.50400000000E-02 0.  1.
          1   -1    0    0  501    0  0.00000000000E+00 -0.00000000000E+00 -0.17483181615E+03  0.17483181623E+03  0.50400000000E-02 0. -1.
    8880023    1    1    2    0    0  0.13610641892E+03 -0.39101586398E+02  0.56809528843E+03  0.88124704501E+03  0.65864270000E+03 0. -1.
    8880022    1    1    2    0    0 -0.13610641892E+03  0.39101586398E+02  0.57669492908E+03  0.61320680490E+03  0.15294330000E+03 0.  0.
<mgrwt>
<rscale>  0 0.50244710E+03</rscale>
<asrwt>0</asrwt>
<pdfrwt beam="1">  1        1 0.26897202E-01 0.67369437E+03</pdfrwt>
<pdfrwt beam="2">  1       -1 0.20301878E+00 0.67369437E+03</pdfrwt>
<totfact> 0.26284092E+01</totfact>
</mgrwt>
</event>
<event>
 4    1  0.4055965E-007  0.1111712E+04  0.7818608E-02  0.9248127E-01
          1   -1    0    0  501    0  0.00000000000E+00  0.00000000000E+00  0.28313455788E+04  0.28313455788E+04  0.50400000000E-02 0. -1.
         -1   -1    0    0    0  501 -0.00000000000E+00 -0.00000000000E+00 -0.41338317181E+03  0.41338317184E+03  0.50400000000E-02 0.  1.
    8880023    1    1    2    0    0  0.18721079244E+03 -0.87581189421E+03  0.73663636953E+03  0.13336182745E+04  0.65864270000E+03 0.  0.
    8880022    1    1    2    0    0 -0.18721079244E+03  0.87581189421E+03  0.16813260374E+04  0.19111104761E+04  0.15294330000E+03 0.  0.
<mgrwt>
<rscale>  0 0.10570197E+04</rscale>
<asrwt>0</asrwt>
<pdfrwt beam="1">  1        1 0.43559163E+00 0.11117124E+04</pdfrwt>
<pdfrwt beam="2">  1       -1 0.63597411E-01 0.11117124E+04</pdfrwt>
<totfact> 0.20018868E+00</totfact>
</mgrwt>
</event>
<event>
 4    1  0.4055965E-007  0.1037473E+04  0.7818608E-02  0.9334095E-01
          1   -1    0    0  501    0  0.00000000000E+00  0.00000000000E+00  0.21009444590E+04  0.21009444590E+04  0.50400000000E-02 0. -1.
         -1   -1    0    0    0  501 -0.00000000000E+00 -0.00000000000E+00 -0.67887265018E+03  0.67887265019E+03  0.50400000000E-02 0.  1.
    8880023    1    1    2    0    0 -0.79462400679E+03 -0.10541214393E+03  0.16350616818E+04  0.19364338207E+04  0.65864270000E+03 0.  0.
    8880022    1    1    2    0    0  0.79462400679E+03  0.10541214393E+03 -0.21298987304E+03  0.84338328848E+03  0.15294330000E+03 0.  0.
<mgrwt>
<rscale>  0 0.97703716E+03</rscale>
<asrwt>0</asrwt>
<pdfrwt beam="1">  1        1 0.32322222E+00 0.10374725E+04</pdfrwt>
<pdfrwt beam="2">  1       -1 0.10444195E+00 0.10374725E+04</pdfrwt>
<totfact> 0.22090824E+00</totfact>
</mgrwt>
</event>
<event>
 4    1  0.4055965E-007  0.7995162E+03  0.7818608E-02  0.9711843E-01
         -1   -1    0    0    0  501 -0.00000000000E+00  0.00000000000E+00  0.21229060662E+03  0.21229060668E+03  0.50400000000E-02 0.  1.
          1   -1    0    0  501    0  0.00000000000E+00 -0.00000000000E+00 -0.19397759114E+04  0.19397759114E+04  0.50400000000E-02 0. -1.
    8880023    1    1    2    0    0 -0.44013452201E+03 -0.10815526213E+03 -0.98198072433E+03  0.12662986644E+04  0.65864270000E+03 0. -1.
    8880022    1    1    2    0    0  0.44013452201E+03  0.10815526213E+03 -0.74550458048E+03  0.88576785374E+03  0.15294330000E+03 0.  1.
<mgrwt>
<rscale>  0 0.70316017E+03</rscale>
<asrwt>0</asrwt>
<pdfrwt beam="1">  1        1 0.29842705E+00 0.79951621E+03</pdfrwt>
<pdfrwt beam="2">  1       -1 0.32660095E-01 0.79951621E+03</pdfrwt>
<totfact> 0.29624828E+01</totfact>
</mgrwt>
</event>
<event>
 4    1  0.4055965E-007  0.7548775E+03  0.7818608E-02  0.9818554E-01
         -1   -1    0    0    0  501 -0.00000000000E+00  0.00000000000E+00  0.65488812339E+03  0.65488812341E+03  0.50400000000E-02 0.  1.
          1   -1    0    0  501    0  0.00000000000E+00 -0.00000000000E+00 -0.21836001543E+04  0.21836001543E+04  0.50400000000E-02 0. -1.
    8880023    1    1    2    0    0  0.21414794922E+03 -0.30028393109E+03 -0.20484351299E+04  0.21831001972E+04  0.65864270000E+03 0. -1.
    8880022    1    1    2    0    0 -0.21414794922E+03  0.30028393109E+03  0.51972309899E+03  0.65538808050E+03  0.15294330000E+03 0.  0.
<mgrwt>
<rscale>  0 0.64376252E+03</rscale>
<asrwt>0</asrwt>
<pdfrwt beam="1">  1        1 0.33593848E+00 0.75487747E+03</pdfrwt>
<pdfrwt beam="2">  1       -1 0.10075202E+00 0.75487747E+03</pdfrwt>
<totfact> 0.22122193E+00</totfact>
</mgrwt>
</event>
<event>
 4    1  0.4055965E-007  0.7330595E+03  0.7818608E-02  0.9880646E-01
          1   -1    0    0  501    0  0.00000000000E+00  0.00000000000E+00  0.18916954618E+04  0.18916954618E+04  0.50400000000E-02 0. -1.
         -1   -1    0    0    0  501 -0.00000000000E+00 -0.00000000000E+00 -0.25060651500E+03  0.25060651505E+03  0.50400000000E-02 0.  1.
    8880023    1    1    2    0    0 -0.30474891128E+03  0.10341218348E+03  0.16283660534E+04  0.17857637550E+04  0.65864270000E+03 0. -1.
    8880022    1    1    2    0    0  0.30474891128E+03 -0.10341218348E+03  0.12722893437E+02  0.35653822187E+03  0.15294330000E+03 0.  0.
<mgrwt>
<rscale>  0 0.61208503E+03</rscale>
<asrwt>0</asrwt>
<pdfrwt beam="1">  1        1 0.29103007E+00 0.73305947E+03</pdfrwt>
<pdfrwt beam="2">  1       -1 0.38554848E-01 0.73305947E+03</pdfrwt>
<totfact> 0.23924033E+01</totfact>
</mgrwt>
</event>
<event>
 4    1  0.4055965E-007  0.8694188E+03  0.7818608E-02  0.9577024E-01
          1   -1    0    0  501    0  0.00000000000E+00  0.00000000000E+00  0.75505099883E+03  0.75505099885E+03  0.50400000000E-02 0. -1.
         -1   -1    0    0    0  501 -0.00000000000E+00 -0.00000000000E+00 -0.24418541905E+04  0.24418541905E+04  0.50400000000E-02 0.  1.
    8880023    1    1    2    0    0  0.10617220863E+03  0.55750011032E+03  0.45123856346E+03  0.97954344381E+03  0.65864270000E+03 0. -1.
    8880022    1    1    2    0    0 -0.10617220863E+03 -0.55750011032E+03 -0.21380417551E+04  0.22173617455E+04  0.15294330000E+03 0.  0.
<mgrwt>
<rscale>  0 0.78835743E+03</rscale>
<asrwt>0</asrwt>
<pdfrwt beam="1">  1        1 0.11616169E+00 0.86941884E+03</pdfrwt>
<pdfrwt beam="2">  1       -1 0.37566987E+00 0.86941884E+03</pdfrwt>
<totfact> 0.26569015E-01</totfact>
</mgrwt>
</event>
<event>
 4    1  0.4055965E-007  0.6683742E+03  0.7818608E-02  0.1016856E+00
         -1   -1    0    0    0  501 -0.00000000000E+00  0.00000000000E+00  0.67367647671E+03  0.67367647672E+03  0.50400000000E-02 0.  1.
          1   -1    0    0  501    0  0.00000000000E+00 -0.00000000000E+00 -0.66256145859E+03  0.66256145861E+03  0.50400000000E-02 0. -1.
    8880023    1    1    2    0    0 -0.43124495129E+02 -0.10513896162E+03 -0.47111803666E+03  0.81772631978E+03  0.65864270000E+03 0. -1.
    8880022    1    1    2    0    0  0.43124495129E+02  0.10513896162E+03  0.48223305478E+03  0.51851161555E+03  0.15294330000E+03 0.  0.
<mgrwt>
<rscale>  0 0.48838402E+03</rscale>
<asrwt>0</asrwt>
<pdfrwt beam="1">  1        1 0.10193253E+00 0.66837424E+03</pdfrwt>
<pdfrwt beam="2">  1       -1 0.10364253E+00 0.66837424E+03</pdfrwt>
<totfact> 0.26874207E+01</totfact>
</mgrwt>
</event>
<event>
 4    1  0.4055965E-007  0.8108280E+03  0.7818608E-02  0.9687855E-01
          1   -1    0    0  501    0  0.00000000000E+00  0.00000000000E+00  0.58763427985E+03  0.58763427987E+03  0.50400000000E-02 0. -1.
         -1   -1    0    0    0  501 -0.00000000000E+00 -0.00000000000E+00 -0.21880267886E+04  0.21880267886E+04  0.50400000000E-02 0.  1.
    8880023    1    1    2    0    0 -0.22873618535E+03  0.41389805041E+03  0.25884210991E+03  0.85114116499E+03  0.65864270000E+03 0.  0.
    8880022    1    1    2    0    0  0.22873618535E+03 -0.41389805041E+03 -0.18592346186E+04  0.19245199034E+04  0.15294330000E+03 0.  0.
<mgrwt>
<rscale>  0 0.71744537E+03</rscale>
<asrwt>0</asrwt>
<pdfrwt beam="1">  1        1 0.90405275E-01 0.81082800E+03</pdfrwt>
<pdfrwt beam="2">  1       -1 0.33661950E+00 0.81082800E+03</pdfrwt>
<totfact> 0.70643771E-01</totfact>
</mgrwt>
</event>
<event>
 4    1  0.4055965E-007  0.9601039E+03  0.7818608E-02  0.9435723E-01
         -1   -1    0    0    0  501 -0.00000000000E+00  0.00000000000E+00  0.13747053510E+04  0.13747053510E+04  0.50400000000E-02 0.  1.
          1   -1    0    0  501    0  0.00000000000E+00 -0.00000000000E+00 -0.67874502089E+03  0.67874502091E+03  0.50400000000E-02 0. -1.
    8880023    1    1    2    0    0  0.55206990829E+02  0.69637745120E+03  0.89351808618E+03  0.13115540946E+04  0.65864270000E+03 0.  0.
    8880022    1    1    2    0    0 -0.55206990829E+02 -0.69637745120E+03 -0.19755775606E+03  0.74189627737E+03  0.15294330000E+03 0.  0.
<mgrwt>
<rscale>  0 0.89193204E+03</rscale>
<asrwt>0</asrwt>
<pdfrwt beam="1">  1        1 0.10442231E+00 0.96010394E+03</pdfrwt>
<pdfrwt beam="2">  1       -1 0.21149313E+00 0.96010394E+03</pdfrwt>
<totfact> 0.36196490E+00</totfact>
</mgrwt>
</event>
<event>
 4    1  0.4055965E-007  0.7106026E+03  0.7818608E-02  0.9955770E-01
         -1   -1    0    0    0  501 -0.00000000000E+00  0.00000000000E+00  0.70752567268E+03  0.70752567269E+03  0.50400000000E-02 0.  1.
          1   -1    0    0  501    0  0.00000000000E+00 -0.00000000000E+00 -0.88227342052E+03  0.88227342054E+03  0.50400000000E-02 0. -1.
    8880023    1    1    2    0    0  0.22009872773E+03 -0.15067305812E+03 -0.68954842601E+03  0.99016819706E+03  0.65864270000E+03 0.  0.
    8880022    1    1    2    0    0 -0.22009872773E+03  0.15067305812E+03  0.51480067817E+03  0.59963089617E+03  0.15294330000E+03 0.  0.
<mgrwt>
<rscale>  0 0.57632915E+03</rscale>
<asrwt>0</asrwt>
<pdfrwt beam="1">  1        1 0.13573437E+00 0.71060258E+03</pdfrwt>
<pdfrwt beam="2">  1       -1 0.10885010E+00 0.71060258E+03</pdfrwt>
<totfact> 0.15235601E+01</totfact>
</mgrwt>
</event>
<event>
 4    1  0.4055965E-007  0.6873177E+03  0.7818608E-02  0.1005454E+00
         -1   -1    0    0    0  501 -0.00000000000E+00  0.00000000000E+00  0.58415338178E+03  0.58415338181E+03  0.50400000000E-02 0.  1.
          1   -1    0    0  501    0  0.00000000000E+00 -0.00000000000E+00 -0.96967689261E+03  0.96967689263E+03  0.50400000000E-02 0. -1.
    8880023    1    1    2    0    0 -0.13498976747E+03 -0.14273453812E+03 -0.80963926229E+03  0.10620364057E+04  0.65864270000E+03 0. -1.
    8880022    1    1    2    0    0  0.13498976747E+03  0.14273453812E+03  0.42411575146E+03  0.49179386875E+03  0.15294330000E+03 0.  0.
<mgrwt>
<rscale>  0 0.53321916E+03</rscale>
<asrwt>0</asrwt>
<pdfrwt beam="1">  1        1 0.14918106E+00 0.68731768E+03</pdfrwt>
<pdfrwt beam="2">  1       -1 0.89869751E-01 0.68731768E+03</pdfrwt>
<totfact> 0.20090305E+01</totfact>
</mgrwt>
</event>
<event>
 4    1  0.4055965E-007  0.1024582E+04  0.7818608E-02  0.9350080E-01
          1   -1    0    0  501    0  0.00000000000E+00  0.00000000000E+00  0.26929430887E+04  0.26929430887E+04  0.50400000000E-02 0. -1.
         -1   -1    0    0    0  501 -0.00000000000E+00 -0.00000000000E+00 -0.38657574469E+03  0.38657574472E+03  0.50400000000E-02 0.  1.
    8880023    1    1    2    0    0 -0.69923444936E+03 -0.35641258399E+03  0.19527504064E+04  0.22052217805E+04  0.65864270000E+03 0.  0.
    8880022    1    1    2    0    0  0.69923444936E+03  0.35641258399E+03  0.35361693763E+03  0.87429705295E+03  0.15294330000E+03 0.  0.
<mgrwt>
<rscale>  0 0.96300272E+03</rscale>
<asrwt>0</asrwt>
<pdfrwt beam="1">  1        1 0.41429896E+00 0.10245823E+04</pdfrwt>
<pdfrwt beam="2">  1       -1 0.59473189E-01 0.10245823E+04</pdfrwt>
<totfact> 0.28980739E+00</totfact>
</mgrwt>
</event>
<event>
 4    1  0.4055965E-007  0.8460201E+03  0.7818608E-02  0.9618932E-01
         -1   -1    0    0    0  501 -0.00000000000E+00  0.00000000000E+00  0.45858884630E+03  0.45858884633E+03  0.50400000000E-02 0.  1.
          1   -1    0    0  501    0  0.00000000000E+00 -0.00000000000E+00 -0.14163676168E+04  0.14163676168E+04  0.50400000000E-02 0. -1.
    8880023    1    1    2    0    0  0.45211382077E+03  0.27844741324E+03 -0.96286472594E+02  0.85148174375E+03  0.65864270000E+03 0.  1.
    8880022    1    1    2    0    0 -0.45211382077E+03 -0.27844741324E+03 -0.86149229789E+03  0.10234747194E+04  0.15294330000E+03 0.  0.
<mgrwt>
<rscale>  0 0.76055737E+03</rscale>
<asrwt>0</asrwt>
<pdfrwt beam="1">  1        1 0.21790271E+00 0.84602014E+03</pdfrwt>
<pdfrwt beam="2">  1       -1 0.70552131E-01 0.84602014E+03</pdfrwt>
<totfact> 0.15528639E+01</totfact>
</mgrwt>
</event>
<event>
 4    1  0.4055965E-007  0.6827805E+03  0.7818608E-02  0.1007793E+00
          1   -1    0    0  501    0  0.00000000000E+00  0.00000000000E+00  0.35134873397E+04  0.35134873397E+04  0.50400000000E-02 0. -1.
         -1   -1    0    0    0  501 -0.00000000000E+00 -0.00000000000E+00 -0.10869421899E+03  0.10869421911E+03  0.50400000000E-02 0.  1.
    8880023    1    1    2    0    0  0.17773183497E+03  0.28115251345E+02  0.32890733627E+04  0.33591952703E+04  0.65864270000E+03 0. -1.
    8880022    1    1    2    0    0 -0.17773183497E+03 -0.28115251345E+02  0.11571975797E+03  0.26298628847E+03  0.15294330000E+03 0.  0.
<mgrwt>
<rscale>  0 0.52361447E+03</rscale>
<asrwt>0</asrwt>
<pdfrwt beam="1">  1        1 0.54053635E+00 0.68278055E+03</pdfrwt>
<pdfrwt beam="2">  1       -1 0.16722193E-01 0.68278055E+03</pdfrwt>
<totfact> 0.73214394E+00</totfact>
</mgrwt>
</event>
<event>
 4    1  0.4055965E-007  0.6623931E+03  0.7818608E-02  0.1021828E+00
         -1   -1    0    0    0  501 -0.00000000000E+00  0.00000000000E+00  0.53852660139E+03  0.53852660141E+03  0.50400000000E-02 0.  1.
          1   -1    0    0  501    0  0.00000000000E+00 -0.00000000000E+00 -0.66598541133E+03  0.66598541135E+03  0.50400000000E-02 0. -1.
    8880023    1    1    2    0    0  0.64228555479E+02  0.28793165174E+02 -0.47718066586E+03  0.81637365700E+03  0.65864270000E+03 0. -1.
    8880022    1    1    2    0    0 -0.64228555479E+02 -0.28793165174E+02  0.34972185591E+03  0.38813835577E+03  0.15294330000E+03 0.  0.
<mgrwt>
<rscale>  0 0.47032527E+03</rscale>
<asrwt>0</asrwt>
<pdfrwt beam="1">  1        1 0.10245929E+00 0.66239306E+03</pdfrwt>
<pdfrwt beam="2">  1       -1 0.82850246E-01 0.66239306E+03</pdfrwt>
<totfact> 0.43853955E+01</totfact>
</mgrwt>
</event>
<event>
 4    1  0.4055965E-007  0.6776613E+03  0.7818608E-02  0.1010679E+00
          1   -1    0    0  501    0  0.00000000000E+00  0.00000000000E+00  0.18310420231E+04  0.18310420231E+04  0.50400000000E-02 0. -1.
         -1   -1    0    0    0  501 -0.00000000000E+00 -0.00000000000E+00 -0.28789467744E+03  0.28789467749E+03  0.50400000000E-02 0.  1.
    8880023    1    1    2    0    0  0.67807200253E+02 -0.14428028655E+03  0.17117627280E+04  0.18410204944E+04  0.65864270000E+03 0. -1.
    8880022    1    1    2    0    0 -0.67807200253E+02  0.14428028655E+03 -0.16861538235E+03  0.27791620621E+03  0.15294330000E+03 0.  0.
<mgrwt>
<rscale>  0 0.51205777E+03</rscale>
<asrwt>0</asrwt>
<pdfrwt beam="1">  1        1 0.28169878E+00 0.67766129E+03</pdfrwt>
<pdfrwt beam="2">  1       -1 0.44291488E-01 0.67766129E+03</pdfrwt>
<totfact> 0.20547136E+01</totfact>
</mgrwt>
</event>
<event>
 4    1  0.4055965E-007  0.8386684E+03  0.7818608E-02  0.9632696E-01
         -1   -1    0    0    0  501 -0.00000000000E+00  0.00000000000E+00  0.97184009973E+03  0.97184009974E+03  0.50400000000E-02 0.  1.
          1   -1    0    0  501    0  0.00000000000E+00 -0.00000000000E+00 -0.51335983764E+03  0.51335983766E+03  0.50400000000E-02 0. -1.
    8880023    1    1    2    0    0  0.85520381599E+02  0.51209439007E+03  0.12097795473E+03  0.84734896696E+03  0.65864270000E+03 0.  0.
    8880022    1    1    2    0    0 -0.85520381599E+02 -0.51209439007E+03  0.33750230736E+03  0.63785097044E+03  0.15294330000E+03 0. -1.
<mgrwt>
<rscale>  0 0.75169411E+03</rscale>
<asrwt>0</asrwt>
<pdfrwt beam="1">  1        1 0.78978437E-01 0.83866835E+03</pdfrwt>
<pdfrwt beam="2">  1       -1 0.14951386E+00 0.83866835E+03</pdfrwt>
<totfact> 0.15308667E+01</totfact>
</mgrwt>
</event>
<event>
 4    1  0.4055965E-007  0.6603025E+03  0.7818608E-02  0.1023849E+00
         -1   -1    0    0    0  501 -0.00000000000E+00  0.00000000000E+00  0.20797508019E+03  0.20797508025E+03  0.50400000000E-02 0.  1.
          1   -1    0    0  501    0  0.00000000000E+00 -0.00000000000E+00 -0.10960630573E+04  0.10960630573E+04  0.50400000000E-02 0. -1.
    8880023    1    1    2    0    0 -0.33384277596E+02 -0.32782380524E+02 -0.92823989019E+03  0.11391350642E+04  0.65864270000E+03 0.  0.
    8880022    1    1    2    0    0  0.33384277596E+02  0.32782380524E+02  0.40151913099E+02  0.16490307336E+03  0.15294330000E+03 0.  1.
<mgrwt>
<rscale>  0 0.46322989E+03</rscale>
<asrwt>0</asrwt>
<pdfrwt beam="1">  1        1 0.16862508E+00 0.66030251E+03</pdfrwt>
<pdfrwt beam="2">  1       -1 0.31996167E-01 0.66030251E+03</pdfrwt>
<totfact> 0.11926241E+02</totfact>
</mgrwt>
</event>
<event>
 4    1  0.4055965E-007  0.7463772E+03  0.7818608E-02  0.9841746E-01
         -1   -1    0    0    0  501 -0.00000000000E+00  0.00000000000E+00  0.58520962957E+03  0.58520962959E+03  0.50400000000E-02 0.  1.
          1   -1    0    0  501    0  0.00000000000E+00 -0.00000000000E+00 -0.89454619222E+03  0.89454619223E+03  0.50400000000E-02 0. -1.
    8880023    1    1    2    0    0 -0.31998844178E+03 -0.14448550798E+03 -0.63275491884E+03  0.97849765378E+03  0.65864270000E+03 0. -1.
    8880022    1    1    2    0    0  0.31998844178E+03  0.14448550798E+03  0.32341835619E+03  0.50125816803E+03  0.15294330000E+03 0.  0.
<mgrwt>
<rscale>  0 0.63169558E+03</rscale>
<asrwt>0</asrwt>
<pdfrwt beam="1">  1        1 0.13762249E+00 0.74637716E+03</pdfrwt>
<pdfrwt beam="2">  1       -1 0.90032250E-01 0.74637716E+03</pdfrwt>
<totfact> 0.22812785E+01</totfact>
</mgrwt>
</event>
<event>
 4    1  0.4055965E-007  0.1025267E+04  0.7818608E-02  0.9349223E-01
          1   -1    0    0  501    0  0.00000000000E+00  0.00000000000E+00  0.94532044465E+03  0.94532044466E+03  0.50400000000E-02 0. -1.
         -1   -1    0    0    0  501 -0.00000000000E+00 -0.00000000000E+00 -0.11059005224E+04  0.11059005224E+04  0.50400000000E-02 0.  1.
    8880023    1    1    2    0    0 -0.40269377766E+02 -0.78469075662E+03 -0.54733304415E+03  0.11622155023E+04  0.65864270000E+03 0.  1.
    8880022    1    1    2    0    0  0.40269377766E+02  0.78469075662E+03  0.38675296641E+03  0.88900546475E+03  0.15294330000E+03 0.  0.
<mgrwt>
<rscale>  0 0.96374890E+03</rscale>
<asrwt>0</asrwt>
<pdfrwt beam="1">  1        1 0.14543391E+00 0.10252665E+04</pdfrwt>
<pdfrwt beam="2">  1       -1 0.17013854E+00 0.10252665E+04</pdfrwt>
<totfact> 0.41040357E+00</totfact>
</mgrwt>
</event>
<event>
 4    1  0.6623240E-007  0.8765668E+03  0.7818608E-02  0.9564748E-01
          1   -1    0    0  501    0  0.00000000000E+00  0.00000000000E+00  0.14025317136E+04  0.14025317136E+04  0.50400000000E-02 0. -1.
         -1   -1    0    0    0  501 -0.00000000000E+00 -0.00000000000E+00 -0.17231202410E+04  0.17231202410E+04  0.50400000000E-02 0.  1.
    8880023    1    1    2    0    0  0.11161488178E+03 -0.56753967732E+03  0.12031849357E+04  0.14886313724E+04  0.65864270000E+03 0. -1.
    8880022    1    1    2    0    0 -0.11161488178E+03  0.56753967732E+03 -0.15237734630E+04  0.16370205822E+04  0.15294330000E+03 0.  0.
<mgrwt>
<rscale>  0 0.79674012E+03</rscale>
<asrwt>0</asrwt>
<pdfrwt beam="1">  1        1 0.21577411E+00 0.87656681E+03</pdfrwt>
<pdfrwt beam="2">  1       -1 0.26509542E+00 0.87656681E+03</pdfrwt>
<totfact> 0.44015395E-01</totfact>
</mgrwt>
</event>
<event>
 4    1  0.4055965E-007  0.1530666E+04  0.7818608E-02  0.8888280E-01
         -1   -1    0    0    0  501 -0.00000000000E+00  0.00000000000E+00  0.17537767510E+04  0.17537767510E+04  0.50400000000E-02 0.  1.
          1   -1    0    0  501    0  0.00000000000E+00 -0.00000000000E+00 -0.15132084687E+04  0.15132084688E+04  0.50400000000E-02 0. -1.
    8880023    1    1    2    0    0 -0.37621939263E+03  0.13295062091E+04 -0.59818595048E+03  0.16434002644E+04  0.65864270000E+03 0. -1.
    8880022    1    1    2    0    0  0.37621939263E+03 -0.13295062091E+04  0.83875423277E+03  0.16235849554E+04  0.15294330000E+03 0.  0.
<mgrwt>
<rscale>  0 0.14942587E+04</rscale>
<asrwt>0</asrwt>
<pdfrwt beam="1">  1        1 0.23280130E+00 0.15306659E+04</pdfrwt>
<pdfrwt beam="2">  1       -1 0.26981181E+00 0.15306659E+04</pdfrwt>
<totfact> 0.31269649E-01</totfact>
</mgrwt>
</event>
<event>
 4    1  0.4055965E-007  0.1210490E+04  0.7818608E-02  0.9146992E-01
         -1   -1    0    0    0  501 -0.00000000000E+00  0.00000000000E+00  0.11431614986E+04  0.11431614986E+04  0.50400000000E-02 0.  1.
          1   -1    0    0  501    0  0.00000000000E+00 -0.00000000000E+00 -0.19202193287E+04  0.19202193287E+04  0.50400000000E-02 0. -1.
    8880023    1    1    2    0    0  0.87437187789E+03  0.51667202921E+03 -0.14089225151E+04  0.18575115144E+04  0.65864270000E+03 0. -1.
    8880022    1    1    2    0    0 -0.87437187789E+03 -0.51667202921E+03  0.63186468494E+03  0.12058693129E+04  0.15294330000E+03 0.  0.
<mgrwt>
<rscale>  0 0.11617714E+04</rscale>
<asrwt>0</asrwt>
<pdfrwt beam="1">  1        1 0.29541836E+00 0.12104901E+04</pdfrwt>
<pdfrwt beam="2">  1       -1 0.17587100E+00 0.12104901E+04</pdfrwt>
<totfact> 0.73755458E-01</totfact>
</mgrwt>
</event>
<event>
 4    1  0.4055965E-007  0.7362380E+03  0.7818608E-02  0.9871044E-01
          1   -1    0    0  501    0  0.00000000000E+00  0.00000000000E+00  0.13441514573E+04  0.13441514573E+04  0.50400000000E-02 0. -1.
         -1   -1    0    0    0  501 -0.00000000000E+00 -0.00000000000E+00 -0.22948180880E+03  0.22948180885E+03  0.50400000000E-02 0.  1.
    8880023    1    1    2    0    0  0.31214716430E+03 -0.10392444641E+03  0.85016338862E+03  0.11246440043E+04  0.65864270000E+03 0.  1.
    8880022    1    1    2    0    0 -0.31214716430E+03  0.10392444641E+03  0.26450625984E+03  0.44898926184E+03  0.15294330000E+03 0.  0.
<mgrwt>
<rscale>  0 0.61685361E+03</rscale>
<asrwt>0</asrwt>
<pdfrwt beam="1">  1        1 0.20679253E+00 0.73623797E+03</pdfrwt>
<pdfrwt beam="2">  1       -1 0.35304894E-01 0.73623797E+03</pdfrwt>
<totfact> 0.65938900E+01</totfact>
</mgrwt>
</event>
<event>
 4    1  0.4055965E-007  0.1091418E+04  0.7818608E-02  0.9270672E-01
          1   -1    0    0  501    0  0.00000000000E+00  0.00000000000E+00  0.18290294125E+04  0.18290294125E+04  0.50400000000E-02 0. -1.
         -1   -1    0    0    0  501 -0.00000000000E+00 -0.00000000000E+00 -0.76322301332E+03  0.76322301334E+03  0.50400000000E-02 0.  1.
    8880023    1    1    2    0    0  0.29139892461E+03  0.82004184273E+03  0.12809115730E+04  0.16828329154E+04  0.65864270000E+03 0.  0.
    8880022    1    1    2    0    0 -0.29139892461E+03 -0.82004184273E+03 -0.21510517384E+03  0.90941951042E+03  0.15294330000E+03 0.  0.
<mgrwt>
<rscale>  0 0.10352824E+04</rscale>
<asrwt>0</asrwt>
<pdfrwt beam="1">  1        1 0.28138914E+00 0.10914175E+04</pdfrwt>
<pdfrwt beam="2">  1       -1 0.11741893E+00 0.10914175E+04</pdfrwt>
<totfact> 0.25331399E+00</totfact>
</mgrwt>
</event>
<event>
 4    1  0.4055965E-007  0.6776517E+03  0.7818608E-02  0.1010684E+00
         -1   -1    0    0    0  501 -0.00000000000E+00  0.00000000000E+00  0.20887188865E+03  0.20887188872E+03  0.50400000000E-02 0.  1.
          1   -1    0    0  501    0  0.00000000000E+00 -0.00000000000E+00 -0.14915180839E+04  0.14915180839E+04  0.50400000000E-02 0. -1.
    8880023    1    1    2    0    0 -0.14790484993E+03 -0.59378768728E+02 -0.13128662352E+04  0.14774402325E+04  0.65864270000E+03 0. -1.
    8880022    1    1    2    0    0  0.14790484993E+03  0.59378768728E+02  0.30220039920E+02  0.22294974016E+03  0.15294330000E+03 0.  0.
<mgrwt>
<rscale>  0 0.51203540E+03</rscale>
<asrwt>0</asrwt>
<pdfrwt beam="1">  1        1 0.22946431E+00 0.67765175E+03</pdfrwt>
<pdfrwt beam="2">  1       -1 0.32134138E-01 0.67765175E+03</pdfrwt>
<totfact> 0.61985462E+01</totfact>
</mgrwt>
</event>
<event>
 4    1  0.4055965E-007  0.7276641E+03  0.7818608E-02  0.9897458E-01
         -1   -1    0    0    0  501 -0.00000000000E+00  0.00000000000E+00  0.57967063976E+03  0.57967063978E+03  0.50400000000E-02 0.  1.
          1   -1    0    0  501    0  0.00000000000E+00 -0.00000000000E+00 -0.79268034245E+03  0.79268034247E+03  0.50400000000E-02 0. -1.
    8880023    1    1    2    0    0  0.18594880061E+03 -0.24720008546E+03 -0.53280778313E+03  0.90187536762E+03  0.65864270000E+03 0.  0.
    8880022    1    1    2    0    0 -0.18594880061E+03  0.24720008546E+03  0.31979808043E+03  0.47047561463E+03  0.15294330000E+03 0.  0.
<mgrwt>
<rscale>  0 0.60384638E+03</rscale>
<asrwt>0</asrwt>
<pdfrwt beam="1">  1        1 0.12195082E+00 0.72766410E+03</pdfrwt>
<pdfrwt beam="2">  1       -1 0.89180098E-01 0.72766410E+03</pdfrwt>
<totfact> 0.28437848E+01</totfact>
</mgrwt>
</event>
<event>
 4    1  0.4055965E-007  0.1061947E+04  0.7818608E-02  0.9304656E-01
         -1   -1    0    0    0  501 -0.00000000000E+00  0.00000000000E+00  0.10771498551E+04  0.10771498551E+04  0.50400000000E-02 0.  1.
          1   -1    0    0  501    0  0.00000000000E+00 -0.00000000000E+00 -0.13721314963E+04  0.13721314963E+04  0.50400000000E-02 0. -1.
    8880023    1    1    2    0    0  0.19376542344E+03  0.81016996330E+03 -0.91329146766E+03  0.14006541043E+04  0.65864270000E+03 0. -1.
    8880022    1    1    2    0    0 -0.19376542344E+03 -0.81016996330E+03  0.61830982644E+03  0.10486272470E+04  0.15294330000E+03 0.  0.
<mgrwt>
<rscale>  0 0.10035535E+04</rscale>
<asrwt>0</asrwt>
<pdfrwt beam="1">  1        1 0.21109715E+00 0.10619466E+04</pdfrwt>
<pdfrwt beam="2">  1       -1 0.16571536E+00 0.10619466E+04</pdfrwt>
<totfact> 0.21206706E+00</totfact>
</mgrwt>
</event>
<event>
 4    1  0.4055965E-007  0.9835464E+03  0.7818608E-02  0.9403408E-01
          1   -1    0    0  501    0  0.00000000000E+00  0.00000000000E+00  0.19147274821E+04  0.19147274822E+04  0.50400000000E-02 0. -1.
         -1   -1    0    0    0  501 -0.00000000000E+00 -0.00000000000E+00 -0.10051183871E+04  0.10051183871E+04  0.50400000000E-02 0.  1.
    8880023    1    1    2    0    0 -0.50345442414E+03 -0.52923238341E+03  0.16163133060E+04  0.18920444451E+04  0.65864270000E+03 0. -1.
    8880022    1    1    2    0    0  0.50345442414E+03  0.52923238341E+03 -0.70670421089E+03  0.10278014242E+04  0.15294330000E+03 0.  0.
<mgrwt>
<rscale>  0 0.91795769E+03</rscale>
<asrwt>0</asrwt>
<pdfrwt beam="1">  1        1 0.29457346E+00 0.98354638E+03</pdfrwt>
<pdfrwt beam="2">  1       -1 0.15463360E+00 0.98354638E+03</pdfrwt>
<totfact> 0.11074657E+00</totfact>
</mgrwt>
</event>
<event>
 4    1  0.4055965E-007  0.7389165E+03  0.7818608E-02  0.9863114E-01
         -1   -1    0    0    0  501 -0.00000000000E+00  0.00000000000E+00  0.15650359819E+04  0.15650359819E+04  0.50400000000E-02 0.  1.
          1   -1    0    0  501    0  0.00000000000E+00 -0.00000000000E+00 -0.29063428658E+03  0.29063428663E+03  0.50400000000E-02 0. -1.
    8880023    1    1    2    0    0  0.30261071318E+03  0.14357639849E+03  0.27134046052E+03  0.78716153216E+03  0.65864270000E+03 0.  0.
    8880022    1    1    2    0    0 -0.30261071318E+03 -0.14357639849E+03  0.10030612348E+04  0.10685087364E+04  0.15294330000E+03 0.  0.
<mgrwt>
<rscale>  0 0.62082703E+03</rscale>
<asrwt>0</asrwt>
<pdfrwt beam="1">  1        1 0.44712968E-01 0.73891653E+03</pdfrwt>
<pdfrwt beam="2">  1       -1 0.24077476E+00 0.73891653E+03</pdfrwt>
<totfact> 0.75953452E+00</totfact>
</mgrwt>
</event>
<event>
 4    1  0.4055965E-007  0.6901877E+03  0.7818608E-02  0.1004063E+00
          1   -1    0    0  501    0  0.00000000000E+00  0.00000000000E+00  0.11719860620E+04  0.11719860620E+04  0.50400000000E-02 0. -1.
         -1   -1    0    0    0  501 -0.00000000000E+00 -0.00000000000E+00 -0.40584556402E+03  0.40584556405E+03  0.50400000000E-02 0.  1.
    8880023    1    1    2    0    0  0.86644150912E+02  0.18719426948E+03  0.10102662509E+04  0.12235182906E+04  0.65864270000E+03 0. -1.
    8880022    1    1    2    0    0 -0.86644150912E+02 -0.18719426948E+03 -0.24412575295E+03  0.35431333546E+03  0.15294330000E+03 0.  0.
<mgrwt>
<rscale>  0 0.53903815E+03</rscale>
<asrwt>0</asrwt>
<pdfrwt beam="1">  1        1 0.18030555E+00 0.69018774E+03</pdfrwt>
<pdfrwt beam="2">  1       -1 0.62437779E-01 0.69018774E+03</pdfrwt>
<totfact> 0.30200504E+01</totfact>
</mgrwt>
</event>
<event>
 4    1  0.4055965E-007  0.1074751E+04  0.7818608E-02  0.9289703E-01
         -1   -1    0    0    0  501 -0.00000000000E+00  0.00000000000E+00  0.10159290223E+04  0.10159290224E+04  0.50400000000E-02 0.  1.
          1   -1    0    0  501    0  0.00000000000E+00 -0.00000000000E+00 -0.12102879983E+04  0.12102879983E+04  0.50400000000E-02 0. -1.
    8880023    1    1    2    0    0  0.60700679905E+02  0.84710940452E+03  0.43365722105E+03  0.11589424953E+04  0.65864270000E+03 0.  0.
    8880022    1    1    2    0    0 -0.60700679905E+02 -0.84710940452E+03 -0.62801619696E+03  0.10672745253E+04  0.15294330000E+03 0.  0.
<mgrwt>
<rscale>  0 0.10173639E+04</rscale>
<asrwt>0</asrwt>
<pdfrwt beam="1">  1        1 0.18619815E+00 0.10747507E+04</pdfrwt>
<pdfrwt beam="2">  1       -1 0.15629677E+00 0.10747507E+04</pdfrwt>
<totfact> 0.32575617E+00</totfact>
</mgrwt>
</event>
<event>
 4    1  0.4055965E-007  0.1269300E+04  0.7818608E-02  0.9092535E-01
          1   -1    0    0  501    0  0.00000000000E+00  0.00000000000E+00  0.22122350900E+04  0.22122350900E+04  0.50400000000E-02 0. -1.
         -1   -1    0    0    0  501 -0.00000000000E+00 -0.00000000000E+00 -0.86632426858E+03  0.86632426859E+03  0.50400000000E-02 0.  1.
    8880023    1    1    2    0    0  0.10271708671E+04 -0.34961805723E+03  0.15077602268E+04  0.19709043315E+04  0.65864270000E+03 0.  0.
    8880022    1    1    2    0    0 -0.10271708671E+04  0.34961805723E+03 -0.16184940530E+03  0.11076550272E+04  0.15294330000E+03 0.  0.
<mgrwt>
<rscale>  0 0.12234966E+04</rscale>
<asrwt>0</asrwt>
<pdfrwt beam="1">  1        1 0.34034386E+00 0.12693002E+04</pdfrwt>
<pdfrwt beam="2">  1       -1 0.13328066E+00 0.12693002E+04</pdfrwt>
<totfact> 0.99340743E-01</totfact>
</mgrwt>
</event>
<event>
 4    1  0.4055965E-007  0.7010056E+03  0.7818608E-02  0.9993055E-01
          1   -1    0    0  501    0  0.00000000000E+00  0.00000000000E+00  0.38019901370E+04  0.38019901370E+04  0.50400000000E-02 0. -1.
         -1   -1    0    0    0  501 -0.00000000000E+00 -0.00000000000E+00 -0.63983546944E+02  0.63983547142E+02  0.50400000000E-02 0.  1.
    8880023    1    1    2    0    0 -0.41993597252E+02  0.23629474633E+03  0.25848403527E+04  0.26782099478E+04  0.65864270000E+03 0.  1.
    8880022    1    1    2    0    0  0.41993597252E+02 -0.23629474633E+03  0.11531662373E+04  0.11877637363E+04  0.15294330000E+03 0. -1.
<mgrwt>
<rscale>  0 0.55955820E+03</rscale>
<asrwt>0</asrwt>
<pdfrwt beam="1">  1        1 0.58492159E+00 0.70100562E+03</pdfrwt>
<pdfrwt beam="2">  1       -1 0.98436221E-02 0.70100562E+03</pdfrwt>
<totfact> 0.10074519E+01</totfact>
</mgrwt>
</event>
<event>
 4    1  0.4055965E-007  0.6682554E+03  0.7818608E-02  0.1016946E+00
          1   -1    0    0  501    0  0.00000000000E+00  0.00000000000E+00  0.15616886154E+04  0.15616886154E+04  0.50400000000E-02 0. -1.
         -1   -1    0    0    0  501 -0.00000000000E+00 -0.00000000000E+00 -0.12002181721E+03  0.12002181732E+03  0.50400000000E-02 0.  1.
    8880023    1    1    2    0    0  0.90528391980E+02 -0.67525195354E+02  0.10233492297E+04  0.12222147495E+04  0.65864270000E+03 0. -1.
    8880022    1    1    2    0    0 -0.90528391980E+02  0.67525195354E+02  0.41831756855E+03  0.45949568326E+03  0.15294330000E+03 0. -1.
<mgrwt>
<rscale>  0 0.48805124E+03</rscale>
<asrwt>0</asrwt>
<pdfrwt beam="1">  1        1 0.24025978E+00 0.66825538E+03</pdfrwt>
<pdfrwt beam="2">  1       -1 0.18464895E-01 0.66825538E+03</pdfrwt>
<totfact> 0.14250364E+02</totfact>
</mgrwt>
</event>
<event>
 4    1  0.4055965E-007  0.6799883E+03  0.7818608E-02  0.1009330E+00
         -1   -1    0    0    0  501 -0.00000000000E+00  0.00000000000E+00  0.55778523932E+03  0.55778523935E+03  0.50400000000E-02 0.  1.
          1   -1    0    0  501    0  0.00000000000E+00 -0.00000000000E+00 -0.19090356643E+04  0.19090356643E+04  0.50400000000E-02 0. -1.
    8880023    1    1    2    0    0 -0.28818068332E+02 -0.16656331918E+03 -0.18214703401E+04  0.19442577572E+04  0.65864270000E+03 0. -1.
    8880022    1    1    2    0    0  0.28818068332E+02  0.16656331918E+03  0.47021991516E+03  0.52256314641E+03  0.15294330000E+03 0.  0.
<mgrwt>
<rscale>  0 0.51741667E+03</rscale>
<asrwt>0</asrwt>
<pdfrwt beam="1">  1        1 0.29369779E+00 0.67998825E+03</pdfrwt>
<pdfrwt beam="2">  1       -1 0.85813115E-01 0.67998825E+03</pdfrwt>
<totfact> 0.48927607E+00</totfact>
</mgrwt>
</event>
<event>
 4    1  0.4055965E-007  0.8833427E+03  0.7818608E-02  0.9553319E-01
         -1   -1    0    0    0  501 -0.00000000000E+00  0.00000000000E+00  0.43474336523E+03  0.43474336526E+03  0.50400000000E-02 0.  1.
          1   -1    0    0  501    0  0.00000000000E+00 -0.00000000000E+00 -0.16284926678E+04  0.16284926678E+04  0.50400000000E-02 0. -1.
    8880023    1    1    2    0    0  0.57336112165E+03  0.13319565973E+03 -0.11546698713E+04  0.14538076824E+04  0.65864270000E+03 0.  0.
    8880022    1    1    2    0    0 -0.57336112165E+03 -0.13319565973E+03 -0.39079431276E+02  0.60942835063E+03  0.15294330000E+03 0.  0.
<mgrwt>
<rscale>  0 0.80464420E+03</rscale>
<asrwt>0</asrwt>
<pdfrwt beam="1">  1        1 0.25053733E+00 0.88334267E+03</pdfrwt>
<pdfrwt beam="2">  1       -1 0.66883595E-01 0.88334267E+03</pdfrwt>
<totfact> 0.12329987E+01</totfact>
</mgrwt>
</event>
<event>
 4    1  0.6896858E-007  0.7607345E+03  0.7818608E-02  0.9803210E-01
         -1   -1    0    0    0  501 -0.00000000000E+00  0.00000000000E+00  0.17147080530E+04  0.17147080530E+04  0.50400000000E-02 0.  1.
          1   -1    0    0  501    0  0.00000000000E+00 -0.00000000000E+00 -0.15049520914E+04  0.15049520915E+04  0.50400000000E-02 0. -1.
    8880023    1    1    2    0    0 -0.23304583309E+03  0.30099230929E+03 -0.13811030553E+04  0.15767569839E+04  0.65864270000E+03 0. -1.
    8880022    1    1    2    0    0  0.23304583309E+03 -0.30099230929E+03  0.15908590168E+04  0.16429031605E+04  0.15294330000E+03 0.  0.
<mgrwt>
<rscale>  0 0.65190576E+03</rscale>
<asrwt>0</asrwt>
<pdfrwt beam="1">  1        1 0.23153109E+00 0.76073447E+03</pdfrwt>
<pdfrwt beam="2">  1       -1 0.26380124E+00 0.76073447E+03</pdfrwt>
<totfact> 0.39067262E-01</totfact>
</mgrwt>
</event>
<event>
 4    1  0.4055965E-007  0.7884275E+03  0.7818608E-02  0.9736400E-01
         -1   -1    0    0    0  501 -0.00000000000E+00  0.00000000000E+00  0.56306196271E+03  0.56306196273E+03  0.50400000000E-02 0.  1.
          1   -1    0    0  501    0  0.00000000000E+00 -0.00000000000E+00 -0.72730585050E+03  0.72730585052E+03  0.50400000000E-02 0. -1.
    8880023    1    1    2    0    0  0.17321899760E+03 -0.39724412742E+03 -0.24099813542E+03  0.82443800582E+03  0.65864270000E+03 0. -1.
    8880022    1    1    2    0    0 -0.17321899760E+03  0.39724412742E+03  0.76754247623E+02  0.46592980742E+03  0.15294330000E+03 0.  1.
<mgrwt>
<rscale>  0 0.68890272E+03</rscale>
<asrwt>0</asrwt>
<pdfrwt beam="1">  1        1 0.11189321E+00 0.78842750E+03</pdfrwt>
<pdfrwt beam="2">  1       -1 0.86624917E-01 0.78842750E+03</pdfrwt>
<totfact> 0.34445376E+01</totfact>
</mgrwt>
</event>
<event>
 4    1  0.4055965E-007  0.9883536E+03  0.7818608E-02  0.9396956E-01
          1   -1    0    0  501    0  0.00000000000E+00  0.00000000000E+00  0.20516764698E+04  0.20516764698E+04  0.50400000000E-02 0. -1.
         -1   -1    0    0    0  501 -0.00000000000E+00 -0.00000000000E+00 -0.11442931170E+04  0.11442931170E+04  0.50400000000E-02 0.  1.
    8880023    1    1    2    0    0  0.73199102659E+03  0.84980785708E+02  0.17846820095E+04  0.20400815372E+04  0.65864270000E+03 0. -1.
    8880022    1    1    2    0    0 -0.73199102659E+03 -0.84980785708E+02 -0.87729865677E+03  0.11558880496E+04  0.15294330000E+03 0.  0.
<mgrwt>
<rscale>  0 0.92326630E+03</rscale>
<asrwt>0</asrwt>
<pdfrwt beam="1">  1        1 0.31564254E+00 0.98835358E+03</pdfrwt>
<pdfrwt beam="2">  1       -1 0.17604509E+00 0.98835358E+03</pdfrwt>
<totfact> 0.61970269E-01</totfact>
</mgrwt>
</event>
<event>
 4    1  0.4055965E-007  0.7987562E+03  0.7818608E-02  0.9713492E-01
         -1   -1    0    0    0  501 -0.00000000000E+00  0.00000000000E+00  0.26479133287E+03  0.26479133292E+03  0.50400000000E-02 0.  1.
          1   -1    0    0  501    0  0.00000000000E+00 -0.00000000000E+00 -0.31667654116E+04  0.31667654116E+04  0.50400000000E-02 0. -1.
    8880023    1    1    2    0    0  0.34202792092E+03  0.29532711249E+03 -0.41671497445E+03  0.90092329210E+03  0.65864270000E+03 0.  1.
    8880022    1    1    2    0    0 -0.34202792092E+03 -0.29532711249E+03 -0.24852591043E+04  0.25306334524E+04  0.15294330000E+03 0.  0.
<mgrwt>
<rscale>  0 0.70219138E+03</rscale>
<asrwt>0</asrwt>
<pdfrwt beam="1">  1        1 0.48719465E+00 0.79875616E+03</pdfrwt>
<pdfrwt beam="2">  1       -1 0.40737131E-01 0.79875616E+03</pdfrwt>
<totfact> 0.28253624E+00</totfact>
</mgrwt>
</event>
<event>
 4    1  0.4055965E-007  0.7530434E+03  0.7818608E-02  0.9823462E-01
         -1   -1    0    0    0  501 -0.00000000000E+00  0.00000000000E+00  0.12791185959E+04  0.12791185959E+04  0.50400000000E-02 0.  1.
          1   -1    0    0  501    0  0.00000000000E+00 -0.00000000000E+00 -0.53928484590E+03  0.53928484593E+03  0.50400000000E-02 0. -1.
    8880023    1    1    2    0    0 -0.63209071642E+02 -0.35953965777E+03 -0.21637798265E+03  0.78351374582E+03  0.65864270000E+03 0. -1.
    8880022    1    1    2    0    0  0.63209071642E+02  0.35953965777E+03  0.95621173261E+03  0.10348896960E+04  0.15294330000E+03 0.  0.
<mgrwt>
<rscale>  0 0.64118494E+03</rscale>
<asrwt>0</asrwt>
<pdfrwt beam="1">  1        1 0.82966900E-01 0.75304340E+03</pdfrwt>
<pdfrwt beam="2">  1       -1 0.19678747E+00 0.75304340E+03</pdfrwt>
<totfact> 0.65313556E+00</totfact>
</mgrwt>
</event>
<event>
 4    1  0.4055965E-007  0.8648379E+03  0.7818608E-02  0.9585015E-01
         -1   -1    0    0    0  501 -0.00000000000E+00  0.00000000000E+00  0.57317687272E+03  0.57317687274E+03  0.50400000000E-02 0.  1.
          1   -1    0    0  501    0  0.00000000000E+00 -0.00000000000E+00 -0.34081871124E+04  0.34081871124E+04  0.50400000000E-02 0. -1.
    8880023    1    1    2    0    0 -0.55024033442E+03  0.10663006158E+03 -0.31868813396E+04  0.33021443449E+04  0.65864270000E+03 0.  0.
    8880022    1    1    2    0    0  0.55024033442E+03 -0.10663006158E+03  0.35187109994E+03  0.67921964021E+03  0.15294330000E+03 0.  1.
<mgrwt>
<rscale>  0 0.78295977E+03</rscale>
<asrwt>0</asrwt>
<pdfrwt beam="1">  1        1 0.52433647E+00 0.86483790E+03</pdfrwt>
<pdfrwt beam="2">  1       -1 0.88181059E-01 0.86483790E+03</pdfrwt>
<totfact> 0.39694194E-01</totfact>
</mgrwt>
</event>
<event>
 4    1  0.4055965E-007  0.1161499E+04  0.7818608E-02  0.9195488E-01
         -1   -1    0    0    0  501 -0.00000000000E+00  0.00000000000E+00  0.81241718833E+03  0.81241718834E+03  0.50400000000E-02 0.  1.
          1   -1    0    0  501    0  0.00000000000E+00 -0.00000000000E+00 -0.16775124711E+04  0.16775124711E+04  0.50400000000E-02 0. -1.
    8880023    1    1    2    0    0 -0.75888995468E+03  0.58254297157E+03 -0.97286809301E+03  0.15151081842E+04  0.65864270000E+03 0.  0.
    8880022    1    1    2    0    0  0.75888995468E+03 -0.58254297157E+03  0.10777281025E+03  0.97482147528E+03  0.15294330000E+03 0.  0.
<mgrwt>
<rscale>  0 0.11100124E+04</rscale>
<asrwt>0</asrwt>
<pdfrwt beam="1">  1        1 0.25807884E+00 0.11614992E+04</pdfrwt>
<pdfrwt beam="2">  1       -1 0.12498726E+00 0.11614992E+04</pdfrwt>
<totfact> 0.27283416E+00</totfact>
</mgrwt>
</event>
<event>
 4    1  0.4055965E-007  0.7638437E+03  0.7818608E-02  0.9795256E-01
          1   -1    0    0  501    0  0.00000000000E+00  0.00000000000E+00  0.19088252002E+04  0.19088252002E+04  0.50400000000E-02 0. -1.
         -1   -1    0    0    0  501 -0.00000000000E+00 -0.00000000000E+00 -0.26748291725E+03  0.26748291730E+03  0.50400000000E-02 0.  1.
    8880023    1    1    2    0    0 -0.32129768746E+03  0.21544106957E+03  0.15811617547E+04  0.17559982230E+04  0.65864270000E+03 0. -1.
    8880022    1    1    2    0    0  0.32129768746E+03 -0.21544106957E+03  0.60180528261E+02  0.42030989451E+03  0.15294330000E+03 0.  0.
<mgrwt>
<rscale>  0 0.65617745E+03</rscale>
<asrwt>0</asrwt>
<pdfrwt beam="1">  1        1 0.29366542E+00 0.76384374E+03</pdfrwt>
<pdfrwt beam="2">  1       -1 0.41151218E-01 0.76384374E+03</pdfrwt>
<totfact> 0.20611896E+01</totfact>
</mgrwt>
</event>
<event>
 4    1  0.4055965E-007  0.9139614E+03  0.7818608E-02  0.9503981E-01
          1   -1    0    0  501    0  0.00000000000E+00  0.00000000000E+00  0.43371173665E+03  0.43371173668E+03  0.50400000000E-02 0. -1.
         -1   -1    0    0    0  501 -0.00000000000E+00 -0.00000000000E+00 -0.18640623918E+04  0.18640623919E+04  0.50400000000E-02 0.  1.
    8880023    1    1    2    0    0 -0.62441636607E+03 -0.10779355150E+03 -0.24697466425E+03  0.94674280510E+03  0.65864270000E+03 0.  0.
    8880022    1    1    2    0    0  0.62441636607E+03  0.10779355150E+03 -0.11833759909E+04  0.13510313234E+04  0.15294330000E+03 0. -1.
<mgrwt>
<rscale>  0 0.83990974E+03</rscale>
<asrwt>0</asrwt>
<pdfrwt beam="1">  1        1 0.66724883E-01 0.91396141E+03</pdfrwt>
<pdfrwt beam="2">  1       -1 0.28677883E+00 0.91396141E+03</pdfrwt>
<totfact> 0.22171366E+00</totfact>
</mgrwt>
</event>
<event>
 4    1  0.4176112E-007  0.7347438E+03  0.7818608E-02  0.9875531E-01
          1   -1    0    0  501    0  0.00000000000E+00  0.00000000000E+00  0.12031749743E+04  0.12031749743E+04  0.50400000000E-02 0. -1.
         -1   -1    0    0    0  501 -0.00000000000E+00 -0.00000000000E+00 -0.90457112461E+03  0.90457112462E+03  0.50400000000E-02 0.  1.
    8880023    1    1    2    0    0 -0.27667770684E+03  0.17171964481E+03  0.10460021412E+04  0.12782679201E+04  0.65864270000E+03 0.  0.
    8880022    1    1    2    0    0  0.27667770684E+03 -0.17171964481E+03 -0.74739829155E+03  0.82947817880E+03  0.15294330000E+03 0.  1.
<mgrwt>
<rscale>  0 0.61461936E+03</rscale>
<asrwt>0</asrwt>
<pdfrwt beam="1">  1        1 0.18510384E+00 0.73474376E+03</pdfrwt>
<pdfrwt beam="2">  1       -1 0.13916479E+00 0.73474376E+03</pdfrwt>
<totfact> 0.47119505E+00</totfact>
</mgrwt>
</event>
<event>
 4    1  0.4055965E-007  0.7437248E+03  0.7818608E-02  0.9849227E-01
          1   -1    0    0  501    0  0.00000000000E+00  0.00000000000E+00  0.89626357615E+03  0.89626357616E+03  0.50400000000E-02 0. -1.
         -1   -1    0    0    0  501 -0.00000000000E+00 -0.00000000000E+00 -0.86512229354E+03  0.86512229355E+03  0.50400000000E-02 0.  1.
    8880023    1    1    2    0    0 -0.33357190485E+03  0.89700043452E+02  0.68184173444E+03  0.10089770417E+04  0.65864270000E+03 0. -1.
    8880022    1    1    2    0    0  0.33357190485E+03 -0.89700043452E+02 -0.65070045184E+03  0.75240882806E+03  0.15294330000E+03 0.  0.
<mgrwt>
<rscale>  0 0.62786346E+03</rscale>
<asrwt>0</asrwt>
<pdfrwt beam="1">  1        1 0.13788670E+00 0.74372476E+03</pdfrwt>
<pdfrwt beam="2">  1       -1 0.13309574E+00 0.74372476E+03</pdfrwt>
<totfact> 0.90450275E+00</totfact>
</mgrwt>
</event>
<event>
 4    1  0.4055965E-007  0.1167052E+04  0.7818608E-02  0.9189834E-01
         -1   -1    0    0    0  501 -0.00000000000E+00  0.00000000000E+00  0.16464038074E+04  0.16464038074E+04  0.50400000000E-02 0.  1.
          1   -1    0    0  501    0  0.00000000000E+00 -0.00000000000E+00 -0.90600307030E+03  0.90600307031E+03  0.50400000000E-02 0. -1.
    8880023    1    1    2    0    0 -0.59224601640E+03  0.75989863539E+03 -0.21533048107E+03  0.11867513229E+04  0.65864270000E+03 0.  0.
    8880022    1    1    2    0    0  0.59224601640E+03 -0.75989863539E+03  0.95573121813E+03  0.13656555548E+04  0.15294330000E+03 0.  0.
<mgrwt>
<rscale>  0 0.11158972E+04</rscale>
<asrwt>0</asrwt>
<pdfrwt beam="1">  1        1 0.13938509E+00 0.11670525E+04</pdfrwt>
<pdfrwt beam="2">  1       -1 0.25329289E+00 0.11670525E+04</pdfrwt>
<totfact> 0.11781011E+00</totfact>
</mgrwt>
</event>
<event>
 4    1  0.4055965E-007  0.7230741E+03  0.7818608E-02  0.9912318E-01
         -1   -1    0    0    0  501 -0.00000000000E+00  0.00000000000E+00  0.18639225921E+03  0.18639225928E+03  0.50400000000E-02 0.  1.
          1   -1    0    0  501    0  0.00000000000E+00 -0.00000000000E+00 -0.29342681410E+04  0.29342681410E+04  0.50400000000E-02 0. -1.
    8880023    1    1    2    0    0  0.22110598810E+03  0.20034501548E+03 -0.26835498629E+04  0.27792581845E+04  0.65864270000E+03 0. -1.
    8880022    1    1    2    0    0 -0.22110598810E+03 -0.20034501548E+03 -0.64326018853E+02  0.34140221575E+03  0.15294330000E+03 0.  0.
<mgrwt>
<rscale>  0 0.59667992E+03</rscale>
<asrwt>0</asrwt>
<pdfrwt beam="1">  1        1 0.45142583E+00 0.72307412E+03</pdfrwt>
<pdfrwt beam="2">  1       -1 0.28675734E-01 0.72307412E+03</pdfrwt>
<totfact> 0.78683772E+00</totfact>
</mgrwt>
</event>
<event>
 4    1  0.4055965E-007  0.1376098E+04  0.7818608E-02  0.9002481E-01
         -1   -1    0    0    0  501 -0.00000000000E+00  0.00000000000E+00  0.13553268504E+04  0.13553268504E+04  0.50400000000E-02 0.  1.
          1   -1    0    0  501    0  0.00000000000E+00 -0.00000000000E+00 -0.16068194972E+04  0.16068194972E+04  0.50400000000E-02 0. -1.
    8880023    1    1    2    0    0 -0.10411022061E+04 -0.61314098372E+03  0.57384400902E+03  0.14909536621E+04  0.65864270000E+03 0.  0.
    8880022    1    1    2    0    0  0.10411022061E+04  0.61314098372E+03 -0.82533665579E+03  0.14711926855E+04  0.15294330000E+03 0.  0.
<mgrwt>
<rscale>  0 0.13347133E+04</rscale>
<asrwt>0</asrwt>
<pdfrwt beam="1">  1        1 0.24720300E+00 0.13760981E+04</pdfrwt>
<pdfrwt beam="2">  1       -1 0.20851182E+00 0.13760981E+04</pdfrwt>
<totfact> 0.69686628E-01</totfact>
</mgrwt>
</event>
<event>
 4    1  0.4055965E-007  0.1216138E+04  0.7818608E-02  0.9141592E-01
         -1   -1    0    0    0  501 -0.00000000000E+00  0.00000000000E+00  0.20478444951E+04  0.20478444951E+04  0.50400000000E-02 0.  1.
          1   -1    0    0  501    0  0.00000000000E+00 -0.00000000000E+00 -0.93480164836E+03  0.93480164837E+03  0.50400000000E-02 0. -1.
    8880023    1    1    2    0    0  0.24983980009E+03  0.99134371191E+03 -0.28000278789E+03  0.12479559481E+04  0.65864270000E+03 0. -1.
    8880022    1    1    2    0    0 -0.24983980009E+03 -0.99134371191E+03  0.13930456346E+04  0.17346901954E+04  0.15294330000E+03 0.  0.
<mgrwt>
<rscale>  0 0.11677176E+04</rscale>
<asrwt>0</asrwt>
<pdfrwt beam="1">  1        1 0.14381564E+00 0.12161384E+04</pdfrwt>
<pdfrwt beam="2">  1       -1 0.31505300E+00 0.12161384E+04</pdfrwt>
<totfact> 0.44258194E-01</totfact>
</mgrwt>
</event>
<event>
 4    1  0.4055965E-007  0.6708232E+03  0.7818608E-02  0.1015080E+00
          1   -1    0    0  501    0  0.00000000000E+00  0.00000000000E+00  0.54187834921E+03  0.54187834923E+03  0.50400000000E-02 0. -1.
         -1   -1    0    0    0  501 -0.00000000000E+00 -0.00000000000E+00 -0.15444554126E+04  0.15444554126E+04  0.50400000000E-02 0.  1.
    8880023    1    1    2    0    0 -0.12601690646E+03  0.17699078183E+02  0.32396489472E+03  0.74495434582E+03  0.65864270000E+03 0. -1.
    8880022    1    1    2    0    0  0.12601690646E+03 -0.17699078183E+02 -0.13265419581E+04  0.13413794160E+04  0.15294330000E+03 0.  0.
<mgrwt>
<rscale>  0 0.49504834E+03</rscale>
<asrwt>0</asrwt>
<pdfrwt beam="1">  1        1 0.83365901E-01 0.67082317E+03</pdfrwt>
<pdfrwt beam="2">  1       -1 0.23760852E+00 0.67082317E+03</pdfrwt>
<totfact> 0.35122827E+00</totfact>
</mgrwt>
</event>
<event>
 4    1  0.4055965E-007  0.8413187E+03  0.7818608E-02  0.9627699E-01
          1   -1    0    0  501    0  0.00000000000E+00  0.00000000000E+00  0.23723561776E+04  0.23723561776E+04  0.50400000000E-02 0. -1.
         -1   -1    0    0    0  501 -0.00000000000E+00 -0.00000000000E+00 -0.31153633670E+03  0.31153633675E+03  0.50400000000E-02 0.  1.
    8880023    1    1    2    0    0  0.10559942076E+02  0.52335024734E+03  0.19550484906E+04  0.21283871360E+04  0.65864270000E+03 0.  0.
    8880022    1    1    2    0    0 -0.10559942076E+02 -0.52335024734E+03  0.10577135022E+03  0.55550537829E+03  0.15294330000E+03 0.  0.
<mgrwt>
<rscale>  0 0.75489716E+03</rscale>
<asrwt>0</asrwt>
<pdfrwt beam="1">  1        1 0.36497788E+00 0.84131873E+03</pdfrwt>
<pdfrwt beam="2">  1       -1 0.47928666E-01 0.84131873E+03</pdfrwt>
<totfact> 0.74976950E+00</totfact>
</mgrwt>
</event>
<event>
 4    1  0.4055965E-007  0.7148887E+03  0.7818608E-02  0.9940276E-01
         -1   -1    0    0    0  501 -0.00000000000E+00  0.00000000000E+00  0.49198160345E+03  0.49198160348E+03  0.50400000000E-02 0.  1.
          1   -1    0    0  501    0  0.00000000000E+00 -0.00000000000E+00 -0.82797368981E+03  0.82797368982E+03  0.50400000000E-02 0. -1.
    8880023    1    1    2    0    0  0.22709043653E+02  0.27701973873E+03 -0.57930774387E+03  0.92014308924E+03  0.65864270000E+03 0. -1.
    8880022    1    1    2    0    0 -0.22709043653E+02 -0.27701973873E+03  0.24331565751E+03  0.39981220406E+03  0.15294330000E+03 0.  0.
<mgrwt>
<rscale>  0 0.58348417E+03</rscale>
<asrwt>0</asrwt>
<pdfrwt beam="1">  1        1 0.12738057E+00 0.71488869E+03</pdfrwt>
<pdfrwt beam="2">  1       -1 0.75689478E-01 0.71488869E+03</pdfrwt>
<totfact> 0.37713168E+01</totfact>
</mgrwt>
</event>
<event>
 4    1  0.4055965E-007  0.6843375E+03  0.7818608E-02  0.1006969E+00
         -1   -1    0    0    0  501 -0.00000000000E+00  0.00000000000E+00  0.10767786014E+04  0.10767786014E+04  0.50400000000E-02 0.  1.
          1   -1    0    0  501    0  0.00000000000E+00 -0.00000000000E+00 -0.62885156831E+03  0.62885156833E+03  0.50400000000E-02 0. -1.
    8880023    1    1    2    0    0  0.65039192858E+02 -0.17400445666E+03 -0.42135967401E+03  0.80365529220E+03  0.65864270000E+03 0. -1.
    8880022    1    1    2    0    0 -0.65039192858E+02  0.17400445666E+03  0.86928670707E+03  0.90197487750E+03  0.15294330000E+03 0.  0.
<mgrwt>
<rscale>  0 0.52697126E+03</rscale>
<asrwt>0</asrwt>
<pdfrwt beam="1">  1        1 0.96746395E-01 0.68433753E+03</pdfrwt>
<pdfrwt beam="2">  1       -1 0.16565825E+00 0.68433753E+03</pdfrwt>
<totfact> 0.88210137E+00</totfact>
</mgrwt>
</event>
<event>
 4    1  0.4055965E-007  0.8624316E+03  0.7818608E-02  0.9589253E-01
         -1   -1    0    0    0  501 -0.00000000000E+00  0.00000000000E+00  0.78975065410E+03  0.78975065411E+03  0.50400000000E-02 0.  1.
          1   -1    0    0  501    0  0.00000000000E+00 -0.00000000000E+00 -0.90887241605E+03  0.90887241607E+03  0.50400000000E-02 0. -1.
    8880023    1    1    2    0    0  0.55599119729E+03 -0.29187500600E+02 -0.50946894504E+03  0.10016720690E+04  0.65864270000E+03 0. -1.
    8880022    1    1    2    0    0 -0.55599119729E+03  0.29187500600E+02  0.39034718308E+03  0.69695100115E+03  0.15294330000E+03 0.  0.
<mgrwt>
<rscale>  0 0.78011618E+03</rscale>
<asrwt>0</asrwt>
<pdfrwt beam="1">  1        1 0.13982653E+00 0.86243164E+03</pdfrwt>
<pdfrwt beam="2">  1       -1 0.12150010E+00 0.86243164E+03</pdfrwt>
<totfact> 0.10927902E+01</totfact>
</mgrwt>
</event>
<event>
 4    1  0.4055965E-007  0.9718267E+03  0.7818608E-02  0.9419382E-01
         -1   -1    0    0    0  501 -0.00000000000E+00  0.00000000000E+00  0.14169183372E+04  0.14169183372E+04  0.50400000000E-02 0.  1.
          1   -1    0    0  501    0  0.00000000000E+00 -0.00000000000E+00 -0.80882047400E+03  0.80882047402E+03  0.50400000000E-02 0. -1.
    8880023    1    1    2    0    0  0.36811324507E+03  0.61247828246E+03 -0.33920417332E+03  0.10293234113E+04  0.65864270000E+03 0.  0.
    8880022    1    1    2    0    0 -0.36811324507E+03 -0.61247828246E+03  0.94730203653E+03  0.11964153999E+04  0.15294330000E+03 0.  0.
<mgrwt>
<rscale>  0 0.90497630E+03</rscale>
<asrwt>0</asrwt>
<pdfrwt beam="1">  1        1 0.12443392E+00 0.97182674E+03</pdfrwt>
<pdfrwt beam="2">  1       -1 0.21798743E+00 0.97182674E+03</pdfrwt>
<totfact> 0.24877278E+00</totfact>
</mgrwt>
</event>
<event>
 4    1  0.4055965E-007  0.1032314E+04  0.7818608E-02  0.9340451E-01
          1   -1    0    0  501    0  0.00000000000E+00  0.00000000000E+00  0.19883452927E+04  0.19883452927E+04  0.50400000000E-02 0. -1.
         -1   -1    0    0    0  501 -0.00000000000E+00 -0.00000000000E+00 -0.60594287657E+03  0.60594287659E+03  0.50400000000E-02 0.  1.
    8880023    1    1    2    0    0 -0.70147434713E+03 -0.37389313256E+03  0.14522868060E+04  0.17817995138E+04  0.65864270000E+03 0.  0.
    8880022    1    1    2    0    0  0.70147434713E+03  0.37389313256E+03 -0.69884389933E+02  0.81248865544E+03  0.15294330000E+03 0.  0.
<mgrwt>
<rscale>  0 0.97142690E+03</rscale>
<asrwt>0</asrwt>
<pdfrwt beam="1">  1        1 0.30589928E+00 0.10323142E+04</pdfrwt>
<pdfrwt beam="2">  1       -1 0.93221979E-01 0.10323142E+04</pdfrwt>
<totfact> 0.34129337E+00</totfact>
</mgrwt>
</event>
<event>
 4    1  0.4055965E-007  0.7039029E+03  0.7818608E-02  0.9981380E-01
          1   -1    0    0  501    0  0.00000000000E+00  0.00000000000E+00  0.81761336442E+03  0.81761336444E+03  0.50400000000E-02 0. -1.
         -1   -1    0    0    0  501 -0.00000000000E+00 -0.00000000000E+00 -0.64271366528E+03  0.64271366530E+03  0.50400000000E-02 0.  1.
    8880023    1    1    2    0    0 -0.15548263729E+03  0.19363421592E+03  0.61341585404E+03  0.93367996462E+03  0.65864270000E+03 0. -1.
    8880022    1    1    2    0    0  0.15548263729E+03 -0.19363421592E+03 -0.43851615490E+03  0.52664706512E+03  0.15294330000E+03 0.  0.
<mgrwt>
<rscale>  0 0.56474278E+03</rscale>
<asrwt>0</asrwt>
<pdfrwt beam="1">  1        1 0.12578667E+00 0.70390288E+03</pdfrwt>
<pdfrwt beam="2">  1       -1 0.98879025E-01 0.70390288E+03</pdfrwt>
<totfact> 0.21561653E+01</totfact>
</mgrwt>
</event>
<event>
 4    1  0.4055965E-007  0.8922693E+03  0.7818608E-02  0.9538558E-01
         -1   -1    0    0    0  501 -0.00000000000E+00  0.00000000000E+00  0.28936120359E+03  0.28936120364E+03  0.50400000000E-02 0.  1.
          1   -1    0    0  501    0  0.00000000000E+00 -0.00000000000E+00 -0.21838164236E+04  0.21838164236E+04  0.50400000000E-02 0. -1.
    8880023    1    1    2    0    0  0.54511611990E+03  0.25530917144E+03 -0.14744923952E+04  0.17234478197E+04  0.65864270000E+03 0.  0.
    8880022    1    1    2    0    0 -0.54511611990E+03 -0.25530917144E+03 -0.41996282479E+03  0.74972980761E+03  0.15294330000E+03 0.  0.
<mgrwt>
<rscale>  0 0.81499856E+03</rscale>
<asrwt>0</asrwt>
<pdfrwt beam="1">  1        1 0.33597175E+00 0.89226933E+03</pdfrwt>
<pdfrwt beam="2">  1       -1 0.44517110E-01 0.89226933E+03</pdfrwt>
<totfact> 0.11463279E+01</totfact>
</mgrwt>
</event>
<event>
 4    1  0.4055965E-007  0.8796603E+03  0.7818608E-02  0.9559505E-01
          1   -1    0    0  501    0  0.00000000000E+00  0.00000000000E+00  0.71688641208E+03  0.71688641210E+03  0.50400000000E-02 0. -1.
         -1   -1    0    0    0  501 -0.00000000000E+00 -0.00000000000E+00 -0.85333210184E+03  0.85333210186E+03  0.50400000000E-02 0.  1.
    8880023    1    1    2    0    0  0.36119015178E+03 -0.45774843801E+03  0.16694736337E+03  0.89536226559E+03  0.65864270000E+03 0.  0.
    8880022    1    1    2    0    0 -0.36119015178E+03  0.45774843801E+03 -0.30339305314E+03  0.67485624836E+03  0.15294330000E+03 0.  0.
<mgrwt>
<rscale>  0 0.80035359E+03</rscale>
<asrwt>0</asrwt>
<pdfrwt beam="1">  1        1 0.11029022E+00 0.87966026E+03</pdfrwt>
<pdfrwt beam="2">  1       -1 0.13128186E+00 0.87966026E+03</pdfrwt>
<totfact> 0.13177780E+01</totfact>
</mgrwt>
</event>
<event>
 4    1  0.4055965E-007  0.9283894E+03  0.7818608E-02  0.9481914E-01
         -1   -1    0    0    0  501 -0.00000000000E+00  0.00000000000E+00  0.44869466304E+03  0.44869466306E+03  0.50400000000E-02 0.  1.
          1   -1    0    0  501    0  0.00000000000E+00 -0.00000000000E+00 -0.25219293946E+04  0.25219293946E+04  0.50400000000E-02 0. -1.
    8880023    1    1    2    0    0 -0.32372869911E+03  0.56859162311E+03 -0.21021953426E+04  0.22980714021E+04  0.65864270000E+03 0.  0.
    8880022    1    1    2    0    0  0.32372869911E+03 -0.56859162311E+03  0.28960611027E+02  0.67255265556E+03  0.15294330000E+03 0.  0.
<mgrwt>
<rscale>  0 0.85630495E+03</rscale>
<asrwt>0</asrwt>
<pdfrwt beam="1">  1        1 0.38798913E+00 0.92838942E+03</pdfrwt>
<pdfrwt beam="2">  1       -1 0.69029950E-01 0.92838942E+03</pdfrwt>
<totfact> 0.28609740E+00</totfact>
</mgrwt>
</event>
<event>
 4    1  0.4055965E-007  0.7273668E+03  0.7818608E-02  0.9898404E-01
          1   -1    0    0  501    0  0.00000000000E+00  0.00000000000E+00  0.19372261925E+04  0.19372261925E+04  0.50400000000E-02 0. -1.
         -1   -1    0    0    0  501 -0.00000000000E+00 -0.00000000000E+00 -0.14887322206E+03  0.14887322214E+03  0.50400000000E-02 0.  1.
    8880023    1    1    2    0    0 -0.21877579152E+03  0.21769122218E+03  0.12752817032E+04  0.14681300841E+04  0.65864270000E+03 0.  0.
    8880022    1    1    2    0    0  0.21877579152E+03 -0.21769122218E+03  0.51307126727E+03  0.61796933053E+03  0.15294330000E+03 0.  1.
<mgrwt>
<rscale>  0 0.60338684E+03</rscale>
<asrwt>0</asrwt>
<pdfrwt beam="1">  1        1 0.29803479E+00 0.72736684E+03</pdfrwt>
<pdfrwt beam="2">  1       -1 0.22903573E-01 0.72736684E+03</pdfrwt>
<totfact> 0.55325001E+01</totfact>
</mgrwt>
</event>
<event>
 4    1  0.4055965E-007  0.1015912E+04  0.7818608E-02  0.9361029E-01
          1   -1    0    0  501    0  0.00000000000E+00  0.00000000000E+00  0.30539705501E+04  0.30539705501E+04  0.50400000000E-02 0. -1.
         -1   -1    0    0    0  501 -0.00000000000E+00 -0.00000000000E+00 -0.44160944882E+03  0.44160944885E+03  0.50400000000E-02 0.  1.
    8880023    1    1    2    0    0  0.62537535929E+03 -0.45516278201E+03  0.25007989934E+04  0.26992727372E+04  0.65864270000E+03 0.  0.
    8880022    1    1    2    0    0 -0.62537535929E+03  0.45516278201E+03  0.11156210785E+03  0.79630726171E+03  0.15294330000E+03 0.  0.
<mgrwt>
<rscale>  0 0.95353401E+03</rscale>
<asrwt>0</asrwt>
<pdfrwt beam="1">  1        1 0.46984162E+00 0.10159123E+04</pdfrwt>
<pdfrwt beam="2">  1       -1 0.67939915E-01 0.10159123E+04</pdfrwt>
<totfact> 0.12290191E+00</totfact>
</mgrwt>
</event>
<event>
 4    1  0.4055965E-007  0.9148130E+03  0.7818608E-02  0.9502658E-01
         -1   -1    0    0    0  501 -0.00000000000E+00  0.00000000000E+00  0.12176686562E+04  0.12176686562E+04  0.50400000000E-02 0.  1.
          1   -1    0    0  501    0  0.00000000000E+00 -0.00000000000E+00 -0.81632398686E+03  0.81632398688E+03  0.50400000000E-02 0. -1.
    8880023    1    1    2    0    0 -0.39230596887E+03  0.49916800731E+03 -0.40154050096E+03  0.99905838313E+03  0.65864270000E+03 0. -1.
    8880022    1    1    2    0    0  0.39230596887E+03 -0.49916800731E+03  0.80288517031E+03  0.10349342600E+04  0.15294330000E+03 0.  0.
<mgrwt>
<rscale>  0 0.84088111E+03</rscale>
<asrwt>0</asrwt>
<pdfrwt beam="1">  1        1 0.12558831E+00 0.91481303E+03</pdfrwt>
<pdfrwt beam="2">  1       -1 0.18733364E+00 0.91481303E+03</pdfrwt>
<totfact> 0.40028316E+00</totfact>
</mgrwt>
</event>
<event>
 4    1  0.4055965E-007  0.8606059E+03  0.7818608E-02  0.9592487E-01
          1   -1    0    0  501    0  0.00000000000E+00  0.00000000000E+00  0.18016253510E+04  0.18016253510E+04  0.50400000000E-02 0. -1.
         -1   -1    0    0    0  501 -0.00000000000E+00 -0.00000000000E+00 -0.34754394319E+03  0.34754394323E+03  0.50400000000E-02 0.  1.
    8880023    1    1    2    0    0  0.47769184762E+03  0.28043316782E+03  0.12914833873E+04  0.15519574121E+04  0.65864270000E+03 0. -1.
    8880022    1    1    2    0    0 -0.47769184762E+03 -0.28043316782E+03  0.16259802047E+03  0.59721188214E+03  0.15294330000E+03 0.  1.
<mgrwt>
<rscale>  0 0.77795467E+03</rscale>
<asrwt>0</asrwt>
<pdfrwt beam="1">  1        1 0.27717313E+00 0.86060587E+03</pdfrwt>
<pdfrwt beam="2">  1       -1 0.53468299E-01 0.86060587E+03</pdfrwt>
<totfact> 0.14699439E+01</totfact>
</mgrwt>
</event>
<event>
 4    1  0.4055965E-007  0.7454605E+03  0.7818608E-02  0.9844317E-01
         -1   -1    0    0    0  501 -0.00000000000E+00  0.00000000000E+00  0.79566933328E+03  0.79566933330E+03  0.50400000000E-02 0.  1.
          1   -1    0    0  501    0  0.00000000000E+00 -0.00000000000E+00 -0.60249036469E+03  0.60249036471E+03  0.50400000000E-02 0. -1.
    8880023    1    1    2    0    0 -0.23317702197E+03 -0.25986449707E+03 -0.27488197214E+03  0.79452588711E+03  0.65864270000E+03 0. -1.
    8880022    1    1    2    0    0  0.23317702197E+03  0.25986449707E+03  0.46806094073E+03  0.60363381090E+03  0.15294330000E+03 0.  0.
<mgrwt>
<rscale>  0 0.63037495E+03</rscale>
<asrwt>0</asrwt>
<pdfrwt beam="1">  1        1 0.92690826E-01 0.74546045E+03</pdfrwt>
<pdfrwt beam="2">  1       -1 0.12241067E+00 0.74546045E+03</pdfrwt>
<totfact> 0.20605030E+01</totfact>
</mgrwt>
</event>
<event>
 4    1  0.4055965E-007  0.6777603E+03  0.7818608E-02  0.1010620E+00
         -1   -1    0    0    0  501 -0.00000000000E+00  0.00000000000E+00  0.61699201910E+03  0.61699201912E+03  0.50400000000E-02 0.  1.
          1   -1    0    0  501    0  0.00000000000E+00 -0.00000000000E+00 -0.63659653220E+03  0.63659653222E+03  0.50400000000E-02 0. -1.
    8880023    1    1    2    0    0 -0.13193243357E+03 -0.90236663644E+02 -0.41914185049E+03  0.79689329247E+03  0.65864270000E+03 0.  0.
    8880022    1    1    2    0    0  0.13193243357E+03  0.90236663644E+02  0.39953733739E+03  0.45669525887E+03  0.15294330000E+03 0.  0.
<mgrwt>
<rscale>  0 0.51228969E+03</rscale>
<asrwt>0</asrwt>
<pdfrwt beam="1">  1        1 0.97937928E-01 0.67776030E+03</pdfrwt>
<pdfrwt beam="2">  1       -1 0.94921849E-01 0.67776030E+03</pdfrwt>
<totfact> 0.34754866E+01</totfact>
</mgrwt>
</event>
<event>
 4    1  0.4055965E-007  0.7717967E+03  0.7818608E-02  0.9775472E-01
          1   -1    0    0  501    0  0.00000000000E+00  0.00000000000E+00  0.50993487451E+03  0.50993487454E+03  0.50400000000E-02 0. -1.
         -1   -1    0    0    0  501 -0.00000000000E+00 -0.00000000000E+00 -0.10229836748E+04  0.10229836748E+04  0.50400000000E-02 0.  1.
    8880023    1    1    2    0    0 -0.34472101347E+03 -0.20743024185E+03  0.10590106914E+03  0.77902832110E+03  0.65864270000E+03 0. -1.
    8880022    1    1    2    0    0  0.34472101347E+03  0.20743024185E+03 -0.61894986939E+03  0.75389022822E+03  0.15294330000E+03 0.  1.
<mgrwt>
<rscale>  0 0.66695633E+03</rscale>
<asrwt>0</asrwt>
<pdfrwt beam="1">  1        1 0.78451519E-01 0.77179666E+03</pdfrwt>
<pdfrwt beam="2">  1       -1 0.15738210E+00 0.77179666E+03</pdfrwt>
<totfact> 0.13537907E+01</totfact>
</mgrwt>
</event>
<event>
 4    1  0.4055965E-007  0.1369598E+04  0.7818608E-02  0.9007673E-01
          1   -1    0    0  501    0  0.00000000000E+00  0.00000000000E+00  0.27666775669E+04  0.27666775669E+04  0.50400000000E-02 0. -1.
         -1   -1    0    0    0  501 -0.00000000000E+00 -0.00000000000E+00 -0.11147737052E+04  0.11147737052E+04  0.50400000000E-02 0.  1.
    8880023    1    1    2    0    0 -0.51017656214E+02 -0.11997442430E+04  0.21689055989E+04  0.25651414684E+04  0.65864270000E+03 0. -1.
    8880022    1    1    2    0    0  0.51017656214E+02  0.11997442430E+04 -0.51700173718E+03  0.13163098037E+04  0.15294330000E+03 0.  0.
<mgrwt>
<rscale>  0 0.13279713E+04</rscale>
<asrwt>0</asrwt>
<pdfrwt beam="1">  1        1 0.42564270E+00 0.13695982E+04</pdfrwt>
<pdfrwt beam="2">  1       -1 0.17150365E+00 0.13695982E+04</pdfrwt>
<totfact> 0.20372330E-01</totfact>
</mgrwt>
</event>
<event>
 4    1  0.4055965E-007  0.1467665E+04  0.7818608E-02  0.8932812E-01
          1   -1    0    0  501    0  0.00000000000E+00  0.00000000000E+00  0.24148489550E+04  0.24148489550E+04  0.50400000000E-02 0. -1.
         -1   -1    0    0    0  501 -0.00000000000E+00 -0.00000000000E+00 -0.12523114340E+04  0.12523114341E+04  0.50400000000E-02 0.  1.
    8880023    1    1    2    0    0  0.12014472733E+04  0.52607593097E+03 -0.49414444158E+03  0.15486188592E+04  0.65864270000E+03 0.  0.
    8880022    1    1    2    0    0 -0.12014472733E+04 -0.52607593097E+03  0.16566819625E+04  0.21185415298E+04  0.15294330000E+03 0.  0.
<mgrwt>
<rscale>  0 0.14293937E+04</rscale>
<asrwt>0</asrwt>
<pdfrwt beam="1">  1        1 0.37151522E+00 0.14676654E+04</pdfrwt>
<pdfrwt beam="2">  1       -1 0.19266330E+00 0.14676654E+04</pdfrwt>
<totfact> 0.24940293E-01</totfact>
</mgrwt>
</event>
<event>
 4    1  0.4055965E-007  0.9901921E+03  0.7818608E-02  0.9394503E-01
          1   -1    0    0  501    0  0.00000000000E+00  0.00000000000E+00  0.22798321797E+04  0.22798321797E+04  0.50400000000E-02 0. -1.
         -1   -1    0    0    0  501 -0.00000000000E+00 -0.00000000000E+00 -0.42388362288E+03  0.42388362291E+03  0.50400000000E-02 0.  1.
    8880023    1    1    2    0    0  0.10005145049E+03 -0.73257075813E+03  0.16445724145E+04  0.19196611266E+04  0.65864270000E+03 0.  1.
    8880022    1    1    2    0    0 -0.10005145049E+03  0.73257075813E+03  0.21137614240E+03  0.78405467603E+03  0.15294330000E+03 0.  0.
<mgrwt>
<rscale>  0 0.92529421E+03</rscale>
<asrwt>0</asrwt>
<pdfrwt beam="1">  1        1 0.35074341E+00 0.99019211E+03</pdfrwt>
<pdfrwt beam="2">  1       -1 0.65212865E-01 0.99019211E+03</pdfrwt>
<totfact> 0.46565769E+00</totfact>
</mgrwt>
</event>
<event>
 4    1  0.4055965E-007  0.6647364E+03  0.7818608E-02  0.1019756E+00
          1   -1    0    0  501    0  0.00000000000E+00  0.00000000000E+00  0.10247193013E+04  0.10247193013E+04  0.50400000000E-02 0. -1.
         -1   -1    0    0    0  501 -0.00000000000E+00 -0.00000000000E+00 -0.29105534798E+03  0.29105534802E+03  0.50400000000E-02 0.  1.
    8880023    1    1    2    0    0 -0.44485434702E+02  0.78008805412E+02  0.86799052781E+03  0.10932895729E+04  0.65864270000E+03 0. -1.
    8880022    1    1    2    0    0  0.44485434702E+02 -0.78008805412E+02 -0.13432657446E+03  0.22248507645E+03  0.15294330000E+03 0.  0.
<mgrwt>
<rscale>  0 0.47774925E+03</rscale>
<asrwt>0</asrwt>
<pdfrwt beam="1">  1        1 0.15764913E+00 0.66473644E+03</pdfrwt>
<pdfrwt beam="2">  1       -1 0.44777745E-01 0.66473644E+03</pdfrwt>
<totfact> 0.73688803E+01</totfact>
</mgrwt>
</event>
<event>
 4    1  0.4731623E-007  0.7603545E+03  0.7818608E-02  0.9804191E-01
         -1   -1    0    0    0  501 -0.00000000000E+00  0.00000000000E+00  0.71783744107E+03  0.71783744109E+03  0.50400000000E-02 0.  1.
          1   -1    0    0  501    0  0.00000000000E+00 -0.00000000000E+00 -0.14270625307E+04  0.14270625307E+04  0.50400000000E-02 0. -1.
    8880023    1    1    2    0    0 -0.31526736268E+03 -0.21197945264E+03 -0.12520929980E+04  0.14648808417E+04  0.65864270000E+03 0. -1.
    8880022    1    1    2    0    0  0.31526736268E+03  0.21197945264E+03  0.54286790842E+03  0.68001913012E+03  0.15294330000E+03 0.  0.
<mgrwt>
<rscale>  0 0.65138140E+03</rscale>
<asrwt>0</asrwt>
<pdfrwt beam="1">  1        1 0.21954808E+00 0.76035453E+03</pdfrwt>
<pdfrwt beam="2">  1       -1 0.11043653E+00 0.76035453E+03</pdfrwt>
<totfact> 0.57741317E+00</totfact>
</mgrwt>
</event>
<event>
 4    1  0.4055965E-007  0.8128183E+03  0.7818608E-02  0.9683736E-01
          1   -1    0    0  501    0  0.00000000000E+00  0.00000000000E+00  0.30732040922E+04  0.30732040922E+04  0.50400000000E-02 0. -1.
         -1   -1    0    0    0  501 -0.00000000000E+00 -0.00000000000E+00 -0.15552202801E+03  0.15552202809E+03  0.50400000000E-02 0.  1.
    8880023    1    1    2    0    0 -0.46854805426E+03 -0.85592268179E+02  0.22646882656E+04  0.24061351712E+04  0.65864270000E+03 0.  0.
    8880022    1    1    2    0    0  0.46854805426E+03  0.85592268179E+02  0.65299379863E+03  0.82259094912E+03  0.15294330000E+03 0.  0.
<mgrwt>
<rscale>  0 0.71993440E+03</rscale>
<asrwt>0</asrwt>
<pdfrwt beam="1">  1        1 0.47280058E+00 0.81281826E+03</pdfrwt>
<pdfrwt beam="2">  1       -1 0.23926468E-01 0.81281826E+03</pdfrwt>
<totfact> 0.84045953E+00</totfact>
</mgrwt>
</event>
<event>
 4    1  0.4055965E-007  0.7093045E+03  0.7818608E-02  0.9960593E-01
         -1   -1    0    0    0  501 -0.00000000000E+00  0.00000000000E+00  0.16123351941E+03  0.16123351949E+03  0.50400000000E-02 0.  1.
          1   -1    0    0  501    0  0.00000000000E+00 -0.00000000000E+00 -0.22703042103E+04  0.22703042103E+04  0.50400000000E-02 0. -1.
    8880023    1    1    2    0    0 -0.26288855589E+03 -0.13868432008E+02 -0.19756664840E+04  0.20991357718E+04  0.65864270000E+03 0. -1.
    8880022    1    1    2    0    0  0.26288855589E+03  0.13868432008E+02 -0.13340420682E+03  0.33240195793E+03  0.15294330000E+03 0.  0.
<mgrwt>
<rscale>  0 0.57412470E+03</rscale>
<asrwt>0</asrwt>
<pdfrwt beam="1">  1        1 0.34927755E+00 0.70930454E+03</pdfrwt>
<pdfrwt beam="2">  1       -1 0.24805158E-01 0.70930454E+03</pdfrwt>
<totfact> 0.28995823E+01</totfact>
</mgrwt>
</event>
<event>
 4    1  0.4055965E-007  0.7736412E+03  0.7818608E-02  0.9770992E-01
         -1   -1    0    0    0  501 -0.00000000000E+00  0.00000000000E+00  0.35470751533E+03  0.35470751537E+03  0.50400000000E-02 0.  1.
          1   -1    0    0  501    0  0.00000000000E+00 -0.00000000000E+00 -0.16523118609E+04  0.16523118610E+04  0.50400000000E-02 0. -1.
    8880023    1    1    2    0    0 -0.15599394565E+03  0.37466839431E+03 -0.13641311116E+04  0.15682392715E+04  0.65864270000E+03 0. -1.
    8880022    1    1    2    0    0  0.15599394565E+03 -0.37466839431E+03  0.66526765992E+02  0.43878010482E+03  0.15294330000E+03 0.  0.
<mgrwt>
<rscale>  0 0.66942808E+03</rscale>
<asrwt>0</asrwt>
<pdfrwt beam="1">  1        1 0.25420182E+00 0.77364121E+03</pdfrwt>
<pdfrwt beam="2">  1       -1 0.54570388E-01 0.77364121E+03</pdfrwt>
<totfact> 0.18018271E+01</totfact>
</mgrwt>
</event>
<event>
 4    1  0.4055965E-007  0.8919485E+03  0.7818608E-02  0.9539082E-01
          1   -1    0    0  501    0  0.00000000000E+00  0.00000000000E+00  0.26298631666E+03  0.26298631670E+03  0.50400000000E-02 0. -1.
         -1   -1    0    0    0  501 -0.00000000000E+00 -0.00000000000E+00 -0.25292831239E+04  0.25292831239E+04  0.50400000000E-02 0.  1.
    8880023    1    1    2    0    0 -0.41067773854E+03 -0.43943796303E+03 -0.79259279514E+03  0.11932206307E+04  0.65864270000E+03 0. -1.
    8880022    1    1    2    0    0  0.41067773854E+03  0.43943796303E+03 -0.14737040121E+04  0.15990488100E+04  0.15294330000E+03 0.  0.
<mgrwt>
<rscale>  0 0.81462752E+03</rscale>
<asrwt>0</asrwt>
<pdfrwt beam="1">  1        1 0.40459435E-01 0.89194850E+03</pdfrwt>
<pdfrwt beam="2">  1       -1 0.38912046E+00 0.89194850E+03</pdfrwt>
<totfact> 0.91967489E-01</totfact>
</mgrwt>
</event>
<event>
 4    1  0.4055965E-007  0.8182806E+03  0.7818608E-02  0.9672580E-01
         -1   -1    0    0    0  501 -0.00000000000E+00  0.00000000000E+00  0.36271236254E+03  0.36271236257E+03  0.50400000000E-02 0.  1.
          1   -1    0    0  501    0  0.00000000000E+00 -0.00000000000E+00 -0.14786805766E+04  0.14786805766E+04  0.50400000000E-02 0. -1.
    8880023    1    1    2    0    0  0.48553379172E+03  0.54686588944E+01 -0.10452033696E+04  0.13274160084E+04  0.65864270000E+03 0. -1.
    8880022    1    1    2    0    0 -0.48553379172E+03 -0.54686588944E+01 -0.70764844377E+02  0.51397693075E+03  0.15294330000E+03 0.  0.
<mgrwt>
<rscale>  0 0.72673096E+03</rscale>
<asrwt>0</asrwt>
<pdfrwt beam="1">  1        1 0.22748932E+00 0.81828062E+03</pdfrwt>
<pdfrwt beam="2">  1       -1 0.55801903E-01 0.81828062E+03</pdfrwt>
<totfact> 0.22534352E+01</totfact>
</mgrwt>
</event>
<event>
 4    1  0.4055965E-007  0.6879153E+03  0.7818608E-02  0.1005160E+00
         -1   -1    0    0    0  501 -0.00000000000E+00  0.00000000000E+00  0.13627546093E+04  0.13627546093E+04  0.50400000000E-02 0.  1.
          1   -1    0    0  501    0  0.00000000000E+00 -0.00000000000E+00 -0.49762239788E+03  0.49762239790E+03  0.50400000000E-02 0. -1.
    8880023    1    1    2    0    0  0.19486039284E+03 -0.38034510852E+02 -0.23893027952E+03  0.72822735560E+03  0.65864270000E+03 0. -1.
    8880022    1    1    2    0    0 -0.19486039284E+03  0.38034510852E+02  0.11040624909E+04  0.11321496516E+04  0.15294330000E+03 0.  0.
<mgrwt>
<rscale>  0 0.53444598E+03</rscale>
<asrwt>0</asrwt>
<pdfrwt beam="1">  1        1 0.76557292E-01 0.68791526E+03</pdfrwt>
<pdfrwt beam="2">  1       -1 0.20965455E+00 0.68791526E+03</pdfrwt>
<totfact> 0.60248632E+00</totfact>
</mgrwt>
</event>
<event>
 4    1  0.4055965E-007  0.8122615E+03  0.7818608E-02  0.9684885E-01
         -1   -1    0    0    0  501 -0.00000000000E+00  0.00000000000E+00  0.10541538726E+04  0.10541538726E+04  0.50400000000E-02 0.  1.
          1   -1    0    0  501    0  0.00000000000E+00 -0.00000000000E+00 -0.41559896826E+03  0.41559896829E+03  0.50400000000E-02 0. -1.
    8880023    1    1    2    0    0 -0.45661199183E+03  0.13215137714E+03  0.29741558979E+03  0.86499984791E+03  0.65864270000E+03 0.  0.
    8880022    1    1    2    0    0  0.45661199183E+03 -0.13215137714E+03  0.34113931450E+03  0.60475299295E+03  0.15294330000E+03 0.  0.
<mgrwt>
<rscale>  0 0.71923878E+03</rscale>
<asrwt>0</asrwt>
<pdfrwt beam="1">  1        1 0.63938303E-01 0.81226148E+03</pdfrwt>
<pdfrwt beam="2">  1       -1 0.16217752E+00 0.81226148E+03</pdfrwt>
<totfact> 0.16367363E+01</totfact>
</mgrwt>
</event>
<event>
 4    1  0.4055965E-007  0.7327664E+03  0.7818608E-02  0.9881542E-01
         -1   -1    0    0    0  501 -0.00000000000E+00  0.00000000000E+00  0.11991454454E+04  0.11991454454E+04  0.50400000000E-02 0.  1.
          1   -1    0    0  501    0  0.00000000000E+00 -0.00000000000E+00 -0.59577570827E+03  0.59577570829E+03  0.50400000000E-02 0. -1.
    8880023    1    1    2    0    0 -0.19936888176E+03  0.25177061906E+03 -0.32435260413E+03  0.80134338064E+03  0.65864270000E+03 0. -1.
    8880022    1    1    2    0    0  0.19936888176E+03 -0.25177061906E+03  0.92772234126E+03  0.99357777306E+03  0.15294330000E+03 0.  0.
<mgrwt>
<rscale>  0 0.61164230E+03</rscale>
<asrwt>0</asrwt>
<pdfrwt beam="1">  1        1 0.91657803E-01 0.73276640E+03</pdfrwt>
<pdfrwt beam="2">  1       -1 0.18448391E+00 0.73276640E+03</pdfrwt>
<totfact> 0.69281209E+00</totfact>
</mgrwt>
</event>
<event>
 4    1  0.4055965E-007  0.8090559E+03  0.7818608E-02  0.9691547E-01
          1   -1    0    0  501    0  0.00000000000E+00  0.00000000000E+00  0.66716273930E+03  0.66716273932E+03  0.50400000000E-02 0. -1.
         -1   -1    0    0    0  501 -0.00000000000E+00 -0.00000000000E+00 -0.14294396740E+04  0.14294396740E+04  0.50400000000E-02 0.  1.
    8880023    1    1    2    0    0  0.46976658940E+03 -0.89767171517E+01  0.34846872026E+03  0.88090969187E+03  0.65864270000E+03 0. -1.
    8880022    1    1    2    0    0 -0.46976658940E+03  0.89767171517E+01 -0.11107456549E+04  0.12156927214E+04  0.15294330000E+03 0.  0.
<mgrwt>
<rscale>  0 0.71522325E+03</rscale>
<asrwt>0</asrwt>
<pdfrwt beam="1">  1        1 0.10264042E+00 0.80905589E+03</pdfrwt>
<pdfrwt beam="2">  1       -1 0.21991379E+00 0.80905589E+03</pdfrwt>
<totfact> 0.33276806E+00</totfact>
</mgrwt>
</event>
<event>
 4    1  0.4055965E-007  0.6923438E+03  0.7818608E-02  0.1003058E+00
         -1   -1    0    0    0  501 -0.00000000000E+00  0.00000000000E+00  0.15124826092E+04  0.15124826092E+04  0.50400000000E-02 0.  1.
          1   -1    0    0  501    0  0.00000000000E+00 -0.00000000000E+00 -0.45628453453E+03  0.45628453456E+03  0.50400000000E-02 0. -1.
    8880023    1    1    2    0    0 -0.87939135055E+02 -0.19441302111E+03 -0.17153678427E+03  0.71327749780E+03  0.65864270000E+03 0. -1.
    8880022    1    1    2    0    0  0.87939135055E+02  0.19441302111E+03  0.12277348589E+04  0.12554896460E+04  0.15294330000E+03 0.  0.
<mgrwt>
<rscale>  0 0.54329485E+03</rscale>
<asrwt>0</asrwt>
<pdfrwt beam="1">  1        1 0.70197620E-01 0.69234379E+03</pdfrwt>
<pdfrwt beam="2">  1       -1 0.23268963E+00 0.69234379E+03</pdfrwt>
<totfact> 0.47688044E+00</totfact>
</mgrwt>
</event>
<event>
 4    1  0.4055965E-007  0.7898459E+03  0.7818608E-02  0.9733197E-01
          1   -1    0    0  501    0  0.00000000000E+00  0.00000000000E+00  0.17981750534E+04  0.17981750534E+04  0.50400000000E-02 0. -1.
         -1   -1    0    0    0  501 -0.00000000000E+00 -0.00000000000E+00 -0.47297064292E+03  0.47297064294E+03  0.50400000000E-02 0.  1.
    8880023    1    1    2    0    0 -0.43145710559E+03  0.62379133037E+02  0.15632293075E+04  0.17514401115E+04  0.65864270000E+03 0.  0.
    8880022    1    1    2    0    0  0.43145710559E+03 -0.62379133037E+02 -0.23802489707E+03  0.51970558477E+03  0.15294330000E+03 0.  0.
<mgrwt>
<rscale>  0 0.69074185E+03</rscale>
<asrwt>0</asrwt>
<pdfrwt beam="1">  1        1 0.27664232E+00 0.78984593E+03</pdfrwt>
<pdfrwt beam="2">  1       -1 0.72764714E-01 0.78984593E+03</pdfrwt>
<totfact> 0.80729683E+00</totfact>
</mgrwt>
</event>
<event>
 4    1  0.4055965E-007  0.1439644E+04  0.7818608E-02  0.8953475E-01
          1   -1    0    0  501    0  0.00000000000E+00  0.00000000000E+00  0.23319901936E+04  0.23319901936E+04  0.50400000000E-02 0. -1.
         -1   -1    0    0    0  501 -0.00000000000E+00 -0.00000000000E+00 -0.93215674508E+03  0.93215674510E+03  0.50400000000E-02 0.  1.
    8880023    1    1    2    0    0 -0.11787275513E+04 -0.49936618819E+03  0.13505312307E+04  0.19739579635E+04  0.65864270000E+03 0.  0.
    8880022    1    1    2    0    0  0.11787275513E+04  0.49936618819E+03  0.49302217875E+02  0.12901889753E+04  0.15294330000E+03 0.  0.
<mgrwt>
<rscale>  0 0.14004751E+04</rscale>
<asrwt>0</asrwt>
<pdfrwt beam="1">  1        1 0.35876772E+00 0.14396442E+04</pdfrwt>
<pdfrwt beam="2">  1       -1 0.14340873E+00 0.14396442E+04</pdfrwt>
<totfact> 0.66609968E-01</totfact>
</mgrwt>
</event>
<event>
 4    1  0.4055965E-007  0.1002344E+04  0.7818608E-02  0.9378497E-01
          1   -1    0    0  501    0  0.00000000000E+00  0.00000000000E+00  0.12952024674E+04  0.12952024674E+04  0.50400000000E-02 0. -1.
         -1   -1    0    0    0  501 -0.00000000000E+00 -0.00000000000E+00 -0.99318204358E+03  0.99318204360E+03  0.50400000000E-02 0.  1.
    8880023    1    1    2    0    0  0.66425697491E+03 -0.36006400913E+03  0.87287763402E+03  0.13291384389E+04  0.65864270000E+03 0.  0.
    8880022    1    1    2    0    0 -0.66425697491E+03  0.36006400913E+03 -0.57085721023E+03  0.95924607212E+03  0.15294330000E+03 0.  0.
<mgrwt>
<rscale>  0 0.93866593E+03</rscale>
<asrwt>0</asrwt>
<pdfrwt beam="1">  1        1 0.19926192E+00 0.10023441E+04</pdfrwt>
<pdfrwt beam="2">  1       -1 0.15279724E+00 0.10023441E+04</pdfrwt>
<totfact> 0.30368999E+00</totfact>
</mgrwt>
</event>
<event>
 4    1  0.4055965E-007  0.6632468E+03  0.7818608E-02  0.1021052E+00
          1   -1    0    0  501    0  0.00000000000E+00  0.00000000000E+00  0.11114648426E+04  0.11114648426E+04  0.50400000000E-02 0. -1.
         -1   -1    0    0    0  501 -0.00000000000E+00 -0.00000000000E+00 -0.38072015094E+03  0.38072015097E+03  0.50400000000E-02 0.  1.
    8880023    1    1    2    0    0 -0.64257079333E+02  0.44239969645E+02  0.98373541103E+03  0.11864365606E+04  0.65864270000E+03 0. -1.
    8880022    1    1    2    0    0  0.64257079333E+02 -0.44239969645E+02 -0.25299071938E+03  0.30574843297E+03  0.15294330000E+03 0.  0.
<mgrwt>
<rscale>  0 0.47308946E+03</rscale>
<asrwt>0</asrwt>
<pdfrwt beam="1">  1        1 0.17099459E+00 0.66324683E+03</pdfrwt>
<pdfrwt beam="2">  1       -1 0.58572331E-01 0.66324683E+03</pdfrwt>
<totfact> 0.38071195E+01</totfact>
</mgrwt>
</event>
<event>
 4    1  0.4055965E-007  0.9817923E+03  0.7818608E-02  0.9405776E-01
          1   -1    0    0  501    0  0.00000000000E+00  0.00000000000E+00  0.15031147893E+04  0.15031147893E+04  0.50400000000E-02 0. -1.
         -1   -1    0    0    0  501 -0.00000000000E+00 -0.00000000000E+00 -0.95549684260E+03  0.95549684261E+03  0.50400000000E-02 0.  1.
    8880023    1    1    2    0    0 -0.58484255396E+03  0.43366474658E+03  0.11422480996E+04  0.15062027927E+04  0.65864270000E+03 0. -1.
    8880022    1    1    2    0    0  0.58484255396E+03 -0.43366474658E+03 -0.59463015289E+03  0.95240883926E+03  0.15294330000E+03 0.  0.
<mgrwt>
<rscale>  0 0.91601837E+03</rscale>
<asrwt>0</asrwt>
<pdfrwt beam="1">  1        1 0.23124843E+00 0.98179231E+03</pdfrwt>
<pdfrwt beam="2">  1       -1 0.14699951E+00 0.98179231E+03</pdfrwt>
<totfact> 0.24171205E+00</totfact>
</mgrwt>
</event>
<event>
 4    1  0.4055965E-007  0.7079093E+03  0.7818608E-02  0.9965848E-01
         -1   -1    0    0    0  501 -0.00000000000E+00  0.00000000000E+00  0.71480838017E+03  0.71480838019E+03  0.50400000000E-02 0.  1.
          1   -1    0    0  501    0  0.00000000000E+00 -0.00000000000E+00 -0.79055065854E+03  0.79055065855E+03  0.50400000000E-02 0. -1.
    8880023    1    1    2    0    0 -0.25662476871E+03 -0.38329256916E+02 -0.58189400721E+03  0.91637123795E+03  0.65864270000E+03 0. -1.
    8880022    1    1    2    0    0  0.25662476871E+03  0.38329256916E+02  0.50615172885E+03  0.58898780079E+03  0.15294330000E+03 0.  0.
<mgrwt>
<rscale>  0 0.57173443E+03</rscale>
<asrwt>0</asrwt>
<pdfrwt beam="1">  1        1 0.12162318E+00 0.70790932E+03</pdfrwt>
<pdfrwt beam="2">  1       -1 0.10997052E+00 0.70790932E+03</pdfrwt>
<totfact> 0.17783460E+01</totfact>
</mgrwt>
</event>
<event>
 4    1  0.4055965E-007  0.7288426E+03  0.7818608E-02  0.9893728E-01
          1   -1    0    0  501    0  0.00000000000E+00  0.00000000000E+00  0.24452862129E+04  0.24452862129E+04  0.50400000000E-02 0. -1.
         -1   -1    0    0    0  501 -0.00000000000E+00 -0.00000000000E+00 -0.22955989841E+03  0.22955989847E+03  0.50400000000E-02 0.  1.
    8880023    1    1    2    0    0 -0.96682035501E+01  0.31194205119E+03  0.22101756016E+04  0.23272489582E+04  0.65864270000E+03 0. -1.
    8880022    1    1    2    0    0  0.96682035501E+01 -0.31194205119E+03  0.55507129159E+01  0.34759715316E+03  0.15294330000E+03 0.  0.
<mgrwt>
<rscale>  0 0.60566226E+03</rscale>
<asrwt>0</asrwt>
<pdfrwt beam="1">  1        1 0.37619787E+00 0.72884259E+03</pdfrwt>
<pdfrwt beam="2">  1       -1 0.35316909E-01 0.72884259E+03</pdfrwt>
<totfact> 0.11905720E+01</totfact>
</mgrwt>
</event>
<event>
 4    1  0.4055965E-007  0.1079017E+04  0.7818608E-02  0.9284785E-01
          1   -1    0    0  501    0  0.00000000000E+00  0.00000000000E+00  0.14629354068E+04  0.14629354068E+04  0.50400000000E-02 0. -1.
         -1   -1    0    0    0  501 -0.00000000000E+00 -0.00000000000E+00 -0.10121702228E+04  0.10121702229E+04  0.50400000000E-02 0.  1.
    8880023    1    1    2    0    0  0.58496002789E+03 -0.62312917512E+03  0.98054058293E+03  0.14579911674E+04  0.65864270000E+03 0.  0.
    8880022    1    1    2    0    0 -0.58496002789E+03  0.62312917512E+03 -0.52977539894E+03  0.10171144623E+04  0.15294330000E+03 0.  0.
<mgrwt>
<rscale>  0 0.10219570E+04</rscale>
<asrwt>0</asrwt>
<pdfrwt beam="1">  1        1 0.22506699E+00 0.10790173E+04</pdfrwt>
<pdfrwt beam="2">  1       -1 0.15571850E+00 0.10790173E+04</pdfrwt>
<totfact> 0.21761895E+00</totfact>
</mgrwt>
</event>
<event>
 4    1  0.4055965E-007  0.7298029E+03  0.7818608E-02  0.9890713E-01
         -1   -1    0    0    0  501 -0.00000000000E+00  0.00000000000E+00  0.16640361547E+04  0.16640361547E+04  0.50400000000E-02 0.  1.
          1   -1    0    0  501    0  0.00000000000E+00 -0.00000000000E+00 -0.21208803571E+03  0.21208803577E+03  0.50400000000E-02 0. -1.
    8880023    1    1    2    0    0  0.16162930820E+03  0.26958857237E+03  0.13085266150E+04  0.14982837315E+04  0.65864270000E+03 0.  1.
    8880022    1    1    2    0    0 -0.16162930820E+03 -0.26958857237E+03  0.14342150397E+03  0.37784045897E+03  0.15294330000E+03 0.  0.
<mgrwt>
<rscale>  0 0.60713500E+03</rscale>
<asrwt>0</asrwt>
<pdfrwt beam="1">  1        1 0.32628929E-01 0.72980288E+03</pdfrwt>
<pdfrwt beam="2">  1       -1 0.25600556E+00 0.72980288E+03</pdfrwt>
<totfact> 0.91156014E+00</totfact>
</mgrwt>
</event>
<event>
 4    1  0.4055965E-007  0.7179179E+03  0.7818608E-02  0.9929695E-01
          1   -1    0    0  501    0  0.00000000000E+00  0.00000000000E+00  0.15256143523E+04  0.15256143523E+04  0.50400000000E-02 0. -1.
         -1   -1    0    0    0  501 -0.00000000000E+00 -0.00000000000E+00 -0.26366577844E+03  0.26366577849E+03  0.50400000000E-02 0.  1.
    8880023    1    1    2    0    0 -0.63796972315E+02  0.27843464417E+03  0.12769385343E+04  0.14649157421E+04  0.65864270000E+03 0.  0.
    8880022    1    1    2    0    0  0.63796972315E+02 -0.27843464417E+03 -0.14989960428E+02  0.32436438873E+03  0.15294330000E+03 0.  0.
<mgrwt>
<rscale>  0 0.58843475E+03</rscale>
<asrwt>0</asrwt>
<pdfrwt beam="1">  1        1 0.23470990E+00 0.71791790E+03</pdfrwt>
<pdfrwt beam="2">  1       -1 0.40563966E-01 0.71791790E+03</pdfrwt>
<totfact> 0.38553763E+01</totfact>
</mgrwt>
</event>
<event>
 4    1  0.4055965E-007  0.6814625E+03  0.7818608E-02  0.1008508E+00
         -1   -1    0    0    0  501 -0.00000000000E+00  0.00000000000E+00  0.14040902097E+04  0.14040902097E+04  0.50400000000E-02 0.  1.
          1   -1    0    0  501    0  0.00000000000E+00 -0.00000000000E+00 -0.56602317984E+03  0.56602317986E+03  0.50400000000E-02 0. -1.
    8880023    1    1    2    0    0  0.17267298276E+03  0.27657324588E+02 -0.34544299933E+03  0.76401698844E+03  0.65864270000E+03 0. -1.
    8880022    1    1    2    0    0 -0.17267298276E+03 -0.27657324588E+02  0.11835100292E+04  0.12060964011E+04  0.15294330000E+03 0.  0.
<mgrwt>
<rscale>  0 0.52071857E+03</rscale>
<asrwt>0</asrwt>
<pdfrwt beam="1">  1        1 0.87080490E-01 0.68146247E+03</pdfrwt>
<pdfrwt beam="2">  1       -1 0.21601388E+00 0.68146247E+03</pdfrwt>
<totfact> 0.45718317E+00</totfact>
</mgrwt>
</event>
<event>
 4    1  0.4055965E-007  0.7643390E+03  0.7818608E-02  0.9794001E-01
         -1   -1    0    0    0  501 -0.00000000000E+00  0.00000000000E+00  0.36635332805E+03  0.36635332808E+03  0.50400000000E-02 0.  1.
          1   -1    0    0  501    0  0.00000000000E+00 -0.00000000000E+00 -0.98264909351E+03  0.98264909352E+03  0.50400000000E-02 0. -1.
    8880023    1    1    2    0    0 -0.29618229853E+03 -0.25035951259E+03 -0.50971041389E+03  0.91870493185E+03  0.65864270000E+03 0.  1.
    8880022    1    1    2    0    0  0.29618229853E+03  0.25035951259E+03 -0.10658535157E+03  0.43029748976E+03  0.15294330000E+03 0. -1.
<mgrwt>
<rscale>  0 0.65685470E+03</rscale>
<asrwt>0</asrwt>
<pdfrwt beam="1">  1        1 0.15117678E+00 0.76433896E+03</pdfrwt>
<pdfrwt beam="2">  1       -1 0.56362051E-01 0.76433896E+03</pdfrwt>
<totfact> 0.50854485E+01</totfact>
</mgrwt>
</event>
<event>
 4    1  0.4055965E-007  0.6742287E+03  0.7818608E-02  0.1012797E+00
          1   -1    0    0  501    0  0.00000000000E+00  0.00000000000E+00  0.11602910557E+04  0.11602910557E+04  0.50400000000E-02 0. -1.
         -1   -1    0    0    0  501 -0.00000000000E+00 -0.00000000000E+00 -0.37900047017E+03  0.37900047020E+03  0.50400000000E-02 0.  1.
    8880023    1    1    2    0    0  0.14171064116E+03 -0.26310953642E+02  0.10190898276E+04  0.12219363547E+04  0.65864270000E+03 0. -1.
    8880022    1    1    2    0    0 -0.14171064116E+03  0.26310953642E+02 -0.23779924208E+03  0.31735517114E+03  0.15294330000E+03 0.  0.
<mgrwt>
<rscale>  0 0.50378036E+03</rscale>
<asrwt>0</asrwt>
<pdfrwt beam="1">  1        1 0.17850631E+00 0.67422873E+03</pdfrwt>
<pdfrwt beam="2">  1       -1 0.58307765E-01 0.67422873E+03</pdfrwt>
<totfact> 0.35314882E+01</totfact>
</mgrwt>
</event>
<event>
 4    1  0.4055965E-007  0.9288069E+03  0.7818608E-02  0.9481285E-01
          1   -1    0    0  501    0  0.00000000000E+00  0.00000000000E+00  0.21842300407E+04  0.21842300407E+04  0.50400000000E-02 0. -1.
         -1   -1    0    0    0  501 -0.00000000000E+00 -0.00000000000E+00 -0.30586568964E+03  0.30586568969E+03  0.50400000000E-02 0.  1.
    8880023    1    1    2    0    0 -0.10161589052E+03 -0.64695147967E+03  0.13307634743E+04  0.16228412236E+04  0.65864270000E+03 0. -1.
    8880022    1    1    2    0    0  0.10161589052E+03  0.64695147967E+03  0.54760087669E+03  0.86725450672E+03  0.15294330000E+03 0.  1.
<mgrwt>
<rscale>  0 0.85677745E+03</rscale>
<asrwt>0</asrwt>
<pdfrwt beam="1">  1        1 0.33603541E+00 0.92880688E+03</pdfrwt>
<pdfrwt beam="2">  1       -1 0.47056257E-01 0.92880688E+03</pdfrwt>
<totfact> 0.10279533E+01</totfact>
</mgrwt>
</event>
<event>
 4    1  0.4055965E-007  0.6942595E+03  0.7818608E-02  0.1002190E+00
         -1   -1    0    0    0  501 -0.00000000000E+00  0.00000000000E+00  0.22531606572E+03  0.22531606577E+03  0.50400000000E-02 0.  1.
          1   -1    0    0  501    0  0.00000000000E+00 -0.00000000000E+00 -0.24715107584E+04  0.24715107584E+04  0.50400000000E-02 0. -1.
    8880023    1    1    2    0    0  0.17041225984E+03 -0.13836817513E+03 -0.23180679171E+04  0.24198006456E+04  0.65864270000E+03 0. -1.
    8880022    1    1    2    0    0 -0.17041225984E+03  0.13836817513E+03  0.71873224402E+02  0.27702617853E+03  0.15294330000E+03 0.  0.
<mgrwt>
<rscale>  0 0.54700165E+03</rscale>
<asrwt>0</asrwt>
<pdfrwt beam="1">  1        1 0.38023241E+00 0.69425953E+03</pdfrwt>
<pdfrwt beam="2">  1       -1 0.34664012E-01 0.69425953E+03</pdfrwt>
<totfact> 0.11881807E+01</totfact>
</mgrwt>
</event>
<event>
 4    1  0.4055965E-007  0.7971575E+03  0.7818608E-02  0.9716976E-01
          1   -1    0    0  501    0  0.00000000000E+00  0.00000000000E+00  0.15634984765E+04  0.15634984765E+04  0.50400000000E-02 0. -1.
         -1   -1    0    0    0  501 -0.00000000000E+00 -0.00000000000E+00 -0.74290111594E+03  0.74290111596E+03  0.50400000000E-02 0.  1.
    8880023    1    1    2    0    0  0.41628870114E+03  0.16838516342E+03  0.13672155562E+04  0.15826365437E+04  0.65864270000E+03 0.  0.
    8880022    1    1    2    0    0 -0.41628870114E+03 -0.16838516342E+03 -0.54661819566E+03  0.72376304879E+03  0.15294330000E+03 0.  0.
<mgrwt>
<rscale>  0 0.70014972E+03</rscale>
<asrwt>0</asrwt>
<pdfrwt beam="1">  1        1 0.24053823E+00 0.79715748E+03</pdfrwt>
<pdfrwt beam="2">  1       -1 0.11429248E+00 0.79715748E+03</pdfrwt>
<totfact> 0.42651597E+00</totfact>
</mgrwt>
</event>
<event>
 4    1  0.4055965E-007  0.7750054E+03  0.7818608E-02  0.9767703E-01
         -1   -1    0    0    0  501 -0.00000000000E+00  0.00000000000E+00  0.83961810812E+03  0.83961810813E+03  0.50400000000E-02 0.  1.
          1   -1    0    0  501    0  0.00000000000E+00 -0.00000000000E+00 -0.13189977725E+04  0.13189977725E+04  0.50400000000E-02 0. -1.
    8880023    1    1    2    0    0  0.19818315930E+03 -0.35713662713E+03 -0.11330843414E+04  0.13727758251E+04  0.65864270000E+03 0. -1.
    8880022    1    1    2    0    0 -0.19818315930E+03  0.35713662713E+03  0.65370467702E+03  0.78584005551E+03  0.15294330000E+03 0.  0.
<mgrwt>
<rscale>  0 0.67124965E+03</rscale>
<asrwt>0</asrwt>
<pdfrwt beam="1">  1        1 0.20292274E+00 0.77500538E+03</pdfrwt>
<pdfrwt beam="2">  1       -1 0.12917202E+00 0.77500538E+03</pdfrwt>
<totfact> 0.46802051E+00</totfact>
</mgrwt>
</event>
<event>
 4    1  0.4055965E-007  0.1087560E+04  0.7818608E-02  0.9275034E-01
         -1   -1    0    0    0  501 -0.00000000000E+00  0.00000000000E+00  0.73433389318E+03  0.73433389320E+03  0.50400000000E-02 0.  1.
          1   -1    0    0  501    0  0.00000000000E+00 -0.00000000000E+00 -0.16394487876E+04  0.16394487876E+04  0.50400000000E-02 0. -1.
    8880023    1    1    2    0    0 -0.74810465855E+03 -0.43510576747E+03  0.33333172431E+02  0.10880711905E+04  0.65864270000E+03 0.  0.
    8880022    1    1    2    0    0  0.74810465855E+03  0.43510576747E+03 -0.93844806687E+03  0.12857114903E+04  0.15294330000E+03 0.  0.
<mgrwt>
<rscale>  0 0.10311413E+04</rscale>
<asrwt>0</asrwt>
<pdfrwt beam="1">  1        1 0.25222289E+00 0.10875605E+04</pdfrwt>
<pdfrwt beam="2">  1       -1 0.11297445E+00 0.10875605E+04</pdfrwt>
<totfact> 0.37402650E+00</totfact>
</mgrwt>
</event>
<event>
 4    1  0.4055965E-007  0.1255821E+04  0.7818608E-02  0.9104682E-01
         -1   -1    0    0    0  501 -0.00000000000E+00  0.00000000000E+00  0.12557692130E+04  0.12557692130E+04  0.50400000000E-02 0.  1.
          1   -1    0    0  501    0  0.00000000000E+00 -0.00000000000E+00 -0.21530610976E+04  0.21530610976E+04  0.50400000000E-02 0. -1.
    8880023    1    1    2    0    0 -0.66744591255E+03  0.83533957869E+03 -0.16636727533E+04  0.20844408109E+04  0.65864270000E+03 0. -1.
    8880022    1    1    2    0    0  0.66744591255E+03 -0.83533957869E+03  0.76638086868E+03  0.13243894997E+04  0.15294330000E+03 0.  0.
<mgrwt>
<rscale>  0 0.12093840E+04</rscale>
<asrwt>0</asrwt>
<pdfrwt beam="1">  1        1 0.33124017E+00 0.12558210E+04</pdfrwt>
<pdfrwt beam="2">  1       -1 0.19319526E+00 0.12558210E+04</pdfrwt>
<totfact> 0.38369132E-01</totfact>
</mgrwt>
</event>
<event>
 4    1  0.4055965E-007  0.8656976E+03  0.7818608E-02  0.9583508E-01
          1   -1    0    0  501    0  0.00000000000E+00  0.00000000000E+00  0.14094855315E+04  0.14094855315E+04  0.50400000000E-02 0. -1.
         -1   -1    0    0    0  501 -0.00000000000E+00 -0.00000000000E+00 -0.68323309430E+03  0.68323309432E+03  0.50400000000E-02 0.  1.
    8880023    1    1    2    0    0 -0.27740587912E+03  0.48853673205E+03  0.11007833339E+04  0.14004129087E+04  0.65864270000E+03 0.  0.
    8880022    1    1    2    0    0  0.27740587912E+03 -0.48853673205E+03 -0.37453089673E+03  0.69230571712E+03  0.15294330000E+03 0.  0.
<mgrwt>
<rscale>  0 0.78397433E+03</rscale>
<asrwt>0</asrwt>
<pdfrwt beam="1">  1        1 0.21684393E+00 0.86569762E+03</pdfrwt>
<pdfrwt beam="2">  1       -1 0.10511278E+00 0.86569762E+03</pdfrwt>
<totfact> 0.65653871E+00</totfact>
</mgrwt>
</event>
<event>
 4    1  0.4055965E-007  0.8387731E+03  0.7818608E-02  0.9632498E-01
          1   -1    0    0  501    0  0.00000000000E+00  0.00000000000E+00  0.83934891034E+03  0.83934891036E+03  0.50400000000E-02 0. -1.
         -1   -1    0    0    0  501 -0.00000000000E+00 -0.00000000000E+00 -0.78487793762E+03  0.78487793764E+03  0.50400000000E-02 0.  1.
    8880023    1    1    2    0    0  0.38237598426E+02 -0.51794601090E+03  0.45175637315E+03  0.95269313585E+03  0.65864270000E+03 0.  0.
    8880022    1    1    2    0    0 -0.38237598426E+02  0.51794601090E+03 -0.39728540043E+03  0.67153371215E+03  0.15294330000E+03 0.  0.
<mgrwt>
<rscale>  0 0.75182093E+03</rscale>
<asrwt>0</asrwt>
<pdfrwt beam="1">  1        1 0.12913060E+00 0.83877315E+03</pdfrwt>
<pdfrwt beam="2">  1       -1 0.12075045E+00 0.83877315E+03</pdfrwt>
<totfact> 0.12704952E+01</totfact>
</mgrwt>
</event>
<event>
 4    1  0.4055965E-007  0.8193379E+03  0.7818608E-02  0.9670445E-01
          1   -1    0    0  501    0  0.00000000000E+00  0.00000000000E+00  0.85988433510E+03  0.85988433512E+03  0.50400000000E-02 0. -1.
         -1   -1    0    0    0  501 -0.00000000000E+00 -0.00000000000E+00 -0.70275786332E+03  0.70275786334E+03  0.50400000000E-02 0.  1.
    8880023    1    1    2    0    0 -0.47843684812E+03  0.92750419466E+02  0.48838234495E+03  0.95385113046E+03  0.65864270000E+03 0. -1.
    8880022    1    1    2    0    0  0.47843684812E+03 -0.92750419466E+02 -0.33125587317E+03  0.60879106800E+03  0.15294330000E+03 0.  0.
<mgrwt>
<rscale>  0 0.72804085E+03</rscale>
<asrwt>0</asrwt>
<pdfrwt beam="1">  1        1 0.13228990E+00 0.81933794E+03</pdfrwt>
<pdfrwt beam="2">  1       -1 0.10811659E+00 0.81933794E+03</pdfrwt>
<totfact> 0.15942869E+01</totfact>
</mgrwt>
</event>
<event>
 4    1  0.5229835E-007  0.6829023E+03  0.7818608E-02  0.1007727E+00
          1   -1    0    0  501    0  0.00000000000E+00  0.00000000000E+00  0.15000703386E+04  0.15000703386E+04  0.50400000000E-02 0. -1.
         -1   -1    0    0    0  501 -0.00000000000E+00 -0.00000000000E+00 -0.74670836517E+03  0.74670836519E+03  0.50400000000E-02 0.  1.
    8880023    1    1    2    0    0  0.11745079877E+03 -0.13693293757E+03  0.14003097805E+04  0.15579547513E+04  0.65864270000E+03 0.  0.
    8880022    1    1    2    0    0 -0.11745079877E+03  0.13693293757E+03 -0.64694780703E+03  0.68882395252E+03  0.15294330000E+03 0.  0.
<mgrwt>
<rscale>  0 0.52387936E+03</rscale>
<asrwt>0</asrwt>
<pdfrwt beam="1">  1        1 0.23078005E+00 0.68290228E+03</pdfrwt>
<pdfrwt beam="2">  1       -1 0.11487821E+00 0.68290228E+03</pdfrwt>
<totfact> 0.47473350E+00</totfact>
</mgrwt>
</event>
<event>
 4    1  0.4055965E-007  0.7624504E+03  0.7818608E-02  0.9798805E-01
         -1   -1    0    0    0  501 -0.00000000000E+00  0.00000000000E+00  0.17738023478E+04  0.17738023478E+04  0.50400000000E-02 0.  1.
          1   -1    0    0  501    0  0.00000000000E+00 -0.00000000000E+00 -0.74961601058E+03  0.74961601060E+03  0.50400000000E-02 0. -1.
    8880023    1    1    2    0    0 -0.32778902576E+03  0.20018672957E+03 -0.52127892350E+03  0.92361371496E+03  0.65864270000E+03 0. -1.
    8880022    1    1    2    0    0  0.32778902576E+03 -0.20018672957E+03  0.15454652607E+04  0.15998046434E+04  0.15294330000E+03 0.  0.
<mgrwt>
<rscale>  0 0.65426738E+03</rscale>
<asrwt>0</asrwt>
<pdfrwt beam="1">  1        1 0.11532554E+00 0.76245038E+03</pdfrwt>
<pdfrwt beam="2">  1       -1 0.27289267E+00 0.76245038E+03</pdfrwt>
<totfact> 0.12727840E+00</totfact>
</mgrwt>
</event>
<event>
 4    1  0.4055965E-007  0.7638581E+03  0.7818608E-02  0.9795220E-01
         -1   -1    0    0    0  501 -0.00000000000E+00  0.00000000000E+00  0.27433372574E+03  0.27433372578E+03  0.50400000000E-02 0.  1.
          1   -1    0    0  501    0  0.00000000000E+00 -0.00000000000E+00 -0.18556823322E+04  0.18556823322E+04  0.50400000000E-02 0. -1.
    8880023    1    1    2    0    0 -0.31897712952E+03  0.21891229206E+03 -0.15309978550E+04  0.17109744706E+04  0.65864270000E+03 0.  0.
    8880022    1    1    2    0    0  0.31897712952E+03 -0.21891229206E+03 -0.50350751451E+02  0.41904158738E+03  0.15294330000E+03 0.  0.
<mgrwt>
<rscale>  0 0.65619711E+03</rscale>
<asrwt>0</asrwt>
<pdfrwt beam="1">  1        1 0.28548958E+00 0.76385811E+03</pdfrwt>
<pdfrwt beam="2">  1       -1 0.42205190E-01 0.76385811E+03</pdfrwt>
<totfact> 0.21357095E+01</totfact>
</mgrwt>
</event>
<event>
 4    1  0.4055965E-007  0.6702246E+03  0.7818608E-02  0.1015502E+00
          1   -1    0    0  501    0  0.00000000000E+00  0.00000000000E+00  0.61016362476E+03  0.61016362478E+03  0.50400000000E-02 0. -1.
         -1   -1    0    0    0  501 -0.00000000000E+00 -0.00000000000E+00 -0.63816344101E+03  0.63816344103E+03  0.50400000000E-02 0.  1.
    8880023    1    1    2    0    0 -0.11576922377E+03  0.44590839788E+02  0.39766144618E+03  0.77931745021E+03  0.65864270000E+03 0. -1.
    8880022    1    1    2    0    0  0.11576922377E+03 -0.44590839788E+02 -0.42566126244E+03  0.46900961560E+03  0.15294330000E+03 0.  0.
<mgrwt>
<rscale>  0 0.49345185E+03</rscale>
<asrwt>0</asrwt>
<pdfrwt beam="1">  1        1 0.93871327E-01 0.67022464E+03</pdfrwt>
<pdfrwt beam="2">  1       -1 0.98178991E-01 0.67022464E+03</pdfrwt>
<totfact> 0.34290184E+01</totfact>
</mgrwt>
</event>
<event>
 4    1  0.4055965E-007  0.8029810E+03  0.7818608E-02  0.9704387E-01
         -1   -1    0    0    0  501 -0.00000000000E+00  0.00000000000E+00  0.10610863382E+04  0.10610863382E+04  0.50400000000E-02 0.  1.
          1   -1    0    0  501    0  0.00000000000E+00 -0.00000000000E+00 -0.73727074740E+03  0.73727074741E+03  0.50400000000E-02 0. -1.
    8880023    1    1    2    0    0  0.34604624578E+03  0.30202697699E+03 -0.42359547046E+03  0.90786101795E+03  0.65864270000E+03 0. -1.
    8880022    1    1    2    0    0 -0.34604624578E+03 -0.30202697699E+03  0.74741106127E+03  0.89049606769E+03  0.15294330000E+03 0.  0.
<mgrwt>
<rscale>  0 0.70756181E+03</rscale>
<asrwt>0</asrwt>
<pdfrwt beam="1">  1        1 0.11342627E+00 0.80298101E+03</pdfrwt>
<pdfrwt beam="2">  1       -1 0.16324405E+00 0.80298101E+03</pdfrwt>
<totfact> 0.71271010E+00</totfact>
</mgrwt>
</event>
<event>
 4    1  0.4055965E-007  0.7113365E+03  0.7818608E-02  0.9953071E-01
         -1   -1    0    0    0  501 -0.00000000000E+00  0.00000000000E+00  0.65452637101E+03  0.65452637103E+03  0.50400000000E-02 0.  1.
          1   -1    0    0  501    0  0.00000000000E+00 -0.00000000000E+00 -0.45960002343E+03  0.45960002345E+03  0.50400000000E-02 0. -1.
    8880023    1    1    2    0    0  0.47378096706E+02 -0.26447065572E+03  0.32079225710E+03  0.78032511831E+03  0.65864270000E+03 0.  0.
    8880022    1    1    2    0    0 -0.47378096706E+02  0.26447065572E+03 -0.12586590952E+03  0.33380127618E+03  0.15294330000E+03 0.  0.
<mgrwt>
<rscale>  0 0.57756758E+03</rscale>
<asrwt>0</asrwt>
<pdfrwt beam="1">  1        1 0.70707696E-01 0.71133650E+03</pdfrwt>
<pdfrwt beam="2">  1       -1 0.10069636E+00 0.71133650E+03</pdfrwt>
<totfact> 0.47829140E+01</totfact>
</mgrwt>
</event>
<event>
 4    1  0.4055965E-007  0.7567265E+03  0.7818608E-02  0.9813657E-01
          1   -1    0    0  501    0  0.00000000000E+00  0.00000000000E+00  0.24772356110E+04  0.24772356110E+04  0.50400000000E-02 0. -1.
         -1   -1    0    0    0  501 -0.00000000000E+00 -0.00000000000E+00 -0.25511747215E+03  0.25511747220E+03  0.50400000000E-02 0.  1.
    8880023    1    1    2    0    0  0.25278657562E+03  0.27372208812E+03  0.22027710495E+04  0.23291275915E+04  0.65864270000E+03 0.  0.
    8880022    1    1    2    0    0 -0.25278657562E+03 -0.27372208812E+03  0.19347089348E+02  0.40322549178E+03  0.15294330000E+03 0.  0.
<mgrwt>
<rscale>  0 0.64634753E+03</rscale>
<asrwt>0</asrwt>
<pdfrwt beam="1">  1        1 0.38111316E+00 0.75672653E+03</pdfrwt>
<pdfrwt beam="2">  1       -1 0.39248843E-01 0.75672653E+03</pdfrwt>
<totfact> 0.93249453E+00</totfact>
</mgrwt>
</event>
<event>
 4    1  0.4055965E-007  0.7172639E+03  0.7818608E-02  0.9931955E-01
          1   -1    0    0  501    0  0.00000000000E+00  0.00000000000E+00  0.17660797816E+04  0.17660797816E+04  0.50400000000E-02 0. -1.
         -1   -1    0    0    0  501 -0.00000000000E+00 -0.00000000000E+00 -0.16042437964E+03  0.16042437972E+03  0.50400000000E-02 0.  1.
    8880023    1    1    2    0    0 -0.17353169405E+03 -0.22481991463E+03  0.12852772672E+04  0.14718712928E+04  0.65864270000E+03 0. -1.
    8880022    1    1    2    0    0  0.17353169405E+03  0.22481991463E+03  0.32037813477E+03  0.45463286849E+03  0.15294330000E+03 0.  1.
<mgrwt>
<rscale>  0 0.58737289E+03</rscale>
<asrwt>0</asrwt>
<pdfrwt beam="1">  1        1 0.27170460E+00 0.71726386E+03</pdfrwt>
<pdfrwt beam="2">  1       -1 0.24680673E-01 0.71726386E+03</pdfrwt>
<totfact> 0.63512580E+01</totfact>
</mgrwt>
</event>
<event>
 4    1  0.4055965E-007  0.7153150E+03  0.7818608E-02  0.9938769E-01
         -1   -1    0    0    0  501 -0.00000000000E+00  0.00000000000E+00  0.46116478195E+03  0.46116478198E+03  0.50400000000E-02 0.  1.
          1   -1    0    0  501    0  0.00000000000E+00 -0.00000000000E+00 -0.74848876475E+03  0.74848876477E+03  0.50400000000E-02 0. -1.
    8880023    1    1    2    0    0 -0.19638424657E+03  0.19823862570E+03  0.84462630036E+02  0.72028429606E+03  0.65864270000E+03 0.  1.
    8880022    1    1    2    0    0  0.19638424657E+03 -0.19823862570E+03 -0.37178661284E+03  0.48936925069E+03  0.15294330000E+03 0.  0.
<mgrwt>
<rscale>  0 0.58418596E+03</rscale>
<asrwt>0</asrwt>
<pdfrwt beam="1">  1        1 0.11515212E+00 0.71531499E+03</pdfrwt>
<pdfrwt beam="2">  1       -1 0.70948428E-01 0.71531499E+03</pdfrwt>
<totfact> 0.50580645E+01</totfact>
</mgrwt>
</event>
<event>
 4    1  0.4055965E-007  0.7397099E+03  0.7818608E-02  0.9860793E-01
         -1   -1    0    0    0  501 -0.00000000000E+00  0.00000000000E+00  0.28689487961E+03  0.28689487966E+03  0.50400000000E-02 0.  1.
          1   -1    0    0  501    0  0.00000000000E+00 -0.00000000000E+00 -0.11404452583E+04  0.11404452583E+04  0.50400000000E-02 0. -1.
    8880023    1    1    2    0    0 -0.55462970822E+02  0.33209095588E+03 -0.72520173590E+03  0.10358997578E+04  0.65864270000E+03 0.  1.
    8880022    1    1    2    0    0  0.55462970822E+02 -0.33209095588E+03 -0.12834864275E+03  0.39144038016E+03  0.15294330000E+03 0.  0.
<mgrwt>
<rscale>  0 0.62199639E+03</rscale>
<asrwt>0</asrwt>
<pdfrwt beam="1">  1        1 0.17545311E+00 0.73970991E+03</pdfrwt>
<pdfrwt beam="2">  1       -1 0.44137674E-01 0.73970991E+03</pdfrwt>
<totfact> 0.61515827E+01</totfact>
</mgrwt>
</event>
<event>
 4    1  0.4055965E-007  0.7947330E+03  0.7818608E-02  0.9722302E-01
         -1   -1    0    0    0  501 -0.00000000000E+00  0.00000000000E+00  0.11706477686E+04  0.11706477686E+04  0.50400000000E-02 0.  1.
          1   -1    0    0  501    0  0.00000000000E+00 -0.00000000000E+00 -0.50149793374E+03  0.50149793377E+03  0.50400000000E-02 0. -1.
    8880023    1    1    2    0    0 -0.40381664108E+03 -0.18633951685E+03 -0.68119454483E+02  0.79764701560E+03  0.65864270000E+03 0. -1.
    8880022    1    1    2    0    0  0.40381664108E+03  0.18633951685E+03  0.73726928929E+03  0.87449868673E+03  0.15294330000E+03 0.  0.
<mgrwt>
<rscale>  0 0.69704310E+03</rscale>
<asrwt>0</asrwt>
<pdfrwt beam="1">  1        1 0.77153530E-01 0.79473297E+03</pdfrwt>
<pdfrwt beam="2">  1       -1 0.18009965E+00 0.79473297E+03</pdfrwt>
<totfact> 0.94048384E+00</totfact>
</mgrwt>
</event>
<event>
 4    1  0.4055965E-007  0.8358856E+03  0.7818608E-02  0.9637988E-01
          1   -1    0    0  501    0  0.00000000000E+00  0.00000000000E+00  0.15361705546E+04  0.15361705546E+04  0.50400000000E-02 0. -1.
         -1   -1    0    0    0  501 -0.00000000000E+00 -0.00000000000E+00 -0.54113756344E+03  0.54113756346E+03  0.50400000000E-02 0.  1.
    8880023    1    1    2    0    0  0.45265950379E+02  0.51268458442E+03  0.12333123976E+04  0.14898872997E+04  0.65864270000E+03 0. -1.
    8880022    1    1    2    0    0 -0.45265950379E+02 -0.51268458442E+03 -0.23827940643E+03  0.58742081842E+03  0.15294330000E+03 0.  0.
<mgrwt>
<rscale>  0 0.74832128E+03</rscale>
<asrwt>0</asrwt>
<pdfrwt beam="1">  1        1 0.23633394E+00 0.83588558E+03</pdfrwt>
<pdfrwt beam="2">  1       -1 0.83251932E-01 0.83588558E+03</pdfrwt>
<totfact> 0.90789471E+00</totfact>
</mgrwt>
</event>
<event>
 4    1  0.4055965E-007  0.7424954E+03  0.7818608E-02  0.9852737E-01
         -1   -1    0    0    0  501 -0.00000000000E+00  0.00000000000E+00  0.80390740158E+03  0.80390740159E+03  0.50400000000E-02 0.  1.
          1   -1    0    0  501    0  0.00000000000E+00 -0.00000000000E+00 -0.72011327507E+03  0.72011327509E+03  0.50400000000E-02 0. -1.
    8880023    1    1    2    0    0 -0.30285913572E+03  0.16051651870E+03 -0.45243495731E+03  0.86948076789E+03  0.65864270000E+03 0. -1.
    8880022    1    1    2    0    0  0.30285913572E+03 -0.16051651870E+03  0.53622908381E+03  0.65453990880E+03  0.15294330000E+03 0.  0.
<mgrwt>
<rscale>  0 0.62607567E+03</rscale>
<asrwt>0</asrwt>
<pdfrwt beam="1">  1        1 0.11078666E+00 0.74249540E+03</pdfrwt>
<pdfrwt beam="2">  1       -1 0.12367806E+00 0.74249540E+03</pdfrwt>
<totfact> 0.15429526E+01</totfact>
</mgrwt>
</event>
<event>
 4    1  0.4055965E-007  0.6866391E+03  0.7818608E-02  0.1005793E+00
         -1   -1    0    0    0  501 -0.00000000000E+00  0.00000000000E+00  0.16526403489E+04  0.16526403489E+04  0.50400000000E-02 0.  1.
          1   -1    0    0  501    0  0.00000000000E+00 -0.00000000000E+00 -0.92549665290E+03  0.92549665291E+03  0.50400000000E-02 0. -1.
    8880023    1    1    2    0    0 -0.11059610459E+03 -0.15947257746E+03 -0.78673018513E+03  0.10442306219E+04  0.65864270000E+03 0. -1.
    8880022    1    1    2    0    0  0.11059610459E+03  0.15947257746E+03  0.15138738811E+04  0.15339063798E+04  0.15294330000E+03 0.  0.
<mgrwt>
<rscale>  0 0.53181579E+03</rscale>
<asrwt>0</asrwt>
<pdfrwt beam="1">  1        1 0.14238410E+00 0.68663907E+03</pdfrwt>
<pdfrwt beam="2">  1       -1 0.25425236E+00 0.68663907E+03</pdfrwt>
<totfact> 0.12075031E+00</totfact>
</mgrwt>
</event>
<event>
 4    1  0.4055965E-007  0.6933440E+03  0.7818608E-02  0.1002602E+00
         -1   -1    0    0    0  501 -0.00000000000E+00  0.00000000000E+00  0.53076497178E+03  0.53076497180E+03  0.50400000000E-02 0.  1.
          1   -1    0    0  501    0  0.00000000000E+00 -0.00000000000E+00 -0.13681478200E+04  0.13681478200E+04  0.50400000000E-02 0. -1.
    8880023    1    1    2    0    0  0.10030057427E+03  0.19197765975E+03 -0.12377434346E+04  0.14187087944E+04  0.65864270000E+03 0.  0.
    8880022    1    1    2    0    0 -0.10030057427E+03 -0.19197765975E+03  0.40036058637E+03  0.48020399746E+03  0.15294330000E+03 0.  1.
<mgrwt>
<rscale>  0 0.54523859E+03</rscale>
<asrwt>0</asrwt>
<pdfrwt beam="1">  1        1 0.21048428E+00 0.69334395E+03</pdfrwt>
<pdfrwt beam="2">  1       -1 0.81656150E-01 0.69334395E+03</pdfrwt>
<totfact> 0.12613040E+01</totfact>
</mgrwt>
</event>
<event>
 4    1  0.4055965E-007  0.6689077E+03  0.7818608E-02  0.1016458E+00
         -1   -1    0    0    0  501 -0.00000000000E+00  0.00000000000E+00  0.52995195438E+03  0.52995195440E+03  0.50400000000E-02 0.  1.
          1   -1    0    0  501    0  0.00000000000E+00 -0.00000000000E+00 -0.65266522033E+03  0.65266522035E+03  0.50400000000E-02 0. -1.
    8880023    1    1    2    0    0 -0.11555668647E+02  0.11616262599E+03 -0.44772880507E+03  0.80492147338E+03  0.65864270000E+03 0. -1.
    8880022    1    1    2    0    0  0.11555668647E+02 -0.11616262599E+03  0.32501553912E+03  0.37769570137E+03  0.15294330000E+03 0.  0.
<mgrwt>
<rscale>  0 0.48986639E+03</rscale>
<asrwt>0</asrwt>
<pdfrwt beam="1">  1        1 0.10041003E+00 0.66890769E+03</pdfrwt>
<pdfrwt beam="2">  1       -1 0.81531070E-01 0.66890769E+03</pdfrwt>
<totfact> 0.46725184E+01</totfact>
</mgrwt>
</event>
<event>
 4    1  0.4055965E-007  0.6659903E+03  0.7818608E-02  0.1018717E+00
          1   -1    0    0  501    0  0.00000000000E+00  0.00000000000E+00  0.18811357660E+04  0.18811357660E+04  0.50400000000E-02 0. -1.
         -1   -1    0    0    0  501 -0.00000000000E+00 -0.00000000000E+00 -0.30804804231E+03  0.30804804235E+03  0.50400000000E-02 0.  1.
    8880023    1    1    2    0    0  0.53625116257E+01 -0.98509358743E+02  0.17877378130E+04  0.19077603478E+04  0.65864270000E+03 0. -1.
    8880022    1    1    2    0    0 -0.53625116257E+01  0.98509358743E+02 -0.21465008933E+03  0.28142346056E+03  0.15294330000E+03 0.  0.
<mgrwt>
<rscale>  0 0.48152583E+03</rscale>
<asrwt>0</asrwt>
<pdfrwt beam="1">  1        1 0.28940550E+00 0.66599028E+03</pdfrwt>
<pdfrwt beam="2">  1       -1 0.47392007E-01 0.66599028E+03</pdfrwt>
<totfact> 0.16807301E+01</totfact>
</mgrwt>
</event>
<event>
 4    1  0.4055965E-007  0.1287203E+04  0.7818608E-02  0.9076690E-01
         -1   -1    0    0    0  501 -0.00000000000E+00  0.00000000000E+00  0.21660726796E+04  0.21660726796E+04  0.50400000000E-02 0.  1.
          1   -1    0    0  501    0  0.00000000000E+00 -0.00000000000E+00 -0.13881384428E+04  0.13881384428E+04  0.50400000000E-02 0. -1.
    8880023    1    1    2    0    0 -0.90513674996E+03 -0.63546047055E+03 -0.87723342193E+03  0.15577006223E+04  0.65864270000E+03 0.  0.
    8880022    1    1    2    0    0  0.90513674996E+03  0.63546047055E+03  0.16551676588E+04  0.19965105002E+04  0.15294330000E+03 0.  0.
<mgrwt>
<rscale>  0 0.12422123E+04</rscale>
<asrwt>0</asrwt>
<pdfrwt beam="1">  1        1 0.21355976E+00 0.12872035E+04</pdfrwt>
<pdfrwt beam="2">  1       -1 0.33324195E+00 0.12872035E+04</pdfrwt>
<totfact> 0.15289523E-01</totfact>
</mgrwt>
</event>
<event>
 4    1  0.4055965E-007  0.9504685E+03  0.7818608E-02  0.9449440E-01
          1   -1    0    0  501    0  0.00000000000E+00  0.00000000000E+00  0.77667446651E+03  0.77667446653E+03  0.50400000000E-02 0. -1.
         -1   -1    0    0    0  501 -0.00000000000E+00 -0.00000000000E+00 -0.11884832836E+04  0.11884832836E+04  0.50400000000E-02 0.  1.
    8880023    1    1    2    0    0  0.69767840201E+02 -0.68169829609E+03  0.26834131488E+03  0.98762208661E+03  0.65864270000E+03 0. -1.
    8880022    1    1    2    0    0 -0.69767840201E+02  0.68169829609E+03 -0.68015013194E+03  0.97753566350E+03  0.15294330000E+03 0.  0.
<mgrwt>
<rscale>  0 0.88116258E+03</rscale>
<asrwt>0</asrwt>
<pdfrwt beam="1">  1        1 0.11948838E+00 0.95046848E+03</pdfrwt>
<pdfrwt beam="2">  1       -1 0.18284358E+00 0.95046848E+03</pdfrwt>
<totfact> 0.46441536E+00</totfact>
</mgrwt>
</event>
<event>
 4    1  0.4055965E-007  0.1355612E+04  0.7818608E-02  0.9018964E-01
         -1   -1    0    0    0  501 -0.00000000000E+00  0.00000000000E+00  0.11211688230E+04  0.11211688230E+04  0.50400000000E-02 0.  1.
          1   -1    0    0  501    0  0.00000000000E+00 -0.00000000000E+00 -0.33803005014E+04  0.33803005014E+04  0.50400000000E-02 0. -1.
    8880023    1    1    2    0    0  0.63779437394E+03 -0.99854552540E+03 -0.28593960819E+04  0.31644637759E+04  0.65864270000E+03 0.  0.
    8880022    1    1    2    0    0 -0.63779437394E+03  0.99854552540E+03  0.60026440342E+03  0.13370055485E+04  0.15294330000E+03 0.  0.
<mgrwt>
<rscale>  0 0.13134538E+04</rscale>
<asrwt>0</asrwt>
<pdfrwt beam="1">  1        1 0.52004623E+00 0.13556124E+04</pdfrwt>
<pdfrwt beam="2">  1       -1 0.17248751E+00 0.13556124E+04</pdfrwt>
<totfact> 0.71130232E-02</totfact>
</mgrwt>
</event>
<event>
 4    1  0.4055965E-007  0.9993964E+03  0.7818608E-02  0.9382348E-01
         -1   -1    0    0    0  501 -0.00000000000E+00  0.00000000000E+00  0.15684176382E+04  0.15684176382E+04  0.50400000000E-02 0.  1.
          1   -1    0    0  501    0  0.00000000000E+00 -0.00000000000E+00 -0.88023369979E+03  0.88023369981E+03  0.50400000000E-02 0. -1.
    8880023    1    1    2    0    0 -0.22802966257E+03 -0.71623007188E+03 -0.43383391691E+03  0.10894976441E+04  0.65864270000E+03 0. -1.
    8880022    1    1    2    0    0  0.22802966257E+03  0.71623007188E+03  0.11220178553E+04  0.13591536938E+04  0.15294330000E+03 0.  0.
<mgrwt>
<rscale>  0 0.93542742E+03</rscale>
<asrwt>0</asrwt>
<pdfrwt beam="1">  1        1 0.13542057E+00 0.99939644E+03</pdfrwt>
<pdfrwt beam="2">  1       -1 0.24129502E+00 0.99939644E+03</pdfrwt>
<totfact> 0.15129592E+00</totfact>
</mgrwt>
</event>
<event>
 4    1  0.4055965E-007  0.7073553E+03  0.7818608E-02  0.9967956E-01
          1   -1    0    0  501    0  0.00000000000E+00  0.00000000000E+00  0.63668157825E+03  0.63668157827E+03  0.50400000000E-02 0. -1.
         -1   -1    0    0    0  501 -0.00000000000E+00 -0.00000000000E+00 -0.11890482244E+04  0.11890482244E+04  0.50400000000E-02 0.  1.
    8880023    1    1    2    0    0 -0.13006105982E+03  0.22276772632E+03  0.41009046486E+03  0.81763423045E+03  0.65864270000E+03 0.  0.
    8880022    1    1    2    0    0  0.13006105982E+03 -0.22276772632E+03 -0.96245711098E+03  0.10080955722E+04  0.15294330000E+03 0.  0.
<mgrwt>
<rscale>  0 0.57077915E+03</rscale>
<asrwt>0</asrwt>
<pdfrwt beam="1">  1        1 0.97951012E-01 0.70735532E+03</pdfrwt>
<pdfrwt beam="2">  1       -1 0.18293050E+00 0.70735532E+03</pdfrwt>
<totfact> 0.64777453E+00</totfact>
</mgrwt>
</event>
<event>
 4    1  0.4055965E-007  0.7319596E+03  0.7818608E-02  0.9884019E-01
          1   -1    0    0  501    0  0.00000000000E+00  0.00000000000E+00  0.11911846431E+04  0.11911846431E+04  0.50400000000E-02 0. -1.
         -1   -1    0    0    0  501 -0.00000000000E+00 -0.00000000000E+00 -0.69538572776E+03  0.69538572778E+03  0.50400000000E-02 0.  1.
    8880023    1    1    2    0    0  0.19232653070E+03 -0.25488252036E+03  0.10191197430E+04  0.12547389571E+04  0.65864270000E+03 0. -1.
    8880022    1    1    2    0    0 -0.19232653070E+03  0.25488252036E+03 -0.52332082775E+03  0.63183141373E+03  0.15294330000E+03 0.  0.
<mgrwt>
<rscale>  0 0.61042067E+03</rscale>
<asrwt>0</asrwt>
<pdfrwt beam="1">  1        1 0.18325918E+00 0.73195956E+03</pdfrwt>
<pdfrwt beam="2">  1       -1 0.10698242E+00 0.73195956E+03</pdfrwt>
<totfact> 0.91717085E+00</totfact>
</mgrwt>
</event>
<event>
 4    1  0.4055965E-007  0.8267260E+03  0.7818608E-02  0.9655736E-01
         -1   -1    0    0    0  501 -0.00000000000E+00  0.00000000000E+00  0.29372366878E+03  0.29372366883E+03  0.50400000000E-02 0.  1.
          1   -1    0    0  501    0  0.00000000000E+00 -0.00000000000E+00 -0.18768315944E+04  0.18768315944E+04  0.50400000000E-02 0. -1.
    8880023    1    1    2    0    0 -0.46008552357E+03 -0.19490261347E+03 -0.13824792194E+04  0.16108149230E+04  0.65864270000E+03 0.  0.
    8880022    1    1    2    0    0  0.46008552357E+03  0.19490261347E+03 -0.20062870623E+03  0.55974034026E+03  0.15294330000E+03 0.  0.
<mgrwt>
<rscale>  0 0.73714504E+03</rscale>
<asrwt>0</asrwt>
<pdfrwt beam="1">  1        1 0.28874332E+00 0.82672603E+03</pdfrwt>
<pdfrwt beam="2">  1       -1 0.45188258E-01 0.82672603E+03</pdfrwt>
<totfact> 0.18070367E+01</totfact>
</mgrwt>
</event>
<event>
 4    1  0.4055965E-007  0.6775720E+03  0.7818608E-02  0.1010732E+00
          1   -1    0    0  501    0  0.00000000000E+00  0.00000000000E+00  0.38147541501E+03  0.38147541504E+03  0.50400000000E-02 0. -1.
         -1   -1    0    0    0  501 -0.00000000000E+00 -0.00000000000E+00 -0.61423047873E+03  0.61423047875E+03  0.50400000000E-02 0.  1.
    8880023    1    1    2    0    0  0.14535628325E+03 -0.64538028680E+02 -0.35872769744E+01  0.67758149403E+03  0.65864270000E+03 0. -1.
    8880022    1    1    2    0    0 -0.14535628325E+03  0.64538028680E+02 -0.22916778675E+03  0.31812439976E+03  0.15294330000E+03 0.  0.
<mgrwt>
<rscale>  0 0.51184831E+03</rscale>
<asrwt>0</asrwt>
<pdfrwt beam="1">  1        1 0.58688525E-01 0.67757200E+03</pdfrwt>
<pdfrwt beam="2">  1       -1 0.94496997E-01 0.67757200E+03</pdfrwt>
<totfact> 0.70950184E+01</totfact>
</mgrwt>
</event>
<event>
 4    1  0.4055965E-007  0.8898825E+03  0.7818608E-02  0.9542473E-01
          1   -1    0    0  501    0  0.00000000000E+00  0.00000000000E+00  0.17599272954E+04  0.17599272954E+04  0.50400000000E-02 0. -1.
         -1   -1    0    0    0  501 -0.00000000000E+00 -0.00000000000E+00 -0.47931256600E+03  0.47931256603E+03  0.50400000000E-02 0.  1.
    8880023    1    1    2    0    0  0.58190469128E+03 -0.13952602401E+03  0.13508577048E+04  0.16176239754E+04  0.65864270000E+03 0.  0.
    8880022    1    1    2    0    0 -0.58190469128E+03  0.13952602401E+03 -0.70242975385E+02  0.62161588599E+03  0.15294330000E+03 0.  0.
<mgrwt>
<rscale>  0 0.81223622E+03</rscale>
<asrwt>0</asrwt>
<pdfrwt beam="1">  1        1 0.27075805E+00 0.88988246E+03</pdfrwt>
<pdfrwt beam="2">  1       -1 0.73740394E-01 0.88988246E+03</pdfrwt>
<totfact> 0.82148786E+00</totfact>
</mgrwt>
</event>
<event>
 4    1  0.4055965E-007  0.8355600E+03  0.7818608E-02  0.9638610E-01
          1   -1    0    0  501    0  0.00000000000E+00  0.00000000000E+00  0.36579563595E+04  0.36579563595E+04  0.50400000000E-02 0. -1.
         -1   -1    0    0    0  501 -0.00000000000E+00 -0.00000000000E+00 -0.24199966029E+03  0.24199966034E+03  0.50400000000E-02 0.  1.
    8880023    1    1    2    0    0  0.15632627133E+03  0.48980853804E+03  0.32235444116E+04  0.33300749371E+04  0.65864270000E+03 0.  0.
    8880022    1    1    2    0    0 -0.15632627133E+03 -0.48980853804E+03  0.19241228767E+03  0.56988108278E+03  0.15294330000E+03 0.  0.
<mgrwt>
<rscale>  0 0.74792600E+03</rscale>
<asrwt>0</asrwt>
<pdfrwt beam="1">  1        1 0.56276255E+00 0.83556000E+03</pdfrwt>
<pdfrwt beam="2">  1       -1 0.37230715E-01 0.83556000E+03</pdfrwt>
<totfact> 0.13915494E+00</totfact>
</mgrwt>
</event>
<event>
 4    1  0.4055965E-007  0.7690554E+03  0.7818608E-02  0.9782204E-01
         -1   -1    0    0    0  501 -0.00000000000E+00  0.00000000000E+00  0.16122584198E+04  0.16122584198E+04  0.50400000000E-02 0.  1.
          1   -1    0    0  501    0  0.00000000000E+00 -0.00000000000E+00 -0.51361639527E+03  0.51361639529E+03  0.50400000000E-02 0. -1.
    8880023    1    1    2    0    0  0.22449010241E+03 -0.32747558301E+03 -0.17014250056E+03  0.78765140786E+03  0.65864270000E+03 0. -1.
    8880022    1    1    2    0    0 -0.22449010241E+03  0.32747558301E+03  0.12687845251E+04  0.13382234072E+04  0.15294330000E+03 0.  0.
<mgrwt>
<rscale>  0 0.66326392E+03</rscale>
<asrwt>0</asrwt>
<pdfrwt beam="1">  1        1 0.79017909E-01 0.76905544E+03</pdfrwt>
<pdfrwt beam="2">  1       -1 0.24803975E+00 0.76905544E+03</pdfrwt>
<totfact> 0.31873320E+00</totfact>
</mgrwt>
</event>
<event>
 4    1  0.4055965E-007  0.1012213E+04  0.7818608E-02  0.9365751E-01
         -1   -1    0    0    0  501 -0.00000000000E+00  0.00000000000E+00  0.54904539241E+03  0.54904539243E+03  0.50400000000E-02 0.  1.
          1   -1    0    0  501    0  0.00000000000E+00 -0.00000000000E+00 -0.15126018467E+04  0.15126018467E+04  0.50400000000E-02 0. -1.
    8880023    1    1    2    0    0 -0.76590364021E+03 -0.64469103714E+02 -0.36680350530E+03  0.10766242005E+04  0.65864270000E+03 0. -1.
    8880022    1    1    2    0    0  0.76590364021E+03  0.64469103714E+02 -0.59675294896E+03  0.98502303858E+03  0.15294330000E+03 0.  0.
<mgrwt>
<rscale>  0 0.94948640E+03</rscale>
<asrwt>0</asrwt>
<pdfrwt beam="1">  1        1 0.23270798E+00 0.10122129E+04</pdfrwt>
<pdfrwt beam="2">  1       -1 0.84468522E-01 0.10122129E+04</pdfrwt>
<totfact> 0.89384225E+00</totfact>
</mgrwt>
</event>
<event>
 4    1  0.4055965E-007  0.1282152E+04  0.7818608E-02  0.9081128E-01
          1   -1    0    0  501    0  0.00000000000E+00  0.00000000000E+00  0.19566812655E+04  0.19566812655E+04  0.50400000000E-02 0. -1.
         -1   -1    0    0    0  501 -0.00000000000E+00 -0.00000000000E+00 -0.74172233380E+03  0.74172233381E+03  0.50400000000E-02 0.  1.
    8880023    1    1    2    0    0  0.83535383649E+03  0.71574227684E+03  0.49258179427E+03  0.13735174077E+04  0.65864270000E+03 0.  0.
    8880022    1    1    2    0    0 -0.83535383649E+03 -0.71574227684E+03  0.72237713741E+03  0.13248861916E+04  0.15294330000E+03 0.  0.
<mgrwt>
<rscale>  0 0.12369346E+04</rscale>
<asrwt>0</asrwt>
<pdfrwt beam="1">  1        1 0.30102788E+00 0.12821518E+04</pdfrwt>
<pdfrwt beam="2">  1       -1 0.11411113E+00 0.12821518E+04</pdfrwt>
<totfact> 0.21757059E+00</totfact>
</mgrwt>
</event>
<event>
 4    1  0.4055965E-007  0.9787779E+03  0.7818608E-02  0.9409865E-01
         -1   -1    0    0    0  501 -0.00000000000E+00  0.00000000000E+00  0.74508669606E+03  0.74508669608E+03  0.50400000000E-02 0.  1.
          1   -1    0    0  501    0  0.00000000000E+00 -0.00000000000E+00 -0.11566736093E+04  0.11566736094E+04  0.50400000000E-02 0. -1.
    8880023    1    1    2    0    0  0.33237383096E+03 -0.64321345610E+03  0.12635516858E+03  0.98690007017E+03  0.65864270000E+03 0. -1.
    8880022    1    1    2    0    0 -0.33237383096E+03  0.64321345610E+03 -0.53794208186E+03  0.91486023526E+03  0.15294330000E+03 0.  1.
<mgrwt>
<rscale>  0 0.91268267E+03</rscale>
<asrwt>0</asrwt>
<pdfrwt beam="1">  1        1 0.17794979E+00 0.97877787E+03</pdfrwt>
<pdfrwt beam="2">  1       -1 0.11462872E+00 0.97877787E+03</pdfrwt>
<totfact> 0.79991751E+00</totfact>
</mgrwt>
</event>
<event>
 4    1  0.4055965E-007  0.9890144E+03  0.7818608E-02  0.9396073E-01
         -1   -1    0    0    0  501 -0.00000000000E+00  0.00000000000E+00  0.12130771668E+04  0.12130771668E+04  0.50400000000E-02 0.  1.
          1   -1    0    0  501    0  0.00000000000E+00 -0.00000000000E+00 -0.22344860952E+04  0.22344860952E+04  0.50400000000E-02 0. -1.
    8880023    1    1    2    0    0 -0.10733560328E+03  0.72994408813E+03  0.92885614445E+03  0.13568062673E+04  0.65864270000E+03 0.  0.
    8880022    1    1    2    0    0  0.10733560328E+03 -0.72994408813E+03 -0.19502650729E+04  0.20907569948E+04  0.15294330000E+03 0.  0.
<mgrwt>
<rscale>  0 0.92399535E+03</rscale>
<asrwt>0</asrwt>
<pdfrwt beam="1">  1        1 0.34376709E+00 0.98901441E+03</pdfrwt>
<pdfrwt beam="2">  1       -1 0.18662726E+00 0.98901441E+03</pdfrwt>
<totfact> 0.39184704E-01</totfact>
</mgrwt>
</event>
<event>
 4    1  0.4055965E-007  0.6999656E+03  0.7818608E-02  0.9997344E-01
         -1   -1    0    0    0  501 -0.00000000000E+00  0.00000000000E+00  0.20656389398E+03  0.20656389404E+03  0.50400000000E-02 0.  1.
          1   -1    0    0  501    0  0.00000000000E+00 -0.00000000000E+00 -0.16018026609E+04  0.16018026609E+04  0.50400000000E-02 0. -1.
    8880023    1    1    2    0    0 -0.19814280546E+03  0.12992698197E+03 -0.13528186750E+04  0.15231776540E+04  0.65864270000E+03 0.  0.
    8880022    1    1    2    0    0  0.19814280546E+03 -0.12992698197E+03 -0.42420091924E+02  0.28518890093E+03  0.15294330000E+03 0.  0.
<mgrwt>
<rscale>  0 0.55766848E+03</rscale>
<asrwt>0</asrwt>
<pdfrwt beam="1">  1        1 0.24643117E+00 0.69996557E+03</pdfrwt>
<pdfrwt beam="2">  1       -1 0.31779062E-01 0.69996557E+03</pdfrwt>
<totfact> 0.53047201E+01</totfact>
</mgrwt>
</event>
<event>
 4    1  0.4055965E-007  0.1159784E+04  0.7818608E-02  0.9197243E-01
         -1   -1    0    0    0  501 -0.00000000000E+00  0.00000000000E+00  0.82193368810E+03  0.82193368812E+03  0.50400000000E-02 0.  1.
          1   -1    0    0  501    0  0.00000000000E+00 -0.00000000000E+00 -0.17897570977E+04  0.17897570977E+04  0.50400000000E-02 0. -1.
    8880023    1    1    2    0    0  0.92897178057E+03  0.21977058899E+03  0.10858402222E+03  0.11648555177E+04  0.65864270000E+03 0.  0.
    8880022    1    1    2    0    0 -0.92897178057E+03 -0.21977058899E+03 -0.10764074318E+04  0.14468352681E+04  0.15294330000E+03 0.  0.
<mgrwt>
<rscale>  0 0.11081933E+04</rscale>
<asrwt>0</asrwt>
<pdfrwt beam="1">  1        1 0.27534724E+00 0.11597836E+04</pdfrwt>
<pdfrwt beam="2">  1       -1 0.12645134E+00 0.11597836E+04</pdfrwt>
<totfact> 0.22234763E+00</totfact>
</mgrwt>
</event>
<event>
 4    1  0.4055965E-007  0.7841229E+03  0.7818608E-02  0.9746240E-01
         -1   -1    0    0    0  501 -0.00000000000E+00  0.00000000000E+00  0.50928957537E+03  0.50928957540E+03  0.50400000000E-02 0.  1.
          1   -1    0    0  501    0  0.00000000000E+00 -0.00000000000E+00 -0.93123800654E+03  0.93123800656E+03  0.50400000000E-02 0. -1.
    8880023    1    1    2    0    0 -0.42469640066E+03 -0.25912097831E+02 -0.56480015799E+03  0.96635805697E+03  0.65864270000E+03 0.  0.
    8880022    1    1    2    0    0  0.42469640066E+03  0.25912097831E+02  0.14285172682E+03  0.47416952498E+03  0.15294330000E+03 0.  0.
<mgrwt>
<rscale>  0 0.68329179E+03</rscale>
<asrwt>0</asrwt>
<pdfrwt beam="1">  1        1 0.14326739E+00 0.78412287E+03</pdfrwt>
<pdfrwt beam="2">  1       -1 0.78352243E-01 0.78412287E+03</pdfrwt>
<totfact> 0.28623404E+01</totfact>
</mgrwt>
</event>
<event>
 4    1  0.4055965E-007  0.9772420E+03  0.7818608E-02  0.9411957E-01
          1   -1    0    0  501    0  0.00000000000E+00  0.00000000000E+00  0.13672833368E+04  0.13672833368E+04  0.50400000000E-02 0. -1.
         -1   -1    0    0    0  501 -0.00000000000E+00 -0.00000000000E+00 -0.55619361172E+03  0.55619361174E+03  0.50400000000E-02 0.  1.
    8880023    1    1    2    0    0 -0.45347025037E+02 -0.72051054703E+03  0.63297294162E+03  0.11643267377E+04  0.65864270000E+03 0.  0.
    8880022    1    1    2    0    0  0.45347025037E+02  0.72051054703E+03  0.17811678347E+03  0.75915021085E+03  0.15294330000E+03 0.  0.
<mgrwt>
<rscale>  0 0.91098172E+03</rscale>
<asrwt>0</asrwt>
<pdfrwt beam="1">  1        1 0.21035128E+00 0.97724204E+03</pdfrwt>
<pdfrwt beam="2">  1       -1 0.85568248E-01 0.97724204E+03</pdfrwt>
<totfact> 0.11011377E+01</totfact>
</mgrwt>
</event>
<event>
 4    1  0.4138088E-007  0.8419215E+03  0.7818608E-02  0.9626568E-01
         -1   -1    0    0    0  501 -0.00000000000E+00  0.00000000000E+00  0.11674421449E+04  0.11674421449E+04  0.50400000000E-02 0.  1.
          1   -1    0    0  501    0  0.00000000000E+00 -0.00000000000E+00 -0.12526696205E+04  0.12526696205E+04  0.50400000000E-02 0. -1.
    8880023    1    1    2    0    0  0.28159842321E+03  0.44240698381E+03 -0.10290643358E+04  0.13295883667E+04  0.65864270000E+03 0. -1.
    8880022    1    1    2    0    0 -0.28159842321E+03 -0.44240698381E+03  0.94383686026E+03  0.10905233987E+04  0.15294330000E+03 0.  0.
<mgrwt>
<rscale>  0 0.75562439E+03</rscale>
<asrwt>0</asrwt>
<pdfrwt beam="1">  1        1 0.19271840E+00 0.84192150E+03</pdfrwt>
<pdfrwt beam="2">  1       -1 0.17960648E+00 0.84192150E+03</pdfrwt>
<totfact> 0.21069638E+00</totfact>
</mgrwt>
</event>
<event>
 4    1  0.4055965E-007  0.9133396E+03  0.7818608E-02  0.9504948E-01
         -1   -1    0    0    0  501 -0.00000000000E+00  0.00000000000E+00  0.33285826609E+03  0.33285826613E+03  0.50400000000E-02 0.  1.
          1   -1    0    0  501    0  0.00000000000E+00 -0.00000000000E+00 -0.23716177878E+04  0.23716177878E+04  0.50400000000E-02 0. -1.
    8880023    1    1    2    0    0  0.62813882214E+00 -0.63275481003E+03 -0.17863093349E+04  0.20062627671E+04  0.65864270000E+03 0.  1.
    8880022    1    1    2    0    0 -0.62813882214E+00  0.63275481003E+03 -0.25245018681E+03  0.69821328691E+03  0.15294330000E+03 0.  0.
<mgrwt>
<rscale>  0 0.83920021E+03</rscale>
<asrwt>0</asrwt>
<pdfrwt beam="1">  1        1 0.36486426E+00 0.91333961E+03</pdfrwt>
<pdfrwt beam="2">  1       -1 0.51208966E-01 0.91333961E+03</pdfrwt>
<totfact> 0.65523748E+00</totfact>
</mgrwt>
</event>
<event>
 4    1  0.4055965E-007  0.7505312E+03  0.7818608E-02  0.9830268E-01
          1   -1    0    0  501    0  0.00000000000E+00  0.00000000000E+00  0.52187062736E+03  0.52187062738E+03  0.50400000000E-02 0. -1.
         -1   -1    0    0    0  501 -0.00000000000E+00 -0.00000000000E+00 -0.63331614764E+03  0.63331614766E+03  0.50400000000E-02 0.  1.
    8880023    1    1    2    0    0  0.20615964575E+03 -0.29493242207E+03 -0.73374410705E+01  0.75056710388E+03  0.65864270000E+03 0.  0.
    8880022    1    1    2    0    0 -0.20615964575E+03  0.29493242207E+03 -0.10410807921E+03  0.40461967116E+03  0.15294330000E+03 0.  0.
<mgrwt>
<rscale>  0 0.63763172E+03</rscale>
<asrwt>0</asrwt>
<pdfrwt beam="1">  1        1 0.80287789E-01 0.75053124E+03</pdfrwt>
<pdfrwt beam="2">  1       -1 0.97433253E-01 0.75053124E+03</pdfrwt>
<totfact> 0.43167687E+01</totfact>
</mgrwt>
</event>
<event>
 4    1  0.4055965E-007  0.1250918E+04  0.7818608E-02  0.9109148E-01
          1   -1    0    0  501    0  0.00000000000E+00  0.00000000000E+00  0.16113072600E+04  0.16113072600E+04  0.50400000000E-02 0. -1.
         -1   -1    0    0    0  501 -0.00000000000E+00 -0.00000000000E+00 -0.16672102142E+04  0.16672102142E+04  0.50400000000E-02 0.  1.
    8880023    1    1    2    0    0 -0.61980667659E+03  0.86419072617E+03  0.11247170369E+04  0.16821963461E+04  0.65864270000E+03 0. -1.
    8880022    1    1    2    0    0  0.61980667659E+03 -0.86419072617E+03 -0.11806199911E+04  0.15963211281E+04  0.15294330000E+03 0.  0.
<mgrwt>
<rscale>  0 0.12042458E+04</rscale>
<asrwt>0</asrwt>
<pdfrwt beam="1">  1        1 0.24789342E+00 0.12509181E+04</pdfrwt>
<pdfrwt beam="2">  1       -1 0.25649388E+00 0.12509181E+04</pdfrwt>
<totfact> 0.33777773E-01</totfact>
</mgrwt>
</event>
<event>
 4    1  0.4055965E-007  0.6844772E+03  0.7818608E-02  0.1006897E+00
          1   -1    0    0  501    0  0.00000000000E+00  0.00000000000E+00  0.21981182433E+04  0.21981182433E+04  0.50400000000E-02 0. -1.
         -1   -1    0    0    0  501 -0.00000000000E+00 -0.00000000000E+00 -0.25060346374E+03  0.25060346379E+03  0.50400000000E-02 0.  1.
    8880023    1    1    2    0    0  0.17869789170E+03 -0.52591260036E+02  0.20686669153E+04  0.21789657615E+04  0.65864270000E+03 0.  0.
    8880022    1    1    2    0    0 -0.17869789170E+03  0.52591260036E+02 -0.12115213578E+03  0.26975594553E+03  0.15294330000E+03 0.  1.
<mgrwt>
<rscale>  0 0.52726907E+03</rscale>
<asrwt>0</asrwt>
<pdfrwt beam="1">  1        1 0.33817204E+00 0.68447716E+03</pdfrwt>
<pdfrwt beam="2">  1       -1 0.38554379E-01 0.68447716E+03</pdfrwt>
<totfact> 0.15041781E+01</totfact>
</mgrwt>
</event>
<event>
 4    1  0.4055965E-007  0.7448302E+03  0.7818608E-02  0.9846094E-01
          1   -1    0    0  501    0  0.00000000000E+00  0.00000000000E+00  0.17501667411E+04  0.17501667411E+04  0.50400000000E-02 0. -1.
         -1   -1    0    0    0  501 -0.00000000000E+00 -0.00000000000E+00 -0.62901673686E+03  0.62901673688E+03  0.50400000000E-02 0.  1.
    8880023    1    1    2    0    0 -0.34065375757E+03 -0.70120126819E+02  0.16017993464E+04  0.17665030900E+04  0.65864270000E+03 0.  0.
    8880022    1    1    2    0    0  0.34065375757E+03  0.70120126819E+02 -0.48064934211E+03  0.61268038798E+03  0.15294330000E+03 0.  1.
<mgrwt>
<rscale>  0 0.62946467E+03</rscale>
<asrwt>0</asrwt>
<pdfrwt beam="1">  1        1 0.26925642E+00 0.74483020E+03</pdfrwt>
<pdfrwt beam="2">  1       -1 0.96771805E-01 0.74483020E+03</pdfrwt>
<totfact> 0.47362328E+00</totfact>
</mgrwt>
</event>
<event>
 4    1  0.4055965E-007  0.8900242E+03  0.7818608E-02  0.9542240E-01
         -1   -1    0    0    0  501 -0.00000000000E+00  0.00000000000E+00  0.41449339718E+03  0.41449339721E+03  0.50400000000E-02 0.  1.
          1   -1    0    0  501    0  0.00000000000E+00 -0.00000000000E+00 -0.16354064970E+04  0.16354064970E+04  0.50400000000E-02 0. -1.
    8880023    1    1    2    0    0 -0.58564945649E+03 -0.12388531165E+03 -0.11090472354E+04  0.14220157640E+04  0.65864270000E+03 0. -1.
    8880022    1    1    2    0    0  0.58564945649E+03  0.12388531165E+03 -0.11186586435E+03  0.62788413020E+03  0.15294330000E+03 0.  0.
<mgrwt>
<rscale>  0 0.81240037E+03</rscale>
<asrwt>0</asrwt>
<pdfrwt beam="1">  1        1 0.25160100E+00 0.89002419E+03</pdfrwt>
<pdfrwt beam="2">  1       -1 0.63768216E-01 0.89002419E+03</pdfrwt>
<totfact> 0.13418629E+01</totfact>
</mgrwt>
</event>
<event>
 4    1  0.4055965E-007  0.6843359E+03  0.7818608E-02  0.1006970E+00
         -1   -1    0    0    0  501 -0.00000000000E+00  0.00000000000E+00  0.21704334713E+04  0.21704334714E+04  0.50400000000E-02 0.  1.
          1   -1    0    0  501    0  0.00000000000E+00 -0.00000000000E+00 -0.41103057414E+03  0.41103057417E+03  0.50400000000E-02 0. -1.
    8880023    1    1    2    0    0  0.15488792540E+03  0.10254312377E+03 -0.11305302826E+03  0.69361124207E+03  0.65864270000E+03 0. -1.
    8880022    1    1    2    0    0 -0.15488792540E+03 -0.10254312377E+03  0.18724559255E+04  0.18878528035E+04  0.15294330000E+03 0.  0.
<mgrwt>
<rscale>  0 0.52696770E+03</rscale>
<asrwt>0</asrwt>
<pdfrwt beam="1">  1        1 0.63235472E-01 0.68433586E+03</pdfrwt>
<pdfrwt beam="2">  1       -1 0.33391285E+00 0.68433586E+03</pdfrwt>
<totfact> 0.12310054E+00</totfact>
</mgrwt>
</event>
<event>
 4    1  0.4055965E-007  0.9635682E+03  0.7818608E-02  0.9430855E-01
         -1   -1    0    0    0  501 -0.00000000000E+00  0.00000000000E+00  0.65398104693E+03  0.65398104695E+03  0.50400000000E-02 0.  1.
          1   -1    0    0  501    0  0.00000000000E+00 -0.00000000000E+00 -0.10833116877E+04  0.10833116877E+04  0.50400000000E-02 0. -1.
    8880023    1    1    2    0    0  0.19172531300E+03  0.67667930593E+03 -0.25443736079E+03  0.99659523155E+03  0.65864270000E+03 0.  1.
    8880022    1    1    2    0    0 -0.19172531300E+03 -0.67667930593E+03 -0.17489328000E+03  0.74069750312E+03  0.15294330000E+03 0. -1.
<mgrwt>
<rscale>  0 0.89579327E+03</rscale>
<asrwt>0</asrwt>
<pdfrwt beam="1">  1        1 0.16666334E+00 0.96356820E+03</pdfrwt>
<pdfrwt beam="2">  1       -1 0.10061247E+00 0.96356820E+03</pdfrwt>
<totfact> 0.12349342E+01</totfact>
</mgrwt>
</event>
<event>
 4    1  0.4055965E-007  0.6950197E+03  0.7818608E-02  0.1001852E+00
         -1   -1    0    0    0  501 -0.00000000000E+00  0.00000000000E+00  0.49112114045E+03  0.49112114048E+03  0.50400000000E-02 0.  1.
          1   -1    0    0  501    0  0.00000000000E+00 -0.00000000000E+00 -0.14045392407E+04  0.14045392407E+04  0.50400000000E-02 0. -1.
    8880023    1    1    2    0    0  0.20714625218E+03  0.79577696134E+02 -0.12705654973E+04  0.14482365376E+04  0.65864270000E+03 0. -1.
    8880022    1    1    2    0    0 -0.20714625218E+03 -0.79577696134E+02  0.35714739712E+03  0.44742384357E+03  0.15294330000E+03 0.  0.
<mgrwt>
<rscale>  0 0.54845400E+03</rscale>
<asrwt>0</asrwt>
<pdfrwt beam="1">  1        1 0.21608296E+00 0.69501970E+03</pdfrwt>
<pdfrwt beam="2">  1       -1 0.75557099E-01 0.69501970E+03</pdfrwt>
<totfact> 0.14012774E+01</totfact>
</mgrwt>
</event>
<event>
 4    1  0.4055965E-007  0.1151815E+04  0.7818608E-02  0.9205447E-01
          1   -1    0    0  501    0  0.00000000000E+00  0.00000000000E+00  0.22919737529E+04  0.22919737529E+04  0.50400000000E-02 0. -1.
         -1   -1    0    0    0  501 -0.00000000000E+00 -0.00000000000E+00 -0.71949599156E+03  0.71949599158E+03  0.50400000000E-02 0.  1.
    8880023    1    1    2    0    0 -0.80875443878E+03 -0.48865454147E+03  0.16919849188E+04  0.20468244123E+04  0.65864270000E+03 0.  0.
    8880022    1    1    2    0    0  0.80875443878E+03  0.48865454147E+03 -0.11950715747E+03  0.96464533216E+03  0.15294330000E+03 0.  0.
<mgrwt>
<rscale>  0 0.10997380E+04</rscale>
<asrwt>0</asrwt>
<pdfrwt beam="1">  1        1 0.35261134E+00 0.11518147E+04</pdfrwt>
<pdfrwt beam="2">  1       -1 0.11069169E+00 0.11518147E+04</pdfrwt>
<totfact> 0.14082162E+00</totfact>
</mgrwt>
</event>
<event>
 4    1  0.4055965E-007  0.8478173E+03  0.7818608E-02  0.9615613E-01
          1   -1    0    0  501    0  0.00000000000E+00  0.00000000000E+00  0.65335635459E+03  0.65335635461E+03  0.50400000000E-02 0. -1.
         -1   -1    0    0    0  501 -0.00000000000E+00 -0.00000000000E+00 -0.82706497188E+03  0.82706497189E+03  0.50400000000E-02 0.  1.
    8880023    1    1    2    0    0 -0.29333101993E+02 -0.53303237031E+03  0.11324484002E+03  0.85534702824E+03  0.65864270000E+03 0.  0.
    8880022    1    1    2    0    0  0.29333101993E+02  0.53303237031E+03 -0.28695345731E+03  0.62507429826E+03  0.15294330000E+03 0.  0.
<mgrwt>
<rscale>  0 0.76271397E+03</rscale>
<asrwt>0</asrwt>
<pdfrwt beam="1">  1        1 0.10051636E+00 0.84781728E+03</pdfrwt>
<pdfrwt beam="2">  1       -1 0.12724077E+00 0.84781728E+03</pdfrwt>
<totfact> 0.16450330E+01</totfact>
</mgrwt>
</event>
<event>
 4    1  0.4055965E-007  0.8170770E+03  0.7818608E-02  0.9675020E-01
         -1   -1    0    0    0  501 -0.00000000000E+00  0.00000000000E+00  0.86319017985E+03  0.86319017986E+03  0.50400000000E-02 0.  1.
          1   -1    0    0  501    0  0.00000000000E+00 -0.00000000000E+00 -0.84573805120E+03  0.84573805121E+03  0.50400000000E-02 0. -1.
    8880023    1    1    2    0    0  0.47022387165E+03 -0.11266827486E+03 -0.52115720639E+03  0.96913346329E+03  0.65864270000E+03 0. -1.
    8880022    1    1    2    0    0 -0.47022387165E+03  0.11266827486E+03  0.53860933504E+03  0.73979476778E+03  0.15294330000E+03 0.  0.
<mgrwt>
<rscale>  0 0.72523763E+03</rscale>
<asrwt>0</asrwt>
<pdfrwt beam="1">  1        1 0.13011355E+00 0.81707701E+03</pdfrwt>
<pdfrwt beam="2">  1       -1 0.13279849E+00 0.81707701E+03</pdfrwt>
<totfact> 0.99216771E+00</totfact>
</mgrwt>
</event>
<event>
 4    1  0.4055965E-007  0.7366411E+03  0.7818608E-02  0.9869841E-01
         -1   -1    0    0    0  501 -0.00000000000E+00  0.00000000000E+00  0.43156925855E+03  0.43156925858E+03  0.50400000000E-02 0.  1.
          1   -1    0    0  501    0  0.00000000000E+00 -0.00000000000E+00 -0.14001849062E+04  0.14001849062E+04  0.50400000000E-02 0. -1.
    8880023    1    1    2    0    0 -0.60026242667E+02  0.32438680930E+03 -0.11947206544E+04  0.14035660298E+04  0.65864270000E+03 0.  0.
    8880022    1    1    2    0    0  0.60026242667E+02 -0.32438680930E+03  0.22610500671E+03  0.42818813497E+03  0.15294330000E+03 0.  0.
<mgrwt>
<rscale>  0 0.61745424E+03</rscale>
<asrwt>0</asrwt>
<pdfrwt beam="1">  1        1 0.21541306E+00 0.73664113E+03</pdfrwt>
<pdfrwt beam="2">  1       -1 0.66395271E-01 0.73664113E+03</pdfrwt>
<totfact> 0.18286124E+01</totfact>
</mgrwt>
</event>
<event>
 4    1  0.4055965E-007  0.7565118E+03  0.7818608E-02  0.9814223E-01
          1   -1    0    0  501    0  0.00000000000E+00  0.00000000000E+00  0.73797468118E+03  0.73797468120E+03  0.50400000000E-02 0. -1.
         -1   -1    0    0    0  501 -0.00000000000E+00 -0.00000000000E+00 -0.84047716040E+03  0.84047716041E+03  0.50400000000E-02 0.  1.
    8880023    1    1    2    0    0 -0.17454663852E+03  0.32868432076E+03  0.46110380584E+03  0.88596096853E+03  0.65864270000E+03 0.  0.
    8880022    1    1    2    0    0  0.17454663852E+03 -0.32868432076E+03 -0.56360628506E+03  0.69249087308E+03  0.15294330000E+03 0.  0.
<mgrwt>
<rscale>  0 0.64604804E+03</rscale>
<asrwt>0</asrwt>
<pdfrwt beam="1">  1        1 0.11353457E+00 0.75651181E+03</pdfrwt>
<pdfrwt beam="2">  1       -1 0.12930418E+00 0.75651181E+03</pdfrwt>
<totfact> 0.13279191E+01</totfact>
</mgrwt>
</event>
<event>
 4    1  0.4055965E-007  0.8236081E+03  0.7818608E-02  0.9661899E-01
         -1   -1    0    0    0  501 -0.00000000000E+00  0.00000000000E+00  0.69284636171E+03  0.69284636173E+03  0.50400000000E-02 0.  1.
          1   -1    0    0  501    0  0.00000000000E+00 -0.00000000000E+00 -0.87861723324E+03  0.87861723325E+03  0.50400000000E-02 0. -1.
    8880023    1    1    2    0    0  0.21861972367E+03  0.44353753057E+03 -0.50235231522E+03  0.96472181455E+03  0.65864270000E+03 0.  0.
    8880022    1    1    2    0    0 -0.21861972367E+03 -0.44353753057E+03  0.31658144370E+03  0.60674178043E+03  0.15294330000E+03 0.  0.
<mgrwt>
<rscale>  0 0.73331309E+03</rscale>
<asrwt>0</asrwt>
<pdfrwt beam="1">  1        1 0.13517188E+00 0.82360812E+03</pdfrwt>
<pdfrwt beam="2">  1       -1 0.10659175E+00 0.82360812E+03</pdfrwt>
<totfact> 0.15894647E+01</totfact>
</mgrwt>
</event>
<event>
 4    1  0.4055965E-007  0.8929535E+03  0.7818608E-02  0.9537439E-01
         -1   -1    0    0    0  501 -0.00000000000E+00  0.00000000000E+00  0.77490595803E+03  0.77490595805E+03  0.50400000000E-02 0.  1.
          1   -1    0    0  501    0  0.00000000000E+00 -0.00000000000E+00 -0.97208400271E+03  0.97208400272E+03  0.50400000000E-02 0. -1.
    8880023    1    1    2    0    0 -0.39396927671E+03 -0.45644710134E+03 -0.53315009801E+03  0.10400072022E+04  0.65864270000E+03 0. -1.
    8880022    1    1    2    0    0  0.39396927671E+03  0.45644710134E+03  0.33597205333E+03  0.70698275859E+03  0.15294330000E+03 0.  0.
<mgrwt>
<rscale>  0 0.81578953E+03</rscale>
<asrwt>0</asrwt>
<pdfrwt beam="1">  1        1 0.14955139E+00 0.89295350E+03</pdfrwt>
<pdfrwt beam="2">  1       -1 0.11921630E+00 0.89295350E+03</pdfrwt>
<totfact> 0.10153276E+01</totfact>
</mgrwt>
</event>
<event>
 4    1  0.4055965E-007  0.7685639E+03  0.7818608E-02  0.9783421E-01
          1   -1    0    0  501    0  0.00000000000E+00  0.00000000000E+00  0.63786277846E+03  0.63786277848E+03  0.50400000000E-02 0. -1.
         -1   -1    0    0    0  501 -0.00000000000E+00 -0.00000000000E+00 -0.15455951519E+04  0.15455951519E+04  0.50400000000E-02 0.  1.
    8880023    1    1    2    0    0  0.19382326141E+03 -0.34541683833E+03  0.35840723927E+03  0.84802488424E+03  0.65864270000E+03 0.  0.
    8880022    1    1    2    0    0 -0.19382326141E+03  0.34541683833E+03 -0.12661396127E+04  0.13354330462E+04  0.15294330000E+03 0.  0.
<mgrwt>
<rscale>  0 0.66259932E+03</rscale>
<asrwt>0</asrwt>
<pdfrwt beam="1">  1        1 0.98132736E-01 0.76856389E+03</pdfrwt>
<pdfrwt beam="2">  1       -1 0.23778387E+00 0.76856389E+03</pdfrwt>
<totfact> 0.27299934E+00</totfact>
</mgrwt>
</event>
<event>
 4    1  0.4055965E-007  0.6882574E+03  0.7818608E-02  0.1004992E+00
         -1   -1    0    0    0  501 -0.00000000000E+00  0.00000000000E+00  0.18966933776E+04  0.18966933776E+04  0.50400000000E-02 0.  1.
          1   -1    0    0  501    0  0.00000000000E+00 -0.00000000000E+00 -0.17888797641E+03  0.17888797648E+03  0.50400000000E-02 0. -1.
    8880023    1    1    2    0    0  0.16230048496E+02 -0.19905923280E+03  0.55008877525E+03  0.88107653445E+03  0.65864270000E+03 0. -1.
    8880022    1    1    2    0    0 -0.16230048496E+02  0.19905923280E+03  0.11677166260E+04  0.11945048197E+04  0.15294330000E+03 0.  0.
<mgrwt>
<rscale>  0 0.53514461E+03</rscale>
<asrwt>0</asrwt>
<pdfrwt beam="1">  1        1 0.27521228E-01 0.68825736E+03</pdfrwt>
<pdfrwt beam="2">  1       -1 0.29179897E+00 0.68825736E+03</pdfrwt>
<totfact> 0.67525029E+00</totfact>
</mgrwt>
</event>
<event>
 4    1  0.4055965E-007  0.7321934E+03  0.7818608E-02  0.9883300E-01
          1   -1    0    0  501    0  0.00000000000E+00  0.00000000000E+00  0.31981801477E+04  0.31981801477E+04  0.50400000000E-02 0. -1.
         -1   -1    0    0    0  501 -0.00000000000E+00 -0.00000000000E+00 -0.18623471984E+03  0.18623471991E+03  0.50400000000E-02 0.  1.
    8880023    1    1    2    0    0 -0.17743535562E+03  0.26610844204E+03  0.29305915258E+04  0.30206744124E+04  0.65864270000E+03 0. -1.
    8880022    1    1    2    0    0  0.17743535562E+03 -0.26610844204E+03  0.81353902024E+02  0.36374045518E+03  0.15294330000E+03 0.  0.
<mgrwt>
<rscale>  0 0.61077518E+03</rscale>
<asrwt>0</asrwt>
<pdfrwt beam="1">  1        1 0.49202767E+00 0.73219343E+03</pdfrwt>
<pdfrwt beam="2">  1       -1 0.28651498E-01 0.73219343E+03</pdfrwt>
<totfact> 0.50697964E+00</totfact>
</mgrwt>
</event>
<event>
 4    1  0.4055965E-007  0.7604356E+03  0.7818608E-02  0.9803981E-01
         -1   -1    0    0    0  501 -0.00000000000E+00  0.00000000000E+00  0.12040195108E+04  0.12040195109E+04  0.50400000000E-02 0.  1.
          1   -1    0    0  501    0  0.00000000000E+00 -0.00000000000E+00 -0.65828332382E+03  0.65828332384E+03  0.50400000000E-02 0. -1.
    8880023    1    1    2    0    0 -0.27409628315E+03  0.26329325158E+03 -0.37990294405E+03  0.85005209365E+03  0.65864270000E+03 0. -1.
    8880022    1    1    2    0    0  0.27409628315E+03 -0.26329325158E+03  0.92563913107E+03  0.10122507410E+04  0.15294330000E+03 0.  0.
<mgrwt>
<rscale>  0 0.65149335E+03</rscale>
<asrwt>0</asrwt>
<pdfrwt beam="1">  1        1 0.10127436E+00 0.76043561E+03</pdfrwt>
<pdfrwt beam="2">  1       -1 0.18523377E+00 0.76043561E+03</pdfrwt>
<totfact> 0.58954936E+00</totfact>
</mgrwt>
</event>
<event>
 4    1  0.4055965E-007  0.1160528E+04  0.7818608E-02  0.9196481E-01
          1   -1    0    0  501    0  0.00000000000E+00  0.00000000000E+00  0.25352890261E+04  0.25352890261E+04  0.50400000000E-02 0. -1.
         -1   -1    0    0    0  501 -0.00000000000E+00 -0.00000000000E+00 -0.75386507338E+03  0.75386507340E+03  0.50400000000E-02 0.  1.
    8880023    1    1    2    0    0  0.66114537227E+02 -0.95322765784E+03  0.19858724439E+04  0.23001116645E+04  0.65864270000E+03 0. -1.
    8880022    1    1    2    0    0 -0.66114537227E+02  0.95322765784E+03 -0.20444849112E+03  0.98904243500E+03  0.15294330000E+03 0.  0.
<mgrwt>
<rscale>  0 0.11089823E+04</rscale>
<asrwt>0</asrwt>
<pdfrwt beam="1">  1        1 0.39004447E+00 0.11605276E+04</pdfrwt>
<pdfrwt beam="2">  1       -1 0.11597924E+00 0.11605276E+04</pdfrwt>
<totfact> 0.85648264E-01</totfact>
</mgrwt>
</event>
<event>
 4    1  0.4055965E-007  0.7651493E+03  0.7818608E-02  0.9791954E-01
          1   -1    0    0  501    0  0.00000000000E+00  0.00000000000E+00  0.76694371907E+03  0.76694371909E+03  0.50400000000E-02 0. -1.
         -1   -1    0    0    0  501 -0.00000000000E+00 -0.00000000000E+00 -0.62208624673E+03  0.62208624675E+03  0.50400000000E-02 0.  1.
    8880023    1    1    2    0    0  0.38550118803E+03 -0.55063754682E+02  0.43475345177E+03  0.88003633626E+03  0.65864270000E+03 0.  0.
    8880022    1    1    2    0    0 -0.38550118803E+03  0.55063754682E+02 -0.28989597942E+03  0.50899362958E+03  0.15294330000E+03 0.  0.
<mgrwt>
<rscale>  0 0.65796105E+03</rscale>
<asrwt>0</asrwt>
<pdfrwt beam="1">  1        1 0.11799134E+00 0.76514926E+03</pdfrwt>
<pdfrwt beam="2">  1       -1 0.95705576E-01 0.76514926E+03</pdfrwt>
<totfact> 0.25511360E+01</totfact>
</mgrwt>
</event>
<event>
 4    1  0.4055965E-007  0.1854485E+04  0.7818608E-02  0.8692982E-01
          1   -1    0    0  501    0  0.00000000000E+00  0.00000000000E+00  0.11364495256E+04  0.11364495256E+04  0.50400000000E-02 0. -1.
         -1   -1    0    0    0  501 -0.00000000000E+00 -0.00000000000E+00 -0.31001189850E+04  0.31001189850E+04  0.50400000000E-02 0.  1.
    8880023    1    1    2    0    0 -0.11577107482E+04 -0.12903520848E+04 -0.40037247006E+03  0.18972113747E+04  0.65864270000E+03 0.  0.
    8880022    1    1    2    0    0  0.11577107482E+04  0.12903520848E+04 -0.15632969894E+04  0.23393571359E+04  0.15294330000E+03 0.  0.
<mgrwt>
<rscale>  0 0.18252583E+04</rscale>
<asrwt>0</asrwt>
<pdfrwt beam="1">  1        1 0.17483839E+00 0.18544845E+04</pdfrwt>
<pdfrwt beam="2">  1       -1 0.47694138E+00 0.18544845E+04</pdfrwt>
<totfact> 0.22906789E-02</totfact>
</mgrwt>
</event>
<event>
 4    1  0.4055965E-007  0.1171499E+04  0.7818608E-02  0.9185338E-01
         -1   -1    0    0    0  501 -0.00000000000E+00  0.00000000000E+00  0.97930170656E+03  0.97930170657E+03  0.50400000000E-02 0.  1.
          1   -1    0    0  501    0  0.00000000000E+00 -0.00000000000E+00 -0.28707889043E+04  0.28707889043E+04  0.50400000000E-02 0. -1.
    8880023    1    1    2    0    0  0.21149993596E+03  0.94544569961E+03 -0.24540956897E+04  0.27193741292E+04  0.65864270000E+03 0.  0.
    8880022    1    1    2    0    0 -0.21149993596E+03 -0.94544569961E+03  0.56260849195E+03  0.11307164817E+04  0.15294330000E+03 0.  0.
<mgrwt>
<rscale>  0 0.11206058E+04</rscale>
<asrwt>0</asrwt>
<pdfrwt beam="1">  1        1 0.44165983E+00 0.11714990E+04</pdfrwt>
<pdfrwt beam="2">  1       -1 0.15066180E+00 0.11714990E+04</pdfrwt>
<totfact> 0.25451381E-01</totfact>
</mgrwt>
</event>
<event>
 4    1  0.4055965E-007  0.6611768E+03  0.7818608E-02  0.1022982E+00
          1   -1    0    0  501    0  0.00000000000E+00  0.00000000000E+00  0.29498239857E+03  0.29498239861E+03  0.50400000000E-02 0. -1.
         -1   -1    0    0    0  501 -0.00000000000E+00 -0.00000000000E+00 -0.11156939606E+04  0.11156939606E+04  0.50400000000E-02 0.  1.
    8880023    1    1    2    0    0  0.54557209429E+02 -0.19186545059E+02 -0.96435701312E+02  0.66817262991E+03  0.65864270000E+03 0. -1.
    8880022    1    1    2    0    0 -0.54557209429E+02  0.19186545059E+02 -0.72427586073E+03  0.74250372933E+03  0.15294330000E+03 0.  0.
<mgrwt>
<rscale>  0 0.46625749E+03</rscale>
<asrwt>0</asrwt>
<pdfrwt beam="1">  1        1 0.45381908E-01 0.66117684E+03</pdfrwt>
<pdfrwt beam="2">  1       -1 0.17164522E+00 0.66117684E+03</pdfrwt>
<totfact> 0.22195018E+01</totfact>
</mgrwt>
</event>
<event>
 4    1  0.4055965E-007  0.7258397E+03  0.7818608E-02  0.9903300E-01
          1   -1    0    0  501    0  0.00000000000E+00  0.00000000000E+00  0.16386002586E+04  0.16386002586E+04  0.50400000000E-02 0. -1.
         -1   -1    0    0    0  501 -0.00000000000E+00 -0.00000000000E+00 -0.31620582198E+03  0.31620582202E+03  0.50400000000E-02 0.  1.
    8880023    1    1    2    0    0  0.30233087120E+03  0.40361861521E+02  0.14244002691E+04  0.15986742534E+04  0.65864270000E+03 0.  0.
    8880022    1    1    2    0    0 -0.30233087120E+03 -0.40361861521E+02 -0.10200583242E+03  0.35613182729E+03  0.15294330000E+03 0.  0.
<mgrwt>
<rscale>  0 0.60101618E+03</rscale>
<asrwt>0</asrwt>
<pdfrwt beam="1">  1        1 0.25209235E+00 0.72583968E+03</pdfrwt>
<pdfrwt beam="2">  1       -1 0.48647050E-01 0.72583968E+03</pdfrwt>
<totfact> 0.23059057E+01</totfact>
</mgrwt>
</event>
<event>
 4    1  0.4549151E-007  0.6869088E+03  0.7818608E-02  0.1005658E+00
         -1   -1    0    0    0  501 -0.00000000000E+00  0.00000000000E+00  0.84947124077E+03  0.84947124079E+03  0.50400000000E-02 0.  1.
          1   -1    0    0  501    0  0.00000000000E+00 -0.00000000000E+00 -0.18923958742E+04  0.18923958742E+04  0.50400000000E-02 0. -1.
    8880023    1    1    2    0    0 -0.81792966915E+02 -0.17704074311E+03 -0.18098866883E+04  0.19358547324E+04  0.65864270000E+03 0. -1.
    8880022    1    1    2    0    0  0.81792966915E+02  0.17704074311E+03  0.76696205491E+03  0.80601238257E+03  0.15294330000E+03 0.  0.
<mgrwt>
<rscale>  0 0.53237495E+03</rscale>
<asrwt>0</asrwt>
<pdfrwt beam="1">  1        1 0.29113783E+00 0.68690882E+03</pdfrwt>
<pdfrwt beam="2">  1       -1 0.13068788E+00 0.68690882E+03</pdfrwt>
<totfact> 0.18826097E+00</totfact>
</mgrwt>
</event>
<event>
 4    1  0.4055965E-007  0.6665900E+03  0.7818608E-02  0.1018235E+00
          1   -1    0    0  501    0  0.00000000000E+00  0.00000000000E+00  0.14603554197E+04  0.14603554197E+04  0.50400000000E-02 0. -1.
         -1   -1    0    0    0  501 -0.00000000000E+00 -0.00000000000E+00 -0.17227537676E+03  0.17227537684E+03  0.50400000000E-02 0.  1.
    8880023    1    1    2    0    0 -0.63386725767E+01 -0.10242946243E+03  0.12859317982E+04  0.14484345927E+04  0.65864270000E+03 0. -1.
    8880022    1    1    2    0    0  0.63386725767E+01  0.10242946243E+03  0.21482447895E+01  0.18419620386E+03  0.15294330000E+03 0.  0.
<mgrwt>
<rscale>  0 0.48328895E+03</rscale>
<asrwt>0</asrwt>
<pdfrwt beam="1">  1        1 0.22467006E+00 0.66658996E+03</pdfrwt>
<pdfrwt beam="2">  1       -1 0.26503904E-01 0.66658996E+03</pdfrwt>
<totfact> 0.91040729E+01</totfact>
</mgrwt>
</event>
<event>
 4    1  0.4055965E-007  0.6775503E+03  0.7818608E-02  0.1010745E+00
         -1   -1    0    0    0  501 -0.00000000000E+00  0.00000000000E+00  0.17543117010E+03  0.17543117018E+03  0.50400000000E-02 0.  1.
          1   -1    0    0  501    0  0.00000000000E+00 -0.00000000000E+00 -0.18513850398E+04  0.18513850398E+04  0.50400000000E-02 0. -1.
    8880023    1    1    2    0    0  0.15397704021E+03  0.39437176051E+02 -0.16743328669E+04  0.18062294913E+04  0.65864270000E+03 0. -1.
    8880022    1    1    2    0    0 -0.15397704021E+03 -0.39437176051E+02 -0.16210027257E+01  0.22058671862E+03  0.15294330000E+03 0.  0.
<mgrwt>
<rscale>  0 0.51179739E+03</rscale>
<asrwt>0</asrwt>
<pdfrwt beam="1">  1        1 0.28482845E+00 0.67755031E+03</pdfrwt>
<pdfrwt beam="2">  1       -1 0.26989412E-01 0.67755031E+03</pdfrwt>
<totfact> 0.48034135E+01</totfact>
</mgrwt>
</event>
<event>
 4    1  0.4055965E-007  0.8169401E+03  0.7818608E-02  0.9675298E-01
          1   -1    0    0  501    0  0.00000000000E+00  0.00000000000E+00  0.21916761253E+04  0.21916761253E+04  0.50400000000E-02 0. -1.
         -1   -1    0    0    0  501 -0.00000000000E+00 -0.00000000000E+00 -0.10028440817E+04  0.10028440817E+04  0.50400000000E-02 0.  1.
    8880023    1    1    2    0    0 -0.43710234806E+03 -0.20620973132E+03 -0.79921410230E+03  0.11428623292E+04  0.65864270000E+03 0.  1.
    8880022    1    1    2    0    0  0.43710234806E+03  0.20620973132E+03  0.19880461459E+04  0.20516578777E+04  0.15294330000E+03 0.  0.
<mgrwt>
<rscale>  0 0.72506761E+03</rscale>
<asrwt>0</asrwt>
<pdfrwt beam="1">  1        1 0.33718094E+00 0.81694010E+03</pdfrwt>
<pdfrwt beam="2">  1       -1 0.15428371E+00 0.81694010E+03</pdfrwt>
<totfact> 0.74789993E-01</totfact>
</mgrwt>
</event>
<event>
 4    1  0.4055965E-007  0.9811236E+03  0.7818608E-02  0.9406681E-01
          1   -1    0    0  501    0  0.00000000000E+00  0.00000000000E+00  0.13063804483E+04  0.13063804483E+04  0.50400000000E-02 0. -1.
         -1   -1    0    0    0  501 -0.00000000000E+00 -0.00000000000E+00 -0.10073098678E+04  0.10073098678E+04  0.50400000000E-02 0.  1.
    8880023    1    1    2    0    0 -0.32902869599E+03  0.64848548460E+03  0.92024854900E+03  0.13451620366E+04  0.65864270000E+03 0. -1.
    8880022    1    1    2    0    0  0.32902869599E+03 -0.64848548460E+03 -0.62117796856E+03  0.96852827948E+03  0.15294330000E+03 0.  0.
<mgrwt>
<rscale>  0 0.91527871E+03</rscale>
<asrwt>0</asrwt>
<pdfrwt beam="1">  1        1 0.20098161E+00 0.98112360E+03</pdfrwt>
<pdfrwt beam="2">  1       -1 0.15497075E+00 0.98112360E+03</pdfrwt>
<totfact> 0.28769004E+00</totfact>
</mgrwt>
</event>
<event>
 4    1  0.4055965E-007  0.8109122E+03  0.7818608E-02  0.9687680E-01
         -1   -1    0    0    0  501 -0.00000000000E+00  0.00000000000E+00  0.21640616554E+03  0.21640616560E+03  0.50400000000E-02 0.  1.
          1   -1    0    0  501    0  0.00000000000E+00 -0.00000000000E+00 -0.32236068885E+04  0.32236068885E+04  0.50400000000E-02 0. -1.
    8880023    1    1    2    0    0 -0.37238169454E+02 -0.47157366624E+03 -0.27754696307E+04  0.28915065764E+04  0.65864270000E+03 0.  0.
    8880022    1    1    2    0    0  0.37238169454E+02  0.47157366624E+03 -0.23173109219E+03  0.54850647768E+03  0.15294330000E+03 0.  0.
<mgrwt>
<rscale>  0 0.71755082E+03</rscale>
<asrwt>0</asrwt>
<pdfrwt beam="1">  1        1 0.49593948E+00 0.81091221E+03</pdfrwt>
<pdfrwt beam="2">  1       -1 0.33293259E-01 0.81091221E+03</pdfrwt>
<totfact> 0.36791319E+00</totfact>
</mgrwt>
</event>
<event>
 4    1  0.4055965E-007  0.1087367E+04  0.7818608E-02  0.9275254E-01
         -1   -1    0    0    0  501 -0.00000000000E+00  0.00000000000E+00  0.75136962441E+03  0.75136962443E+03  0.50400000000E-02 0.  1.
          1   -1    0    0  501    0  0.00000000000E+00 -0.00000000000E+00 -0.13887533549E+04  0.13887533549E+04  0.50400000000E-02 0. -1.
    8880023    1    1    2    0    0 -0.85115612799E+03 -0.15520725326E+03 -0.60485388147E+02  0.10890476271E+04  0.65864270000E+03 0.  0.
    8880022    1    1    2    0    0  0.85115612799E+03  0.15520725326E+03 -0.57689834238E+03  0.10510753523E+04  0.15294330000E+03 0.  0.
<mgrwt>
<rscale>  0 0.10309331E+04</rscale>
<asrwt>0</asrwt>
<pdfrwt beam="1">  1        1 0.21365436E+00 0.10873667E+04</pdfrwt>
<pdfrwt beam="2">  1       -1 0.11559533E+00 0.10873667E+04</pdfrwt>
<totfact> 0.52756665E+00</totfact>
</mgrwt>
</event>
<event>
 4    1  0.4055965E-007  0.7253848E+03  0.7818608E-02  0.9904770E-01
          1   -1    0    0  501    0  0.00000000000E+00  0.00000000000E+00  0.10210584439E+04  0.10210584439E+04  0.50400000000E-02 0. -1.
         -1   -1    0    0    0  501 -0.00000000000E+00 -0.00000000000E+00 -0.37333802603E+03  0.37333802606E+03  0.50400000000E-02 0.  1.
    8880023    1    1    2    0    0  0.23700313342E+03  0.19026931487E+03  0.74571478094E+03  0.10403238141E+04  0.65864270000E+03 0. -1.
    8880022    1    1    2    0    0 -0.23700313342E+03 -0.19026931487E+03 -0.97994363053E+02  0.35407265587E+03  0.15294330000E+03 0.  0.
<mgrwt>
<rscale>  0 0.60030683E+03</rscale>
<asrwt>0</asrwt>
<pdfrwt beam="1">  1        1 0.15708591E+00 0.72538480E+03</pdfrwt>
<pdfrwt beam="2">  1       -1 0.57436619E-01 0.72538480E+03</pdfrwt>
<totfact> 0.45950798E+01</totfact>
</mgrwt>
</event>
<event>
 4    1  0.4055965E-007  0.7106829E+03  0.7818608E-02  0.9955474E-01
         -1   -1    0    0    0  501 -0.00000000000E+00  0.00000000000E+00  0.55549924007E+03  0.55549924009E+03  0.50400000000E-02 0.  1.
          1   -1    0    0  501    0  0.00000000000E+00 -0.00000000000E+00 -0.12702219312E+04  0.12702219312E+04  0.50400000000E-02 0. -1.
    8880023    1    1    2    0    0  0.13402565811E+01 -0.26694235101E+03 -0.11141685404E+04  0.13215300820E+04  0.65864270000E+03 0.  0.
    8880022    1    1    2    0    0 -0.13402565811E+01  0.26694235101E+03  0.39944584923E+03  0.50419108930E+03  0.15294330000E+03 0.  0.
<mgrwt>
<rscale>  0 0.57646500E+03</rscale>
<asrwt>0</asrwt>
<pdfrwt beam="1">  1        1 0.19541876E+00 0.71068293E+03</pdfrwt>
<pdfrwt beam="2">  1       -1 0.85461422E-01 0.71068293E+03</pdfrwt>
<totfact> 0.13368322E+01</totfact>
</mgrwt>
</event>
<event>
 4    1  0.4055965E-007  0.8434500E+03  0.7818608E-02  0.9623709E-01
         -1   -1    0    0    0  501 -0.00000000000E+00  0.00000000000E+00  0.66199319830E+03  0.66199319832E+03  0.50400000000E-02 0.  1.
          1   -1    0    0  501    0  0.00000000000E+00 -0.00000000000E+00 -0.12790095565E+04  0.12790095565E+04  0.50400000000E-02 0. -1.
    8880023    1    1    2    0    0  0.38406697309E+03  0.36068033522E+03 -0.97247506271E+03  0.12872900597E+04  0.65864270000E+03 0. -1.
    8880022    1    1    2    0    0 -0.38406697309E+03 -0.36068033522E+03  0.35545870455E+03  0.65371269507E+03  0.15294330000E+03 0.  0.
<mgrwt>
<rscale>  0 0.75746648E+03</rscale>
<asrwt>0</asrwt>
<pdfrwt beam="1">  1        1 0.19677070E+00 0.84345003E+03</pdfrwt>
<pdfrwt beam="2">  1       -1 0.10184511E+00 0.84345003E+03</pdfrwt>
<totfact> 0.87530697E+00</totfact>
</mgrwt>
</event>
<event>
 4    1  0.4055965E-007  0.1053348E+04  0.7818608E-02  0.9314868E-01
         -1   -1    0    0    0  501 -0.00000000000E+00  0.00000000000E+00  0.29405774519E+04  0.29405774519E+04  0.50400000000E-02 0.  1.
          1   -1    0    0  501    0  0.00000000000E+00 -0.00000000000E+00 -0.68118604520E+03  0.68118604522E+03  0.50400000000E-02 0. -1.
    8880023    1    1    2    0    0 -0.79541289404E+03 -0.20748289616E+03 -0.15683058285E+03  0.10649586199E+04  0.65864270000E+03 0.  0.
    8880022    1    1    2    0    0  0.79541289404E+03  0.20748289616E+03  0.24162219895E+04  0.25568048771E+04  0.15294330000E+03 0.  0.
<mgrwt>
<rscale>  0 0.99425531E+03</rscale>
<asrwt>0</asrwt>
<pdfrwt beam="1">  1        1 0.10479785E+00 0.10533475E+04</pdfrwt>
<pdfrwt beam="2">  1       -1 0.45239653E+00 0.10533475E+04</pdfrwt>
<totfact> 0.89954719E-02</totfact>
</mgrwt>
</event>
<event>
 4    1  0.4055965E-007  0.8550818E+03  0.7818608E-02  0.9602373E-01
          1   -1    0    0  501    0  0.00000000000E+00  0.00000000000E+00  0.97198131710E+03  0.97198131711E+03  0.50400000000E-02 0. -1.
         -1   -1    0    0    0  501 -0.00000000000E+00 -0.00000000000E+00 -0.63029518279E+03  0.63029518281E+03  0.50400000000E-02 0.  1.
    8880023    1    1    2    0    0 -0.31961423585E+03  0.44181597004E+03  0.52932298890E+03  0.10056578165E+04  0.65864270000E+03 0. -1.
    8880022    1    1    2    0    0  0.31961423585E+03 -0.44181597004E+03 -0.18763685459E+03  0.59661868337E+03  0.15294330000E+03 0.  1.
<mgrwt>
<rscale>  0 0.77139343E+03</rscale>
<asrwt>0</asrwt>
<pdfrwt beam="1">  1        1 0.14953559E+00 0.85508176E+03</pdfrwt>
<pdfrwt beam="2">  1       -1 0.96968490E-01 0.85508176E+03</pdfrwt>
<totfact> 0.16556036E+01</totfact>
</mgrwt>
</event>
<event>
 4    1  0.4055965E-007  0.7311954E+03  0.7818608E-02  0.9886379E-01
          1   -1    0    0  501    0  0.00000000000E+00  0.00000000000E+00  0.49872432173E+03  0.49872432175E+03  0.50400000000E-02 0. -1.
         -1   -1    0    0    0  501 -0.00000000000E+00 -0.00000000000E+00 -0.85851618292E+03  0.85851618294E+03  0.50400000000E-02 0.  1.
    8880023    1    1    2    0    0  0.33172377315E+02 -0.31581011226E+03  0.14118380489E+03  0.74470095115E+03  0.65864270000E+03 0. -1.
    8880022    1    1    2    0    0 -0.33172377315E+02  0.31581011226E+03 -0.50097566609E+03  0.61253955354E+03  0.15294330000E+03 0.  0.
<mgrwt>
<rscale>  0 0.60925982E+03</rscale>
<asrwt>0</asrwt>
<pdfrwt beam="1">  1        1 0.76726819E-01 0.73119535E+03</pdfrwt>
<pdfrwt beam="2">  1       -1 0.13207941E+00 0.73119535E+03</pdfrwt>
<totfact> 0.22262431E+01</totfact>
</mgrwt>
</event>
<event>
 4    1  0.4055965E-007  0.7731287E+03  0.7818608E-02  0.9772233E-01
          1   -1    0    0  501    0  0.00000000000E+00  0.00000000000E+00  0.12320950863E+04  0.12320950863E+04  0.50400000000E-02 0. -1.
         -1   -1    0    0    0  501 -0.00000000000E+00 -0.00000000000E+00 -0.78730177575E+03  0.78730177576E+03  0.50400000000E-02 0.  1.
    8880023    1    1    2    0    0  0.35522355654E+03  0.19425239342E+03  0.10322822549E+04  0.12897033099E+04  0.65864270000E+03 0. -1.
    8880022    1    1    2    0    0 -0.35522355654E+03 -0.19425239342E+03 -0.58748894431E+03  0.72969355223E+03  0.15294330000E+03 0.  0.
<mgrwt>
<rscale>  0 0.66874230E+03</rscale>
<asrwt>0</asrwt>
<pdfrwt beam="1">  1        1 0.18955309E+00 0.77312869E+03</pdfrwt>
<pdfrwt beam="2">  1       -1 0.12112335E+00 0.77312869E+03</pdfrwt>
<totfact> 0.63324115E+00</totfact>
</mgrwt>
</event>
<event>
 4    1  0.4055965E-007  0.8013496E+03  0.7818608E-02  0.9707885E-01
         -1   -1    0    0    0  501 -0.00000000000E+00  0.00000000000E+00  0.55136511121E+03  0.55136511123E+03  0.50400000000E-02 0.  1.
          1   -1    0    0  501    0  0.00000000000E+00 -0.00000000000E+00 -0.14617319135E+04  0.14617319135E+04  0.50400000000E-02 0. -1.
    8880023    1    1    2    0    0  0.23874408188E+03  0.38904020540E+03 -0.12061531005E+04  0.14480906484E+04  0.65864270000E+03 0.  0.
    8880022    1    1    2    0    0 -0.23874408188E+03 -0.38904020540E+03  0.29578629819E+03  0.56500637630E+03  0.15294330000E+03 0.  0.
<mgrwt>
<rscale>  0 0.70549230E+03</rscale>
<asrwt>0</asrwt>
<pdfrwt beam="1">  1        1 0.22488183E+00 0.80134963E+03</pdfrwt>
<pdfrwt beam="2">  1       -1 0.84825402E-01 0.80134963E+03</pdfrwt>
<totfact> 0.98551884E+00</totfact>
</mgrwt>
</event>
<event>
 4    1  0.4055965E-007  0.7936225E+03  0.7818608E-02  0.9724759E-01
         -1   -1    0    0    0  501 -0.00000000000E+00  0.00000000000E+00  0.13799726950E+03  0.13799726960E+03  0.50400000000E-02 0.  1.
          1   -1    0    0  501    0  0.00000000000E+00 -0.00000000000E+00 -0.30259726134E+04  0.30259726134E+04  0.50400000000E-02 0. -1.
    8880023    1    1    2    0    0 -0.39328518031E+03  0.20335495179E+03 -0.21287051662E+04  0.22718323795E+04  0.65864270000E+03 0. -1.
    8880022    1    1    2    0    0  0.39328518031E+03 -0.20335495179E+03 -0.75927017766E+03  0.89213750351E+03  0.15294330000E+03 0.  1.
<mgrwt>
<rscale>  0 0.69561597E+03</rscale>
<asrwt>0</asrwt>
<pdfrwt beam="1">  1        1 0.46553420E+00 0.79362250E+03</pdfrwt>
<pdfrwt beam="2">  1       -1 0.21230351E-01 0.79362250E+03</pdfrwt>
<totfact> 0.11159370E+01</totfact>
</mgrwt>
</event>
<event>
 4    1  0.4055965E-007  0.8591840E+03  0.7818608E-02  0.9595017E-01
         -1   -1    0    0    0  501 -0.00000000000E+00  0.00000000000E+00  0.21957663911E+04  0.21957663911E+04  0.50400000000E-02 0.  1.
          1   -1    0    0  501    0  0.00000000000E+00 -0.00000000000E+00 -0.54698076101E+03  0.54698076103E+03  0.50400000000E-02 0. -1.
    8880023    1    1    2    0    0 -0.27686757675E+03 -0.47721193418E+03 -0.13464829880E+03  0.86967077438E+03  0.65864270000E+03 0.  0.
    8880022    1    1    2    0    0  0.27686757675E+03  0.47721193418E+03  0.17834339289E+04  0.18730763778E+04  0.15294330000E+03 0.  0.
<mgrwt>
<rscale>  0 0.77626890E+03</rscale>
<asrwt>0</asrwt>
<pdfrwt beam="1">  1        1 0.84150886E-01 0.85918397E+03</pdfrwt>
<pdfrwt beam="2">  1       -1 0.33781022E+00 0.85918397E+03</pdfrwt>
<totfact> 0.76179901E-01</totfact>
</mgrwt>
</event>
<event>
 4    1  0.4055965E-007  0.6768060E+03  0.7818608E-02  0.1011191E+00
         -1   -1    0    0    0  501 -0.00000000000E+00  0.00000000000E+00  0.18234624023E+03  0.18234624030E+03  0.50400000000E-02 0.  1.
          1   -1    0    0  501    0  0.00000000000E+00 -0.00000000000E+00 -0.15020638385E+04  0.15020638385E+04  0.50400000000E-02 0. -1.
    8880023    1    1    2    0    0  0.28877591225E+02 -0.15304336239E+03 -0.12995089283E+04  0.14651927679E+04  0.65864270000E+03 0. -1.
    8880022    1    1    2    0    0 -0.28877591225E+02  0.15304336239E+03 -0.20208669935E+02  0.21921731091E+03  0.15294330000E+03 0.  0.
<mgrwt>
<rscale>  0 0.51003921E+03</rscale>
<asrwt>0</asrwt>
<pdfrwt beam="1">  1        1 0.23108674E+00 0.67680602E+03</pdfrwt>
<pdfrwt beam="2">  1       -1 0.28053269E-01 0.67680602E+03</pdfrwt>
<totfact> 0.77232885E+01</totfact>
</mgrwt>
</event>
<event>
 4    1  0.4055965E-007  0.7984789E+03  0.7818608E-02  0.9714095E-01
          1   -1    0    0  501    0  0.00000000000E+00  0.00000000000E+00  0.48196606759E+03  0.48196606762E+03  0.50400000000E-02 0. -1.
         -1   -1    0    0    0  501 -0.00000000000E+00 -0.00000000000E+00 -0.11010235883E+04  0.11010235883E+04  0.50400000000E-02 0.  1.
    8880023    1    1    2    0    0  0.44606991080E+03  0.69137529676E+02  0.40723219090E+01  0.79848929448E+03  0.65864270000E+03 0.  0.
    8880022    1    1    2    0    0 -0.44606991080E+03 -0.69137529676E+02 -0.62312984257E+03  0.78450036141E+03  0.15294330000E+03 0. -1.
<mgrwt>
<rscale>  0 0.70183768E+03</rscale>
<asrwt>0</asrwt>
<pdfrwt beam="1">  1        1 0.74148626E-01 0.79847891E+03</pdfrwt>
<pdfrwt beam="2">  1       -1 0.16938824E+00 0.79847891E+03</pdfrwt>
<totfact> 0.11866477E+01</totfact>
</mgrwt>
</event>
<event>
 4    1  0.4055965E-007  0.8462447E+03  0.7818608E-02  0.9618516E-01
          1   -1    0    0  501    0  0.00000000000E+00  0.00000000000E+00  0.26652713221E+04  0.26652713221E+04  0.50400000000E-02 0. -1.
         -1   -1    0    0    0  501 -0.00000000000E+00 -0.00000000000E+00 -0.18554451794E+03  0.18554451801E+03  0.50400000000E-02 0.  1.
    8880023    1    1    2    0    0  0.43552664406E+03  0.30436222226E+03  0.16389139491E+04  0.18444969392E+04  0.65864270000E+03 0. -1.
    8880022    1    1    2    0    0 -0.43552664406E+03 -0.30436222226E+03  0.84081285508E+03  0.10063189009E+04  0.15294330000E+03 0.  1.
<mgrwt>
<rscale>  0 0.76082701E+03</rscale>
<asrwt>0</asrwt>
<pdfrwt beam="1">  1        1 0.41004173E+00 0.84624466E+03</pdfrwt>
<pdfrwt beam="2">  1       -1 0.28545311E-01 0.84624466E+03</pdfrwt>
<totfact> 0.12012678E+01</totfact>
</mgrwt>
</event>
<event>
 4    1  0.4055965E-007  0.6645187E+03  0.7818608E-02  0.1019941E+00
         -1   -1    0    0    0  501 -0.00000000000E+00  0.00000000000E+00  0.26818395353E+03  0.26818395358E+03  0.50400000000E-02 0.  1.
          1   -1    0    0  501    0  0.00000000000E+00 -0.00000000000E+00 -0.66577938020E+03  0.66577938022E+03  0.50400000000E-02 0. -1.
    8880023    1    1    2    0    0  0.70796287687E+02  0.52561599500E+02 -0.35030822847E+03  0.75119963877E+03  0.65864270000E+03 0. -1.
    8880022    1    1    2    0    0 -0.70796287687E+02 -0.52561599500E+02 -0.47287198201E+02  0.18276369503E+03  0.15294330000E+03 0.  1.
<mgrwt>
<rscale>  0 0.47708017E+03</rscale>
<asrwt>0</asrwt>
<pdfrwt beam="1">  1        1 0.10242760E+00 0.66451865E+03</pdfrwt>
<pdfrwt beam="2">  1       -1 0.41259070E-01 0.66451865E+03</pdfrwt>
<totfact> 0.17242289E+02</totfact>
</mgrwt>
</event>
<event>
 4    1  0.4055965E-007  0.9058037E+03  0.7818608E-02  0.9516778E-01
          1   -1    0    0  501    0  0.00000000000E+00  0.00000000000E+00  0.99960422628E+03  0.99960422629E+03  0.50400000000E-02 0. -1.
         -1   -1    0    0    0  501 -0.00000000000E+00 -0.00000000000E+00 -0.10556839857E+04  0.10556839857E+04  0.50400000000E-02 0.  1.
    8880023    1    1    2    0    0 -0.39310111006E+03  0.48181076262E+03  0.64028277465E+03  0.11092530511E+04  0.65864270000E+03 0. -1.
    8880022    1    1    2    0    0  0.39310111006E+03 -0.48181076262E+03 -0.69636253409E+03  0.94603516087E+03  0.15294330000E+03 0.  0.
<mgrwt>
<rscale>  0 0.83058047E+03</rscale>
<asrwt>0</asrwt>
<pdfrwt beam="1">  1        1 0.15378527E+00 0.90580368E+03</pdfrwt>
<pdfrwt beam="2">  1       -1 0.16241292E+00 0.90580368E+03</pdfrwt>
<totfact> 0.43048576E+00</totfact>
</mgrwt>
</event>
<event>
 4    1  0.4055965E-007  0.7016858E+03  0.7818608E-02  0.9990279E-01
         -1   -1    0    0    0  501 -0.00000000000E+00  0.00000000000E+00  0.48270648082E+03  0.48270648084E+03  0.50400000000E-02 0.  1.
          1   -1    0    0  501    0  0.00000000000E+00 -0.00000000000E+00 -0.65190840004E+03  0.65190840006E+03  0.50400000000E-02 0. -1.
    8880023    1    1    2    0    0  0.38950654139E+02 -0.23882119351E+03 -0.36192386381E+03  0.78952631709E+03  0.65864270000E+03 0.  0.
    8880022    1    1    2    0    0 -0.38950654139E+02  0.23882119351E+03  0.19272194459E+03  0.34508856381E+03  0.15294330000E+03 0.  1.
<mgrwt>
<rscale>  0 0.56078565E+03</rscale>
<asrwt>0</asrwt>
<pdfrwt beam="1">  1        1 0.10029360E+00 0.70168577E+03</pdfrwt>
<pdfrwt beam="2">  1       -1 0.74262535E-01 0.70168577E+03</pdfrwt>
<totfact> 0.56777968E+01</totfact>
</mgrwt>
</event>
<event>
 4    1  0.4055965E-007  0.7427500E+03  0.7818608E-02  0.9852008E-01
          1   -1    0    0  501    0  0.00000000000E+00  0.00000000000E+00  0.24156138653E+03  0.24156138659E+03  0.50400000000E-02 0. -1.
         -1   -1    0    0    0  501 -0.00000000000E+00 -0.00000000000E+00 -0.16126899536E+04  0.16126899536E+04  0.50400000000E-02 0.  1.
    8880023    1    1    2    0    0  0.28239868795E+03 -0.19523923311E+03 -0.47278946375E+03  0.88045866479E+03  0.65864270000E+03 0.  0.
    8880022    1    1    2    0    0 -0.28239868795E+03  0.19523923311E+03 -0.89833910328E+03  0.97379267537E+03  0.15294330000E+03 0.  0.
<mgrwt>
<rscale>  0 0.62644656E+03</rscale>
<asrwt>0</asrwt>
<pdfrwt beam="1">  1        1 0.37163291E-01 0.74275001E+03</pdfrwt>
<pdfrwt beam="2">  1       -1 0.24810614E+00 0.74275001E+03</pdfrwt>
<totfact> 0.86462041E+00</totfact>
</mgrwt>
</event>
<event>
 4    1  0.4055965E-007  0.8123889E+03  0.7818608E-02  0.9684622E-01
          1   -1    0    0  501    0  0.00000000000E+00  0.00000000000E+00  0.91769472628E+03  0.91769472629E+03  0.50400000000E-02 0. -1.
         -1   -1    0    0    0  501 -0.00000000000E+00 -0.00000000000E+00 -0.10851315361E+04  0.10851315361E+04  0.50400000000E-02 0.  1.
    8880023    1    1    2    0    0 -0.46162268722E+03  0.11432433950E+03  0.65297929180E+03  0.10422848563E+04  0.65864270000E+03 0. -1.
    8880022    1    1    2    0    0  0.46162268722E+03 -0.11432433950E+03 -0.82041610165E+03  0.96054140610E+03  0.15294330000E+03 0.  0.
<mgrwt>
<rscale>  0 0.71939806E+03</rscale>
<asrwt>0</asrwt>
<pdfrwt beam="1">  1        1 0.14118380E+00 0.81238893E+03</pdfrwt>
<pdfrwt beam="2">  1       -1 0.16694331E+00 0.81238893E+03</pdfrwt>
<totfact> 0.46854249E+00</totfact>
</mgrwt>
</event>
<event>
 4    1  0.4055965E-007  0.7905283E+03  0.7818608E-02  0.9731663E-01
         -1   -1    0    0    0  501 -0.00000000000E+00  0.00000000000E+00  0.66545100071E+03  0.66545100073E+03  0.50400000000E-02 0.  1.
          1   -1    0    0  501    0  0.00000000000E+00 -0.00000000000E+00 -0.70917632751E+03  0.70917632753E+03  0.50400000000E-02 0. -1.
    8880023    1    1    2    0    0  0.12716782977E+03  0.41827395793E+03 -0.29970944533E+03  0.84543522442E+03  0.65864270000E+03 0.  0.
    8880022    1    1    2    0    0 -0.12716782977E+03 -0.41827395793E+03  0.25598411853E+03  0.52919210383E+03  0.15294330000E+03 0.  0.
<mgrwt>
<rscale>  0 0.69162491E+03</rscale>
<asrwt>0</asrwt>
<pdfrwt beam="1">  1        1 0.10910405E+00 0.79052828E+03</pdfrwt>
<pdfrwt beam="2">  1       -1 0.10237708E+00 0.79052828E+03</pdfrwt>
<totfact> 0.24634514E+01</totfact>
</mgrwt>
</event>
<event>
 4    1  0.4055965E-007  0.7154317E+03  0.7818608E-02  0.9938358E-01
          1   -1    0    0  501    0  0.00000000000E+00  0.00000000000E+00  0.64205979641E+03  0.64205979642E+03  0.50400000000E-02 0. -1.
         -1   -1    0    0    0  501 -0.00000000000E+00 -0.00000000000E+00 -0.58828697868E+03  0.58828697871E+03  0.50400000000E-02 0.  1.
    8880023    1    1    2    0    0  0.69533210813E+02 -0.27055025297E+03  0.34906079991E+03  0.79604394043E+03  0.65864270000E+03 0.  1.
    8880022    1    1    2    0    0 -0.69533210813E+02  0.27055025297E+03 -0.29528798219E+03  0.43430283470E+03  0.15294330000E+03 0.  0.
<mgrwt>
<rscale>  0 0.58437779E+03</rscale>
<asrwt>0</asrwt>
<pdfrwt beam="1">  1        1 0.98778430E-01 0.71543170E+03</pdfrwt>
<pdfrwt beam="2">  1       -1 0.90505689E-01 0.71543170E+03</pdfrwt>
<totfact> 0.37998544E+01</totfact>
</mgrwt>
</event>
<event>
 4    1  0.4055965E-007  0.7115966E+03  0.7818608E-02  0.9952119E-01
          1   -1    0    0  501    0  0.00000000000E+00  0.00000000000E+00  0.47909971796E+03  0.47909971799E+03  0.50400000000E-02 0. -1.
         -1   -1    0    0    0  501 -0.00000000000E+00 -0.00000000000E+00 -0.16150554774E+04  0.16150554774E+04  0.50400000000E-02 0.  1.
    8880023    1    1    2    0    0  0.22607827865E+03  0.14645169260E+03  0.18672478411E+03  0.73568732326E+03  0.65864270000E+03 0. -1.
    8880022    1    1    2    0    0 -0.22607827865E+03 -0.14645169260E+03 -0.13226805435E+04  0.13584678721E+04  0.15294330000E+03 0.  0.
<mgrwt>
<rscale>  0 0.57800508E+03</rscale>
<asrwt>0</asrwt>
<pdfrwt beam="1">  1        1 0.73707650E-01 0.71159658E+03</pdfrwt>
<pdfrwt beam="2">  1       -1 0.24847007E+00 0.71159658E+03</pdfrwt>
<totfact> 0.35155485E+00</totfact>
</mgrwt>
</event>
<event>
 4    1  0.4055965E-007  0.1178401E+04  0.7818608E-02  0.9178410E-01
         -1   -1    0    0    0  501 -0.00000000000E+00  0.00000000000E+00  0.73176945354E+03  0.73176945356E+03  0.50400000000E-02 0.  1.
          1   -1    0    0  501    0  0.00000000000E+00 -0.00000000000E+00 -0.28166388878E+04  0.28166388878E+04  0.50400000000E-02 0. -1.
    8880023    1    1    2    0    0  0.93215738581E+03 -0.29308844404E+03 -0.22554735049E+04  0.25447571919E+04  0.65864270000E+03 0. -1.
    8880022    1    1    2    0    0 -0.93215738581E+03  0.29308844404E+03  0.17060407065E+03  0.10036511495E+04  0.15294330000E+03 0.  0.
<mgrwt>
<rscale>  0 0.11279083E+04</rscale>
<asrwt>0</asrwt>
<pdfrwt beam="1">  1        1 0.43332905E+00 0.11784008E+04</pdfrwt>
<pdfrwt beam="2">  1       -1 0.11257992E+00 0.11784008E+04</pdfrwt>
<totfact> 0.58322953E-01</totfact>
</mgrwt>
</event>
<event>
 4    1  0.4055965E-007  0.1129797E+04  0.7818608E-02  0.9228584E-01
         -1   -1    0    0    0  501 -0.00000000000E+00  0.00000000000E+00  0.93013797380E+03  0.93013797381E+03  0.50400000000E-02 0.  1.
          1   -1    0    0  501    0  0.00000000000E+00 -0.00000000000E+00 -0.18230903383E+04  0.18230903383E+04  0.50400000000E-02 0. -1.
    8880023    1    1    2    0    0 -0.86715130079E+02 -0.91384400491E+03 -0.13130418697E+04  0.17322007785E+04  0.65864270000E+03 0.  0.
    8880022    1    1    2    0    0  0.86715130079E+02  0.91384400491E+03  0.42008950520E+03  0.10210275337E+04  0.15294330000E+03 0.  0.
<mgrwt>
<rscale>  0 0.10763198E+04</rscale>
<asrwt>0</asrwt>
<pdfrwt beam="1">  1        1 0.28047544E+00 0.11297967E+04</pdfrwt>
<pdfrwt beam="2">  1       -1 0.14309815E+00 0.11297967E+04</pdfrwt>
<totfact> 0.15407697E+00</totfact>
</mgrwt>
</event>
<event>
 4    1  0.4055965E-007  0.7335074E+03  0.7818608E-02  0.9879280E-01
          1   -1    0    0  501    0  0.00000000000E+00  0.00000000000E+00  0.57656792776E+03  0.57656792778E+03  0.50400000000E-02 0. -1.
         -1   -1    0    0    0  501 -0.00000000000E+00 -0.00000000000E+00 -0.14734485915E+04  0.14734485915E+04  0.50400000000E-02 0.  1.
    8880023    1    1    2    0    0 -0.30887043105E+03  0.93924983050E+02  0.30632377767E+03  0.79490081686E+03  0.65864270000E+03 0. -1.
    8880022    1    1    2    0    0  0.30887043105E+03 -0.93924983050E+02 -0.12032044414E+04  0.12551157024E+04  0.15294330000E+03 0.  0.
<mgrwt>
<rscale>  0 0.61276064E+03</rscale>
<asrwt>0</asrwt>
<pdfrwt beam="1">  1        1 0.88702759E-01 0.73350736E+03</pdfrwt>
<pdfrwt beam="2">  1       -1 0.22668440E+00 0.73350736E+03</pdfrwt>
<totfact> 0.37542872E+00</totfact>
</mgrwt>
</event>
<event>
 4    1  0.4055965E-007  0.1036853E+04  0.7818608E-02  0.9334855E-01
         -1   -1    0    0    0  501 -0.00000000000E+00  0.00000000000E+00  0.55399433607E+03  0.55399433609E+03  0.50400000000E-02 0.  1.
          1   -1    0    0  501    0  0.00000000000E+00 -0.00000000000E+00 -0.19927545303E+04  0.19927545303E+04  0.50400000000E-02 0. -1.
    8880023    1    1    2    0    0  0.78278096017E+03 -0.16884513831E+03 -0.18801521087E+03  0.10537621355E+04  0.65864270000E+03 0.  1.
    8880022    1    1    2    0    0 -0.78278096017E+03  0.16884513831E+03 -0.12507449833E+04  0.14929867309E+04  0.15294330000E+03 0. -1.
<mgrwt>
<rscale>  0 0.97636418E+03</rscale>
<asrwt>0</asrwt>
<pdfrwt beam="1">  1        1 0.30657762E+00 0.10368534E+04</pdfrwt>
<pdfrwt beam="2">  1       -1 0.85229899E-01 0.10368534E+04</pdfrwt>
<totfact> 0.41284341E+00</totfact>
</mgrwt>
</event>
<event>
 4    1  0.4055965E-007  0.8254156E+03  0.7818608E-02  0.9658319E-01
         -1   -1    0    0    0  501 -0.00000000000E+00  0.00000000000E+00  0.31138528586E+03  0.31138528590E+03  0.50400000000E-02 0.  1.
          1   -1    0    0  501    0  0.00000000000E+00 -0.00000000000E+00 -0.20424864100E+04  0.20424864100E+04  0.50400000000E-02 0. -1.
    8880023    1    1    2    0    0 -0.20055488849E+02  0.49708995263E+03 -0.16251100441E+04  0.18227159695E+04  0.65864270000E+03 0.  0.
    8880022    1    1    2    0    0  0.20055488849E+02 -0.49708995263E+03 -0.10599108000E+03  0.53115572641E+03  0.15294330000E+03 0.  0.
<mgrwt>
<rscale>  0 0.73553623E+03</rscale>
<asrwt>0</asrwt>
<pdfrwt beam="1">  1        1 0.31422867E+00 0.82541556E+03</pdfrwt>
<pdfrwt beam="2">  1       -1 0.47905430E-01 0.82541556E+03</pdfrwt>
<totfact> 0.12547732E+01</totfact>
</mgrwt>
</event>
<event>
 4    1  0.4055965E-007  0.6779223E+03  0.7818608E-02  0.1010524E+00
         -1   -1    0    0    0  501 -0.00000000000E+00  0.00000000000E+00  0.16411672360E+04  0.16411672360E+04  0.50400000000E-02 0.  1.
          1   -1    0    0  501    0  0.00000000000E+00 -0.00000000000E+00 -0.25584651935E+03  0.25584651940E+03  0.50400000000E-02 0. -1.
    8880023    1    1    2    0    0 -0.14644596322E+03  0.65742208743E+02  0.22288557227E+03  0.71362219888E+03  0.65864270000E+03 0.  0.
    8880022    1    1    2    0    0  0.14644596322E+03 -0.65742208743E+02  0.11624351443E+04  0.11833915565E+04  0.15294330000E+03 0.  0.
<mgrwt>
<rscale>  0 0.51266841E+03</rscale>
<asrwt>0</asrwt>
<pdfrwt beam="1">  1        1 0.39361002E-01 0.67792231E+03</pdfrwt>
<pdfrwt beam="2">  1       -1 0.25248727E+00 0.67792231E+03</pdfrwt>
<totfact> 0.75870001E+00</totfact>
</mgrwt>
</event>
<event>
 4    1  0.4055965E-007  0.6815077E+03  0.7818608E-02  0.1008483E+00
          1   -1    0    0  501    0  0.00000000000E+00  0.00000000000E+00  0.66063718209E+03  0.66063718211E+03  0.50400000000E-02 0. -1.
         -1   -1    0    0    0  501 -0.00000000000E+00 -0.00000000000E+00 -0.64393293408E+03  0.64393293410E+03  0.50400000000E-02 0.  1.
    8880023    1    1    2    0    0 -0.12910247564E+03 -0.11821634251E+03  0.44733490296E+03  0.81520627728E+03  0.65864270000E+03 0. -1.
    8880022    1    1    2    0    0  0.12910247564E+03  0.11821634251E+03 -0.43063065495E+03  0.48936383893E+03  0.15294330000E+03 0.  0.
<mgrwt>
<rscale>  0 0.52081883E+03</rscale>
<asrwt>0</asrwt>
<pdfrwt beam="1">  1        1 0.10163649E+00 0.68150771E+03</pdfrwt>
<pdfrwt beam="2">  1       -1 0.99066606E-01 0.68150771E+03</pdfrwt>
<totfact> 0.29883044E+01</totfact>
</mgrwt>
</event>
<event>
 4    1  0.4055965E-007  0.1213390E+04  0.7818608E-02  0.9144215E-01
          1   -1    0    0  501    0  0.00000000000E+00  0.00000000000E+00  0.16114230062E+04  0.16114230062E+04  0.50400000000E-02 0. -1.
         -1   -1    0    0    0  501 -0.00000000000E+00 -0.00000000000E+00 -0.92791156574E+03  0.92791156575E+03  0.50400000000E-02 0.  1.
    8880023    1    1    2    0    0 -0.85727013929E+03 -0.55099290682E+03  0.86875823031E+03  0.14923325179E+04  0.65864270000E+03 0.  0.
    8880022    1    1    2    0    0  0.85727013929E+03  0.55099290682E+03 -0.18524678981E+03  0.10470020541E+04  0.15294330000E+03 0.  0.
<mgrwt>
<rscale>  0 0.11648248E+04</rscale>
<asrwt>0</asrwt>
<pdfrwt beam="1">  1        1 0.24791123E+00 0.12133901E+04</pdfrwt>
<pdfrwt beam="2">  1       -1 0.14275563E+00 0.12133901E+04</pdfrwt>
<totfact> 0.21388145E+00</totfact>
</mgrwt>
</event>
<event>
 4    1  0.4055965E-007  0.7402119E+03  0.7818608E-02  0.9859330E-01
         -1   -1    0    0    0  501 -0.00000000000E+00  0.00000000000E+00  0.77763636066E+03  0.77763636067E+03  0.50400000000E-02 0.  1.
          1   -1    0    0  501    0  0.00000000000E+00 -0.00000000000E+00 -0.67729116001E+03  0.67729116003E+03  0.50400000000E-02 0. -1.
    8880023    1    1    2    0    0 -0.28086513474E+03  0.18766511247E+03 -0.39276208415E+03  0.83795923490E+03  0.65864270000E+03 0. -1.
    8880022    1    1    2    0    0  0.28086513474E+03 -0.18766511247E+03  0.49310728480E+03  0.61696828580E+03  0.15294330000E+03 0.  0.
<mgrwt>
<rscale>  0 0.62273450E+03</rscale>
<asrwt>0</asrwt>
<pdfrwt beam="1">  1        1 0.10419864E+00 0.74021188E+03</pdfrwt>
<pdfrwt beam="2">  1       -1 0.11963636E+00 0.74021188E+03</pdfrwt>
<totfact> 0.18369364E+01</totfact>
</mgrwt>
</event>
<event>
 4    1  0.4055965E-007  0.8540849E+03  0.7818608E-02  0.9604173E-01
         -1   -1    0    0    0  501 -0.00000000000E+00  0.00000000000E+00  0.17980262150E+04  0.17980262151E+04  0.50400000000E-02 0.  1.
          1   -1    0    0  501    0  0.00000000000E+00 -0.00000000000E+00 -0.41364597114E+03  0.41364597117E+03  0.50400000000E-02 0. -1.
    8880023    1    1    2    0    0  0.53989774647E+03  0.64507658354E+02  0.14074954344E+04  0.16463609625E+04  0.65864270000E+03 0.  1.
    8880022    1    1    2    0    0 -0.53989774647E+03 -0.64507658354E+02 -0.23115190529E+02  0.56531122373E+03  0.15294330000E+03 0.  0.
<mgrwt>
<rscale>  0 0.77020591E+03</rscale>
<asrwt>0</asrwt>
<pdfrwt beam="1">  1        1 0.63637841E-01 0.85408490E+03</pdfrwt>
<pdfrwt beam="2">  1       -1 0.27661942E+00 0.85408490E+03</pdfrwt>
<totfact> 0.27668891E+00</totfact>
</mgrwt>
</event>
<event>
 4    1  0.4055965E-007  0.7484640E+03  0.7818608E-02  0.9835944E-01
         -1   -1    0    0    0  501 -0.00000000000E+00  0.00000000000E+00  0.31178527678E+03  0.31178527682E+03  0.50400000000E-02 0.  1.
          1   -1    0    0  501    0  0.00000000000E+00 -0.00000000000E+00 -0.17142586466E+04  0.17142586466E+04  0.50400000000E-02 0. -1.
    8880023    1    1    2    0    0 -0.12216966670E+03  0.33386037464E+03 -0.14542758685E+04  0.16355783947E+04  0.65864270000E+03 0.  0.
    8880022    1    1    2    0    0  0.12216966670E+03 -0.33386037464E+03  0.51802498711E+02  0.39046552871E+03  0.15294330000E+03 0.  0.
<mgrwt>
<rscale>  0 0.63468738E+03</rscale>
<asrwt>0</asrwt>
<pdfrwt beam="1">  1        1 0.26373209E+00 0.74846402E+03</pdfrwt>
<pdfrwt beam="2">  1       -1 0.47966967E-01 0.74846402E+03</pdfrwt>
<totfact> 0.20991843E+01</totfact>
</mgrwt>
</event>
<event>
 4    1  0.4055965E-007  0.9120570E+03  0.7818608E-02  0.9506947E-01
         -1   -1    0    0    0  501 -0.00000000000E+00  0.00000000000E+00  0.30978552006E+04  0.30978552006E+04  0.50400000000E-02 0.  1.
          1   -1    0    0  501    0  0.00000000000E+00 -0.00000000000E+00 -0.63098117184E+03  0.63098117186E+03  0.50400000000E-02 0. -1.
    8880023    1    1    2    0    0  0.60390391789E+03  0.18258660118E+03 -0.24171104453E+03  0.94354239135E+03  0.65864270000E+03 0.  0.
    8880022    1    1    2    0    0 -0.60390391789E+03 -0.18258660118E+03  0.27085850733E+04  0.27852939812E+04  0.15294330000E+03 0.  0.
<mgrwt>
<rscale>  0 0.83773586E+03</rscale>
<asrwt>0</asrwt>
<pdfrwt beam="1">  1        1 0.97074028E-01 0.91205702E+03</pdfrwt>
<pdfrwt beam="2">  1       -1 0.47659310E+00 0.91205702E+03</pdfrwt>
<totfact> 0.70482209E-02</totfact>
</mgrwt>
</event>
<event>
 4    1  0.5409156E-007  0.7118685E+03  0.7818608E-02  0.9951127E-01
          1   -1    0    0  501    0  0.00000000000E+00  0.00000000000E+00  0.15647199291E+04  0.15647199291E+04  0.50400000000E-02 0. -1.
         -1   -1    0    0    0  501 -0.00000000000E+00 -0.00000000000E+00 -0.74447375066E+03  0.74447375068E+03  0.50400000000E-02 0.  1.
    8880023    1    1    2    0    0  0.26381861598E+03 -0.57847385261E+02  0.14454205984E+04  0.16112099474E+04  0.65864270000E+03 0.  0.
    8880022    1    1    2    0    0 -0.26381861598E+03  0.57847385261E+02 -0.62517442002E+03  0.69798373232E+03  0.15294330000E+03 0.  1.
<mgrwt>
<rscale>  0 0.57846179E+03</rscale>
<asrwt>0</asrwt>
<pdfrwt beam="1">  1        1 0.24072614E+00 0.71186852E+03</pdfrwt>
<pdfrwt beam="2">  1       -1 0.11453442E+00 0.71186852E+03</pdfrwt>
<totfact> 0.42974064E+00</totfact>
</mgrwt>
</event>
<event>
 4    1  0.4055965E-007  0.7530819E+03  0.7818608E-02  0.9823358E-01
         -1   -1    0    0    0  501 -0.00000000000E+00  0.00000000000E+00  0.68668817815E+03  0.68668817817E+03  0.50400000000E-02 0.  1.
          1   -1    0    0  501    0  0.00000000000E+00 -0.00000000000E+00 -0.24681302291E+04  0.24681302291E+04  0.50400000000E-02 0. -1.
    8880023    1    1    2    0    0 -0.34255236182E+03 -0.12641231522E+03 -0.23467836914E+04  0.24646553704E+04  0.65864270000E+03 0. -1.
    8880022    1    1    2    0    0  0.34255236182E+03  0.12641231522E+03  0.56534164049E+03  0.69016303691E+03  0.15294330000E+03 0.  0.
<mgrwt>
<rscale>  0 0.64123924E+03</rscale>
<asrwt>0</asrwt>
<pdfrwt beam="1">  1        1 0.37971234E+00 0.75308193E+03</pdfrwt>
<pdfrwt beam="2">  1       -1 0.10564434E+00 0.75308193E+03</pdfrwt>
<totfact> 0.12741762E+00</totfact>
</mgrwt>
</event>
<event>
 4    1  0.4055965E-007  0.8980019E+03  0.7818608E-02  0.9529247E-01
          1   -1    0    0  501    0  0.00000000000E+00  0.00000000000E+00  0.15598871321E+04  0.15598871321E+04  0.50400000000E-02 0. -1.
         -1   -1    0    0    0  501 -0.00000000000E+00 -0.00000000000E+00 -0.64860539665E+03  0.64860539667E+03  0.50400000000E-02 0.  1.
    8880023    1    1    2    0    0 -0.11975074440E+03  0.59854568541E+03  0.12141254293E+04  0.15101350743E+04  0.65864270000E+03 0. -1.
    8880022    1    1    2    0    0  0.11975074440E+03 -0.59854568541E+03 -0.30284369385E+03  0.69835745448E+03  0.15294330000E+03 0.  0.
<mgrwt>
<rscale>  0 0.82161489E+03</rscale>
<asrwt>0</asrwt>
<pdfrwt beam="1">  1        1 0.23998263E+00 0.89800188E+03</pdfrwt>
<pdfrwt beam="2">  1       -1 0.99785448E-01 0.89800188E+03</pdfrwt>
<totfact> 0.58056853E+00</totfact>
</mgrwt>
</event>
<event>
 4    1  0.4055965E-007  0.6756111E+03  0.7818608E-02  0.1011924E+00
         -1   -1    0    0    0  501 -0.00000000000E+00  0.00000000000E+00  0.97735703822E+03  0.97735703823E+03  0.50400000000E-02 0.  1.
          1   -1    0    0  501    0  0.00000000000E+00 -0.00000000000E+00 -0.92394562241E+03  0.92394562243E+03  0.50400000000E-02 0. -1.
    8880023    1    1    2    0    0  0.60235477939E+02  0.13788345244E+03 -0.78510094167E+03  0.10357769326E+04  0.65864270000E+03 0. -1.
    8880022    1    1    2    0    0 -0.60235477939E+02 -0.13788345244E+03  0.83851235747E+03  0.86552572805E+03  0.15294330000E+03 0.  0.
<mgrwt>
<rscale>  0 0.50717150E+03</rscale>
<asrwt>0</asrwt>
<pdfrwt beam="1">  1        1 0.14214548E+00 0.67561111E+03</pdfrwt>
<pdfrwt beam="2">  1       -1 0.15036262E+00 0.67561111E+03</pdfrwt>
<totfact> 0.63122899E+00</totfact>
</mgrwt>
</event>
<event>
 4    1  0.4055965E-007  0.6697273E+03  0.7818608E-02  0.1015859E+00
         -1   -1    0    0    0  501 -0.00000000000E+00  0.00000000000E+00  0.28958031087E+03  0.28958031092E+03  0.50400000000E-02 0.  1.
          1   -1    0    0  501    0  0.00000000000E+00 -0.00000000000E+00 -0.22537660944E+04  0.22537660944E+04  0.50400000000E-02 0. -1.
    8880023    1    1    2    0    0  0.78265832379E+02 -0.92730311179E+02 -0.21632338326E+04  0.22645342285E+04  0.65864270000E+03 0. -1.
    8880022    1    1    2    0    0 -0.78265832379E+02  0.92730311179E+02  0.19904804905E+03  0.27881217688E+03  0.15294330000E+03 0.  0.
<mgrwt>
<rscale>  0 0.49210986E+03</rscale>
<asrwt>0</asrwt>
<pdfrwt beam="1">  1        1 0.34673323E+00 0.66972730E+03</pdfrwt>
<pdfrwt beam="2">  1       -1 0.44550819E-01 0.66972730E+03</pdfrwt>
<totfact> 0.10626780E+01</totfact>
</mgrwt>
</event>
<event>
 4    1  0.4055965E-007  0.7329469E+03  0.7818608E-02  0.9880990E-01
         -1   -1    0    0    0  501 -0.00000000000E+00  0.00000000000E+00  0.51908070011E+03  0.51908070014E+03  0.50400000000E-02 0.  1.
          1   -1    0    0  501    0  0.00000000000E+00 -0.00000000000E+00 -0.83490655282E+03  0.83490655284E+03  0.50400000000E-02 0. -1.
    8880023    1    1    2    0    0  0.48887733913E+02 -0.31782228843E+03 -0.55986051392E+03  0.92230961117E+03  0.65864270000E+03 0. -1.
    8880022    1    1    2    0    0 -0.48887733913E+02  0.31782228843E+03  0.24403466121E+03  0.43167764180E+03  0.15294330000E+03 0.  0.
<mgrwt>
<rscale>  0 0.61191510E+03</rscale>
<asrwt>0</asrwt>
<pdfrwt beam="1">  1        1 0.12844716E+00 0.73294694E+03</pdfrwt>
<pdfrwt beam="2">  1       -1 0.79858570E-01 0.73294694E+03</pdfrwt>
<totfact> 0.33174060E+01</totfact>
</mgrwt>
</event>
<event>
 4    1  0.4055965E-007  0.6798456E+03  0.7818608E-02  0.1009411E+00
         -1   -1    0    0    0  501 -0.00000000000E+00  0.00000000000E+00  0.21983482553E+03  0.21983482559E+03  0.50400000000E-02 0.  1.
          1   -1    0    0  501    0  0.00000000000E+00 -0.00000000000E+00 -0.10178168180E+04  0.10178168180E+04  0.50400000000E-02 0. -1.
    8880023    1    1    2    0    0 -0.33482908576E+02  0.16510212509E+03 -0.73575791238E+03  0.10017633098E+04  0.65864270000E+03 0.  1.
    8880022    1    1    2    0    0  0.33482908576E+02 -0.16510212509E+03 -0.62224080039E+02  0.23588833381E+03  0.15294330000E+03 0. -1.
<mgrwt>
<rscale>  0 0.51709344E+03</rscale>
<asrwt>0</asrwt>
<pdfrwt beam="1">  1        1 0.15658720E+00 0.67984559E+03</pdfrwt>
<pdfrwt beam="2">  1       -1 0.33820743E-01 0.67984559E+03</pdfrwt>
<totfact> 0.12372450E+02</totfact>
</mgrwt>
</event>
<event>
 4    1  0.4055965E-007  0.9713098E+03  0.7818608E-02  0.9420095E-01
         -1   -1    0    0    0  501 -0.00000000000E+00  0.00000000000E+00  0.10613664357E+04  0.10613664357E+04  0.50400000000E-02 0.  1.
          1   -1    0    0  501    0  0.00000000000E+00 -0.00000000000E+00 -0.96644267441E+03  0.96644267442E+03  0.50400000000E-02 0. -1.
    8880023    1    1    2    0    0 -0.26245824177E+03  0.66388870501E+03 -0.49408143828E+03  0.10897519054E+04  0.65864270000E+03 0. -1.
    8880022    1    1    2    0    0  0.26245824177E+03 -0.66388870501E+03  0.58900519960E+03  0.93805720480E+03  0.15294330000E+03 0.  0.
<mgrwt>
<rscale>  0 0.90440238E+03</rscale>
<asrwt>0</asrwt>
<pdfrwt beam="1">  1        1 0.14868349E+00 0.97130981E+03</pdfrwt>
<pdfrwt beam="2">  1       -1 0.16328714E+00 0.97130981E+03</pdfrwt>
<totfact> 0.44662158E+00</totfact>
</mgrwt>
</event>
<event>
 4    1  0.4055965E-007  0.7192157E+03  0.7818608E-02  0.9925249E-01
         -1   -1    0    0    0  501 -0.00000000000E+00  0.00000000000E+00  0.44706260798E+03  0.44706260801E+03  0.50400000000E-02 0.  1.
          1   -1    0    0  501    0  0.00000000000E+00 -0.00000000000E+00 -0.10826692701E+04  0.10826692702E+04  0.50400000000E-02 0. -1.
    8880023    1    1    2    0    0 -0.23087693119E+03  0.17365732525E+03 -0.86904254996E+03  0.11280541582E+04  0.65864270000E+03 0. -1.
    8880022    1    1    2    0    0  0.23087693119E+03 -0.17365732525E+03  0.23343588781E+03  0.40167771994E+03  0.15294330000E+03 0.  0.
<mgrwt>
<rscale>  0 0.59053079E+03</rscale>
<asrwt>0</asrwt>
<pdfrwt beam="1">  1        1 0.16656450E+00 0.71921570E+03</pdfrwt>
<pdfrwt beam="2">  1       -1 0.68778863E-01 0.71921570E+03</pdfrwt>
<totfact> 0.28837800E+01</totfact>
</mgrwt>
</event>
<event>
 4    1  0.4055965E-007  0.8676800E+03  0.7818608E-02  0.9580046E-01
         -1   -1    0    0    0  501 -0.00000000000E+00  0.00000000000E+00  0.60840031259E+03  0.60840031261E+03  0.50400000000E-02 0.  1.
          1   -1    0    0  501    0  0.00000000000E+00 -0.00000000000E+00 -0.20037843352E+04  0.20037843352E+04  0.50400000000E-02 0. -1.
    8880023    1    1    2    0    0  0.60066530998E+02 -0.56164964722E+03 -0.17319265365E+04  0.19371210723E+04  0.65864270000E+03 0.  0.
    8880022    1    1    2    0    0 -0.60066530998E+02  0.56164964722E+03  0.33654251391E+03  0.67506357557E+03  0.15294330000E+03 0.  0.
<mgrwt>
<rscale>  0 0.78631094E+03</rscale>
<asrwt>0</asrwt>
<pdfrwt beam="1">  1        1 0.30827451E+00 0.86767996E+03</pdfrwt>
<pdfrwt beam="2">  1       -1 0.93600049E-01 0.86767996E+03</pdfrwt>
<totfact> 0.33809040E+00</totfact>
</mgrwt>
</event>
<event>
 4    1  0.4055965E-007  0.7619870E+03  0.7818608E-02  0.9799990E-01
         -1   -1    0    0    0  501 -0.00000000000E+00  0.00000000000E+00  0.36634463256E+03  0.36634463259E+03  0.50400000000E-02 0.  1.
          1   -1    0    0  501    0  0.00000000000E+00 -0.00000000000E+00 -0.29989448408E+04  0.29989448408E+04  0.50400000000E-02 0. -1.
    8880023    1    1    2    0    0  0.35212595943E+03  0.15106720732E+03 -0.28134648322E+04  0.29148256484E+04  0.65864270000E+03 0.  0.
    8880022    1    1    2    0    0 -0.35212595943E+03 -0.15106720732E+03  0.18086462392E+03  0.45046382500E+03  0.15294330000E+03 0.  0.
<mgrwt>
<rscale>  0 0.65363067E+03</rscale>
<asrwt>0</asrwt>
<pdfrwt beam="1">  1        1 0.46137611E+00 0.76198701E+03</pdfrwt>
<pdfrwt beam="2">  1       -1 0.56360715E-01 0.76198701E+03</pdfrwt>
<totfact> 0.20447397E+00</totfact>
</mgrwt>
</event>
<event>
 4    1  0.4055965E-007  0.7431481E+03  0.7818608E-02  0.9850870E-01
          1   -1    0    0  501    0  0.00000000000E+00  0.00000000000E+00  0.87950096992E+03  0.87950096993E+03  0.50400000000E-02 0. -1.
         -1   -1    0    0    0  501 -0.00000000000E+00 -0.00000000000E+00 -0.54984410554E+03  0.54984410556E+03  0.50400000000E-02 0.  1.
    8880023    1    1    2    0    0  0.34226925063E+03  0.36203134163E+02 -0.20909043177E+03  0.77200254000E+03  0.65864270000E+03 0.  0.
    8880022    1    1    2    0    0 -0.34226925063E+03 -0.36203134163E+02  0.53874729614E+03  0.65734253549E+03  0.15294330000E+03 0.  0.
<mgrwt>
<rscale>  0 0.62702581E+03</rscale>
<asrwt>0</asrwt>
<pdfrwt beam="1">  1        1 0.13530784E+00 0.74314811E+03</pdfrwt>
<pdfrwt beam="2">  1       -1 0.84591401E-01 0.74314811E+03</pdfrwt>
<totfact> 0.26893449E+01</totfact>
</mgrwt>
</event>
<event>
 4    1  0.4055965E-007  0.7696350E+03  0.7818608E-02  0.9780773E-01
          1   -1    0    0  501    0  0.00000000000E+00  0.00000000000E+00  0.18130782757E+04  0.18130782757E+04  0.50400000000E-02 0. -1.
         -1   -1    0    0    0  501 -0.00000000000E+00 -0.00000000000E+00 -0.54789511449E+03  0.54789511452E+03  0.50400000000E-02 0.  1.
    8880023    1    1    2    0    0 -0.71586213475E+02 -0.39166729820E+03  0.16281656415E+04  0.18009057224E+04  0.65864270000E+03 0.  0.
    8880022    1    1    2    0    0  0.71586213475E+02  0.39166729820E+03 -0.36298248036E+03  0.56006766779E+03  0.15294330000E+03 0.  0.
<mgrwt>
<rscale>  0 0.66404655E+03</rscale>
<asrwt>0</asrwt>
<pdfrwt beam="1">  1        1 0.27893513E+00 0.76963502E+03</pdfrwt>
<pdfrwt beam="2">  1       -1 0.84291554E-01 0.76963502E+03</pdfrwt>
<totfact> 0.58016642E+00</totfact>
</mgrwt>
</event>
<event>
 4    1  0.4055965E-007  0.8261041E+03  0.7818608E-02  0.9656961E-01
          1   -1    0    0  501    0  0.00000000000E+00  0.00000000000E+00  0.31563545335E+03  0.31563545339E+03  0.50400000000E-02 0. -1.
         -1   -1    0    0    0  501 -0.00000000000E+00 -0.00000000000E+00 -0.22070953363E+04  0.22070953363E+04  0.50400000000E-02 0.  1.
    8880023    1    1    2    0    0  0.78966101846E+02  0.49234358823E+03 -0.35317743558E+03  0.89843328154E+03  0.65864270000E+03 0.  0.
    8880022    1    1    2    0    0 -0.78966101846E+02 -0.49234358823E+03 -0.15382824474E+04  0.16242975082E+04  0.15294330000E+03 0.  0.
<mgrwt>
<rscale>  0 0.73638190E+03</rscale>
<asrwt>0</asrwt>
<pdfrwt beam="1">  1        1 0.48559302E-01 0.82610415E+03</pdfrwt>
<pdfrwt beam="2">  1       -1 0.33955312E+00 0.82610415E+03</pdfrwt>
<totfact> 0.15614402E+00</totfact>
</mgrwt>
</event>
<event>
 4    1  0.4055965E-007  0.1960111E+04  0.7818608E-02  0.8638784E-01
         -1   -1    0    0    0  501 -0.00000000000E+00  0.00000000000E+00  0.17235556534E+04  0.17235556534E+04  0.50400000000E-02 0.  1.
          1   -1    0    0  501    0  0.00000000000E+00 -0.00000000000E+00 -0.24172623972E+04  0.24172623972E+04  0.50400000000E-02 0. -1.
    8880023    1    1    2    0    0 -0.14020841117E+04  0.12009938430E+04  0.38443424745E+03  0.19974548716E+04  0.65864270000E+03 0.  0.
    8880022    1    1    2    0    0  0.14020841117E+04 -0.12009938430E+04 -0.10781409913E+04  0.21433631790E+04  0.15294330000E+03 0.  0.
<mgrwt>
<rscale>  0 0.19326264E+04</rscale>
<asrwt>0</asrwt>
<pdfrwt beam="1">  1        1 0.37188652E+00 0.19601113E+04</pdfrwt>
<pdfrwt beam="2">  1       -1 0.26516241E+00 0.19601113E+04</pdfrwt>
<totfact> 0.76792243E-02</totfact>
</mgrwt>
</event>
<event>
 4    1  0.4055965E-007  0.9147752E+03  0.7818608E-02  0.9502717E-01
          1   -1    0    0  501    0  0.00000000000E+00  0.00000000000E+00  0.15229882946E+04  0.15229882946E+04  0.50400000000E-02 0. -1.
         -1   -1    0    0    0  501 -0.00000000000E+00 -0.00000000000E+00 -0.45236370247E+03  0.45236370250E+03  0.50400000000E-02 0.  1.
    8880023    1    1    2    0    0 -0.23724854280E+03 -0.58882643892E+03  0.93570322903E+03  0.13085695187E+04  0.65864270000E+03 0.  0.
    8880022    1    1    2    0    0  0.23724854280E+03  0.58882643892E+03  0.13492136309E+03  0.66678247838E+03  0.15294330000E+03 0.  0.
<mgrwt>
<rscale>  0 0.84083796E+03</rscale>
<asrwt>0</asrwt>
<pdfrwt beam="1">  1        1 0.23430589E+00 0.91477519E+03</pdfrwt>
<pdfrwt beam="2">  1       -1 0.69594416E-01 0.91477519E+03</pdfrwt>
<totfact> 0.13371813E+01</totfact>
</mgrwt>
</event>
<event>
 4    1  0.4055965E-007  0.6862879E+03  0.7818608E-02  0.1005969E+00
         -1   -1    0    0    0  501 -0.00000000000E+00  0.00000000000E+00  0.24946708814E+03  0.24946708819E+03  0.50400000000E-02 0.  1.
          1   -1    0    0  501    0  0.00000000000E+00 -0.00000000000E+00 -0.19761836136E+04  0.19761836136E+04  0.50400000000E-02 0. -1.
    8880023    1    1    2    0    0  0.19276647053E+03  0.46816965238E+01 -0.18332279909E+04  0.19574769228E+04  0.65864270000E+03 0.  0.
    8880022    1    1    2    0    0 -0.19276647053E+03 -0.46816965238E+01  0.10651146545E+03  0.26817377898E+03  0.15294330000E+03 0.  1.
<mgrwt>
<rscale>  0 0.53108516E+03</rscale>
<asrwt>0</asrwt>
<pdfrwt beam="1">  1        1 0.30402824E+00 0.68628787E+03</pdfrwt>
<pdfrwt beam="2">  1       -1 0.38379553E-01 0.68628787E+03</pdfrwt>
<totfact> 0.21328481E+01</totfact>
</mgrwt>
</event>
<event>
 4    1  0.4055965E-007  0.6665093E+03  0.7818608E-02  0.1018299E+00
          1   -1    0    0  501    0  0.00000000000E+00  0.00000000000E+00  0.36552315283E+03  0.36552315287E+03  0.50400000000E-02 0. -1.
         -1   -1    0    0    0  501 -0.00000000000E+00 -0.00000000000E+00 -0.87613394142E+03  0.87613394143E+03  0.50400000000E-02 0.  1.
    8880023    1    1    2    0    0  0.65066213168E+02  0.78682214883E+02  0.33460836419E+02  0.66734873707E+03  0.65864270000E+03 0. -1.
    8880022    1    1    2    0    0 -0.65066213168E+02 -0.78682214883E+02 -0.54407162500E+03  0.57430835723E+03  0.15294330000E+03 0.  0.
<mgrwt>
<rscale>  0 0.48305348E+03</rscale>
<asrwt>0</asrwt>
<pdfrwt beam="1">  1        1 0.56234331E-01 0.66650935E+03</pdfrwt>
<pdfrwt beam="2">  1       -1 0.13478984E+00 0.66650935E+03</pdfrwt>
<totfact> 0.32252925E+01</totfact>
</mgrwt>
</event>
<event>
 4    1  0.4055965E-007  0.1780233E+04  0.7818608E-02  0.8733550E-01
         -1   -1    0    0    0  501 -0.00000000000E+00  0.00000000000E+00  0.12296462299E+04  0.12296462299E+04  0.50400000000E-02 0.  1.
          1   -1    0    0  501    0  0.00000000000E+00 -0.00000000000E+00 -0.30225132956E+04  0.30225132956E+04  0.50400000000E-02 0. -1.
    8880023    1    1    2    0    0 -0.16537819700E+04 -0.20636481034E+02 -0.18797061343E+04  0.25889237197E+04  0.65864270000E+03 0.  0.
    8880022    1    1    2    0    0  0.16537819700E+04  0.20636481034E+02  0.86839068576E+02  0.16632358058E+04  0.15294330000E+03 0.  0.
<mgrwt>
<rscale>  0 0.17496371E+04</rscale>
<asrwt>0</asrwt>
<pdfrwt beam="1">  1        1 0.46500204E+00 0.17802334E+04</pdfrwt>
<pdfrwt beam="2">  1       -1 0.18917634E+00 0.17802334E+04</pdfrwt>
<totfact> 0.94500969E-02</totfact>
</mgrwt>
</event>
<event>
 4    1  0.4055965E-007  0.7354537E+03  0.7818608E-02  0.9873394E-01
         -1   -1    0    0    0  501 -0.00000000000E+00  0.00000000000E+00  0.51979078927E+03  0.51979078929E+03  0.50400000000E-02 0.  1.
          1   -1    0    0  501    0  0.00000000000E+00 -0.00000000000E+00 -0.10956563672E+04  0.10956563672E+04  0.50400000000E-02 0. -1.
    8880023    1    1    2    0    0 -0.26741806987E+03 -0.18859863944E+03 -0.87743637190E+03  0.11448959184E+04  0.65864270000E+03 0. -1.
    8880022    1    1    2    0    0  0.26741806987E+03  0.18859863944E+03  0.30157079400E+03  0.47055123812E+03  0.15294330000E+03 0.  0.
<mgrwt>
<rscale>  0 0.61568246E+03</rscale>
<asrwt>0</asrwt>
<pdfrwt beam="1">  1        1 0.16856252E+00 0.73545365E+03</pdfrwt>
<pdfrwt beam="2">  1       -1 0.79967814E-01 0.73545365E+03</pdfrwt>
<totfact> 0.20577934E+01</totfact>
</mgrwt>
</event>
<event>
 4    1  0.4055965E-007  0.6647513E+03  0.7818608E-02  0.1019743E+00
         -1   -1    0    0    0  501 -0.00000000000E+00  0.00000000000E+00  0.13196363006E+03  0.13196363016E+03  0.50400000000E-02 0.  1.
          1   -1    0    0  501    0  0.00000000000E+00 -0.00000000000E+00 -0.19336008981E+04  0.19336008981E+04  0.50400000000E-02 0. -1.
    8880023    1    1    2    0    0 -0.84192268293E+02 -0.31555808634E+02 -0.17627657240E+04  0.18839419607E+04  0.65864270000E+03 0. -1.
    8880022    1    1    2    0    0  0.84192268293E+02  0.31555808634E+02 -0.38871543974E+02  0.18162256755E+03  0.15294330000E+03 0.  0.
<mgrwt>
<rscale>  0 0.47779482E+03</rscale>
<asrwt>0</asrwt>
<pdfrwt beam="1">  1        1 0.29747704E+00 0.66475132E+03</pdfrwt>
<pdfrwt beam="2">  1       -1 0.20302098E-01 0.66475132E+03</pdfrwt>
<totfact> 0.68614498E+01</totfact>
</mgrwt>
</event>
<event>
 4    1  0.4055965E-007  0.8115385E+03  0.7818608E-02  0.9686381E-01
         -1   -1    0    0    0  501 -0.00000000000E+00  0.00000000000E+00  0.14970213163E+04  0.14970213163E+04  0.50400000000E-02 0.  1.
          1   -1    0    0  501    0  0.00000000000E+00 -0.00000000000E+00 -0.69107682028E+03  0.69107682030E+03  0.50400000000E-02 0. -1.
    8880023    1    1    2    0    0  0.29653500553E+03 -0.36993443436E+03 -0.38420573949E+03  0.89789128058E+03  0.65864270000E+03 0.  0.
    8880022    1    1    2    0    0 -0.29653500553E+03  0.36993443436E+03  0.11901502355E+04  0.12902068560E+04  0.15294330000E+03 0.  0.
<mgrwt>
<rscale>  0 0.71833469E+03</rscale>
<asrwt>0</asrwt>
<pdfrwt beam="1">  1        1 0.10631951E+00 0.81153848E+03</pdfrwt>
<pdfrwt beam="2">  1       -1 0.23031097E+00 0.81153848E+03</pdfrwt>
<totfact> 0.26940045E+00</totfact>
</mgrwt>
</event>
<event>
 4    1  0.4055965E-007  0.6726688E+03  0.7818608E-02  0.1013818E+00
         -1   -1    0    0    0  501 -0.00000000000E+00  0.00000000000E+00  0.26233813750E+03  0.26233813755E+03  0.50400000000E-02 0.  1.
          1   -1    0    0  501    0  0.00000000000E+00 -0.00000000000E+00 -0.13659214968E+04  0.13659214968E+04  0.50400000000E-02 0. -1.
    8880023    1    1    2    0    0 -0.50559193968E+02  0.12695247406E+03 -0.12194663919E+04  0.13926886407E+04  0.65864270000E+03 0. -1.
    8880022    1    1    2    0    0  0.50559193968E+02 -0.12695247406E+03  0.11588303263E+03  0.23557099361E+03  0.15294330000E+03 0.  0.
<mgrwt>
<rscale>  0 0.49985134E+03</rscale>
<asrwt>0</asrwt>
<pdfrwt beam="1">  1        1 0.21014176E+00 0.67266884E+03</pdfrwt>
<pdfrwt beam="2">  1       -1 0.40359714E-01 0.67266884E+03</pdfrwt>
<totfact> 0.50393076E+01</totfact>
</mgrwt>
</event>
<event>
 4    1  0.4055965E-007  0.1082215E+04  0.7818608E-02  0.9281121E-01
          1   -1    0    0  501    0  0.00000000000E+00  0.00000000000E+00  0.97504944811E+03  0.97504944812E+03  0.50400000000E-02 0. -1.
         -1   -1    0    0    0  501 -0.00000000000E+00 -0.00000000000E+00 -0.14297741376E+04  0.14297741377E+04  0.50400000000E-02 0.  1.
    8880023    1    1    2    0    0 -0.73688933748E+03 -0.44087672680E+03  0.42808539636E+03  0.11638064688E+04  0.65864270000E+03 0.  0.
    8880022    1    1    2    0    0  0.73688933748E+03  0.44087672680E+03 -0.88281008590E+03  0.12410171170E+04  0.15294330000E+03 0.  0.
<mgrwt>
<rscale>  0 0.10253962E+04</rscale>
<asrwt>0</asrwt>
<pdfrwt beam="1">  1        1 0.15000761E+00 0.10822146E+04</pdfrwt>
<pdfrwt beam="2">  1       -1 0.21996525E+00 0.10822146E+04</pdfrwt>
<totfact> 0.17343738E+00</totfact>
</mgrwt>
</event>
<event>
 4    1  0.4055965E-007  0.8883634E+03  0.7818608E-02  0.9544976E-01
          1   -1    0    0  501    0  0.00000000000E+00  0.00000000000E+00  0.20958808477E+04  0.20958808478E+04  0.50400000000E-02 0. -1.
         -1   -1    0    0    0  501 -0.00000000000E+00 -0.00000000000E+00 -0.49738271799E+03  0.49738271801E+03  0.50400000000E-02 0.  1.
    8880023    1    1    2    0    0 -0.74342265994E+02 -0.59148336439E+03  0.17472304467E+04  0.19601030032E+04  0.65864270000E+03 0.  0.
    8880022    1    1    2    0    0  0.74342265994E+02  0.59148336439E+03 -0.14873231698E+03  0.63316056257E+03  0.15294330000E+03 0.  0.
<mgrwt>
<rscale>  0 0.81047586E+03</rscale>
<asrwt>0</asrwt>
<pdfrwt beam="1">  1        1 0.32244321E+00 0.88836341E+03</pdfrwt>
<pdfrwt beam="2">  1       -1 0.76520418E-01 0.88836341E+03</pdfrwt>
<totfact> 0.45220428E+00</totfact>
</mgrwt>
</event>
<event>
 4    1  0.4055965E-007  0.7102405E+03  0.7818608E-02  0.9957109E-01
          1   -1    0    0  501    0  0.00000000000E+00  0.00000000000E+00  0.64279002711E+03  0.64279002713E+03  0.50400000000E-02 0. -1.
         -1   -1    0    0    0  501 -0.00000000000E+00 -0.00000000000E+00 -0.71074775161E+03  0.71074775163E+03  0.50400000000E-02 0.  1.
    8880023    1    1    2    0    0  0.25766910742E+03 -0.65100182836E+02  0.38398293202E+03  0.80739364691E+03  0.65864270000E+03 0. -1.
    8880022    1    1    2    0    0 -0.25766910742E+03  0.65100182836E+02 -0.45194065652E+03  0.54614413185E+03  0.15294330000E+03 0.  1.
<mgrwt>
<rscale>  0 0.57571611E+03</rscale>
<asrwt>0</asrwt>
<pdfrwt beam="1">  1        1 0.98890773E-01 0.71024053E+03</pdfrwt>
<pdfrwt beam="2">  1       -1 0.10934581E+00 0.71024053E+03</pdfrwt>
<totfact> 0.24686478E+01</totfact>
</mgrwt>
</event>
<event>
 4    1  0.4055965E-007  0.8065955E+03  0.7818608E-02  0.9696712E-01
          1   -1    0    0  501    0  0.00000000000E+00  0.00000000000E+00  0.78232752660E+03  0.78232752662E+03  0.50400000000E-02 0. -1.
         -1   -1    0    0    0  501 -0.00000000000E+00 -0.00000000000E+00 -0.86699422327E+03  0.86699422329E+03  0.50400000000E-02 0.  1.
    8880023    1    1    2    0    0 -0.46548187871E+03 -0.10619327218E+02  0.45032591081E+03  0.92379098379E+03  0.65864270000E+03 0. -1.
    8880022    1    1    2    0    0  0.46548187871E+03  0.10619327218E+02 -0.53499260748E+03  0.72553076612E+03  0.15294330000E+03 0.  1.
<mgrwt>
<rscale>  0 0.71212867E+03</rscale>
<asrwt>0</asrwt>
<pdfrwt beam="1">  1        1 0.12035808E+00 0.80659553E+03</pdfrwt>
<pdfrwt beam="2">  1       -1 0.13338373E+00 0.80659553E+03</pdfrwt>
<totfact> 0.11138482E+01</totfact>
</mgrwt>
</event>
<event>
 4    1  0.4055965E-007  0.8805489E+03  0.7818608E-02  0.9558007E-01
         -1   -1    0    0    0  501 -0.00000000000E+00  0.00000000000E+00  0.75559190995E+03  0.75559190996E+03  0.50400000000E-02 0.  1.
          1   -1    0    0  501    0  0.00000000000E+00 -0.00000000000E+00 -0.19065752267E+04  0.19065752268E+04  0.50400000000E-02 0. -1.
    8880023    1    1    2    0    0 -0.19922373272E+03  0.54942334049E+03 -0.16554876186E+04  0.18751014811E+04  0.65864270000E+03 0.  0.
    8880022    1    1    2    0    0  0.19922373272E+03 -0.54942334049E+03  0.50450430179E+03  0.78706565564E+03  0.15294330000E+03 0.  0.
<mgrwt>
<rscale>  0 0.80139003E+03</rscale>
<asrwt>0</asrwt>
<pdfrwt beam="1">  1        1 0.29331926E+00 0.88054887E+03</pdfrwt>
<pdfrwt beam="2">  1       -1 0.11624491E+00 0.88054887E+03</pdfrwt>
<totfact> 0.23712435E+00</totfact>
</mgrwt>
</event>
<event>
 4    1  0.4347815E-007  0.7730224E+03  0.7818608E-02  0.9772490E-01
         -1   -1    0    0    0  501 -0.00000000000E+00  0.00000000000E+00  0.64935912241E+03  0.64935912243E+03  0.50400000000E-02 0.  1.
          1   -1    0    0  501    0  0.00000000000E+00 -0.00000000000E+00 -0.16103950639E+04  0.16103950639E+04  0.50400000000E-02 0. -1.
    8880023    1    1    2    0    0 -0.29096213096E+03  0.28123745591E+03 -0.14276242606E+04  0.16234761175E+04  0.65864270000E+03 0. -1.
    8880022    1    1    2    0    0  0.29096213096E+03 -0.28123745591E+03  0.46658831917E+03  0.63627806882E+03  0.15294330000E+03 0.  0.
<mgrwt>
<rscale>  0 0.66860002E+03</rscale>
<asrwt>0</asrwt>
<pdfrwt beam="1">  1        1 0.24775309E+00 0.77302243E+03</pdfrwt>
<pdfrwt beam="2">  1       -1 0.99901404E-01 0.77302243E+03</pdfrwt>
<totfact> 0.54490870E+00</totfact>
</mgrwt>
</event>
<event>
 4    1  0.4055965E-007  0.7625624E+03  0.7818608E-02  0.9798518E-01
         -1   -1    0    0    0  501 -0.00000000000E+00  0.00000000000E+00  0.49069363130E+03  0.49069363133E+03  0.50400000000E-02 0.  1.
          1   -1    0    0  501    0  0.00000000000E+00 -0.00000000000E+00 -0.15796389804E+04  0.15796389804E+04  0.50400000000E-02 0. -1.
    8880023    1    1    2    0    0 -0.27469606812E+03 -0.26876260333E+03 -0.13716206763E+04  0.15693453261E+04  0.65864270000E+03 0. -1.
    8880022    1    1    2    0    0  0.27469606812E+03  0.26876260333E+03  0.28267532714E+03  0.50098728564E+03  0.15294330000E+03 0.  0.
<mgrwt>
<rscale>  0 0.65442124E+03</rscale>
<asrwt>0</asrwt>
<pdfrwt beam="1">  1        1 0.24302138E+00 0.76256244E+03</pdfrwt>
<pdfrwt beam="2">  1       -1 0.75491329E-01 0.76256244E+03</pdfrwt>
<totfact> 0.10543339E+01</totfact>
</mgrwt>
</event>
<event>
 4    1  0.4055965E-007  0.7764349E+03  0.7818608E-02  0.9764279E-01
          1   -1    0    0  501    0  0.00000000000E+00  0.00000000000E+00  0.10233761336E+04  0.10233761336E+04  0.50400000000E-02 0. -1.
         -1   -1    0    0    0  501 -0.00000000000E+00 -0.00000000000E+00 -0.54771794916E+03  0.54771794918E+03  0.50400000000E-02 0.  1.
    8880023    1    1    2    0    0  0.35750272908E+03 -0.20305845268E+03  0.72857023149E+03  0.10647373972E+04  0.65864270000E+03 0. -1.
    8880022    1    1    2    0    0 -0.35750272908E+03  0.20305845268E+03 -0.25291204704E+03  0.50635668560E+03  0.15294330000E+03 0.  0.
<mgrwt>
<rscale>  0 0.67315273E+03</rscale>
<asrwt>0</asrwt>
<pdfrwt beam="1">  1        1 0.15744248E+00 0.77643489E+03</pdfrwt>
<pdfrwt beam="2">  1       -1 0.84264300E-01 0.77643489E+03</pdfrwt>
<totfact> 0.20768265E+01</totfact>
</mgrwt>
</event>
<event>
 4    1  0.4055965E-007  0.6967936E+03  0.7818608E-02  0.1001077E+00
          1   -1    0    0  501    0  0.00000000000E+00  0.00000000000E+00  0.10610383689E+04  0.10610383689E+04  0.50400000000E-02 0. -1.
         -1   -1    0    0    0  501 -0.00000000000E+00 -0.00000000000E+00 -0.46313449966E+03  0.46313449969E+03  0.50400000000E-02 0.  1.
    8880023    1    1    2    0    0 -0.22113134026E+03  0.53029345451E+02  0.88558939830E+03  0.11268495773E+04  0.65864270000E+03 0. -1.
    8880022    1    1    2    0    0  0.22113134026E+03 -0.53029345451E+02 -0.28768552911E+03  0.39732329129E+03  0.15294330000E+03 0.  0.
<mgrwt>
<rscale>  0 0.55180442E+03</rscale>
<asrwt>0</asrwt>
<pdfrwt beam="1">  1        1 0.16323667E+00 0.69679365E+03</pdfrwt>
<pdfrwt beam="2">  1       -1 0.71251462E-01 0.69679365E+03</pdfrwt>
<totfact> 0.27929625E+01</totfact>
</mgrwt>
</event>
<event>
 4    1  0.4055965E-007  0.7978812E+03  0.7818608E-02  0.9715396E-01
         -1   -1    0    0    0  501 -0.00000000000E+00  0.00000000000E+00  0.89665132427E+03  0.89665132429E+03  0.50400000000E-02 0.  1.
          1   -1    0    0  501    0  0.00000000000E+00 -0.00000000000E+00 -0.70014978774E+03  0.70014978776E+03  0.50400000000E-02 0. -1.
    8880023    1    1    2    0    0 -0.24019997140E+03  0.38093067001E+03 -0.35091403040E+03  0.87163929731E+03  0.65864270000E+03 0. -1.
    8880022    1    1    2    0    0  0.24019997140E+03 -0.38093067001E+03  0.54741556693E+03  0.72516181474E+03  0.15294330000E+03 0.  0.
<mgrwt>
<rscale>  0 0.70107463E+03</rscale>
<asrwt>0</asrwt>
<pdfrwt beam="1">  1        1 0.10771535E+00 0.79788120E+03</pdfrwt>
<pdfrwt beam="2">  1       -1 0.13794636E+00 0.79788120E+03</pdfrwt>
<totfact> 0.12144996E+01</totfact>
</mgrwt>
</event>
<event>
 4    1  0.4055965E-007  0.6885825E+03  0.7818608E-02  0.1004834E+00
         -1   -1    0    0    0  501 -0.00000000000E+00  0.00000000000E+00  0.99320020912E+03  0.99320020914E+03  0.50400000000E-02 0.  1.
          1   -1    0    0  501    0  0.00000000000E+00 -0.00000000000E+00 -0.38512215596E+03  0.38512215599E+03  0.50400000000E-02 0. -1.
    8880023    1    1    2    0    0  0.11364226389E+03 -0.16559332605E+03 -0.32957718802E+02  0.68937082276E+03  0.65864270000E+03 0.  0.
    8880022    1    1    2    0    0 -0.11364226389E+03  0.16559332605E+03  0.64103577197E+03  0.68895154237E+03  0.15294330000E+03 0.  1.
<mgrwt>
<rscale>  0 0.53580622E+03</rscale>
<asrwt>0</asrwt>
<pdfrwt beam="1">  1        1 0.59249563E-01 0.68858254E+03</pdfrwt>
<pdfrwt beam="2">  1       -1 0.15280003E+00 0.68858254E+03</pdfrwt>
<totfact> 0.21611738E+01</totfact>
</mgrwt>
</event>
<event>
 4    1  0.4055965E-007  0.7695480E+03  0.7818608E-02  0.9780988E-01
          1   -1    0    0  501    0  0.00000000000E+00  0.00000000000E+00  0.71324651828E+03  0.71324651830E+03  0.50400000000E-02 0. -1.
         -1   -1    0    0    0  501 -0.00000000000E+00 -0.00000000000E+00 -0.56944229265E+03  0.56944229267E+03  0.50400000000E-02 0.  1.
    8880023    1    1    2    0    0 -0.39772042311E+03 -0.14570768688E+02  0.30373051661E+03  0.82731872652E+03  0.65864270000E+03 0.  0.
    8880022    1    1    2    0    0  0.39772042311E+03  0.14570768688E+02 -0.15992629098E+03  0.45537008446E+03  0.15294330000E+03 0.  0.
<mgrwt>
<rscale>  0 0.66392904E+03</rscale>
<asrwt>0</asrwt>
<pdfrwt beam="1">  1        1 0.10973023E+00 0.76954795E+03</pdfrwt>
<pdfrwt beam="2">  1       -1 0.87606507E-01 0.76954795E+03</pdfrwt>
<totfact> 0.34691161E+01</totfact>
</mgrwt>
</event>
<event>
 4    1  0.4055965E-007  0.7929862E+03  0.7818608E-02  0.9726172E-01
         -1   -1    0    0    0  501 -0.00000000000E+00  0.00000000000E+00  0.68694645667E+03  0.68694645669E+03  0.50400000000E-02 0.  1.
          1   -1    0    0  501    0  0.00000000000E+00 -0.00000000000E+00 -0.10009922353E+04  0.10009922353E+04  0.50400000000E-02 0. -1.
    8880023    1    1    2    0    0  0.39015247654E+03  0.20687648728E+03  0.35744655104E+03  0.86982474042E+03  0.65864270000E+03 0.  0.
    8880022    1    1    2    0    0 -0.39015247654E+03 -0.20687648728E+03 -0.67149232965E+03  0.81811395156E+03  0.15294330000E+03 0.  0.
<mgrwt>
<rscale>  0 0.69479693E+03</rscale>
<asrwt>0</asrwt>
<pdfrwt beam="1">  1        1 0.15399880E+00 0.79298616E+03</pdfrwt>
<pdfrwt beam="2">  1       -1 0.10568407E+00 0.79298616E+03</pdfrwt>
<totfact> 0.12990189E+01</totfact>
</mgrwt>
</event>
<event>
 4    1  0.4055965E-007  0.6632529E+03  0.7818608E-02  0.1021046E+00
         -1   -1    0    0    0  501 -0.00000000000E+00  0.00000000000E+00  0.77537885467E+03  0.77537885469E+03  0.50400000000E-02 0.  1.
          1   -1    0    0  501    0  0.00000000000E+00 -0.00000000000E+00 -0.10773471334E+04  0.10773471334E+04  0.50400000000E-02 0. -1.
    8880023    1    1    2    0    0  0.58178791633E+02 -0.52052802335E+02 -0.96325156767E+03  0.11695118875E+04  0.65864270000E+03 0. -1.
    8880022    1    1    2    0    0 -0.58178791633E+02  0.52052802335E+02  0.66128328896E+03  0.68321410063E+03  0.15294330000E+03 0.  0.
<mgrwt>
<rscale>  0 0.47310902E+03</rscale>
<asrwt>0</asrwt>
<pdfrwt beam="1">  1        1 0.16574571E+00 0.66325295E+03</pdfrwt>
<pdfrwt beam="2">  1       -1 0.11928905E+00 0.66325295E+03</pdfrwt>
<totfact> 0.86824965E+00</totfact>
</mgrwt>
</event>
<event>
 4    1  0.4055965E-007  0.6587828E+03  0.7818608E-02  0.1025440E+00
          1   -1    0    0  501    0  0.00000000000E+00  0.00000000000E+00  0.26403107683E+04  0.26403107683E+04  0.50400000000E-02 0. -1.
         -1   -1    0    0    0  501 -0.00000000000E+00 -0.00000000000E+00 -0.12885147413E+03  0.12885147423E+03  0.50400000000E-02 0.  1.
    8880023    1    1    2    0    0 -0.50909646053E+01  0.12595220524E+02  0.25301270748E+04  0.26144861404E+04  0.65864270000E+03 0. -1.
    8880022    1    1    2    0    0  0.50909646053E+01 -0.12595220524E+02 -0.18667780690E+02  0.15467610207E+03  0.15294330000E+03 0.  0.
<mgrwt>
<rscale>  0 0.45773691E+03</rscale>
<asrwt>0</asrwt>
<pdfrwt beam="1">  1        1 0.40620159E+00 0.65878279E+03</pdfrwt>
<pdfrwt beam="2">  1       -1 0.19823307E-01 0.65878279E+03</pdfrwt>
<totfact> 0.23876749E+01</totfact>
</mgrwt>
</event>
<event>
 4    1  0.4055965E-007  0.1041047E+04  0.7818608E-02  0.9329722E-01
          1   -1    0    0  501    0  0.00000000000E+00  0.00000000000E+00  0.20880673473E+04  0.20880673473E+04  0.50400000000E-02 0. -1.
         -1   -1    0    0    0  501 -0.00000000000E+00 -0.00000000000E+00 -0.66043502536E+03  0.66043502538E+03  0.50400000000E-02 0.  1.
    8880023    1    1    2    0    0 -0.47491377511E+03  0.65147961267E+03  0.16010919824E+04  0.19097838940E+04  0.65864270000E+03 0.  0.
    8880022    1    1    2    0    0  0.47491377511E+03 -0.65147961267E+03 -0.17345966051E+03  0.83871847861E+03  0.15294330000E+03 0.  0.
<mgrwt>
<rscale>  0 0.98092030E+03</rscale>
<asrwt>0</asrwt>
<pdfrwt beam="1">  1        1 0.32124112E+00 0.10410471E+04</pdfrwt>
<pdfrwt beam="2">  1       -1 0.10160539E+00 0.10410471E+04</pdfrwt>
<totfact> 0.24012540E+00</totfact>
</mgrwt>
</event>
<event>
 4    1  0.4055965E-007  0.6757133E+03  0.7818608E-02  0.1011860E+00
         -1   -1    0    0    0  501 -0.00000000000E+00  0.00000000000E+00  0.23144184818E+03  0.23144184824E+03  0.50400000000E-02 0.  1.
          1   -1    0    0  501    0  0.00000000000E+00 -0.00000000000E+00 -0.20136358605E+04  0.20136358605E+04  0.50400000000E-02 0. -1.
    8880023    1    1    2    0    0 -0.12897169793E+03  0.78386994792E+02 -0.18882111137E+04  0.20054749154E+04  0.65864270000E+03 0. -1.
    8880022    1    1    2    0    0  0.12897169793E+03 -0.78386994792E+02  0.10601710138E+03  0.23960279343E+03  0.15294330000E+03 0.  0.
<mgrwt>
<rscale>  0 0.50741894E+03</rscale>
<asrwt>0</asrwt>
<pdfrwt beam="1">  1        1 0.30979012E+00 0.67571327E+03</pdfrwt>
<pdfrwt beam="2">  1       -1 0.35606439E-01 0.67571327E+03</pdfrwt>
<totfact> 0.23071663E+01</totfact>
</mgrwt>
</event>
<event>
 4    1  0.4055965E-007  0.7500576E+03  0.7818608E-02  0.9831563E-01
          1   -1    0    0  501    0  0.00000000000E+00  0.00000000000E+00  0.54968656542E+03  0.54968656545E+03  0.50400000000E-02 0. -1.
         -1   -1    0    0    0  501 -0.00000000000E+00 -0.00000000000E+00 -0.73480854004E+03  0.73480854006E+03  0.50400000000E-02 0.  1.
    8880023    1    1    2    0    0 -0.10878481878E+03 -0.34196783450E+03  0.15621551605E+03  0.76615248505E+03  0.65864270000E+03 0.  0.
    8880022    1    1    2    0    0  0.10878481878E+03  0.34196783450E+03 -0.34133749067E+03  0.51834262045E+03  0.15294330000E+03 0.  0.
<mgrwt>
<rscale>  0 0.63695872E+03</rscale>
<asrwt>0</asrwt>
<pdfrwt beam="1">  1        1 0.84567164E-01 0.75005756E+03</pdfrwt>
<pdfrwt beam="2">  1       -1 0.11304747E+00 0.75005756E+03</pdfrwt>
<totfact> 0.28440201E+01</totfact>
</mgrwt>
</event>
<event>
 4    1  0.4055965E-007  0.6782543E+03  0.7818608E-02  0.1010329E+00
          1   -1    0    0  501    0  0.00000000000E+00  0.00000000000E+00  0.79899651556E+03  0.79899651557E+03  0.50400000000E-02 0. -1.
         -1   -1    0    0    0  501 -0.00000000000E+00 -0.00000000000E+00 -0.36339511810E+03  0.36339511814E+03  0.50400000000E-02 0.  1.
    8880023    1    1    2    0    0  0.14492190641E+03  0.72224568640E+02  0.58376426673E+03  0.89487969730E+03  0.65864270000E+03 0. -1.
    8880022    1    1    2    0    0 -0.14492190641E+03 -0.72224568640E+02 -0.14816286928E+03  0.26751193641E+03  0.15294330000E+03 0.  0.
<mgrwt>
<rscale>  0 0.51344157E+03</rscale>
<asrwt>0</asrwt>
<pdfrwt beam="1">  1        1 0.12292254E+00 0.67825434E+03</pdfrwt>
<pdfrwt beam="2">  1       -1 0.55906941E-01 0.67825434E+03</pdfrwt>
<totfact> 0.73636452E+01</totfact>
</mgrwt>
</event>
<event>
 4    1  0.4055965E-007  0.1024004E+04  0.7818608E-02  0.9350806E-01
         -1   -1    0    0    0  501 -0.00000000000E+00  0.00000000000E+00  0.20219775652E+04  0.20219775652E+04  0.50400000000E-02 0.  1.
          1   -1    0    0  501    0  0.00000000000E+00 -0.00000000000E+00 -0.42223842403E+03  0.42223842406E+03  0.50400000000E-02 0. -1.
    8880023    1    1    2    0    0 -0.14871465872E+03  0.76984252028E+03  0.10953321169E+04  0.14994453002E+04  0.65864270000E+03 0.  0.
    8880022    1    1    2    0    0  0.14871465872E+03 -0.76984252028E+03  0.50440702431E+03  0.94477068908E+03  0.15294330000E+03 0.  0.
<mgrwt>
<rscale>  0 0.96237163E+03</rscale>
<asrwt>0</asrwt>
<pdfrwt beam="1">  1        1 0.64959758E-01 0.10240038E+04</pdfrwt>
<pdfrwt beam="2">  1       -1 0.31107347E+00 0.10240038E+04</pdfrwt>
<totfact> 0.15817094E+00</totfact>
</mgrwt>
</event>
<event>
 4    1  0.4055965E-007  0.1599357E+04  0.7818608E-02  0.8842486E-01
          1   -1    0    0  501    0  0.00000000000E+00  0.00000000000E+00  0.13872104807E+04  0.13872104807E+04  0.50400000000E-02 0. -1.
         -1   -1    0    0    0  501 -0.00000000000E+00 -0.00000000000E+00 -0.18064951958E+04  0.18064951959E+04  0.50400000000E-02 0.  1.
    8880023    1    1    2    0    0 -0.13405228630E+04 -0.57195457772E+03  0.18204528129E+03  0.16096845268E+04  0.65864270000E+03 0.  0.
    8880022    1    1    2    0    0  0.13405228630E+04  0.57195457772E+03 -0.60132999644E+03  0.15840211497E+04  0.15294330000E+03 0.  0.
<mgrwt>
<rscale>  0 0.15647732E+04</rscale>
<asrwt>0</asrwt>
<pdfrwt beam="1">  1        1 0.21341700E+00 0.15993573E+04</pdfrwt>
<pdfrwt beam="2">  1       -1 0.27792234E+00 0.15993573E+04</pdfrwt>
<totfact> 0.33724283E-01</totfact>
</mgrwt>
</event>
<event>
 4    1  0.4055965E-007  0.6720578E+03  0.7818608E-02  0.1014229E+00
          1   -1    0    0  501    0  0.00000000000E+00  0.00000000000E+00  0.20557831897E+04  0.20557831897E+04  0.50400000000E-02 0. -1.
         -1   -1    0    0    0  501 -0.00000000000E+00 -0.00000000000E+00 -0.18059552608E+03  0.18059552615E+03  0.50400000000E-02 0.  1.
    8880023    1    1    2    0    0  0.36468482348E+01  0.13355956626E+03  0.19149340406E+04  0.20294418058E+04  0.65864270000E+03 0. -1.
    8880022    1    1    2    0    0 -0.36468482348E+01 -0.13355956626E+03 -0.39746376935E+02  0.20693691004E+03  0.15294330000E+03 0.  0.
<mgrwt>
<rscale>  0 0.49828050E+03</rscale>
<asrwt>0</asrwt>
<pdfrwt beam="1">  1        1 0.31627437E+00 0.67205778E+03</pdfrwt>
<pdfrwt beam="2">  1       -1 0.27783924E-01 0.67205778E+03</pdfrwt>
<totfact> 0.33413853E+01</totfact>
</mgrwt>
</event>
<event>
 4    1  0.4055965E-007  0.7413684E+03  0.7818608E-02  0.9855979E-01
          1   -1    0    0  501    0  0.00000000000E+00  0.00000000000E+00  0.18813528921E+04  0.18813528921E+04  0.50400000000E-02 0. -1.
         -1   -1    0    0    0  501 -0.00000000000E+00 -0.00000000000E+00 -0.17778351919E+03  0.17778351926E+03  0.50400000000E-02 0.  1.
    8880023    1    1    2    0    0  0.18386366599E+03 -0.28637562796E+03  0.85186072067E+03  0.11292890426E+04  0.65864270000E+03 0.  1.
    8880022    1    1    2    0    0 -0.18386366599E+03  0.28637562796E+03  0.85170865227E+03  0.92984736884E+03  0.15294330000E+03 0. -1.
<mgrwt>
<rscale>  0 0.62443000E+03</rscale>
<asrwt>0</asrwt>
<pdfrwt beam="1">  1        1 0.28943889E+00 0.74136837E+03</pdfrwt>
<pdfrwt beam="2">  1       -1 0.27351312E-01 0.74136837E+03</pdfrwt>
<totfact> 0.44476543E+01</totfact>
</mgrwt>
</event>
<event>
 4    1  0.4055965E-007  0.1015738E+04  0.7818608E-02  0.9361251E-01
          1   -1    0    0  501    0  0.00000000000E+00  0.00000000000E+00  0.10447617319E+04  0.10447617320E+04  0.50400000000E-02 0. -1.
         -1   -1    0    0    0  501 -0.00000000000E+00 -0.00000000000E+00 -0.11601768871E+04  0.11601768871E+04  0.50400000000E-02 0.  1.
    8880023    1    1    2    0    0  0.51191018293E+03  0.57953632759E+03  0.56618550902E+03  0.11628803151E+04  0.65864270000E+03 0.  0.
    8880022    1    1    2    0    0 -0.51191018293E+03 -0.57953632759E+03 -0.68160066414E+03  0.10420583039E+04  0.15294330000E+03 0.  0.
<mgrwt>
<rscale>  0 0.95334395E+03</rscale>
<asrwt>0</asrwt>
<pdfrwt beam="1">  1        1 0.16073257E+00 0.10157384E+04</pdfrwt>
<pdfrwt beam="2">  1       -1 0.17848875E+00 0.10157384E+04</pdfrwt>
<totfact> 0.29850913E+00</totfact>
</mgrwt>
</event>
<event>
 4    1  0.4055965E-007  0.9343060E+03  0.7818608E-02  0.9473063E-01
         -1   -1    0    0    0  501 -0.00000000000E+00  0.00000000000E+00  0.50909156443E+03  0.50909156445E+03  0.50400000000E-02 0.  1.
          1   -1    0    0  501    0  0.00000000000E+00 -0.00000000000E+00 -0.20113605170E+04  0.20113605170E+04  0.50400000000E-02 0. -1.
    8880023    1    1    2    0    0 -0.65840439961E+03 -0.74973854714E+02 -0.15803809109E+04  0.18359007223E+04  0.65864270000E+03 0. -1.
    8880022    1    1    2    0    0  0.65840439961E+03  0.74973854714E+02  0.78111958306E+02  0.68455135919E+03  0.15294330000E+03 0.  0.
<mgrwt>
<rscale>  0 0.86299221E+03</rscale>
<asrwt>0</asrwt>
<pdfrwt beam="1">  1        1 0.30944008E+00 0.93430597E+03</pdfrwt>
<pdfrwt beam="2">  1       -1 0.78321780E-01 0.93430597E+03</pdfrwt>
<totfact> 0.48749828E+00</totfact>
</mgrwt>
</event>
<event>
 4    1  0.4055965E-007  0.8188012E+03  0.7818608E-02  0.9671528E-01
         -1   -1    0    0    0  501 -0.00000000000E+00  0.00000000000E+00  0.15181937409E+04  0.15181937409E+04  0.50400000000E-02 0.  1.
          1   -1    0    0  501    0  0.00000000000E+00 -0.00000000000E+00 -0.43005988904E+03  0.43005988907E+03  0.50400000000E-02 0. -1.
    8880023    1    1    2    0    0 -0.10494004158E+03  0.47498709597E+03  0.11738216462E+04  0.14311857381E+04  0.65864270000E+03 0.  0.
    8880022    1    1    2    0    0  0.10494004158E+03 -0.47498709597E+03 -0.85687794345E+02  0.51706789184E+03  0.15294330000E+03 0.  0.
<mgrwt>
<rscale>  0 0.72737609E+03</rscale>
<asrwt>0</asrwt>
<pdfrwt beam="1">  1        1 0.66163060E-01 0.81880117E+03</pdfrwt>
<pdfrwt beam="2">  1       -1 0.23356827E+00 0.81880117E+03</pdfrwt>
<totfact> 0.50055024E+00</totfact>
</mgrwt>
</event>
<event>
 4    1  0.4055965E-007  0.1313588E+04  0.7818608E-02  0.9053914E-01
         -1   -1    0    0    0  501 -0.00000000000E+00  0.00000000000E+00  0.14879319229E+04  0.14879319229E+04  0.50400000000E-02 0.  1.
          1   -1    0    0  501    0  0.00000000000E+00 -0.00000000000E+00 -0.17854533126E+04  0.17854533126E+04  0.50400000000E-02 0. -1.
    8880023    1    1    2    0    0 -0.32643209363E+03 -0.10886438927E+04 -0.12267887702E+04  0.17973659421E+04  0.65864270000E+03 0.  0.
    8880022    1    1    2    0    0  0.32643209363E+03  0.10886438927E+04  0.92926738048E+03  0.14760192934E+04  0.15294330000E+03 0.  0.
<mgrwt>
<rscale>  0 0.12697378E+04</rscale>
<asrwt>0</asrwt>
<pdfrwt beam="1">  1        1 0.27468513E+00 0.13135881E+04</pdfrwt>
<pdfrwt beam="2">  1       -1 0.22891260E+00 0.13135881E+04</pdfrwt>
<totfact> 0.38643231E-01</totfact>
</mgrwt>
</event>
<event>
 4    1  0.4055965E-007  0.6664401E+03  0.7818608E-02  0.1018355E+00
          1   -1    0    0  501    0  0.00000000000E+00  0.00000000000E+00  0.21939794356E+04  0.21939794356E+04  0.50400000000E-02 0. -1.
         -1   -1    0    0    0  501 -0.00000000000E+00 -0.00000000000E+00 -0.37401233402E+03  0.37401233406E+03  0.50400000000E-02 0.  1.
    8880023    1    1    2    0    0 -0.10141641746E+03 -0.68486415820E+01  0.21166417035E+04  0.22190796517E+04  0.65864270000E+03 0. -1.
    8880022    1    1    2    0    0  0.10141641746E+03  0.68486415820E+01 -0.29667460189E+03  0.34891211793E+03  0.15294330000E+03 0.  0.
<mgrwt>
<rscale>  0 0.48285082E+03</rscale>
<asrwt>0</asrwt>
<pdfrwt beam="1">  1        1 0.33753530E+00 0.66644009E+03</pdfrwt>
<pdfrwt beam="2">  1       -1 0.57540359E-01 0.66644009E+03</pdfrwt>
<totfact> 0.71790056E+00</totfact>
</mgrwt>
</event>
<event>
 4    1  0.4055965E-007  0.6718702E+03  0.7818608E-02  0.1014356E+00
         -1   -1    0    0    0  501 -0.00000000000E+00  0.00000000000E+00  0.66545133731E+03  0.66545133732E+03  0.50400000000E-02 0.  1.
          1   -1    0    0  501    0  0.00000000000E+00 -0.00000000000E+00 -0.12589307421E+04  0.12589307421E+04  0.50400000000E-02 0. -1.
    8880023    1    1    2    0    0 -0.96707576218E+02 -0.90813081870E+02 -0.11501639228E+04  0.13320235083E+04  0.65864270000E+03 0. -1.
    8880022    1    1    2    0    0  0.96707576218E+02  0.90813081870E+02  0.55668451802E+03  0.59235857110E+03  0.15294330000E+03 0.  0.
<mgrwt>
<rscale>  0 0.49779455E+03</rscale>
<asrwt>0</asrwt>
<pdfrwt beam="1">  1        1 0.19368165E+00 0.67187021E+03</pdfrwt>
<pdfrwt beam="2">  1       -1 0.10237713E+00 0.67187021E+03</pdfrwt>
<totfact> 0.91655009E+00</totfact>
</mgrwt>
</event>
<event>
 4    1  0.4055965E-007  0.1143407E+04  0.7818608E-02  0.9214200E-01
          1   -1    0    0  501    0  0.00000000000E+00  0.00000000000E+00  0.29406829591E+04  0.29406829591E+04  0.50400000000E-02 0. -1.
         -1   -1    0    0    0  501 -0.00000000000E+00 -0.00000000000E+00 -0.42575927528E+03  0.42575927531E+03  0.50400000000E-02 0.  1.
    8880023    1    1    2    0    0  0.38802002874E+03 -0.85030041687E+03  0.19589527958E+04  0.22682320437E+04  0.65864270000E+03 0.  0.
    8880022    1    1    2    0    0 -0.38802002874E+03  0.85030041687E+03  0.55597088802E+03  0.10982101907E+04  0.15294330000E+03 0.  0.
<mgrwt>
<rscale>  0 0.10908060E+04</rscale>
<asrwt>0</asrwt>
<pdfrwt beam="1">  1        1 0.45241278E+00 0.11434074E+04</pdfrwt>
<pdfrwt beam="2">  1       -1 0.65501425E-01 0.11434074E+04</pdfrwt>
<totfact> 0.15691571E+00</totfact>
</mgrwt>
</event>
<event>
 4    1  0.4748947E-007  0.6677576E+03  0.7818608E-02  0.1017324E+00
          1   -1    0    0  501    0  0.00000000000E+00  0.00000000000E+00  0.26018447668E+04  0.26018447668E+04  0.50400000000E-02 0. -1.
         -1   -1    0    0    0  501 -0.00000000000E+00 -0.00000000000E+00 -0.37983733041E+03  0.37983733044E+03  0.50400000000E-02 0.  1.
    8880023    1    1    2    0    0 -0.92032477605E+02  0.60166655389E+02  0.25322051255E+04  0.26187712781E+04  0.65864270000E+03 0. -1.
    8880022    1    1    2    0    0  0.92032477605E+02 -0.60166655389E+02 -0.31019768905E+03  0.36291081916E+03  0.15294330000E+03 0.  0.
<mgrwt>
<rscale>  0 0.48664763E+03</rscale>
<asrwt>0</asrwt>
<pdfrwt beam="1">  1        1 0.40028382E+00 0.66775760E+03</pdfrwt>
<pdfrwt beam="2">  1       -1 0.58436510E-01 0.66775760E+03</pdfrwt>
<totfact> 0.36886474E+00</totfact>
</mgrwt>
</event>
<event>
 4    1  0.4055965E-007  0.1059708E+04  0.7818608E-02  0.9307301E-01
         -1   -1    0    0    0  501 -0.00000000000E+00  0.00000000000E+00  0.14767844254E+04  0.14767844254E+04  0.50400000000E-02 0.  1.
          1   -1    0    0  501    0  0.00000000000E+00 -0.00000000000E+00 -0.12141945508E+04  0.12141945508E+04  0.50400000000E-02 0. -1.
    8880023    1    1    2    0    0  0.59872248556E+03  0.57506671336E+03 -0.80441807331E+03  0.13304393945E+04  0.65864270000E+03 0.  0.
    8880022    1    1    2    0    0 -0.59872248556E+03 -0.57506671336E+03  0.10670079479E+04  0.13605395817E+04  0.15294330000E+03 0.  0.
<mgrwt>
<rscale>  0 0.10011345E+04</rscale>
<asrwt>0</asrwt>
<pdfrwt beam="1">  1        1 0.18679916E+00 0.10597078E+04</pdfrwt>
<pdfrwt beam="2">  1       -1 0.22719760E+00 0.10597078E+04</pdfrwt>
<totfact> 0.10263495E+00</totfact>
</mgrwt>
</event>
<event>
 4    1  0.4055965E-007  0.6753183E+03  0.7818608E-02  0.1012106E+00
         -1   -1    0    0    0  501 -0.00000000000E+00  0.00000000000E+00  0.64861540803E+03  0.64861540805E+03  0.50400000000E-02 0.  1.
          1   -1    0    0  501    0  0.00000000000E+00 -0.00000000000E+00 -0.52303886276E+03  0.52303886278E+03  0.50400000000E-02 0. -1.
    8880023    1    1    2    0    0 -0.18148861264E+02 -0.14803767028E+03 -0.26582178427E+03  0.72575199637E+03  0.65864270000E+03 0. -1.
    8880022    1    1    2    0    0  0.18148861264E+02  0.14803767028E+03  0.39139832954E+03  0.44590227446E+03  0.15294330000E+03 0.  0.
<mgrwt>
<rscale>  0 0.50645986E+03</rscale>
<asrwt>0</asrwt>
<pdfrwt beam="1">  1        1 0.80467518E-01 0.67531825E+03</pdfrwt>
<pdfrwt beam="2">  1       -1 0.99786985E-01 0.67531825E+03</pdfrwt>
<totfact> 0.41058146E+01</totfact>
</mgrwt>
</event>
<event>
 4    1  0.4055965E-007  0.6741908E+03  0.7818608E-02  0.1012821E+00
         -1   -1    0    0    0  501 -0.00000000000E+00  0.00000000000E+00  0.37359776296E+03  0.37359776300E+03  0.50400000000E-02 0.  1.
          1   -1    0    0  501    0  0.00000000000E+00 -0.00000000000E+00 -0.21540445098E+04  0.21540445098E+04  0.50400000000E-02 0. -1.
    8880023    1    1    2    0    0 -0.13301468816E+03 -0.55046652213E+02 -0.20659671701E+04  0.21731897284E+04  0.65864270000E+03 0. -1.
    8880022    1    1    2    0    0  0.13301468816E+03  0.55046652213E+02  0.28552042324E+03  0.35445254448E+03  0.15294330000E+03 0.  0.
<mgrwt>
<rscale>  0 0.50368617E+03</rscale>
<asrwt>0</asrwt>
<pdfrwt beam="1">  1        1 0.33139145E+00 0.67419081E+03</pdfrwt>
<pdfrwt beam="2">  1       -1 0.57476580E-01 0.67419081E+03</pdfrwt>
<totfact> 0.76397088E+00</totfact>
</mgrwt>
</event>
<event>
 4    1  0.4055965E-007  0.6641233E+03  0.7818608E-02  0.1020281E+00
          1   -1    0    0  501    0  0.00000000000E+00  0.00000000000E+00  0.34670199684E+04  0.34670199684E+04  0.50400000000E-02 0. -1.
         -1   -1    0    0    0  501 -0.00000000000E+00 -0.00000000000E+00 -0.33589210667E+03  0.33589210671E+03  0.50400000000E-02 0.  1.
    8880023    1    1    2    0    0 -0.84877747532E+02 -0.67310302353E+01  0.34097727042E+04  0.34738465193E+04  0.65864270000E+03 0. -1.
    8880022    1    1    2    0    0  0.84877747532E+02  0.67310302353E+01 -0.27864484248E+03  0.32906555585E+03  0.15294330000E+03 0.  0.
<mgrwt>
<rscale>  0 0.47585511E+03</rscale>
<asrwt>0</asrwt>
<pdfrwt beam="1">  1        1 0.53338766E+00 0.66412329E+03</pdfrwt>
<pdfrwt beam="2">  1       -1 0.51675711E-01 0.66412329E+03</pdfrwt>
<totfact> 0.11124586E+00</totfact>
</mgrwt>
</event>
<event>
 4    1  0.4055965E-007  0.7050519E+03  0.7818608E-02  0.9976856E-01
          1   -1    0    0  501    0  0.00000000000E+00  0.00000000000E+00  0.10531836597E+04  0.10531836597E+04  0.50400000000E-02 0. -1.
         -1   -1    0    0    0  501 -0.00000000000E+00 -0.00000000000E+00 -0.74764261002E+03  0.74764261003E+03  0.50400000000E-02 0.  1.
    8880023    1    1    2    0    0 -0.17768828374E+03 -0.17808682511E+03  0.89653510559E+03  0.11405583919E+04  0.65864270000E+03 0. -1.
    8880022    1    1    2    0    0  0.17768828374E+03  0.17808682511E+03 -0.59099405589E+03  0.66026787789E+03  0.15294330000E+03 0.  0.
<mgrwt>
<rscale>  0 0.56676825E+03</rscale>
<asrwt>0</asrwt>
<pdfrwt beam="1">  1        1 0.16202825E+00 0.70505195E+03</pdfrwt>
<pdfrwt beam="2">  1       -1 0.11502194E+00 0.70505195E+03</pdfrwt>
<totfact> 0.98187688E+00</totfact>
</mgrwt>
</event>
<event>
 4    1  0.4055965E-007  0.9263177E+03  0.7818608E-02  0.9485039E-01
         -1   -1    0    0    0  501 -0.00000000000E+00  0.00000000000E+00  0.75052653595E+03  0.75052653597E+03  0.50400000000E-02 0.  1.
          1   -1    0    0  501    0  0.00000000000E+00 -0.00000000000E+00 -0.18085293854E+04  0.18085293854E+04  0.50400000000E-02 0. -1.
    8880023    1    1    2    0    0  0.44821401634E+02  0.64980410615E+03 -0.14958626616E+04  0.17594515177E+04  0.65864270000E+03 0.  0.
    8880022    1    1    2    0    0 -0.44821401634E+02 -0.64980410615E+03  0.43785981211E+03  0.79960440375E+03  0.15294330000E+03 0.  0.
<mgrwt>
<rscale>  0 0.85395861E+03</rscale>
<asrwt>0</asrwt>
<pdfrwt beam="1">  1        1 0.27823529E+00 0.92631773E+03</pdfrwt>
<pdfrwt beam="2">  1       -1 0.11546562E+00 0.92631773E+03</pdfrwt>
<totfact> 0.27853158E+00</totfact>
</mgrwt>
</event>
<event>
 4    1  0.4055965E-007  0.9776922E+03  0.7818608E-02  0.9411343E-01
         -1   -1    0    0    0  501 -0.00000000000E+00  0.00000000000E+00  0.43283831140E+03  0.43283831143E+03  0.50400000000E-02 0.  1.
          1   -1    0    0  501    0  0.00000000000E+00 -0.00000000000E+00 -0.18379800413E+04  0.18379800413E+04  0.50400000000E-02 0. -1.
    8880023    1    1    2    0    0  0.16363831373E+03 -0.70377152374E+03 -0.11000434366E+04  0.14717260696E+04  0.65864270000E+03 0. -1.
    8880022    1    1    2    0    0 -0.16363831373E+03  0.70377152374E+03 -0.30509829331E+03  0.79909228312E+03  0.15294330000E+03 0.  1.
<mgrwt>
<rscale>  0 0.91148039E+03</rscale>
<asrwt>0</asrwt>
<pdfrwt beam="1">  1        1 0.28276616E+00 0.97769221E+03</pdfrwt>
<pdfrwt beam="2">  1       -1 0.66590511E-01 0.97769221E+03</pdfrwt>
<totfact> 0.88773656E+00</totfact>
</mgrwt>
</event>
<event>
 4    1  0.4055965E-007  0.8259002E+03  0.7818608E-02  0.9657363E-01
         -1   -1    0    0    0  501 -0.00000000000E+00  0.00000000000E+00  0.13675815416E+04  0.13675815416E+04  0.50400000000E-02 0.  1.
          1   -1    0    0  501    0  0.00000000000E+00 -0.00000000000E+00 -0.52354524366E+03  0.52354524368E+03  0.50400000000E-02 0. -1.
    8880023    1    1    2    0    0  0.73531361916E+02 -0.49284285752E+03 -0.80463358715E+02  0.82981052160E+03  0.65864270000E+03 0.  1.
    8880022    1    1    2    0    0 -0.73531361916E+02  0.49284285752E+03  0.92449965662E+03  0.10613162637E+04  0.15294330000E+03 0.  1.
<mgrwt>
<rscale>  0 0.73613151E+03</rscale>
<asrwt>0</asrwt>
<pdfrwt beam="1">  1        1 0.80545422E-01 0.82590021E+03</pdfrwt>
<pdfrwt beam="2">  1       -1 0.21039716E+00 0.82590021E+03</pdfrwt>
<totfact> 0.54472409E+00</totfact>
</mgrwt>
</event>
<event>
 4    1  0.4055965E-007  0.8325270E+03  0.7818608E-02  0.9644435E-01
         -1   -1    0    0    0  501 -0.00000000000E+00  0.00000000000E+00  0.31889819988E+03  0.31889819992E+03  0.50400000000E-02 0.  1.
          1   -1    0    0  501    0  0.00000000000E+00 -0.00000000000E+00 -0.29505740900E+04  0.29505740900E+04  0.50400000000E-02 0. -1.
    8880023    1    1    2    0    0  0.49129981536E+03 -0.13384902488E+03 -0.26075696499E+04  0.27372469299E+04  0.65864270000E+03 0.  0.
    8880022    1    1    2    0    0 -0.49129981536E+03  0.13384902488E+03 -0.24106240246E+02  0.53222536003E+03  0.15294330000E+03 0.  0.
<mgrwt>
<rscale>  0 0.74423685E+03</rscale>
<asrwt>0</asrwt>
<pdfrwt beam="1">  1        1 0.45393446E+00 0.83252704E+03</pdfrwt>
<pdfrwt beam="2">  1       -1 0.49061263E-01 0.83252704E+03</pdfrwt>
<totfact> 0.28500670E+00</totfact>
</mgrwt>
</event>
<event>
 4    1  0.4055965E-007  0.1000951E+04  0.7818608E-02  0.9380314E-01
          1   -1    0    0  501    0  0.00000000000E+00  0.00000000000E+00  0.27094868241E+04  0.27094868241E+04  0.50400000000E-02 0. -1.
         -1   -1    0    0    0  501 -0.00000000000E+00 -0.00000000000E+00 -0.39591933285E+03  0.39591933288E+03  0.50400000000E-02 0.  1.
    8880023    1    1    2    0    0  0.71171278433E+02  0.75035202361E+03  0.20689509598E+04  0.22983606746E+04  0.65864270000E+03 0.  0.
    8880022    1    1    2    0    0 -0.71171278433E+02 -0.75035202361E+03  0.24461653150E+03  0.80704548243E+03  0.15294330000E+03 0.  0.
<mgrwt>
<rscale>  0 0.93713623E+03</rscale>
<asrwt>0</asrwt>
<pdfrwt beam="1">  1        1 0.41684414E+00 0.10009514E+04</pdfrwt>
<pdfrwt beam="2">  1       -1 0.60910664E-01 0.10009514E+04</pdfrwt>
<totfact> 0.27005345E+00</totfact>
</mgrwt>
</event>
<event>
 4    1  0.4055965E-007  0.1160385E+04  0.7818608E-02  0.9196627E-01
          1   -1    0    0  501    0  0.00000000000E+00  0.00000000000E+00  0.11973449967E+04  0.11973449967E+04  0.50400000000E-02 0. -1.
         -1   -1    0    0    0  501 -0.00000000000E+00 -0.00000000000E+00 -0.15168819263E+04  0.15168819263E+04  0.50400000000E-02 0.  1.
    8880023    1    1    2    0    0 -0.33263697591E+03 -0.89556496360E+03  0.66205464494E+03  0.13359680089E+04  0.65864270000E+03 0.  0.
    8880022    1    1    2    0    0  0.33263697591E+03  0.89556496360E+03 -0.98159157455E+03  0.13782589140E+04  0.15294330000E+03 0.  0.
<mgrwt>
<rscale>  0 0.11088315E+04</rscale>
<asrwt>0</asrwt>
<pdfrwt beam="1">  1        1 0.18420692E+00 0.11603854E+04</pdfrwt>
<pdfrwt beam="2">  1       -1 0.23336645E+00 0.11603854E+04</pdfrwt>
<totfact> 0.94855626E-01</totfact>
</mgrwt>
</event>
<event>
 4    1  0.4055965E-007  0.7649693E+03  0.7818608E-02  0.9792408E-01
         -1   -1    0    0    0  501 -0.00000000000E+00  0.00000000000E+00  0.20082796148E+04  0.20082796148E+04  0.50400000000E-02 0.  1.
          1   -1    0    0  501    0  0.00000000000E+00 -0.00000000000E+00 -0.75945978364E+03  0.75945978366E+03  0.50400000000E-02 0. -1.
    8880023    1    1    2    0    0  0.33927168608E+03 -0.19042719495E+03 -0.53635723577E+03  0.93426820784E+03  0.65864270000E+03 0. -1.
    8880022    1    1    2    0    0 -0.33927168608E+03  0.19042719495E+03  0.17851770669E+04  0.18334711906E+04  0.15294330000E+03 0.  0.
<mgrwt>
<rscale>  0 0.65771550E+03</rscale>
<asrwt>0</asrwt>
<pdfrwt beam="1">  1        1 0.11683997E+00 0.76496928E+03</pdfrwt>
<pdfrwt beam="2">  1       -1 0.30896609E+00 0.76496928E+03</pdfrwt>
<totfact> 0.73293969E-01</totfact>
</mgrwt>
</event>
<event>
 4    1  0.4055965E-007  0.9501092E+03  0.7818608E-02  0.9449957E-01
         -1   -1    0    0    0  501 -0.00000000000E+00  0.00000000000E+00  0.38558727775E+03  0.38558727779E+03  0.50400000000E-02 0.  1.
          1   -1    0    0  501    0  0.00000000000E+00 -0.00000000000E+00 -0.21042165357E+04  0.21042165358E+04  0.50400000000E-02 0. -1.
    8880023    1    1    2    0    0  0.49987965706E+03  0.46799315013E+03 -0.14601937143E+04  0.17420887319E+04  0.65864270000E+03 0. -1.
    8880022    1    1    2    0    0 -0.49987965706E+03 -0.46799315013E+03 -0.25843554368E+03  0.74771508167E+03  0.15294330000E+03 0.  0.
<mgrwt>
<rscale>  0 0.88076013E+03</rscale>
<asrwt>0</asrwt>
<pdfrwt beam="1">  1        1 0.32372562E+00 0.95010919E+03</pdfrwt>
<pdfrwt beam="2">  1       -1 0.59321121E-01 0.95010919E+03</pdfrwt>
<totfact> 0.74321962E+00</totfact>
</mgrwt>
</event>
<event>
 4    1  0.4055965E-007  0.8481467E+03  0.7818608E-02  0.9615006E-01
          1   -1    0    0  501    0  0.00000000000E+00  0.00000000000E+00  0.28704907544E+04  0.28704907545E+04  0.50400000000E-02 0. -1.
         -1   -1    0    0    0  501 -0.00000000000E+00 -0.00000000000E+00 -0.34377888150E+03  0.34377888153E+03  0.50400000000E-02 0.  1.
    8880023    1    1    2    0    0  0.14137482883E+03  0.51532111790E+03  0.25194758229E+04  0.26584039056E+04  0.65864270000E+03 0.  0.
    8880022    1    1    2    0    0 -0.14137482883E+03 -0.51532111790E+03  0.72360500369E+01  0.55586573039E+03  0.15294330000E+03 0.  0.
<mgrwt>
<rscale>  0 0.76310891E+03</rscale>
<asrwt>0</asrwt>
<pdfrwt beam="1">  1        1 0.44161395E+00 0.84814675E+03</pdfrwt>
<pdfrwt beam="2">  1       -1 0.52889060E-01 0.84814675E+03</pdfrwt>
<totfact> 0.28083378E+00</totfact>
</mgrwt>
</event>
<event>
 4    1  0.4055965E-007  0.7631258E+03  0.7818608E-02  0.9797081E-01
          1   -1    0    0  501    0  0.00000000000E+00  0.00000000000E+00  0.47682173324E+03  0.47682173327E+03  0.50400000000E-02 0. -1.
         -1   -1    0    0    0  501 -0.00000000000E+00 -0.00000000000E+00 -0.14846161904E+04  0.14846161904E+04  0.50400000000E-02 0.  1.
    8880023    1    1    2    0    0  0.23480628912E+02 -0.38470702133E+03  0.10832934338E+03  0.77077641706E+03  0.65864270000E+03 0. -1.
    8880022    1    1    2    0    0 -0.23480628912E+02  0.38470702133E+03 -0.11161238006E+04  0.11906615067E+04  0.15294330000E+03 0.  0.
<mgrwt>
<rscale>  0 0.65519416E+03</rscale>
<asrwt>0</asrwt>
<pdfrwt beam="1">  1        1 0.73357190E-01 0.76312583E+03</pdfrwt>
<pdfrwt beam="2">  1       -1 0.22840249E+00 0.76312583E+03</pdfrwt>
<totfact> 0.47426288E+00</totfact>
</mgrwt>
</event>
<event>
 4    1  0.4055965E-007  0.8328036E+03  0.7818608E-02  0.9643902E-01
         -1   -1    0    0    0  501 -0.00000000000E+00  0.00000000000E+00  0.56843993142E+03  0.56843993144E+03  0.50400000000E-02 0.  1.
          1   -1    0    0  501    0  0.00000000000E+00 -0.00000000000E+00 -0.22260897326E+04  0.22260897326E+04  0.50400000000E-02 0. -1.
    8880023    1    1    2    0    0  0.35887274743E+03  0.36188673963E+03  0.20475110234E+03  0.85760415189E+03  0.65864270000E+03 0.  1.
    8880022    1    1    2    0    0 -0.35887274743E+03 -0.36188673963E+03 -0.18624009035E+04  0.19369255122E+04  0.15294330000E+03 0.  0.
<mgrwt>
<rscale>  0 0.74457379E+03</rscale>
<asrwt>0</asrwt>
<pdfrwt beam="1">  1        1 0.34247534E+00 0.83280362E+03</pdfrwt>
<pdfrwt beam="2">  1       -1 0.87452299E-01 0.83280362E+03</pdfrwt>
<totfact> 0.28012256E+00</totfact>
</mgrwt>
</event>
<event>
 4    1  0.4055965E-007  0.7077997E+03  0.7818608E-02  0.9966264E-01
          1   -1    0    0  501    0  0.00000000000E+00  0.00000000000E+00  0.13876533289E+04  0.13876533289E+04  0.50400000000E-02 0. -1.
         -1   -1    0    0    0  501 -0.00000000000E+00 -0.00000000000E+00 -0.18348297435E+03  0.18348297442E+03  0.50400000000E-02 0.  1.
    8880023    1    1    2    0    0 -0.20962575865E+03 -0.15240508382E+03  0.82338095770E+03  0.10857885043E+04  0.65864270000E+03 0.  1.
    8880022    1    1    2    0    0  0.20962575865E+03  0.15240508382E+03  0.38078939681E+03  0.48534779901E+03  0.15294330000E+03 0.  1.
<mgrwt>
<rscale>  0 0.57154575E+03</rscale>
<asrwt>0</asrwt>
<pdfrwt beam="1">  1        1 0.21348513E+00 0.70779974E+03</pdfrwt>
<pdfrwt beam="2">  1       -1 0.28228150E-01 0.70779974E+03</pdfrwt>
<totfact> 0.91304919E+01</totfact>
</mgrwt>
</event>
<event>
 4    1  0.4055965E-007  0.7684428E+03  0.7818608E-02  0.9783721E-01
         -1   -1    0    0    0  501 -0.00000000000E+00  0.00000000000E+00  0.47247626163E+03  0.47247626165E+03  0.50400000000E-02 0.  1.
          1   -1    0    0  501    0  0.00000000000E+00 -0.00000000000E+00 -0.16406402878E+04  0.16406402878E+04  0.50400000000E-02 0. -1.
    8880023    1    1    2    0    0 -0.26094129018E+03  0.29766381477E+03 -0.14236337748E+04  0.16177878212E+04  0.65864270000E+03 0. -1.
    8880022    1    1    2    0    0  0.26094129018E+03 -0.29766381477E+03  0.25546974861E+03  0.49532872823E+03  0.15294330000E+03 0.  0.
<mgrwt>
<rscale>  0 0.66243546E+03</rscale>
<asrwt>0</asrwt>
<pdfrwt beam="1">  1        1 0.25240619E+00 0.76844278E+03</pdfrwt>
<pdfrwt beam="2">  1       -1 0.72688657E-01 0.76844278E+03</pdfrwt>
<totfact> 0.10361211E+01</totfact>
</mgrwt>
</event>
<event>
 4    1  0.4055965E-007  0.1161692E+04  0.7818608E-02  0.9195291E-01
          1   -1    0    0  501    0  0.00000000000E+00  0.00000000000E+00  0.11078085612E+04  0.11078085612E+04  0.50400000000E-02 0. -1.
         -1   -1    0    0    0  501 -0.00000000000E+00 -0.00000000000E+00 -0.15213486026E+04  0.15213486026E+04  0.50400000000E-02 0.  1.
    8880023    1    1    2    0    0 -0.49230970240E+03 -0.82057819406E+03  0.52975783426E+03  0.12767814946E+04  0.65864270000E+03 0.  0.
    8880022    1    1    2    0    0  0.49230970240E+03  0.82057819406E+03 -0.94329787566E+03  0.13523756693E+04  0.15294330000E+03 0.  0.
<mgrwt>
<rscale>  0 0.11102165E+04</rscale>
<asrwt>0</asrwt>
<pdfrwt beam="1">  1        1 0.17043209E+00 0.11616917E+04</pdfrwt>
<pdfrwt beam="2">  1       -1 0.23405363E+00 0.11616917E+04</pdfrwt>
<totfact> 0.10939504E+00</totfact>
</mgrwt>
</event>
<event>
 4    1  0.4055965E-007  0.8576565E+03  0.7818608E-02  0.9597746E-01
          1   -1    0    0  501    0  0.00000000000E+00  0.00000000000E+00  0.71339187442E+03  0.71339187444E+03  0.50400000000E-02 0. -1.
         -1   -1    0    0    0  501 -0.00000000000E+00 -0.00000000000E+00 -0.77800452670E+03  0.77800452672E+03  0.50400000000E-02 0.  1.
    8880023    1    1    2    0    0 -0.24344508522E+03  0.49244191365E+03  0.17078295338E+03  0.87449503787E+03  0.65864270000E+03 0.  1.
    8880022    1    1    2    0    0  0.24344508522E+03 -0.49244191365E+03 -0.23539560567E+03  0.61690136328E+03  0.15294330000E+03 0.  0.
<mgrwt>
<rscale>  0 0.77445566E+03</rscale>
<asrwt>0</asrwt>
<pdfrwt beam="1">  1        1 0.10975260E+00 0.85765655E+03</pdfrwt>
<pdfrwt beam="2">  1       -1 0.11969300E+00 0.85765655E+03</pdfrwt>
<totfact> 0.16748409E+01</totfact>
</mgrwt>
</event>
<event>
 4    1  0.4055965E-007  0.7861302E+03  0.7818608E-02  0.9741629E-01
          1   -1    0    0  501    0  0.00000000000E+00  0.00000000000E+00  0.19968106481E+04  0.19968106481E+04  0.50400000000E-02 0. -1.
         -1   -1    0    0    0  501 -0.00000000000E+00 -0.00000000000E+00 -0.30872600344E+03  0.30872600349E+03  0.50400000000E-02 0.  1.
    8880023    1    1    2    0    0  0.32813674992E+03 -0.27661674517E+03  0.16743522198E+04  0.18497178468E+04  0.65864270000E+03 0. -1.
    8880022    1    1    2    0    0 -0.32813674992E+03  0.27661674517E+03  0.13732424866E+02  0.45581880486E+03  0.15294330000E+03 0.  0.
<mgrwt>
<rscale>  0 0.68591396E+03</rscale>
<asrwt>0</asrwt>
<pdfrwt beam="1">  1        1 0.30720163E+00 0.78613024E+03</pdfrwt>
<pdfrwt beam="2">  1       -1 0.47496309E-01 0.78613024E+03</pdfrwt>
<totfact> 0.13757768E+01</totfact>
</mgrwt>
</event>
<event>
 4    1  0.4055965E-007  0.8596024E+03  0.7818608E-02  0.9594271E-01
         -1   -1    0    0    0  501 -0.00000000000E+00  0.00000000000E+00  0.68629072374E+03  0.68629072376E+03  0.50400000000E-02 0.  1.
          1   -1    0    0  501    0  0.00000000000E+00 -0.00000000000E+00 -0.87269077211E+03  0.87269077212E+03  0.50400000000E-02 0. -1.
    8880023    1    1    2    0    0 -0.35378438095E+03  0.42419652617E+03 -0.39897894039E+03  0.94768163544E+03  0.65864270000E+03 0. -1.
    8880022    1    1    2    0    0  0.35378438095E+03 -0.42419652617E+03  0.21257889202E+03  0.61129986043E+03  0.15294330000E+03 0.  0.
<mgrwt>
<rscale>  0 0.77676520E+03</rscale>
<asrwt>0</asrwt>
<pdfrwt beam="1">  1        1 0.13426012E+00 0.85960240E+03</pdfrwt>
<pdfrwt beam="2">  1       -1 0.10558319E+00 0.85960240E+03</pdfrwt>
<totfact> 0.16371376E+01</totfact>
</mgrwt>
</event>
<event>
 4    1  0.4055965E-007  0.1326196E+04  0.7818608E-02  0.9043262E-01
         -1   -1    0    0    0  501 -0.00000000000E+00  0.00000000000E+00  0.11700083915E+04  0.11700083915E+04  0.50400000000E-02 0.  1.
          1   -1    0    0  501    0  0.00000000000E+00 -0.00000000000E+00 -0.13798074515E+04  0.13798074515E+04  0.50400000000E-02 0. -1.
    8880023    1    1    2    0    0 -0.17023800007E+02 -0.11509538671E+04  0.14878091946E+03  0.13345151113E+04  0.65864270000E+03 0.  0.
    8880022    1    1    2    0    0  0.17023800007E+02  0.11509538671E+04 -0.35857997946E+03  0.12153007318E+04  0.15294330000E+03 0.  0.
<mgrwt>
<rscale>  0 0.12828683E+04</rscale>
<asrwt>0</asrwt>
<pdfrwt beam="1">  1        1 0.21227807E+00 0.13261956E+04</pdfrwt>
<pdfrwt beam="2">  1       -1 0.18000129E+00 0.13261956E+04</pdfrwt>
<totfact> 0.15968269E+00</totfact>
</mgrwt>
</event>
<event>
 4    1  0.4055965E-007  0.1300845E+04  0.7818608E-02  0.9064831E-01
         -1   -1    0    0    0  501 -0.00000000000E+00  0.00000000000E+00  0.11608177999E+04  0.11608177999E+04  0.50400000000E-02 0.  1.
          1   -1    0    0  501    0  0.00000000000E+00 -0.00000000000E+00 -0.18172260683E+04  0.18172260683E+04  0.50400000000E-02 0. -1.
    8880023    1    1    2    0    0  0.92358964367E+03 -0.63668603041E+03 -0.11562716910E+04  0.17404486091E+04  0.65864270000E+03 0.  0.
    8880022    1    1    2    0    0 -0.92358964367E+03  0.63668603041E+03  0.49986342265E+03  0.12375952592E+04  0.15294330000E+03 0.  0.
<mgrwt>
<rscale>  0 0.12564515E+04</rscale>
<asrwt>0</asrwt>
<pdfrwt beam="1">  1        1 0.27957324E+00 0.13008448E+04</pdfrwt>
<pdfrwt beam="2">  1       -1 0.17858735E+00 0.13008448E+04</pdfrwt>
<totfact> 0.81838691E-01</totfact>
</mgrwt>
</event>
<event>
 4    1  0.4055965E-007  0.6608633E+03  0.7818608E-02  0.1023289E+00
         -1   -1    0    0    0  501 -0.00000000000E+00  0.00000000000E+00  0.53122735983E+03  0.53122735985E+03  0.50400000000E-02 0.  1.
          1   -1    0    0  501    0  0.00000000000E+00 -0.00000000000E+00 -0.14521057581E+04  0.14521057581E+04  0.50400000000E-02 0. -1.
    8880023    1    1    2    0    0 -0.11534300398E+02 -0.52887690696E+02 -0.13617053361E+04  0.15135989484E+04  0.65864270000E+03 0. -1.
    8880022    1    1    2    0    0  0.11534300398E+02  0.52887690696E+02  0.44082693785E+03  0.46973416957E+03  0.15294330000E+03 0.  0.
<mgrwt>
<rscale>  0 0.46518232E+03</rscale>
<asrwt>0</asrwt>
<pdfrwt beam="1">  1        1 0.22340088E+00 0.66086334E+03</pdfrwt>
<pdfrwt beam="2">  1       -1 0.81727287E-01 0.66086334E+03</pdfrwt>
<totfact> 0.11072300E+01</totfact>
</mgrwt>
</event>
<event>
 4    1  0.4055965E-007  0.7786119E+03  0.7818608E-02  0.9759108E-01
         -1   -1    0    0    0  501 -0.00000000000E+00  0.00000000000E+00  0.25174476315E+03  0.25174476320E+03  0.50400000000E-02 0.  1.
          1   -1    0    0  501    0  0.00000000000E+00 -0.00000000000E+00 -0.15362799480E+04  0.15362799480E+04  0.50400000000E-02 0. -1.
    8880023    1    1    2    0    0  0.30935629866E+03 -0.27699266822E+03 -0.97621640813E+03  0.12486932928E+04  0.65864270000E+03 0.  0.
    8880022    1    1    2    0    0 -0.30935629866E+03  0.27699266822E+03 -0.30831877671E+03  0.53933141839E+03  0.15294330000E+03 0.  1.
<mgrwt>
<rscale>  0 0.67603989E+03</rscale>
<asrwt>0</asrwt>
<pdfrwt beam="1">  1        1 0.23635076E+00 0.77861188E+03</pdfrwt>
<pdfrwt beam="2">  1       -1 0.38729964E-01 0.77861188E+03</pdfrwt>
<totfact> 0.40950246E+01</totfact>
</mgrwt>
</event>
<event>
 4    1  0.4055965E-007  0.9787498E+03  0.7818608E-02  0.9409903E-01
         -1   -1    0    0    0  501 -0.00000000000E+00  0.00000000000E+00  0.13553532523E+04  0.13553532523E+04  0.50400000000E-02 0.  1.
          1   -1    0    0  501    0  0.00000000000E+00 -0.00000000000E+00 -0.10751816725E+04  0.10751816725E+04  0.50400000000E-02 0. -1.
    8880023    1    1    2    0    0  0.69114725672E+03 -0.21553776824E+03 -0.69935516365E+03  0.12029334608E+04  0.65864270000E+03 0. -1.
    8880022    1    1    2    0    0 -0.69114725672E+03  0.21553776824E+03  0.97952674346E+03  0.12276014639E+04  0.15294330000E+03 0.  1.
<mgrwt>
<rscale>  0 0.91265164E+03</rscale>
<asrwt>0</asrwt>
<pdfrwt beam="1">  1        1 0.16541257E+00 0.97874985E+03</pdfrwt>
<pdfrwt beam="2">  1       -1 0.20851588E+00 0.97874985E+03</pdfrwt>
<totfact> 0.17559687E+00</totfact>
</mgrwt>
</event>
<event>
 4    1  0.4055965E-007  0.8363158E+03  0.7818608E-02  0.9637167E-01
          1   -1    0    0  501    0  0.00000000000E+00  0.00000000000E+00  0.12667702962E+04  0.12667702962E+04  0.50400000000E-02 0. -1.
         -1   -1    0    0    0  501 -0.00000000000E+00 -0.00000000000E+00 -0.61206137680E+03  0.61206137682E+03  0.50400000000E-02 0.  1.
    8880023    1    1    2    0    0  0.42367848515E+03  0.29344595750E+03  0.94984314900E+03  0.12655537139E+04  0.65864270000E+03 0.  0.
    8880022    1    1    2    0    0 -0.42367848515E+03 -0.29344595750E+03 -0.29513422956E+03  0.61327795919E+03  0.15294330000E+03 0.  0.
<mgrwt>
<rscale>  0 0.74884345E+03</rscale>
<asrwt>0</asrwt>
<pdfrwt beam="1">  1        1 0.19488774E+00 0.83631585E+03</pdfrwt>
<pdfrwt beam="2">  1       -1 0.94163289E-01 0.83631585E+03</pdfrwt>
<totfact> 0.10679209E+01</totfact>
</mgrwt>
</event>
<event>
 4    1  0.4055965E-007  0.6830134E+03  0.7818608E-02  0.1007668E+00
          1   -1    0    0  501    0  0.00000000000E+00  0.00000000000E+00  0.20417684948E+03  0.20417684954E+03  0.50400000000E-02 0. -1.
         -1   -1    0    0    0  501 -0.00000000000E+00 -0.00000000000E+00 -0.12142147924E+04  0.12142147924E+04  0.50400000000E-02 0.  1.
    8880023    1    1    2    0    0 -0.17685823466E+03 -0.37659566646E+02 -0.47113335605E+03  0.82974328775E+03  0.65864270000E+03 0. -1.
    8880022    1    1    2    0    0  0.17685823466E+03  0.37659566646E+02 -0.53890458687E+03  0.58864835419E+03  0.15294330000E+03 0.  0.
<mgrwt>
<rscale>  0 0.52412076E+03</rscale>
<asrwt>0</asrwt>
<pdfrwt beam="1">  1        1 0.31411824E-01 0.68301339E+03</pdfrwt>
<pdfrwt beam="2">  1       -1 0.18680227E+00 0.68301339E+03</pdfrwt>
<totfact> 0.27769989E+01</totfact>
</mgrwt>
</event>
<event>
 4    1  0.4055965E-007  0.7006694E+03  0.7818608E-02  0.9994436E-01
          1   -1    0    0  501    0  0.00000000000E+00  0.00000000000E+00  0.27403147083E+04  0.27403147083E+04  0.50400000000E-02 0. -1.
         -1   -1    0    0    0  501 -0.00000000000E+00 -0.00000000000E+00 -0.21499932073E+03  0.21499932078E+03  0.50400000000E-02 0.  1.
    8880023    1    1    2    0    0  0.68517736405E+01  0.23891512288E+03  0.25737780903E+04  0.26674465781E+04  0.65864270000E+03 0. -1.
    8880022    1    1    2    0    0 -0.68517736405E+01 -0.23891512288E+03 -0.48462702747E+02  0.28786745095E+03  0.15294330000E+03 0.  0.
<mgrwt>
<rscale>  0 0.55894899E+03</rscale>
<asrwt>0</asrwt>
<pdfrwt beam="1">  1        1 0.42158688E+00 0.70066939E+03</pdfrwt>
<pdfrwt beam="2">  1       -1 0.33076818E-01 0.70066939E+03</pdfrwt>
<totfact> 0.84261297E+00</totfact>
</mgrwt>
</event>
<event>
 4    1  0.4055965E-007  0.7841953E+03  0.7818608E-02  0.9746073E-01
          1   -1    0    0  501    0  0.00000000000E+00  0.00000000000E+00  0.96726716651E+03  0.96726716652E+03  0.50400000000E-02 0. -1.
         -1   -1    0    0    0  501 -0.00000000000E+00 -0.00000000000E+00 -0.83107188401E+03  0.83107188403E+03  0.50400000000E-02 0.  1.
    8880023    1    1    2    0    0 -0.28594174321E+03  0.31526087992E+03  0.71675898998E+03  0.10624056471E+04  0.65864270000E+03 0. -1.
    8880022    1    1    2    0    0  0.28594174321E+03 -0.31526087992E+03 -0.58056370748E+03  0.73593340349E+03  0.15294330000E+03 0.  0.
<mgrwt>
<rscale>  0 0.68338661E+03</rscale>
<asrwt>0</asrwt>
<pdfrwt beam="1">  1        1 0.14881033E+00 0.78419533E+03</pdfrwt>
<pdfrwt beam="2">  1       -1 0.12785721E+00 0.78419533E+03</pdfrwt>
<totfact> 0.87314435E+00</totfact>
</mgrwt>
</event>
<event>
 4    1  0.4055965E-007  0.6651341E+03  0.7818608E-02  0.1019421E+00
          1   -1    0    0  501    0  0.00000000000E+00  0.00000000000E+00  0.13171964867E+04  0.13171964867E+04  0.50400000000E-02 0. -1.
         -1   -1    0    0    0  501 -0.00000000000E+00 -0.00000000000E+00 -0.16799160947E+03  0.16799160955E+03  0.50400000000E-02 0.  1.
    8880023    1    1    2    0    0 -0.89791946463E+02  0.23033846717E+02  0.11219348299E+04  0.13042780074E+04  0.65864270000E+03 0. -1.
    8880022    1    1    2    0    0  0.89791946463E+02 -0.23033846717E+02  0.27270047269E+02  0.18091008882E+03  0.15294330000E+03 0.  0.
<mgrwt>
<rscale>  0 0.47896069E+03</rscale>
<asrwt>0</asrwt>
<pdfrwt beam="1">  1        1 0.20264561E+00 0.66513409E+03</pdfrwt>
<pdfrwt beam="2">  1       -1 0.25844864E-01 0.66513409E+03</pdfrwt>
<totfact> 0.11947649E+02</totfact>
</mgrwt>
</event>
<event>
 4    1  0.4055965E-007  0.8819078E+03  0.7818608E-02  0.9555723E-01
         -1   -1    0    0    0  501 -0.00000000000E+00  0.00000000000E+00  0.66273362638E+03  0.66273362640E+03  0.50400000000E-02 0.  1.
          1   -1    0    0  501    0  0.00000000000E+00 -0.00000000000E+00 -0.10041656818E+04  0.10041656818E+04  0.50400000000E-02 0. -1.
    8880023    1    1    2    0    0 -0.55951014847E+03  0.17578267184E+03 -0.53397090284E+03  0.10309637653E+04  0.65864270000E+03 0. -1.
    8880022    1    1    2    0    0  0.55951014847E+03 -0.17578267184E+03  0.19253884743E+03  0.63593554292E+03  0.15294330000E+03 0.  0.
<mgrwt>
<rscale>  0 0.80297371E+03</rscale>
<asrwt>0</asrwt>
<pdfrwt beam="1">  1        1 0.15448703E+00 0.88190780E+03</pdfrwt>
<pdfrwt beam="2">  1       -1 0.10195902E+00 0.88190780E+03</pdfrwt>
<totfact> 0.13891830E+01</totfact>
</mgrwt>
</event>
<event>
 4    1  0.4055965E-007  0.1010562E+04  0.7818608E-02  0.9367868E-01
         -1   -1    0    0    0  501 -0.00000000000E+00  0.00000000000E+00  0.81224701564E+03  0.81224701566E+03  0.50400000000E-02 0.  1.
          1   -1    0    0  501    0  0.00000000000E+00 -0.00000000000E+00 -0.25735480101E+04  0.25735480101E+04  0.50400000000E-02 0. -1.
    8880023    1    1    2    0    0 -0.10622014357E+03 -0.75904092595E+03 -0.22482731603E+04  0.24649479215E+04  0.65864270000E+03 0.  0.
    8880022    1    1    2    0    0  0.10622014357E+03  0.75904092595E+03  0.48697216581E+03  0.92084710428E+03  0.15294330000E+03 0.  0.
<mgrwt>
<rscale>  0 0.94767895E+03</rscale>
<asrwt>0</asrwt>
<pdfrwt beam="1">  1        1 0.39593046E+00 0.10105622E+04</pdfrwt>
<pdfrwt beam="2">  1       -1 0.12496108E+00 0.10105622E+04</pdfrwt>
<totfact> 0.68637972E-01</totfact>
</mgrwt>
</event>
<event>
 4    1  0.4055965E-007  0.6722833E+03  0.7818608E-02  0.1014076E+00
         -1   -1    0    0    0  501 -0.00000000000E+00  0.00000000000E+00  0.66010431025E+03  0.66010431027E+03  0.50400000000E-02 0.  1.
          1   -1    0    0  501    0  0.00000000000E+00 -0.00000000000E+00 -0.44400144162E+03  0.44400144165E+03  0.50400000000E-02 0. -1.
    8880023    1    1    2    0    0 -0.12723975378E+03 -0.44323932751E+02 -0.14657394142E+03  0.68807608048E+03  0.65864270000E+03 0. -1.
    8880022    1    1    2    0    0  0.12723975378E+03  0.44323932751E+02  0.36267681005E+03  0.41602967144E+03  0.15294330000E+03 0.  0.
<mgrwt>
<rscale>  0 0.49886227E+03</rscale>
<asrwt>0</asrwt>
<pdfrwt beam="1">  1        1 0.68307914E-01 0.67228325E+03</pdfrwt>
<pdfrwt beam="2">  1       -1 0.10155451E+00 0.67228325E+03</pdfrwt>
<totfact> 0.49315181E+01</totfact>
</mgrwt>
</event>
<event>
 4    1  0.4055965E-007  0.7679084E+03  0.7818608E-02  0.9785047E-01
         -1   -1    0    0    0  501 -0.00000000000E+00  0.00000000000E+00  0.15489058313E+04  0.15489058313E+04  0.50400000000E-02 0.  1.
          1   -1    0    0  501    0  0.00000000000E+00 -0.00000000000E+00 -0.37887032229E+03  0.37887032233E+03  0.50400000000E-02 0. -1.
    8880023    1    1    2    0    0  0.32516299708E+03 -0.22392444718E+03  0.96728100797E+02  0.77397652707E+03  0.65864270000E+03 0.  0.
    8880022    1    1    2    0    0 -0.32516299708E+03  0.22392444718E+03  0.10733074082E+04  0.11537996266E+04  0.15294330000E+03 0.  0.
<mgrwt>
<rscale>  0 0.66171190E+03</rscale>
<asrwt>0</asrwt>
<pdfrwt beam="1">  1        1 0.58287743E-01 0.76790842E+03</pdfrwt>
<pdfrwt beam="2">  1       -1 0.23829320E+00 0.76790842E+03</pdfrwt>
<totfact> 0.55550896E+00</totfact>
</mgrwt>
</event>
<event>
 4    1  0.4055965E-007  0.1137552E+04  0.7818608E-02  0.9220355E-01
         -1   -1    0    0    0  501 -0.00000000000E+00  0.00000000000E+00  0.13820826238E+04  0.13820826238E+04  0.50400000000E-02 0.  1.
          1   -1    0    0  501    0  0.00000000000E+00 -0.00000000000E+00 -0.11176201351E+04  0.11176201351E+04  0.50400000000E-02 0. -1.
    8880023    1    1    2    0    0 -0.87957271320E+03  0.29422032015E+03 -0.54300369179E+03  0.12605066323E+04  0.65864270000E+03 0. -1.
    8880022    1    1    2    0    0  0.87957271320E+03 -0.29422032015E+03  0.80746618041E+03  0.12391961266E+04  0.15294330000E+03 0.  0.
<mgrwt>
<rscale>  0 0.10845777E+04</rscale>
<asrwt>0</asrwt>
<pdfrwt beam="1">  1        1 0.17194156E+00 0.11375517E+04</pdfrwt>
<pdfrwt beam="2">  1       -1 0.21262810E+00 0.11375517E+04</pdfrwt>
<totfact> 0.14988340E+00</totfact>
</mgrwt>
</event>
<event>
 4    1  0.4055965E-007  0.7438492E+03  0.7818608E-02  0.9848873E-01
          1   -1    0    0  501    0  0.00000000000E+00  0.00000000000E+00  0.24457565524E+04  0.24457565524E+04  0.50400000000E-02 0. -1.
         -1   -1    0    0    0  501 -0.00000000000E+00 -0.00000000000E+00 -0.24818893961E+03  0.24818893966E+03  0.50400000000E-02 0.  1.
    8880023    1    1    2    0    0 -0.30673232088E+03  0.15942601032E+03  0.21931985140E+04  0.23159083094E+04  0.65864270000E+03 0.  0.
    8880022    1    1    2    0    0  0.30673232088E+03 -0.15942601032E+03  0.43690987713E+01  0.37803718266E+03  0.15294330000E+03 0.  0.
<mgrwt>
<rscale>  0 0.62804395E+03</rscale>
<asrwt>0</asrwt>
<pdfrwt beam="1">  1        1 0.37627026E+00 0.74384916E+03</pdfrwt>
<pdfrwt beam="2">  1       -1 0.38182912E-01 0.74384916E+03</pdfrwt>
<totfact> 0.10318401E+01</totfact>
</mgrwt>
</event>
<event>
 4    1  0.4055965E-007  0.8155913E+03  0.7818608E-02  0.9678046E-01
          1   -1    0    0  501    0  0.00000000000E+00  0.00000000000E+00  0.13020474977E+04  0.13020474977E+04  0.50400000000E-02 0. -1.
         -1   -1    0    0    0  501 -0.00000000000E+00 -0.00000000000E+00 -0.33548677182E+03  0.33548677185E+03  0.50400000000E-02 0.  1.
    8880023    1    1    2    0    0  0.46606693674E+03  0.11899818565E+03  0.63479269697E+03  0.10335138761E+04  0.65864270000E+03 0.  0.
    8880022    1    1    2    0    0 -0.46606693674E+03 -0.11899818565E+03  0.33176802895E+03  0.60402039349E+03  0.15294330000E+03 0. -1.
<mgrwt>
<rscale>  0 0.72339100E+03</rscale>
<asrwt>0</asrwt>
<pdfrwt beam="1">  1        1 0.20031500E+00 0.81559130E+03</pdfrwt>
<pdfrwt beam="2">  1       -1 0.51613349E-01 0.81559130E+03</pdfrwt>
<totfact> 0.34786033E+01</totfact>
</mgrwt>
</event>
<event>
 4    1  0.4055965E-007  0.6882160E+03  0.7818608E-02  0.1005012E+00
         -1   -1    0    0    0  501 -0.00000000000E+00  0.00000000000E+00  0.13543912676E+04  0.13543912676E+04  0.50400000000E-02 0.  1.
          1   -1    0    0  501    0  0.00000000000E+00 -0.00000000000E+00 -0.46316450628E+03  0.46316450631E+03  0.50400000000E-02 0. -1.
    8880023    1    1    2    0    0 -0.34482435836E+02  0.19657580552E+03 -0.18475629444E+03  0.71258415664E+03  0.65864270000E+03 0. -1.
    8880022    1    1    2    0    0  0.34482435836E+02 -0.19657580552E+03  0.10759830557E+04  0.11049716173E+04  0.15294330000E+03 0.  0.
<mgrwt>
<rscale>  0 0.53506032E+03</rscale>
<asrwt>0</asrwt>
<pdfrwt beam="1">  1        1 0.71256079E-01 0.68821602E+03</pdfrwt>
<pdfrwt beam="2">  1       -1 0.20836788E+00 0.68821602E+03</pdfrwt>
<totfact> 0.67761188E+00</totfact>
</mgrwt>
</event>
<event>
 4    1  0.4055965E-007  0.6974485E+03  0.7818608E-02  0.1000795E+00
         -1   -1    0    0    0  501 -0.00000000000E+00  0.00000000000E+00  0.46022080523E+03  0.46022080526E+03  0.50400000000E-02 0.  1.
          1   -1    0    0  501    0  0.00000000000E+00 -0.00000000000E+00 -0.10728997422E+04  0.10728997423E+04  0.50400000000E-02 0. -1.
    8880023    1    1    2    0    0 -0.22720471772E+02 -0.22827184175E+03 -0.89755125535E+03  0.11366761702E+04  0.65864270000E+03 0. -1.
    8880022    1    1    2    0    0  0.22720471772E+02  0.22827184175E+03  0.28487231833E+03  0.39644437736E+03  0.15294330000E+03 0.  0.
<mgrwt>
<rscale>  0 0.55302808E+03</rscale>
<asrwt>0</asrwt>
<pdfrwt beam="1">  1        1 0.16506150E+00 0.69744854E+03</pdfrwt>
<pdfrwt beam="2">  1       -1 0.70803201E-01 0.69744854E+03</pdfrwt>
<totfact> 0.27715093E+01</totfact>
</mgrwt>
</event>
<event>
 4    1  0.4055965E-007  0.7035867E+03  0.7818608E-02  0.9982635E-01
          1   -1    0    0  501    0  0.00000000000E+00  0.00000000000E+00  0.11820429999E+04  0.11820429999E+04  0.50400000000E-02 0. -1.
         -1   -1    0    0    0  501 -0.00000000000E+00 -0.00000000000E+00 -0.30389523665E+03  0.30389523669E+03  0.50400000000E-02 0.  1.
    8880023    1    1    2    0    0  0.23336794569E+03  0.82239891139E+02  0.95393679834E+03  0.11853394532E+04  0.65864270000E+03 0. -1.
    8880022    1    1    2    0    0 -0.23336794569E+03 -0.82239891139E+02 -0.75789035048E+02  0.30059878346E+03  0.15294330000E+03 0.  0.
<mgrwt>
<rscale>  0 0.56418241E+03</rscale>
<asrwt>0</asrwt>
<pdfrwt beam="1">  1        1 0.18185277E+00 0.70358667E+03</pdfrwt>
<pdfrwt beam="2">  1       -1 0.46753113E-01 0.70358667E+03</pdfrwt>
<totfact> 0.51725819E+01</totfact>
</mgrwt>
</event>
<event>
 4    1  0.4055965E-007  0.6929871E+03  0.7818608E-02  0.1002764E+00
          1   -1    0    0  501    0  0.00000000000E+00  0.00000000000E+00  0.46477219655E+03  0.46477219657E+03  0.50400000000E-02 0. -1.
         -1   -1    0    0    0  501 -0.00000000000E+00 -0.00000000000E+00 -0.63008989533E+03  0.63008989535E+03  0.50400000000E-02 0.  1.
    8880023    1    1    2    0    0  0.65750323189E+02 -0.20517743031E+03  0.12296589908E+03  0.70381226297E+03  0.65864270000E+03 0. -1.
    8880022    1    1    2    0    0 -0.65750323189E+02  0.20517743031E+03 -0.28828359786E+03  0.39104982895E+03  0.15294330000E+03 0.  0.
<mgrwt>
<rscale>  0 0.54454720E+03</rscale>
<asrwt>0</asrwt>
<pdfrwt beam="1">  1        1 0.71503415E-01 0.69298708E+03</pdfrwt>
<pdfrwt beam="2">  1       -1 0.96936907E-01 0.69298708E+03</pdfrwt>
<totfact> 0.51438508E+01</totfact>
</mgrwt>
</event>
<event>
 4    1  0.4055965E-007  0.6842163E+03  0.7818608E-02  0.1007033E+00
         -1   -1    0    0    0  501 -0.00000000000E+00  0.00000000000E+00  0.18178627763E+04  0.18178627763E+04  0.50400000000E-02 0.  1.
          1   -1    0    0  501    0  0.00000000000E+00 -0.00000000000E+00 -0.82226321962E+03  0.82226321964E+03  0.50400000000E-02 0. -1.
    8880023    1    1    2    0    0 -0.18087412691E+03 -0.40327254393E+02 -0.66979653438E+03  0.95748594818E+03  0.65864270000E+03 0.  0.
    8880022    1    1    2    0    0  0.18087412691E+03  0.40327254393E+02  0.16653960910E+04  0.16826400477E+04  0.15294330000E+03 0.  1.
<mgrwt>
<rscale>  0 0.52671228E+03</rscale>
<asrwt>0</asrwt>
<pdfrwt beam="1">  1        1 0.12650203E+00 0.68421630E+03</pdfrwt>
<pdfrwt beam="2">  1       -1 0.27967119E+00 0.68421630E+03</pdfrwt>
<totfact> 0.10109213E+00</totfact>
</mgrwt>
</event>
<event>
 4    1  0.4055965E-007  0.7469072E+03  0.7818608E-02  0.9840265E-01
          1   -1    0    0  501    0  0.00000000000E+00  0.00000000000E+00  0.14623761849E+04  0.14623761849E+04  0.50400000000E-02 0. -1.
         -1   -1    0    0    0  501 -0.00000000000E+00 -0.00000000000E+00 -0.51471733608E+03  0.51471733611E+03  0.50400000000E-02 0.  1.
    8880023    1    1    2    0    0  0.35000084366E+03  0.39491611165E+02  0.12715845168E+04  0.14747194878E+04  0.65864270000E+03 0.  0.
    8880022    1    1    2    0    0 -0.35000084366E+03 -0.39491611165E+02 -0.32392566798E+03  0.50237403327E+03  0.15294330000E+03 0.  0.
<mgrwt>
<rscale>  0 0.63245737E+03</rscale>
<asrwt>0</asrwt>
<pdfrwt beam="1">  1        1 0.22498095E+00 0.74690721E+03</pdfrwt>
<pdfrwt beam="2">  1       -1 0.79187283E-01 0.74690721E+03</pdfrwt>
<totfact> 0.11493763E+01</totfact>
</mgrwt>
</event>
<event>
 4    1  0.4055965E-007  0.1041174E+04  0.7818608E-02  0.9329568E-01
         -1   -1    0    0    0  501 -0.00000000000E+00  0.00000000000E+00  0.20094279458E+04  0.20094279458E+04  0.50400000000E-02 0.  1.
          1   -1    0    0  501    0  0.00000000000E+00 -0.00000000000E+00 -0.55054016488E+03  0.55054016490E+03  0.50400000000E-02 0. -1.
    8880023    1    1    2    0    0 -0.66426353820E+03  0.45715049122E+03  0.20471149440E+03  0.10611077335E+04  0.65864270000E+03 0. -1.
    8880022    1    1    2    0    0  0.66426353820E+03 -0.45715049122E+03  0.12541762865E+04  0.14988603773E+04  0.15294330000E+03 0.  0.
<mgrwt>
<rscale>  0 0.98105788E+03</rscale>
<asrwt>0</asrwt>
<pdfrwt beam="1">  1        1 0.84698487E-01 0.10411738E+04</pdfrwt>
<pdfrwt beam="2">  1       -1 0.30914276E+00 0.10411738E+04</pdfrwt>
<totfact> 0.11267512E+00</totfact>
</mgrwt>
</event>
<event>
 4    1  0.4055965E-007  0.1045992E+04  0.7818608E-02  0.9323715E-01
          1   -1    0    0  501    0  0.00000000000E+00  0.00000000000E+00  0.14156197256E+04  0.14156197256E+04  0.50400000000E-02 0. -1.
         -1   -1    0    0    0  501 -0.00000000000E+00 -0.00000000000E+00 -0.73144021087E+03  0.73144021088E+03  0.50400000000E-02 0.  1.
    8880023    1    1    2    0    0  0.61461655760E+03  0.53154016675E+03  0.79363837174E+03  0.13129967757E+04  0.65864270000E+03 0.  0.
    8880022    1    1    2    0    0 -0.61461655760E+03 -0.53154016675E+03 -0.10945885700E+03  0.83406316076E+03  0.15294330000E+03 0.  0.
<mgrwt>
<rscale>  0 0.98628585E+03</rscale>
<asrwt>0</asrwt>
<pdfrwt beam="1">  1        1 0.21778765E+00 0.10459917E+04</pdfrwt>
<pdfrwt beam="2">  1       -1 0.11252926E+00 0.10459917E+04</pdfrwt>
<totfact> 0.54131912E+00</totfact>
</mgrwt>
</event>
<event>
 4    1  0.4055965E-007  0.6729291E+03  0.7818608E-02  0.1013645E+00
         -1   -1    0    0    0  501 -0.00000000000E+00  0.00000000000E+00  0.41964758763E+03  0.41964758766E+03  0.50400000000E-02 0.  1.
          1   -1    0    0  501    0  0.00000000000E+00 -0.00000000000E+00 -0.16558635395E+04  0.16558635396E+04  0.50400000000E-02 0. -1.
    8880023    1    1    2    0    0 -0.95822989640E+02 -0.99203775750E+02 -0.15559251054E+04  0.16952098909E+04  0.65864270000E+03 0. -1.
    8880022    1    1    2    0    0  0.95822989640E+02  0.99203775750E+02  0.31970915349E+03  0.38030123627E+03  0.15294330000E+03 0.  0.
<mgrwt>
<rscale>  0 0.50051495E+03</rscale>
<asrwt>0</asrwt>
<pdfrwt beam="1">  1        1 0.25474823E+00 0.67292915E+03</pdfrwt>
<pdfrwt beam="2">  1       -1 0.64561168E-01 0.67292915E+03</pdfrwt>
<totfact> 0.13070837E+01</totfact>
</mgrwt>
</event>
<event>
 4    1  0.4055965E-007  0.1093119E+04  0.7818608E-02  0.9268757E-01
         -1   -1    0    0    0  501 -0.00000000000E+00  0.00000000000E+00  0.68091070809E+03  0.68091070811E+03  0.50400000000E-02 0.  1.
          1   -1    0    0  501    0  0.00000000000E+00 -0.00000000000E+00 -0.18945825809E+04  0.18945825809E+04  0.50400000000E-02 0. -1.
    8880023    1    1    2    0    0 -0.83626788824E+03  0.24850327798E+03 -0.25365010122E+02  0.10934127538E+04  0.65864270000E+03 0.  1.
    8880022    1    1    2    0    0  0.83626788824E+03 -0.24850327798E+03 -0.11883068627E+04  0.14820805352E+04  0.15294330000E+03 0.  0.
<mgrwt>
<rscale>  0 0.10371076E+04</rscale>
<asrwt>0</asrwt>
<pdfrwt beam="1">  1        1 0.29147424E+00 0.10931185E+04</pdfrwt>
<pdfrwt beam="2">  1       -1 0.10475549E+00 0.10931185E+04</pdfrwt>
<totfact> 0.30007182E+00</totfact>
</mgrwt>
</event>
<event>
 4    1  0.4055965E-007  0.7857093E+03  0.7818608E-02  0.9742593E-01
         -1   -1    0    0    0  501 -0.00000000000E+00  0.00000000000E+00  0.12878517856E+03  0.12878517866E+03  0.50400000000E-02 0.  1.
          1   -1    0    0  501    0  0.00000000000E+00 -0.00000000000E+00 -0.38137236384E+04  0.38137236384E+04  0.50400000000E-02 0. -1.
    8880023    1    1    2    0    0  0.92424996548E+02  0.41831384653E+03 -0.31188768073E+04  0.32163226827E+04  0.65864270000E+03 0.  0.
    8880022    1    1    2    0    0 -0.92424996548E+02 -0.41831384653E+03 -0.56606165253E+03  0.72618613432E+03  0.15294330000E+03 0.  0.
<mgrwt>
<rscale>  0 0.68536489E+03</rscale>
<asrwt>0</asrwt>
<pdfrwt beam="1">  1        1 0.58672663E+00 0.78570927E+03</pdfrwt>
<pdfrwt beam="2">  1       -1 0.19813107E-01 0.78570927E+03</pdfrwt>
<totfact> 0.31229111E+00</totfact>
</mgrwt>
</event>
<event>
 4    1  0.4055965E-007  0.1062654E+04  0.7818608E-02  0.9303822E-01
         -1   -1    0    0    0  501 -0.00000000000E+00  0.00000000000E+00  0.16816659049E+04  0.16816659049E+04  0.50400000000E-02 0.  1.
          1   -1    0    0  501    0  0.00000000000E+00 -0.00000000000E+00 -0.78684736576E+03  0.78684736578E+03  0.50400000000E-02 0. -1.
    8880023    1    1    2    0    0  0.77355418078E+03  0.31150755279E+03 -0.20254325391E+03  0.10817841753E+04  0.65864270000E+03 0. -1.
    8880022    1    1    2    0    0 -0.77355418078E+03 -0.31150755279E+03  0.10973617931E+04  0.13867290954E+04  0.15294330000E+03 0.  0.
<mgrwt>
<rscale>  0 0.10043174E+04</rscale>
<asrwt>0</asrwt>
<pdfrwt beam="1">  1        1 0.12105344E+00 0.10626539E+04</pdfrwt>
<pdfrwt beam="2">  1       -1 0.25871783E+00 0.10626539E+04</pdfrwt>
<totfact> 0.13895816E+00</totfact>
</mgrwt>
</event>
<event>
 4    1  0.4055965E-007  0.6897344E+03  0.7818608E-02  0.1004279E+00
         -1   -1    0    0    0  501 -0.00000000000E+00  0.00000000000E+00  0.24782420655E+03  0.24782420660E+03  0.50400000000E-02 0.  1.
          1   -1    0    0  501    0  0.00000000000E+00 -0.00000000000E+00 -0.91927977371E+03  0.91927977373E+03  0.50400000000E-02 0. -1.
    8880023    1    1    2    0    0 -0.19303979448E+03  0.68256856468E+02 -0.55932547908E+03  0.88801945841E+03  0.65864270000E+03 0. -1.
    8880022    1    1    2    0    0  0.19303979448E+03 -0.68256856468E+02 -0.11213008808E+03  0.27908452192E+03  0.15294330000E+03 0.  0.
<mgrwt>
<rscale>  0 0.53813105E+03</rscale>
<asrwt>0</asrwt>
<pdfrwt beam="1">  1        1 0.14142766E+00 0.68973442E+03</pdfrwt>
<pdfrwt beam="2">  1       -1 0.38126802E-01 0.68973442E+03</pdfrwt>
<totfact> 0.11926628E+02</totfact>
</mgrwt>
</event>
<event>
 4    1  0.4055965E-007  0.8657335E+03  0.7818608E-02  0.9583445E-01
          1   -1    0    0  501    0  0.00000000000E+00  0.00000000000E+00  0.11405205816E+04  0.11405205816E+04  0.50400000000E-02 0. -1.
         -1   -1    0    0    0  501 -0.00000000000E+00 -0.00000000000E+00 -0.81467290858E+03  0.81467290859E+03  0.50400000000E-02 0.  1.
    8880023    1    1    2    0    0 -0.51040273058E+03 -0.23489009211E+03  0.81928431538E+03  0.11919401405E+04  0.65864270000E+03 0. -1.
    8880022    1    1    2    0    0  0.51040273058E+03  0.23489009211E+03 -0.49343664240E+03  0.76325334970E+03  0.15294330000E+03 0.  0.
<mgrwt>
<rscale>  0 0.78401667E+03</rscale>
<asrwt>0</asrwt>
<pdfrwt beam="1">  1        1 0.17546470E+00 0.86573351E+03</pdfrwt>
<pdfrwt beam="2">  1       -1 0.12533429E+00 0.86573351E+03</pdfrwt>
<totfact> 0.66991168E+00</totfact>
</mgrwt>
</event>
<event>
 4    1  0.4055965E-007  0.7257805E+03  0.7818608E-02  0.9903491E-01
         -1   -1    0    0    0  501 -0.00000000000E+00  0.00000000000E+00  0.54480432246E+03  0.54480432249E+03  0.50400000000E-02 0.  1.
          1   -1    0    0  501    0  0.00000000000E+00 -0.00000000000E+00 -0.96722197511E+03  0.96722197512E+03  0.50400000000E-02 0. -1.
    8880023    1    1    2    0    0  0.28953178718E+03 -0.95490606038E+02 -0.74676027297E+03  0.10413492321E+04  0.65864270000E+03 0. -1.
    8880022    1    1    2    0    0 -0.28953178718E+03  0.95490606038E+02  0.32434262033E+03  0.47067706552E+03  0.15294330000E+03 0.  0.
<mgrwt>
<rscale>  0 0.60092396E+03</rscale>
<asrwt>0</asrwt>
<pdfrwt beam="1">  1        1 0.14880338E+00 0.72578049E+03</pdfrwt>
<pdfrwt beam="2">  1       -1 0.83816050E-01 0.72578049E+03</pdfrwt>
<totfact> 0.23367406E+01</totfact>
</mgrwt>
</event>
<event>
 4    1  0.4055965E-007  0.9298381E+03  0.7818608E-02  0.9479736E-01
         -1   -1    0    0    0  501 -0.00000000000E+00  0.00000000000E+00  0.67636062691E+03  0.67636062693E+03  0.50400000000E-02 0.  1.
          1   -1    0    0  501    0  0.00000000000E+00 -0.00000000000E+00 -0.13330112023E+04  0.13330112023E+04  0.50400000000E-02 0. -1.
    8880023    1    1    2    0    0  0.32199928072E+03 -0.57193099119E+03 -0.89883008302E+03  0.12932495196E+04  0.65864270000E+03 0.  0.
    8880022    1    1    2    0    0 -0.32199928072E+03  0.57193099119E+03  0.24217950763E+03  0.71612230967E+03  0.15294330000E+03 0.  0.
<mgrwt>
<rscale>  0 0.85794415E+03</rscale>
<asrwt>0</asrwt>
<pdfrwt beam="1">  1        1 0.20507865E+00 0.92983805E+03</pdfrwt>
<pdfrwt beam="2">  1       -1 0.10405548E+00 0.92983805E+03</pdfrwt>
<totfact> 0.75432399E+00</totfact>
</mgrwt>
</event>
<event>
 4    1  0.4055965E-007  0.7377634E+03  0.7818608E-02  0.9866511E-01
          1   -1    0    0  501    0  0.00000000000E+00  0.00000000000E+00  0.11175765031E+04  0.11175765031E+04  0.50400000000E-02 0. -1.
         -1   -1    0    0    0  501 -0.00000000000E+00 -0.00000000000E+00 -0.64569597191E+03  0.64569597193E+03  0.50400000000E-02 0.  1.
    8880023    1    1    2    0    0  0.32243592230E+03 -0.80744727460E+02  0.92351650657E+03  0.11820226644E+04  0.65864270000E+03 0.  0.
    8880022    1    1    2    0    0 -0.32243592230E+03  0.80744727460E+02 -0.45163597543E+03  0.58124981059E+03  0.15294330000E+03 0.  0.
<mgrwt>
<rscale>  0 0.61912136E+03</rscale>
<asrwt>0</asrwt>
<pdfrwt beam="1">  1        1 0.17193485E+00 0.73776340E+03</pdfrwt>
<pdfrwt beam="2">  1       -1 0.99337841E-01 0.73776340E+03</pdfrwt>
<totfact> 0.12311357E+01</totfact>
</mgrwt>
</event>
<event>
 4    1  0.4055965E-007  0.1898669E+04  0.7818608E-02  0.8669834E-01
         -1   -1    0    0    0  501 -0.00000000000E+00  0.00000000000E+00  0.22485870519E+04  0.22485870519E+04  0.50400000000E-02 0.  1.
          1   -1    0    0  501    0  0.00000000000E+00 -0.00000000000E+00 -0.18400938564E+04  0.18400938564E+04  0.50400000000E-02 0. -1.
    8880023    1    1    2    0    0  0.13601141849E+04  0.11494443348E+04 -0.65549307226E+03  0.20086349218E+04  0.65864270000E+03 0.  0.
    8880022    1    1    2    0    0 -0.13601141849E+04 -0.11494443348E+04  0.10639862678E+04  0.20800459865E+04  0.15294330000E+03 0.  0.
<mgrwt>
<rscale>  0 0.18701984E+04</rscale>
<asrwt>0</asrwt>
<pdfrwt beam="1">  1        1 0.28309136E+00 0.18986688E+04</pdfrwt>
<pdfrwt beam="2">  1       -1 0.34593647E+00 0.18986688E+04</pdfrwt>
<totfact> 0.56991609E-02</totfact>
</mgrwt>
</event>
<event>
 4    1  0.4055965E-007  0.8085467E+03  0.7818608E-02  0.9692612E-01
          1   -1    0    0  501    0  0.00000000000E+00  0.00000000000E+00  0.80985991537E+03  0.80985991538E+03  0.50400000000E-02 0. -1.
         -1   -1    0    0    0  501 -0.00000000000E+00 -0.00000000000E+00 -0.21267364197E+04  0.21267364197E+04  0.50400000000E-02 0.  1.
    8880023    1    1    2    0    0 -0.45426159962E+03 -0.11655037014E+03  0.56808149130E+03  0.98816212065E+03  0.65864270000E+03 0.  0.
    8880022    1    1    2    0    0  0.45426159962E+03  0.11655037014E+03 -0.18849579957E+04  0.19484342145E+04  0.15294330000E+03 0.  0.
<mgrwt>
<rscale>  0 0.71458374E+03</rscale>
<asrwt>0</asrwt>
<pdfrwt beam="1">  1        1 0.12459383E+00 0.80854672E+03</pdfrwt>
<pdfrwt beam="2">  1       -1 0.32719022E+00 0.80854672E+03</pdfrwt>
<totfact> 0.50095347E-01</totfact>
</mgrwt>
</event>
<event>
 4    1  0.4055965E-007  0.6676351E+03  0.7818608E-02  0.1017418E+00
         -1   -1    0    0    0  501 -0.00000000000E+00  0.00000000000E+00  0.57022825233E+03  0.57022825236E+03  0.50400000000E-02 0.  1.
          1   -1    0    0  501    0  0.00000000000E+00 -0.00000000000E+00 -0.40213632534E+03  0.40213632537E+03  0.50400000000E-02 0. -1.
    8880023    1    1    2    0    0 -0.10695962427E+03  0.22045783158E+02 -0.67454383513E+02  0.67103403632E+03  0.65864270000E+03 0.  0.
    8880022    1    1    2    0    0  0.10695962427E+03 -0.22045783158E+02  0.23554631051E+03  0.30133054141E+03  0.15294330000E+03 0. -1.
<mgrwt>
<rscale>  0 0.48629960E+03</rscale>
<asrwt>0</asrwt>
<pdfrwt beam="1">  1        1 0.61867127E-01 0.66763507E+03</pdfrwt>
<pdfrwt beam="2">  1       -1 0.87727423E-01 0.66763507E+03</pdfrwt>
<totfact> 0.78021642E+01</totfact>
</mgrwt>
</event>
<event>
 4    1  0.4055965E-007  0.9861579E+03  0.7818608E-02  0.9399896E-01
          1   -1    0    0  501    0  0.00000000000E+00  0.00000000000E+00  0.13699073692E+04  0.13699073692E+04  0.50400000000E-02 0. -1.
         -1   -1    0    0    0  501 -0.00000000000E+00 -0.00000000000E+00 -0.70902102603E+03  0.70902102605E+03  0.50400000000E-02 0.  1.
    8880023    1    1    2    0    0  0.58318446357E+03  0.44563780835E+03  0.85421167130E+03  0.13046781061E+04  0.65864270000E+03 0. -1.
    8880022    1    1    2    0    0 -0.58318446357E+03 -0.44563780835E+03 -0.19332532815E+03  0.77425028918E+03  0.15294330000E+03 0.  0.
<mgrwt>
<rscale>  0 0.92084272E+03</rscale>
<asrwt>0</asrwt>
<pdfrwt beam="1">  1        1 0.21075498E+00 0.98615789E+03</pdfrwt>
<pdfrwt beam="2">  1       -1 0.10908016E+00 0.98615789E+03</pdfrwt>
<totfact> 0.63188943E+00</totfact>
</mgrwt>
</event>
<event>
 4    1  0.4055965E-007  0.1151222E+04  0.7818608E-02  0.9206061E-01
          1   -1    0    0  501    0  0.00000000000E+00  0.00000000000E+00  0.12530975987E+04  0.12530975987E+04  0.50400000000E-02 0. -1.
         -1   -1    0    0    0  501 -0.00000000000E+00 -0.00000000000E+00 -0.12759121117E+04  0.12759121117E+04  0.50400000000E-02 0.  1.
    8880023    1    1    2    0    0  0.57995813585E+01 -0.94417646175E+03  0.68454048104E+03  0.13393687702E+04  0.65864270000E+03 0.  0.
    8880022    1    1    2    0    0 -0.57995813585E+01  0.94417646175E+03 -0.70735499402E+03  0.11896409402E+04  0.15294330000E+03 0.  0.
<mgrwt>
<rscale>  0 0.10991091E+04</rscale>
<asrwt>0</asrwt>
<pdfrwt beam="1">  1        1 0.19278424E+00 0.11512224E+04</pdfrwt>
<pdfrwt beam="2">  1       -1 0.19629417E+00 0.11512224E+04</pdfrwt>
<totfact> 0.15386447E+00</totfact>
</mgrwt>
</event>
<event>
 4    1  0.4055965E-007  0.7451165E+03  0.7818608E-02  0.9845286E-01
         -1   -1    0    0    0  501 -0.00000000000E+00  0.00000000000E+00  0.20547796466E+03  0.20547796472E+03  0.50400000000E-02 0.  1.
          1   -1    0    0  501    0  0.00000000000E+00 -0.00000000000E+00 -0.18575325230E+04  0.18575325230E+04  0.50400000000E-02 0. -1.
    8880023    1    1    2    0    0 -0.25939749338E+03  0.23259681395E+03 -0.14545784583E+04  0.16343185231E+04  0.65864270000E+03 0. -1.
    8880022    1    1    2    0    0  0.25939749338E+03 -0.23259681395E+03 -0.19747610010E+03  0.42869196465E+03  0.15294330000E+03 0.  0.
<mgrwt>
<rscale>  0 0.62987836E+03</rscale>
<asrwt>0</asrwt>
<pdfrwt beam="1">  1        1 0.28577422E+00 0.74511646E+03</pdfrwt>
<pdfrwt beam="2">  1       -1 0.31611996E-01 0.74511646E+03</pdfrwt>
<totfact> 0.35852051E+01</totfact>
</mgrwt>
</event>
<event>
 4    1  0.4055965E-007  0.6679066E+03  0.7818608E-02  0.1017210E+00
         -1   -1    0    0    0  501 -0.00000000000E+00  0.00000000000E+00  0.25079022921E+03  0.25079022926E+03  0.50400000000E-02 0.  1.
          1   -1    0    0  501    0  0.00000000000E+00 -0.00000000000E+00 -0.13347452335E+04  0.13347452335E+04  0.50400000000E-02 0. -1.
    8880023    1    1    2    0    0 -0.94831392490E+02  0.57411239950E+02 -0.11931350700E+04  0.13673589671E+04  0.65864270000E+03 0. -1.
    8880022    1    1    2    0    0  0.94831392490E+02 -0.57411239950E+02  0.10918006573E+03  0.21817649562E+03  0.15294330000E+03 0.  0.
<mgrwt>
<rscale>  0 0.48706954E+03</rscale>
<asrwt>0</asrwt>
<pdfrwt beam="1">  1        1 0.20534542E+00 0.66790662E+03</pdfrwt>
<pdfrwt beam="2">  1       -1 0.38583113E-01 0.66790662E+03</pdfrwt>
<totfact> 0.57515462E+01</totfact>
</mgrwt>
</event>
<event>
 4    1  0.4055965E-007  0.7686618E+03  0.7818608E-02  0.9783178E-01
          1   -1    0    0  501    0  0.00000000000E+00  0.00000000000E+00  0.52578564701E+03  0.52578564704E+03  0.50400000000E-02 0. -1.
         -1   -1    0    0    0  501 -0.00000000000E+00 -0.00000000000E+00 -0.10920078266E+04  0.10920078266E+04  0.50400000000E-02 0.  1.
    8880023    1    1    2    0    0 -0.34043542025E+03 -0.20281629269E+03  0.15183107908E+03  0.78351362897E+03  0.65864270000E+03 0.  0.
    8880022    1    1    2    0    0  0.34043542025E+03  0.20281629269E+03 -0.71805325865E+03  0.83427984466E+03  0.15294330000E+03 0.  0.
<mgrwt>
<rscale>  0 0.66273173E+03</rscale>
<asrwt>0</asrwt>
<pdfrwt beam="1">  1        1 0.80890100E-01 0.76866178E+03</pdfrwt>
<pdfrwt beam="2">  1       -1 0.16800120E+00 0.76866178E+03</pdfrwt>
<totfact> 0.10812082E+01</totfact>
</mgrwt>
</event>
<event>
 4    1  0.4055965E-007  0.7585844E+03  0.7818608E-02  0.9808786E-01
          1   -1    0    0  501    0  0.00000000000E+00  0.00000000000E+00  0.53526972874E+03  0.53526972876E+03  0.50400000000E-02 0. -1.
         -1   -1    0    0    0  501 -0.00000000000E+00 -0.00000000000E+00 -0.71101645816E+03  0.71101645817E+03  0.50400000000E-02 0.  1.
    8880023    1    1    2    0    0  0.36677131909E+03  0.84373093916E+02  0.85356630682E+02  0.76337145621E+03  0.65864270000E+03 0.  0.
    8880022    1    1    2    0    0 -0.36677131909E+03 -0.84373093916E+02 -0.26110336010E+03  0.48291473073E+03  0.15294330000E+03 0.  0.
<mgrwt>
<rscale>  0 0.64893145E+03</rscale>
<asrwt>0</asrwt>
<pdfrwt beam="1">  1        1 0.82349189E-01 0.75858436E+03</pdfrwt>
<pdfrwt beam="2">  1       -1 0.10938715E+00 0.75858436E+03</pdfrwt>
<totfact> 0.31882685E+01</totfact>
</mgrwt>
</event>
<event>
 4    1  0.4055965E-007  0.7537363E+03  0.7818608E-02  0.9821602E-01
          1   -1    0    0  501    0  0.00000000000E+00  0.00000000000E+00  0.23022659545E+04  0.23022659545E+04  0.50400000000E-02 0. -1.
         -1   -1    0    0    0  501 -0.00000000000E+00 -0.00000000000E+00 -0.18988191182E+03  0.18988191188E+03  0.50400000000E-02 0.  1.
    8880023    1    1    2    0    0  0.19825663445E+03 -0.30822470428E+03  0.18950663757E+04  0.20394594716E+04  0.65864270000E+03 0.  0.
    8880022    1    1    2    0    0 -0.19825663445E+03  0.30822470428E+03  0.21731766695E+03  0.45268839483E+03  0.15294330000E+03 0.  0.
<mgrwt>
<rscale>  0 0.64216031E+03</rscale>
<asrwt>0</asrwt>
<pdfrwt beam="1">  1        1 0.35419477E+00 0.75373627E+03</pdfrwt>
<pdfrwt beam="2">  1       -1 0.29212601E-01 0.75373627E+03</pdfrwt>
<totfact> 0.20698951E+01</totfact>
</mgrwt>
</event>
<event>
 4    1  0.4055965E-007  0.1050474E+04  0.7818608E-02  0.9318311E-01
          1   -1    0    0  501    0  0.00000000000E+00  0.00000000000E+00  0.12691645167E+04  0.12691645167E+04  0.50400000000E-02 0. -1.
         -1   -1    0    0    0  501 -0.00000000000E+00 -0.00000000000E+00 -0.17243691026E+04  0.17243691026E+04  0.50400000000E-02 0.  1.
    8880023    1    1    2    0    0  0.67168592384E+03 -0.46746552766E+03  0.91311110340E+03  0.13918577849E+04  0.65864270000E+03 0.  0.
    8880022    1    1    2    0    0 -0.67168592384E+03  0.46746552766E+03 -0.13683156893E+04  0.16016758344E+04  0.15294330000E+03 0.  0.
<mgrwt>
<rscale>  0 0.99114411E+03</rscale>
<asrwt>0</asrwt>
<pdfrwt beam="1">  1        1 0.19525608E+00 0.10504743E+04</pdfrwt>
<pdfrwt beam="2">  1       -1 0.26528755E+00 0.10504743E+04</pdfrwt>
<totfact> 0.52930572E-01</totfact>
</mgrwt>
</event>
<event>
 4    1  0.4055965E-007  0.7899657E+03  0.7818608E-02  0.9732928E-01
         -1   -1    0    0    0  501 -0.00000000000E+00  0.00000000000E+00  0.57561671682E+03  0.57561671684E+03  0.50400000000E-02 0.  1.
          1   -1    0    0  501    0  0.00000000000E+00 -0.00000000000E+00 -0.10432895672E+04  0.10432895673E+04  0.50400000000E-02 0. -1.
    8880023    1    1    2    0    0  0.11816296247E+03  0.41984891634E+03 -0.74001712333E+03  0.10824375951E+04  0.65864270000E+03 0. -1.
    8880022    1    1    2    0    0 -0.11816296247E+03 -0.41984891634E+03  0.27234427290E+03  0.53646868897E+03  0.15294330000E+03 0.  0.
<mgrwt>
<rscale>  0 0.69089692E+03</rscale>
<asrwt>0</asrwt>
<pdfrwt beam="1">  1        1 0.16050609E+00 0.78996570E+03</pdfrwt>
<pdfrwt beam="2">  1       -1 0.88556418E-01 0.78996570E+03</pdfrwt>
<totfact> 0.17970628E+01</totfact>
</mgrwt>
</event>
<event>
 4    1  0.4055965E-007  0.6711522E+03  0.7818608E-02  0.1014850E+00
         -1   -1    0    0    0  501 -0.00000000000E+00  0.00000000000E+00  0.12737885878E+04  0.12737885879E+04  0.50400000000E-02 0.  1.
          1   -1    0    0  501    0  0.00000000000E+00 -0.00000000000E+00 -0.83264482333E+03  0.83264482334E+03  0.50400000000E-02 0. -1.
    8880023    1    1    2    0    0 -0.12254468242E+03 -0.40222511610E+02 -0.68715465248E+03  0.96053462838E+03  0.65864270000E+03 0. -1.
    8880022    1    1    2    0    0  0.12254468242E+03  0.40222511610E+02  0.11282984170E+04  0.11458987828E+04  0.15294330000E+03 0.  0.
<mgrwt>
<rscale>  0 0.49591756E+03</rscale>
<asrwt>0</asrwt>
<pdfrwt beam="1">  1        1 0.12809920E+00 0.67115219E+03</pdfrwt>
<pdfrwt beam="2">  1       -1 0.19596748E+00 0.67115219E+03</pdfrwt>
<totfact> 0.35024183E+00</totfact>
</mgrwt>
</event>
<event>
 4    1  0.4055965E-007  0.1009761E+04  0.7818608E-02  0.9368898E-01
          1   -1    0    0  501    0  0.00000000000E+00  0.00000000000E+00  0.13399255352E+04  0.13399255352E+04  0.50400000000E-02 0. -1.
         -1   -1    0    0    0  501 -0.00000000000E+00 -0.00000000000E+00 -0.13054946560E+04  0.13054946560E+04  0.50400000000E-02 0.  1.
    8880023    1    1    2    0    0  0.75272598771E+03 -0.13860064704E+03  0.98829528185E+03  0.14129204940E+04  0.65864270000E+03 0. -1.
    8880022    1    1    2    0    0 -0.75272598771E+03  0.13860064704E+03 -0.95386440263E+03  0.12324996972E+04  0.15294330000E+03 0.  0.
<mgrwt>
<rscale>  0 0.94680096E+03</rscale>
<asrwt>0</asrwt>
<pdfrwt beam="1">  1        1 0.20614239E+00 0.10097607E+04</pdfrwt>
<pdfrwt beam="2">  1       -1 0.20084533E+00 0.10097607E+04</pdfrwt>
<totfact> 0.12637977E+00</totfact>
</mgrwt>
</event>
<event>
 4    1  0.4055965E-007  0.8373994E+03  0.7818608E-02  0.9635104E-01
          1   -1    0    0  501    0  0.00000000000E+00  0.00000000000E+00  0.11452138618E+04  0.11452138618E+04  0.50400000000E-02 0. -1.
         -1   -1    0    0    0  501 -0.00000000000E+00 -0.00000000000E+00 -0.42069032680E+03  0.42069032683E+03  0.50400000000E-02 0.  1.
    8880023    1    1    2    0    0  0.98696106844E+02 -0.50762844020E+03  0.34105222053E+03  0.90418713671E+03  0.65864270000E+03 0. -1.
    8880022    1    1    2    0    0 -0.98696106844E+02  0.50762844020E+03  0.38347131451E+03  0.66171705197E+03  0.15294330000E+03 0.  1.
<mgrwt>
<rscale>  0 0.75015735E+03</rscale>
<asrwt>0</asrwt>
<pdfrwt beam="1">  1        1 0.17618675E+00 0.83739940E+03</pdfrwt>
<pdfrwt beam="2">  1       -1 0.64721589E-01 0.83739940E+03</pdfrwt>
<totfact> 0.28921835E+01</totfact>
</mgrwt>
</event>
<event>
 4    1  0.4055965E-007  0.6771989E+03  0.7818608E-02  0.1010955E+00
          1   -1    0    0  501    0  0.00000000000E+00  0.00000000000E+00  0.17743732017E+04  0.17743732017E+04  0.50400000000E-02 0. -1.
         -1   -1    0    0    0  501 -0.00000000000E+00 -0.00000000000E+00 -0.17812953816E+03  0.17812953824E+03  0.50400000000E-02 0.  1.
    8880023    1    1    2    0    0 -0.12307375111E+03 -0.98188459632E+02  0.15952101702E+04  0.17330013893E+04  0.65864270000E+03 0. -1.
    8880022    1    1    2    0    0  0.12307375111E+03  0.98188459632E+02  0.10334933088E+01  0.21950135065E+03  0.15294330000E+03 0.  0.
<mgrwt>
<rscale>  0 0.51096984E+03</rscale>
<asrwt>0</asrwt>
<pdfrwt beam="1">  1        1 0.27298048E+00 0.67719888E+03</pdfrwt>
<pdfrwt beam="2">  1       -1 0.27404546E-01 0.67719888E+03</pdfrwt>
<totfact> 0.52676841E+01</totfact>
</mgrwt>
</event>
<event>
 4    1  0.4055965E-007  0.1088589E+04  0.7818608E-02  0.9273868E-01
          1   -1    0    0  501    0  0.00000000000E+00  0.00000000000E+00  0.18926147066E+04  0.18926147066E+04  0.50400000000E-02 0. -1.
         -1   -1    0    0    0  501 -0.00000000000E+00 -0.00000000000E+00 -0.95867421963E+03  0.95867421964E+03  0.50400000000E-02 0.  1.
    8880023    1    1    2    0    0  0.73134272943E+03 -0.46513816542E+03  0.14636286213E+04  0.18240709000E+04  0.65864270000E+03 0. -1.
    8880022    1    1    2    0    0 -0.73134272943E+03  0.46513816542E+03 -0.52968813433E+03  0.10272180263E+04  0.15294330000E+03 0.  0.
<mgrwt>
<rscale>  0 0.10322458E+04</rscale>
<asrwt>0</asrwt>
<pdfrwt beam="1">  1        1 0.29117149E+00 0.10885890E+04</pdfrwt>
<pdfrwt beam="2">  1       -1 0.14748834E+00 0.10885890E+04</pdfrwt>
<totfact> 0.12827702E+00</totfact>
</mgrwt>
</event>
<event>
 4    1  0.4708711E-007  0.8583519E+03  0.7818608E-02  0.9596502E-01
          1   -1    0    0  501    0  0.00000000000E+00  0.00000000000E+00  0.21899468522E+04  0.21899468522E+04  0.50400000000E-02 0. -1.
         -1   -1    0    0    0  501 -0.00000000000E+00 -0.00000000000E+00 -0.82593213124E+03  0.82593213126E+03  0.50400000000E-02 0.  1.
    8880023    1    1    2    0    0 -0.45764397581E+03  0.30581000084E+03  0.19907134045E+04  0.21678809539E+04  0.65864270000E+03 0.  0.
    8880022    1    1    2    0    0  0.45764397581E+03 -0.30581000084E+03 -0.62669868353E+03  0.84799802957E+03  0.15294330000E+03 0.  0.
<mgrwt>
<rscale>  0 0.77528143E+03</rscale>
<asrwt>0</asrwt>
<pdfrwt beam="1">  1        1 0.33691489E+00 0.85835189E+03</pdfrwt>
<pdfrwt beam="2">  1       -1 0.12706648E+00 0.85835189E+03</pdfrwt>
<totfact> 0.12340070E+00</totfact>
</mgrwt>
</event>
<event>
 4    1  0.4055965E-007  0.7358852E+03  0.7818608E-02  0.9872099E-01
          1   -1    0    0  501    0  0.00000000000E+00  0.00000000000E+00  0.17274520835E+04  0.17274520835E+04  0.50400000000E-02 0. -1.
         -1   -1    0    0    0  501 -0.00000000000E+00 -0.00000000000E+00 -0.93415436320E+03  0.93415436321E+03  0.50400000000E-02 0.  1.
    8880023    1    1    2    0    0  0.29792491800E+03  0.13768630439E+03  0.16089199448E+04  0.17692230979E+04  0.65864270000E+03 0. -1.
    8880022    1    1    2    0    0 -0.29792491800E+03 -0.13768630439E+03 -0.81562222447E+03  0.89238334882E+03  0.15294330000E+03 0.  0.
<mgrwt>
<rscale>  0 0.61632724E+03</rscale>
<asrwt>0</asrwt>
<pdfrwt beam="1">  1        1 0.26576186E+00 0.73588517E+03</pdfrwt>
<pdfrwt beam="2">  1       -1 0.14371606E+00 0.73588517E+03</pdfrwt>
<totfact> 0.18813163E+00</totfact>
</mgrwt>
</event>
<event>
 4    1  0.4055965E-007  0.6776853E+03  0.7818608E-02  0.1010664E+00
          1   -1    0    0  501    0  0.00000000000E+00  0.00000000000E+00  0.28800266438E+03  0.28800266443E+03  0.50400000000E-02 0. -1.
         -1   -1    0    0    0  501 -0.00000000000E+00 -0.00000000000E+00 -0.13905731445E+04  0.13905731446E+04  0.50400000000E-02 0.  1.
    8880023    1    1    2    0    0 -0.10888651410E+03 -0.11658001069E+03 -0.14133927456E+03  0.69226741122E+03  0.65864270000E+03 0. -1.
    8880022    1    1    2    0    0  0.10888651410E+03  0.11658001069E+03 -0.96123120561E+03  0.98630839776E+03  0.15294330000E+03 0.  0.
<mgrwt>
<rscale>  0 0.51211407E+03</rscale>
<asrwt>0</asrwt>
<pdfrwt beam="1">  1        1 0.44308103E-01 0.67768531E+03</pdfrwt>
<pdfrwt beam="2">  1       -1 0.21393433E+00 0.67768531E+03</pdfrwt>
<totfact> 0.11629140E+01</totfact>
</mgrwt>
</event>
<event>
 4    1  0.4055965E-007  0.7446046E+03  0.7818608E-02  0.9846732E-01
         -1   -1    0    0    0  501 -0.00000000000E+00  0.00000000000E+00  0.58272227062E+03  0.58272227064E+03  0.50400000000E-02 0.  1.
          1   -1    0    0  501    0  0.00000000000E+00 -0.00000000000E+00 -0.56588113098E+03  0.56588113100E+03  0.50400000000E-02 0. -1.
    8880023    1    1    2    0    0  0.32808135832E+03 -0.11396683689E+03  0.12263667103E+03  0.75463618846E+03  0.65864270000E+03 0.  1.
    8880022    1    1    2    0    0 -0.32808135832E+03  0.11396683689E+03 -0.10579553139E+03  0.39396721318E+03  0.15294330000E+03 0.  0.
<mgrwt>
<rscale>  0 0.62913839E+03</rscale>
<asrwt>0</asrwt>
<pdfrwt beam="1">  1        1 0.87058635E-01 0.74460461E+03</pdfrwt>
<pdfrwt beam="2">  1       -1 0.89649580E-01 0.74460461E+03</pdfrwt>
<totfact> 0.46411998E+01</totfact>
</mgrwt>
</event>
<event>
 4    1  0.4055965E-007  0.6626617E+03  0.7818608E-02  0.1021581E+00
          1   -1    0    0  501    0  0.00000000000E+00  0.00000000000E+00  0.88813702199E+03  0.88813702200E+03  0.50400000000E-02 0. -1.
         -1   -1    0    0    0  501 -0.00000000000E+00 -0.00000000000E+00 -0.43544449536E+03  0.43544449539E+03  0.50400000000E-02 0.  1.
    8880023    1    1    2    0    0 -0.20788706029E+02 -0.69843391684E+02  0.73794754368E+03  0.99180998843E+03  0.65864270000E+03 0. -1.
    8880022    1    1    2    0    0  0.20788706029E+02  0.69843391684E+02 -0.28525501705E+03  0.33177152896E+03  0.15294330000E+03 0.  0.
<mgrwt>
<rscale>  0 0.47120269E+03</rscale>
<asrwt>0</asrwt>
<pdfrwt beam="1">  1        1 0.13663646E+00 0.66266166E+03</pdfrwt>
<pdfrwt beam="2">  1       -1 0.66991462E-01 0.66266166E+03</pdfrwt>
<totfact> 0.43424917E+01</totfact>
</mgrwt>
</event>
<event>
 4    1  0.4055965E-007  0.7286380E+03  0.7818608E-02  0.9894373E-01
          1   -1    0    0  501    0  0.00000000000E+00  0.00000000000E+00  0.14563253432E+03  0.14563253441E+03  0.50400000000E-02 0. -1.
         -1   -1    0    0    0  501 -0.00000000000E+00 -0.00000000000E+00 -0.24875391686E+04  0.24875391686E+04  0.50400000000E-02 0.  1.
    8880023    1    1    2    0    0  0.31161261743E+03  0.82460622902E+00 -0.94224606007E+03  0.11911091249E+04  0.65864270000E+03 0. -1.
    8880022    1    1    2    0    0 -0.31161261743E+03 -0.82460622902E+00 -0.13996605742E+04  0.14420625782E+04  0.15294330000E+03 0.  0.
<mgrwt>
<rscale>  0 0.60534767E+03</rscale>
<asrwt>0</asrwt>
<pdfrwt beam="1">  1        1 0.22405007E-01 0.72863798E+03</pdfrwt>
<pdfrwt beam="2">  1       -1 0.38269830E+00 0.72863798E+03</pdfrwt>
<totfact> 0.22518599E+00</totfact>
</mgrwt>
</event>
<event>
 4    1  0.5318875E-007  0.1224917E+04  0.7818608E-02  0.9133274E-01
          1   -1    0    0  501    0  0.00000000000E+00  0.00000000000E+00  0.21332142596E+04  0.21332142596E+04  0.50400000000E-02 0. -1.
         -1   -1    0    0    0  501 -0.00000000000E+00 -0.00000000000E+00 -0.14452801301E+04  0.14452801302E+04  0.50400000000E-02 0.  1.
    8880023    1    1    2    0    0  0.85847457884E+03 -0.57413609840E+03  0.17192455130E+04  0.21109775466E+04  0.65864270000E+03 0.  0.
    8880022    1    1    2    0    0 -0.85847457884E+03  0.57413609840E+03 -0.10313113836E+04  0.14675168431E+04  0.15294330000E+03 0.  0.
<mgrwt>
<rscale>  0 0.11769510E+04</rscale>
<asrwt>0</asrwt>
<pdfrwt beam="1">  1        1 0.32818681E+00 0.12249168E+04</pdfrwt>
<pdfrwt beam="2">  1       -1 0.22235079E+00 0.12249168E+04</pdfrwt>
<totfact> 0.25140192E-01</totfact>
</mgrwt>
</event>
<event>
 4    1  0.4593965E-007  0.6684881E+03  0.7818608E-02  0.1016771E+00
         -1   -1    0    0    0  501 -0.00000000000E+00  0.00000000000E+00  0.16101888926E+04  0.16101888926E+04  0.50400000000E-02 0.  1.
          1   -1    0    0  501    0  0.00000000000E+00 -0.00000000000E+00 -0.74605337485E+03  0.74605337487E+03  0.50400000000E-02 0. -1.
    8880023    1    1    2    0    0  0.11344007283E+03  0.14053879515E+02 -0.58879596589E+03  0.89081819546E+03  0.65864270000E+03 0. -1.
    8880022    1    1    2    0    0 -0.11344007283E+03 -0.14053879515E+02  0.14529314836E+04  0.14654240720E+04  0.15294330000E+03 0.  0.
<mgrwt>
<rscale>  0 0.48870198E+03</rscale>
<asrwt>0</asrwt>
<pdfrwt beam="1">  1        1 0.11477744E+00 0.66848812E+03</pdfrwt>
<pdfrwt beam="2">  1       -1 0.24772136E+00 0.66848812E+03</pdfrwt>
<totfact> 0.18934164E+00</totfact>
</mgrwt>
</event>
<event>
 4    1  0.4055965E-007  0.6917621E+03  0.7818608E-02  0.1003326E+00
         -1   -1    0    0    0  501 -0.00000000000E+00  0.00000000000E+00  0.91861739858E+03  0.91861739859E+03  0.50400000000E-02 0.  1.
          1   -1    0    0  501    0  0.00000000000E+00 -0.00000000000E+00 -0.58859454333E+03  0.58859454335E+03  0.50400000000E-02 0. -1.
    8880023    1    1    2    0    0  0.10235169353E+03  0.18506409779E+03 -0.35256800755E+03  0.77642707041E+03  0.65864270000E+03 0. -1.
    8880022    1    1    2    0    0 -0.10235169353E+03 -0.18506409779E+03  0.68259086280E+03  0.73078487153E+03  0.15294330000E+03 0.  0.
<mgrwt>
<rscale>  0 0.54215555E+03</rscale>
<asrwt>0</asrwt>
<pdfrwt beam="1">  1        1 0.90553007E-01 0.69176209E+03</pdfrwt>
<pdfrwt beam="2">  1       -1 0.14132575E+00 0.69176209E+03</pdfrwt>
<totfact> 0.14907657E+01</totfact>
</mgrwt>
</event>
<event>
 4    1  0.4055965E-007  0.6891540E+03  0.7818608E-02  0.1004557E+00
          1   -1    0    0  501    0  0.00000000000E+00  0.00000000000E+00  0.29075574303E+03  0.29075574307E+03  0.50400000000E-02 0. -1.
         -1   -1    0    0    0  501 -0.00000000000E+00 -0.00000000000E+00 -0.77797231602E+03  0.77797231603E+03  0.50400000000E-02 0.  1.
    8880023    1    1    2    0    0 -0.19903505664E+03  0.38834026979E+02 -0.29239018556E+03  0.74861556376E+03  0.65864270000E+03 0. -1.
    8880022    1    1    2    0    0  0.19903505664E+03 -0.38834026979E+02 -0.19482638743E+03  0.32011249535E+03  0.15294330000E+03 0.  1.
<mgrwt>
<rscale>  0 0.53696322E+03</rscale>
<asrwt>0</asrwt>
<pdfrwt beam="1">  1        1 0.44731653E-01 0.68915400E+03</pdfrwt>
<pdfrwt beam="2">  1       -1 0.11968805E+00 0.68915400E+03</pdfrwt>
<totfact> 0.58268087E+01</totfact>
</mgrwt>
</event>
<event>
 4    1  0.4055965E-007  0.7306652E+03  0.7818608E-02  0.9888024E-01
          1   -1    0    0  501    0  0.00000000000E+00  0.00000000000E+00  0.19262242403E+04  0.19262242403E+04  0.50400000000E-02 0. -1.
         -1   -1    0    0    0  501 -0.00000000000E+00 -0.00000000000E+00 -0.28582215366E+03  0.28582215370E+03  0.50400000000E-02 0.  1.
    8880023    1    1    2    0    0 -0.12900695589E+03 -0.28882277749E+03  0.17048484058E+04  0.18548260523E+04  0.65864270000E+03 0. -1.
    8880022    1    1    2    0    0  0.12900695589E+03  0.28882277749E+03 -0.64446319108E+02  0.35722034171E+03  0.15294330000E+03 0.  0.
<mgrwt>
<rscale>  0 0.60845229E+03</rscale>
<asrwt>0</asrwt>
<pdfrwt beam="1">  1        1 0.29634217E+00 0.73066517E+03</pdfrwt>
<pdfrwt beam="2">  1       -1 0.43972642E-01 0.73066517E+03</pdfrwt>
<totfact> 0.17846186E+01</totfact>
</mgrwt>
</event>
<event>
 4    1  0.4055965E-007  0.7283466E+03  0.7818608E-02  0.9895294E-01
          1   -1    0    0  501    0  0.00000000000E+00  0.00000000000E+00  0.11056945977E+04  0.11056945977E+04  0.50400000000E-02 0. -1.
         -1   -1    0    0    0  501 -0.00000000000E+00 -0.00000000000E+00 -0.54226336076E+03  0.54226336078E+03  0.50400000000E-02 0.  1.
    8880023    1    1    2    0    0  0.17871632841E+03 -0.25443876460E+03  0.90480645406E+03  0.11615349915E+04  0.65864270000E+03 0. -1.
    8880022    1    1    2    0    0 -0.17871632841E+03  0.25443876460E+03 -0.34137521709E+03  0.48642296700E+03  0.15294330000E+03 0.  0.
<mgrwt>
<rscale>  0 0.60489921E+03</rscale>
<asrwt>0</asrwt>
<pdfrwt beam="1">  1        1 0.17010686E+00 0.72834663E+03</pdfrwt>
<pdfrwt beam="2">  1       -1 0.83425134E-01 0.72834663E+03</pdfrwt>
<totfact> 0.18495782E+01</totfact>
</mgrwt>
</event>
<event>
 4    1  0.4055965E-007  0.9622824E+03  0.7818608E-02  0.9432658E-01
          1   -1    0    0  501    0  0.00000000000E+00  0.00000000000E+00  0.22429503903E+04  0.22429503903E+04  0.50400000000E-02 0. -1.
         -1   -1    0    0    0  501 -0.00000000000E+00 -0.00000000000E+00 -0.42031416198E+03  0.42031416201E+03  0.50400000000E-02 0.  1.
    8880023    1    1    2    0    0 -0.60623332513E+03 -0.35306987040E+03  0.16727024750E+04  0.19297463445E+04  0.65864270000E+03 0.  0.
    8880022    1    1    2    0    0  0.60623332513E+03  0.35306987040E+03  0.14993375335E+03  0.73351820788E+03  0.15294330000E+03 0.  0.
<mgrwt>
<rscale>  0 0.89436075E+03</rscale>
<asrwt>0</asrwt>
<pdfrwt beam="1">  1        1 0.34506930E+00 0.96228238E+03</pdfrwt>
<pdfrwt beam="2">  1       -1 0.64663716E-01 0.96228238E+03</pdfrwt>
<totfact> 0.50361138E+00</totfact>
</mgrwt>
</event>
<event>
 4    1  0.4055965E-007  0.9429905E+03  0.7818608E-02  0.9460272E-01
          1   -1    0    0  501    0  0.00000000000E+00  0.00000000000E+00  0.30897712441E+04  0.30897712441E+04  0.50400000000E-02 0. -1.
         -1   -1    0    0    0  501 -0.00000000000E+00 -0.00000000000E+00 -0.43033403001E+03  0.43033403004E+03  0.50400000000E-02 0.  1.
    8880023    1    1    2    0    0  0.32754724886E+03 -0.59002857632E+03  0.26662647979E+04  0.28281087496E+04  0.65864270000E+03 0. -1.
    8880022    1    1    2    0    0 -0.32754724886E+03  0.59002857632E+03 -0.68275837201E+01  0.69199652457E+03  0.15294330000E+03 0.  0.
<mgrwt>
<rscale>  0 0.87277277E+03</rscale>
<asrwt>0</asrwt>
<pdfrwt beam="1">  1        1 0.47534941E+00 0.94299052E+03</pdfrwt>
<pdfrwt beam="2">  1       -1 0.66205238E-01 0.94299052E+03</pdfrwt>
<totfact> 0.12347765E+00</totfact>
</mgrwt>
</event>
<event>
 4    1  0.4055965E-007  0.8561194E+03  0.7818608E-02  0.9600504E-01
         -1   -1    0    0    0  501 -0.00000000000E+00  0.00000000000E+00  0.83735930444E+03  0.83735930445E+03  0.50400000000E-02 0.  1.
          1   -1    0    0  501    0  0.00000000000E+00 -0.00000000000E+00 -0.80104805008E+03  0.80104805010E+03  0.50400000000E-02 0. -1.
    8880023    1    1    2    0    0  0.23479079603E+03  0.49396710225E+03 -0.37757309841E+03  0.93568256739E+03  0.65864270000E+03 0.  0.
    8880022    1    1    2    0    0 -0.23479079603E+03 -0.49396710225E+03  0.41388435276E+03  0.70272478716E+03  0.15294330000E+03 0.  0.
<mgrwt>
<rscale>  0 0.77262837E+03</rscale>
<asrwt>0</asrwt>
<pdfrwt beam="1">  1        1 0.12323816E+00 0.85611940E+03</pdfrwt>
<pdfrwt beam="2">  1       -1 0.12882451E+00 0.85611940E+03</pdfrwt>
<totfact> 0.11645613E+01</totfact>
</mgrwt>
</event>
<event>
 4    1  0.4055965E-007  0.7746594E+03  0.7818608E-02  0.9768535E-01
         -1   -1    0    0    0  501 -0.00000000000E+00  0.00000000000E+00  0.45524249261E+03  0.45524249264E+03  0.50400000000E-02 0.  1.
          1   -1    0    0  501    0  0.00000000000E+00 -0.00000000000E+00 -0.10652242103E+04  0.10652242103E+04  0.50400000000E-02 0. -1.
    8880023    1    1    2    0    0 -0.27238516179E+02 -0.40687231458E+03 -0.45646986704E+01  0.77467287281E+03  0.65864270000E+03 0. -1.
    8880022    1    1    2    0    0  0.27238516179E+02  0.40687231458E+03 -0.60541701898E+03  0.74579383011E+03  0.15294330000E+03 0.  0.
<mgrwt>
<rscale>  0 0.67078821E+03</rscale>
<asrwt>0</asrwt>
<pdfrwt beam="1">  1        1 0.16388065E+00 0.77465942E+03</pdfrwt>
<pdfrwt beam="2">  1       -1 0.70037307E-01 0.77465942E+03</pdfrwt>
<totfact> 0.28463215E+01</totfact>
</mgrwt>
</event>
<event>
 4    1  0.4055965E-007  0.7909690E+03  0.7818608E-02  0.9730674E-01
         -1   -1    0    0    0  501 -0.00000000000E+00  0.00000000000E+00  0.99489037139E+03  0.99489037141E+03  0.50400000000E-02 0.  1.
          1   -1    0    0  501    0  0.00000000000E+00 -0.00000000000E+00 -0.69485061757E+03  0.69485061759E+03  0.50400000000E-02 0. -1.
    8880023    1    1    2    0    0 -0.11147409130E+03  0.42355073603E+03  0.71581258397E+03  0.10667799964E+04  0.65864270000E+03 0.  0.
    8880022    1    1    2    0    0  0.11147409130E+03 -0.42355073603E+03 -0.41577283015E+03  0.62296099262E+03  0.15294330000E+03 0.  0.
<mgrwt>
<rscale>  0 0.69219464E+03</rscale>
<asrwt>0</asrwt>
<pdfrwt beam="1">  1        1 0.10690010E+00 0.79096897E+03</pdfrwt>
<pdfrwt beam="2">  1       -1 0.15306006E+00 0.79096897E+03</pdfrwt>
<totfact> 0.93349427E+00</totfact>
</mgrwt>
</event>
<event>
 4    1  0.4055965E-007  0.7080438E+03  0.7818608E-02  0.9965338E-01
         -1   -1    0    0    0  501 -0.00000000000E+00  0.00000000000E+00  0.19321939742E+04  0.19321939743E+04  0.50400000000E-02 0.  1.
          1   -1    0    0  501    0  0.00000000000E+00 -0.00000000000E+00 -0.14889020894E+03  0.14889020903E+03  0.50400000000E-02 0. -1.
    8880023    1    1    2    0    0  0.12004142532E+03 -0.23044710595E+03  0.88410021034E+03  0.11326778892E+04  0.65864270000E+03 0. -1.
    8880022    1    1    2    0    0 -0.12004142532E+03  0.23044710595E+03  0.89920355496E+03  0.94840629411E+03  0.15294330000E+03 0.  0.
<mgrwt>
<rscale>  0 0.57196577E+03</rscale>
<asrwt>0</asrwt>
<pdfrwt beam="1">  1        1 0.22906187E-01 0.70804380E+03</pdfrwt>
<pdfrwt beam="2">  1       -1 0.29726060E+00 0.70804380E+03</pdfrwt>
<totfact> 0.79015121E+00</totfact>
</mgrwt>
</event>
<event>
 4    1  0.4055965E-007  0.6839621E+03  0.7818608E-02  0.1007166E+00
          1   -1    0    0  501    0  0.00000000000E+00  0.00000000000E+00  0.10101374974E+04  0.10101374974E+04  0.50400000000E-02 0. -1.
         -1   -1    0    0    0  501 -0.00000000000E+00 -0.00000000000E+00 -0.29526906192E+03  0.29526906196E+03  0.50400000000E-02 0.  1.
    8880023    1    1    2    0    0 -0.18258539730E+03 -0.25622350756E+02  0.79876769386E+03  0.10515864050E+04  0.65864270000E+03 0. -1.
    8880022    1    1    2    0    0  0.18258539730E+03  0.25622350756E+02 -0.83899258420E+02  0.25382015433E+03  0.15294330000E+03 0.  0.
<mgrwt>
<rscale>  0 0.52616793E+03</rscale>
<asrwt>0</asrwt>
<pdfrwt beam="1">  1        1 0.15540577E+00 0.68396209E+03</pdfrwt>
<pdfrwt beam="2">  1       -1 0.45426009E-01 0.68396209E+03</pdfrwt>
<totfact> 0.73483543E+01</totfact>
</mgrwt>
</event>
<event>
 4    1  0.4055965E-007  0.7030759E+03  0.7818608E-02  0.9984673E-01
         -1   -1    0    0    0  501 -0.00000000000E+00  0.00000000000E+00  0.38351351140E+03  0.38351351144E+03  0.50400000000E-02 0.  1.
          1   -1    0    0  501    0  0.00000000000E+00 -0.00000000000E+00 -0.73755166957E+03  0.73755166958E+03  0.50400000000E-02 0. -1.
    8880023    1    1    2    0    0  0.20416695418E+03  0.13719110246E+03 -0.42671521527E+03  0.82243639571E+03  0.65864270000E+03 0.  0.
    8880022    1    1    2    0    0 -0.20416695418E+03 -0.13719110246E+03  0.72677057105E+02  0.29862878531E+03  0.15294330000E+03 0.  0.
<mgrwt>
<rscale>  0 0.56327451E+03</rscale>
<asrwt>0</asrwt>
<pdfrwt beam="1">  1        1 0.11346949E+00 0.70307592E+03</pdfrwt>
<pdfrwt beam="2">  1       -1 0.59002079E-01 0.70307592E+03</pdfrwt>
<totfact> 0.74971340E+01</totfact>
</mgrwt>
</event>
<event>
 4    1  0.4055965E-007  0.8021423E+03  0.7818608E-02  0.9706183E-01
          1   -1    0    0  501    0  0.00000000000E+00  0.00000000000E+00  0.15114702099E+04  0.15114702099E+04  0.50400000000E-02 0. -1.
         -1   -1    0    0    0  501 -0.00000000000E+00 -0.00000000000E+00 -0.38417814097E+03  0.38417814101E+03  0.50400000000E-02 0.  1.
    8880023    1    1    2    0    0 -0.54929506502E+02 -0.45453803928E+03  0.11616770700E+04  0.14117102752E+04  0.65864270000E+03 0.  0.
    8880022    1    1    2    0    0  0.54929506502E+02  0.45453803928E+03 -0.34385001066E+02  0.48393807574E+03  0.15294330000E+03 0.  0.
<mgrwt>
<rscale>  0 0.70649852E+03</rscale>
<asrwt>0</asrwt>
<pdfrwt beam="1">  1        1 0.23253388E+00 0.80214231E+03</pdfrwt>
<pdfrwt beam="2">  1       -1 0.59104328E-01 0.80214231E+03</pdfrwt>
<totfact> 0.19159888E+01</totfact>
</mgrwt>
</event>
<event>
 4    1  0.4055965E-007  0.8728545E+03  0.7818608E-02  0.9571095E-01
          1   -1    0    0  501    0  0.00000000000E+00  0.00000000000E+00  0.97479383047E+03  0.97479383048E+03  0.50400000000E-02 0. -1.
         -1   -1    0    0    0  501 -0.00000000000E+00 -0.00000000000E+00 -0.82855912089E+03  0.82855912090E+03  0.50400000000E-02 0.  1.
    8880023    1    1    2    0    0 -0.42655504427E+03 -0.38225058533E+03  0.59795522145E+03  0.10580290019E+04  0.65864270000E+03 0. -1.
    8880022    1    1    2    0    0  0.42655504427E+03  0.38225058533E+03 -0.45172051187E+03  0.74532394946E+03  0.15294330000E+03 0.  0.
<mgrwt>
<rscale>  0 0.79239241E+03</rscale>
<asrwt>0</asrwt>
<pdfrwt beam="1">  1        1 0.14996828E+00 0.87285447E+03</pdfrwt>
<pdfrwt beam="2">  1       -1 0.12747063E+00 0.87285447E+03</pdfrwt>
<totfact> 0.85812424E+00</totfact>
</mgrwt>
</event>
<event>
 4    1  0.4055965E-007  0.7866535E+03  0.7818608E-02  0.9740434E-01
          1   -1    0    0  501    0  0.00000000000E+00  0.00000000000E+00  0.22929133425E+04  0.22929133425E+04  0.50400000000E-02 0. -1.
         -1   -1    0    0    0  501 -0.00000000000E+00 -0.00000000000E+00 -0.23606830373E+03  0.23606830378E+03  0.50400000000E-02 0.  1.
    8880023    1    1    2    0    0  0.39356877323E+03 -0.17354314108E+03  0.18825990244E+04  0.20403438176E+04  0.65864270000E+03 0. -1.
    8880022    1    1    2    0    0 -0.39356877323E+03  0.17354314108E+03  0.17424601437E+03  0.48863782868E+03  0.15294330000E+03 0.  0.
<mgrwt>
<rscale>  0 0.68659591E+03</rscale>
<asrwt>0</asrwt>
<pdfrwt beam="1">  1        1 0.35275590E+00 0.78665355E+03</pdfrwt>
<pdfrwt beam="2">  1       -1 0.36318200E-01 0.78665355E+03</pdfrwt>
<totfact> 0.14236009E+01</totfact>
</mgrwt>
</event>
<event>
 4    1  0.4055965E-007  0.8983270E+03  0.7818608E-02  0.9528723E-01
         -1   -1    0    0    0  501 -0.00000000000E+00  0.00000000000E+00  0.95382266591E+03  0.95382266592E+03  0.50400000000E-02 0.  1.
          1   -1    0    0  501    0  0.00000000000E+00 -0.00000000000E+00 -0.12903927193E+04  0.12903927193E+04  0.50400000000E-02 0. -1.
    8880023    1    1    2    0    0 -0.31448485462E+03 -0.52371796202E+03  0.62530439355E+03  0.10945305014E+04  0.65864270000E+03 0.  1.
    8880022    1    1    2    0    0  0.31448485462E+03  0.52371796202E+03 -0.96187444695E+03  0.11496848839E+04  0.15294330000E+03 0.  0.
<mgrwt>
<rscale>  0 0.82198941E+03</rscale>
<asrwt>0</asrwt>
<pdfrwt beam="1">  1        1 0.19852196E+00 0.89832702E+03</pdfrwt>
<pdfrwt beam="2">  1       -1 0.14674195E+00 0.89832702E+03</pdfrwt>
<totfact> 0.34611256E+00</totfact>
</mgrwt>
</event>
<event>
 4    1  0.4055965E-007  0.1015308E+04  0.7818608E-02  0.9361799E-01
         -1   -1    0    0    0  501 -0.00000000000E+00  0.00000000000E+00  0.89403528491E+03  0.89403528492E+03  0.50400000000E-02 0.  1.
          1   -1    0    0  501    0  0.00000000000E+00 -0.00000000000E+00 -0.13267486267E+04  0.13267486267E+04  0.50400000000E-02 0. -1.
    8880023    1    1    2    0    0  0.10606536777E+03 -0.76536885589E+03 -0.85472735984E+03  0.13271806259E+04  0.65864270000E+03 0.  0.
    8880022    1    1    2    0    0 -0.10606536777E+03  0.76536885589E+03  0.42201401806E+03  0.89360328573E+03  0.15294330000E+03 0.  0.
<mgrwt>
<rscale>  0 0.95287278E+03</rscale>
<asrwt>0</asrwt>
<pdfrwt beam="1">  1        1 0.20411517E+00 0.10153076E+04</pdfrwt>
<pdfrwt beam="2">  1       -1 0.13754389E+00 0.10153076E+04</pdfrwt>
<totfact> 0.38082144E+00</totfact>
</mgrwt>
</event>
<event>
 4    1  0.4055965E-007  0.6878423E+03  0.7818608E-02  0.1005195E+00
         -1   -1    0    0    0  501 -0.00000000000E+00  0.00000000000E+00  0.54376466155E+03  0.54376466157E+03  0.50400000000E-02 0.  1.
          1   -1    0    0  501    0  0.00000000000E+00 -0.00000000000E+00 -0.23045851561E+04  0.23045851561E+04  0.50400000000E-02 0. -1.
    8880023    1    1    2    0    0 -0.19304844284E+03  0.45266982273E+02 -0.22206584413E+04  0.23247474960E+04  0.65864270000E+03 0. -1.
    8880022    1    1    2    0    0  0.19304844284E+03 -0.45266982273E+02  0.45983794676E+03  0.52360232167E+03  0.15294330000E+03 0.  0.
<mgrwt>
<rscale>  0 0.53429660E+03</rscale>
<asrwt>0</asrwt>
<pdfrwt beam="1">  1        1 0.35455156E+00 0.68784228E+03</pdfrwt>
<pdfrwt beam="2">  1       -1 0.83656103E-01 0.68784228E+03</pdfrwt>
<totfact> 0.28069006E+00</totfact>
</mgrwt>
</event>
<event>
 4    1  0.4055965E-007  0.8484765E+03  0.7818608E-02  0.9614400E-01
          1   -1    0    0  501    0  0.00000000000E+00  0.00000000000E+00  0.12239252577E+04  0.12239252577E+04  0.50400000000E-02 0. -1.
         -1   -1    0    0    0  501 -0.00000000000E+00 -0.00000000000E+00 -0.41538479417E+03  0.41538479420E+03  0.50400000000E-02 0.  1.
    8880023    1    1    2    0    0  0.89386864531E+02  0.52736333187E+03  0.62382703992E+03  0.10531251005E+04  0.65864270000E+03 0. -1.
    8880022    1    1    2    0    0 -0.89386864531E+02 -0.52736333187E+03  0.18471342360E+03  0.58618495138E+03  0.15294330000E+03 0.  0.
<mgrwt>
<rscale>  0 0.76350403E+03</rscale>
<asrwt>0</asrwt>
<pdfrwt beam="1">  1        1 0.18829619E+00 0.84847646E+03</pdfrwt>
<pdfrwt beam="2">  1       -1 0.63905353E-01 0.84847646E+03</pdfrwt>
<totfact> 0.25963007E+01</totfact>
</mgrwt>
</event>
<event>
 4    1  0.4055965E-007  0.6898705E+03  0.7818608E-02  0.1004214E+00
         -1   -1    0    0    0  501 -0.00000000000E+00  0.00000000000E+00  0.78853613134E+02  0.78853613296E+02  0.50400000000E-02 0.  1.
          1   -1    0    0  501    0  0.00000000000E+00 -0.00000000000E+00 -0.28446404300E+04  0.28446404300E+04  0.50400000000E-02 0. -1.
    8880023    1    1    2    0    0  0.16230311836E+03 -0.12557402536E+03 -0.19442844567E+04  0.20630471136E+04  0.65864270000E+03 0.  0.
    8880022    1    1    2    0    0 -0.16230311836E+03  0.12557402536E+03 -0.82150236020E+03  0.86044692974E+03  0.15294330000E+03 0.  1.
<mgrwt>
<rscale>  0 0.53840387E+03</rscale>
<asrwt>0</asrwt>
<pdfrwt beam="1">  1        1 0.43763691E+00 0.68987053E+03</pdfrwt>
<pdfrwt beam="2">  1       -1 0.12131327E-01 0.68987053E+03</pdfrwt>
<totfact> 0.38118202E+01</totfact>
</mgrwt>
</event>
<event>
 4    1  0.4055965E-007  0.9308894E+03  0.7818608E-02  0.9478160E-01
          1   -1    0    0  501    0  0.00000000000E+00  0.00000000000E+00  0.10230461391E+04  0.10230461391E+04  0.50400000000E-02 0. -1.
         -1   -1    0    0    0  501 -0.00000000000E+00 -0.00000000000E+00 -0.14548732632E+04  0.14548732632E+04  0.50400000000E-02 0.  1.
    8880023    1    1    2    0    0  0.51738679083E+03 -0.40627067087E+03 -0.11582975372E+04  0.14860041522E+04  0.65864270000E+03 0.  1.
    8880022    1    1    2    0    0 -0.51738679083E+03  0.40627067087E+03  0.72647041309E+03  0.99191525013E+03  0.15294330000E+03 0.  0.
<mgrwt>
<rscale>  0 0.85913309E+03</rscale>
<asrwt>0</asrwt>
<pdfrwt beam="1">  1        1 0.15739171E+00 0.93088944E+03</pdfrwt>
<pdfrwt beam="2">  1       -1 0.22382666E+00 0.93088944E+03</pdfrwt>
<totfact> 0.15303112E+00</totfact>
</mgrwt>
</event>
<event>
 4    1  0.4055965E-007  0.8406764E+03  0.7818608E-02  0.9628906E-01
         -1   -1    0    0    0  501 -0.00000000000E+00  0.00000000000E+00  0.63575471388E+03  0.63575471390E+03  0.50400000000E-02 0.  1.
          1   -1    0    0  501    0  0.00000000000E+00 -0.00000000000E+00 -0.22896470412E+04  0.22896470412E+04  0.50400000000E-02 0. -1.
    8880023    1    1    2    0    0  0.51022183595E+03  0.11225088152E+03 -0.20739266679E+04  0.22378356982E+04  0.65864270000E+03 0.  0.
    8880022    1    1    2    0    0 -0.51022183595E+03 -0.11225088152E+03  0.42003434057E+03  0.68756605687E+03  0.15294330000E+03 0.  0.
<mgrwt>
<rscale>  0 0.75412169E+03</rscale>
<asrwt>0</asrwt>
<pdfrwt beam="1">  1        1 0.35225339E+00 0.84067639E+03</pdfrwt>
<pdfrwt beam="2">  1       -1 0.97808419E-01 0.84067639E+03</pdfrwt>
<totfact> 0.19758815E+00</totfact>
</mgrwt>
</event>
<event>
 4    1  0.4055965E-007  0.7346576E+03  0.7818608E-02  0.9875792E-01
          1   -1    0    0  501    0  0.00000000000E+00  0.00000000000E+00  0.41364061498E+03  0.41364061501E+03  0.50400000000E-02 0. -1.
         -1   -1    0    0    0  501 -0.00000000000E+00 -0.00000000000E+00 -0.81983238771E+03  0.81983238773E+03  0.50400000000E-02 0.  1.
    8880023    1    1    2    0    0  0.24401408808E+03 -0.21533384412E+03 -0.64585382402E+02  0.73749102875E+03  0.65864270000E+03 0.  0.
    8880022    1    1    2    0    0 -0.24401408808E+03  0.21533384412E+03 -0.34160639033E+03  0.49598197399E+03  0.15294330000E+03 0.  0.
<mgrwt>
<rscale>  0 0.61449008E+03</rscale>
<asrwt>0</asrwt>
<pdfrwt beam="1">  1        1 0.63637018E-01 0.73465757E+03</pdfrwt>
<pdfrwt beam="2">  1       -1 0.12612806E+00 0.73465757E+03</pdfrwt>
<totfact> 0.32162573E+01</totfact>
</mgrwt>
</event>
<event>
 4    1  0.4055965E-007  0.6901306E+03  0.7818608E-02  0.1004091E+00
         -1   -1    0    0    0  501 -0.00000000000E+00  0.00000000000E+00  0.20833610388E+04  0.20833610388E+04  0.50400000000E-02 0.  1.
          1   -1    0    0  501    0  0.00000000000E+00 -0.00000000000E+00 -0.19360984095E+03  0.19360984101E+03  0.50400000000E-02 0. -1.
    8880023    1    1    2    0    0  0.50402723156E+02  0.19982403347E+03  0.47181237213E+03  0.83599473659E+03  0.65864270000E+03 0. -1.
    8880022    1    1    2    0    0 -0.50402723156E+02 -0.19982403347E+03  0.14179388257E+04  0.14409761433E+04  0.15294330000E+03 0.  0.
<mgrwt>
<rscale>  0 0.53892412E+03</rscale>
<asrwt>0</asrwt>
<pdfrwt beam="1">  1        1 0.29786130E-01 0.69013063E+03</pdfrwt>
<pdfrwt beam="2">  1       -1 0.32051708E+00 0.69013063E+03</pdfrwt>
<totfact> 0.39906162E+00</totfact>
</mgrwt>
</event>
<event>
 4    1  0.4055965E-007  0.8146173E+03  0.7818608E-02  0.9680038E-01
         -1   -1    0    0    0  501 -0.00000000000E+00  0.00000000000E+00  0.14346433366E+04  0.14346433366E+04  0.50400000000E-02 0.  1.
          1   -1    0    0  501    0  0.00000000000E+00 -0.00000000000E+00 -0.11521794562E+04  0.11521794562E+04  0.50400000000E-02 0. -1.
    8880023    1    1    2    0    0  0.25877877347E+03  0.40351543222E+03 -0.95246920655E+03  0.12533151851E+04  0.65864270000E+03 0. -1.
    8880022    1    1    2    0    0 -0.25877877347E+03 -0.40351543222E+03  0.12349330869E+04  0.13335076077E+04  0.15294330000E+03 0.  0.
<mgrwt>
<rscale>  0 0.72217841E+03</rscale>
<asrwt>0</asrwt>
<pdfrwt beam="1">  1        1 0.17725838E+00 0.81461731E+03</pdfrwt>
<pdfrwt beam="2">  1       -1 0.22071436E+00 0.81461731E+03</pdfrwt>
<totfact> 0.13072506E+00</totfact>
</mgrwt>
</event>
<event>
 4    1  0.4055965E-007  0.8903019E+03  0.7818608E-02  0.9541783E-01
         -1   -1    0    0    0  501 -0.00000000000E+00  0.00000000000E+00  0.49664145368E+03  0.49664145371E+03  0.50400000000E-02 0.  1.
          1   -1    0    0  501    0  0.00000000000E+00 -0.00000000000E+00 -0.29245637000E+04  0.29245637000E+04  0.50400000000E-02 0. -1.
    8880023    1    1    2    0    0  0.27638872199E+03  0.53144767246E+03 -0.26253556926E+04  0.27722067155E+04  0.65864270000E+03 0.  0.
    8880022    1    1    2    0    0 -0.27638872199E+03 -0.53144767246E+03  0.19743344625E+03  0.64899843830E+03  0.15294330000E+03 0.  0.
<mgrwt>
<rscale>  0 0.81272202E+03</rscale>
<asrwt>0</asrwt>
<pdfrwt beam="1">  1        1 0.44993287E+00 0.89030195E+03</pdfrwt>
<pdfrwt beam="2">  1       -1 0.76406379E-01 0.89030195E+03</pdfrwt>
<totfact> 0.12198563E+00</totfact>
</mgrwt>
</event>
<event>
 4    1  0.4055965E-007  0.1164971E+04  0.7818608E-02  0.9191949E-01
         -1   -1    0    0    0  501 -0.00000000000E+00  0.00000000000E+00  0.12417391578E+04  0.12417391578E+04  0.50400000000E-02 0.  1.
          1   -1    0    0  501    0  0.00000000000E+00 -0.00000000000E+00 -0.95442550934E+03  0.95442550935E+03  0.50400000000E-02 0. -1.
    8880023    1    1    2    0    0 -0.90867651641E+03  0.31249510245E+03  0.36301484448E+03  0.12202197278E+04  0.65864270000E+03 0.  0.
    8880022    1    1    2    0    0  0.90867651641E+03 -0.31249510245E+03 -0.75701196044E+02  0.97594493934E+03  0.15294330000E+03 0.  0.
<mgrwt>
<rscale>  0 0.11136916E+04</rscale>
<asrwt>0</asrwt>
<pdfrwt beam="1">  1        1 0.14683469E+00 0.11649706E+04</pdfrwt>
<pdfrwt beam="2">  1       -1 0.19103679E+00 0.11649706E+04</pdfrwt>
<totfact> 0.28138780E+00</totfact>
</mgrwt>
</event>
<event>
 4    1  0.4055965E-007  0.1334919E+04  0.7818608E-02  0.9035976E-01
         -1   -1    0    0    0  501 -0.00000000000E+00  0.00000000000E+00  0.11351979412E+04  0.11351979412E+04  0.50400000000E-02 0.  1.
          1   -1    0    0  501    0  0.00000000000E+00 -0.00000000000E+00 -0.19591200305E+04  0.19591200305E+04  0.50400000000E-02 0. -1.
    8880023    1    1    2    0    0  0.60471604837E+03  0.99122057062E+03 -0.12686245143E+04  0.18415803222E+04  0.65864270000E+03 0. -1.
    8880022    1    1    2    0    0 -0.60471604837E+03 -0.99122057062E+03  0.44470242496E+03  0.12527376495E+04  0.15294330000E+03 0.  0.
<mgrwt>
<rscale>  0 0.12919461E+04</rscale>
<asrwt>0</asrwt>
<pdfrwt beam="1">  1        1 0.30140308E+00 0.13349194E+04</pdfrwt>
<pdfrwt beam="2">  1       -1 0.17464584E+00 0.13349194E+04</pdfrwt>
<totfact> 0.69762727E-01</totfact>
</mgrwt>
</event>
<event>
 4    1  0.4055965E-007  0.7114204E+03  0.7818608E-02  0.9952764E-01
         -1   -1    0    0    0  501 -0.00000000000E+00  0.00000000000E+00  0.31951749984E+03  0.31951749988E+03  0.50400000000E-02 0.  1.
          1   -1    0    0  501    0  0.00000000000E+00 -0.00000000000E+00 -0.15275347252E+04  0.15275347252E+04  0.50400000000E-02 0. -1.
    8880023    1    1    2    0    0  0.22824364605E+03  0.14217471650E+03 -0.13349384340E+04  0.15126730119E+04  0.65864270000E+03 0. -1.
    8880022    1    1    2    0    0 -0.22824364605E+03 -0.14217471650E+03  0.12692120869E+03  0.33437921317E+03  0.15294330000E+03 0.  0.
<mgrwt>
<rscale>  0 0.57770883E+03</rscale>
<asrwt>0</asrwt>
<pdfrwt beam="1">  1        1 0.23500534E+00 0.71142042E+03</pdfrwt>
<pdfrwt beam="2">  1       -1 0.49156539E-01 0.71142042E+03</pdfrwt>
<totfact> 0.26944926E+01</totfact>
</mgrwt>
</event>
<event>
 4    1  0.4055965E-007  0.6754776E+03  0.7818608E-02  0.1012007E+00
          1   -1    0    0  501    0  0.00000000000E+00  0.00000000000E+00  0.42201818783E+03  0.42201818786E+03  0.50400000000E-02 0. -1.
         -1   -1    0    0    0  501 -0.00000000000E+00 -0.00000000000E+00 -0.10253685529E+04  0.10253685529E+04  0.50400000000E-02 0.  1.
    8880023    1    1    2    0    0 -0.48101233043E+02  0.14193672987E+03  0.12610863760E+03  0.68714871654E+03  0.65864270000E+03 0. -1.
    8880022    1    1    2    0    0  0.48101233043E+02 -0.14193672987E+03 -0.72945900262E+03  0.76023802419E+03  0.15294330000E+03 0.  0.
<mgrwt>
<rscale>  0 0.50684749E+03</rscale>
<asrwt>0</asrwt>
<pdfrwt beam="1">  1        1 0.64925876E-01 0.67547759E+03</pdfrwt>
<pdfrwt beam="2">  1       -1 0.15774901E+00 0.67547759E+03</pdfrwt>
<totfact> 0.17579148E+01</totfact>
</mgrwt>
</event>
<event>
 4    1  0.4055965E-007  0.9238715E+03  0.7818608E-02  0.9488748E-01
         -1   -1    0    0    0  501 -0.00000000000E+00  0.00000000000E+00  0.59203969837E+03  0.59203969839E+03  0.50400000000E-02 0.  1.
          1   -1    0    0  501    0  0.00000000000E+00 -0.00000000000E+00 -0.16324781131E+04  0.16324781131E+04  0.50400000000E-02 0. -1.
    8880023    1    1    2    0    0 -0.63431028944E+03  0.13182836345E+03 -0.12244415787E+04  0.15338825401E+04  0.65864270000E+03 0.  0.
    8880022    1    1    2    0    0  0.63431028944E+03 -0.13182836345E+03  0.18400316405E+03  0.69063527139E+03  0.15294330000E+03 0.  0.
<mgrwt>
<rscale>  0 0.85118472E+03</rscale>
<asrwt>0</asrwt>
<pdfrwt beam="1">  1        1 0.25115048E+00 0.92387146E+03</pdfrwt>
<pdfrwt beam="2">  1       -1 0.91083031E-01 0.92387146E+03</pdfrwt>
<totfact> 0.63392467E+00</totfact>
</mgrwt>
</event>
<event>
 4    1  0.4055965E-007  0.7915020E+03  0.7818608E-02  0.9729481E-01
          1   -1    0    0  501    0  0.00000000000E+00  0.00000000000E+00  0.22628025013E+04  0.22628025013E+04  0.50400000000E-02 0. -1.
         -1   -1    0    0    0  501 -0.00000000000E+00 -0.00000000000E+00 -0.23051303534E+03  0.23051303539E+03  0.50400000000E-02 0.  1.
    8880023    1    1    2    0    0 -0.78389295807E+02 -0.43187991476E+03  0.18152833328E+04  0.19803355592E+04  0.65864270000E+03 0.  0.
    8880022    1    1    2    0    0  0.78389295807E+02  0.43187991476E+03  0.21700613318E+03  0.51297997750E+03  0.15294330000E+03 0.  0.
<mgrwt>
<rscale>  0 0.69288313E+03</rscale>
<asrwt>0</asrwt>
<pdfrwt beam="1">  1        1 0.34812346E+00 0.79150196E+03</pdfrwt>
<pdfrwt beam="2">  1       -1 0.35463544E-01 0.79150196E+03</pdfrwt>
<totfact> 0.15556117E+01</totfact>
</mgrwt>
</event>
<event>
 4    1  0.4055965E-007  0.6703758E+03  0.7818608E-02  0.1015395E+00
          1   -1    0    0  501    0  0.00000000000E+00  0.00000000000E+00  0.40963483442E+03  0.40963483445E+03  0.50400000000E-02 0. -1.
         -1   -1    0    0    0  501 -0.00000000000E+00 -0.00000000000E+00 -0.60327640824E+03  0.60327640827E+03  0.50400000000E-02 0.  1.
    8880023    1    1    2    0    0  0.71334878399E+02 -0.10249329358E+03  0.80365754785E+02  0.67517582963E+03  0.65864270000E+03 0. -1.
    8880022    1    1    2    0    0 -0.71334878399E+02  0.10249329358E+03 -0.27400732861E+03  0.33773541309E+03  0.15294330000E+03 0.  0.
<mgrwt>
<rscale>  0 0.49385701E+03</rscale>
<asrwt>0</asrwt>
<pdfrwt beam="1">  1        1 0.63020744E-01 0.67037582E+03</pdfrwt>
<pdfrwt beam="2">  1       -1 0.92811755E-01 0.67037582E+03</pdfrwt>
<totfact> 0.67256954E+01</totfact>
</mgrwt>
</event>
<event>
 4    1  0.4055965E-007  0.7112118E+03  0.7818608E-02  0.9953528E-01
          1   -1    0    0  501    0  0.00000000000E+00  0.00000000000E+00  0.13247045974E+04  0.13247045974E+04  0.50400000000E-02 0. -1.
         -1   -1    0    0    0  501 -0.00000000000E+00 -0.00000000000E+00 -0.48239695083E+03  0.48239695086E+03  0.50400000000E-02 0.  1.
    8880023    1    1    2    0    0 -0.45702203812E+02 -0.26443015088E+03  0.11621249366E+04  0.13624817689E+04  0.65864270000E+03 0. -1.
    8880022    1    1    2    0    0  0.45702203812E+02  0.26443015088E+03 -0.31981729006E+03  0.44461977932E+03  0.15294330000E+03 0.  0.
<mgrwt>
<rscale>  0 0.57735753E+03</rscale>
<asrwt>0</asrwt>
<pdfrwt beam="1">  1        1 0.20380070E+00 0.71121178E+03</pdfrwt>
<pdfrwt beam="2">  1       -1 0.74214916E-01 0.71121178E+03</pdfrwt>
<totfact> 0.16495133E+01</totfact>
</mgrwt>
</event>
<event>
 4    1  0.4055965E-007  0.9434396E+03  0.7818608E-02  0.9459617E-01
         -1   -1    0    0    0  501 -0.00000000000E+00  0.00000000000E+00  0.11510041737E+04  0.11510041737E+04  0.50400000000E-02 0.  1.
          1   -1    0    0  501    0  0.00000000000E+00 -0.00000000000E+00 -0.10600283889E+04  0.10600283889E+04  0.50400000000E-02 0. -1.
    8880023    1    1    2    0    0 -0.29401098462E+02 -0.67483597994E+03 -0.68877827447E+03  0.11681154661E+04  0.65864270000E+03 0.  0.
    8880022    1    1    2    0    0  0.29401098462E+02  0.67483597994E+03  0.77975405921E+03  0.10429170966E+04  0.15294330000E+03 0.  0.
<mgrwt>
<rscale>  0 0.87327740E+03</rscale>
<asrwt>0</asrwt>
<pdfrwt beam="1">  1        1 0.16308129E+00 0.94343957E+03</pdfrwt>
<pdfrwt beam="2">  1       -1 0.17707757E+00 0.94343957E+03</pdfrwt>
<totfact> 0.30024141E+00</totfact>
</mgrwt>
</event>
<event>
 4    1  0.4055965E-007  0.8566245E+03  0.7818608E-02  0.9599596E-01
          1   -1    0    0  501    0  0.00000000000E+00  0.00000000000E+00  0.29513922411E+04  0.29513922411E+04  0.50400000000E-02 0. -1.
         -1   -1    0    0    0  501 -0.00000000000E+00 -0.00000000000E+00 -0.25202337474E+03  0.25202337479E+03  0.50400000000E-02 0.  1.
    8880023    1    1    2    0    0 -0.43505169437E+03 -0.33275414362E+03  0.24253198826E+04  0.25721551345E+04  0.65864270000E+03 0. -1.
    8880022    1    1    2    0    0  0.43505169437E+03  0.33275414362E+03  0.27404898382E+03  0.63126048143E+03  0.15294330000E+03 0.  0.
<mgrwt>
<rscale>  0 0.77322907E+03</rscale>
<asrwt>0</asrwt>
<pdfrwt beam="1">  1        1 0.45406034E+00 0.85662448E+03</pdfrwt>
<pdfrwt beam="2">  1       -1 0.38772827E-01 0.85662448E+03</pdfrwt>
<totfact> 0.43824015E+00</totfact>
</mgrwt>
</event>
<event>
 4    1  0.4055965E-007  0.7602528E+03  0.7818608E-02  0.9804454E-01
          1   -1    0    0  501    0  0.00000000000E+00  0.00000000000E+00  0.56110421468E+03  0.56110421471E+03  0.50400000000E-02 0. -1.
         -1   -1    0    0    0  501 -0.00000000000E+00 -0.00000000000E+00 -0.11409487017E+04  0.11409487017E+04  0.50400000000E-02 0.  1.
    8880023    1    1    2    0    0 -0.34328825476E+03 -0.16225671773E+03  0.23029533583E+03  0.79436780919E+03  0.65864270000E+03 0.  0.
    8880022    1    1    2    0    0  0.34328825476E+03  0.16225671773E+03 -0.81013982282E+03  0.90768510721E+03  0.15294330000E+03 0.  0.
<mgrwt>
<rscale>  0 0.65124088E+03</rscale>
<asrwt>0</asrwt>
<pdfrwt beam="1">  1        1 0.86323725E-01 0.76025277E+03</pdfrwt>
<pdfrwt beam="2">  1       -1 0.17553057E+00 0.76025277E+03</pdfrwt>
<totfact> 0.87090058E+00</totfact>
</mgrwt>
</event>
<event>
 4    1  0.4055965E-007  0.7006348E+03  0.7818608E-02  0.9994578E-01
          1   -1    0    0  501    0  0.00000000000E+00  0.00000000000E+00  0.25310475734E+04  0.25310475734E+04  0.50400000000E-02 0. -1.
         -1   -1    0    0    0  501 -0.00000000000E+00 -0.00000000000E+00 -0.13307039921E+03  0.13307039930E+03  0.50400000000E-02 0.  1.
    8880023    1    1    2    0    0 -0.19674331441E+03 -0.13553952952E+03  0.22230518352E+04  0.23308471773E+04  0.65864270000E+03 0. -1.
    8880022    1    1    2    0    0  0.19674331441E+03  0.13553952952E+03  0.17492533903E+03  0.33327079541E+03  0.15294330000E+03 0.  0.
<mgrwt>
<rscale>  0 0.55888621E+03</rscale>
<asrwt>0</asrwt>
<pdfrwt beam="1">  1        1 0.38939192E+00 0.70063479E+03</pdfrwt>
<pdfrwt beam="2">  1       -1 0.20472370E-01 0.70063479E+03</pdfrwt>
<totfact> 0.26713703E+01</totfact>
</mgrwt>
</event>
<event>
 4    1  0.4055965E-007  0.6606877E+03  0.7818608E-02  0.1023463E+00
         -1   -1    0    0    0  501 -0.00000000000E+00  0.00000000000E+00  0.38802849172E+03  0.38802849176E+03  0.50400000000E-02 0.  1.
          1   -1    0    0  501    0  0.00000000000E+00 -0.00000000000E+00 -0.77733375673E+03  0.77733375674E+03  0.50400000000E-02 0. -1.
    8880023    1    1    2    0    0 -0.50319975092E+02  0.12881017651E+02 -0.60503415737E+03  0.89586525681E+03  0.65864270000E+03 0. -1.
    8880022    1    1    2    0    0  0.50319975092E+02 -0.12881017651E+02  0.21572889237E+03  0.26949699169E+03  0.15294330000E+03 0.  0.
<mgrwt>
<rscale>  0 0.46457490E+03</rscale>
<asrwt>0</asrwt>
<pdfrwt beam="1">  1        1 0.11958981E+00 0.66068769E+03</pdfrwt>
<pdfrwt beam="2">  1       -1 0.59696691E-01 0.66068769E+03</pdfrwt>
<totfact> 0.67787084E+01</totfact>
</mgrwt>
</event>
<event>
 4    1  0.4055965E-007  0.1078289E+04  0.7818608E-02  0.9285622E-01
         -1   -1    0    0    0  501 -0.00000000000E+00  0.00000000000E+00  0.25228259100E+04  0.25228259100E+04  0.50400000000E-02 0.  1.
          1   -1    0    0  501    0  0.00000000000E+00 -0.00000000000E+00 -0.89887820939E+03  0.89887820941E+03  0.50400000000E-02 0. -1.
    8880023    1    1    2    0    0  0.81760378480E+03  0.24580698363E+03 -0.45402775846E+03  0.11699779630E+04  0.65864270000E+03 0.  0.
    8880022    1    1    2    0    0 -0.81760378480E+03 -0.24580698363E+03  0.20779754591E+04  0.22517261565E+04  0.15294330000E+03 0.  0.
<mgrwt>
<rscale>  0 0.10211733E+04</rscale>
<asrwt>0</asrwt>
<pdfrwt beam="1">  1        1 0.13828896E+00 0.10782890E+04</pdfrwt>
<pdfrwt beam="2">  1       -1 0.38812706E+00 0.10782890E+04</pdfrwt>
<totfact> 0.15889586E-01</totfact>
</mgrwt>
</event>
<event>
 4    1  0.4055965E-007  0.8440069E+03  0.7818608E-02  0.9622671E-01
         -1   -1    0    0    0  501 -0.00000000000E+00  0.00000000000E+00  0.60300454473E+03  0.60300454475E+03  0.50400000000E-02 0.  1.
          1   -1    0    0  501    0  0.00000000000E+00 -0.00000000000E+00 -0.10968836938E+04  0.10968836938E+04  0.50400000000E-02 0. -1.
    8880023    1    1    2    0    0 -0.50602738184E+03 -0.14991241802E+03 -0.71640288403E+03  0.11070595028E+04  0.65864270000E+03 0. -1.
    8880022    1    1    2    0    0  0.50602738184E+03  0.14991241802E+03  0.22252373500E+03  0.59282873572E+03  0.15294330000E+03 0.  0.
<mgrwt>
<rscale>  0 0.75813687E+03</rscale>
<asrwt>0</asrwt>
<pdfrwt beam="1">  1        1 0.16875134E+00 0.84400690E+03</pdfrwt>
<pdfrwt beam="2">  1       -1 0.92769930E-01 0.84400690E+03</pdfrwt>
<totfact> 0.14679690E+01</totfact>
</mgrwt>
</event>
<event>
 4    1  0.4055965E-007  0.7080739E+03  0.7818608E-02  0.9965224E-01
         -1   -1    0    0    0  501 -0.00000000000E+00  0.00000000000E+00  0.38242182689E+03  0.38242182693E+03  0.50400000000E-02 0.  1.
          1   -1    0    0  501    0  0.00000000000E+00 -0.00000000000E+00 -0.12270850410E+04  0.12270850410E+04  0.50400000000E-02 0. -1.
    8880023    1    1    2    0    0 -0.15894362362E+03  0.20565841122E+03 -0.10341571894E+04  0.12533354524E+04  0.65864270000E+03 0. -1.
    8880022    1    1    2    0    0  0.15894362362E+03 -0.20565841122E+03  0.18949397525E+03  0.35617141557E+03  0.15294330000E+03 0.  0.
<mgrwt>
<rscale>  0 0.57201754E+03</rscale>
<asrwt>0</asrwt>
<pdfrwt beam="1">  1        1 0.18878231E+00 0.70807391E+03</pdfrwt>
<pdfrwt beam="2">  1       -1 0.58834128E-01 0.70807391E+03</pdfrwt>
<totfact> 0.30914689E+01</totfact>
</mgrwt>
</event>
<event>
 4    1  0.4055965E-007  0.9193945E+03  0.7818608E-02  0.9495588E-01
         -1   -1    0    0    0  501 -0.00000000000E+00  0.00000000000E+00  0.10781587979E+04  0.10781587980E+04  0.50400000000E-02 0.  1.
          1   -1    0    0  501    0  0.00000000000E+00 -0.00000000000E+00 -0.77936085446E+03  0.77936085448E+03  0.50400000000E-02 0. -1.
    8880023    1    1    2    0    0 -0.62959925623E+03  0.12280371466E+03  0.63495048925E+03  0.11173398345E+04  0.65864270000E+03 0.  1.
    8880022    1    1    2    0    0  0.62959925623E+03 -0.12280371466E+03 -0.33615254577E+03  0.74017981789E+03  0.15294330000E+03 0.  0.
<mgrwt>
<rscale>  0 0.84609874E+03</rscale>
<asrwt>0</asrwt>
<pdfrwt beam="1">  1        1 0.11990167E+00 0.91939446E+03</pdfrwt>
<pdfrwt beam="2">  1       -1 0.16587058E+00 0.91939446E+03</pdfrwt>
<totfact> 0.61575288E+00</totfact>
</mgrwt>
</event>
<event>
 4    1  0.4055965E-007  0.8528814E+03  0.7818608E-02  0.9606354E-01
         -1   -1    0    0    0  501 -0.00000000000E+00  0.00000000000E+00  0.57324903313E+03  0.57324903315E+03  0.50400000000E-02 0.  1.
          1   -1    0    0  501    0  0.00000000000E+00 -0.00000000000E+00 -0.21116679121E+04  0.21116679121E+04  0.50400000000E-02 0. -1.
    8880023    1    1    2    0    0 -0.30029445768E+03  0.45102066948E+03 -0.18530851129E+04  0.20399340792E+04  0.65864270000E+03 0. -1.
    8880022    1    1    2    0    0  0.30029445768E+03 -0.45102066948E+03  0.31466623398E+03  0.64498286600E+03  0.15294330000E+03 0.  0.
<mgrwt>
<rscale>  0 0.76877071E+03</rscale>
<asrwt>0</asrwt>
<pdfrwt beam="1">  1        1 0.32487198E+00 0.85288136E+03</pdfrwt>
<pdfrwt beam="2">  1       -1 0.88192160E-01 0.85288136E+03</pdfrwt>
<totfact> 0.32721881E+00</totfact>
</mgrwt>
</event>
<event>
 4    1  0.4055965E-007  0.7784697E+03  0.7818608E-02  0.9759444E-01
         -1   -1    0    0    0  501 -0.00000000000E+00  0.00000000000E+00  0.69158192423E+03  0.69158192425E+03  0.50400000000E-02 0.  1.
          1   -1    0    0  501    0  0.00000000000E+00 -0.00000000000E+00 -0.76374308205E+03  0.76374308207E+03  0.50400000000E-02 0. -1.
    8880023    1    1    2    0    0  0.35443499727E+03 -0.21582556227E+03 -0.42738085634E+03  0.88807062965E+03  0.65864270000E+03 0.  0.
    8880022    1    1    2    0    0 -0.35443499727E+03  0.21582556227E+03  0.35521969852E+03  0.56725437667E+03  0.15294330000E+03 0.  0.
<mgrwt>
<rscale>  0 0.67585170E+03</rscale>
<asrwt>0</asrwt>
<pdfrwt beam="1">  1        1 0.11749894E+00 0.77846968E+03</pdfrwt>
<pdfrwt beam="2">  1       -1 0.10639722E+00 0.77846968E+03</pdfrwt>
<totfact> 0.20120909E+01</totfact>
</mgrwt>
</event>
<event>
 4    1  0.4055965E-007  0.7046910E+03  0.7818608E-02  0.9978270E-01
         -1   -1    0    0    0  501 -0.00000000000E+00  0.00000000000E+00  0.88106095252E+03  0.88106095253E+03  0.50400000000E-02 0.  1.
          1   -1    0    0  501    0  0.00000000000E+00 -0.00000000000E+00 -0.31464250243E+03  0.31464250247E+03  0.50400000000E-02 0. -1.
    8880023    1    1    2    0    0  0.90398612244E+02  0.23368212272E+03  0.21280079146E+03  0.73612066041E+03  0.65864270000E+03 0. -1.
    8880022    1    1    2    0    0 -0.90398612244E+02 -0.23368212272E+03  0.35361765862E+03  0.45958279459E+03  0.15294330000E+03 0.  0.
<mgrwt>
<rscale>  0 0.56613387E+03</rscale>
<asrwt>0</asrwt>
<pdfrwt beam="1">  1        1 0.48406540E-01 0.70469103E+03</pdfrwt>
<pdfrwt beam="2">  1       -1 0.13554784E+00 0.70469103E+03</pdfrwt>
<totfact> 0.38515194E+01</totfact>
</mgrwt>
</event>
<event>
 4    1  0.4055965E-007  0.7336856E+03  0.7818608E-02  0.9878738E-01
         -1   -1    0    0    0  501 -0.00000000000E+00  0.00000000000E+00  0.81805033473E+03  0.81805033475E+03  0.50400000000E-02 0.  1.
          1   -1    0    0  501    0  0.00000000000E+00 -0.00000000000E+00 -0.64990336736E+03  0.64990336738E+03  0.50400000000E-02 0. -1.
    8880023    1    1    2    0    0  0.21668119497E+03 -0.23986154522E+03 -0.37009821942E+03  0.82174643255E+03  0.65864270000E+03 0. -1.
    8880022    1    1    2    0    0 -0.21668119497E+03  0.23986154522E+03  0.53824518679E+03  0.64620726957E+03  0.15294330000E+03 0.  0.
<mgrwt>
<rscale>  0 0.61302910E+03</rscale>
<asrwt>0</asrwt>
<pdfrwt beam="1">  1        1 0.99985134E-01 0.73368556E+03</pdfrwt>
<pdfrwt beam="2">  1       -1 0.12585390E+00 0.73368556E+03</pdfrwt>
<totfact> 0.17253120E+01</totfact>
</mgrwt>
</event>
<event>
 4    1  0.4055965E-007  0.1084273E+04  0.7818608E-02  0.9278771E-01
         -1   -1    0    0    0  501 -0.00000000000E+00  0.00000000000E+00  0.19457689410E+04  0.19457689410E+04  0.50400000000E-02 0.  1.
          1   -1    0    0  501    0  0.00000000000E+00 -0.00000000000E+00 -0.85979831367E+03  0.85979831369E+03  0.50400000000E-02 0. -1.
    8880023    1    1    2    0    0  0.74101205841E+03 -0.43902103251E+03 -0.33680691109E+03  0.11353798656E+04  0.65864270000E+03 0.  0.
    8880022    1    1    2    0    0 -0.74101205841E+03  0.43902103251E+03  0.14227775384E+04  0.16701873891E+04  0.15294330000E+03 0.  0.
<mgrwt>
<rscale>  0 0.10276094E+04</rscale>
<asrwt>0</asrwt>
<pdfrwt beam="1">  1        1 0.13227666E+00 0.10842733E+04</pdfrwt>
<pdfrwt beam="2">  1       -1 0.29934907E+00 0.10842733E+04</pdfrwt>
<totfact> 0.65624477E-01</totfact>
</mgrwt>
</event>
<event>
 4    1  0.4055965E-007  0.8837445E+03  0.7818608E-02  0.9552648E-01
          1   -1    0    0  501    0  0.00000000000E+00  0.00000000000E+00  0.10064066364E+04  0.10064066364E+04  0.50400000000E-02 0. -1.
         -1   -1    0    0    0  501 -0.00000000000E+00 -0.00000000000E+00 -0.16144208106E+04  0.16144208106E+04  0.50400000000E-02 0.  1.
    8880023    1    1    2    0    0 -0.49603910479E+03  0.31802401188E+03  0.73295980163E+03  0.11481438685E+04  0.65864270000E+03 0. -1.
    8880022    1    1    2    0    0  0.49603910479E+03 -0.31802401188E+03 -0.13409739758E+04  0.14726835785E+04  0.15294330000E+03 0.  0.
<mgrwt>
<rscale>  0 0.80511165E+03</rscale>
<asrwt>0</asrwt>
<pdfrwt beam="1">  1        1 0.15483179E+00 0.88374446E+03</pdfrwt>
<pdfrwt beam="2">  1       -1 0.24837243E+00 0.88374446E+03</pdfrwt>
<totfact> 0.10967578E+00</totfact>
</mgrwt>
</event>
<event>
 4    1  0.4055965E-007  0.6859791E+03  0.7818608E-02  0.1006125E+00
          1   -1    0    0  501    0  0.00000000000E+00  0.00000000000E+00  0.32923763075E+03  0.32923763079E+03  0.50400000000E-02 0. -1.
         -1   -1    0    0    0  501 -0.00000000000E+00 -0.00000000000E+00 -0.99234427898E+03  0.99234427899E+03  0.50400000000E-02 0.  1.
    8880023    1    1    2    0    0  0.12627170584E+03  0.14426577997E+03 -0.82026780562E+02  0.69086594789E+03  0.65864270000E+03 0.  0.
    8880022    1    1    2    0    0 -0.12627170584E+03 -0.14426577997E+03 -0.58107986766E+03  0.63071596189E+03  0.15294330000E+03 0.  0.
<mgrwt>
<rscale>  0 0.53044036E+03</rscale>
<asrwt>0</asrwt>
<pdfrwt beam="1">  1        1 0.50651944E-01 0.68597913E+03</pdfrwt>
<pdfrwt beam="2">  1       -1 0.15266835E+00 0.68597913E+03</pdfrwt>
<totfact> 0.26603045E+01</totfact>
</mgrwt>
</event>
<event>
 4    1  0.4055965E-007  0.1120853E+04  0.7818608E-02  0.9238187E-01
         -1   -1    0    0    0  501 -0.00000000000E+00  0.00000000000E+00  0.84572628640E+03  0.84572628642E+03  0.50400000000E-02 0.  1.
          1   -1    0    0  501    0  0.00000000000E+00 -0.00000000000E+00 -0.19351083387E+04  0.19351083387E+04  0.50400000000E-02 0. -1.
    8880023    1    1    2    0    0  0.51757555422E+03 -0.74472536513E+03 -0.14150266931E+04  0.18051623395E+04  0.65864270000E+03 0.  1.
    8880022    1    1    2    0    0 -0.51757555422E+03  0.74472536513E+03  0.32564464075E+03  0.97567228558E+03  0.15294330000E+03 0.  0.
<mgrwt>
<rscale>  0 0.10667821E+04</rscale>
<asrwt>0</asrwt>
<pdfrwt beam="1">  1        1 0.29770897E+00 0.11208526E+04</pdfrwt>
<pdfrwt beam="2">  1       -1 0.13011174E+00 0.11208526E+04</pdfrwt>
<totfact> 0.16579580E+00</totfact>
</mgrwt>
</event>
<event>
 4    1  0.4383692E-007  0.8252009E+03  0.7818608E-02  0.9658743E-01
         -1   -1    0    0    0  501 -0.00000000000E+00  0.00000000000E+00  0.18490987391E+04  0.18490987391E+04  0.50400000000E-02 0.  1.
          1   -1    0    0  501    0  0.00000000000E+00 -0.00000000000E+00 -0.12208208426E+04  0.12208208426E+04  0.50400000000E-02 0. -1.
    8880023    1    1    2    0    0  0.47985065299E+03  0.12996024491E+03 -0.10370220327E+04  0.13252815614E+04  0.65864270000E+03 0.  0.
    8880022    1    1    2    0    0 -0.47985065299E+03 -0.12996024491E+03  0.16652999292E+04  0.17446380203E+04  0.15294330000E+03 0.  0.
<mgrwt>
<rscale>  0 0.73527245E+03</rscale>
<asrwt>0</asrwt>
<pdfrwt beam="1">  1        1 0.18781859E+00 0.82520090E+03</pdfrwt>
<pdfrwt beam="2">  1       -1 0.28447673E+00 0.82520090E+03</pdfrwt>
<totfact> 0.44933624E-01</totfact>
</mgrwt>
</event>
<event>
 4    1  0.4055965E-007  0.7234242E+03  0.7818608E-02  0.9911165E-01
          1   -1    0    0  501    0  0.00000000000E+00  0.00000000000E+00  0.98923144702E+03  0.98923144704E+03  0.50400000000E-02 0. -1.
         -1   -1    0    0    0  501 -0.00000000000E+00 -0.00000000000E+00 -0.38326874087E+03  0.38326874090E+03  0.50400000000E-02 0.  1.
    8880023    1    1    2    0    0  0.29489015204E+03  0.50716557912E+02  0.71704411697E+03  0.10185749079E+04  0.65864270000E+03 0. -1.
    8880022    1    1    2    0    0 -0.29489015204E+03 -0.50716557912E+02 -0.11108141082E+03  0.35392528006E+03  0.15294330000E+03 0.  0.
<mgrwt>
<rscale>  0 0.59723200E+03</rscale>
<asrwt>0</asrwt>
<pdfrwt beam="1">  1        1 0.15218945E+00 0.72342420E+03</pdfrwt>
<pdfrwt beam="2">  1       -1 0.58964422E-01 0.72342420E+03</pdfrwt>
<totfact> 0.46203805E+01</totfact>
</mgrwt>
</event>
<event>
 4    1  0.4055965E-007  0.7042591E+03  0.7818608E-02  0.9979971E-01
          1   -1    0    0  501    0  0.00000000000E+00  0.00000000000E+00  0.89301453612E+03  0.89301453613E+03  0.50400000000E-02 0. -1.
         -1   -1    0    0    0  501 -0.00000000000E+00 -0.00000000000E+00 -0.17219656292E+04  0.17219656292E+04  0.50400000000E-02 0.  1.
    8880023    1    1    2    0    0 -0.24811323812E+03 -0.24707400199E+02  0.73849836319E+03  0.10204708096E+04  0.65864270000E+03 0. -1.
    8880022    1    1    2    0    0  0.24811323812E+03  0.24707400199E+02 -0.15674494563E+04  0.15945093557E+04  0.15294330000E+03 0.  0.
<mgrwt>
<rscale>  0 0.56537244E+03</rscale>
<asrwt>0</asrwt>
<pdfrwt beam="1">  1        1 0.13738685E+00 0.70425907E+03</pdfrwt>
<pdfrwt beam="2">  1       -1 0.26491779E+00 0.70425907E+03</pdfrwt>
<totfact> 0.10918624E+00</totfact>
</mgrwt>
</event>
<event>
 4    1  0.4055965E-007  0.7610770E+03  0.7818608E-02  0.9802327E-01
          1   -1    0    0  501    0  0.00000000000E+00  0.00000000000E+00  0.41319518952E+03  0.41319518955E+03  0.50400000000E-02 0. -1.
         -1   -1    0    0    0  501 -0.00000000000E+00 -0.00000000000E+00 -0.86620991714E+03  0.86620991716E+03  0.50400000000E-02 0.  1.
    8880023    1    1    2    0    0  0.37776567739E+03  0.52163616350E+02 -0.16813119155E+03  0.77942687516E+03  0.65864270000E+03 0. -1.
    8880022    1    1    2    0    0 -0.37776567739E+03 -0.52163616350E+02 -0.28488353607E+03  0.49997823155E+03  0.15294330000E+03 0.  0.
<mgrwt>
<rscale>  0 0.65237798E+03</rscale>
<asrwt>0</asrwt>
<pdfrwt beam="1">  1        1 0.63568491E-01 0.76107697E+03</pdfrwt>
<pdfrwt beam="2">  1       -1 0.13326306E+00 0.76107697E+03</pdfrwt>
<totfact> 0.27978197E+01</totfact>
</mgrwt>
</event>
<event>
 4    1  0.4306260E-007  0.7040474E+03  0.7818608E-02  0.9980808E-01
         -1   -1    0    0    0  501 -0.00000000000E+00  0.00000000000E+00  0.85005804261E+03  0.85005804262E+03  0.50400000000E-02 0.  1.
          1   -1    0    0  501    0  0.00000000000E+00 -0.00000000000E+00 -0.15680067971E+04  0.15680067971E+04  0.50400000000E-02 0. -1.
    8880023    1    1    2    0    0 -0.34698065532E+02 -0.24631005195E+03 -0.14598576121E+04  0.16207612567E+04  0.65864270000E+03 0. -1.
    8880022    1    1    2    0    0  0.34698065532E+02  0.24631005195E+03  0.74190885761E+03  0.79730358300E+03  0.15294330000E+03 0.  0.
<mgrwt>
<rscale>  0 0.56499853E+03</rscale>
<asrwt>0</asrwt>
<pdfrwt beam="1">  1        1 0.24123181E+00 0.70404744E+03</pdfrwt>
<pdfrwt beam="2">  1       -1 0.13077816E+00 0.70404744E+03</pdfrwt>
<totfact> 0.30920689E+00</totfact>
</mgrwt>
</event>
<event>
 4    1  0.4055965E-007  0.7429379E+03  0.7818608E-02  0.9851470E-01
          1   -1    0    0  501    0  0.00000000000E+00  0.00000000000E+00  0.11849656352E+04  0.11849656352E+04  0.50400000000E-02 0. -1.
         -1   -1    0    0    0  501 -0.00000000000E+00 -0.00000000000E+00 -0.40330693057E+03  0.40330693061E+03  0.50400000000E-02 0.  1.
    8880023    1    1    2    0    0 -0.19563374040E+03 -0.28261975260E+03  0.92434745725E+03  0.11859067893E+04  0.65864270000E+03 0.  1.
    8880022    1    1    2    0    0  0.19563374040E+03  0.28261975260E+03 -0.14268875265E+03  0.40236577649E+03  0.15294330000E+03 0.  0.
<mgrwt>
<rscale>  0 0.62672001E+03</rscale>
<asrwt>0</asrwt>
<pdfrwt beam="1">  1        1 0.18230241E+00 0.74293788E+03</pdfrwt>
<pdfrwt beam="2">  1       -1 0.62047220E-01 0.74293788E+03</pdfrwt>
<totfact> 0.29731617E+01</totfact>
</mgrwt>
</event>
<event>
 4    1  0.4055965E-007  0.7232015E+03  0.7818608E-02  0.9911898E-01
          1   -1    0    0  501    0  0.00000000000E+00  0.00000000000E+00  0.10516214918E+04  0.10516214918E+04  0.50400000000E-02 0. -1.
         -1   -1    0    0    0  501 -0.00000000000E+00 -0.00000000000E+00 -0.44066342932E+03  0.44066342935E+03  0.50400000000E-02 0.  1.
    8880023    1    1    2    0    0 -0.26502869029E+03 -0.13773164624E+03  0.82279570510E+03  0.10954511361E+04  0.65864270000E+03 0. -1.
    8880022    1    1    2    0    0  0.26502869029E+03  0.13773164624E+03 -0.21183764266E+03  0.39683378500E+03  0.15294330000E+03 0.  0.
<mgrwt>
<rscale>  0 0.59688091E+03</rscale>
<asrwt>0</asrwt>
<pdfrwt beam="1">  1        1 0.16178792E+00 0.72320151E+03</pdfrwt>
<pdfrwt beam="2">  1       -1 0.67794374E-01 0.72320151E+03</pdfrwt>
<totfact> 0.31325540E+01</totfact>
</mgrwt>
</event>
<event>
 4    1  0.4055965E-007  0.7654890E+03  0.7818608E-02  0.9791099E-01
          1   -1    0    0  501    0  0.00000000000E+00  0.00000000000E+00  0.12653222030E+04  0.12653222030E+04  0.50400000000E-02 0. -1.
         -1   -1    0    0    0  501 -0.00000000000E+00 -0.00000000000E+00 -0.44144639164E+03  0.44144639167E+03  0.50400000000E-02 0.  1.
    8880023    1    1    2    0    0 -0.35224858856E+03 -0.16758335039E+03  0.99396547575E+03  0.12545679817E+04  0.65864270000E+03 0. -1.
    8880022    1    1    2    0    0  0.35224858856E+03  0.16758335039E+03 -0.17008966436E+03  0.45220061301E+03  0.15294330000E+03 0.  0.
<mgrwt>
<rscale>  0 0.65842430E+03</rscale>
<asrwt>0</asrwt>
<pdfrwt beam="1">  1        1 0.19466495E+00 0.76548903E+03</pdfrwt>
<pdfrwt beam="2">  1       -1 0.67914829E-01 0.76548903E+03</pdfrwt>
<totfact> 0.21647624E+01</totfact>
</mgrwt>
</event>
<event>
 4    1  0.4055965E-007  0.7004233E+03  0.7818608E-02  0.9995449E-01
         -1   -1    0    0    0  501 -0.00000000000E+00  0.00000000000E+00  0.58154152657E+03  0.58154152659E+03  0.50400000000E-02 0.  1.
          1   -1    0    0  501    0  0.00000000000E+00 -0.00000000000E+00 -0.74574251797E+03  0.74574251799E+03  0.50400000000E-02 0. -1.
    8880023    1    1    2    0    0 -0.14170040669E+03  0.19158196638E+03 -0.52015836498E+03  0.87244345721E+03  0.65864270000E+03 0. -1.
    8880022    1    1    2    0    0  0.14170040669E+03 -0.19158196638E+03  0.35595737358E+03  0.45484058737E+03  0.15294330000E+03 0.  0.
<mgrwt>
<rscale>  0 0.55850217E+03</rscale>
<asrwt>0</asrwt>
<pdfrwt beam="1">  1        1 0.11472962E+00 0.70042334E+03</pdfrwt>
<pdfrwt beam="2">  1       -1 0.89467927E-01 0.70042334E+03</pdfrwt>
<totfact> 0.31164153E+01</totfact>
</mgrwt>
</event>
<event>
 4    1  0.4055965E-007  0.7065507E+03  0.7818608E-02  0.9971040E-01
          1   -1    0    0  501    0  0.00000000000E+00  0.00000000000E+00  0.16400041348E+04  0.16400041349E+04  0.50400000000E-02 0. -1.
         -1   -1    0    0    0  501 -0.00000000000E+00 -0.00000000000E+00 -0.20673787617E+03  0.20673787623E+03  0.50400000000E-02 0.  1.
    8880023    1    1    2    0    0 -0.21774861949E+03  0.13412385830E+03  0.13709516198E+04  0.15423106758E+04  0.65864270000E+03 0. -1.
    8880022    1    1    2    0    0  0.21774861949E+03 -0.13412385830E+03  0.62314638879E+02  0.30443133526E+03  0.15294330000E+03 0.  0.
<mgrwt>
<rscale>  0 0.56938531E+03</rscale>
<asrwt>0</asrwt>
<pdfrwt beam="1">  1        1 0.25230834E+00 0.70655069E+03</pdfrwt>
<pdfrwt beam="2">  1       -1 0.31805826E-01 0.70655069E+03</pdfrwt>
<totfact> 0.49874113E+01</totfact>
</mgrwt>
</event>
<event>
 4    1  0.4055965E-007  0.6615466E+03  0.7818608E-02  0.1022625E+00
          1   -1    0    0  501    0  0.00000000000E+00  0.00000000000E+00  0.25177909777E+04  0.25177909777E+04  0.50400000000E-02 0. -1.
         -1   -1    0    0    0  501 -0.00000000000E+00 -0.00000000000E+00 -0.16810715040E+03  0.16810715048E+03  0.50400000000E-02 0.  1.
    8880023    1    1    2    0    0  0.29774248364E+02  0.54288302101E+02  0.24183333441E+04  0.25071856922E+04  0.65864270000E+03 0. -1.
    8880022    1    1    2    0    0 -0.29774248364E+02 -0.54288302101E+02 -0.68649516800E+02  0.17871243600E+03  0.15294330000E+03 0.  0.
<mgrwt>
<rscale>  0 0.46751127E+03</rscale>
<asrwt>0</asrwt>
<pdfrwt beam="1">  1        1 0.38735244E+00 0.66154662E+03</pdfrwt>
<pdfrwt beam="2">  1       -1 0.25862640E-01 0.66154662E+03</pdfrwt>
<totfact> 0.18502547E+01</totfact>
</mgrwt>
</event>
<event>
 4    1  0.4055965E-007  0.1111191E+04  0.7818608E-02  0.9248698E-01
         -1   -1    0    0    0  501 -0.00000000000E+00  0.00000000000E+00  0.10349876094E+04  0.10349876095E+04  0.50400000000E-02 0.  1.
          1   -1    0    0  501    0  0.00000000000E+00 -0.00000000000E+00 -0.13800525750E+04  0.13800525750E+04  0.50400000000E-02 0. -1.
    8880023    1    1    2    0    0 -0.13879205938E+03  0.88412203350E+03 -0.82884938690E+03  0.13862671165E+04  0.65864270000E+03 0.  0.
    8880022    1    1    2    0    0  0.13879205938E+03 -0.88412203350E+03  0.48378442140E+03  0.10287730679E+04  0.15294330000E+03 0.  0.
<mgrwt>
<rscale>  0 0.10564621E+04</rscale>
<asrwt>0</asrwt>
<pdfrwt beam="1">  1        1 0.21231578E+00 0.11111909E+04</pdfrwt>
<pdfrwt beam="2">  1       -1 0.15922886E+00 0.11111909E+04</pdfrwt>
<totfact> 0.23286526E+00</totfact>
</mgrwt>
</event>
<event>
 4    1  0.4055965E-007  0.7689627E+03  0.7818608E-02  0.9782433E-01
         -1   -1    0    0    0  501 -0.00000000000E+00  0.00000000000E+00  0.68356766315E+03  0.68356766317E+03  0.50400000000E-02 0.  1.
          1   -1    0    0  501    0  0.00000000000E+00 -0.00000000000E+00 -0.63097224102E+03  0.63097224104E+03  0.50400000000E-02 0. -1.
    8880023    1    1    2    0    0 -0.38832551367E+03  0.81833674178E+02 -0.23152594780E+03  0.80306159512E+03  0.65864270000E+03 0. -1.
    8880022    1    1    2    0    0  0.38832551367E+03 -0.81833674178E+02  0.28412136993E+03  0.51147830908E+03  0.15294330000E+03 0.  0.
<mgrwt>
<rscale>  0 0.66313861E+03</rscale>
<asrwt>0</asrwt>
<pdfrwt beam="1">  1        1 0.97072652E-01 0.76896272E+03</pdfrwt>
<pdfrwt beam="2">  1       -1 0.10516426E+00 0.76896272E+03</pdfrwt>
<totfact> 0.27614274E+01</totfact>
</mgrwt>
</event>
<event>
 4    1  0.4055965E-007  0.9378858E+03  0.7818608E-02  0.9467762E-01
          1   -1    0    0  501    0  0.00000000000E+00  0.00000000000E+00  0.12495537081E+04  0.12495537081E+04  0.50400000000E-02 0. -1.
         -1   -1    0    0    0  501 -0.00000000000E+00 -0.00000000000E+00 -0.63805658303E+03  0.63805658305E+03  0.50400000000E-02 0.  1.
    8880023    1    1    2    0    0 -0.63182639498E+03 -0.21590487538E+03  0.73499893597E+03  0.11915759106E+04  0.65864270000E+03 0. -1.
    8880022    1    1    2    0    0  0.63182639498E+03  0.21590487538E+03 -0.12350181089E+03  0.69603438056E+03  0.15294330000E+03 0.  1.
<mgrwt>
<rscale>  0 0.86702876E+03</rscale>
<asrwt>0</asrwt>
<pdfrwt beam="1">  1        1 0.19223903E+00 0.93788577E+03</pdfrwt>
<pdfrwt beam="2">  1       -1 0.98162552E-01 0.93788577E+03</pdfrwt>
<totfact> 0.98826729E+00</totfact>
</mgrwt>
</event>
<event>
 4    1  0.4055965E-007  0.6675247E+03  0.7818608E-02  0.1017503E+00
         -1   -1    0    0    0  501 -0.00000000000E+00  0.00000000000E+00  0.20471877141E+03  0.20471877147E+03  0.50400000000E-02 0.  1.
          1   -1    0    0  501    0  0.00000000000E+00 -0.00000000000E+00 -0.21332264393E+04  0.21332264393E+04  0.50400000000E-02 0. -1.
    8880023    1    1    2    0    0 -0.61154390117E+02  0.89660988349E+02 -0.20213247252E+04  0.21286950940E+04  0.65864270000E+03 0. -1.
    8880022    1    1    2    0    0  0.61154390117E+02 -0.89660988349E+02  0.92817057245E+02  0.20925011683E+03  0.15294330000E+03 0.  0.
<mgrwt>
<rscale>  0 0.48598511E+03</rscale>
<asrwt>0</asrwt>
<pdfrwt beam="1">  1        1 0.32818867E+00 0.66752465E+03</pdfrwt>
<pdfrwt beam="2">  1       -1 0.31495197E-01 0.66752465E+03</pdfrwt>
<totfact> 0.23875611E+01</totfact>
</mgrwt>
</event>
<event>
 4    1  0.4055965E-007  0.6739348E+03  0.7818608E-02  0.1012986E+00
          1   -1    0    0  501    0  0.00000000000E+00  0.00000000000E+00  0.36092467553E+04  0.36092467553E+04  0.50400000000E-02 0. -1.
         -1   -1    0    0    0  501 -0.00000000000E+00 -0.00000000000E+00 -0.30706405338E+03  0.30706405342E+03  0.50400000000E-02 0.  1.
    8880023    1    1    2    0    0  0.81227918964E+02  0.11738815411E+03  0.35376824578E+04  0.36013032825E+04  0.65864270000E+03 0.  0.
    8880022    1    1    2    0    0 -0.81227918964E+02 -0.11738815411E+03 -0.23549975592E+03  0.31500752625E+03  0.15294330000E+03 0.  0.
<mgrwt>
<rscale>  0 0.50304867E+03</rscale>
<asrwt>0</asrwt>
<pdfrwt beam="1">  1        1 0.55526878E+00 0.67393483E+03</pdfrwt>
<pdfrwt beam="2">  1       -1 0.47240620E-01 0.67393483E+03</pdfrwt>
<totfact> 0.10189194E+00</totfact>
</mgrwt>
</event>
<event>
 4    1  0.4055965E-007  0.6713923E+03  0.7818608E-02  0.1014684E+00
          1   -1    0    0  501    0  0.00000000000E+00  0.00000000000E+00  0.56878347246E+03  0.56878347248E+03  0.50400000000E-02 0. -1.
         -1   -1    0    0    0  501 -0.00000000000E+00 -0.00000000000E+00 -0.13271861223E+04  0.13271861223E+04  0.50400000000E-02 0.  1.
    8880023    1    1    2    0    0  0.12985619198E+03 -0.97330416584E+01  0.35852533713E+03  0.76112284575E+03  0.65864270000E+03 0. -1.
    8880022    1    1    2    0    0 -0.12985619198E+03  0.97330416584E+01 -0.11169279869E+04  0.11348467490E+04  0.15294330000E+03 0.  0.
<mgrwt>
<rscale>  0 0.49654815E+03</rscale>
<asrwt>0</asrwt>
<pdfrwt beam="1">  1        1 0.87505150E-01 0.67139226E+03</pdfrwt>
<pdfrwt beam="2">  1       -1 0.20418248E+00 0.67139226E+03</pdfrwt>
<totfact> 0.54605639E+00</totfact>
</mgrwt>
</event>
<event>
 4    1  0.4055965E-007  0.6875019E+03  0.7818608E-02  0.1005363E+00
          1   -1    0    0  501    0  0.00000000000E+00  0.00000000000E+00  0.62175808881E+03  0.62175808883E+03  0.50400000000E-02 0. -1.
         -1   -1    0    0    0  501 -0.00000000000E+00 -0.00000000000E+00 -0.35701992269E+03  0.35701992272E+03  0.50400000000E-02 0.  1.
    8880023    1    1    2    0    0  0.11344390490E+02  0.19677389667E+03  0.14760461915E+03  0.70316853703E+03  0.65864270000E+03 0.  0.
    8880022    1    1    2    0    0 -0.11344390490E+02 -0.19677389667E+03  0.11713354697E+03  0.27560947453E+03  0.15294330000E+03 0.  1.
<mgrwt>
<rscale>  0 0.53359826E+03</rscale>
<asrwt>0</asrwt>
<pdfrwt beam="1">  1        1 0.95655091E-01 0.68750190E+03</pdfrwt>
<pdfrwt beam="2">  1       -1 0.54926142E-01 0.68750190E+03</pdfrwt>
<totfact> 0.11132038E+02</totfact>
</mgrwt>
</event>
<event>
 4    1  0.4055965E-007  0.7950670E+03  0.7818608E-02  0.9721565E-01
          1   -1    0    0  501    0  0.00000000000E+00  0.00000000000E+00  0.10075541227E+04  0.10075541228E+04  0.50400000000E-02 0. -1.
         -1   -1    0    0    0  501 -0.00000000000E+00 -0.00000000000E+00 -0.87767924062E+03  0.87767924063E+03  0.50400000000E-02 0.  1.
    8880023    1    1    2    0    0 -0.16792477730E+03  0.41245917619E+03 -0.61420838722E+03  0.10046807712E+04  0.65864270000E+03 0.  0.
    8880022    1    1    2    0    0  0.16792477730E+03 -0.41245917619E+03  0.74408326935E+03  0.88055259218E+03  0.15294330000E+03 0.  0.
<mgrwt>
<rscale>  0 0.69747183E+03</rscale>
<asrwt>0</asrwt>
<pdfrwt beam="1">  1        1 0.15500833E+00 0.79506698E+03</pdfrwt>
<pdfrwt beam="2">  1       -1 0.13502757E+00 0.79506698E+03</pdfrwt>
<totfact> 0.70639762E+00</totfact>
</mgrwt>
</event>
<event>
 4    1  0.4055965E-007  0.1237953E+04  0.7818608E-02  0.9121084E-01
         -1   -1    0    0    0  501 -0.00000000000E+00  0.00000000000E+00  0.30033812332E+04  0.30033812332E+04  0.50400000000E-02 0.  1.
          1   -1    0    0  501    0  0.00000000000E+00 -0.00000000000E+00 -0.55407591887E+03  0.55407591889E+03  0.50400000000E-02 0. -1.
    8880023    1    1    2    0    0 -0.97135063858E+03 -0.39394763592E+03  0.49248734866E+03  0.13323178291E+04  0.65864270000E+03 0. -1.
    8880022    1    1    2    0    0  0.97135063858E+03  0.39394763592E+03  0.19568179657E+04  0.22251393230E+04  0.15294330000E+03 0.  1.
<mgrwt>
<rscale>  0 0.11906453E+04</rscale>
<asrwt>0</asrwt>
<pdfrwt beam="1">  1        1 0.85242450E-01 0.12379527E+04</pdfrwt>
<pdfrwt beam="2">  1       -1 0.46205865E+00 0.12379527E+04</pdfrwt>
<totfact> 0.10162868E-01</totfact>
</mgrwt>
</event>
<event>
 4    1  0.4055965E-007  0.7378925E+03  0.7818608E-02  0.9866129E-01
         -1   -1    0    0    0  501 -0.00000000000E+00  0.00000000000E+00  0.41908487045E+03  0.41908487048E+03  0.50400000000E-02 0.  1.
          1   -1    0    0  501    0  0.00000000000E+00 -0.00000000000E+00 -0.13817999960E+04  0.13817999960E+04  0.50400000000E-02 0. -1.
    8880023    1    1    2    0    0 -0.33144729848E+03 -0.28597041522E+02 -0.11676644098E+04  0.13812767582E+04  0.65864270000E+03 0.  0.
    8880022    1    1    2    0    0  0.33144729848E+03  0.28597041522E+02  0.20494928424E+03  0.41960810833E+03  0.15294330000E+03 0.  0.
<mgrwt>
<rscale>  0 0.61931265E+03</rscale>
<asrwt>0</asrwt>
<pdfrwt beam="1">  1        1 0.21258461E+00 0.73789248E+03</pdfrwt>
<pdfrwt beam="2">  1       -1 0.64474596E-01 0.73789248E+03</pdfrwt>
<totfact> 0.19974194E+01</totfact>
</mgrwt>
</event>
<event>
 4    1  0.4055965E-007  0.7245454E+03  0.7818608E-02  0.9907496E-01
          1   -1    0    0  501    0  0.00000000000E+00  0.00000000000E+00  0.26240278479E+04  0.26240278479E+04  0.50400000000E-02 0. -1.
         -1   -1    0    0    0  501 -0.00000000000E+00 -0.00000000000E+00 -0.10797625032E+03  0.10797625044E+03  0.50400000000E-02 0.  1.
    8880023    1    1    2    0    0  0.25918097941E+03 -0.15485812138E+03  0.17830636491E+04  0.19246511374E+04  0.65864270000E+03 0.  1.
    8880022    1    1    2    0    0 -0.25918097941E+03  0.15485812138E+03  0.73298794845E+03  0.80735296087E+03  0.15294330000E+03 0. -1.
<mgrwt>
<rscale>  0 0.59899388E+03</rscale>
<asrwt>0</asrwt>
<pdfrwt beam="1">  1        1 0.40369658E+00 0.72454539E+03</pdfrwt>
<pdfrwt beam="2">  1       -1 0.16611731E-01 0.72454539E+03</pdfrwt>
<totfact> 0.32467794E+01</totfact>
</mgrwt>
</event>
<event>
 4    1  0.4055965E-007  0.1165020E+04  0.7818608E-02  0.9191898E-01
         -1   -1    0    0    0  501 -0.00000000000E+00  0.00000000000E+00  0.11867289539E+04  0.11867289539E+04  0.50400000000E-02 0.  1.
          1   -1    0    0  501    0  0.00000000000E+00 -0.00000000000E+00 -0.11454369495E+04  0.11454369495E+04  0.50400000000E-02 0. -1.
    8880023    1    1    2    0    0 -0.96065573307E+03 -0.24558284281E+02  0.48596291781E+03  0.12623124457E+04  0.65864270000E+03 0.  0.
    8880022    1    1    2    0    0  0.96065573307E+03  0.24558284281E+02 -0.44467091338E+03  0.10698534577E+04  0.15294330000E+03 0.  0.
<mgrwt>
<rscale>  0 0.11137445E+04</rscale>
<asrwt>0</asrwt>
<pdfrwt beam="1">  1        1 0.17622107E+00 0.11650205E+04</pdfrwt>
<pdfrwt beam="2">  1       -1 0.18257368E+00 0.11650205E+04</pdfrwt>
<totfact> 0.23015274E+00</totfact>
</mgrwt>
</event>
<event>
 4    1  0.4055965E-007  0.1191318E+04  0.7818608E-02  0.9165608E-01
         -1   -1    0    0    0  501 -0.00000000000E+00  0.00000000000E+00  0.12965272121E+04  0.12965272121E+04  0.50400000000E-02 0.  1.
          1   -1    0    0  501    0  0.00000000000E+00 -0.00000000000E+00 -0.11027228345E+04  0.11027228345E+04  0.50400000000E-02 0. -1.
    8880023    1    1    2    0    0 -0.97499566527E+03  0.18657887365E+03 -0.36996780381E+03  0.12474432274E+04  0.65864270000E+03 0.  0.
    8880022    1    1    2    0    0  0.97499566527E+03 -0.18657887365E+03  0.56377218137E+03  0.11518068193E+04  0.15294330000E+03 0.  0.
<mgrwt>
<rscale>  0 0.11415566E+04</rscale>
<asrwt>0</asrwt>
<pdfrwt beam="1">  1        1 0.16964967E+00 0.11913179E+04</pdfrwt>
<pdfrwt beam="2">  1       -1 0.19946572E+00 0.11913179E+04</pdfrwt>
<totfact> 0.18799357E+00</totfact>
</mgrwt>
</event>
<event>
 4    1  0.4055965E-007  0.6680004E+03  0.7818608E-02  0.1017139E+00
          1   -1    0    0  501    0  0.00000000000E+00  0.00000000000E+00  0.10042928970E+04  0.10042928970E+04  0.50400000000E-02 0. -1.
         -1   -1    0    0    0  501 -0.00000000000E+00 -0.00000000000E+00 -0.32286031937E+03  0.32286031941E+03  0.50400000000E-02 0.  1.
    8880023    1    1    2    0    0 -0.40082911928E+02 -0.10396023541E+03  0.84491919570E+03  0.10770854302E+04  0.65864270000E+03 0. -1.
    8880022    1    1    2    0    0  0.40082911928E+02  0.10396023541E+03 -0.16348661812E+03  0.25006778620E+03  0.15294330000E+03 0.  0.
<mgrwt>
<rscale>  0 0.48733440E+03</rscale>
<asrwt>0</asrwt>
<pdfrwt beam="1">  1        1 0.15450660E+00 0.66800043E+03</pdfrwt>
<pdfrwt beam="2">  1       -1 0.49670820E-01 0.66800043E+03</pdfrwt>
<totfact> 0.62915993E+01</totfact>
</mgrwt>
</event>
<event>
 4    1  0.4055965E-007  0.6973165E+03  0.7818608E-02  0.1000852E+00
          1   -1    0    0  501    0  0.00000000000E+00  0.00000000000E+00  0.25563927085E+04  0.25563927085E+04  0.50400000000E-02 0. -1.
         -1   -1    0    0    0  501 -0.00000000000E+00 -0.00000000000E+00 -0.17630886882E+03  0.17630886889E+03  0.50400000000E-02 0.  1.
    8880023    1    1    2    0    0 -0.18157401078E+03  0.13953829668E+03  0.23551345622E+04  0.24561980926E+04  0.65864270000E+03 0. -1.
    8880022    1    1    2    0    0  0.18157401078E+03 -0.13953829668E+03  0.24949277426E+02  0.27650348477E+03  0.15294330000E+03 0.  0.
<mgrwt>
<rscale>  0 0.55278188E+03</rscale>
<asrwt>0</asrwt>
<pdfrwt beam="1">  1        1 0.39329118E+00 0.69731647E+03</pdfrwt>
<pdfrwt beam="2">  1       -1 0.27124442E-01 0.69731647E+03</pdfrwt>
<totfact> 0.15951999E+01</totfact>
</mgrwt>
</event>
<event>
 4    1  0.4055965E-007  0.6772653E+03  0.7818608E-02  0.1010915E+00
         -1   -1    0    0    0  501 -0.00000000000E+00  0.00000000000E+00  0.23725689081E+04  0.23725689082E+04  0.50400000000E-02 0.  1.
          1   -1    0    0  501    0  0.00000000000E+00 -0.00000000000E+00 -0.14350342200E+03  0.14350342209E+03  0.50400000000E-02 0. -1.
    8880023    1    1    2    0    0  0.62550009637E+02 -0.14479511505E+03  0.71006273966E+03  0.98126318058E+03  0.65864270000E+03 0. -1.
    8880022    1    1    2    0    0 -0.62550009637E+02  0.14479511505E+03  0.15190027465E+04  0.15348091497E+04  0.15294330000E+03 0.  0.
<mgrwt>
<rscale>  0 0.51112668E+03</rscale>
<asrwt>0</asrwt>
<pdfrwt beam="1">  1        1 0.22077449E-01 0.67726534E+03</pdfrwt>
<pdfrwt beam="2">  1       -1 0.36501061E+00 0.67726534E+03</pdfrwt>
<totfact> 0.30358671E+00</totfact>
</mgrwt>
</event>
<event>
 4    1  0.4055965E-007  0.1237269E+04  0.7818608E-02  0.9121719E-01
         -1   -1    0    0    0  501 -0.00000000000E+00  0.00000000000E+00  0.64968376521E+03  0.64968376523E+03  0.50400000000E-02 0.  1.
          1   -1    0    0  501    0  0.00000000000E+00 -0.00000000000E+00 -0.20729341452E+04  0.20729341453E+04  0.50400000000E-02 0. -1.
    8880023    1    1    2    0    0  0.11714244156E+03  0.10408177396E+04 -0.96540995363E+03  0.15693471584E+04  0.65864270000E+03 0. -1.
    8880022    1    1    2    0    0 -0.11714244156E+03 -0.10408177396E+04 -0.45784042641E+03  0.11532707521E+04  0.15294330000E+03 0.  0.
<mgrwt>
<rscale>  0 0.11899273E+04</rscale>
<asrwt>0</asrwt>
<pdfrwt beam="1">  1        1 0.31891294E+00 0.12372688E+04</pdfrwt>
<pdfrwt beam="2">  1       -1 0.99951349E-01 0.12372688E+04</pdfrwt>
<totfact> 0.24924224E+00</totfact>
</mgrwt>
</event>
<event>
 4    1  0.4055965E-007  0.7842685E+03  0.7818608E-02  0.9745904E-01
          1   -1    0    0  501    0  0.00000000000E+00  0.00000000000E+00  0.21321092219E+04  0.21321092219E+04  0.50400000000E-02 0. -1.
         -1   -1    0    0    0  501 -0.00000000000E+00 -0.00000000000E+00 -0.23157186336E+03  0.23157186341E+03  0.50400000000E-02 0.  1.
    8880023    1    1    2    0    0  0.41771828063E+03  0.82330250529E+02  0.16932544281E+04  0.18660620560E+04  0.65864270000E+03 0.  0.
    8880022    1    1    2    0    0 -0.41771828063E+03 -0.82330250529E+02  0.20728293045E+03  0.49761902937E+03  0.15294330000E+03 0.  0.
<mgrwt>
<rscale>  0 0.68348232E+03</rscale>
<asrwt>0</asrwt>
<pdfrwt beam="1">  1        1 0.32801680E+00 0.78426847E+03</pdfrwt>
<pdfrwt beam="2">  1       -1 0.35626441E-01 0.78426847E+03</pdfrwt>
<totfact> 0.18907440E+01</totfact>
</mgrwt>
</event>
<event>
 4    1  0.4055965E-007  0.1020275E+04  0.7818608E-02  0.9355500E-01
         -1   -1    0    0    0  501 -0.00000000000E+00  0.00000000000E+00  0.37048108999E+03  0.37048109003E+03  0.50400000000E-02 0.  1.
          1   -1    0    0  501    0  0.00000000000E+00 -0.00000000000E+00 -0.29006434444E+04  0.29006434444E+04  0.50400000000E-02 0. -1.
    8880023    1    1    2    0    0  0.45255974701E+03  0.63430240376E+03 -0.59908334819E+03  0.11831571867E+04  0.65864270000E+03 0.  0.
    8880022    1    1    2    0    0 -0.45255974701E+03 -0.63430240376E+03 -0.19310790062E+04  0.20879673477E+04  0.15294330000E+03 0.  0.
<mgrwt>
<rscale>  0 0.95830110E+03</rscale>
<asrwt>0</asrwt>
<pdfrwt beam="1">  1        1 0.44625282E+00 0.10202745E+04</pdfrwt>
<pdfrwt beam="2">  1       -1 0.56997093E-01 0.10202745E+04</pdfrwt>
<totfact> 0.22499025E+00</totfact>
</mgrwt>
</event>
<event>
 4    1  0.4055965E-007  0.8044737E+03  0.7818608E-02  0.9701205E-01
          1   -1    0    0  501    0  0.00000000000E+00  0.00000000000E+00  0.33188472043E+04  0.33188472043E+04  0.50400000000E-02 0. -1.
         -1   -1    0    0    0  501 -0.00000000000E+00 -0.00000000000E+00 -0.17026203910E+03  0.17026203918E+03  0.50400000000E-02 0.  1.
    8880023    1    1    2    0    0  0.36839135378E+03 -0.27866732433E+03  0.98642960529E+03  0.12728791143E+04  0.65864270000E+03 0.  1.
    8880022    1    1    2    0    0 -0.36839135378E+03  0.27866732433E+03  0.21621555599E+04  0.22162301291E+04  0.15294330000E+03 0. -1.
<mgrwt>
<rscale>  0 0.70945076E+03</rscale>
<asrwt>0</asrwt>
<pdfrwt beam="1">  1        1 0.51059189E+00 0.80447366E+03</pdfrwt>
<pdfrwt beam="2">  1       -1 0.26194159E-01 0.80447366E+03</pdfrwt>
<totfact> 0.47506488E+00</totfact>
</mgrwt>
</event>
<event>
 4    1  0.4055965E-007  0.6655812E+03  0.7818608E-02  0.1019051E+00
          1   -1    0    0  501    0  0.00000000000E+00  0.00000000000E+00  0.23863040918E+04  0.23863040918E+04  0.50400000000E-02 0. -1.
         -1   -1    0    0    0  501 -0.00000000000E+00 -0.00000000000E+00 -0.12075595974E+03  0.12075595984E+03  0.50400000000E-02 0.  1.
    8880023    1    1    2    0    0  0.18293351769E+02 -0.94092838913E+02  0.22245193107E+04  0.23219570364E+04  0.65864270000E+03 0. -1.
    8880022    1    1    2    0    0 -0.18293351769E+02  0.94092838913E+02  0.41028821382E+02  0.18510301524E+03  0.15294330000E+03 0.  0.
<mgrwt>
<rscale>  0 0.48030739E+03</rscale>
<asrwt>0</asrwt>
<pdfrwt beam="1">  1        1 0.36712369E+00 0.66558119E+03</pdfrwt>
<pdfrwt beam="2">  1       -1 0.18577841E-01 0.66558119E+03</pdfrwt>
<totfact> 0.39565661E+01</totfact>
</mgrwt>
</event>
<event>
 4    1  0.4055965E-007  0.8596808E+03  0.7818608E-02  0.9594131E-01
         -1   -1    0    0    0  501 -0.00000000000E+00  0.00000000000E+00  0.61098249363E+03  0.61098249365E+03  0.50400000000E-02 0.  1.
          1   -1    0    0  501    0  0.00000000000E+00 -0.00000000000E+00 -0.94317974784E+03  0.94317974786E+03  0.50400000000E-02 0. -1.
    8880023    1    1    2    0    0 -0.54056261732E+03  0.11416186768E+03 -0.44786109867E+03  0.96934547259E+03  0.65864270000E+03 0. -1.
    8880022    1    1    2    0    0  0.54056261732E+03 -0.11416186768E+03  0.11566384445E+03  0.58481676892E+03  0.15294330000E+03 0.  0.
<mgrwt>
<rscale>  0 0.77685817E+03</rscale>
<asrwt>0</asrwt>
<pdfrwt beam="1">  1        1 0.14510458E+00 0.85968080E+03</pdfrwt>
<pdfrwt beam="2">  1       -1 0.93997306E-01 0.85968080E+03</pdfrwt>
<totfact> 0.18705852E+01</totfact>
</mgrwt>
</event>
<event>
 4    1  0.4055965E-007  0.6652853E+03  0.7818608E-02  0.1019295E+00
          1   -1    0    0  501    0  0.00000000000E+00  0.00000000000E+00  0.77612162489E+03  0.77612162490E+03  0.50400000000E-02 0. -1.
         -1   -1    0    0    0  501 -0.00000000000E+00 -0.00000000000E+00 -0.24304907622E+03  0.24304907627E+03  0.50400000000E-02 0.  1.
    8880023    1    1    2    0    0 -0.92451297538E+02 -0.15718183261E+02  0.51002905921E+03  0.83829240197E+03  0.65864270000E+03 0. -1.
    8880022    1    1    2    0    0  0.92451297538E+02  0.15718183261E+02  0.23043489458E+02  0.18087829920E+03  0.15294330000E+03 0. -1.
<mgrwt>
<rscale>  0 0.47941790E+03</rscale>
<asrwt>0</asrwt>
<pdfrwt beam="1">  1        1 0.11940333E+00 0.66528528E+03</pdfrwt>
<pdfrwt beam="2">  1       -1 0.37392165E-01 0.66528528E+03</pdfrwt>
<totfact> 0.16311846E+02</totfact>
</mgrwt>
</event>
<event>
 4    1  0.4055965E-007  0.7257788E+03  0.7818608E-02  0.9903496E-01
         -1   -1    0    0    0  501 -0.00000000000E+00  0.00000000000E+00  0.35664516444E+03  0.35664516447E+03  0.50400000000E-02 0.  1.
          1   -1    0    0  501    0  0.00000000000E+00 -0.00000000000E+00 -0.12578918668E+04  0.12578918668E+04  0.50400000000E-02 0. -1.
    8880023    1    1    2    0    0  0.29410156433E+03  0.80305292221E+02 -0.10213213926E+04  0.12529374539E+04  0.65864270000E+03 0.  0.
    8880022    1    1    2    0    0 -0.29410156433E+03 -0.80305292221E+02  0.12007469027E+03  0.36159957737E+03  0.15294330000E+03 0.  0.
<mgrwt>
<rscale>  0 0.60092134E+03</rscale>
<asrwt>0</asrwt>
<pdfrwt beam="1">  1        1 0.19352182E+00 0.72577881E+03</pdfrwt>
<pdfrwt beam="2">  1       -1 0.54868487E-01 0.72577881E+03</pdfrwt>
<totfact> 0.33583418E+01</totfact>
</mgrwt>
</event>
<event>
 4    1  0.4055965E-007  0.8095982E+03  0.7818608E-02  0.9690414E-01
         -1   -1    0    0    0  501 -0.00000000000E+00  0.00000000000E+00  0.44222406376E+03  0.44222406379E+03  0.50400000000E-02 0.  1.
          1   -1    0    0  501    0  0.00000000000E+00 -0.00000000000E+00 -0.22750822876E+04  0.22750822877E+04  0.50400000000E-02 0. -1.
    8880023    1    1    2    0    0  0.30764512085E+03  0.35636155372E+03  0.94525635806E+01  0.80965340398E+03  0.65864270000E+03 0.  0.
    8880022    1    1    2    0    0 -0.30764512085E+03 -0.35636155372E+03 -0.18423107875E+04  0.19076529475E+04  0.15294330000E+03 0.  0.
<mgrwt>
<rscale>  0 0.71590390E+03</rscale>
<asrwt>0</asrwt>
<pdfrwt beam="1">  1        1 0.35001265E+00 0.80959822E+03</pdfrwt>
<pdfrwt beam="2">  1       -1 0.68034473E-01 0.80959822E+03</pdfrwt>
<totfact> 0.44224825E+00</totfact>
</mgrwt>
</event>
<event>
 4    1  0.4055965E-007  0.7466889E+03  0.7818608E-02  0.9840874E-01
          1   -1    0    0  501    0  0.00000000000E+00  0.00000000000E+00  0.22163338869E+04  0.22163338869E+04  0.50400000000E-02 0. -1.
         -1   -1    0    0    0  501 -0.00000000000E+00 -0.00000000000E+00 -0.45570566568E+03  0.45570566571E+03  0.50400000000E-02 0.  1.
    8880023    1    1    2    0    0  0.24181058669E+03 -0.25546379593E+03  0.20563420824E+04  0.21877127501E+04  0.65864270000E+03 0. -1.
    8880022    1    1    2    0    0 -0.24181058669E+03  0.25546379593E+03 -0.29571386121E+03  0.48432680247E+03  0.15294330000E+03 0.  0.
<mgrwt>
<rscale>  0 0.63214377E+03</rscale>
<asrwt>0</asrwt>
<pdfrwt beam="1">  1        1 0.34097445E+00 0.74668890E+03</pdfrwt>
<pdfrwt beam="2">  1       -1 0.70108563E-01 0.74668890E+03</pdfrwt>
<totfact> 0.46060597E+00</totfact>
</mgrwt>
</event>
<event>
 4    1  0.4055965E-007  0.8832027E+03  0.7818608E-02  0.9553553E-01
          1   -1    0    0  501    0  0.00000000000E+00  0.00000000000E+00  0.85211307345E+03  0.85211307347E+03  0.50400000000E-02 0. -1.
         -1   -1    0    0    0  501 -0.00000000000E+00 -0.00000000000E+00 -0.18179558097E+04  0.18179558097E+04  0.50400000000E-02 0.  1.
    8880023    1    1    2    0    0  0.28015950453E+03 -0.51744319734E+03 -0.15773379133E+04  0.18077726377E+04  0.65864270000E+03 0.  0.
    8880022    1    1    2    0    0 -0.28015950453E+03  0.51744319734E+03  0.61149517706E+03  0.86229624552E+03  0.15294330000E+03 0.  0.
<mgrwt>
<rscale>  0 0.80448133E+03</rscale>
<asrwt>0</asrwt>
<pdfrwt beam="1">  1        1 0.13109432E+00 0.88320270E+03</pdfrwt>
<pdfrwt beam="2">  1       -1 0.27968551E+00 0.88320270E+03</pdfrwt>
<totfact> 0.91845166E-01</totfact>
</mgrwt>
</event>
<event>
 4    1  0.4055965E-007  0.6989238E+03  0.7818608E-02  0.1000170E+00
          1   -1    0    0  501    0  0.00000000000E+00  0.00000000000E+00  0.22249492450E+04  0.22249492450E+04  0.50400000000E-02 0. -1.
         -1   -1    0    0    0  501 -0.00000000000E+00 -0.00000000000E+00 -0.32091161281E+03  0.32091161285E+03  0.50400000000E-02 0.  1.
    8880023    1    1    2    0    0 -0.19322977080E+03 -0.13170636227E+03  0.20942783182E+04  0.22078261233E+04  0.65864270000E+03 0. -1.
    8880022    1    1    2    0    0  0.19322977080E+03  0.13170636227E+03 -0.19024068599E+03  0.33803473462E+03  0.15294330000E+03 0.  0.
<mgrwt>
<rscale>  0 0.55575970E+03</rscale>
<asrwt>0</asrwt>
<pdfrwt beam="1">  1        1 0.34229989E+00 0.69892383E+03</pdfrwt>
<pdfrwt beam="2">  1       -1 0.49371017E-01 0.69892383E+03</pdfrwt>
<totfact> 0.91225906E+00</totfact>
</mgrwt>
</event>
<event>
 4    1  0.4055965E-007  0.8126729E+03  0.7818608E-02  0.9684036E-01
          1   -1    0    0  501    0  0.00000000000E+00  0.00000000000E+00  0.15259177949E+04  0.15259177949E+04  0.50400000000E-02 0. -1.
         -1   -1    0    0    0  501 -0.00000000000E+00 -0.00000000000E+00 -0.59350259008E+03  0.59350259010E+03  0.50400000000E-02 0.  1.
    8880023    1    1    2    0    0  0.26085873708E+03  0.39822079631E+03  0.12759410766E+04  0.15127666444E+04  0.65864270000E+03 0.  0.
    8880022    1    1    2    0    0 -0.26085873708E+03 -0.39822079631E+03 -0.34352587179E+03  0.60665374055E+03  0.15294330000E+03 0.  0.
<mgrwt>
<rscale>  0 0.71975289E+03</rscale>
<asrwt>0</asrwt>
<pdfrwt beam="1">  1        1 0.23475658E+00 0.81267293E+03</pdfrwt>
<pdfrwt beam="2">  1       -1 0.91308091E-01 0.81267293E+03</pdfrwt>
<totfact> 0.75670427E+00</totfact>
</mgrwt>
</event>
<event>
 4    1  0.4055965E-007  0.8708737E+03  0.7818608E-02  0.9574506E-01
          1   -1    0    0  501    0  0.00000000000E+00  0.00000000000E+00  0.10243771052E+04  0.10243771052E+04  0.50400000000E-02 0. -1.
         -1   -1    0    0    0  501 -0.00000000000E+00 -0.00000000000E+00 -0.58803589503E+03  0.58803589506E+03  0.50400000000E-02 0.  1.
    8880023    1    1    2    0    0  0.55686698512E+03  0.12045721592E+03  0.52347702012E+03  0.10160950629E+04  0.65864270000E+03 0. -1.
    8880022    1    1    2    0    0 -0.55686698512E+03 -0.12045721592E+03 -0.87135809994E+02  0.59631793733E+03  0.15294330000E+03 0.  0.
<mgrwt>
<rscale>  0 0.79006744E+03</rscale>
<asrwt>0</asrwt>
<pdfrwt beam="1">  1        1 0.15759648E+00 0.87087369E+03</pdfrwt>
<pdfrwt beam="2">  1       -1 0.90467061E-01 0.87087369E+03</pdfrwt>
<totfact> 0.17568134E+01</totfact>
</mgrwt>
</event>
<event>
 4    1  0.4055965E-007  0.8625602E+03  0.7818608E-02  0.9589026E-01
          1   -1    0    0  501    0  0.00000000000E+00  0.00000000000E+00  0.12672376530E+04  0.12672376530E+04  0.50400000000E-02 0. -1.
         -1   -1    0    0    0  501 -0.00000000000E+00 -0.00000000000E+00 -0.49629524066E+03  0.49629524069E+03  0.50400000000E-02 0.  1.
    8880023    1    1    2    0    0 -0.87092207758E+02  0.55010434828E+03  0.81182696524E+03  0.11845138557E+04  0.65864270000E+03 0. -1.
    8880022    1    1    2    0    0  0.87092207758E+02 -0.55010434828E+03 -0.40884552903E+02  0.57901903797E+03  0.15294330000E+03 0.  0.
<mgrwt>
<rscale>  0 0.78026823E+03</rscale>
<asrwt>0</asrwt>
<pdfrwt beam="1">  1        1 0.19495964E+00 0.86256017E+03</pdfrwt>
<pdfrwt beam="2">  1       -1 0.76353114E-01 0.86256017E+03</pdfrwt>
<totfact> 0.16750620E+01</totfact>
</mgrwt>
</event>
<event>
 4    1  0.4055965E-007  0.8915828E+03  0.7818608E-02  0.9539681E-01
          1   -1    0    0  501    0  0.00000000000E+00  0.00000000000E+00  0.11263037456E+04  0.11263037457E+04  0.50400000000E-02 0. -1.
         -1   -1    0    0    0  501 -0.00000000000E+00 -0.00000000000E+00 -0.53734334908E+03  0.53734334910E+03  0.50400000000E-02 0.  1.
    8880023    1    1    2    0    0  0.23613977801E+03 -0.55258266841E+03  0.53833786390E+03  0.10415025022E+04  0.65864270000E+03 0.  1.
    8880022    1    1    2    0    0 -0.23613977801E+03  0.55258266841E+03  0.50622532657E+02  0.62214459253E+03  0.15294330000E+03 0.  0.
<mgrwt>
<rscale>  0 0.81420444E+03</rscale>
<asrwt>0</asrwt>
<pdfrwt beam="1">  1        1 0.17327750E+00 0.89158275E+03</pdfrwt>
<pdfrwt beam="2">  1       -1 0.82668208E-01 0.89158275E+03</pdfrwt>
<totfact> 0.17864640E+01</totfact>
</mgrwt>
</event>
<event>
 4    1  0.4055965E-007  0.7402749E+03  0.7818608E-02  0.9859147E-01
         -1   -1    0    0    0  501 -0.00000000000E+00  0.00000000000E+00  0.96685232548E+03  0.96685232549E+03  0.50400000000E-02 0.  1.
          1   -1    0    0  501    0  0.00000000000E+00 -0.00000000000E+00 -0.43272029329E+03  0.43272029332E+03  0.50400000000E-02 0. -1.
    8880023    1    1    2    0    0 -0.31937762882E+03 -0.11042939568E+03 -0.10827335305E+02  0.74035407655E+03  0.65864270000E+03 0.  0.
    8880022    1    1    2    0    0  0.31937762882E+03  0.11042939568E+03  0.54495936749E+03  0.65921854225E+03  0.15294330000E+03 0.  0.
<mgrwt>
<rscale>  0 0.62282708E+03</rscale>
<asrwt>0</asrwt>
<pdfrwt beam="1">  1        1 0.66572353E-01 0.74027490E+03</pdfrwt>
<pdfrwt beam="2">  1       -1 0.14874651E+00 0.74027490E+03</pdfrwt>
<totfact> 0.19788613E+01</totfact>
</mgrwt>
</event>
<event>
 4    1  0.5952145E-007  0.6963468E+03  0.7818608E-02  0.1001271E+00
          1   -1    0    0  501    0  0.00000000000E+00  0.00000000000E+00  0.15154894426E+04  0.15154894426E+04  0.50400000000E-02 0. -1.
         -1   -1    0    0    0  501 -0.00000000000E+00 -0.00000000000E+00 -0.12850507810E+04  0.12850507810E+04  0.50400000000E-02 0.  1.
    8880023    1    1    2    0    0 -0.67533376443E+02 -0.21570319228E+03  0.14192122957E+04  0.15808422978E+04  0.65864270000E+03 0. -1.
    8880022    1    1    2    0    0  0.67533376443E+02  0.21570319228E+03 -0.11887736341E+04  0.12196979258E+04  0.15294330000E+03 0.  0.
<mgrwt>
<rscale>  0 0.55096541E+03</rscale>
<asrwt>0</asrwt>
<pdfrwt beam="1">  1        1 0.23315222E+00 0.69634677E+03</pdfrwt>
<pdfrwt beam="2">  1       -1 0.19770012E+00 0.69634677E+03</pdfrwt>
<totfact> 0.10610426E+00</totfact>
</mgrwt>
</event>
<event>
 4    1  0.4055965E-007  0.6884989E+03  0.7818608E-02  0.1004874E+00
          1   -1    0    0  501    0  0.00000000000E+00  0.00000000000E+00  0.68885317527E+03  0.68885317529E+03  0.50400000000E-02 0. -1.
         -1   -1    0    0    0  501 -0.00000000000E+00 -0.00000000000E+00 -0.36396447859E+03  0.36396447863E+03  0.50400000000E-02 0.  1.
    8880023    1    1    2    0    0  0.13153147571E+03  0.15139365485E+03  0.39140717910E+03  0.79197875852E+03  0.65864270000E+03 0.  0.
    8880022    1    1    2    0    0 -0.13153147571E+03 -0.15139365485E+03 -0.66518482421E+02  0.26083889540E+03  0.15294330000E+03 0.  0.
<mgrwt>
<rscale>  0 0.53563632E+03</rscale>
<asrwt>0</asrwt>
<pdfrwt beam="1">  1        1 0.10597741E+00 0.68849893E+03</pdfrwt>
<pdfrwt beam="2">  1       -1 0.55994536E-01 0.68849893E+03</pdfrwt>
<totfact> 0.92206515E+01</totfact>
</mgrwt>
</event>
<event>
 4    1  0.4055965E-007  0.8577513E+03  0.7818608E-02  0.9597576E-01
         -1   -1    0    0    0  501 -0.00000000000E+00  0.00000000000E+00  0.22530713785E+04  0.22530713785E+04  0.50400000000E-02 0.  1.
          1   -1    0    0  501    0  0.00000000000E+00 -0.00000000000E+00 -0.46817992215E+03  0.46817992218E+03  0.50400000000E-02 0. -1.
    8880023    1    1    2    0    0  0.51908075630E+03 -0.18022829722E+03  0.10897208687E+02  0.85782050925E+03  0.65864270000E+03 0. -1.
    8880022    1    1    2    0    0 -0.51908075630E+03  0.18022829722E+03  0.17739942476E+04  0.18634307914E+04  0.15294330000E+03 0.  0.
<mgrwt>
<rscale>  0 0.77456821E+03</rscale>
<asrwt>0</asrwt>
<pdfrwt beam="1">  1        1 0.72027680E-01 0.85775129E+03</pdfrwt>
<pdfrwt beam="2">  1       -1 0.34662637E+00 0.85775129E+03</pdfrwt>
<totfact> 0.82768024E-01</totfact>
</mgrwt>
</event>
<event>
 4    1  0.4055965E-007  0.6803529E+03  0.7818608E-02  0.1009125E+00
          1   -1    0    0  501    0  0.00000000000E+00  0.00000000000E+00  0.93985895309E+03  0.93985895310E+03  0.50400000000E-02 0. -1.
         -1   -1    0    0    0  501 -0.00000000000E+00 -0.00000000000E+00 -0.32721767830E+03  0.32721767834E+03  0.50400000000E-02 0.  1.
    8880023    1    1    2    0    0  0.12184997873E+03 -0.11925802294E+03  0.73981840817E+03  0.10050927204E+04  0.65864270000E+03 0. -1.
    8880022    1    1    2    0    0 -0.12184997873E+03  0.11925802294E+03 -0.12717713339E+03  0.26198391100E+03  0.15294330000E+03 0.  0.
<mgrwt>
<rscale>  0 0.51823988E+03</rscale>
<asrwt>0</asrwt>
<pdfrwt beam="1">  1        1 0.14459369E+00 0.68035292E+03</pdfrwt>
<pdfrwt beam="2">  1       -1 0.50341181E-01 0.68035292E+03</pdfrwt>
<totfact> 0.68809318E+01</totfact>
</mgrwt>
</event>
<event>
 4    1  0.4055965E-007  0.7617601E+03  0.7818608E-02  0.9800572E-01
          1   -1    0    0  501    0  0.00000000000E+00  0.00000000000E+00  0.86332223512E+03  0.86332223513E+03  0.50400000000E-02 0. -1.
         -1   -1    0    0    0  501 -0.00000000000E+00 -0.00000000000E+00 -0.12110545942E+04  0.12110545942E+04  0.50400000000E-02 0.  1.
    8880023    1    1    2    0    0  0.37670657017E+03  0.67531010499E+02  0.64585469632E+03  0.99870254451E+03  0.65864270000E+03 0. -1.
    8880022    1    1    2    0    0 -0.37670657017E+03 -0.67531010499E+02 -0.99358705540E+03  0.10756742848E+04  0.15294330000E+03 0.  0.
<mgrwt>
<rscale>  0 0.65331863E+03</rscale>
<asrwt>0</asrwt>
<pdfrwt beam="1">  1        1 0.13281880E+00 0.76176012E+03</pdfrwt>
<pdfrwt beam="2">  1       -1 0.18631609E+00 0.76176012E+03</pdfrwt>
<totfact> 0.37941254E+00</totfact>
</mgrwt>
</event>
<event>
 4    1  0.4055965E-007  0.8041343E+03  0.7818608E-02  0.9701927E-01
          1   -1    0    0  501    0  0.00000000000E+00  0.00000000000E+00  0.33001143593E+03  0.33001143597E+03  0.50400000000E-02 0. -1.
         -1   -1    0    0    0  501 -0.00000000000E+00 -0.00000000000E+00 -0.13578488127E+04  0.13578488127E+04  0.50400000000E-02 0.  1.
    8880023    1    1    2    0    0 -0.17937046900E+03 -0.42502711663E+03 -0.41258873062E+03  0.90380389572E+03  0.65864270000E+03 0. -1.
    8880022    1    1    2    0    0  0.17937046900E+03  0.42502711663E+03 -0.61524864615E+03  0.78405635297E+03  0.15294330000E+03 0.  1.
<mgrwt>
<rscale>  0 0.70902171E+03</rscale>
<asrwt>0</asrwt>
<pdfrwt beam="1">  1        1 0.50770991E-01 0.80413433E+03</pdfrwt>
<pdfrwt beam="2">  1       -1 0.20889981E+00 0.80413433E+03</pdfrwt>
<totfact> 0.10374476E+01</totfact>
</mgrwt>
</event>
<event>
 4    1  0.4055965E-007  0.7160480E+03  0.7818608E-02  0.9936192E-01
          1   -1    0    0  501    0  0.00000000000E+00  0.00000000000E+00  0.36636607985E+04  0.36636607985E+04  0.50400000000E-02 0. -1.
         -1   -1    0    0    0  501 -0.00000000000E+00 -0.00000000000E+00 -0.24103040990E+03  0.24103040995E+03  0.50400000000E-02 0.  1.
    8880023    1    1    2    0    0  0.28028938088E+03  0.18770504019E+02  0.35025587708E+04  0.35750024641E+04  0.65864270000E+03 0. -1.
    8880022    1    1    2    0    0 -0.28028938088E+03 -0.18770504019E+02 -0.79928382236E+02  0.32968874436E+03  0.15294330000E+03 0.  0.
<mgrwt>
<rscale>  0 0.58538863E+03</rscale>
<asrwt>0</asrwt>
<pdfrwt beam="1">  1        1 0.56364008E+00 0.71604796E+03</pdfrwt>
<pdfrwt beam="2">  1       -1 0.37081604E-01 0.71604796E+03</pdfrwt>
<totfact> 0.14225764E+00</totfact>
</mgrwt>
</event>
<event>
 4    1  0.4055965E-007  0.8095208E+03  0.7818608E-02  0.9690576E-01
         -1   -1    0    0    0  501 -0.00000000000E+00  0.00000000000E+00  0.15089035023E+04  0.15089035023E+04  0.50400000000E-02 0.  1.
          1   -1    0    0  501    0  0.00000000000E+00 -0.00000000000E+00 -0.95250568300E+03  0.95250568302E+03  0.50400000000E-02 0. -1.
    8880023    1    1    2    0    0  0.45676245148E+03 -0.11349806643E+03 -0.72565918433E+03  0.10871546377E+04  0.65864270000E+03 0. -1.
    8880022    1    1    2    0    0 -0.45676245148E+03  0.11349806643E+03  0.12820570036E+04  0.13742545477E+04  0.15294330000E+03 0.  0.
<mgrwt>
<rscale>  0 0.71580679E+03</rscale>
<asrwt>0</asrwt>
<pdfrwt beam="1">  1        1 0.14653934E+00 0.80952082E+03</pdfrwt>
<pdfrwt beam="2">  1       -1 0.23213900E+00 0.80952082E+03</pdfrwt>
<totfact> 0.15617305E+00</totfact>
</mgrwt>
</event>
<event>
 4    1  0.4055965E-007  0.9489004E+03  0.7818608E-02  0.9451698E-01
          1   -1    0    0  501    0  0.00000000000E+00  0.00000000000E+00  0.17462708182E+04  0.17462708183E+04  0.50400000000E-02 0. -1.
         -1   -1    0    0    0  501 -0.00000000000E+00 -0.00000000000E+00 -0.64635405122E+03  0.64635405124E+03  0.50400000000E-02 0.  1.
    8880023    1    1    2    0    0  0.48865420967E+03  0.47730380186E+03  0.13492833440E+04  0.16495386036E+04  0.65864270000E+03 0.  0.
    8880022    1    1    2    0    0 -0.48865420967E+03 -0.47730380186E+03 -0.24936657700E+03  0.74308626594E+03  0.15294330000E+03 0.  0.
<mgrwt>
<rscale>  0 0.87940571E+03</rscale>
<asrwt>0</asrwt>
<pdfrwt beam="1">  1        1 0.26865705E+00 0.94890045E+03</pdfrwt>
<pdfrwt beam="2">  1       -1 0.99439085E-01 0.94890045E+03</pdfrwt>
<totfact> 0.43426163E+00</totfact>
</mgrwt>
</event>
<event>
 4    1  0.4055965E-007  0.1164779E+04  0.7818608E-02  0.9192144E-01
         -1   -1    0    0    0  501 -0.00000000000E+00  0.00000000000E+00  0.76864699398E+03  0.76864699400E+03  0.50400000000E-02 0.  1.
          1   -1    0    0  501    0  0.00000000000E+00 -0.00000000000E+00 -0.16424804191E+04  0.16424804192E+04  0.50400000000E-02 0. -1.
    8880023    1    1    2    0    0  0.19007484826E+03 -0.94168527004E+03 -0.84305872609E+03  0.14378657161E+04  0.65864270000E+03 0. -1.
    8880022    1    1    2    0    0 -0.19007484826E+03  0.94168527004E+03 -0.30774699068E+02  0.97326169701E+03  0.15294330000E+03 0.  0.
<mgrwt>
<rscale>  0 0.11134884E+04</rscale>
<asrwt>0</asrwt>
<pdfrwt beam="1">  1        1 0.25268929E+00 0.11647789E+04</pdfrwt>
<pdfrwt beam="2">  1       -1 0.11825338E+00 0.11647789E+04</pdfrwt>
<totfact> 0.33047352E+00</totfact>
</mgrwt>
</event>
<event>
 4    1  0.4055965E-007  0.6637066E+03  0.7818608E-02  0.1020644E+00
          1   -1    0    0  501    0  0.00000000000E+00  0.00000000000E+00  0.77299635017E+03  0.77299635019E+03  0.50400000000E-02 0. -1.
         -1   -1    0    0    0  501 -0.00000000000E+00 -0.00000000000E+00 -0.61029120594E+03  0.61029120596E+03  0.50400000000E-02 0.  1.
    8880023    1    1    2    0    0  0.78314830244E+02  0.23727820137E+02  0.61129856780E+03  0.90232608704E+03  0.65864270000E+03 0. -1.
    8880022    1    1    2    0    0 -0.78314830244E+02 -0.23727820137E+02 -0.44859342357E+03  0.48096146912E+03  0.15294330000E+03 0.  0.
<mgrwt>
<rscale>  0 0.47454897E+03</rscale>
<asrwt>0</asrwt>
<pdfrwt beam="1">  1        1 0.11892252E+00 0.66370658E+03</pdfrwt>
<pdfrwt beam="2">  1       -1 0.93890955E-01 0.66370658E+03</pdfrwt>
<totfact> 0.26606125E+01</totfact>
</mgrwt>
</event>
<event>
 4    1  0.4055965E-007  0.1407435E+04  0.7818608E-02  0.8977927E-01
          1   -1    0    0  501    0  0.00000000000E+00  0.00000000000E+00  0.13369145737E+04  0.13369145737E+04  0.50400000000E-02 0. -1.
         -1   -1    0    0    0  501 -0.00000000000E+00 -0.00000000000E+00 -0.15540658566E+04  0.15540658566E+04  0.50400000000E-02 0.  1.
    8880023    1    1    2    0    0 -0.11981764494E+04 -0.33382247596E+03  0.44175784863E+03  0.14751354014E+04  0.65864270000E+03 0. -1.
    8880022    1    1    2    0    0  0.11981764494E+04  0.33382247596E+03 -0.65890913156E+03  0.14158450289E+04  0.15294330000E+03 0.  1.
<mgrwt>
<rscale>  0 0.13671765E+04</rscale>
<asrwt>0</asrwt>
<pdfrwt beam="1">  1        1 0.20567917E+00 0.14074354E+04</pdfrwt>
<pdfrwt beam="2">  1       -1 0.23908705E+00 0.14074354E+04</pdfrwt>
<totfact> 0.66962852E-01</totfact>
</mgrwt>
</event>
<event>
 4    1  0.4055965E-007  0.7757479E+03  0.7818608E-02  0.9765922E-01
         -1   -1    0    0    0  501 -0.00000000000E+00  0.00000000000E+00  0.50316507300E+03  0.50316507303E+03  0.50400000000E-02 0.  1.
          1   -1    0    0  501    0  0.00000000000E+00 -0.00000000000E+00 -0.11832299000E+04  0.11832299000E+04  0.50400000000E-02 0. -1.
    8880023    1    1    2    0    0 -0.35593176476E+03  0.20319260106E+03 -0.90706902264E+03  0.11935489401E+04  0.65864270000E+03 0. -1.
    8880022    1    1    2    0    0  0.35593176476E+03 -0.20319260106E+03  0.22700419568E+03  0.49284603292E+03  0.15294330000E+03 0.  1.
<mgrwt>
<rscale>  0 0.67223893E+03</rscale>
<asrwt>0</asrwt>
<pdfrwt beam="1">  1        1 0.18203537E+00 0.77574794E+03</pdfrwt>
<pdfrwt beam="2">  1       -1 0.77410011E-01 0.77574794E+03</pdfrwt>
<totfact> 0.18902694E+01</totfact>
</mgrwt>
</event>
<event>
 4    1  0.4055965E-007  0.1341843E+04  0.7818608E-02  0.9030243E-01
          1   -1    0    0  501    0  0.00000000000E+00  0.00000000000E+00  0.24146159554E+04  0.24146159554E+04  0.50400000000E-02 0. -1.
         -1   -1    0    0    0  501 -0.00000000000E+00 -0.00000000000E+00 -0.10325126598E+04  0.10325126598E+04  0.50400000000E-02 0.  1.
    8880023    1    1    2    0    0 -0.10475377622E+04  0.51903369958E+03  0.17562129903E+04  0.22101641609E+04  0.65864270000E+03 0.  0.
    8880022    1    1    2    0    0  0.10475377622E+04 -0.51903369958E+03 -0.37410969467E+03  0.12369644543E+04  0.15294330000E+03 0.  1.
<mgrwt>
<rscale>  0 0.12991456E+04</rscale>
<asrwt>0</asrwt>
<pdfrwt beam="1">  1        1 0.37147938E+00 0.13418426E+04</pdfrwt>
<pdfrwt beam="2">  1       -1 0.15884810E+00 0.13418426E+04</pdfrwt>
<totfact> 0.44758366E-01</totfact>
</mgrwt>
</event>
<event>
 4    1  0.4055965E-007  0.7366941E+03  0.7818608E-02  0.9869684E-01
          1   -1    0    0  501    0  0.00000000000E+00  0.00000000000E+00  0.42594595013E+04  0.42594595013E+04  0.50400000000E-02 0. -1.
         -1   -1    0    0    0  501 -0.00000000000E+00 -0.00000000000E+00 -0.91828086243E+02  0.91828086381E+02  0.50400000000E-02 0.  1.
    8880023    1    1    2    0    0 -0.62214336389E+02 -0.32409464897E+03  0.36177314277E+04  0.36919776346E+04  0.65864270000E+03 0. -1.
    8880022    1    1    2    0    0  0.62214336389E+02  0.32409464897E+03  0.54989998742E+03  0.65930995315E+03  0.15294330000E+03 0.  0.
<mgrwt>
<rscale>  0 0.61753306E+03</rscale>
<asrwt>0</asrwt>
<pdfrwt beam="1">  1        1 0.65530141E+00 0.73669408E+03</pdfrwt>
<pdfrwt beam="2">  1       -1 0.14127399E-01 0.73669408E+03</pdfrwt>
<totfact> 0.22448725E+00</totfact>
</mgrwt>
</event>
<event>
 4    1  0.4055965E-007  0.6867204E+03  0.7818608E-02  0.1005752E+00
         -1   -1    0    0    0  501 -0.00000000000E+00  0.00000000000E+00  0.59987343281E+03  0.59987343283E+03  0.50400000000E-02 0.  1.
          1   -1    0    0  501    0  0.00000000000E+00 -0.00000000000E+00 -0.62384968854E+03  0.62384968856E+03  0.50400000000E-02 0. -1.
    8880023    1    1    2    0    0  0.19432679953E+03  0.34411835983E+01 -0.38410961830E+03  0.78684506219E+03  0.65864270000E+03 0. -1.
    8880022    1    1    2    0    0 -0.19432679953E+03 -0.34411835983E+01  0.36013336257E+03  0.43687805920E+03  0.15294330000E+03 0.  0.
<mgrwt>
<rscale>  0 0.53198464E+03</rscale>
<asrwt>0</asrwt>
<pdfrwt beam="1">  1        1 0.95976875E-01 0.68672043E+03</pdfrwt>
<pdfrwt beam="2">  1       -1 0.92288221E-01 0.68672043E+03</pdfrwt>
<totfact> 0.38068379E+01</totfact>
</mgrwt>
</event>
<event>
 4    1  0.4055965E-007  0.7826289E+03  0.7818608E-02  0.9749698E-01
          1   -1    0    0  501    0  0.00000000000E+00  0.00000000000E+00  0.49724188888E+03  0.49724188891E+03  0.50400000000E-02 0. -1.
         -1   -1    0    0    0  501 -0.00000000000E+00 -0.00000000000E+00 -0.81353643223E+03  0.81353643225E+03  0.50400000000E-02 0.  1.
    8880023    1    1    2    0    0  0.88859425310E+02 -0.41328169220E+03 -0.41135570348E+02  0.78370919095E+03  0.65864270000E+03 0.  0.
    8880022    1    1    2    0    0 -0.88859425310E+02  0.41328169220E+03 -0.27515897300E+03  0.52706913020E+03  0.15294330000E+03 0.  0.
<mgrwt>
<rscale>  0 0.68133366E+03</rscale>
<asrwt>0</asrwt>
<pdfrwt beam="1">  1        1 0.76498752E-01 0.78262888E+03</pdfrwt>
<pdfrwt beam="2">  1       -1 0.12515945E+00 0.78262888E+03</pdfrwt>
<totfact> 0.25448741E+01</totfact>
</mgrwt>
</event>
<event>
 4    1  0.4055965E-007  0.7765774E+03  0.7818608E-02  0.9763939E-01
         -1   -1    0    0    0  501 -0.00000000000E+00  0.00000000000E+00  0.42677980050E+03  0.42677980053E+03  0.50400000000E-02 0.  1.
          1   -1    0    0  501    0  0.00000000000E+00 -0.00000000000E+00 -0.10123508482E+04  0.10123508482E+04  0.50400000000E-02 0. -1.
    8880023    1    1    2    0    0  0.41079795581E+03 -0.22521933099E+02 -0.62721784133E+03  0.99823575608E+03  0.65864270000E+03 0.  0.
    8880022    1    1    2    0    0 -0.41079795581E+03  0.22521933099E+02  0.41646793612E+02  0.44089489269E+03  0.15294330000E+03 0.  0.
<mgrwt>
<rscale>  0 0.67334208E+03</rscale>
<asrwt>0</asrwt>
<pdfrwt beam="1">  1        1 0.15574628E+00 0.77657737E+03</pdfrwt>
<pdfrwt beam="2">  1       -1 0.65658431E-01 0.77657737E+03</pdfrwt>
<totfact> 0.35607936E+01</totfact>
</mgrwt>
</event>
<event>
 4    1  0.4055965E-007  0.7653674E+03  0.7818608E-02  0.9791405E-01
         -1   -1    0    0    0  501 -0.00000000000E+00  0.00000000000E+00  0.39093642002E+03  0.39093642005E+03  0.50400000000E-02 0.  1.
          1   -1    0    0  501    0  0.00000000000E+00 -0.00000000000E+00 -0.11091148468E+04  0.11091148468E+04  0.50400000000E-02 0. -1.
    8880023    1    1    2    0    0  0.22549775287E+03 -0.31800609167E+03 -0.76073694954E+03  0.10791237295E+04  0.65864270000E+03 0. -1.
    8880022    1    1    2    0    0 -0.22549775287E+03  0.31800609167E+03  0.42558522720E+02  0.42092753742E+03  0.15294330000E+03 0.  0.
<mgrwt>
<rscale>  0 0.65825856E+03</rscale>
<asrwt>0</asrwt>
<pdfrwt beam="1">  1        1 0.17063305E+00 0.76536744E+03</pdfrwt>
<pdfrwt beam="2">  1       -1 0.60144065E-01 0.76536744E+03</pdfrwt>
<totfact> 0.35866895E+01</totfact>
</mgrwt>
</event>
<event>
 4    1  0.4055965E-007  0.7466078E+03  0.7818608E-02  0.9841101E-01
         -1   -1    0    0    0  501 -0.00000000000E+00  0.00000000000E+00  0.63787489546E+03  0.63787489548E+03  0.50400000000E-02 0.  1.
          1   -1    0    0  501    0  0.00000000000E+00 -0.00000000000E+00 -0.68951892181E+03  0.68951892182E+03  0.50400000000E-02 0. -1.
    8880023    1    1    2    0    0  0.30799399144E+03  0.16956604684E+03 -0.36608843428E+03  0.83153105232E+03  0.65864270000E+03 0. -1.
    8880022    1    1    2    0    0 -0.30799399144E+03 -0.16956604684E+03  0.31444440794E+03  0.49586276499E+03  0.15294330000E+03 0.  0.
<mgrwt>
<rscale>  0 0.63202716E+03</rscale>
<asrwt>0</asrwt>
<pdfrwt beam="1">  1        1 0.10607983E+00 0.74660776E+03</pdfrwt>
<pdfrwt beam="2">  1       -1 0.98134599E-01 0.74660776E+03</pdfrwt>
<totfact> 0.28441693E+01</totfact>
</mgrwt>
</event>
<event>
 4    1  0.4055965E-007  0.1582118E+04  0.7818608E-02  0.8853725E-01
          1   -1    0    0  501    0  0.00000000000E+00  0.00000000000E+00  0.31007906472E+04  0.31007906472E+04  0.50400000000E-02 0. -1.
         -1   -1    0    0    0  501 -0.00000000000E+00 -0.00000000000E+00 -0.12558308173E+04  0.12558308173E+04  0.50400000000E-02 0.  1.
    8880023    1    1    2    0    0  0.13311344419E+04 -0.54531495436E+03 -0.44902427704E+03  0.16446033897E+04  0.65864270000E+03 0.  1.
    8880022    1    1    2    0    0 -0.13311344419E+04  0.54531495436E+03  0.22939841070E+04  0.27120180748E+04  0.15294330000E+03 0.  0.
<mgrwt>
<rscale>  0 0.15470950E+04</rscale>
<asrwt>0</asrwt>
<pdfrwt beam="1">  1        1 0.47704471E+00 0.15821180E+04</pdfrwt>
<pdfrwt beam="2">  1       -1 0.19320474E+00 0.15821180E+04</pdfrwt>
<totfact> 0.79370134E-02</totfact>
</mgrwt>
</event>
<event>
 4    1  0.4055965E-007  0.8489437E+03  0.7818608E-02  0.9613541E-01
         -1   -1    0    0    0  501 -0.00000000000E+00  0.00000000000E+00  0.33230266049E+03  0.33230266053E+03  0.50400000000E-02 0.  1.
          1   -1    0    0  501    0  0.00000000000E+00 -0.00000000000E+00 -0.16487659222E+04  0.16487659223E+04  0.50400000000E-02 0. -1.
    8880023    1    1    2    0    0  0.28988406502E+03 -0.45040258326E+03 -0.10855064247E+04  0.13780528518E+04  0.65864270000E+03 0. -1.
    8880022    1    1    2    0    0 -0.28988406502E+03  0.45040258326E+03 -0.23095683708E+03  0.60301573095E+03  0.15294330000E+03 0.  0.
<mgrwt>
<rscale>  0 0.76406378E+03</rscale>
<asrwt>0</asrwt>
<pdfrwt beam="1">  1        1 0.25365629E+00 0.84894373E+03</pdfrwt>
<pdfrwt beam="2">  1       -1 0.51123487E-01 0.84894373E+03</pdfrwt>
<totfact> 0.20340756E+01</totfact>
</mgrwt>
</event>
<event>
 4    1  0.4055965E-007  0.6905176E+03  0.7818608E-02  0.1003908E+00
          1   -1    0    0  501    0  0.00000000000E+00  0.00000000000E+00  0.30401150195E+04  0.30401150195E+04  0.50400000000E-02 0. -1.
         -1   -1    0    0    0  501 -0.00000000000E+00 -0.00000000000E+00 -0.11968078883E+03  0.11968078893E+03  0.50400000000E-02 0.  1.
    8880023    1    1    2    0    0  0.19546586505E+03  0.69263870922E+02  0.27837485725E+04  0.28681127435E+04  0.65864270000E+03 0. -1.
    8880022    1    1    2    0    0 -0.19546586505E+03 -0.69263870922E+02  0.13668565818E+03  0.29168306495E+03  0.15294330000E+03 0.  0.
<mgrwt>
<rscale>  0 0.53969557E+03</rscale>
<asrwt>0</asrwt>
<pdfrwt beam="1">  1        1 0.46770996E+00 0.69051763E+03</pdfrwt>
<pdfrwt beam="2">  1       -1 0.18412431E-01 0.69051763E+03</pdfrwt>
<totfact> 0.14052247E+01</totfact>
</mgrwt>
</event>
<event>
 4    1  0.4055965E-007  0.9947797E+03  0.7818608E-02  0.9388419E-01
          1   -1    0    0  501    0  0.00000000000E+00  0.00000000000E+00  0.12799808672E+04  0.12799808672E+04  0.50400000000E-02 0. -1.
         -1   -1    0    0    0  501 -0.00000000000E+00 -0.00000000000E+00 -0.11251471986E+04  0.11251471986E+04  0.50400000000E-02 0.  1.
    8880023    1    1    2    0    0 -0.65114310961E+03  0.36302765249E+03  0.89893431536E+03  0.13407719923E+04  0.65864270000E+03 0.  0.
    8880022    1    1    2    0    0  0.65114310961E+03 -0.36302765249E+03 -0.74410064682E+03  0.10643560735E+04  0.15294330000E+03 0.  0.
<mgrwt>
<rscale>  0 0.93034871E+03</rscale>
<asrwt>0</asrwt>
<pdfrwt beam="1">  1        1 0.19692013E+00 0.99477969E+03</pdfrwt>
<pdfrwt beam="2">  1       -1 0.17309957E+00 0.99477969E+03</pdfrwt>
<totfact> 0.21945133E+00</totfact>
</mgrwt>
</event>
<event>
 4    1  0.4055965E-007  0.7086172E+03  0.7818608E-02  0.9963172E-01
          1   -1    0    0  501    0  0.00000000000E+00  0.00000000000E+00  0.60157210361E+03  0.60157210363E+03  0.50400000000E-02 0. -1.
         -1   -1    0    0    0  501 -0.00000000000E+00 -0.00000000000E+00 -0.74331639913E+03  0.74331639915E+03  0.50400000000E-02 0.  1.
    8880023    1    1    2    0    0 -0.52695598048E+02  0.25602985924E+03  0.33206113807E+03  0.78256176788E+03  0.65864270000E+03 0. -1.
    8880022    1    1    2    0    0  0.52695598048E+02 -0.25602985924E+03 -0.47380543358E+03  0.56232673490E+03  0.15294330000E+03 0.  0.
<mgrwt>
<rscale>  0 0.57294988E+03</rscale>
<asrwt>0</asrwt>
<pdfrwt beam="1">  1        1 0.92549554E-01 0.70861719E+03</pdfrwt>
<pdfrwt beam="2">  1       -1 0.11435637E+00 0.70861719E+03</pdfrwt>
<totfact> 0.24448767E+01</totfact>
</mgrwt>
</event>
<event>
 4    1  0.4055965E-007  0.7332946E+03  0.7818608E-02  0.9879928E-01
         -1   -1    0    0    0  501 -0.00000000000E+00  0.00000000000E+00  0.34810881943E+03  0.34810881947E+03  0.50400000000E-02 0.  1.
          1   -1    0    0  501    0  0.00000000000E+00 -0.00000000000E+00 -0.88486643159E+03  0.88486643160E+03  0.50400000000E-02 0. -1.
    8880023    1    1    2    0    0  0.13876865633E+03  0.29095353834E+03 -0.46715087953E+03  0.86945434150E+03  0.65864270000E+03 0. -1.
    8880022    1    1    2    0    0 -0.13876865633E+03 -0.29095353834E+03 -0.69606732629E+02  0.36352090957E+03  0.15294330000E+03 0.  1.
<mgrwt>
<rscale>  0 0.61243979E+03</rscale>
<asrwt>0</asrwt>
<pdfrwt beam="1">  1        1 0.13613330E+00 0.73329456E+03</pdfrwt>
<pdfrwt beam="2">  1       -1 0.53555203E-01 0.73329456E+03</pdfrwt>
<totfact> 0.67399064E+01</totfact>
</mgrwt>
</event>
<event>
 4    1  0.4055965E-007  0.7247085E+03  0.7818608E-02  0.9906964E-01
          1   -1    0    0  501    0  0.00000000000E+00  0.00000000000E+00  0.25721322129E+04  0.25721322129E+04  0.50400000000E-02 0. -1.
         -1   -1    0    0    0  501 -0.00000000000E+00 -0.00000000000E+00 -0.13306027563E+03  0.13306027572E+03  0.50400000000E-02 0.  1.
    8880023    1    1    2    0    0  0.67683843154E+02 -0.29463728619E+03  0.10527937712E+04  0.12781146912E+04  0.65864270000E+03 0.  0.
    8880022    1    1    2    0    0 -0.67683843154E+02  0.29463728619E+03  0.13862781661E+04  0.14270777974E+04  0.15294330000E+03 0.  0.
<mgrwt>
<rscale>  0 0.59924945E+03</rscale>
<asrwt>0</asrwt>
<pdfrwt beam="1">  1        1 0.39571260E+00 0.72470852E+03</pdfrwt>
<pdfrwt beam="2">  1       -1 0.20470814E-01 0.72470852E+03</pdfrwt>
<totfact> 0.24952040E+01</totfact>
</mgrwt>
</event>
<event>
 4    1  0.4055965E-007  0.9344211E+03  0.7818608E-02  0.9472892E-01
         -1   -1    0    0    0  501 -0.00000000000E+00  0.00000000000E+00  0.10221996715E+04  0.10221996715E+04  0.50400000000E-02 0.  1.
          1   -1    0    0  501    0  0.00000000000E+00 -0.00000000000E+00 -0.15610244803E+04  0.15610244803E+04  0.50400000000E-02 0. -1.
    8880023    1    1    2    0    0 -0.47334366739E+03 -0.46398105013E+03 -0.12750899608E+04  0.15808217030E+04  0.65864270000E+03 0.  0.
    8880022    1    1    2    0    0  0.47334366739E+03  0.46398105013E+03  0.73626515195E+03  0.10024024488E+04  0.15294330000E+03 0.  0.
<mgrwt>
<rscale>  0 0.86312218E+03</rscale>
<asrwt>0</asrwt>
<pdfrwt beam="1">  1        1 0.24015761E+00 0.93442113E+03</pdfrwt>
<pdfrwt beam="2">  1       -1 0.15726149E+00 0.93442113E+03</pdfrwt>
<totfact> 0.18489999E+00</totfact>
</mgrwt>
</event>
<event>
 4    1  0.4055965E-007  0.8160415E+03  0.7818608E-02  0.9677127E-01
         -1   -1    0    0    0  501 -0.00000000000E+00  0.00000000000E+00  0.31748338962E+03  0.31748338966E+03  0.50400000000E-02 0.  1.
          1   -1    0    0  501    0  0.00000000000E+00 -0.00000000000E+00 -0.14988582686E+04  0.14988582687E+04  0.50400000000E-02 0. -1.
    8880023    1    1    2    0    0  0.36467111111E+03  0.31484682895E+03 -0.97221527340E+03  0.12693014965E+04  0.65864270000E+03 0. -1.
    8880022    1    1    2    0    0 -0.36467111111E+03 -0.31484682895E+03 -0.20915960563E+03  0.54704016179E+03  0.15294330000E+03 0.  0.
<mgrwt>
<rscale>  0 0.72395097E+03</rscale>
<asrwt>0</asrwt>
<pdfrwt beam="1">  1        1 0.23059358E+00 0.81604151E+03</pdfrwt>
<pdfrwt beam="2">  1       -1 0.48843599E-01 0.81604151E+03</pdfrwt>
<totfact> 0.28170837E+01</totfact>
</mgrwt>
</event>
<event>
 4    1  0.4055965E-007  0.7888488E+03  0.7818608E-02  0.9735447E-01
         -1   -1    0    0    0  501 -0.00000000000E+00  0.00000000000E+00  0.51326951543E+03  0.51326951546E+03  0.50400000000E-02 0.  1.
          1   -1    0    0  501    0  0.00000000000E+00 -0.00000000000E+00 -0.40641122833E+04  0.40641122833E+04  0.50400000000E-02 0. -1.
    8880023    1    1    2    0    0 -0.42331621809E+03 -0.96309700005E+02  0.18748621050E+03  0.81082270825E+03  0.65864270000E+03 0.  0.
    8880022    1    1    2    0    0  0.42331621809E+03  0.96309700005E+02 -0.37383289784E+04  0.37665590905E+04  0.15294330000E+03 0.  0.
<mgrwt>
<rscale>  0 0.68944943E+03</rscale>
<asrwt>0</asrwt>
<pdfrwt beam="1">  1        1 0.62524802E+00 0.78884877E+03</pdfrwt>
<pdfrwt beam="2">  1       -1 0.78964544E-01 0.78884877E+03</pdfrwt>
<totfact> 0.14977180E-01</totfact>
</mgrwt>
</event>
<event>
 4    1  0.4055965E-007  0.6710721E+03  0.7818608E-02  0.1014906E+00
          1   -1    0    0  501    0  0.00000000000E+00  0.00000000000E+00  0.20174049689E+04  0.20174049689E+04  0.50400000000E-02 0. -1.
         -1   -1    0    0    0  501 -0.00000000000E+00 -0.00000000000E+00 -0.18434776194E+03  0.18434776201E+03  0.50400000000E-02 0.  1.
    8880023    1    1    2    0    0  0.11879148553E+03 -0.49154435794E+02  0.18802846698E+04  0.19964489028E+04  0.65864270000E+03 0. -1.
    8880022    1    1    2    0    0 -0.11879148553E+03  0.49154435794E+02 -0.47227462849E+02  0.20530382815E+03  0.15294330000E+03 0.  0.
<mgrwt>
<rscale>  0 0.49570655E+03</rscale>
<asrwt>0</asrwt>
<pdfrwt beam="1">  1        1 0.31036999E+00 0.67107211E+03</pdfrwt>
<pdfrwt beam="2">  1       -1 0.28361195E-01 0.67107211E+03</pdfrwt>
<totfact> 0.34210988E+01</totfact>
</mgrwt>
</event>
<event>
 4    1  0.4055965E-007  0.6994650E+03  0.7818608E-02  0.9999428E-01
          1   -1    0    0  501    0  0.00000000000E+00  0.00000000000E+00  0.23365597510E+04  0.23365597510E+04  0.50400000000E-02 0. -1.
         -1   -1    0    0    0  501 -0.00000000000E+00 -0.00000000000E+00 -0.23725508203E+03  0.23725508208E+03  0.50400000000E-02 0.  1.
    8880023    1    1    2    0    0 -0.27898857204E+02 -0.23380053506E+03  0.21736063979E+04  0.22833782026E+04  0.65864270000E+03 0. -1.
    8880022    1    1    2    0    0  0.27898857204E+02  0.23380053506E+03 -0.74301728952E+02  0.29043663056E+03  0.15294330000E+03 0.  0.
<mgrwt>
<rscale>  0 0.55675326E+03</rscale>
<asrwt>0</asrwt>
<pdfrwt beam="1">  1        1 0.35947072E+00 0.69946497E+03</pdfrwt>
<pdfrwt beam="2">  1       -1 0.36500783E-01 0.69946497E+03</pdfrwt>
<totfact> 0.13362784E+01</totfact>
</mgrwt>
</event>
<event>
 4    1  0.4055965E-007  0.1233009E+04  0.7818608E-02  0.9125684E-01
         -1   -1    0    0    0  501 -0.00000000000E+00  0.00000000000E+00  0.10700736538E+04  0.10700736538E+04  0.50400000000E-02 0.  1.
          1   -1    0    0  501    0  0.00000000000E+00 -0.00000000000E+00 -0.14631768933E+04  0.14631768933E+04  0.50400000000E-02 0. -1.
    8880023    1    1    2    0    0 -0.24270116204E+03  0.10137050759E+04  0.30406331882E+03  0.12699474568E+04  0.65864270000E+03 0.  1.
    8880022    1    1    2    0    0  0.24270116204E+03 -0.10137050759E+04 -0.69716655826E+03  0.12633030903E+04  0.15294330000E+03 0. -1.
<mgrwt>
<rscale>  0 0.11854546E+04</rscale>
<asrwt>0</asrwt>
<pdfrwt beam="1">  1        1 0.22510414E+00 0.12330093E+04</pdfrwt>
<pdfrwt beam="2">  1       -1 0.16462672E+00 0.12330093E+04</pdfrwt>
<totfact> 0.18280469E+00</totfact>
</mgrwt>
</event>
<event>
 4    1  0.4055965E-007  0.7303856E+03  0.7818608E-02  0.9888894E-01
          1   -1    0    0  501    0  0.00000000000E+00  0.00000000000E+00  0.22945898726E+04  0.22945898726E+04  0.50400000000E-02 0. -1.
         -1   -1    0    0    0  501 -0.00000000000E+00 -0.00000000000E+00 -0.12771622213E+03  0.12771622223E+03  0.50400000000E-02 0.  1.
    8880023    1    1    2    0    0 -0.26799343089E+03  0.16683076908E+03  0.14024744401E+04  0.15812646034E+04  0.65864270000E+03 0.  1.
    8880022    1    1    2    0    0  0.26799343089E+03 -0.16683076908E+03  0.76439921029E+03  0.84104149138E+03  0.15294330000E+03 0. -1.
<mgrwt>
<rscale>  0 0.60802580E+03</rscale>
<asrwt>0</asrwt>
<pdfrwt beam="1">  1        1 0.35301381E+00 0.73038565E+03</pdfrwt>
<pdfrwt beam="2">  1       -1 0.19648650E-01 0.73038565E+03</pdfrwt>
<totfact> 0.41207371E+01</totfact>
</mgrwt>
</event>
<event>
 4    1  0.4055965E-007  0.6834273E+03  0.7818608E-02  0.1007448E+00
          1   -1    0    0  501    0  0.00000000000E+00  0.00000000000E+00  0.20685749460E+04  0.20685749460E+04  0.50400000000E-02 0. -1.
         -1   -1    0    0    0  501 -0.00000000000E+00 -0.00000000000E+00 -0.14089091493E+03  0.14089091502E+03  0.50400000000E-02 0.  1.
    8880023    1    1    2    0    0  0.56723600527E+02  0.17333532269E+03  0.18276999011E+04  0.19512969624E+04  0.65864270000E+03 0. -1.
    8880022    1    1    2    0    0 -0.56723600527E+02 -0.17333532269E+03  0.99984130029E+02  0.25816889863E+03  0.15294330000E+03 0.  0.
<mgrwt>
<rscale>  0 0.52501706E+03</rscale>
<asrwt>0</asrwt>
<pdfrwt beam="1">  1        1 0.31824229E+00 0.68342732E+03</pdfrwt>
<pdfrwt beam="2">  1       -1 0.21675526E-01 0.68342732E+03</pdfrwt>
<totfact> 0.49876600E+01</totfact>
</mgrwt>
</event>
<event>
 4    1  0.4055965E-007  0.8162223E+03  0.7818608E-02  0.9676759E-01
         -1   -1    0    0    0  501 -0.00000000000E+00  0.00000000000E+00  0.29707168680E+03  0.29707168685E+03  0.50400000000E-02 0.  1.
          1   -1    0    0  501    0  0.00000000000E+00 -0.00000000000E+00 -0.19143091093E+04  0.19143091094E+04  0.50400000000E-02 0. -1.
    8880023    1    1    2    0    0  0.47824755822E+03 -0.60728492716E+02 -0.14753581985E+04  0.16860903584E+04  0.65864270000E+03 0.  1.
    8880022    1    1    2    0    0 -0.47824755822E+03  0.60728492716E+02 -0.14187922409E+03  0.52529043777E+03  0.15294330000E+03 0.  0.
<mgrwt>
<rscale>  0 0.72417577E+03</rscale>
<asrwt>0</asrwt>
<pdfrwt beam="1">  1        1 0.29450909E+00 0.81622232E+03</pdfrwt>
<pdfrwt beam="2">  1       -1 0.45703338E-01 0.81622232E+03</pdfrwt>
<totfact> 0.16721219E+01</totfact>
</mgrwt>
</event>
<event>
 4    1  0.4055965E-007  0.8264314E+03  0.7818608E-02  0.9656316E-01
          1   -1    0    0  501    0  0.00000000000E+00  0.00000000000E+00  0.25431779787E+04  0.25431779787E+04  0.50400000000E-02 0. -1.
         -1   -1    0    0    0  501 -0.00000000000E+00 -0.00000000000E+00 -0.32692220082E+03  0.32692220086E+03  0.50400000000E-02 0.  1.
    8880023    1    1    2    0    0 -0.45542719978E+03 -0.20436433935E+03  0.21974075535E+04  0.23476773373E+04  0.65864270000E+03 0. -1.
    8880022    1    1    2    0    0  0.45542719978E+03  0.20436433935E+03  0.18848224301E+02  0.52242284222E+03  0.15294330000E+03 0.  0.
<mgrwt>
<rscale>  0 0.73678360E+03</rscale>
<asrwt>0</asrwt>
<pdfrwt beam="1">  1        1 0.39125816E+00 0.82643144E+03</pdfrwt>
<pdfrwt beam="2">  1       -1 0.50295723E-01 0.82643144E+03</pdfrwt>
<totfact> 0.52453338E+00</totfact>
</mgrwt>
</event>
<event>
 4    1  0.4055965E-007  0.6638381E+03  0.7818608E-02  0.1020529E+00
          1   -1    0    0  501    0  0.00000000000E+00  0.00000000000E+00  0.84684968594E+03  0.84684968595E+03  0.50400000000E-02 0. -1.
         -1   -1    0    0    0  501 -0.00000000000E+00 -0.00000000000E+00 -0.18481767299E+04  0.18481767299E+04  0.50400000000E-02 0.  1.
    8880023    1    1    2    0    0 -0.62903250202E+02 -0.53981929283E+02  0.71166988425E+03  0.97321893631E+03  0.65864270000E+03 0. -1.
    8880022    1    1    2    0    0  0.62903250202E+02  0.53981929283E+02 -0.17129969282E+04  0.17218074795E+04  0.15294330000E+03 0.  0.
<mgrwt>
<rscale>  0 0.47496301E+03</rscale>
<asrwt>0</asrwt>
<pdfrwt beam="1">  1        1 0.13028457E+00 0.66383814E+03</pdfrwt>
<pdfrwt beam="2">  1       -1 0.28433488E+00 0.66383814E+03</pdfrwt>
<totfact> 0.90413646E-01</totfact>
</mgrwt>
</event>
<event>
 4    1  0.4055965E-007  0.6636270E+03  0.7818608E-02  0.1020714E+00
          1   -1    0    0  501    0  0.00000000000E+00  0.00000000000E+00  0.26268269728E+03  0.26268269733E+03  0.50400000000E-02 0. -1.
         -1   -1    0    0    0  501 -0.00000000000E+00 -0.00000000000E+00 -0.12982072520E+04  0.12982072520E+04  0.50400000000E-02 0.  1.
    8880023    1    1    2    0    0  0.19906406017E+02 -0.78703855473E+02 -0.17942475976E+03  0.68745473491E+03  0.65864270000E+03 0. -1.
    8880022    1    1    2    0    0 -0.19906406017E+02  0.78703855473E+02 -0.85609979492E+03  0.87343521440E+03  0.15294330000E+03 0.  0.
<mgrwt>
<rscale>  0 0.47429767E+03</rscale>
<asrwt>0</asrwt>
<pdfrwt beam="1">  1        1 0.40412723E-01 0.66362698E+03</pdfrwt>
<pdfrwt beam="2">  1       -1 0.19972419E+00 0.66362698E+03</pdfrwt>
<totfact> 0.16359701E+01</totfact>
</mgrwt>
</event>
<event>
 4    1  0.4055965E-007  0.9358387E+03  0.7818608E-02  0.9470789E-01
          1   -1    0    0  501    0  0.00000000000E+00  0.00000000000E+00  0.13059224663E+04  0.13059224663E+04  0.50400000000E-02 0. -1.
         -1   -1    0    0    0  501 -0.00000000000E+00 -0.00000000000E+00 -0.69855147774E+03  0.69855147776E+03  0.50400000000E-02 0.  1.
    8880023    1    1    2    0    0 -0.43383299483E+03  0.50375862171E+03  0.86586490129E+03  0.12749572738E+04  0.65864270000E+03 0.  0.
    8880022    1    1    2    0    0  0.43383299483E+03 -0.50375862171E+03 -0.25849391272E+03  0.72951667032E+03  0.15294330000E+03 0.  0.
<mgrwt>
<rscale>  0 0.86472134E+03</rscale>
<asrwt>0</asrwt>
<pdfrwt beam="1">  1        1 0.20091115E+00 0.93583867E+03</pdfrwt>
<pdfrwt beam="2">  1       -1 0.10746946E+00 0.93583867E+03</pdfrwt>
<totfact> 0.73061446E+00</totfact>
</mgrwt>
</event>
<event>
 4    1  0.4055965E-007  0.1100638E+04  0.7818608E-02  0.9260346E-01
         -1   -1    0    0    0  501 -0.00000000000E+00  0.00000000000E+00  0.73063611276E+03  0.73063611277E+03  0.50400000000E-02 0.  1.
          1   -1    0    0  501    0  0.00000000000E+00 -0.00000000000E+00 -0.14471261581E+04  0.14471261581E+04  0.50400000000E-02 0. -1.
    8880023    1    1    2    0    0 -0.67554216623E+03 -0.56677700624E+03 -0.65473464486E+03  0.12806564936E+04  0.65864270000E+03 0.  0.
    8880022    1    1    2    0    0  0.67554216623E+03  0.56677700624E+03 -0.61755400503E+02  0.89710577730E+03  0.15294330000E+03 0.  0.
<mgrwt>
<rscale>  0 0.10451686E+04</rscale>
<asrwt>0</asrwt>
<pdfrwt beam="1">  1        1 0.22263479E+00 0.11006378E+04</pdfrwt>
<pdfrwt beam="2">  1       -1 0.11240556E+00 0.11006378E+04</pdfrwt>
<totfact> 0.51284664E+00</totfact>
</mgrwt>
</event>
<event>
 4    1  0.4055965E-007  0.8486647E+03  0.7818608E-02  0.9614054E-01
         -1   -1    0    0    0  501 -0.00000000000E+00  0.00000000000E+00  0.85201543278E+03  0.85201543280E+03  0.50400000000E-02 0.  1.
          1   -1    0    0  501    0  0.00000000000E+00 -0.00000000000E+00 -0.11012776074E+04  0.11012776074E+04  0.50400000000E-02 0. -1.
    8880023    1    1    2    0    0  0.40021846790E+03 -0.35531222977E+03 -0.80286157392E+03  0.11682544739E+04  0.65864270000E+03 0. -1.
    8880022    1    1    2    0    0 -0.40021846790E+03  0.35531222977E+03  0.55359939930E+03  0.78503856631E+03  0.15294330000E+03 0.  0.
<mgrwt>
<rscale>  0 0.76372958E+03</rscale>
<asrwt>0</asrwt>
<pdfrwt beam="1">  1        1 0.16942732E+00 0.84866472E+03</pdfrwt>
<pdfrwt beam="2">  1       -1 0.13107930E+00 0.84866472E+03</pdfrwt>
<totfact> 0.64173620E+00</totfact>
</mgrwt>
</event>
<event>
 4    1  0.4055965E-007  0.7133927E+03  0.7818608E-02  0.9945612E-01
         -1   -1    0    0    0  501 -0.00000000000E+00  0.00000000000E+00  0.18250026294E+03  0.18250026301E+03  0.50400000000E-02 0.  1.
          1   -1    0    0  501    0  0.00000000000E+00 -0.00000000000E+00 -0.18432025711E+04  0.18432025711E+04  0.50400000000E-02 0. -1.
    8880023    1    1    2    0    0  0.24607930417E+03  0.12068098556E+03 -0.15252855426E+04  0.16838720607E+04  0.65864270000E+03 0. -1.
    8880022    1    1    2    0    0 -0.24607930417E+03 -0.12068098556E+03 -0.13541676556E+03  0.34183077337E+03  0.15294330000E+03 0.  0.
<mgrwt>
<rscale>  0 0.58100765E+03</rscale>
<asrwt>0</asrwt>
<pdfrwt beam="1">  1        1 0.28356961E+00 0.71339269E+03</pdfrwt>
<pdfrwt beam="2">  1       -1 0.28076965E-01 0.71339269E+03</pdfrwt>
<totfact> 0.45235559E+01</totfact>
</mgrwt>
</event>
<event>
 4    1  0.4055965E-007  0.6691722E+03  0.7818608E-02  0.1016263E+00
         -1   -1    0    0    0  501 -0.00000000000E+00  0.00000000000E+00  0.14079160037E+03  0.14079160046E+03  0.50400000000E-02 0.  1.
          1   -1    0    0  501    0  0.00000000000E+00 -0.00000000000E+00 -0.14775100128E+04  0.14775100128E+04  0.50400000000E-02 0. -1.
    8880023    1    1    2    0    0 -0.10419332895E+03  0.55901145271E+02 -0.12227633459E+04  0.13938943985E+04  0.65864270000E+03 0. -1.
    8880022    1    1    2    0    0  0.10419332895E+03 -0.55901145271E+02 -0.11395506656E+03  0.22440721479E+03  0.15294330000E+03 0.  1.
<mgrwt>
<rscale>  0 0.49059477E+03</rscale>
<asrwt>0</asrwt>
<pdfrwt beam="1">  1        1 0.22730922E+00 0.66917217E+03</pdfrwt>
<pdfrwt beam="2">  1       -1 0.21660247E-01 0.66917217E+03</pdfrwt>
<totfact> 0.12468805E+02</totfact>
</mgrwt>
</event>
<event>
 4    1  0.4055965E-007  0.6756915E+03  0.7818608E-02  0.1011874E+00
         -1   -1    0    0    0  501 -0.00000000000E+00  0.00000000000E+00  0.18595143761E+03  0.18595143768E+03  0.50400000000E-02 0.  1.
          1   -1    0    0  501    0  0.00000000000E+00 -0.00000000000E+00 -0.10954380485E+04  0.10954380485E+04  0.50400000000E-02 0. -1.
    8880023    1    1    2    0    0  0.24851311576E+02 -0.14876545201E+03 -0.59366740794E+03  0.89944424225E+03  0.65864270000E+03 0. -1.
    8880022    1    1    2    0    0 -0.24851311576E+02  0.14876545201E+03 -0.31581920294E+03  0.38194524393E+03  0.15294330000E+03 0.  0.
<mgrwt>
<rscale>  0 0.50736616E+03</rscale>
<asrwt>0</asrwt>
<pdfrwt beam="1">  1        1 0.16852893E+00 0.67569146E+03</pdfrwt>
<pdfrwt beam="2">  1       -1 0.28607914E-01 0.67569146E+03</pdfrwt>
<totfact> 0.14490311E+02</totfact>
</mgrwt>
</event>
<event>
 4    1  0.4055965E-007  0.8925475E+03  0.7818608E-02  0.9538103E-01
         -1   -1    0    0    0  501 -0.00000000000E+00  0.00000000000E+00  0.27275498801E+04  0.27275498801E+04  0.50400000000E-02 0.  1.
          1   -1    0    0  501    0  0.00000000000E+00 -0.00000000000E+00 -0.36707472314E+03  0.36707472317E+03  0.50400000000E-02 0. -1.
    8880023    1    1    2    0    0 -0.29267517466E+03  0.52647128989E+03  0.29866868830E+03  0.94119284346E+03  0.65864270000E+03 0. -1.
    8880022    1    1    2    0    0  0.29267517466E+03 -0.52647128989E+03  0.20618064686E+04  0.21534317598E+04  0.15294330000E+03 0.  0.
<mgrwt>
<rscale>  0 0.81532015E+03</rscale>
<asrwt>0</asrwt>
<pdfrwt beam="1">  1        1 0.56473037E-01 0.89254747E+03</pdfrwt>
<pdfrwt beam="2">  1       -1 0.41962304E+00 0.89254747E+03</pdfrwt>
<totfact> 0.36858552E-01</totfact>
</mgrwt>
</event>
<event>
 4    1  0.4055965E-007  0.1380727E+04  0.7818608E-02  0.8998805E-01
         -1   -1    0    0    0  501 -0.00000000000E+00  0.00000000000E+00  0.21114371992E+04  0.21114371992E+04  0.50400000000E-02 0.  1.
          1   -1    0    0  501    0  0.00000000000E+00 -0.00000000000E+00 -0.99394348924E+03  0.99394348926E+03  0.50400000000E-02 0. -1.
    8880023    1    1    2    0    0 -0.46202957333E+03 -0.11221074006E+04 -0.93891576473E+02  0.13839155247E+04  0.65864270000E+03 0. -1.
    8880022    1    1    2    0    0  0.46202957333E+03  0.11221074006E+04  0.12113852865E+04  0.17214651638E+04  0.15294330000E+03 0.  0.
<mgrwt>
<rscale>  0 0.13395127E+04</rscale>
<asrwt>0</asrwt>
<pdfrwt beam="1">  1        1 0.15291438E+00 0.13807268E+04</pdfrwt>
<pdfrwt beam="2">  1       -1 0.32483649E+00 0.13807268E+04</pdfrwt>
<totfact> 0.33591947E-01</totfact>
</mgrwt>
</event>
<event>
 4    1  0.4055965E-007  0.7870982E+03  0.7818608E-02  0.9739420E-01
         -1   -1    0    0    0  501 -0.00000000000E+00  0.00000000000E+00  0.57176864940E+03  0.57176864942E+03  0.50400000000E-02 0.  1.
          1   -1    0    0  501    0  0.00000000000E+00 -0.00000000000E+00 -0.11772044619E+04  0.11772044619E+04  0.50400000000E-02 0. -1.
    8880023    1    1    2    0    0 -0.43062183571E+03 -0.16677531228E+02 -0.90723259492E+03  0.12010805522E+04  0.65864270000E+03 0.  0.
    8880022    1    1    2    0    0  0.43062183571E+03  0.16677531228E+02  0.30179678240E+03  0.54789255910E+03  0.15294330000E+03 0.  0.
<mgrwt>
<rscale>  0 0.68717478E+03</rscale>
<asrwt>0</asrwt>
<pdfrwt beam="1">  1        1 0.18110838E+00 0.78709816E+03</pdfrwt>
<pdfrwt beam="2">  1       -1 0.87964407E-01 0.78709816E+03</pdfrwt>
<totfact> 0.14497315E+01</totfact>
</mgrwt>
</event>
<event>
 4    1  0.4055965E-007  0.6777588E+03  0.7818608E-02  0.1010621E+00
          1   -1    0    0  501    0  0.00000000000E+00  0.00000000000E+00  0.51201913284E+03  0.51201913286E+03  0.50400000000E-02 0. -1.
         -1   -1    0    0    0  501 -0.00000000000E+00 -0.00000000000E+00 -0.71498391327E+03  0.71498391328E+03  0.50400000000E-02 0.  1.
    8880023    1    1    2    0    0 -0.13067500101E+03  0.92037326398E+02  0.25040768229E+03  0.72253791524E+03  0.65864270000E+03 0. -1.
    8880022    1    1    2    0    0  0.13067500101E+03 -0.92037326398E+02 -0.45337246272E+03  0.50446513091E+03  0.15294330000E+03 0.  0.
<mgrwt>
<rscale>  0 0.51228625E+03</rscale>
<asrwt>0</asrwt>
<pdfrwt beam="1">  1        1 0.78772174E-01 0.67775883E+03</pdfrwt>
<pdfrwt beam="2">  1       -1 0.10999753E+00 0.67775883E+03</pdfrwt>
<totfact> 0.33737678E+01</totfact>
</mgrwt>
</event>
<event>
 4    1  0.4055965E-007  0.1390220E+04  0.7818608E-02  0.8991319E-01
         -1   -1    0    0    0  501 -0.00000000000E+00  0.00000000000E+00  0.10726820893E+04  0.10726820893E+04  0.50400000000E-02 0.  1.
          1   -1    0    0  501    0  0.00000000000E+00 -0.00000000000E+00 -0.20088950004E+04  0.20088950004E+04  0.50400000000E-02 0. -1.
    8880023    1    1    2    0    0 -0.11538651117E+04  0.40926446475E+03  0.19971052613E+03  0.14044915801E+04  0.65864270000E+03 0. -1.
    8880022    1    1    2    0    0  0.11538651117E+04 -0.40926446475E+03 -0.11359234373E+04  0.16770855096E+04  0.15294330000E+03 0.  0.
<mgrwt>
<rscale>  0 0.13493512E+04</rscale>
<asrwt>0</asrwt>
<pdfrwt beam="1">  1        1 0.30906077E+00 0.13902202E+04</pdfrwt>
<pdfrwt beam="2">  1       -1 0.16502801E+00 0.13902202E+04</pdfrwt>
<totfact> 0.75547796E-01</totfact>
</mgrwt>
</event>
<event>
 4    1  0.4055965E-007  0.6917953E+03  0.7818608E-02  0.1003311E+00
         -1   -1    0    0    0  501 -0.00000000000E+00  0.00000000000E+00  0.22349828558E+03  0.22349828563E+03  0.50400000000E-02 0.  1.
          1   -1    0    0  501    0  0.00000000000E+00 -0.00000000000E+00 -0.11188935705E+04  0.11188935705E+04  0.50400000000E-02 0. -1.
    8880023    1    1    2    0    0 -0.66460934593E+02  0.20088179564E+03 -0.44736421941E+03  0.82384191609E+03  0.65864270000E+03 0.  0.
    8880022    1    1    2    0    0  0.66460934593E+02 -0.20088179564E+03 -0.44803106555E+03  0.51854994008E+03  0.15294330000E+03 0.  0.
<mgrwt>
<rscale>  0 0.54222079E+03</rscale>
<asrwt>0</asrwt>
<pdfrwt beam="1">  1        1 0.17213747E+00 0.69179532E+03</pdfrwt>
<pdfrwt beam="2">  1       -1 0.34384352E-01 0.69179532E+03</pdfrwt>
<totfact> 0.10073543E+02</totfact>
</mgrwt>
</event>
<event>
 4    1  0.4055965E-007  0.6823152E+03  0.7818608E-02  0.1008043E+00
         -1   -1    0    0    0  501 -0.00000000000E+00  0.00000000000E+00  0.50034366494E+03  0.50034366497E+03  0.50400000000E-02 0.  1.
          1   -1    0    0  501    0  0.00000000000E+00 -0.00000000000E+00 -0.12266040703E+04  0.12266040704E+04  0.50400000000E-02 0. -1.
    8880023    1    1    2    0    0  0.51615665565E+02 -0.17052761008E+03 -0.10947678618E+04  0.12899886512E+04  0.65864270000E+03 0. -1.
    8880022    1    1    2    0    0 -0.51615665565E+02  0.17052761008E+03  0.36850745642E+03  0.43695908410E+03  0.15294330000E+03 0.  0.
<mgrwt>
<rscale>  0 0.52259795E+03</rscale>
<asrwt>0</asrwt>
<pdfrwt beam="1">  1        1 0.18870832E+00 0.68231521E+03</pdfrwt>
<pdfrwt beam="2">  1       -1 0.76975949E-01 0.68231521E+03</pdfrwt>
<totfact> 0.18015980E+01</totfact>
</mgrwt>
</event>
<event>
 4    1  0.4055965E-007  0.1045621E+04  0.7818608E-02  0.9324164E-01
          1   -1    0    0  501    0  0.00000000000E+00  0.00000000000E+00  0.18535205318E+04  0.18535205318E+04  0.50400000000E-02 0. -1.
         -1   -1    0    0    0  501 -0.00000000000E+00 -0.00000000000E+00 -0.65706762542E+03  0.65706762544E+03  0.50400000000E-02 0.  1.
    8880023    1    1    2    0    0  0.25207833795E+03  0.77199053952E+03  0.13103377466E+04  0.16763973569E+04  0.65864270000E+03 0.  0.
    8880022    1    1    2    0    0 -0.25207833795E+03 -0.77199053952E+03 -0.11388484027E+03  0.83419080037E+03  0.15294330000E+03 0.  0.
<mgrwt>
<rscale>  0 0.98588372E+03</rscale>
<asrwt>0</asrwt>
<pdfrwt beam="1">  1        1 0.28515700E+00 0.10456209E+04</pdfrwt>
<pdfrwt beam="2">  1       -1 0.10108733E+00 0.10456209E+04</pdfrwt>
<totfact> 0.34948436E+00</totfact>
</mgrwt>
</event>
<event>
 4    1  0.4055965E-007  0.7099663E+03  0.7818608E-02  0.9958126E-01
          1   -1    0    0  501    0  0.00000000000E+00  0.00000000000E+00  0.11225825712E+04  0.11225825712E+04  0.50400000000E-02 0. -1.
         -1   -1    0    0    0  501 -0.00000000000E+00 -0.00000000000E+00 -0.39696183922E+03  0.39696183925E+03  0.50400000000E-02 0.  1.
    8880023    1    1    2    0    0 -0.26485120914E+03 -0.97852957681E+01  0.91617691085E+03  0.11590652498E+04  0.65864270000E+03 0. -1.
    8880022    1    1    2    0    0  0.26485120914E+03  0.97852957681E+01 -0.19055617884E+03  0.36047916071E+03  0.15294330000E+03 0.  0.
<mgrwt>
<rscale>  0 0.57525081E+03</rscale>
<asrwt>0</asrwt>
<pdfrwt beam="1">  1        1 0.17270501E+00 0.70996628E+03</pdfrwt>
<pdfrwt beam="2">  1       -1 0.61071053E-01 0.70996628E+03</pdfrwt>
<totfact> 0.34218392E+01</totfact>
</mgrwt>
</event>
<event>
 4    1  0.4055965E-007  0.7098380E+03  0.7818608E-02  0.9958603E-01
         -1   -1    0    0    0  501 -0.00000000000E+00  0.00000000000E+00  0.35098528229E+03  0.35098528233E+03  0.50400000000E-02 0.  1.
          1   -1    0    0  501    0  0.00000000000E+00 -0.00000000000E+00 -0.12448338221E+04  0.12448338221E+04  0.50400000000E-02 0. -1.
    8880023    1    1    2    0    0  0.20584855199E+03  0.16639138876E+03 -0.10382677115E+04  0.12577240427E+04  0.65864270000E+03 0. -1.
    8880022    1    1    2    0    0 -0.20584855199E+03 -0.16639138876E+03  0.14441917168E+03  0.33809506174E+03  0.15294330000E+03 0.  0.
<mgrwt>
<rscale>  0 0.57503281E+03</rscale>
<asrwt>0</asrwt>
<pdfrwt beam="1">  1        1 0.19151289E+00 0.70983796E+03</pdfrwt>
<pdfrwt beam="2">  1       -1 0.53997736E-01 0.70983796E+03</pdfrwt>
<totfact> 0.35452544E+01</totfact>
</mgrwt>
</event>
<event>
 4    1  0.4055965E-007  0.7472435E+03  0.7818608E-02  0.9839328E-01
         -1   -1    0    0    0  501 -0.00000000000E+00  0.00000000000E+00  0.75171058287E+03  0.75171058288E+03  0.50400000000E-02 0.  1.
          1   -1    0    0  501    0  0.00000000000E+00 -0.00000000000E+00 -0.11457879935E+04  0.11457879936E+04  0.50400000000E-02 0. -1.
    8880023    1    1    2    0    0  0.82831229404E+02 -0.34307666993E+03 -0.95795049760E+03  0.12149246792E+04  0.65864270000E+03 0. -1.
    8880022    1    1    2    0    0 -0.82831229404E+02  0.34307666993E+03  0.56387308692E+03  0.68257389723E+03  0.15294330000E+03 0.  0.
<mgrwt>
<rscale>  0 0.63293999E+03</rscale>
<asrwt>0</asrwt>
<pdfrwt beam="1">  1        1 0.17627507E+00 0.74724348E+03</pdfrwt>
<pdfrwt beam="2">  1       -1 0.11564778E+00 0.74724348E+03</pdfrwt>
<totfact> 0.82155028E+00</totfact>
</mgrwt>
</event>
<event>
 4    1  0.4055965E-007  0.9240816E+03  0.7818608E-02  0.9488429E-01
          1   -1    0    0  501    0  0.00000000000E+00  0.00000000000E+00  0.13849546657E+04  0.13849546657E+04  0.50400000000E-02 0. -1.
         -1   -1    0    0    0  501 -0.00000000000E+00 -0.00000000000E+00 -0.11965804607E+04  0.11965804607E+04  0.50400000000E-02 0.  1.
    8880023    1    1    2    0    0 -0.48708998805E+03  0.42762136127E+03  0.11101063884E+04  0.14443902121E+04  0.65864270000E+03 0.  0.
    8880022    1    1    2    0    0  0.48708998805E+03 -0.42762136127E+03 -0.92173218342E+03  0.11371449143E+04  0.15294330000E+03 0.  0.
<mgrwt>
<rscale>  0 0.85142321E+03</rscale>
<asrwt>0</asrwt>
<pdfrwt beam="1">  1        1 0.21306995E+00 0.92408165E+03</pdfrwt>
<pdfrwt beam="2">  1       -1 0.18408930E+00 0.92408165E+03</pdfrwt>
<totfact> 0.15575191E+00</totfact>
</mgrwt>
</event>
<event>
 4    1  0.4055965E-007  0.8173394E+03  0.7818608E-02  0.9674487E-01
          1   -1    0    0  501    0  0.00000000000E+00  0.00000000000E+00  0.17852855469E+04  0.17852855470E+04  0.50400000000E-02 0. -1.
         -1   -1    0    0    0  501 -0.00000000000E+00 -0.00000000000E+00 -0.58178386538E+03  0.58178386540E+03  0.50400000000E-02 0.  1.
    8880023    1    1    2    0    0 -0.47815682652E+03 -0.74829810621E+02  0.15501456346E+04  0.17524255037E+04  0.65864270000E+03 0. -1.
    8880022    1    1    2    0    0  0.47815682652E+03  0.74829810621E+02 -0.34664395300E+03  0.61464390868E+03  0.15294330000E+03 0.  0.
<mgrwt>
<rscale>  0 0.72556335E+03</rscale>
<asrwt>0</asrwt>
<pdfrwt beam="1">  1        1 0.27465931E+00 0.81733938E+03</pdfrwt>
<pdfrwt beam="2">  1       -1 0.89505212E-01 0.81733938E+03</pdfrwt>
<totfact> 0.52739541E+00</totfact>
</mgrwt>
</event>
<event>
 4    1  0.4055965E-007  0.7615769E+03  0.7818608E-02  0.9801042E-01
         -1   -1    0    0    0  501 -0.00000000000E+00  0.00000000000E+00  0.54858330931E+03  0.54858330933E+03  0.50400000000E-02 0.  1.
          1   -1    0    0  501    0  0.00000000000E+00 -0.00000000000E+00 -0.13350790784E+04  0.13350790784E+04  0.50400000000E-02 0. -1.
    8880023    1    1    2    0    0 -0.87663704325E+02 -0.37216155614E+03 -0.11195543883E+04  0.13540315297E+04  0.65864270000E+03 0. -1.
    8880022    1    1    2    0    0  0.87663704325E+02  0.37216155614E+03  0.33305861919E+03  0.52963085801E+03  0.15294330000E+03 0.  0.
<mgrwt>
<rscale>  0 0.65306649E+03</rscale>
<asrwt>0</asrwt>
<pdfrwt beam="1">  1        1 0.20539678E+00 0.76157689E+03</pdfrwt>
<pdfrwt beam="2">  1       -1 0.84397433E-01 0.76157689E+03</pdfrwt>
<totfact> 0.12271264E+01</totfact>
</mgrwt>
</event>
<event>
 4    1  0.4055965E-007  0.8138869E+03  0.7818608E-02  0.9681537E-01
          1   -1    0    0  501    0  0.00000000000E+00  0.00000000000E+00  0.50356909855E+03  0.50356909857E+03  0.50400000000E-02 0. -1.
         -1   -1    0    0    0  501 -0.00000000000E+00 -0.00000000000E+00 -0.11878027430E+04  0.11878027430E+04  0.50400000000E-02 0.  1.
    8880023    1    1    2    0    0 -0.41466670387E+02  0.47632155274E+03  0.34583494513E+02  0.81462134192E+03  0.65864270000E+03 0. -1.
    8880022    1    1    2    0    0  0.41466670387E+02 -0.47632155274E+03 -0.71881713895E+03  0.87675049965E+03  0.15294330000E+03 0.  0.
<mgrwt>
<rscale>  0 0.72126804E+03</rscale>
<asrwt>0</asrwt>
<pdfrwt beam="1">  1        1 0.77472170E-01 0.81388692E+03</pdfrwt>
<pdfrwt beam="2">  1       -1 0.18273888E+00 0.81388692E+03</pdfrwt>
<totfact> 0.89353908E+00</totfact>
</mgrwt>
</event>
<event>
 4    1  0.4055965E-007  0.7223842E+03  0.7818608E-02  0.9914600E-01
         -1   -1    0    0    0  501 -0.00000000000E+00  0.00000000000E+00  0.95221974322E+03  0.95221974323E+03  0.50400000000E-02 0.  1.
          1   -1    0    0  501    0  0.00000000000E+00 -0.00000000000E+00 -0.40169356329E+03  0.40169356332E+03  0.50400000000E-02 0. -1.
    8880023    1    1    2    0    0 -0.25643758164E+03 -0.14922636386E+03  0.14594814942E+02  0.72253162964E+03  0.65864270000E+03 0. -1.
    8880022    1    1    2    0    0  0.25643758164E+03  0.14922636386E+03  0.53593136498E+03  0.63138167691E+03  0.15294330000E+03 0.  0.
<mgrwt>
<rscale>  0 0.59558914E+03</rscale>
<asrwt>0</asrwt>
<pdfrwt beam="1">  1        1 0.61799010E-01 0.72238421E+03</pdfrwt>
<pdfrwt beam="2">  1       -1 0.14649534E+00 0.72238421E+03</pdfrwt>
<totfact> 0.22799256E+01</totfact>
</mgrwt>
</event>
<event>
 4    1  0.4055965E-007  0.7224343E+03  0.7818608E-02  0.9914434E-01
         -1   -1    0    0    0  501 -0.00000000000E+00  0.00000000000E+00  0.19912217822E+03  0.19912217828E+03  0.50400000000E-02 0.  1.
          1   -1    0    0  501    0  0.00000000000E+00 -0.00000000000E+00 -0.26365812499E+04  0.26365812499E+04  0.50400000000E-02 0. -1.
    8880023    1    1    2    0    0 -0.13895480059E+03 -0.26228345866E+03 -0.23920038960E+04  0.24987184503E+04  0.65864270000E+03 0. -1.
    8880022    1    1    2    0    0  0.13895480059E+03  0.26228345866E+03 -0.45455175693E+02  0.33698497787E+03  0.15294330000E+03 0.  0.
<mgrwt>
<rscale>  0 0.59566839E+03</rscale>
<asrwt>0</asrwt>
<pdfrwt beam="1">  1        1 0.40562786E+00 0.72243426E+03</pdfrwt>
<pdfrwt beam="2">  1       -1 0.30634183E-01 0.72243426E+03</pdfrwt>
<totfact> 0.11331785E+01</totfact>
</mgrwt>
</event>
<event>
 4    1  0.4055965E-007  0.7466016E+03  0.7818608E-02  0.9841118E-01
         -1   -1    0    0    0  501 -0.00000000000E+00  0.00000000000E+00  0.25016868789E+03  0.25016868794E+03  0.50400000000E-02 0.  1.
          1   -1    0    0  501    0  0.00000000000E+00 -0.00000000000E+00 -0.19831811572E+04  0.19831811573E+04  0.50400000000E-02 0. -1.
    8880023    1    1    2    0    0  0.34971611884E+03 -0.36089329284E+02 -0.16899689329E+04  0.18475413402E+04  0.65864270000E+03 0. -1.
    8880022    1    1    2    0    0 -0.34971611884E+03  0.36089329284E+02 -0.43043536481E+02  0.38580850498E+03  0.15294330000E+03 0.  0.
<mgrwt>
<rscale>  0 0.63201836E+03</rscale>
<asrwt>0</asrwt>
<pdfrwt beam="1">  1        1 0.30510478E+00 0.74660164E+03</pdfrwt>
<pdfrwt beam="2">  1       -1 0.38487492E-01 0.74660164E+03</pdfrwt>
<totfact> 0.20809920E+01</totfact>
</mgrwt>
</event>
<event>
 4    1  0.4055965E-007  0.6859953E+03  0.7818608E-02  0.1006117E+00
          1   -1    0    0  501    0  0.00000000000E+00  0.00000000000E+00  0.41062592729E+03  0.41062592732E+03  0.50400000000E-02 0. -1.
         -1   -1    0    0    0  501 -0.00000000000E+00 -0.00000000000E+00 -0.79943917313E+03  0.79943917314E+03  0.50400000000E-02 0.  1.
    8880023    1    1    2    0    0  0.76743771781E+01 -0.19162563249E+03  0.70241941128E+02  0.68958205868E+03  0.65864270000E+03 0. -1.
    8880022    1    1    2    0    0 -0.76743771781E+01  0.19162563249E+03 -0.45905518697E+03  0.52048304179E+03  0.15294330000E+03 0.  0.
<mgrwt>
<rscale>  0 0.53047409E+03</rscale>
<asrwt>0</asrwt>
<pdfrwt beam="1">  1        1 0.63173220E-01 0.68599525E+03</pdfrwt>
<pdfrwt beam="2">  1       -1 0.12299064E+00 0.68599525E+03</pdfrwt>
<totfact> 0.34727839E+01</totfact>
</mgrwt>
</event>
<event>
 4    1  0.4055965E-007  0.1013084E+04  0.7818608E-02  0.9364637E-01
         -1   -1    0    0    0  501 -0.00000000000E+00  0.00000000000E+00  0.98863646897E+03  0.98863646899E+03  0.50400000000E-02 0.  1.
          1   -1    0    0  501    0  0.00000000000E+00 -0.00000000000E+00 -0.15608217473E+04  0.15608217473E+04  0.50400000000E-02 0. -1.
    8880023    1    1    2    0    0  0.76567167997E+03 -0.79217121795E+02 -0.11811492848E+04  0.15561016397E+04  0.65864270000E+03 0.  0.
    8880022    1    1    2    0    0 -0.76567167997E+03  0.79217121795E+02  0.60896400652E+03  0.99335657653E+03  0.15294330000E+03 0.  0.
<mgrwt>
<rscale>  0 0.95043968E+03</rscale>
<asrwt>0</asrwt>
<pdfrwt beam="1">  1        1 0.24012642E+00 0.10130837E+04</pdfrwt>
<pdfrwt beam="2">  1       -1 0.15209792E+00 0.10130837E+04</pdfrwt>
<totfact> 0.20037260E+00</totfact>
</mgrwt>
</event>
<event>
 4    1  0.4055965E-007  0.8901231E+03  0.7818608E-02  0.9542077E-01
         -1   -1    0    0    0  501 -0.00000000000E+00  0.00000000000E+00  0.35147688847E+04  0.35147688847E+04  0.50400000000E-02 0.  1.
          1   -1    0    0  501    0  0.00000000000E+00 -0.00000000000E+00 -0.88032269255E+03  0.88032269257E+03  0.50400000000E-02 0. -1.
    8880023    1    1    2    0    0  0.21743720209E+03 -0.55787983632E+03 -0.61853526880E+03  0.10839303177E+04  0.65864270000E+03 0. -1.
    8880022    1    1    2    0    0 -0.21743720209E+03  0.55787983632E+03  0.32529814609E+04  0.33111612596E+04  0.15294330000E+03 0.  0.
<mgrwt>
<rscale>  0 0.81251487E+03</rscale>
<asrwt>0</asrwt>
<pdfrwt beam="1">  1        1 0.13543426E+00 0.89012306E+03</pdfrwt>
<pdfrwt beam="2">  1       -1 0.54073368E+00 0.89012306E+03</pdfrwt>
<totfact> 0.16355220E-02</totfact>
</mgrwt>
</event>
<event>
 4    1  0.4055965E-007  0.1020930E+04  0.7818608E-02  0.9354673E-01
         -1   -1    0    0    0  501 -0.00000000000E+00  0.00000000000E+00  0.67863698059E+03  0.67863698061E+03  0.50400000000E-02 0.  1.
          1   -1    0    0  501    0  0.00000000000E+00 -0.00000000000E+00 -0.12961402891E+04  0.12961402892E+04  0.50400000000E-02 0. -1.
    8880023    1    1    2    0    0 -0.96371580429E+02  0.77407971482E+03 -0.59052056866E+03  0.11794115629E+04  0.65864270000E+03 0. -1.
    8880022    1    1    2    0    0  0.96371580429E+02 -0.77407971482E+03 -0.26982739900E+02  0.79536570688E+03  0.15294330000E+03 0.  0.
<mgrwt>
<rscale>  0 0.95901638E+03</rscale>
<asrwt>0</asrwt>
<pdfrwt beam="1">  1        1 0.19940620E+00 0.10209295E+04</pdfrwt>
<pdfrwt beam="2">  1       -1 0.10440569E+00 0.10209295E+04</pdfrwt>
<totfact> 0.78669669E+00</totfact>
</mgrwt>
</event>
<event>
 4    1  0.4055965E-007  0.7017938E+03  0.7818608E-02  0.9989839E-01
         -1   -1    0    0    0  501 -0.00000000000E+00  0.00000000000E+00  0.44486206089E+03  0.44486206092E+03  0.50400000000E-02 0.  1.
          1   -1    0    0  501    0  0.00000000000E+00 -0.00000000000E+00 -0.55270611291E+03  0.55270611293E+03  0.50400000000E-02 0. -1.
    8880023    1    1    2    0    0  0.14511405449E+02  0.24185494571E+03 -0.11391897112E+03  0.71097970006E+03  0.65864270000E+03 0.  0.
    8880022    1    1    2    0    0 -0.14511405449E+02 -0.24185494571E+03  0.60749191072E+01  0.28658847379E+03  0.15294330000E+03 0. -1.
<mgrwt>
<rscale>  0 0.56098009E+03</rscale>
<asrwt>0</asrwt>
<pdfrwt beam="1">  1        1 0.85031709E-01 0.70179385E+03</pdfrwt>
<pdfrwt beam="2">  1       -1 0.68440317E-01 0.70179385E+03</pdfrwt>
<totfact> 0.85116486E+01</totfact>
</mgrwt>
</event>
<event>
 4    1  0.4055965E-007  0.6822755E+03  0.7818608E-02  0.1008065E+00
          1   -1    0    0  501    0  0.00000000000E+00  0.00000000000E+00  0.82000567808E+03  0.82000567810E+03  0.50400000000E-02 0. -1.
         -1   -1    0    0    0  501 -0.00000000000E+00 -0.00000000000E+00 -0.94422056138E+03  0.94422056140E+03  0.50400000000E-02 0.  1.
    8880023    1    1    2    0    0  0.12285617239E+03  0.12882552701E+03  0.65781118010E+03  0.94774227005E+03  0.65864270000E+03 0. -1.
    8880022    1    1    2    0    0 -0.12285617239E+03 -0.12882552701E+03 -0.78202606340E+03  0.81648396944E+03  0.15294330000E+03 0.  0.
<mgrwt>
<rscale>  0 0.52251091E+03</rscale>
<asrwt>0</asrwt>
<pdfrwt beam="1">  1        1 0.12615472E+00 0.68227550E+03</pdfrwt>
<pdfrwt beam="2">  1       -1 0.14526470E+00 0.68227550E+03</pdfrwt>
<totfact> 0.84209891E+00</totfact>
</mgrwt>
</event>
<event>
 4    1  0.4055965E-007  0.6854031E+03  0.7818608E-02  0.1006419E+00
          1   -1    0    0  501    0  0.00000000000E+00  0.00000000000E+00  0.18482485463E+04  0.18482485463E+04  0.50400000000E-02 0. -1.
         -1   -1    0    0    0  501 -0.00000000000E+00 -0.00000000000E+00 -0.22754413226E+03  0.22754413232E+03  0.50400000000E-02 0.  1.
    8880023    1    1    2    0    0  0.44959602735E+02 -0.18424388226E+03  0.16889938301E+04  0.18227664520E+04  0.65864270000E+03 0.  0.
    8880022    1    1    2    0    0 -0.44959602735E+02  0.18424388226E+03 -0.68289416045E+02  0.25302622668E+03  0.15294330000E+03 0.  0.
<mgrwt>
<rscale>  0 0.52923091E+03</rscale>
<asrwt>0</asrwt>
<pdfrwt beam="1">  1        1 0.28434593E+00 0.68540308E+03</pdfrwt>
<pdfrwt beam="2">  1       -1 0.35006789E-01 0.68540308E+03</pdfrwt>
<totfact> 0.30610909E+01</totfact>
</mgrwt>
</event>
<event>
 4    1  0.4055965E-007  0.6783078E+03  0.7818608E-02  0.1010298E+00
          1   -1    0    0  501    0  0.00000000000E+00  0.00000000000E+00  0.10381074549E+04  0.10381074549E+04  0.50400000000E-02 0. -1.
         -1   -1    0    0    0  501 -0.00000000000E+00 -0.00000000000E+00 -0.38745855364E+03  0.38745855367E+03  0.50400000000E-02 0.  1.
    8880023    1    1    2    0    0 -0.65205453677E+02  0.14845692321E+03  0.87645704885E+03  0.11082772099E+04  0.65864270000E+03 0. -1.
    8880022    1    1    2    0    0  0.65205453677E+02 -0.14845692321E+03 -0.22580814759E+03  0.31728879869E+03  0.15294330000E+03 0.  0.
<mgrwt>
<rscale>  0 0.51356559E+03</rscale>
<asrwt>0</asrwt>
<pdfrwt beam="1">  1        1 0.15970884E+00 0.67830776E+03</pdfrwt>
<pdfrwt beam="2">  1       -1 0.59609009E-01 0.67830776E+03</pdfrwt>
<totfact> 0.41681573E+01</totfact>
</mgrwt>
</event>
<event>
 4    1  0.4055965E-007  0.9417998E+03  0.7818608E-02  0.9462012E-01
          1   -1    0    0  501    0  0.00000000000E+00  0.00000000000E+00  0.16735336361E+04  0.16735336361E+04  0.50400000000E-02 0. -1.
         -1   -1    0    0    0  501 -0.00000000000E+00 -0.00000000000E+00 -0.57086309191E+03  0.57086309193E+03  0.50400000000E-02 0.  1.
    8880023    1    1    2    0    0 -0.75474626342E+02 -0.66893964905E+03  0.12230457209E+04  0.15436410577E+04  0.65864270000E+03 0. -1.
    8880022    1    1    2    0    0  0.75474626342E+02  0.66893964905E+03 -0.12037517674E+03  0.70075567032E+03  0.15294330000E+03 0.  0.
<mgrwt>
<rscale>  0 0.87143419E+03</rscale>
<asrwt>0</asrwt>
<pdfrwt beam="1">  1        1 0.25746671E+00 0.94179981E+03</pdfrwt>
<pdfrwt beam="2">  1       -1 0.87825092E-01 0.94179981E+03</pdfrwt>
<totfact> 0.64272970E+00</totfact>
</mgrwt>
</event>
<event>
 4    1  0.4055965E-007  0.6679308E+03  0.7818608E-02  0.1017192E+00
         -1   -1    0    0    0  501 -0.00000000000E+00  0.00000000000E+00  0.52295332381E+03  0.52295332383E+03  0.50400000000E-02 0.  1.
          1   -1    0    0  501    0  0.00000000000E+00 -0.00000000000E+00 -0.51241430048E+03  0.51241430051E+03  0.50400000000E-02 0. -1.
    8880023    1    1    2    0    0 -0.11386220823E+02  0.11041620118E+03 -0.25027912228E+03  0.71328201212E+03  0.65864270000E+03 0. -1.
    8880022    1    1    2    0    0  0.11386220823E+02 -0.11041620118E+03  0.26081814560E+03  0.32208561222E+03  0.15294330000E+03 0.  0.
<mgrwt>
<rscale>  0 0.48713795E+03</rscale>
<asrwt>0</asrwt>
<pdfrwt beam="1">  1        1 0.78832970E-01 0.66793083E+03</pdfrwt>
<pdfrwt beam="2">  1       -1 0.80454357E-01 0.66793083E+03</pdfrwt>
<totfact> 0.67789043E+01</totfact>
</mgrwt>
</event>
<event>
 4    1  0.4055965E-007  0.6819871E+03  0.7818608E-02  0.1008221E+00
          1   -1    0    0  501    0  0.00000000000E+00  0.00000000000E+00  0.33923714284E+03  0.33923714288E+03  0.50400000000E-02 0. -1.
         -1   -1    0    0    0  501 -0.00000000000E+00 -0.00000000000E+00 -0.90037243489E+03  0.90037243490E+03  0.50400000000E-02 0.  1.
    8880023    1    1    2    0    0  0.16814367671E+03  0.54989991926E+02 -0.57594349804E+02  0.68441472122E+03  0.65864270000E+03 0. -1.
    8880022    1    1    2    0    0 -0.16814367671E+03 -0.54989991926E+02 -0.50354094224E+03  0.55519485656E+03  0.15294330000E+03 0.  0.
<mgrwt>
<rscale>  0 0.52187738E+03</rscale>
<asrwt>0</asrwt>
<pdfrwt beam="1">  1        1 0.52190330E-01 0.68198710E+03</pdfrwt>
<pdfrwt beam="2">  1       -1 0.13851884E+00 0.68198710E+03</pdfrwt>
<totfact> 0.33099995E+01</totfact>
</mgrwt>
</event>
<event>
 4    1  0.4055965E-007  0.7207138E+03  0.7818608E-02  0.9920178E-01
         -1   -1    0    0    0  501 -0.00000000000E+00  0.00000000000E+00  0.40803476164E+03  0.40803476167E+03  0.50400000000E-02 0.  1.
          1   -1    0    0  501    0  0.00000000000E+00 -0.00000000000E+00 -0.17782193279E+04  0.17782193279E+04  0.50400000000E-02 0. -1.
    8880023    1    1    2    0    0  0.28940721062E+03  0.43146440830E+02 -0.16194353370E+04  0.17725685222E+04  0.65864270000E+03 0.  0.
    8880022    1    1    2    0    0 -0.28940721062E+03 -0.43146440830E+02  0.24925077076E+03  0.41368556737E+03  0.15294330000E+03 0.  0.
<mgrwt>
<rscale>  0 0.59293258E+03</rscale>
<asrwt>0</asrwt>
<pdfrwt beam="1">  1        1 0.27357220E+00 0.72071378E+03</pdfrwt>
<pdfrwt beam="2">  1       -1 0.62774580E-01 0.72071378E+03</pdfrwt>
<totfact> 0.11353993E+01</totfact>
</mgrwt>
</event>
<event>
 4    1  0.4055965E-007  0.9647751E+03  0.7818608E-02  0.9429167E-01
          1   -1    0    0  501    0  0.00000000000E+00  0.00000000000E+00  0.34817011840E+04  0.34817011840E+04  0.50400000000E-02 0. -1.
         -1   -1    0    0    0  501 -0.00000000000E+00 -0.00000000000E+00 -0.70749737872E+03  0.70749737874E+03  0.50400000000E-02 0.  1.
    8880023    1    1    2    0    0 -0.38942327156E+03  0.58764809923E+03  0.32063086304E+04  0.33483139060E+04  0.65864270000E+03 0.  0.
    8880022    1    1    2    0    0  0.38942327156E+03 -0.58764809923E+03 -0.43210482520E+03  0.84088465674E+03  0.15294330000E+03 0.  0.
<mgrwt>
<rscale>  0 0.89713716E+03</rscale>
<asrwt>0</asrwt>
<pdfrwt beam="1">  1        1 0.53564634E+00 0.96477509E+03</pdfrwt>
<pdfrwt beam="2">  1       -1 0.10884575E+00 0.96477509E+03</pdfrwt>
<totfact> 0.21151442E-01</totfact>
</mgrwt>
</event>
<event>
 4    1  0.4055965E-007  0.8388187E+03  0.7818608E-02  0.9632412E-01
          1   -1    0    0  501    0  0.00000000000E+00  0.00000000000E+00  0.17915162538E+04  0.17915162538E+04  0.50400000000E-02 0. -1.
         -1   -1    0    0    0  501 -0.00000000000E+00 -0.00000000000E+00 -0.32639141440E+03  0.32639141444E+03  0.50400000000E-02 0.  1.
    8880023    1    1    2    0    0  0.43864209498E+03 -0.27820808902E+03  0.13084143071E+04  0.15542087484E+04  0.65864270000E+03 0. -1.
    8880022    1    1    2    0    0 -0.43864209498E+03  0.27820808902E+03  0.15671053229E+03  0.56369891984E+03  0.15294330000E+03 0.  0.
<mgrwt>
<rscale>  0 0.75187607E+03</rscale>
<asrwt>0</asrwt>
<pdfrwt beam="1">  1        1 0.27561789E+00 0.83881871E+03</pdfrwt>
<pdfrwt beam="2">  1       -1 0.50214064E-01 0.83881871E+03</pdfrwt>
<totfact> 0.16882762E+01</totfact>
</mgrwt>
</event>
<event>
 4    1  0.4055965E-007  0.1003271E+04  0.7818608E-02  0.9377290E-01
         -1   -1    0    0    0  501 -0.00000000000E+00  0.00000000000E+00  0.67336922199E+03  0.67336922201E+03  0.50400000000E-02 0.  1.
          1   -1    0    0  501    0  0.00000000000E+00 -0.00000000000E+00 -0.13233251409E+04  0.13233251409E+04  0.50400000000E-02 0. -1.
    8880023    1    1    2    0    0  0.54336135029E+03  0.52678442670E+03 -0.25362189647E+02  0.10035919670E+04  0.65864270000E+03 0.  0.
    8880022    1    1    2    0    0 -0.54336135029E+03 -0.52678442670E+03 -0.62459372924E+03  0.99310239594E+03  0.15294330000E+03 0.  0.
<mgrwt>
<rscale>  0 0.93968419E+03</rscale>
<asrwt>0</asrwt>
<pdfrwt beam="1">  1        1 0.20358848E+00 0.10032714E+04</pdfrwt>
<pdfrwt beam="2">  1       -1 0.10359527E+00 0.10032714E+04</pdfrwt>
<totfact> 0.76768404E+00</totfact>
</mgrwt>
</event>
<event>
 4    1  0.4055965E-007  0.1112373E+04  0.7818608E-02  0.9247404E-01
          1   -1    0    0  501    0  0.00000000000E+00  0.00000000000E+00  0.19369613513E+04  0.19369613513E+04  0.50400000000E-02 0. -1.
         -1   -1    0    0    0  501 -0.00000000000E+00 -0.00000000000E+00 -0.12292605403E+04  0.12292605403E+04  0.50400000000E-02 0.  1.
    8880023    1    1    2    0    0  0.88119931080E+03 -0.16447182980E+03  0.15626028893E+04  0.19180983301E+04  0.65864270000E+03 0.  0.
    8880022    1    1    2    0    0 -0.88119931080E+03  0.16447182980E+03 -0.85490207828E+03  0.12481235614E+04  0.15294330000E+03 0.  0.
<mgrwt>
<rscale>  0 0.10577256E+04</rscale>
<asrwt>0</asrwt>
<pdfrwt beam="1">  1        1 0.29799406E+00 0.11123729E+04</pdfrwt>
<pdfrwt beam="2">  1       -1 0.18911701E+00 0.11123729E+04</pdfrwt>
<totfact> 0.58574597E-01</totfact>
</mgrwt>
</event>
<event>
 4    1  0.4055965E-007  0.1830265E+04  0.7818608E-02  0.8705977E-01
          1   -1    0    0  501    0  0.00000000000E+00  0.00000000000E+00  0.40581304789E+04  0.40581304789E+04  0.50400000000E-02 0. -1.
         -1   -1    0    0    0  501 -0.00000000000E+00 -0.00000000000E+00 -0.10634492398E+04  0.10634492398E+04  0.50400000000E-02 0.  1.
    8880023    1    1    2    0    0  0.15245052547E+04  0.76937866893E+03  0.28682270585E+04  0.34024397824E+04  0.65864270000E+03 0. -1.
    8880022    1    1    2    0    0 -0.15245052547E+04 -0.76937866893E+03  0.12645418069E+03  0.17191399363E+04  0.15294330000E+03 0.  1.
<mgrwt>
<rscale>  0 0.18006063E+04</rscale>
<asrwt>0</asrwt>
<pdfrwt beam="1">  1        1 0.62432778E+00 0.18302650E+04</pdfrwt>
<pdfrwt beam="2">  1       -1 0.16360757E+00 0.18302650E+04</pdfrwt>
<totfact> 0.21506200E-02</totfact>
</mgrwt>
</event>
<event>
 4    1  0.4055965E-007  0.8834447E+03  0.7818608E-02  0.9553148E-01
          1   -1    0    0  501    0  0.00000000000E+00  0.00000000000E+00  0.11840340906E+04  0.11840340906E+04  0.50400000000E-02 0. -1.
         -1   -1    0    0    0  501 -0.00000000000E+00 -0.00000000000E+00 -0.85403222254E+03  0.85403222256E+03  0.50400000000E-02 0.  1.
    8880023    1    1    2    0    0 -0.21735420768E+03 -0.54719419196E+03  0.85877087197E+03  0.12320559858E+04  0.65864270000E+03 0. -1.
    8880022    1    1    2    0    0  0.21735420768E+03  0.54719419196E+03 -0.52876900392E+03  0.80601032737E+03  0.15294330000E+03 0.  0.
<mgrwt>
<rscale>  0 0.80476292E+03</rscale>
<asrwt>0</asrwt>
<pdfrwt beam="1">  1        1 0.18215909E+00 0.88344470E+03</pdfrwt>
<pdfrwt beam="2">  1       -1 0.13138957E+00 0.88344470E+03</pdfrwt>
<totfact> 0.55153691E+00</totfact>
</mgrwt>
</event>
<event>
 4    1  0.4055965E-007  0.6677180E+03  0.7818608E-02  0.1017354E+00
          1   -1    0    0  501    0  0.00000000000E+00  0.00000000000E+00  0.83961644798E+03  0.83961644799E+03  0.50400000000E-02 0. -1.
         -1   -1    0    0    0  501 -0.00000000000E+00 -0.00000000000E+00 -0.13008209418E+04  0.13008209418E+04  0.50400000000E-02 0.  1.
    8880023    1    1    2    0    0  0.86280591161E+02  0.67770280042E+02  0.69806139342E+03  0.96599020001E+03  0.65864270000E+03 0. -1.
    8880022    1    1    2    0    0 -0.86280591161E+02 -0.67770280042E+02 -0.11592658872E+04  0.11744471898E+04  0.15294330000E+03 0.  0.
<mgrwt>
<rscale>  0 0.48653533E+03</rscale>
<asrwt>0</asrwt>
<pdfrwt beam="1">  1        1 0.12917176E+00 0.66771802E+03</pdfrwt>
<pdfrwt beam="2">  1       -1 0.20012630E+00 0.66771802E+03</pdfrwt>
<totfact> 0.32379826E+00</totfact>
</mgrwt>
</event>
<event>
 4    1  0.4055965E-007  0.9077636E+03  0.7818608E-02  0.9513682E-01
         -1   -1    0    0    0  501 -0.00000000000E+00  0.00000000000E+00  0.72717209360E+03  0.72717209361E+03  0.50400000000E-02 0.  1.
          1   -1    0    0  501    0  0.00000000000E+00 -0.00000000000E+00 -0.95973687096E+03  0.95973687098E+03  0.50400000000E-02 0. -1.
    8880023    1    1    2    0    0 -0.34424771812E+03 -0.52126589293E+03 -0.44318062791E+03  0.10101702321E+04  0.65864270000E+03 0.  0.
    8880022    1    1    2    0    0  0.34424771812E+03  0.52126589293E+03  0.21061585055E+03  0.67673873251E+03  0.15294330000E+03 0.  0.
<mgrwt>
<rscale>  0 0.83282603E+03</rscale>
<asrwt>0</asrwt>
<pdfrwt beam="1">  1        1 0.14765183E+00 0.90776364E+03</pdfrwt>
<pdfrwt beam="2">  1       -1 0.11187263E+00 0.90776364E+03</pdfrwt>
<totfact> 0.12080157E+01</totfact>
</mgrwt>
</event>
<event>
 4    1  0.4055965E-007  0.1150214E+04  0.7818608E-02  0.9207106E-01
         -1   -1    0    0    0  501 -0.00000000000E+00  0.00000000000E+00  0.94711537248E+03  0.94711537250E+03  0.50400000000E-02 0.  1.
          1   -1    0    0  501    0  0.00000000000E+00 -0.00000000000E+00 -0.25420949950E+04  0.25420949950E+04  0.50400000000E-02 0. -1.
    8880023    1    1    2    0    0  0.37181295492E+03  0.86656687073E+03 -0.21105865890E+04  0.24036574154E+04  0.65864270000E+03 0.  0.
    8880022    1    1    2    0    0 -0.37181295492E+03 -0.86656687073E+03  0.51560696645E+03  0.10855529521E+04  0.15294330000E+03 0.  1.
<mgrwt>
<rscale>  0 0.10980387E+04</rscale>
<asrwt>0</asrwt>
<pdfrwt beam="1">  1        1 0.39109153E+00 0.11502144E+04</pdfrwt>
<pdfrwt beam="2">  1       -1 0.14571006E+00 0.11502144E+04</pdfrwt>
<totfact> 0.47512191E-01</totfact>
</mgrwt>
</event>
<event>
 4    1  0.4055965E-007  0.1068997E+04  0.7818608E-02  0.9296385E-01
         -1   -1    0    0    0  501 -0.00000000000E+00  0.00000000000E+00  0.42082892531E+03  0.42082892534E+03  0.50400000000E-02 0.  1.
          1   -1    0    0  501    0  0.00000000000E+00 -0.00000000000E+00 -0.23853957667E+04  0.23853957667E+04  0.50400000000E-02 0. -1.
    8880023    1    1    2    0    0  0.84002759591E+03  0.57436930483E+02 -0.14707423512E+04  0.18181965331E+04  0.65864270000E+03 0.  0.
    8880022    1    1    2    0    0 -0.84002759591E+03 -0.57436930483E+02 -0.49382449017E+03  0.98802815900E+03  0.15294330000E+03 0.  0.
<mgrwt>
<rscale>  0 0.10111635E+04</rscale>
<asrwt>0</asrwt>
<pdfrwt beam="1">  1        1 0.36698396E+00 0.10689975E+04</pdfrwt>
<pdfrwt beam="2">  1       -1 0.64742913E-01 0.10689975E+04</pdfrwt>
<totfact> 0.39638275E+00</totfact>
</mgrwt>
</event>
<event>
 4    1  0.4055965E-007  0.7232075E+03  0.7818608E-02  0.9911878E-01
         -1   -1    0    0    0  501 -0.00000000000E+00  0.00000000000E+00  0.22336380319E+03  0.22336380325E+03  0.50400000000E-02 0.  1.
          1   -1    0    0  501    0  0.00000000000E+00 -0.00000000000E+00 -0.16458516272E+04  0.16458516272E+04  0.50400000000E-02 0. -1.
    8880023    1    1    2    0    0  0.12208539216E+03 -0.27260612609E+03 -0.13414708135E+04  0.15239990461E+04  0.65864270000E+03 0.  0.
    8880022    1    1    2    0    0 -0.12208539216E+03  0.27260612609E+03 -0.81017010491E+02  0.34521638427E+03  0.15294330000E+03 0.  0.
<mgrwt>
<rscale>  0 0.59689043E+03</rscale>
<asrwt>0</asrwt>
<pdfrwt beam="1">  1        1 0.25320793E+00 0.72320754E+03</pdfrwt>
<pdfrwt beam="2">  1       -1 0.34363663E-01 0.72320754E+03</pdfrwt>
<totfact> 0.43029514E+01</totfact>
</mgrwt>
</event>
<event>
 4    1  0.4055965E-007  0.9934502E+03  0.7818608E-02  0.9390177E-01
          1   -1    0    0  501    0  0.00000000000E+00  0.00000000000E+00  0.14820485777E+04  0.14820485777E+04  0.50400000000E-02 0. -1.
         -1   -1    0    0    0  501 -0.00000000000E+00 -0.00000000000E+00 -0.68754431245E+03  0.68754431247E+03  0.50400000000E-02 0.  1.
    8880023    1    1    2    0    0  0.45550658958E+03 -0.58791743128E+03 -0.97455513885E+02  0.99821888511E+03  0.65864270000E+03 0.  1.
    8880022    1    1    2    0    0 -0.45550658958E+03  0.58791743128E+03  0.89195977912E+03  0.11713740051E+04  0.15294330000E+03 0.  0.
<mgrwt>
<rscale>  0 0.92888476E+03</rscale>
<asrwt>0</asrwt>
<pdfrwt beam="1">  1        1 0.22800747E+00 0.99345023E+03</pdfrwt>
<pdfrwt beam="2">  1       -1 0.10577605E+00 0.99345023E+03</pdfrwt>
<totfact> 0.56688353E+00</totfact>
</mgrwt>
</event>
<event>
 4    1  0.4055965E-007  0.7809364E+03  0.7818608E-02  0.9753642E-01
          1   -1    0    0  501    0  0.00000000000E+00  0.00000000000E+00  0.17745495276E+04  0.17745495276E+04  0.50400000000E-02 0. -1.
         -1   -1    0    0    0  501 -0.00000000000E+00 -0.00000000000E+00 -0.28704065424E+03  0.28704065428E+03  0.50400000000E-02 0.  1.
    8880023    1    1    2    0    0  0.41957032790E+03 -0.34999886805E+01  0.14049919060E+04  0.16074401924E+04  0.65864270000E+03 0. -1.
    8880022    1    1    2    0    0 -0.41957032790E+03  0.34999886805E+01  0.82516967287E+02  0.45414998941E+03  0.15294330000E+03 0.  0.
<mgrwt>
<rscale>  0 0.67910849E+03</rscale>
<asrwt>0</asrwt>
<pdfrwt beam="1">  1        1 0.27300762E+00 0.78093644E+03</pdfrwt>
<pdfrwt beam="2">  1       -1 0.44160100E-01 0.78093644E+03</pdfrwt>
<totfact> 0.22217081E+01</totfact>
</mgrwt>
</event>
<event>
 4    1  0.4055965E-007  0.9675207E+03  0.7818608E-02  0.9425341E-01
         -1   -1    0    0    0  501 -0.00000000000E+00  0.00000000000E+00  0.72908708712E+03  0.72908708714E+03  0.50400000000E-02 0.  1.
          1   -1    0    0  501    0  0.00000000000E+00 -0.00000000000E+00 -0.18136256187E+04  0.18136256187E+04  0.50400000000E-02 0. -1.
    8880023    1    1    2    0    0  0.69793305280E+03 -0.12318946979E+03  0.27160529279E+03  0.10049208093E+04  0.65864270000E+03 0.  0.
    8880022    1    1    2    0    0 -0.69793305280E+03  0.12318946979E+03 -0.13561438244E+04  0.15377918965E+04  0.15294330000E+03 0.  0.
<mgrwt>
<rscale>  0 0.90019205E+03</rscale>
<asrwt>0</asrwt>
<pdfrwt beam="1">  1        1 0.27901932E+00 0.96752075E+03</pdfrwt>
<pdfrwt beam="2">  1       -1 0.11216725E+00 0.96752075E+03</pdfrwt>
<totfact> 0.29443239E+00</totfact>
</mgrwt>
</event>
<event>
 4    1  0.4055965E-007  0.1375120E+04  0.7818608E-02  0.9003261E-01
          1   -1    0    0  501    0  0.00000000000E+00  0.00000000000E+00  0.12326314174E+04  0.12326314175E+04  0.50400000000E-02 0. -1.
         -1   -1    0    0    0  501 -0.00000000000E+00 -0.00000000000E+00 -0.14649614032E+04  0.14649614032E+04  0.50400000000E-02 0.  1.
    8880023    1    1    2    0    0 -0.29887855284E+03  0.11695364701E+04  0.23330052148E+03  0.13947699752E+04  0.65864270000E+03 0. -1.
    8880022    1    1    2    0    0  0.29887855284E+03 -0.11695364701E+04 -0.46563050722E+03  0.13028228454E+04  0.15294330000E+03 0.  1.
<mgrwt>
<rscale>  0 0.13336987E+04</rscale>
<asrwt>0</asrwt>
<pdfrwt beam="1">  1        1 0.18963560E+00 0.13751197E+04</pdfrwt>
<pdfrwt beam="2">  1       -1 0.22537868E+00 0.13751197E+04</pdfrwt>
<totfact> 0.98502833E-01</totfact>
</mgrwt>
</event>
<event>
 4    1  0.4055965E-007  0.6767590E+03  0.7818608E-02  0.1011220E+00
         -1   -1    0    0    0  501 -0.00000000000E+00  0.00000000000E+00  0.12522682716E+04  0.12522682716E+04  0.50400000000E-02 0.  1.
          1   -1    0    0  501    0  0.00000000000E+00 -0.00000000000E+00 -0.88715796037E+03  0.88715796038E+03  0.50400000000E-02 0. -1.
    8880023    1    1    2    0    0 -0.78564006293E+02 -0.13423929905E+03 -0.74592583586E+03  0.10071782620E+04  0.65864270000E+03 0. -1.
    8880022    1    1    2    0    0  0.78564006293E+02  0.13423929905E+03  0.11110361471E+04  0.11322479700E+04  0.15294330000E+03 0.  0.
<mgrwt>
<rscale>  0 0.50992734E+03</rscale>
<asrwt>0</asrwt>
<pdfrwt beam="1">  1        1 0.13648584E+00 0.67675897E+03</pdfrwt>
<pdfrwt beam="2">  1       -1 0.19265666E+00 0.67675897E+03</pdfrwt>
<totfact> 0.33228362E+00</totfact>
</mgrwt>
</event>
<event>
 4    1  0.4055965E-007  0.1462835E+04  0.7818608E-02  0.8936335E-01
          1   -1    0    0  501    0  0.00000000000E+00  0.00000000000E+00  0.15985095561E+04  0.15985095561E+04  0.50400000000E-02 0. -1.
         -1   -1    0    0    0  501 -0.00000000000E+00 -0.00000000000E+00 -0.17784927901E+04  0.17784927901E+04  0.50400000000E-02 0.  1.
    8880023    1    1    2    0    0  0.62821308686E+03 -0.11451742954E+04  0.86308778988E+03  0.16984718392E+04  0.65864270000E+03 0.  0.
    8880022    1    1    2    0    0 -0.62821308686E+03  0.11451742954E+04 -0.10430710238E+04  0.16785305071E+04  0.15294330000E+03 0.  0.
<mgrwt>
<rscale>  0 0.14244117E+04</rscale>
<asrwt>0</asrwt>
<pdfrwt beam="1">  1        1 0.24592455E+00 0.14628349E+04</pdfrwt>
<pdfrwt beam="2">  1       -1 0.27361428E+00 0.14628349E+04</pdfrwt>
<totfact> 0.25985313E-01</totfact>
</mgrwt>
</event>
<event>
 4    1  0.4055965E-007  0.6806246E+03  0.7818608E-02  0.1008973E+00
         -1   -1    0    0    0  501 -0.00000000000E+00  0.00000000000E+00  0.19035765318E+04  0.19035765319E+04  0.50400000000E-02 0.  1.
          1   -1    0    0  501    0  0.00000000000E+00 -0.00000000000E+00 -0.16867714832E+03  0.16867714839E+03  0.50400000000E-02 0. -1.
    8880023    1    1    2    0    0  0.17011992684E+03 -0.22335821177E+02  0.57858027225E+03  0.89331126496E+03  0.65864270000E+03 0. -1.
    8880022    1    1    2    0    0 -0.17011992684E+03  0.22335821177E+02  0.11563191113E+04  0.11789424153E+04  0.15294330000E+03 0.  0.
<mgrwt>
<rscale>  0 0.51885044E+03</rscale>
<asrwt>0</asrwt>
<pdfrwt beam="1">  1        1 0.25950329E-01 0.68062463E+03</pdfrwt>
<pdfrwt beam="2">  1       -1 0.29285794E+00 0.68062463E+03</pdfrwt>
<totfact> 0.71855627E+00</totfact>
</mgrwt>
</event>
<event>
 4    1  0.4055965E-007  0.8487678E+03  0.7818608E-02  0.9613864E-01
          1   -1    0    0  501    0  0.00000000000E+00  0.00000000000E+00  0.15912453850E+04  0.15912453850E+04  0.50400000000E-02 0. -1.
         -1   -1    0    0    0  501 -0.00000000000E+00 -0.00000000000E+00 -0.47768514063E+03  0.47768514065E+03  0.50400000000E-02 0.  1.
    8880023    1    1    2    0    0  0.53433736611E+03 -0.32864592581E+02  0.28362979366E+02  0.84924152462E+03  0.65864270000E+03 0.  0.
    8880022    1    1    2    0    0 -0.53433736611E+03  0.32864592581E+02  0.10851972650E+04  0.12196890010E+04  0.15294330000E+03 0.  0.
<mgrwt>
<rscale>  0 0.76385301E+03</rscale>
<asrwt>0</asrwt>
<pdfrwt beam="1">  1        1 0.24480698E+00 0.84876776E+03</pdfrwt>
<pdfrwt beam="2">  1       -1 0.73490021E-01 0.84876776E+03</pdfrwt>
<totfact> 0.10819480E+01</totfact>
</mgrwt>
</event>
<event>
 4    1  0.4055965E-007  0.7676003E+03  0.7818608E-02  0.9785814E-01
          1   -1    0    0  501    0  0.00000000000E+00  0.00000000000E+00  0.96096758953E+03  0.96096758955E+03  0.50400000000E-02 0. -1.
         -1   -1    0    0    0  501 -0.00000000000E+00 -0.00000000000E+00 -0.68378090462E+03  0.68378090464E+03  0.50400000000E-02 0.  1.
    8880023    1    1    2    0    0 -0.36319519519E+03  0.15326208577E+03  0.70572834447E+03  0.10427189071E+04  0.65864270000E+03 0.  0.
    8880022    1    1    2    0    0  0.36319519519E+03 -0.15326208577E+03 -0.42854165956E+03  0.60202958709E+03  0.15294330000E+03 0.  0.
<mgrwt>
<rscale>  0 0.66129427E+03</rscale>
<asrwt>0</asrwt>
<pdfrwt beam="1">  1        1 0.14784117E+00 0.76760030E+03</pdfrwt>
<pdfrwt beam="2">  1       -1 0.10519706E+00 0.76760030E+03</pdfrwt>
<totfact> 0.14157432E+01</totfact>
</mgrwt>
</event>
<event>
 4    1  0.4055965E-007  0.7068721E+03  0.7818608E-02  0.9969805E-01
         -1   -1    0    0    0  501 -0.00000000000E+00  0.00000000000E+00  0.30113105640E+03  0.30113105645E+03  0.50400000000E-02 0.  1.
          1   -1    0    0  501    0  0.00000000000E+00 -0.00000000000E+00 -0.94025360613E+03  0.94025360614E+03  0.50400000000E-02 0. -1.
    8880023    1    1    2    0    0 -0.23778647184E+03  0.96517047147E+02 -0.62295608816E+03  0.94220084940E+03  0.65864270000E+03 0. -1.
    8880022    1    1    2    0    0  0.23778647184E+03 -0.96517047147E+02 -0.16166461568E+02  0.29918381319E+03  0.15294330000E+03 0.  0.
<mgrwt>
<rscale>  0 0.56994298E+03</rscale>
<asrwt>0</asrwt>
<pdfrwt beam="1">  1        1 0.14465440E+00 0.70687209E+03</pdfrwt>
<pdfrwt beam="2">  1       -1 0.46327855E-01 0.70687209E+03</pdfrwt>
<totfact> 0.80175901E+01</totfact>
</mgrwt>
</event>
<event>
 4    1  0.4055965E-007  0.6983954E+03  0.7818608E-02  0.1000392E+00
          1   -1    0    0  501    0  0.00000000000E+00  0.00000000000E+00  0.21188638630E+04  0.21188638630E+04  0.50400000000E-02 0. -1.
         -1   -1    0    0    0  501 -0.00000000000E+00 -0.00000000000E+00 -0.14114440853E+03  0.14114440862E+03  0.50400000000E-02 0.  1.
    8880023    1    1    2    0    0  0.12771146394E+02 -0.23191123521E+03  0.17980478904E+04  0.19289199946E+04  0.65864270000E+03 0. -1.
    8880022    1    1    2    0    0 -0.12771146394E+02  0.23191123521E+03  0.17967156401E+03  0.33108827694E+03  0.15294330000E+03 0.  1.
<mgrwt>
<rscale>  0 0.55478517E+03</rscale>
<asrwt>0</asrwt>
<pdfrwt beam="1">  1        1 0.32597905E+00 0.69839540E+03</pdfrwt>
<pdfrwt beam="2">  1       -1 0.21714525E-01 0.69839540E+03</pdfrwt>
<totfact> 0.45935160E+01</totfact>
</mgrwt>
</event>
<event>
 4    1  0.4055965E-007  0.6606638E+03  0.7818608E-02  0.1023486E+00
         -1   -1    0    0    0  501 -0.00000000000E+00  0.00000000000E+00  0.91871379016E+03  0.91871379017E+03  0.50400000000E-02 0.  1.
          1   -1    0    0  501    0  0.00000000000E+00 -0.00000000000E+00 -0.24646815082E+03  0.24646815087E+03  0.50400000000E-02 0. -1.
    8880023    1    1    2    0    0 -0.92979829256E+01 -0.50794100763E+02  0.23853943510E+03  0.70240854317E+03  0.65864270000E+03 0.  0.
    8880022    1    1    2    0    0  0.92979829256E+01  0.50794100763E+02  0.43370620425E+03  0.46277339787E+03  0.15294330000E+03 0.  0.
<mgrwt>
<rscale>  0 0.46449211E+03</rscale>
<asrwt>0</asrwt>
<pdfrwt beam="1">  1        1 0.37918177E-01 0.66066383E+03</pdfrwt>
<pdfrwt beam="2">  1       -1 0.14134058E+00 0.66066383E+03</pdfrwt>
<totfact> 0.47586740E+01</totfact>
</mgrwt>
</event>
<event>
 4    1  0.4055965E-007  0.6594497E+03  0.7818608E-02  0.1024727E+00
         -1   -1    0    0    0  501 -0.00000000000E+00  0.00000000000E+00  0.16482674496E+04  0.16482674496E+04  0.50400000000E-02 0.  1.
          1   -1    0    0  501    0  0.00000000000E+00 -0.00000000000E+00 -0.37173842343E+03  0.37173842346E+03  0.50400000000E-02 0. -1.
    8880023    1    1    2    0    0 -0.39913276713E+01  0.32369097413E+02 -0.71156517494E+02  0.66327757795E+03  0.65864270000E+03 0. -1.
    8880022    1    1    2    0    0  0.39913276713E+01 -0.32369097413E+02  0.13476855437E+04  0.13567282951E+04  0.15294330000E+03 0.  0.
<mgrwt>
<rscale>  0 0.46018554E+03</rscale>
<asrwt>0</asrwt>
<pdfrwt beam="1">  1        1 0.57190525E-01 0.65944969E+03</pdfrwt>
<pdfrwt beam="2">  1       -1 0.25357961E+00 0.65944969E+03</pdfrwt>
<totfact> 0.46104040E+00</totfact>
</mgrwt>
</event>
<event>
 4    1  0.4055965E-007  0.7508771E+03  0.7818608E-02  0.9829325E-01
          1   -1    0    0  501    0  0.00000000000E+00  0.00000000000E+00  0.86841141521E+03  0.86841141522E+03  0.50400000000E-02 0. -1.
         -1   -1    0    0    0  501 -0.00000000000E+00 -0.00000000000E+00 -0.55393481715E+03  0.55393481718E+03  0.50400000000E-02 0.  1.
    8880023    1    1    2    0    0 -0.18704620501E+03 -0.30825303755E+03  0.58031341890E+03  0.94898898222E+03  0.65864270000E+03 0.  0.
    8880022    1    1    2    0    0  0.18704620501E+03  0.30825303755E+03 -0.26583682084E+03  0.47335725018E+03  0.15294330000E+03 0.  0.
<mgrwt>
<rscale>  0 0.63812251E+03</rscale>
<asrwt>0</asrwt>
<pdfrwt beam="1">  1        1 0.13360176E+00 0.75087710E+03</pdfrwt>
<pdfrwt beam="2">  1       -1 0.85220742E-01 0.75087710E+03</pdfrwt>
<totfact> 0.27007261E+01</totfact>
</mgrwt>
</event>
<event>
 4    1  0.4055965E-007  0.9613437E+03  0.7818608E-02  0.9433977E-01
         -1   -1    0    0    0  501 -0.00000000000E+00  0.00000000000E+00  0.69791757859E+03  0.69791757860E+03  0.50400000000E-02 0.  1.
          1   -1    0    0  501    0  0.00000000000E+00 -0.00000000000E+00 -0.12439257036E+04  0.12439257036E+04  0.50400000000E-02 0. -1.
    8880023    1    1    2    0    0 -0.56585531594E+03 -0.41252779812E+03 -0.72379112720E+03  0.12033516630E+04  0.65864270000E+03 0. -1.
    8880022    1    1    2    0    0  0.56585531594E+03  0.41252779812E+03  0.17778300216E+03  0.73849161923E+03  0.15294330000E+03 0.  0.
<mgrwt>
<rscale>  0 0.89331445E+03</rscale>
<asrwt>0</asrwt>
<pdfrwt beam="1">  1        1 0.19137318E+00 0.96134366E+03</pdfrwt>
<pdfrwt beam="2">  1       -1 0.10737194E+00 0.96134366E+03</pdfrwt>
<totfact> 0.80851993E+00</totfact>
</mgrwt>
</event>
<event>
 4    1  0.4055965E-007  0.7843075E+03  0.7818608E-02  0.9745814E-01
         -1   -1    0    0    0  501 -0.00000000000E+00  0.00000000000E+00  0.12218042714E+04  0.12218042714E+04  0.50400000000E-02 0.  1.
          1   -1    0    0  501    0  0.00000000000E+00 -0.00000000000E+00 -0.35594463639E+03  0.35594463642E+03  0.50400000000E-02 0. -1.
    8880023    1    1    2    0    0  0.42582607540E+03  0.39887202744E+00  0.26980570059E+03  0.82941746299E+03  0.65864270000E+03 0.  0.
    8880022    1    1    2    0    0 -0.42582607540E+03 -0.39887202744E+00  0.59605393445E+03  0.74833144487E+03  0.15294330000E+03 0.  0.
<mgrwt>
<rscale>  0 0.68353335E+03</rscale>
<asrwt>0</asrwt>
<pdfrwt beam="1">  1        1 0.54760713E-01 0.78430747E+03</pdfrwt>
<pdfrwt beam="2">  1       -1 0.18796989E+00 0.78430747E+03</pdfrwt>
<totfact> 0.13112894E+01</totfact>
</mgrwt>
</event>
<event>
 4    1  0.4055965E-007  0.6930510E+03  0.7818608E-02  0.1002735E+00
          1   -1    0    0  501    0  0.00000000000E+00  0.00000000000E+00  0.19294834080E+03  0.19294834086E+03  0.50400000000E-02 0. -1.
         -1   -1    0    0    0  501 -0.00000000000E+00 -0.00000000000E+00 -0.35863254549E+04  0.35863254549E+04  0.50400000000E-02 0.  1.
    8880023    1    1    2    0    0 -0.12248310446E+03 -0.17750334330E+03 -0.45508150082E+03  0.82910730693E+03  0.65864270000E+03 0. -1.
    8880022    1    1    2    0    0  0.12248310446E+03  0.17750334330E+03 -0.29382956133E+04  0.29501664888E+04  0.15294330000E+03 0.  0.
<mgrwt>
<rscale>  0 0.54467131E+03</rscale>
<asrwt>0</asrwt>
<pdfrwt beam="1">  1        1 0.29684363E-01 0.69305105E+03</pdfrwt>
<pdfrwt beam="2">  1       -1 0.55174233E+00 0.69305105E+03</pdfrwt>
<totfact> 0.12016477E-01</totfact>
</mgrwt>
</event>
<event>
 4    1  0.4055965E-007  0.1058107E+04  0.7818608E-02  0.9309199E-01
          1   -1    0    0  501    0  0.00000000000E+00  0.00000000000E+00  0.43631489198E+03  0.43631489201E+03  0.50400000000E-02 0. -1.
         -1   -1    0    0    0  501 -0.00000000000E+00 -0.00000000000E+00 -0.22404749340E+04  0.22404749340E+04  0.50400000000E-02 0.  1.
    8880023    1    1    2    0    0  0.71744693537E+03 -0.41358140040E+03 -0.13648564889E+04  0.17269693458E+04  0.65864270000E+03 0.  0.
    8880022    1    1    2    0    0 -0.71744693537E+03  0.41358140040E+03 -0.43930355312E+03  0.94982048021E+03  0.15294330000E+03 0.  0.
<mgrwt>
<rscale>  0 0.99940383E+03</rscale>
<asrwt>0</asrwt>
<pdfrwt beam="1">  1        1 0.67125369E-01 0.10581067E+04</pdfrwt>
<pdfrwt beam="2">  1       -1 0.34468845E+00 0.10581067E+04</pdfrwt>
<totfact> 0.91075545E-01</totfact>
</mgrwt>
</event>
<event>
 4    1  0.4055965E-007  0.1081485E+04  0.7818608E-02  0.9281956E-01
         -1   -1    0    0    0  501 -0.00000000000E+00  0.00000000000E+00  0.63622624745E+03  0.63622624747E+03  0.50400000000E-02 0.  1.
          1   -1    0    0  501    0  0.00000000000E+00 -0.00000000000E+00 -0.34835688418E+04  0.34835688418E+04  0.50400000000E-02 0. -1.
    8880023    1    1    2    0    0  0.84849414052E+03 -0.12592148749E+03 -0.30406856107E+04  0.32272864325E+04  0.65864270000E+03 0.  0.
    8880022    1    1    2    0    0 -0.84849414052E+03  0.12592148749E+03  0.19334301638E+03  0.89250865683E+03  0.15294330000E+03 0.  0.
<mgrwt>
<rscale>  0 0.10246111E+04</rscale>
<asrwt>0</asrwt>
<pdfrwt beam="1">  1        1 0.53593366E+00 0.10814845E+04</pdfrwt>
<pdfrwt beam="2">  1       -1 0.97880963E-01 0.10814845E+04</pdfrwt>
<totfact> 0.26383457E-01</totfact>
</mgrwt>
</event>
<event>
 4    1  0.4055965E-007  0.1109193E+04  0.7818608E-02  0.9250889E-01
         -1   -1    0    0    0  501 -0.00000000000E+00  0.00000000000E+00  0.17254399665E+04  0.17254399665E+04  0.50400000000E-02 0.  1.
          1   -1    0    0  501    0  0.00000000000E+00 -0.00000000000E+00 -0.17467099460E+04  0.17467099460E+04  0.50400000000E-02 0. -1.
    8880023    1    1    2    0    0  0.93524586612E+02  0.88755388650E+03  0.14004955459E+04  0.17865320401E+04  0.65864270000E+03 0.  0.
    8880022    1    1    2    0    0 -0.93524586612E+02 -0.88755388650E+03 -0.14217655254E+04  0.16856178724E+04  0.15294330000E+03 0.  0.
<mgrwt>
<rscale>  0 0.10543257E+04</rscale>
<asrwt>0</asrwt>
<pdfrwt beam="1">  1        1 0.26872461E+00 0.11091929E+04</pdfrwt>
<pdfrwt beam="2">  1       -1 0.26545230E+00 0.11091929E+04</pdfrwt>
<totfact> 0.24405701E-01</totfact>
</mgrwt>
</event>
<event>
 4    1  0.4055965E-007  0.1218031E+04  0.7818608E-02  0.9139791E-01
          1   -1    0    0  501    0  0.00000000000E+00  0.00000000000E+00  0.40511445944E+04  0.40511445944E+04  0.50400000000E-02 0. -1.
         -1   -1    0    0    0  501 -0.00000000000E+00 -0.00000000000E+00 -0.59152298806E+03  0.59152298808E+03  0.50400000000E-02 0.  1.
    8880023    1    1    2    0    0  0.38465329849E+03 -0.94964847156E+03  0.33925200268E+04  0.36045516667E+04  0.65864270000E+03 0.  0.
    8880022    1    1    2    0    0 -0.38465329849E+03  0.94964847156E+03  0.67101579536E+02  0.10381159158E+04  0.15294330000E+03 0.  0.
<mgrwt>
<rscale>  0 0.11697096E+04</rscale>
<asrwt>0</asrwt>
<pdfrwt beam="1">  1        1 0.62325303E+00 0.12180314E+04</pdfrwt>
<pdfrwt beam="2">  1       -1 0.91003534E-01 0.12180314E+04</pdfrwt>
<totfact> 0.10330077E-01</totfact>
</mgrwt>
</event>
<event>
 4    1  0.4414729E-007  0.8947703E+03  0.7818608E-02  0.9534480E-01
          1   -1    0    0  501    0  0.00000000000E+00  0.00000000000E+00  0.13003423954E+04  0.13003423954E+04  0.50400000000E-02 0. -1.
         -1   -1    0    0    0  501 -0.00000000000E+00 -0.00000000000E+00 -0.15224291591E+04  0.15224291591E+04  0.50400000000E-02 0.  1.
    8880023    1    1    2    0    0  0.59282585103E+03 -0.12394016967E+03  0.10656766024E+04  0.13915029581E+04  0.65864270000E+03 0. -1.
    8880022    1    1    2    0    0 -0.59282585103E+03  0.12394016967E+03 -0.12877633661E+04  0.14312685965E+04  0.15294330000E+03 0.  0.
<mgrwt>
<rscale>  0 0.81788816E+03</rscale>
<asrwt>0</asrwt>
<pdfrwt beam="1">  1        1 0.20005268E+00 0.89477028E+03</pdfrwt>
<pdfrwt beam="2">  1       -1 0.23421987E+00 0.89477028E+03</pdfrwt>
<totfact> 0.82065524E-01</totfact>
</mgrwt>
</event>
<event>
 4    1  0.4055965E-007  0.7919461E+03  0.7818608E-02  0.9728488E-01
         -1   -1    0    0    0  501 -0.00000000000E+00  0.00000000000E+00  0.52549388282E+03  0.52549388284E+03  0.50400000000E-02 0.  1.
          1   -1    0    0  501    0  0.00000000000E+00 -0.00000000000E+00 -0.11004891845E+04  0.11004891845E+04  0.50400000000E-02 0. -1.
    8880023    1    1    2    0    0  0.89705431139E+02  0.43048974537E+03 -0.78514015729E+03  0.11151788010E+04  0.65864270000E+03 0.  0.
    8880022    1    1    2    0    0 -0.89705431139E+02 -0.43048974537E+03  0.21014485559E+03  0.51080426642E+03  0.15294330000E+03 0.  0.
<mgrwt>
<rscale>  0 0.69345640E+03</rscale>
<asrwt>0</asrwt>
<pdfrwt beam="1">  1        1 0.16930603E+00 0.79194614E+03</pdfrwt>
<pdfrwt beam="2">  1       -1 0.80845213E-01 0.79194614E+03</pdfrwt>
<totfact> 0.19804526E+01</totfact>
</mgrwt>
</event>
<event>
 4    1  0.4055965E-007  0.1139217E+04  0.7818608E-02  0.9218599E-01
         -1   -1    0    0    0  501 -0.00000000000E+00  0.00000000000E+00  0.18560097763E+04  0.18560097763E+04  0.50400000000E-02 0.  1.
          1   -1    0    0  501    0  0.00000000000E+00 -0.00000000000E+00 -0.75790610093E+03  0.75790610095E+03  0.50400000000E-02 0. -1.
    8880023    1    1    2    0    0  0.57072428424E+03  0.73367541944E+03 -0.35775662942E+02  0.11397788970E+04  0.65864270000E+03 0. -1.
    8880022    1    1    2    0    0 -0.57072428424E+03 -0.73367541944E+03  0.11338793383E+04  0.14741369803E+04  0.15294330000E+03 0.  0.
<mgrwt>
<rscale>  0 0.10863498E+04</rscale>
<asrwt>0</asrwt>
<pdfrwt beam="1">  1        1 0.11660094E+00 0.11392173E+04</pdfrwt>
<pdfrwt beam="2">  1       -1 0.28553996E+00 0.11392173E+04</pdfrwt>
<totfact> 0.98097635E-01</totfact>
</mgrwt>
</event>
<event>
 4    1  0.4055965E-007  0.1149081E+04  0.7818608E-02  0.9208282E-01
         -1   -1    0    0    0  501 -0.00000000000E+00  0.00000000000E+00  0.11318396138E+04  0.11318396138E+04  0.50400000000E-02 0.  1.
          1   -1    0    0  501    0  0.00000000000E+00 -0.00000000000E+00 -0.20995069745E+04  0.20995069745E+04  0.50400000000E-02 0. -1.
    8880023    1    1    2    0    0  0.89696843917E+03 -0.28639864445E+03 -0.16838052674E+04  0.20385256803E+04  0.65864270000E+03 0. -1.
    8880022    1    1    2    0    0 -0.89696843917E+03  0.28639864445E+03  0.71613790664E+03  0.11928209081E+04  0.15294330000E+03 0.  0.
<mgrwt>
<rscale>  0 0.10968348E+04</rscale>
<asrwt>0</asrwt>
<pdfrwt beam="1">  1        1 0.32300107E+00 0.11490808E+04</pdfrwt>
<pdfrwt beam="2">  1       -1 0.17412917E+00 0.11490808E+04</pdfrwt>
<totfact> 0.57937288E-01</totfact>
</mgrwt>
</event>
<event>
 4    1  0.4055965E-007  0.7368072E+03  0.7818608E-02  0.9869347E-01
         -1   -1    0    0    0  501 -0.00000000000E+00  0.00000000000E+00  0.19732140400E+04  0.19732140400E+04  0.50400000000E-02 0.  1.
          1   -1    0    0  501    0  0.00000000000E+00 -0.00000000000E+00 -0.39480157656E+03  0.39480157659E+03  0.50400000000E-02 0. -1.
    8880023    1    1    2    0    0  0.20332841747E+03  0.26025402154E+03 -0.11580574719E+02  0.73689817278E+03  0.65864270000E+03 0. -1.
    8880022    1    1    2    0    0 -0.20332841747E+03 -0.26025402154E+03  0.15899930381E+04  0.16311174438E+04  0.15294330000E+03 0.  0.
<mgrwt>
<rscale>  0 0.61770134E+03</rscale>
<asrwt>0</asrwt>
<pdfrwt beam="1">  1        1 0.60738705E-01 0.73680717E+03</pdfrwt>
<pdfrwt beam="2">  1       -1 0.30357139E+00 0.73680717E+03</pdfrwt>
<totfact> 0.20151056E+00</totfact>
</mgrwt>
</event>
<event>
 4    1  0.4055965E-007  0.7342208E+03  0.7818608E-02  0.9877113E-01
          1   -1    0    0  501    0  0.00000000000E+00  0.00000000000E+00  0.54880918978E+03  0.54880918980E+03  0.50400000000E-02 0. -1.
         -1   -1    0    0    0  501 -0.00000000000E+00 -0.00000000000E+00 -0.67234170279E+03  0.67234170281E+03  0.50400000000E-02 0.  1.
    8880023    1    1    2    0    0 -0.21739859069E+03  0.24084820803E+03 -0.33252755454E+03  0.80601165459E+03  0.65864270000E+03 0.  0.
    8880022    1    1    2    0    0  0.21739859069E+03 -0.24084820803E+03  0.20899504152E+03  0.41513923802E+03  0.15294330000E+03 0.  0.
<mgrwt>
<rscale>  0 0.61383432E+03</rscale>
<asrwt>0</asrwt>
<pdfrwt beam="1">  1        1 0.84432183E-01 0.73422082E+03</pdfrwt>
<pdfrwt beam="2">  1       -1 0.10343718E+00 0.73422082E+03</pdfrwt>
<totfact> 0.35155437E+01</totfact>
</mgrwt>
</event>
<event>
 4    1  0.4055965E-007  0.8513961E+03  0.7818608E-02  0.9609055E-01
         -1   -1    0    0    0  501 -0.00000000000E+00  0.00000000000E+00  0.47156324230E+03  0.47156324233E+03  0.50400000000E-02 0.  1.
          1   -1    0    0  501    0  0.00000000000E+00 -0.00000000000E+00 -0.17234824529E+04  0.17234824529E+04  0.50400000000E-02 0. -1.
    8880023    1    1    2    0    0  0.53790721056E+03  0.41484029227E+02 -0.13784483259E+04  0.16201836579E+04  0.65864270000E+03 0. -1.
    8880022    1    1    2    0    0 -0.53790721056E+03 -0.41484029227E+02  0.12652911538E+03  0.57486203728E+03  0.15294330000E+03 0.  0.
<mgrwt>
<rscale>  0 0.76699733E+03</rscale>
<asrwt>0</asrwt>
<pdfrwt beam="1">  1        1 0.26515114E+00 0.85139609E+03</pdfrwt>
<pdfrwt beam="2">  1       -1 0.72548192E-01 0.85139609E+03</pdfrwt>
<totfact> 0.90387245E+00</totfact>
</mgrwt>
</event>
<event>
 4    1  0.4055965E-007  0.6903384E+03  0.7818608E-02  0.1003992E+00
          1   -1    0    0  501    0  0.00000000000E+00  0.00000000000E+00  0.32009623711E+03  0.32009623715E+03  0.50400000000E-02 0. -1.
         -1   -1    0    0    0  501 -0.00000000000E+00 -0.00000000000E+00 -0.99764412576E+03  0.99764412577E+03  0.50400000000E-02 0.  1.
    8880023    1    1    2    0    0 -0.11229575838E+03  0.17362780008E+03 -0.11589321759E+03  0.69999885318E+03  0.65864270000E+03 0. -1.
    8880022    1    1    2    0    0  0.11229575838E+03 -0.17362780008E+03 -0.56165467106E+03  0.61774150974E+03  0.15294330000E+03 0.  0.
<mgrwt>
<rscale>  0 0.53933875E+03</rscale>
<asrwt>0</asrwt>
<pdfrwt beam="1">  1        1 0.49245575E-01 0.69033844E+03</pdfrwt>
<pdfrwt beam="2">  1       -1 0.15348371E+00 0.69033844E+03</pdfrwt>
<totfact> 0.27188077E+01</totfact>
</mgrwt>
</event>
<event>
 4    1  0.4055965E-007  0.6810112E+03  0.7818608E-02  0.1008757E+00
          1   -1    0    0  501    0  0.00000000000E+00  0.00000000000E+00  0.27308027151E+03  0.27308027156E+03  0.50400000000E-02 0. -1.
         -1   -1    0    0    0  501 -0.00000000000E+00 -0.00000000000E+00 -0.78543565020E+03  0.78543565021E+03  0.50400000000E-02 0.  1.
    8880023    1    1    2    0    0 -0.85745498325E+02 -0.15037876109E+03 -0.29789253024E+03  0.74331435349E+03  0.65864270000E+03 0. -1.
    8880022    1    1    2    0    0  0.85745498325E+02  0.15037876109E+03 -0.21446284845E+03  0.31520156828E+03  0.15294330000E+03 0. -1.
<mgrwt>
<rscale>  0 0.51971512E+03</rscale>
<asrwt>0</asrwt>
<pdfrwt beam="1">  1        1 0.42012350E-01 0.68101121E+03</pdfrwt>
<pdfrwt beam="2">  1       -1 0.12083625E+00 0.68101121E+03</pdfrwt>
<totfact> 0.61773552E+01</totfact>
</mgrwt>
</event>
<event>
 4    1  0.4055965E-007  0.1149271E+04  0.7818608E-02  0.9208085E-01
         -1   -1    0    0    0  501 -0.00000000000E+00  0.00000000000E+00  0.58161105260E+03  0.58161105262E+03  0.50400000000E-02 0.  1.
          1   -1    0    0  501    0  0.00000000000E+00 -0.00000000000E+00 -0.34773469269E+04  0.34773469269E+04  0.50400000000E-02 0. -1.
    8880023    1    1    2    0    0 -0.55684272715E+02 -0.94016616472E+03 -0.28841926516E+04  0.31047368026E+04  0.65864270000E+03 0. -1.
    8880022    1    1    2    0    0  0.55684272715E+02  0.94016616472E+03 -0.11543222698E+02  0.95422117693E+03  0.15294330000E+03 0.  0.
<mgrwt>
<rscale>  0 0.10970365E+04</rscale>
<asrwt>0</asrwt>
<pdfrwt beam="1">  1        1 0.53497644E+00 0.11492708E+04</pdfrwt>
<pdfrwt beam="2">  1       -1 0.89478626E-01 0.11492708E+04</pdfrwt>
<totfact> 0.32265974E-01</totfact>
</mgrwt>
</event>
<event>
 4    1  0.4055965E-007  0.1022179E+04  0.7818608E-02  0.9353099E-01
         -1   -1    0    0    0  501 -0.00000000000E+00  0.00000000000E+00  0.50383954610E+03  0.50383954612E+03  0.50400000000E-02 0.  1.
          1   -1    0    0  501    0  0.00000000000E+00 -0.00000000000E+00 -0.25468335563E+04  0.25468335563E+04  0.50400000000E-02 0. -1.
    8880023    1    1    2    0    0  0.18960297351E+03 -0.75834771342E+03 -0.20082256668E+04  0.22534021117E+04  0.65864270000E+03 0. -1.
    8880022    1    1    2    0    0 -0.18960297351E+03  0.75834771342E+03 -0.34768343468E+02  0.79727099077E+03  0.15294330000E+03 0.  0.
<mgrwt>
<rscale>  0 0.96038087E+03</rscale>
<asrwt>0</asrwt>
<pdfrwt beam="1">  1        1 0.39182054E+00 0.10221794E+04</pdfrwt>
<pdfrwt beam="2">  1       -1 0.77513778E-01 0.10221794E+04</pdfrwt>
<totfact> 0.21306917E+00</totfact>
</mgrwt>
</event>
<event>
 4    1  0.4055965E-007  0.6934192E+03  0.7818608E-02  0.1002568E+00
          1   -1    0    0  501    0  0.00000000000E+00  0.00000000000E+00  0.18473874554E+04  0.18473874554E+04  0.50400000000E-02 0. -1.
         -1   -1    0    0    0  501 -0.00000000000E+00 -0.00000000000E+00 -0.35609761016E+03  0.35609761020E+03  0.50400000000E-02 0.  1.
    8880023    1    1    2    0    0 -0.20057717344E+03  0.82394047198E+02  0.17191483984E+04  0.18537263562E+04  0.65864270000E+03 0. -1.
    8880022    1    1    2    0    0  0.20057717344E+03 -0.82394047198E+02 -0.22785855321E+03  0.34975870941E+03  0.15294330000E+03 0.  0.
<mgrwt>
<rscale>  0 0.54538407E+03</rscale>
<asrwt>0</asrwt>
<pdfrwt beam="1">  1        1 0.28421346E+00 0.69341920E+03</pdfrwt>
<pdfrwt beam="2">  1       -1 0.54784247E-01 0.69341920E+03</pdfrwt>
<totfact> 0.13384131E+01</totfact>
</mgrwt>
</event>
<event>
 4    1  0.4055965E-007  0.6653640E+03  0.7818608E-02  0.1019230E+00
         -1   -1    0    0    0  501 -0.00000000000E+00  0.00000000000E+00  0.12839383626E+03  0.12839383636E+03  0.50400000000E-02 0.  1.
          1   -1    0    0  501    0  0.00000000000E+00 -0.00000000000E+00 -0.16176079578E+04  0.16176079578E+04  0.50400000000E-02 0. -1.
    8880023    1    1    2    0    0 -0.65774378259E+02  0.67622688695E+02 -0.13892666348E+04  0.15403801757E+04  0.65864270000E+03 0. -1.
    8880022    1    1    2    0    0  0.65774378259E+02 -0.67622688695E+02 -0.99947486764E+02  0.20562161848E+03  0.15294330000E+03 0.  1.
<mgrwt>
<rscale>  0 0.47965531E+03</rscale>
<asrwt>0</asrwt>
<pdfrwt beam="1">  1        1 0.24886275E+00 0.66536404E+03</pdfrwt>
<pdfrwt beam="2">  1       -1 0.19752899E-01 0.66536404E+03</pdfrwt>
<totfact> 0.11685199E+02</totfact>
</mgrwt>
</event>
<event>
 4    1  0.4055965E-007  0.7494098E+03  0.7818608E-02  0.9833339E-01
          1   -1    0    0  501    0  0.00000000000E+00  0.00000000000E+00  0.57285223351E+03  0.57285223354E+03  0.50400000000E-02 0. -1.
         -1   -1    0    0    0  501 -0.00000000000E+00 -0.00000000000E+00 -0.94520096050E+03  0.94520096051E+03  0.50400000000E-02 0.  1.
    8880023    1    1    2    0    0 -0.20627009413E+03  0.29198879435E+03  0.24501024708E+03  0.78844469381E+03  0.65864270000E+03 0. -1.
    8880022    1    1    2    0    0  0.20627009413E+03 -0.29198879435E+03 -0.61735897406E+03  0.72960850024E+03  0.15294330000E+03 0.  0.
<mgrwt>
<rscale>  0 0.63603676E+03</rscale>
<asrwt>0</asrwt>
<pdfrwt beam="1">  1        1 0.88131113E-01 0.74940978E+03</pdfrwt>
<pdfrwt beam="2">  1       -1 0.14541553E+00 0.74940978E+03</pdfrwt>
<totfact> 0.14273897E+01</totfact>
</mgrwt>
</event>
<event>
 4    1  0.4055965E-007  0.6690616E+03  0.7818608E-02  0.1016345E+00
         -1   -1    0    0    0  501 -0.00000000000E+00  0.00000000000E+00  0.77057699175E+03  0.77057699177E+03  0.50400000000E-02 0.  1.
          1   -1    0    0  501    0  0.00000000000E+00 -0.00000000000E+00 -0.88536447403E+03  0.88536447405E+03  0.50400000000E-02 0. -1.
    8880023    1    1    2    0    0  0.85571868431E+02 -0.80688416746E+02 -0.74236588334E+03  0.99937504285E+03  0.65864270000E+03 0. -1.
    8880022    1    1    2    0    0 -0.85571868431E+02  0.80688416746E+02  0.62757840106E+03  0.65656642296E+03  0.15294330000E+03 0.  0.
<mgrwt>
<rscale>  0 0.49029067E+03</rscale>
<asrwt>0</asrwt>
<pdfrwt beam="1">  1        1 0.13620992E+00 0.66906156E+03</pdfrwt>
<pdfrwt beam="2">  1       -1 0.11855031E+00 0.66906156E+03</pdfrwt>
<totfact> 0.12435414E+01</totfact>
</mgrwt>
</event>
<event>
 4    1  0.4055965E-007  0.7131944E+03  0.7818608E-02  0.9946325E-01
          1   -1    0    0  501    0  0.00000000000E+00  0.00000000000E+00  0.13534034958E+04  0.13534034958E+04  0.50400000000E-02 0. -1.
         -1   -1    0    0    0  501 -0.00000000000E+00 -0.00000000000E+00 -0.33189626534E+03  0.33189626538E+03  0.50400000000E-02 0.  1.
    8880023    1    1    2    0    0  0.21294514375E+03  0.17172764223E+03  0.11445741764E+04  0.13485904748E+04  0.65864270000E+03 0.  0.
    8880022    1    1    2    0    0 -0.21294514375E+03 -0.17172764223E+03 -0.12306694588E+03  0.33670928638E+03  0.15294330000E+03 0.  0.
<mgrwt>
<rscale>  0 0.58067772E+03</rscale>
<asrwt>0</asrwt>
<pdfrwt beam="1">  1        1 0.20821592E+00 0.71319438E+03</pdfrwt>
<pdfrwt beam="2">  1       -1 0.51060964E-01 0.71319438E+03</pdfrwt>
<totfact> 0.33051264E+01</totfact>
</mgrwt>
</event>
<event>
 4    1  0.4055965E-007  0.6736276E+03  0.7818608E-02  0.1013186E+00
         -1   -1    0    0    0  501 -0.00000000000E+00  0.00000000000E+00  0.82022132975E+03  0.82022132976E+03  0.50400000000E-02 0.  1.
          1   -1    0    0  501    0  0.00000000000E+00 -0.00000000000E+00 -0.68237857407E+03  0.68237857409E+03  0.50400000000E-02 0. -1.
    8880023    1    1    2    0    0 -0.90247822184E+02 -0.10871633074E+03 -0.49528565456E+03  0.83611123414E+03  0.65864270000E+03 0. -1.
    8880022    1    1    2    0    0  0.90247822184E+02  0.10871633074E+03  0.63312841024E+03  0.66648866971E+03  0.15294330000E+03 0.  0.
<mgrwt>
<rscale>  0 0.50227955E+03</rscale>
<asrwt>0</asrwt>
<pdfrwt beam="1">  1        1 0.10498132E+00 0.67362758E+03</pdfrwt>
<pdfrwt beam="2">  1       -1 0.12618790E+00 0.67362758E+03</pdfrwt>
<totfact> 0.16063430E+01</totfact>
</mgrwt>
</event>
<event>
 4    1  0.4055965E-007  0.6829182E+03  0.7818608E-02  0.1007719E+00
         -1   -1    0    0    0  501 -0.00000000000E+00  0.00000000000E+00  0.39466168175E+03  0.39466168179E+03  0.50400000000E-02 0.  1.
          1   -1    0    0  501    0  0.00000000000E+00 -0.00000000000E+00 -0.16994355245E+04  0.16994355245E+04  0.50400000000E-02 0. -1.
    8880023    1    1    2    0    0  0.46499341857E+01 -0.18040365208E+03 -0.15858982726E+04  0.17266877648E+04  0.65864270000E+03 0. -1.
    8880022    1    1    2    0    0 -0.46499341857E+01  0.18040365208E+03  0.28112442993E+03  0.36740944148E+03  0.15294330000E+03 0.  0.
<mgrwt>
<rscale>  0 0.52391403E+03</rscale>
<asrwt>0</asrwt>
<pdfrwt beam="1">  1        1 0.26145162E+00 0.68291823E+03</pdfrwt>
<pdfrwt beam="2">  1       -1 0.60717183E-01 0.68291823E+03</pdfrwt>
<totfact> 0.13781151E+01</totfact>
</mgrwt>
</event>
<event>
 4    1  0.4055965E-007  0.7984714E+03  0.7818608E-02  0.9714111E-01
          1   -1    0    0  501    0  0.00000000000E+00  0.00000000000E+00  0.73712224388E+03  0.73712224389E+03  0.50400000000E-02 0. -1.
         -1   -1    0    0    0  501 -0.00000000000E+00 -0.00000000000E+00 -0.65589167806E+03  0.65589167808E+03  0.50400000000E-02 0.  1.
    8880023    1    1    2    0    0  0.28584318439E+03 -0.34934233035E+03  0.31969550138E+03  0.86009407026E+03  0.65864270000E+03 0. -1.
    8880022    1    1    2    0    0 -0.28584318439E+03  0.34934233035E+03 -0.23846493556E+03  0.53291985171E+03  0.15294330000E+03 0.  0.
<mgrwt>
<rscale>  0 0.70182812E+03</rscale>
<asrwt>0</asrwt>
<pdfrwt beam="1">  1        1 0.11340342E+00 0.79847141E+03</pdfrwt>
<pdfrwt beam="2">  1       -1 0.10090641E+00 0.79847141E+03</pdfrwt>
<totfact> 0.23983532E+01</totfact>
</mgrwt>
</event>
<event>
 4    1  0.4055965E-007  0.8148099E+03  0.7818608E-02  0.9679644E-01
          1   -1    0    0  501    0  0.00000000000E+00  0.00000000000E+00  0.10456784548E+04  0.10456784548E+04  0.50400000000E-02 0. -1.
         -1   -1    0    0    0  501 -0.00000000000E+00 -0.00000000000E+00 -0.14739960325E+04  0.14739960325E+04  0.50400000000E-02 0.  1.
    8880023    1    1    2    0    0  0.43615578163E+03  0.19968262900E+03  0.83076762420E+03  0.11636537586E+04  0.65864270000E+03 0. -1.
    8880022    1    1    2    0    0 -0.43615578163E+03 -0.19968262900E+03 -0.12590852019E+04  0.13560207287E+04  0.15294330000E+03 0.  0.
<mgrwt>
<rscale>  0 0.72241835E+03</rscale>
<asrwt>0</asrwt>
<pdfrwt beam="1">  1        1 0.16087361E+00 0.81480993E+03</pdfrwt>
<pdfrwt beam="2">  1       -1 0.22676862E+00 0.81480993E+03</pdfrwt>
<totfact> 0.14323272E+00</totfact>
</mgrwt>
</event>
<event>
 4    1  0.4055965E-007  0.6644552E+03  0.7818608E-02  0.1019995E+00
         -1   -1    0    0    0  501 -0.00000000000E+00  0.00000000000E+00  0.16712796857E+03  0.16712796865E+03  0.50400000000E-02 0.  1.
          1   -1    0    0  501    0  0.00000000000E+00 -0.00000000000E+00 -0.12221064840E+04  0.12221064840E+04  0.50400000000E-02 0. -1.
    8880023    1    1    2    0    0  0.80268114440E+02 -0.35321006240E+02 -0.10071040066E+04  0.12065484781E+04  0.65864270000E+03 0. -1.
    8880022    1    1    2    0    0 -0.80268114440E+02  0.35321006240E+02 -0.47874508812E+02  0.18268597452E+03  0.15294330000E+03 0.  0.
<mgrwt>
<rscale>  0 0.47688455E+03</rscale>
<asrwt>0</asrwt>
<pdfrwt beam="1">  1        1 0.18801638E+00 0.66445523E+03</pdfrwt>
<pdfrwt beam="2">  1       -1 0.25711996E-01 0.66445523E+03</pdfrwt>
<totfact> 0.14079735E+02</totfact>
</mgrwt>
</event>
<event>
 4    1  0.4055965E-007  0.7009976E+03  0.7818608E-02  0.9993088E-01
          1   -1    0    0  501    0  0.00000000000E+00  0.00000000000E+00  0.56700397577E+03  0.56700397580E+03  0.50400000000E-02 0. -1.
         -1   -1    0    0    0  501 -0.00000000000E+00 -0.00000000000E+00 -0.12619888100E+04  0.12619888100E+04  0.50400000000E-02 0.  1.
    8880023    1    1    2    0    0  0.57574721308E+01 -0.23990461945E+03  0.32310753633E+03  0.77187826839E+03  0.65864270000E+03 0. -1.
    8880022    1    1    2    0    0 -0.57574721308E+01  0.23990461945E+03 -0.10180923706E+04  0.10571145174E+04  0.15294330000E+03 0.  0.
<mgrwt>
<rscale>  0 0.55954362E+03</rscale>
<asrwt>0</asrwt>
<pdfrwt beam="1">  1        1 0.87231381E-01 0.70099756E+03</pdfrwt>
<pdfrwt beam="2">  1       -1 0.19415212E+00 0.70099756E+03</pdfrwt>
<totfact> 0.63940832E+00</totfact>
</mgrwt>
</event>
<event>
 4    1  0.4116583E-007  0.7477286E+03  0.7818608E-02  0.9837980E-01
          1   -1    0    0  501    0  0.00000000000E+00  0.00000000000E+00  0.12276433981E+04  0.12276433981E+04  0.50400000000E-02 0. -1.
         -1   -1    0    0    0  501 -0.00000000000E+00 -0.00000000000E+00 -0.83039064460E+03  0.83039064462E+03  0.50400000000E-02 0.  1.
    8880023    1    1    2    0    0 -0.97669824236E+02  0.34021826920E+03  0.10564833593E+04  0.12943164837E+04  0.65864270000E+03 0. -1.
    8880022    1    1    2    0    0  0.97669824236E+02 -0.34021826920E+03 -0.65923060582E+03  0.76371755901E+03  0.15294330000E+03 0.  0.
<mgrwt>
<rscale>  0 0.63363534E+03</rscale>
<asrwt>0</asrwt>
<pdfrwt beam="1">  1        1 0.18886821E+00 0.74772861E+03</pdfrwt>
<pdfrwt beam="2">  1       -1 0.12775241E+00 0.74772861E+03</pdfrwt>
<totfact> 0.56127384E+00</totfact>
</mgrwt>
</event>
<event>
 4    1  0.4081588E-007  0.6971475E+03  0.7818608E-02  0.1000925E+00
         -1   -1    0    0    0  501 -0.00000000000E+00  0.00000000000E+00  0.19708077756E+04  0.19708077756E+04  0.50400000000E-02 0.  1.
          1   -1    0    0  501    0  0.00000000000E+00 -0.00000000000E+00 -0.10437208012E+04  0.10437208012E+04  0.50400000000E-02 0. -1.
    8880023    1    1    2    0    0 -0.22841155346E+03  0.57128036306E+01 -0.91596037795E+03  0.11510856155E+04  0.65864270000E+03 0.  0.
    8880022    1    1    2    0    0  0.22841155346E+03 -0.57128036306E+01  0.18430473524E+04  0.18634429613E+04  0.15294330000E+03 0.  1.
<mgrwt>
<rscale>  0 0.55246652E+03</rscale>
<asrwt>0</asrwt>
<pdfrwt beam="1">  1        1 0.16057243E+00 0.69714753E+03</pdfrwt>
<pdfrwt beam="2">  1       -1 0.30320120E+00 0.69714753E+03</pdfrwt>
<totfact> 0.47433115E-01</totfact>
</mgrwt>
</event>
<event>
 4    1  0.4055965E-007  0.6587835E+03  0.7818608E-02  0.1025439E+00
          1   -1    0    0  501    0  0.00000000000E+00  0.00000000000E+00  0.10302354171E+04  0.10302354171E+04  0.50400000000E-02 0. -1.
         -1   -1    0    0    0  501 -0.00000000000E+00 -0.00000000000E+00 -0.21525144966E+03  0.21525144972E+03  0.50400000000E-02 0.  1.
    8880023    1    1    2    0    0  0.75028039555E+01 -0.11366591711E+02  0.86198797156E+03  0.10849050469E+04  0.65864270000E+03 0. -1.
    8880022    1    1    2    0    0 -0.75028039555E+01  0.11366591711E+02 -0.47004004102E+02  0.16058181993E+03  0.15294330000E+03 0.  0.
<mgrwt>
<rscale>  0 0.45773955E+03</rscale>
<asrwt>0</asrwt>
<pdfrwt beam="1">  1        1 0.15849776E+00 0.65878350E+03</pdfrwt>
<pdfrwt beam="2">  1       -1 0.33115608E-01 0.65878350E+03</pdfrwt>
<totfact> 0.12586012E+02</totfact>
</mgrwt>
</event>
<event>
 4    1  0.4055965E-007  0.1138522E+04  0.7818608E-02  0.9219332E-01
          1   -1    0    0  501    0  0.00000000000E+00  0.00000000000E+00  0.11341747601E+04  0.11341747601E+04  0.50400000000E-02 0. -1.
         -1   -1    0    0    0  501 -0.00000000000E+00 -0.00000000000E+00 -0.11923331960E+04  0.11923331960E+04  0.50400000000E-02 0.  1.
    8880023    1    1    2    0    0 -0.50597022730E+03 -0.77872713375E+03  0.48760237016E+03  0.12385427314E+04  0.65864270000E+03 0.  0.
    8880022    1    1    2    0    0  0.50597022730E+03  0.77872713375E+03 -0.54576080611E+03  0.10879652247E+04  0.15294330000E+03 0.  0.
<mgrwt>
<rscale>  0 0.10856100E+04</rscale>
<asrwt>0</asrwt>
<pdfrwt beam="1">  1        1 0.17448842E+00 0.11385219E+04</pdfrwt>
<pdfrwt beam="2">  1       -1 0.18343588E+00 0.11385219E+04</pdfrwt>
<totfact> 0.23203370E+00</totfact>
</mgrwt>
</event>
<event>
 4    1  0.4055965E-007  0.7246742E+03  0.7818608E-02  0.9907076E-01
          1   -1    0    0  501    0  0.00000000000E+00  0.00000000000E+00  0.90070261290E+03  0.90070261291E+03  0.50400000000E-02 0. -1.
         -1   -1    0    0    0  501 -0.00000000000E+00 -0.00000000000E+00 -0.33281411125E+03  0.33281411129E+03  0.50400000000E-02 0.  1.
    8880023    1    1    2    0    0 -0.24512529903E+03  0.17679404202E+03  0.51883480730E+03  0.89125883392E+03  0.65864270000E+03 0.  0.
    8880022    1    1    2    0    0  0.24512529903E+03 -0.17679404202E+03  0.49053694351E+02  0.34225789028E+03  0.15294330000E+03 0.  0.
<mgrwt>
<rscale>  0 0.59919575E+03</rscale>
<asrwt>0</asrwt>
<pdfrwt beam="1">  1        1 0.13856963E+00 0.72467424E+03</pdfrwt>
<pdfrwt beam="2">  1       -1 0.51202171E-01 0.72467424E+03</pdfrwt>
<totfact> 0.71341584E+01</totfact>
</mgrwt>
</event>
<event>
 4    1  0.4055965E-007  0.6702809E+03  0.7818608E-02  0.1015462E+00
         -1   -1    0    0    0  501 -0.00000000000E+00  0.00000000000E+00  0.15556506584E+04  0.15556506584E+04  0.50400000000E-02 0.  1.
          1   -1    0    0  501    0  0.00000000000E+00 -0.00000000000E+00 -0.66004497160E+03  0.66004497162E+03  0.50400000000E-02 0. -1.
    8880023    1    1    2    0    0  0.79282311038E+02 -0.95815154817E+02 -0.48102566369E+03  0.82502249917E+03  0.65864270000E+03 0. -1.
    8880022    1    1    2    0    0 -0.79282311038E+02  0.95815154817E+02  0.13766313505E+04  0.13906731309E+04  0.15294330000E+03 0.  0.
<mgrwt>
<rscale>  0 0.49360268E+03</rscale>
<asrwt>0</asrwt>
<pdfrwt beam="1">  1        1 0.10154538E+00 0.67028086E+03</pdfrwt>
<pdfrwt beam="2">  1       -1 0.23933087E+00 0.67028086E+03</pdfrwt>
<totfact> 0.25799135E+00</totfact>
</mgrwt>
</event>
<event>
 4    1  0.4055965E-007  0.7197109E+03  0.7818608E-02  0.9923565E-01
          1   -1    0    0  501    0  0.00000000000E+00  0.00000000000E+00  0.15647808362E+04  0.15647808362E+04  0.50400000000E-02 0. -1.
         -1   -1    0    0    0  501 -0.00000000000E+00 -0.00000000000E+00 -0.17837053303E+03  0.17837053310E+03  0.50400000000E-02 0.  1.
    8880023    1    1    2    0    0  0.23931127778E+03  0.16402356227E+03  0.10530900142E+04  0.12755322030E+04  0.65864270000E+03 0.  0.
    8880022    1    1    2    0    0 -0.23931127778E+03 -0.16402356227E+03  0.33332028904E+03  0.46761916637E+03  0.15294330000E+03 0. -1.
<mgrwt>
<rscale>  0 0.59132683E+03</rscale>
<asrwt>0</asrwt>
<pdfrwt beam="1">  1        1 0.24073551E+00 0.71971093E+03</pdfrwt>
<pdfrwt beam="2">  1       -1 0.27441621E-01 0.71971093E+03</pdfrwt>
<totfact> 0.72376931E+01</totfact>
</mgrwt>
</event>
<event>
 4    1  0.4055965E-007  0.7488557E+03  0.7818608E-02  0.9834864E-01
         -1   -1    0    0    0  501 -0.00000000000E+00  0.00000000000E+00  0.92324313634E+03  0.92324313635E+03  0.50400000000E-02 0.  1.
          1   -1    0    0  501    0  0.00000000000E+00 -0.00000000000E+00 -0.87971360674E+03  0.87971360675E+03  0.50400000000E-02 0. -1.
    8880023    1    1    2    0    0  0.33560770132E+03  0.11975835777E+03 -0.66094175491E+03  0.99881369789E+03  0.65864270000E+03 0.  0.
    8880022    1    1    2    0    0 -0.33560770132E+03 -0.11975835777E+03  0.70447128451E+03  0.80414304521E+03  0.15294330000E+03 0.  0.
<mgrwt>
<rscale>  0 0.63524665E+03</rscale>
<asrwt>0</asrwt>
<pdfrwt beam="1">  1        1 0.13534055E+00 0.74885566E+03</pdfrwt>
<pdfrwt beam="2">  1       -1 0.14203741E+00 0.74885566E+03</pdfrwt>
<totfact> 0.78851256E+00</totfact>
</mgrwt>
</event>
<event>
 4    1  0.4055965E-007  0.7828668E+03  0.7818608E-02  0.9749145E-01
          1   -1    0    0  501    0  0.00000000000E+00  0.00000000000E+00  0.64219134700E+03  0.64219134702E+03  0.50400000000E-02 0. -1.
         -1   -1    0    0    0  501 -0.00000000000E+00 -0.00000000000E+00 -0.60042359080E+03  0.60042359082E+03  0.50400000000E-02 0.  1.
    8880023    1    1    2    0    0 -0.35813072795E+03  0.22541654486E+03 -0.45840734093E+02  0.78420776339E+03  0.65864270000E+03 0.  0.
    8880022    1    1    2    0    0  0.35813072795E+03 -0.22541654486E+03  0.87608490296E+02  0.45840717445E+03  0.15294330000E+03 0.  1.
<mgrwt>
<rscale>  0 0.68164589E+03</rscale>
<asrwt>0</asrwt>
<pdfrwt beam="1">  1        1 0.98798669E-01 0.78286681E+03</pdfrwt>
<pdfrwt beam="2">  1       -1 0.92372860E-01 0.78286681E+03</pdfrwt>
<totfact> 0.36077014E+01</totfact>
</mgrwt>
</event>
<event>
 4    1  0.4055965E-007  0.7582815E+03  0.7818608E-02  0.9809577E-01
         -1   -1    0    0    0  501 -0.00000000000E+00  0.00000000000E+00  0.17697839467E+04  0.17697839467E+04  0.50400000000E-02 0.  1.
          1   -1    0    0  501    0  0.00000000000E+00 -0.00000000000E+00 -0.59600281462E+03  0.59600281464E+03  0.50400000000E-02 0. -1.
    8880023    1    1    2    0    0  0.17196329847E+03  0.33407973307E+03 -0.31619923370E+03  0.82156728618E+03  0.65864270000E+03 0. -1.
    8880022    1    1    2    0    0 -0.17196329847E+03 -0.33407973307E+03  0.14899803658E+04  0.15442194751E+04  0.15294330000E+03 0.  0.
<mgrwt>
<rscale>  0 0.64851114E+03</rscale>
<asrwt>0</asrwt>
<pdfrwt beam="1">  1        1 0.91692741E-01 0.75828151E+03</pdfrwt>
<pdfrwt beam="2">  1       -1 0.27227445E+00 0.75828151E+03</pdfrwt>
<totfact> 0.18091051E+00</totfact>
</mgrwt>
</event>
<event>
 4    1  0.4055965E-007  0.6935993E+03  0.7818608E-02  0.1002487E+00
         -1   -1    0    0    0  501 -0.00000000000E+00  0.00000000000E+00  0.24041150108E+03  0.24041150113E+03  0.50400000000E-02 0.  1.
          1   -1    0    0  501    0  0.00000000000E+00 -0.00000000000E+00 -0.41629038408E+04  0.41629038408E+04  0.50400000000E-02 0. -1.
    8880023    1    1    2    0    0  0.83091796349E+00 -0.21741463704E+03 -0.40496688567E+04  0.41086369845E+04  0.65864270000E+03 0. -1.
    8880022    1    1    2    0    0 -0.83091796349E+00  0.21741463704E+03  0.12717651705E+03  0.29467835741E+03  0.15294330000E+03 0.  0.
<mgrwt>
<rscale>  0 0.54573188E+03</rscale>
<asrwt>0</asrwt>
<pdfrwt beam="1">  1        1 0.64044669E+00 0.69359932E+03</pdfrwt>
<pdfrwt beam="2">  1       -1 0.36986388E-01 0.69359932E+03</pdfrwt>
<totfact> 0.54442894E-01</totfact>
</mgrwt>
</event>
<event>
 4    1  0.4055965E-007  0.6684084E+03  0.7818608E-02  0.1016830E+00
          1   -1    0    0  501    0  0.00000000000E+00  0.00000000000E+00  0.36319541761E+04  0.36319541761E+04  0.50400000000E-02 0. -1.
         -1   -1    0    0    0  501 -0.00000000000E+00 -0.00000000000E+00 -0.50844609036E+02  0.50844609286E+02  0.50400000000E-02 0.  1.
    8880023    1    1    2    0    0 -0.45788552033E+02  0.10422579177E+03  0.28312732779E+04  0.29091026430E+04  0.65864270000E+03 0. -1.
    8880022    1    1    2    0    0  0.45788552033E+02 -0.10422579177E+03  0.74983628919E+03  0.77369614240E+03  0.15294330000E+03 0.  1.
<mgrwt>
<rscale>  0 0.48847953E+03</rscale>
<asrwt>0</asrwt>
<pdfrwt beam="1">  1        1 0.55876242E+00 0.66840842E+03</pdfrwt>
<pdfrwt beam="2">  1       -1 0.78222442E-02 0.66840842E+03</pdfrwt>
<totfact> 0.19934178E+01</totfact>
</mgrwt>
</event>
<event>
 4    1  0.4055965E-007  0.7545356E+03  0.7818608E-02  0.9819465E-01
         -1   -1    0    0    0  501 -0.00000000000E+00  0.00000000000E+00  0.49144512886E+03  0.49144512889E+03  0.50400000000E-02 0.  1.
          1   -1    0    0  501    0  0.00000000000E+00 -0.00000000000E+00 -0.24627672269E+04  0.24627672269E+04  0.50400000000E-02 0. -1.
    8880023    1    1    2    0    0  0.91195885340E+02 -0.35664693206E+03  0.17220248857E+03  0.77393644893E+03  0.65864270000E+03 0.  1.
    8880022    1    1    2    0    0 -0.91195885340E+02  0.35664693206E+03 -0.21435245866E+04  0.21802759069E+04  0.15294330000E+03 0.  0.
<mgrwt>
<rscale>  0 0.64328306E+03</rscale>
<asrwt>0</asrwt>
<pdfrwt beam="1">  1        1 0.37888726E+00 0.75453557E+03</pdfrwt>
<pdfrwt beam="2">  1       -1 0.75606944E-01 0.75453557E+03</pdfrwt>
<totfact> 0.26811117E+00</totfact>
</mgrwt>
</event>
<event>
 4    1  0.4055965E-007  0.8588670E+03  0.7818608E-02  0.9595582E-01
          1   -1    0    0  501    0  0.00000000000E+00  0.00000000000E+00  0.45824906197E+03  0.45824906200E+03  0.50400000000E-02 0. -1.
         -1   -1    0    0    0  501 -0.00000000000E+00 -0.00000000000E+00 -0.12524542545E+04  0.12524542545E+04  0.50400000000E-02 0.  1.
    8880023    1    1    2    0    0  0.53511935551E+03  0.13224806410E+03 -0.74427488340E+03  0.11364847484E+04  0.65864270000E+03 0.  0.
    8880022    1    1    2    0    0 -0.53511935551E+03 -0.13224806410E+03 -0.49930309088E+02  0.57421856804E+03  0.15294330000E+03 0.  0.
<mgrwt>
<rscale>  0 0.77589279E+03</rscale>
<asrwt>0</asrwt>
<pdfrwt beam="1">  1        1 0.70499856E-01 0.85886698E+03</pdfrwt>
<pdfrwt beam="2">  1       -1 0.19268527E+00 0.85886698E+03</pdfrwt>
<totfact> 0.86115636E+00</totfact>
</mgrwt>
</event>
<event>
 4    1  0.4055965E-007  0.8716204E+03  0.7818608E-02  0.9573218E-01
          1   -1    0    0  501    0  0.00000000000E+00  0.00000000000E+00  0.22785947087E+04  0.22785947088E+04  0.50400000000E-02 0. -1.
         -1   -1    0    0    0  501 -0.00000000000E+00 -0.00000000000E+00 -0.67166008127E+03  0.67166008129E+03  0.50400000000E-02 0.  1.
    8880023    1    1    2    0    0  0.56947405993E+03  0.40138865415E+02  0.20394369737E+04  0.22178875557E+04  0.65864270000E+03 0.  0.
    8880022    1    1    2    0    0 -0.56947405993E+03 -0.40138865415E+02 -0.43250234627E+03  0.73236723438E+03  0.15294330000E+03 0.  0.
<mgrwt>
<rscale>  0 0.79094428E+03</rscale>
<asrwt>0</asrwt>
<pdfrwt beam="1">  1        1 0.35055304E+00 0.87162035E+03</pdfrwt>
<pdfrwt beam="2">  1       -1 0.10333232E+00 0.87162035E+03</pdfrwt>
<totfact> 0.17626921E+00</totfact>
</mgrwt>
</event>
<event>
 4    1  0.4055965E-007  0.6625064E+03  0.7818608E-02  0.1021724E+00
         -1   -1    0    0    0  501 -0.00000000000E+00  0.00000000000E+00  0.12188999463E+04  0.12188999463E+04  0.50400000000E-02 0.  1.
          1   -1    0    0  501    0  0.00000000000E+00 -0.00000000000E+00 -0.33280587394E+03  0.33280587398E+03  0.50400000000E-02 0. -1.
    8880023    1    1    2    0    0  0.30383051447E+02  0.64663701105E+02  0.13199093762E+02  0.66263786973E+03  0.65864270000E+03 0. -1.
    8880022    1    1    2    0    0 -0.30383051447E+02 -0.64663701105E+02  0.87289497862E+03  0.88906795059E+03  0.15294330000E+03 0.  0.
<mgrwt>
<rscale>  0 0.47069641E+03</rscale>
<asrwt>0</asrwt>
<pdfrwt beam="1">  1        1 0.51200904E-01 0.66250640E+03</pdfrwt>
<pdfrwt beam="2">  1       -1 0.18752307E+00 0.66250640E+03</pdfrwt>
<totfact> 0.14626708E+01</totfact>
</mgrwt>
</event>
<event>
 4    1  0.4055965E-007  0.6779494E+03  0.7818608E-02  0.1010508E+00
          1   -1    0    0  501    0  0.00000000000E+00  0.00000000000E+00  0.73702419628E+03  0.73702419630E+03  0.50400000000E-02 0. -1.
         -1   -1    0    0    0  501 -0.00000000000E+00 -0.00000000000E+00 -0.60033120673E+03  0.60033120675E+03  0.50400000000E-02 0.  1.
    8880023    1    1    2    0    0 -0.90820150107E+02  0.13250239211E+03  0.54688656820E+03  0.87103404544E+03  0.65864270000E+03 0. -1.
    8880022    1    1    2    0    0  0.90820150107E+02 -0.13250239211E+03 -0.41019357864E+03  0.46632135760E+03  0.15294330000E+03 0.  0.
<mgrwt>
<rscale>  0 0.51273163E+03</rscale>
<asrwt>0</asrwt>
<pdfrwt beam="1">  1        1 0.11338834E+00 0.67794940E+03</pdfrwt>
<pdfrwt beam="2">  1       -1 0.92358647E-01 0.67794940E+03</pdfrwt>
<totfact> 0.29662215E+01</totfact>
</mgrwt>
</event>
<event>
 4    1  0.4055965E-007  0.6759636E+03  0.7818608E-02  0.1011706E+00
         -1   -1    0    0    0  501 -0.00000000000E+00  0.00000000000E+00  0.36561499395E+03  0.36561499399E+03  0.50400000000E-02 0.  1.
          1   -1    0    0  501    0  0.00000000000E+00 -0.00000000000E+00 -0.14426644814E+04  0.14426644814E+04  0.50400000000E-02 0. -1.
    8880023    1    1    2    0    0 -0.14211592146E+03  0.54033671943E+02 -0.13202490852E+04  0.14832344474E+04  0.65864270000E+03 0. -1.
    8880022    1    1    2    0    0  0.14211592146E+03 -0.54033671943E+02  0.24319959776E+03  0.32504502796E+03  0.15294330000E+03 0.  0.
<mgrwt>
<rscale>  0 0.50802338E+03</rscale>
<asrwt>0</asrwt>
<pdfrwt beam="1">  1        1 0.22194838E+00 0.67596359E+03</pdfrwt>
<pdfrwt beam="2">  1       -1 0.56248461E-01 0.67596359E+03</pdfrwt>
<totfact> 0.23924651E+01</totfact>
</mgrwt>
</event>
<event>
 4    1  0.4055965E-007  0.8859264E+03  0.7818608E-02  0.9549013E-01
          1   -1    0    0  501    0  0.00000000000E+00  0.00000000000E+00  0.10862875215E+04  0.10862875215E+04  0.50400000000E-02 0. -1.
         -1   -1    0    0    0  501 -0.00000000000E+00 -0.00000000000E+00 -0.64090157972E+03  0.64090157974E+03  0.50400000000E-02 0.  1.
    8880023    1    1    2    0    0  0.42479092835E+03 -0.41304727278E+03  0.63107611214E+03  0.10877144147E+04  0.65864270000E+03 0.  0.
    8880022    1    1    2    0    0 -0.42479092835E+03  0.41304727278E+03 -0.18569017037E+03  0.63947468655E+03  0.15294330000E+03 0.  0.
<mgrwt>
<rscale>  0 0.80764783E+03</rscale>
<asrwt>0</asrwt>
<pdfrwt beam="1">  1        1 0.16712116E+00 0.88592640E+03</pdfrwt>
<pdfrwt beam="2">  1       -1 0.98600242E-01 0.88592640E+03</pdfrwt>
<totfact> 0.12973548E+01</totfact>
</mgrwt>
</event>
<event>
 4    1  0.4055965E-007  0.6601152E+03  0.7818608E-02  0.1024039E+00
          1   -1    0    0  501    0  0.00000000000E+00  0.00000000000E+00  0.40174764628E+03  0.40174764631E+03  0.50400000000E-02 0. -1.
         -1   -1    0    0    0  501 -0.00000000000E+00 -0.00000000000E+00 -0.58182017221E+03  0.58182017224E+03  0.50400000000E-02 0.  1.
    8880023    1    1    2    0    0 -0.36766720217E+02 -0.24290730603E+02  0.93856990984E+02  0.66675420683E+03  0.65864270000E+03 0. -1.
    8880022    1    1    2    0    0  0.36766720217E+02  0.24290730603E+02 -0.27392951692E+03  0.31681361171E+03  0.15294330000E+03 0.  0.
<mgrwt>
<rscale>  0 0.46256913E+03</rscale>
<asrwt>0</asrwt>
<pdfrwt beam="1">  1        1 0.61807330E-01 0.66011517E+03</pdfrwt>
<pdfrwt beam="2">  1       -1 0.89510796E-01 0.66011517E+03</pdfrwt>
<totfact> 0.74806895E+01</totfact>
</mgrwt>
</event>
<event>
 4    1  0.4055965E-007  0.8754968E+03  0.7818608E-02  0.9566571E-01
         -1   -1    0    0    0  501 -0.00000000000E+00  0.00000000000E+00  0.42590713692E+03  0.42590713695E+03  0.50400000000E-02 0.  1.
          1   -1    0    0  501    0  0.00000000000E+00 -0.00000000000E+00 -0.19734835008E+04  0.19734835008E+04  0.50400000000E-02 0. -1.
    8880023    1    1    2    0    0 -0.54482514860E+03  0.18934083844E+03 -0.16142455967E+03  0.89025417178E+03  0.65864270000E+03 0.  1.
    8880022    1    1    2    0    0  0.54482514860E+03 -0.18934083844E+03 -0.13861518042E+04  0.15091364660E+04  0.15294330000E+03 0. -1.
<mgrwt>
<rscale>  0 0.79548823E+03</rscale>
<asrwt>0</asrwt>
<pdfrwt beam="1">  1        1 0.30361284E+00 0.87549677E+03</pdfrwt>
<pdfrwt beam="2">  1       -1 0.65524176E-01 0.87549677E+03</pdfrwt>
<totfact> 0.75346053E+00</totfact>
</mgrwt>
</event>
<event>
 4    1  0.4055965E-007  0.7884893E+03  0.7818608E-02  0.9736261E-01
          1   -1    0    0  501    0  0.00000000000E+00  0.00000000000E+00  0.77163757683E+03  0.77163757685E+03  0.50400000000E-02 0. -1.
         -1   -1    0    0    0  501 -0.00000000000E+00 -0.00000000000E+00 -0.18182256508E+04  0.18182256508E+04  0.50400000000E-02 0.  1.
    8880023    1    1    2    0    0 -0.37144948752E+03  0.22345106272E+03  0.52839864043E+03  0.94916828259E+03  0.65864270000E+03 0. -1.
    8880022    1    1    2    0    0  0.37144948752E+03 -0.22345106272E+03 -0.15749867143E+04  0.16406949450E+04  0.15294330000E+03 0.  0.
<mgrwt>
<rscale>  0 0.68898289E+03</rscale>
<asrwt>0</asrwt>
<pdfrwt beam="1">  1        1 0.11871347E+00 0.78848926E+03</pdfrwt>
<pdfrwt beam="2">  1       -1 0.27972702E+00 0.78848926E+03</pdfrwt>
<totfact> 0.10948487E+00</totfact>
</mgrwt>
</event>
<event>
 4    1  0.4055965E-007  0.6617738E+03  0.7818608E-02  0.1022409E+00
         -1   -1    0    0    0  501 -0.00000000000E+00  0.00000000000E+00  0.46995356461E+03  0.46995356464E+03  0.50400000000E-02 0.  1.
          1   -1    0    0  501    0  0.00000000000E+00 -0.00000000000E+00 -0.37160279496E+03  0.37160279499E+03  0.50400000000E-02 0. -1.
    8880023    1    1    2    0    0  0.24545971225E+01  0.64251611744E+02  0.31005863013E+02  0.66249970903E+03  0.65864270000E+03 0. -1.
    8880022    1    1    2    0    0 -0.24545971225E+01 -0.64251611744E+02  0.67344906639E+02  0.17905665060E+03  0.15294330000E+03 0.  0.
<mgrwt>
<rscale>  0 0.46827389E+03</rscale>
<asrwt>0</asrwt>
<pdfrwt beam="1">  1        1 0.57169661E-01 0.66177375E+03</pdfrwt>
<pdfrwt beam="2">  1       -1 0.72300548E-01 0.66177375E+03</pdfrwt>
<totfact> 0.13040506E+02</totfact>
</mgrwt>
</event>
<event>
 4    1  0.4055965E-007  0.8029690E+03  0.7818608E-02  0.9704413E-01
         -1   -1    0    0    0  501 -0.00000000000E+00  0.00000000000E+00  0.13921574614E+03  0.13921574623E+03  0.50400000000E-02 0.  1.
          1   -1    0    0  501    0  0.00000000000E+00 -0.00000000000E+00 -0.32254764362E+04  0.32254764362E+04  0.50400000000E-02 0. -1.
    8880023    1    1    2    0    0 -0.45778066106E+03  0.37228134926E+02 -0.23513353388E+04  0.24846603691E+04  0.65864270000E+03 0. -1.
    8880022    1    1    2    0    0  0.45778066106E+03 -0.37228134926E+02 -0.73492535128E+03  0.88003181342E+03  0.15294330000E+03 0.  0.
<mgrwt>
<rscale>  0 0.70754663E+03</rscale>
<asrwt>0</asrwt>
<pdfrwt beam="1">  1        1 0.49622709E+00 0.80296904E+03</pdfrwt>
<pdfrwt beam="2">  1       -1 0.21417810E-01 0.80296904E+03</pdfrwt>
<totfact> 0.78509440E+00</totfact>
</mgrwt>
</event>
<event>
 4    1  0.4055965E-007  0.7784123E+03  0.7818608E-02  0.9759580E-01
          1   -1    0    0  501    0  0.00000000000E+00  0.00000000000E+00  0.15563594228E+04  0.15563594228E+04  0.50400000000E-02 0. -1.
         -1   -1    0    0    0  501 -0.00000000000E+00 -0.00000000000E+00 -0.29656841368E+03  0.29656841372E+03  0.50400000000E-02 0.  1.
    8880023    1    1    2    0    0  0.21727634473E+03  0.35342118335E+03  0.11643471477E+04  0.14005820324E+04  0.65864270000E+03 0.  0.
    8880022    1    1    2    0    0 -0.21727634473E+03 -0.35342118335E+03  0.95443861405E+02  0.45234580413E+03  0.15294330000E+03 0.  0.
<mgrwt>
<rscale>  0 0.67577578E+03</rscale>
<asrwt>0</asrwt>
<pdfrwt beam="1">  1        1 0.23943991E+00 0.77841233E+03</pdfrwt>
<pdfrwt beam="2">  1       -1 0.45625910E-01 0.77841233E+03</pdfrwt>
<totfact> 0.29368655E+01</totfact>
</mgrwt>
</event>
<event>
 4    1  0.4055965E-007  0.7863541E+03  0.7818608E-02  0.9741117E-01
         -1   -1    0    0    0  501 -0.00000000000E+00  0.00000000000E+00  0.25039445909E+03  0.25039445914E+03  0.50400000000E-02 0.  1.
          1   -1    0    0  501    0  0.00000000000E+00 -0.00000000000E+00 -0.35821483543E+04  0.35821483543E+04  0.50400000000E-02 0. -1.
    8880023    1    1    2    0    0  0.28534232184E+03 -0.32112660956E+03 -0.32807821319E+04  0.33737048097E+04  0.65864270000E+03 0. -1.
    8880022    1    1    2    0    0 -0.28534232184E+03  0.32112660956E+03 -0.50971763339E+02  0.45883800374E+03  0.15294330000E+03 0.  0.
<mgrwt>
<rscale>  0 0.68620574E+03</rscale>
<asrwt>0</asrwt>
<pdfrwt beam="1">  1        1 0.55109971E+00 0.78635408E+03</pdfrwt>
<pdfrwt beam="2">  1       -1 0.38522227E-01 0.78635408E+03</pdfrwt>
<totfact> 0.15176582E+00</totfact>
</mgrwt>
</event>
<event>
 4    1  0.4055965E-007  0.1414109E+04  0.7818608E-02  0.8972797E-01
         -1   -1    0    0    0  501 -0.00000000000E+00  0.00000000000E+00  0.14478049380E+04  0.14478049380E+04  0.50400000000E-02 0.  1.
          1   -1    0    0  501    0  0.00000000000E+00 -0.00000000000E+00 -0.14061227707E+04  0.14061227707E+04  0.50400000000E-02 0. -1.
    8880023    1    1    2    0    0  0.30421597427E+03  0.12138144087E+04 -0.47461801537E+03  0.14916317389E+04  0.65864270000E+03 0.  0.
    8880022    1    1    2    0    0 -0.30421597427E+03 -0.12138144087E+04  0.51630018263E+03  0.13622959698E+04  0.15294330000E+03 0.  0.
<mgrwt>
<rscale>  0 0.13740808E+04</rscale>
<asrwt>0</asrwt>
<pdfrwt beam="1">  1        1 0.21632658E+00 0.14141085E+04</pdfrwt>
<pdfrwt beam="2">  1       -1 0.22273922E+00 0.14141085E+04</pdfrwt>
<totfact> 0.76718654E-01</totfact>
</mgrwt>
</event>
<event>
 4    1  0.4055965E-007  0.6762185E+03  0.7818608E-02  0.1011549E+00
         -1   -1    0    0    0  501 -0.00000000000E+00  0.00000000000E+00  0.18286267636E+03  0.18286267643E+03  0.50400000000E-02 0.  1.
          1   -1    0    0  501    0  0.00000000000E+00 -0.00000000000E+00 -0.14642722818E+04  0.14642722818E+04  0.50400000000E-02 0. -1.
    8880023    1    1    2    0    0  0.15052650575E+03 -0.28337768463E+02 -0.12595309153E+04  0.14295767174E+04  0.65864270000E+03 0. -1.
    8880022    1    1    2    0    0 -0.15052650575E+03  0.28337768463E+02 -0.21878690118E+02  0.21755824082E+03  0.15294330000E+03 0.  0.
<mgrwt>
<rscale>  0 0.50863631E+03</rscale>
<asrwt>0</asrwt>
<pdfrwt beam="1">  1        1 0.22527265E+00 0.67621850E+03</pdfrwt>
<pdfrwt beam="2">  1       -1 0.28132720E-01 0.67621850E+03</pdfrwt>
<totfact> 0.81576896E+01</totfact>
</mgrwt>
</event>
<event>
 4    1  0.4055965E-007  0.6676260E+03  0.7818608E-02  0.1017425E+00
          1   -1    0    0  501    0  0.00000000000E+00  0.00000000000E+00  0.89026838193E+03  0.89026838194E+03  0.50400000000E-02 0. -1.
         -1   -1    0    0    0  501 -0.00000000000E+00 -0.00000000000E+00 -0.61575861594E+03  0.61575861596E+03  0.50400000000E-02 0.  1.
    8880023    1    1    2    0    0 -0.99140646250E+02  0.45665898357E+02  0.74441982386E+03  0.99994265957E+03  0.65864270000E+03 0. -1.
    8880022    1    1    2    0    0  0.99140646250E+02 -0.45665898357E+02 -0.46991005787E+03  0.50608433834E+03  0.15294330000E+03 0.  0.
<mgrwt>
<rscale>  0 0.48627375E+03</rscale>
<asrwt>0</asrwt>
<pdfrwt beam="1">  1        1 0.13696437E+00 0.66762598E+03</pdfrwt>
<pdfrwt beam="2">  1       -1 0.94732095E-01 0.66762598E+03</pdfrwt>
<totfact> 0.20745975E+01</totfact>
</mgrwt>
</event>
<event>
 4    1  0.4055965E-007  0.1000905E+04  0.7818608E-02  0.9380374E-01
         -1   -1    0    0    0  501 -0.00000000000E+00  0.00000000000E+00  0.91636484945E+03  0.91636484947E+03  0.50400000000E-02 0.  1.
          1   -1    0    0  501    0  0.00000000000E+00 -0.00000000000E+00 -0.11951299750E+04  0.11951299750E+04  0.50400000000E-02 0. -1.
    8880023    1    1    2    0    0 -0.63767590439E+03 -0.40170965113E+03 -0.71248810659E+03  0.12285970499E+04  0.65864270000E+03 0.  0.
    8880022    1    1    2    0    0  0.63767590439E+03  0.40170965113E+03  0.43372298109E+03  0.88289777448E+03  0.15294330000E+03 0.  0.
<mgrwt>
<rscale>  0 0.93708557E+03</rscale>
<asrwt>0</asrwt>
<pdfrwt beam="1">  1        1 0.18386615E+00 0.10009053E+04</pdfrwt>
<pdfrwt beam="2">  1       -1 0.14097921E+00 0.10009053E+04</pdfrwt>
<totfact> 0.44482936E+00</totfact>
</mgrwt>
</event>
<event>
 4    1  0.4055965E-007  0.7928800E+03  0.7818608E-02  0.9726408E-01
          1   -1    0    0  501    0  0.00000000000E+00  0.00000000000E+00  0.11822944103E+04  0.11822944103E+04  0.50400000000E-02 0. -1.
         -1   -1    0    0    0  501 -0.00000000000E+00 -0.00000000000E+00 -0.38179839047E+03  0.38179839051E+03  0.50400000000E-02 0.  1.
    8880023    1    1    2    0    0  0.12416059782E+03  0.42359491040E+03  0.75479183930E+03  0.10947006116E+04  0.65864270000E+03 0.  0.
    8880022    1    1    2    0    0 -0.12416059782E+03 -0.42359491040E+03  0.45704180562E+02  0.46939218922E+03  0.15294330000E+03 0.  0.
<mgrwt>
<rscale>  0 0.69466023E+03</rscale>
<asrwt>0</asrwt>
<pdfrwt beam="1">  1        1 0.18189145E+00 0.79288001E+03</pdfrwt>
<pdfrwt beam="2">  1       -1 0.58738214E-01 0.79288001E+03</pdfrwt>
<totfact> 0.33094736E+01</totfact>
</mgrwt>
</event>
<event>
 4    1  0.4055965E-007  0.7007884E+03  0.7818608E-02  0.9993946E-01
         -1   -1    0    0    0  501 -0.00000000000E+00  0.00000000000E+00  0.28435952625E+03  0.28435952629E+03  0.50400000000E-02 0.  1.
          1   -1    0    0  501    0  0.00000000000E+00 -0.00000000000E+00 -0.11204728868E+04  0.11204728868E+04  0.50400000000E-02 0. -1.
    8880023    1    1    2    0    0 -0.23881373928E+03  0.16191129507E+02 -0.87180383978E+03  0.11185465105E+04  0.65864270000E+03 0. -1.
    8880022    1    1    2    0    0  0.23881373928E+03 -0.16191129507E+02  0.35690479207E+02  0.28628590267E+03  0.15294330000E+03 0.  0.
<mgrwt>
<rscale>  0 0.55916479E+03</rscale>
<asrwt>0</asrwt>
<pdfrwt beam="1">  1        1 0.17238044E+00 0.70078839E+03</pdfrwt>
<pdfrwt beam="2">  1       -1 0.43747620E-01 0.70078839E+03</pdfrwt>
<totfact> 0.64942181E+01</totfact>
</mgrwt>
</event>
<event>
 4    1  0.4055965E-007  0.8540312E+03  0.7818608E-02  0.9604270E-01
         -1   -1    0    0    0  501 -0.00000000000E+00  0.00000000000E+00  0.73655315350E+03  0.73655315352E+03  0.50400000000E-02 0.  1.
          1   -1    0    0  501    0  0.00000000000E+00 -0.00000000000E+00 -0.10400191602E+04  0.10400191602E+04  0.50400000000E-02 0. -1.
    8880023    1    1    2    0    0  0.96842023414E+02  0.53495867903E+03  0.34106606183E+03  0.91961700211E+03  0.65864270000E+03 0.  0.
    8880022    1    1    2    0    0 -0.96842023414E+02 -0.53495867903E+03 -0.64453206855E+03  0.85695531166E+03  0.15294330000E+03 0.  0.
<mgrwt>
<rscale>  0 0.77014196E+03</rscale>
<asrwt>0</asrwt>
<pdfrwt beam="1">  1        1 0.16000295E+00 0.85403125E+03</pdfrwt>
<pdfrwt beam="2">  1       -1 0.11331587E+00 0.85403125E+03</pdfrwt>
<totfact> 0.10207208E+01</totfact>
</mgrwt>
</event>
<event>
 4    1  0.4055965E-007  0.7969398E+03  0.7818608E-02  0.9717452E-01
          1   -1    0    0  501    0  0.00000000000E+00  0.00000000000E+00  0.67550911920E+03  0.67550911922E+03  0.50400000000E-02 0. -1.
         -1   -1    0    0    0  501 -0.00000000000E+00 -0.00000000000E+00 -0.70129039583E+03  0.70129039585E+03  0.50400000000E-02 0.  1.
    8880023    1    1    2    0    0 -0.42098747478E+03 -0.15515291772E+03  0.24135925706E+03  0.83268684332E+03  0.65864270000E+03 0. -1.
    8880022    1    1    2    0    0  0.42098747478E+03  0.15515291772E+03 -0.26714053369E+03  0.54411267175E+03  0.15294330000E+03 0.  0.
<mgrwt>
<rscale>  0 0.69987134E+03</rscale>
<asrwt>0</asrwt>
<pdfrwt beam="1">  1        1 0.10392448E+00 0.79693983E+03</pdfrwt>
<pdfrwt beam="2">  1       -1 0.10789083E+00 0.79693983E+03</pdfrwt>
<totfact> 0.23451559E+01</totfact>
</mgrwt>
</event>
<event>
 4    1  0.4055965E-007  0.9929723E+03  0.7818608E-02  0.9390810E-01
         -1   -1    0    0    0  501 -0.00000000000E+00  0.00000000000E+00  0.33842238925E+03  0.33842238929E+03  0.50400000000E-02 0.  1.
          1   -1    0    0  501    0  0.00000000000E+00 -0.00000000000E+00 -0.27695845653E+04  0.27695845653E+04  0.50400000000E-02 0. -1.
    8880023    1    1    2    0    0 -0.73753992248E+03  0.90656512626E+02 -0.20060496609E+04  0.22383541249E+04  0.65864270000E+03 0.  0.
    8880022    1    1    2    0    0  0.73753992248E+03 -0.90656512626E+02 -0.42511251520E+03  0.86965282966E+03  0.15294330000E+03 0.  0.
<mgrwt>
<rscale>  0 0.92835829E+03</rscale>
<asrwt>0</asrwt>
<pdfrwt beam="1">  1        1 0.42608992E+00 0.99297228E+03</pdfrwt>
<pdfrwt beam="2">  1       -1 0.52064985E-01 0.99297228E+03</pdfrwt>
<totfact> 0.33334285E+00</totfact>
</mgrwt>
</event>
<event>
 4    1  0.4619704E-007  0.9945104E+03  0.7818608E-02  0.9388775E-01
          1   -1    0    0  501    0  0.00000000000E+00  0.00000000000E+00  0.18641928528E+04  0.18641928528E+04  0.50400000000E-02 0. -1.
         -1   -1    0    0    0  501 -0.00000000000E+00 -0.00000000000E+00 -0.10043778288E+04  0.10043778289E+04  0.50400000000E-02 0.  1.
    8880023    1    1    2    0    0  0.15170978522E+03 -0.72953745600E+03  0.15498865819E+04  0.18415209425E+04  0.65864270000E+03 0.  0.
    8880022    1    1    2    0    0 -0.15170978522E+03  0.72953745600E+03 -0.69007155794E+03  0.10270497392E+04  0.15294330000E+03 0.  0.
<mgrwt>
<rscale>  0 0.93005225E+03</rscale>
<asrwt>0</asrwt>
<pdfrwt beam="1">  1        1 0.28679890E+00 0.99451041E+03</pdfrwt>
<pdfrwt beam="2">  1       -1 0.15451967E+00 0.99451041E+03</pdfrwt>
<totfact> 0.11981024E+00</totfact>
</mgrwt>
</event>
<event>
 4    1  0.4055965E-007  0.7424118E+03  0.7818608E-02  0.9852977E-01
         -1   -1    0    0    0  501 -0.00000000000E+00  0.00000000000E+00  0.41164167683E+03  0.41164167687E+03  0.50400000000E-02 0.  1.
          1   -1    0    0  501    0  0.00000000000E+00 -0.00000000000E+00 -0.88036779720E+03  0.88036779721E+03  0.50400000000E-02 0. -1.
    8880023    1    1    2    0    0  0.34257331895E+03 -0.29374989341E+01 -0.52957046512E+03  0.91193212003E+03  0.65864270000E+03 0. -1.
    8880022    1    1    2    0    0 -0.34257331895E+03  0.29374989341E+01  0.60844344755E+02  0.38007735405E+03  0.15294330000E+03 0.  0.
<mgrwt>
<rscale>  0 0.62595385E+03</rscale>
<asrwt>0</asrwt>
<pdfrwt beam="1">  1        1 0.13544120E+00 0.74241182E+03</pdfrwt>
<pdfrwt beam="2">  1       -1 0.63329489E-01 0.74241182E+03</pdfrwt>
<totfact> 0.48922501E+01</totfact>
</mgrwt>
</event>
<event>
 4    1  0.4055965E-007  0.8422515E+03  0.7818608E-02  0.9625949E-01
         -1   -1    0    0    0  501 -0.00000000000E+00  0.00000000000E+00  0.48766440354E+03  0.48766440356E+03  0.50400000000E-02 0.  1.
          1   -1    0    0  501    0  0.00000000000E+00 -0.00000000000E+00 -0.16966237467E+04  0.16966237467E+04  0.50400000000E-02 0. -1.
    8880023    1    1    2    0    0 -0.20997729747E+03 -0.48113085970E+03 -0.13753473278E+04  0.16127516387E+04  0.65864270000E+03 0.  0.
    8880022    1    1    2    0    0  0.20997729747E+03  0.48113085970E+03  0.16638798468E+03  0.57153651158E+03  0.15294330000E+03 0.  0.
<mgrwt>
<rscale>  0 0.75602232E+03</rscale>
<asrwt>0</asrwt>
<pdfrwt beam="1">  1        1 0.26101904E+00 0.84225149E+03</pdfrwt>
<pdfrwt beam="2">  1       -1 0.75025293E-01 0.84225149E+03</pdfrwt>
<totfact> 0.87994713E+00</totfact>
</mgrwt>
</event>
<event>
 4    1  0.4055965E-007  0.8531613E+03  0.7818608E-02  0.9605846E-01
          1   -1    0    0  501    0  0.00000000000E+00  0.00000000000E+00  0.17950304502E+04  0.17950304502E+04  0.50400000000E-02 0. -1.
         -1   -1    0    0    0  501 -0.00000000000E+00 -0.00000000000E+00 -0.31454464556E+03  0.31454464560E+03  0.50400000000E-02 0.  1.
    8880023    1    1    2    0    0  0.53260523574E+03  0.10200831360E+03  0.12202894060E+04  0.14889561692E+04  0.65864270000E+03 0.  0.
    8880022    1    1    2    0    0 -0.53260523574E+03 -0.10200831360E+03  0.26019639866E+03  0.62061892661E+03  0.15294330000E+03 0.  0.
<mgrwt>
<rscale>  0 0.76910470E+03</rscale>
<asrwt>0</asrwt>
<pdfrwt beam="1">  1        1 0.27615853E+00 0.85316132E+03</pdfrwt>
<pdfrwt beam="2">  1       -1 0.48391484E-01 0.85316132E+03</pdfrwt>
<totfact> 0.17976451E+01</totfact>
</mgrwt>
</event>
<event>
 4    1  0.4055965E-007  0.6755778E+03  0.7818608E-02  0.1011945E+00
          1   -1    0    0  501    0  0.00000000000E+00  0.00000000000E+00  0.14361381987E+04  0.14361381987E+04  0.50400000000E-02 0. -1.
         -1   -1    0    0    0  501 -0.00000000000E+00 -0.00000000000E+00 -0.18380931678E+03  0.18380931685E+03  0.50400000000E-02 0.  1.
    8880023    1    1    2    0    0 -0.66208482003E+02 -0.13495013931E+03  0.12313188900E+04  0.14044755314E+04  0.65864270000E+03 0. -1.
    8880022    1    1    2    0    0  0.66208482003E+02  0.13495013931E+03  0.21009991936E+02  0.21547198417E+03  0.15294330000E+03 0.  0.
<mgrwt>
<rscale>  0 0.50709065E+03</rscale>
<asrwt>0</asrwt>
<pdfrwt beam="1">  1        1 0.22094434E+00 0.67557776E+03</pdfrwt>
<pdfrwt beam="2">  1       -1 0.28278357E-01 0.67557776E+03</pdfrwt>
<totfact> 0.84538957E+01</totfact>
</mgrwt>
</event>
<event>
 4    1  0.4055965E-007  0.8493268E+03  0.7818608E-02  0.9612838E-01
         -1   -1    0    0    0  501 -0.00000000000E+00  0.00000000000E+00  0.81261426146E+03  0.81261426148E+03  0.50400000000E-02 0.  1.
          1   -1    0    0  501    0  0.00000000000E+00 -0.00000000000E+00 -0.75250899911E+03  0.75250899913E+03  0.50400000000E-02 0. -1.
    8880023    1    1    2    0    0 -0.41005376448E+02  0.53466278654E+03 -0.30066565059E+03  0.90097490304E+03  0.65864270000E+03 0. -1.
    8880022    1    1    2    0    0  0.41005376448E+02 -0.53466278654E+03  0.36077091294E+03  0.66414835756E+03  0.15294330000E+03 0.  0.
<mgrwt>
<rscale>  0 0.76452242E+03</rscale>
<asrwt>0</asrwt>
<pdfrwt beam="1">  1        1 0.11577062E+00 0.84932676E+03</pdfrwt>
<pdfrwt beam="2">  1       -1 0.12501758E+00 0.84932676E+03</pdfrwt>
<totfact> 0.13866587E+01</totfact>
</mgrwt>
</event>
<event>
 4    1  0.4055965E-007  0.7376043E+03  0.7818608E-02  0.9866981E-01
          1   -1    0    0  501    0  0.00000000000E+00  0.00000000000E+00  0.34074779336E+04  0.34074779336E+04  0.50400000000E-02 0. -1.
         -1   -1    0    0    0  501 -0.00000000000E+00 -0.00000000000E+00 -0.18424207052E+03  0.18424207059E+03  0.50400000000E-02 0.  1.
    8880023    1    1    2    0    0  0.19261526991E+03 -0.27046128543E+03  0.31282198223E+04  0.32140036422E+04  0.65864270000E+03 0. -1.
    8880022    1    1    2    0    0 -0.19261526991E+03  0.27046128543E+03  0.95016040810E+02  0.37771636203E+03  0.15294330000E+03 0.  0.
<mgrwt>
<rscale>  0 0.61888550E+03</rscale>
<asrwt>0</asrwt>
<pdfrwt beam="1">  1        1 0.52422738E+00 0.73760434E+03</pdfrwt>
<pdfrwt beam="2">  1       -1 0.28344934E-01 0.73760434E+03</pdfrwt>
<totfact> 0.35979730E+00</totfact>
</mgrwt>
</event>
<event>
 4    1  0.4055965E-007  0.8219399E+03  0.7818608E-02  0.9665223E-01
         -1   -1    0    0    0  501 -0.00000000000E+00  0.00000000000E+00  0.54850156771E+03  0.54850156773E+03  0.50400000000E-02 0.  1.
          1   -1    0    0  501    0  0.00000000000E+00 -0.00000000000E+00 -0.26235543176E+04  0.26235543176E+04  0.50400000000E-02 0. -1.
    8880023    1    1    2    0    0 -0.33186738166E+03 -0.36282087558E+03 -0.24176555372E+04  0.25535550610E+04  0.65864270000E+03 0.  0.
    8880022    1    1    2    0    0  0.33186738166E+03  0.36282087558E+03  0.34260278733E+03  0.61850082431E+03  0.15294330000E+03 0.  0.
<mgrwt>
<rscale>  0 0.73125675E+03</rscale>
<asrwt>0</asrwt>
<pdfrwt beam="1">  1        1 0.40362374E+00 0.82193987E+03</pdfrwt>
<pdfrwt beam="2">  1       -1 0.84384858E-01 0.82193987E+03</pdfrwt>
<totfact> 0.16259876E+00</totfact>
</mgrwt>
</event>
<event>
 4    1  0.4055965E-007  0.7288696E+03  0.7818608E-02  0.9893643E-01
         -1   -1    0    0    0  501 -0.00000000000E+00  0.00000000000E+00  0.99699876270E+03  0.99699876271E+03  0.50400000000E-02 0.  1.
          1   -1    0    0  501    0  0.00000000000E+00 -0.00000000000E+00 -0.52365520509E+03  0.52365520511E+03  0.50400000000E-02 0. -1.
    8880023    1    1    2    0    0 -0.16135794245E+03  0.26721573647E+03 -0.20610390567E+03  0.75744944492E+03  0.65864270000E+03 0.  0.
    8880022    1    1    2    0    0  0.16135794245E+03 -0.26721573647E+03  0.67944746328E+03  0.76320452291E+03  0.15294330000E+03 0.  0.
<mgrwt>
<rscale>  0 0.60570371E+03</rscale>
<asrwt>0</asrwt>
<pdfrwt beam="1">  1        1 0.80562340E-01 0.72886956E+03</pdfrwt>
<pdfrwt beam="2">  1       -1 0.15338442E+00 0.72886956E+03</pdfrwt>
<totfact> 0.14069727E+01</totfact>
</mgrwt>
</event>
<event>
 4    1  0.4055965E-007  0.7516525E+03  0.7818608E-02  0.9827218E-01
         -1   -1    0    0    0  501 -0.00000000000E+00  0.00000000000E+00  0.15462042279E+04  0.15462042279E+04  0.50400000000E-02 0.  1.
          1   -1    0    0  501    0  0.00000000000E+00 -0.00000000000E+00 -0.64295229634E+03  0.64295229636E+03  0.50400000000E-02 0. -1.
    8880023    1    1    2    0    0  0.35953068185E+03  0.43690990453E+02 -0.38339534597E+03  0.84378516899E+03  0.65864270000E+03 0. -1.
    8880022    1    1    2    0    0 -0.35953068185E+03 -0.43690990453E+02  0.12866472775E+04  0.13453713553E+04  0.15294330000E+03 0.  0.
<mgrwt>
<rscale>  0 0.63922089E+03</rscale>
<asrwt>0</asrwt>
<pdfrwt beam="1">  1        1 0.98915739E-01 0.75165246E+03</pdfrwt>
<pdfrwt beam="2">  1       -1 0.23787757E+00 0.75165246E+03</pdfrwt>
<totfact> 0.27018643E+00</totfact>
</mgrwt>
</event>
<event>
 4    1  0.4055965E-007  0.7107144E+03  0.7818608E-02  0.9955358E-01
         -1   -1    0    0    0  501 -0.00000000000E+00  0.00000000000E+00  0.26853357830E+03  0.26853357835E+03  0.50400000000E-02 0.  1.
          1   -1    0    0  501    0  0.00000000000E+00 -0.00000000000E+00 -0.18599759381E+04  0.18599759381E+04  0.50400000000E-02 0. -1.
    8880023    1    1    2    0    0  0.24623912987E+03  0.10330061951E+03 -0.16665330192E+04  0.18117525320E+04  0.65864270000E+03 0. -1.
    8880022    1    1    2    0    0 -0.24623912987E+03 -0.10330061951E+03  0.75090659344E+02  0.31675698446E+03  0.15294330000E+03 0.  0.
<mgrwt>
<rscale>  0 0.57651817E+03</rscale>
<asrwt>0</asrwt>
<pdfrwt beam="1">  1        1 0.28615014E+00 0.71071438E+03</pdfrwt>
<pdfrwt beam="2">  1       -1 0.41312859E-01 0.71071438E+03</pdfrwt>
<totfact> 0.22225677E+01</totfact>
</mgrwt>
</event>
<event>
 4    1  0.4055965E-007  0.9252223E+03  0.7818608E-02  0.9486698E-01
         -1   -1    0    0    0  501 -0.00000000000E+00  0.00000000000E+00  0.17629728637E+04  0.17629728637E+04  0.50400000000E-02 0.  1.
          1   -1    0    0  501    0  0.00000000000E+00 -0.00000000000E+00 -0.52020057618E+03  0.52020057621E+03  0.50400000000E-02 0. -1.
    8880023    1    1    2    0    0 -0.35367793363E+02  0.64882609149E+03  0.62661460958E+02  0.92734181549E+03  0.65864270000E+03 0.  0.
    8880022    1    1    2    0    0  0.35367793363E+02 -0.64882609149E+03  0.11801108266E+04  0.13558316244E+04  0.15294330000E+03 0.  0.
<mgrwt>
<rscale>  0 0.85271697E+03</rscale>
<asrwt>0</asrwt>
<pdfrwt beam="1">  1        1 0.80030859E-01 0.92522234E+03</pdfrwt>
<pdfrwt beam="2">  1       -1 0.27122659E+00 0.92522234E+03</pdfrwt>
<totfact> 0.21717068E+00</totfact>
</mgrwt>
</event>
<event>
 4    1  0.4055965E-007  0.8080548E+03  0.7818608E-02  0.9693643E-01
         -1   -1    0    0    0  501 -0.00000000000E+00  0.00000000000E+00  0.18245651800E+04  0.18245651800E+04  0.50400000000E-02 0.  1.
          1   -1    0    0  501    0  0.00000000000E+00 -0.00000000000E+00 -0.27631490833E+03  0.27631490837E+03  0.50400000000E-02 0. -1.
    8880023    1    1    2    0    0 -0.52210942279E+02 -0.46520567112E+03  0.52037230266E+03  0.96111385308E+03  0.65864270000E+03 0.  0.
    8880022    1    1    2    0    0  0.52210942279E+02  0.46520567112E+03  0.10278779690E+04  0.11397662353E+04  0.15294330000E+03 0.  0.
<mgrwt>
<rscale>  0 0.71396540E+03</rscale>
<asrwt>0</asrwt>
<pdfrwt beam="1">  1        1 0.42509986E-01 0.80805477E+03</pdfrwt>
<pdfrwt beam="2">  1       -1 0.28070233E+00 0.80805477E+03</pdfrwt>
<totfact> 0.44503676E+00</totfact>
</mgrwt>
</event>
<event>
 4    1  0.4055965E-007  0.8098021E+03  0.7818608E-02  0.9689989E-01
         -1   -1    0    0    0  501 -0.00000000000E+00  0.00000000000E+00  0.16044117341E+04  0.16044117341E+04  0.50400000000E-02 0.  1.
          1   -1    0    0  501    0  0.00000000000E+00 -0.00000000000E+00 -0.82570554906E+03  0.82570554907E+03  0.50400000000E-02 0. -1.
    8880023    1    1    2    0    0 -0.11980463211E+03 -0.45564908463E+03 -0.57200217284E+03  0.99144638292E+03  0.65864270000E+03 0.  0.
    8880022    1    1    2    0    0  0.11980463211E+03  0.45564908463E+03  0.13507083579E+04  0.14386709003E+04  0.15294330000E+03 0.  0.
<mgrwt>
<rscale>  0 0.71615964E+03</rscale>
<asrwt>0</asrwt>
<pdfrwt beam="1">  1        1 0.12703162E+00 0.80980210E+03</pdfrwt>
<pdfrwt beam="2">  1       -1 0.24683257E+00 0.80980210E+03</pdfrwt>
<totfact> 0.15925626E+00</totfact>
</mgrwt>
</event>
<event>
 4    1  0.4055965E-007  0.7531012E+03  0.7818608E-02  0.9823307E-01
          1   -1    0    0  501    0  0.00000000000E+00  0.00000000000E+00  0.37133450324E+03  0.37133450327E+03  0.50400000000E-02 0. -1.
         -1   -1    0    0    0  501 -0.00000000000E+00 -0.00000000000E+00 -0.10761513955E+04  0.10761513955E+04  0.50400000000E-02 0.  1.
    8880023    1    1    2    0    0  0.12455554826E+03 -0.34327413516E+03 -0.73254158416E+03  0.10506086785E+04  0.65864270000E+03 0.  0.
    8880022    1    1    2    0    0 -0.12455554826E+03  0.34327413516E+03  0.27724691873E+02  0.39687722034E+03  0.15294330000E+03 0.  1.
<mgrwt>
<rscale>  0 0.64126639E+03</rscale>
<asrwt>0</asrwt>
<pdfrwt beam="1">  1        1 0.57128386E-01 0.75310120E+03</pdfrwt>
<pdfrwt beam="2">  1       -1 0.16556175E+00 0.75310120E+03</pdfrwt>
<totfact> 0.18039174E+01</totfact>
</mgrwt>
</event>
<event>
 4    1  0.4055965E-007  0.9586855E+03  0.7818608E-02  0.9437726E-01
          1   -1    0    0  501    0  0.00000000000E+00  0.00000000000E+00  0.11896560302E+04  0.11896560302E+04  0.50400000000E-02 0. -1.
         -1   -1    0    0    0  501 -0.00000000000E+00 -0.00000000000E+00 -0.62821566081E+03  0.62821566083E+03  0.50400000000E-02 0.  1.
    8880023    1    1    2    0    0 -0.51874996880E+03 -0.46493678043E+03  0.89923629140E+02  0.96289366249E+03  0.65864270000E+03 0.  0.
    8880022    1    1    2    0    0  0.51874996880E+03  0.46493678043E+03  0.47151674024E+03  0.85497802853E+03  0.15294330000E+03 0.  0.
<mgrwt>
<rscale>  0 0.89034949E+03</rscale>
<asrwt>0</asrwt>
<pdfrwt beam="1">  1        1 0.18302400E+00 0.95868553E+03</pdfrwt>
<pdfrwt beam="2">  1       -1 0.96648565E-01 0.95868553E+03</pdfrwt>
<totfact> 0.11288188E+01</totfact>
</mgrwt>
</event>
<event>
 4    1  0.4055965E-007  0.8887631E+03  0.7818608E-02  0.9544317E-01
          1   -1    0    0  501    0  0.00000000000E+00  0.00000000000E+00  0.40240063413E+03  0.40240063416E+03  0.50400000000E-02 0. -1.
         -1   -1    0    0    0  501 -0.00000000000E+00 -0.00000000000E+00 -0.18860136405E+04  0.18860136405E+04  0.50400000000E-02 0.  1.
    8880023    1    1    2    0    0  0.59593092389E+03  0.30920121198E+02 -0.27243841394E+03  0.92958195744E+03  0.65864270000E+03 0.  0.
    8880022    1    1    2    0    0 -0.59593092389E+03 -0.30920121198E+02 -0.12111745924E+04  0.13588323172E+04  0.15294330000E+03 0.  0.
<mgrwt>
<rscale>  0 0.81093928E+03</rscale>
<asrwt>0</asrwt>
<pdfrwt beam="1">  1        1 0.61907791E-01 0.88876314E+03</pdfrwt>
<pdfrwt beam="2">  1       -1 0.29015594E+00 0.88876314E+03</pdfrwt>
<totfact> 0.23398755E+00</totfact>
</mgrwt>
</event>
<event>
 4    1  0.4055965E-007  0.9615520E+03  0.7818608E-02  0.9433684E-01
          1   -1    0    0  501    0  0.00000000000E+00  0.00000000000E+00  0.13425010140E+04  0.13425010140E+04  0.50400000000E-02 0. -1.
         -1   -1    0    0    0  501 -0.00000000000E+00 -0.00000000000E+00 -0.14371640943E+04  0.14371640943E+04  0.50400000000E-02 0.  1.
    8880023    1    1    2    0    0 -0.17649711137E+03  0.67795345362E+03  0.10532783103E+04  0.14261758380E+04  0.65864270000E+03 0. -1.
    8880022    1    1    2    0    0  0.17649711137E+03 -0.67795345362E+03 -0.11479413906E+04  0.13534892703E+04  0.15294330000E+03 0.  0.
<mgrwt>
<rscale>  0 0.89354675E+03</rscale>
<asrwt>0</asrwt>
<pdfrwt beam="1">  1        1 0.20653862E+00 0.96155204E+03</pdfrwt>
<pdfrwt beam="2">  1       -1 0.22110217E+00 0.96155204E+03</pdfrwt>
<totfact> 0.92500440E-01</totfact>
</mgrwt>
</event>
<event>
 4    1  0.4055965E-007  0.6944492E+03  0.7818608E-02  0.1002106E+00
         -1   -1    0    0    0  501 -0.00000000000E+00  0.00000000000E+00  0.20367805611E+04  0.20367805611E+04  0.50400000000E-02 0.  1.
          1   -1    0    0  501    0  0.00000000000E+00 -0.00000000000E+00 -0.17765713433E+03  0.17765713440E+03  0.50400000000E-02 0. -1.
    8880023    1    1    2    0    0  0.20861708624E+03  0.70202972307E+02  0.57196546626E+03  0.89966896515E+03  0.65864270000E+03 0.  0.
    8880022    1    1    2    0    0 -0.20861708624E+03 -0.70202972307E+02  0.12871579605E+04  0.13147687304E+04  0.15294330000E+03 0.  0.
<mgrwt>
<rscale>  0 0.54736507E+03</rscale>
<asrwt>0</asrwt>
<pdfrwt beam="1">  1        1 0.27331869E-01 0.69444924E+03</pdfrwt>
<pdfrwt beam="2">  1       -1 0.31335083E+00 0.69444924E+03</pdfrwt>
<totfact> 0.49575661E+00</totfact>
</mgrwt>
</event>
<event>
 4    1  0.4055965E-007  0.7184080E+03  0.7818608E-02  0.9928010E-01
         -1   -1    0    0    0  501 -0.00000000000E+00  0.00000000000E+00  0.28281737236E+03  0.28281737240E+03  0.50400000000E-02 0.  1.
          1   -1    0    0  501    0  0.00000000000E+00 -0.00000000000E+00 -0.96575139097E+03  0.96575139099E+03  0.50400000000E-02 0. -1.
    8880023    1    1    2    0    0 -0.21553244518E+03  0.18932932342E+03 -0.43648783526E+03  0.84061386155E+03  0.65864270000E+03 0. -1.
    8880022    1    1    2    0    0  0.21553244518E+03 -0.18932932342E+03 -0.24644618336E+03  0.40795490184E+03  0.15294330000E+03 0.  1.
<mgrwt>
<rscale>  0 0.58922798E+03</rscale>
<asrwt>0</asrwt>
<pdfrwt beam="1">  1        1 0.14857713E+00 0.71840799E+03</pdfrwt>
<pdfrwt beam="2">  1       -1 0.43510366E-01 0.71840799E+03</pdfrwt>
<totfact> 0.85894669E+01</totfact>
</mgrwt>
</event>
<event>
 4    1  0.4055965E-007  0.6645510E+03  0.7818608E-02  0.1019913E+00
         -1   -1    0    0    0  501 -0.00000000000E+00  0.00000000000E+00  0.96543362754E+03  0.96543362755E+03  0.50400000000E-02 0.  1.
          1   -1    0    0  501    0  0.00000000000E+00 -0.00000000000E+00 -0.20752016114E+03  0.20752016120E+03  0.50400000000E-02 0. -1.
    8880023    1    1    2    0    0 -0.36950284052E+02  0.80327875469E+02  0.40485178392E+03  0.77816005055E+03  0.65864270000E+03 0. -1.
    8880022    1    1    2    0    0  0.36950284052E+02 -0.80327875469E+02  0.35306168248E+03  0.39479373820E+03  0.15294330000E+03 0.  1.
<mgrwt>
<rscale>  0 0.47717995E+03</rscale>
<asrwt>0</asrwt>
<pdfrwt beam="1">  1        1 0.31926178E-01 0.66455105E+03</pdfrwt>
<pdfrwt beam="2">  1       -1 0.14852825E+00 0.66455105E+03</pdfrwt>
<totfact> 0.52123853E+01</totfact>
</mgrwt>
</event>
<event>
 4    1  0.4374462E-007  0.7159892E+03  0.7818608E-02  0.9936398E-01
         -1   -1    0    0    0  501 -0.00000000000E+00  0.00000000000E+00  0.10080778888E+04  0.10080778888E+04  0.50400000000E-02 0.  1.
          1   -1    0    0  501    0  0.00000000000E+00 -0.00000000000E+00 -0.98083149613E+03  0.98083149614E+03  0.50400000000E-02 0. -1.
    8880023    1    1    2    0    0  0.23396669487E+03 -0.15520944889E+03 -0.81688891599E+03  0.10862541575E+04  0.65864270000E+03 0. -1.
    8880022    1    1    2    0    0 -0.23396669487E+03  0.15520944889E+03  0.84413530868E+03  0.90265522749E+03  0.15294330000E+03 0.  0.
<mgrwt>
<rscale>  0 0.58529248E+03</rscale>
<asrwt>0</asrwt>
<pdfrwt beam="1">  1        1 0.15089715E+00 0.71598924E+03</pdfrwt>
<pdfrwt beam="2">  1       -1 0.15508891E+00 0.71598924E+03</pdfrwt>
<totfact> 0.51999928E+00</totfact>
</mgrwt>
</event>
<event>
 4    1  0.4055965E-007  0.6993144E+03  0.7818608E-02  0.1000006E+00
         -1   -1    0    0    0  501 -0.00000000000E+00  0.00000000000E+00  0.56438989311E+03  0.56438989313E+03  0.50400000000E-02 0.  1.
          1   -1    0    0  501    0  0.00000000000E+00 -0.00000000000E+00 -0.21952163585E+04  0.21952163585E+04  0.50400000000E-02 0. -1.
    8880023    1    1    2    0    0  0.77696979097E+02 -0.22179642936E+03 -0.20998074432E+04  0.22131949714E+04  0.65864270000E+03 0. -1.
    8880022    1    1    2    0    0 -0.77696979097E+02  0.22179642936E+03  0.46898097780E+03  0.54641128025E+03  0.15294330000E+03 0.  0.
<mgrwt>
<rscale>  0 0.55647732E+03</rscale>
<asrwt>0</asrwt>
<pdfrwt beam="1">  1        1 0.33772559E+00 0.69931444E+03</pdfrwt>
<pdfrwt beam="2">  1       -1 0.86829216E-01 0.69931444E+03</pdfrwt>
<totfact> 0.30598320E+00</totfact>
</mgrwt>
</event>
<event>
 4    1  0.4055965E-007  0.7264125E+03  0.7818608E-02  0.9901457E-01
          1   -1    0    0  501    0  0.00000000000E+00  0.00000000000E+00  0.13554862596E+04  0.13554862596E+04  0.50400000000E-02 0. -1.
         -1   -1    0    0    0  501 -0.00000000000E+00 -0.00000000000E+00 -0.23494959879E+03  0.23494959885E+03  0.50400000000E-02 0.  1.
    8880023    1    1    2    0    0 -0.38944983751E+02 -0.30388842700E+03  0.98099845684E+03  0.12206691060E+04  0.65864270000E+03 0.  0.
    8880022    1    1    2    0    0  0.38944983751E+02  0.30388842700E+03  0.13953820398E+03  0.36976675244E+03  0.15294330000E+03 0.  0.
<mgrwt>
<rscale>  0 0.60190730E+03</rscale>
<asrwt>0</asrwt>
<pdfrwt beam="1">  1        1 0.20853635E+00 0.72641248E+03</pdfrwt>
<pdfrwt beam="2">  1       -1 0.36146092E-01 0.72641248E+03</pdfrwt>
<totfact> 0.62141526E+01</totfact>
</mgrwt>
</event>
<event>
 4    1  0.4055965E-007  0.7543221E+03  0.7818608E-02  0.9820035E-01
          1   -1    0    0  501    0  0.00000000000E+00  0.00000000000E+00  0.30908134008E+04  0.30908134008E+04  0.50400000000E-02 0. -1.
         -1   -1    0    0    0  501 -0.00000000000E+00 -0.00000000000E+00 -0.14513346689E+03  0.14513346698E+03  0.50400000000E-02 0.  1.
    8880023    1    1    2    0    0 -0.31941412074E+03  0.18211595628E+03  0.26045639997E+04  0.27115964738E+04  0.65864270000E+03 0.  0.
    8880022    1    1    2    0    0  0.31941412074E+03 -0.18211595628E+03  0.34111593422E+03  0.52435039397E+03  0.15294330000E+03 0.  0.
<mgrwt>
<rscale>  0 0.64298343E+03</rscale>
<asrwt>0</asrwt>
<pdfrwt beam="1">  1        1 0.47550975E+00 0.75432209E+03</pdfrwt>
<pdfrwt beam="2">  1       -1 0.22328226E-01 0.75432209E+03</pdfrwt>
<totfact> 0.92616190E+00</totfact>
</mgrwt>
</event>
<event>
 4    1  0.4055965E-007  0.6756723E+03  0.7818608E-02  0.1011886E+00
         -1   -1    0    0    0  501 -0.00000000000E+00  0.00000000000E+00  0.98608453111E+02  0.98608453240E+02  0.50400000000E-02 0.  1.
          1   -1    0    0  501    0  0.00000000000E+00 -0.00000000000E+00 -0.21520128164E+04  0.21520128164E+04  0.50400000000E-02 0. -1.
    8880023    1    1    2    0    0 -0.14912034255E+03  0.22045645070E+02 -0.17733637185E+04  0.18977228384E+04  0.65864270000E+03 0.  0.
    8880022    1    1    2    0    0  0.14912034255E+03 -0.22045645070E+02 -0.28004064482E+03  0.35289843127E+03  0.15294330000E+03 0.  0.
<mgrwt>
<rscale>  0 0.50731983E+03</rscale>
<asrwt>0</asrwt>
<pdfrwt beam="1">  1        1 0.33107886E+00 0.67567233E+03</pdfrwt>
<pdfrwt beam="2">  1       -1 0.15170533E-01 0.67567233E+03</pdfrwt>
<totfact> 0.79108022E+01</totfact>
</mgrwt>
</event>
<event>
 4    1  0.4055965E-007  0.7683039E+03  0.7818608E-02  0.9784065E-01
          1   -1    0    0  501    0  0.00000000000E+00  0.00000000000E+00  0.15348109495E+04  0.15348109495E+04  0.50400000000E-02 0. -1.
         -1   -1    0    0    0  501 -0.00000000000E+00 -0.00000000000E+00 -0.31109134487E+03  0.31109134491E+03  0.50400000000E-02 0.  1.
    8880023    1    1    2    0    0 -0.10706490861E+03 -0.38081196048E+03  0.11951848350E+04  0.14208299124E+04  0.65864270000E+03 0. -1.
    8880022    1    1    2    0    0  0.10706490861E+03  0.38081196048E+03  0.28534769690E+02  0.42507238207E+03  0.15294330000E+03 0.  0.
<mgrwt>
<rscale>  0 0.66224746E+03</rscale>
<asrwt>0</asrwt>
<pdfrwt beam="1">  1        1 0.23612477E+00 0.76830388E+03</pdfrwt>
<pdfrwt beam="2">  1       -1 0.47860206E-01 0.76830388E+03</pdfrwt>
<totfact> 0.27813407E+01</totfact>
</mgrwt>
</event>
<event>
 4    1  0.4055965E-007  0.7456723E+03  0.7818608E-02  0.9843722E-01
          1   -1    0    0  501    0  0.00000000000E+00  0.00000000000E+00  0.13044294909E+04  0.13044294909E+04  0.50400000000E-02 0. -1.
         -1   -1    0    0    0  501 -0.00000000000E+00 -0.00000000000E+00 -0.64529047746E+03  0.64529047748E+03  0.50400000000E-02 0.  1.
    8880023    1    1    2    0    0 -0.17880061059E+03  0.30041191509E+03  0.11236568036E+04  0.13485665707E+04  0.65864270000E+03 0. -1.
    8880022    1    1    2    0    0  0.17880061059E+03 -0.30041191509E+03 -0.46451779021E+03  0.60115339765E+03  0.15294330000E+03 0.  0.
<mgrwt>
<rscale>  0 0.63068049E+03</rscale>
<asrwt>0</asrwt>
<pdfrwt beam="1">  1        1 0.20068146E+00 0.74567230E+03</pdfrwt>
<pdfrwt beam="2">  1       -1 0.99275459E-01 0.74567230E+03</pdfrwt>
<totfact> 0.90247989E+00</totfact>
</mgrwt>
</event>
<event>
 4    1  0.4055965E-007  0.6833945E+03  0.7818608E-02  0.1007465E+00
          1   -1    0    0  501    0  0.00000000000E+00  0.00000000000E+00  0.68667184359E+03  0.68667184361E+03  0.50400000000E-02 0. -1.
         -1   -1    0    0    0  501 -0.00000000000E+00 -0.00000000000E+00 -0.54588830768E+03  0.54588830770E+03  0.50400000000E-02 0.  1.
    8880023    1    1    2    0    0 -0.13604572761E+03 -0.12128231620E+03  0.46778420772E+03  0.82816067975E+03  0.65864270000E+03 0. -1.
    8880022    1    1    2    0    0  0.13604572761E+03  0.12128231620E+03 -0.32700067180E+03  0.40439947156E+03  0.15294330000E+03 0.  0.
<mgrwt>
<rscale>  0 0.52494617E+03</rscale>
<asrwt>0</asrwt>
<pdfrwt beam="1">  1        1 0.10564182E+00 0.68339450E+03</pdfrwt>
<pdfrwt beam="2">  1       -1 0.83982817E-01 0.68339450E+03</pdfrwt>
<totfact> 0.40608761E+01</totfact>
</mgrwt>
</event>
<event>
 4    1  0.4055965E-007  0.6880389E+03  0.7818608E-02  0.1005099E+00
          1   -1    0    0  501    0  0.00000000000E+00  0.00000000000E+00  0.43265399943E+03  0.43265399946E+03  0.50400000000E-02 0. -1.
         -1   -1    0    0    0  501 -0.00000000000E+00 -0.00000000000E+00 -0.10845451456E+04  0.10845451456E+04  0.50400000000E-02 0.  1.
    8880023    1    1    2    0    0 -0.97950573883E+02  0.17318484976E+03  0.12630769531E+03  0.69953638023E+03  0.65864270000E+03 0. -1.
    8880022    1    1    2    0    0  0.97950573883E+02 -0.17318484976E+03 -0.77819884150E+03  0.81766276486E+03  0.15294330000E+03 0.  0.
<mgrwt>
<rscale>  0 0.53469876E+03</rscale>
<asrwt>0</asrwt>
<pdfrwt beam="1">  1        1 0.66562154E-01 0.68803889E+03</pdfrwt>
<pdfrwt beam="2">  1       -1 0.16685310E+00 0.68803889E+03</pdfrwt>
<totfact> 0.14519036E+01</totfact>
</mgrwt>
</event>
<event>
 4    1  0.4055965E-007  0.8204851E+03  0.7818608E-02  0.9668137E-01
          1   -1    0    0  501    0  0.00000000000E+00  0.00000000000E+00  0.18401096347E+04  0.18401096347E+04  0.50400000000E-02 0. -1.
         -1   -1    0    0    0  501 -0.00000000000E+00 -0.00000000000E+00 -0.28788594771E+03  0.28788594775E+03  0.50400000000E-02 0.  1.
    8880023    1    1    2    0    0  0.22361544255E+03  0.43518006627E+03  0.13441018777E+04  0.15747398579E+04  0.65864270000E+03 0. -1.
    8880022    1    1    2    0    0 -0.22361544255E+03 -0.43518006627E+03  0.20812180932E+03  0.55325572455E+03  0.15294330000E+03 0.  0.
<mgrwt>
<rscale>  0 0.72945999E+03</rscale>
<asrwt>0</asrwt>
<pdfrwt beam="1">  1        1 0.28309378E+00 0.82048508E+03</pdfrwt>
<pdfrwt beam="2">  1       -1 0.44290147E-01 0.82048508E+03</pdfrwt>
<totfact> 0.19867383E+01</totfact>
</mgrwt>
</event>
<event>
 4    1  0.4874354E-007  0.9221631E+03  0.7818608E-02  0.9491350E-01
          1   -1    0    0  501    0  0.00000000000E+00  0.00000000000E+00  0.14868893628E+04  0.14868893628E+04  0.50400000000E-02 0. -1.
         -1   -1    0    0    0  501 -0.00000000000E+00 -0.00000000000E+00 -0.13749981091E+04  0.13749981091E+04  0.50400000000E-02 0.  1.
    8880023    1    1    2    0    0 -0.55225962676E+03  0.33404169682E+03  0.12447525065E+04  0.15491267086E+04  0.65864270000E+03 0. -1.
    8880022    1    1    2    0    0  0.55225962676E+03 -0.33404169682E+03 -0.11328612528E+04  0.13127607633E+04  0.15294330000E+03 0.  0.
<mgrwt>
<rscale>  0 0.84924542E+03</rscale>
<asrwt>0</asrwt>
<pdfrwt beam="1">  1        1 0.22875221E+00 0.92216309E+03</pdfrwt>
<pdfrwt beam="2">  1       -1 0.21153817E+00 0.92216309E+03</pdfrwt>
<totfact> 0.85568675E-01</totfact>
</mgrwt>
</event>
<event>
 4    1  0.4844087E-007  0.8035443E+03  0.7818608E-02  0.9703184E-01
         -1   -1    0    0    0  501 -0.00000000000E+00  0.00000000000E+00  0.12957917377E+04  0.12957917377E+04  0.50400000000E-02 0.  1.
          1   -1    0    0  501    0  0.00000000000E+00 -0.00000000000E+00 -0.10296285747E+04  0.10296285747E+04  0.50400000000E-02 0. -1.
    8880023    1    1    2    0    0  0.14767358090E+03  0.43596535639E+03 -0.81249194270E+03  0.11427277198E+04  0.65864270000E+03 0. -1.
    8880022    1    1    2    0    0 -0.14767358090E+03 -0.43596535639E+03  0.10786551057E+04  0.11826925926E+04  0.15294330000E+03 0.  0.
<mgrwt>
<rscale>  0 0.70827519E+03</rscale>
<asrwt>0</asrwt>
<pdfrwt beam="1">  1        1 0.15840440E+00 0.80354433E+03</pdfrwt>
<pdfrwt beam="2">  1       -1 0.19935258E+00 0.80354433E+03</pdfrwt>
<totfact> 0.22551655E+00</totfact>
</mgrwt>
</event>
<event>
 4    1  0.4055965E-007  0.9740849E+03  0.7818608E-02  0.9416277E-01
         -1   -1    0    0    0  501 -0.00000000000E+00  0.00000000000E+00  0.36460804450E+03  0.36460804453E+03  0.50400000000E-02 0.  1.
          1   -1    0    0  501    0  0.00000000000E+00 -0.00000000000E+00 -0.26802883944E+04  0.26802883944E+04  0.50400000000E-02 0. -1.
    8880023    1    1    2    0    0  0.28537533485E+03  0.65847707959E+03 -0.20407563487E+04  0.22613110859E+04  0.65864270000E+03 0.  0.
    8880022    1    1    2    0    0 -0.28537533485E+03 -0.65847707959E+03 -0.27492400120E+03  0.78358535306E+03  0.15294330000E+03 0.  0.
<mgrwt>
<rscale>  0 0.90748203E+03</rscale>
<asrwt>0</asrwt>
<pdfrwt beam="1">  1        1 0.41235205E+00 0.97408488E+03</pdfrwt>
<pdfrwt beam="2">  1       -1 0.56093547E-01 0.97408488E+03</pdfrwt>
<totfact> 0.33418029E+00</totfact>
</mgrwt>
</event>
<event>
 4    1  0.4055965E-007  0.9475242E+03  0.7818608E-02  0.9453685E-01
          1   -1    0    0  501    0  0.00000000000E+00  0.00000000000E+00  0.10264047858E+04  0.10264047858E+04  0.50400000000E-02 0. -1.
         -1   -1    0    0    0  501 -0.00000000000E+00 -0.00000000000E+00 -0.69631241507E+03  0.69631241509E+03  0.50400000000E-02 0.  1.
    8880023    1    1    2    0    0 -0.13248083578E+03  0.66816223368E+03  0.38429074697E+03  0.10224879104E+04  0.65864270000E+03 0.  0.
    8880022    1    1    2    0    0  0.13248083578E+03 -0.66816223368E+03 -0.54198376222E+02  0.70022929056E+03  0.15294330000E+03 0.  0.
<mgrwt>
<rscale>  0 0.87786271E+03</rscale>
<asrwt>0</asrwt>
<pdfrwt beam="1">  1        1 0.15790843E+00 0.94752422E+03</pdfrwt>
<pdfrwt beam="2">  1       -1 0.10712499E+00 0.94752422E+03</pdfrwt>
<totfact> 0.11818269E+01</totfact>
</mgrwt>
</event>
<event>
 4    1  0.1263797E-006  0.8151478E+03  0.7818608E-02  0.9678952E-01
         -1   -1    0    0    0  501 -0.00000000000E+00  0.00000000000E+00  0.14285702085E+04  0.14285702085E+04  0.50400000000E-02 0.  1.
          1   -1    0    0  501    0  0.00000000000E+00 -0.00000000000E+00 -0.21303306957E+04  0.21303306957E+04  0.50400000000E-02 0. -1.
    8880023    1    1    2    0    0  0.15002246085E+03  0.45623344355E+03 -0.20035047904E+04  0.21629834362E+04  0.65864270000E+03 0.  0.
    8880022    1    1    2    0    0 -0.15002246085E+03 -0.45623344355E+03  0.13017443032E+04  0.13959174681E+04  0.15294330000E+03 0.  0.
<mgrwt>
<rscale>  0 0.72283903E+03</rscale>
<asrwt>0</asrwt>
<pdfrwt beam="1">  1        1 0.32774318E+00 0.81514778E+03</pdfrwt>
<pdfrwt beam="2">  1       -1 0.21978003E+00 0.81514778E+03</pdfrwt>
<totfact> 0.28309237E-01</totfact>
</mgrwt>
</event>
<event>
 4    1  0.4055965E-007  0.7665466E+03  0.7818608E-02  0.9788445E-01
         -1   -1    0    0    0  501 -0.00000000000E+00  0.00000000000E+00  0.96847367636E+03  0.96847367637E+03  0.50400000000E-02 0.  1.
          1   -1    0    0  501    0  0.00000000000E+00 -0.00000000000E+00 -0.45013376164E+03  0.45013376167E+03  0.50400000000E-02 0. -1.
    8880023    1    1    2    0    0 -0.32656511918E+03  0.21711453430E+03  0.20701729929E+02  0.76682609890E+03  0.65864270000E+03 0.  1.
    8880022    1    1    2    0    0  0.32656511918E+03 -0.21711453430E+03  0.49763818479E+03  0.65178133914E+03  0.15294330000E+03 0.  0.
<mgrwt>
<rscale>  0 0.65986376E+03</rscale>
<asrwt>0</asrwt>
<pdfrwt beam="1">  1        1 0.69251349E-01 0.76654661E+03</pdfrwt>
<pdfrwt beam="2">  1       -1 0.14899595E+00 0.76654661E+03</pdfrwt>
<totfact> 0.18630893E+01</totfact>
</mgrwt>
</event>
<event>
 4    1  0.4055965E-007  0.8486380E+03  0.7818608E-02  0.9614103E-01
         -1   -1    0    0    0  501 -0.00000000000E+00  0.00000000000E+00  0.98502540023E+03  0.98502540024E+03  0.50400000000E-02 0.  1.
          1   -1    0    0  501    0  0.00000000000E+00 -0.00000000000E+00 -0.92269363102E+03  0.92269363104E+03  0.50400000000E-02 0. -1.
    8880023    1    1    2    0    0  0.51799004274E+03 -0.13439717198E+03 -0.60243111936E+03  0.10407255854E+04  0.65864270000E+03 0.  0.
    8880022    1    1    2    0    0 -0.51799004274E+03  0.13439717198E+03  0.66476288857E+03  0.86699344590E+03  0.15294330000E+03 0.  0.
<mgrwt>
<rscale>  0 0.76369759E+03</rscale>
<asrwt>0</asrwt>
<pdfrwt beam="1">  1        1 0.14195287E+00 0.84863802E+03</pdfrwt>
<pdfrwt beam="2">  1       -1 0.15154237E+00 0.84863802E+03</pdfrwt>
<totfact> 0.60401177E+00</totfact>
</mgrwt>
</event>
<event>
 4    1  0.4055965E-007  0.6900594E+03  0.7818608E-02  0.1004124E+00
         -1   -1    0    0    0  501 -0.00000000000E+00  0.00000000000E+00  0.26360365040E+03  0.26360365045E+03  0.50400000000E-02 0.  1.
          1   -1    0    0  501    0  0.00000000000E+00 -0.00000000000E+00 -0.10931867164E+04  0.10931867164E+04  0.50400000000E-02 0. -1.
    8880023    1    1    2    0    0 -0.54980275915E+02  0.19836550809E+03 -0.85541076430E+03  0.10990493563E+04  0.65864270000E+03 0. -1.
    8880022    1    1    2    0    0  0.54980275915E+02 -0.19836550809E+03  0.25827698292E+02  0.25774101062E+03  0.15294330000E+03 0.  1.
<mgrwt>
<rscale>  0 0.53878170E+03</rscale>
<asrwt>0</asrwt>
<pdfrwt beam="1">  1        1 0.16818257E+00 0.69005935E+03</pdfrwt>
<pdfrwt beam="2">  1       -1 0.40554408E-01 0.69005935E+03</pdfrwt>
<totfact> 0.78270392E+01</totfact>
</mgrwt>
</event>
<event>
 4    1  0.4055965E-007  0.1078835E+04  0.7818608E-02  0.9284995E-01
         -1   -1    0    0    0  501 -0.00000000000E+00  0.00000000000E+00  0.35201427796E+03  0.35201427800E+03  0.50400000000E-02 0.  1.
          1   -1    0    0  501    0  0.00000000000E+00 -0.00000000000E+00 -0.35607631113E+04  0.35607631113E+04  0.50400000000E-02 0. -1.
    8880023    1    1    2    0    0 -0.75105009981E+02 -0.85113690718E+03 -0.26978530097E+04  0.29055629171E+04  0.65864270000E+03 0.  0.
    8880022    1    1    2    0    0  0.75105009981E+02  0.85113690718E+03 -0.51089582365E+03  0.10072144722E+04  0.15294330000E+03 0.  0.
<mgrwt>
<rscale>  0 0.10217609E+04</rscale>
<asrwt>0</asrwt>
<pdfrwt beam="1">  1        1 0.54780968E+00 0.10788350E+04</pdfrwt>
<pdfrwt beam="2">  1       -1 0.54156045E-01 0.10788350E+04</pdfrwt>
<totfact> 0.79141298E-01</totfact>
</mgrwt>
</event>
<event>
 4    1  0.4055965E-007  0.6907207E+03  0.7818608E-02  0.1003812E+00
          1   -1    0    0  501    0  0.00000000000E+00  0.00000000000E+00  0.13102624408E+04  0.13102624408E+04  0.50400000000E-02 0. -1.
         -1   -1    0    0    0  501 -0.00000000000E+00 -0.00000000000E+00 -0.41059355462E+03  0.41059355466E+03  0.50400000000E-02 0.  1.
    8880023    1    1    2    0    0 -0.19441423114E+03  0.74081228050E+02  0.11626164786E+04  0.13523210433E+04  0.65864270000E+03 0. -1.
    8880022    1    1    2    0    0  0.19441423114E+03 -0.74081228050E+02 -0.26294759239E+03  0.36853495218E+03  0.15294330000E+03 0.  0.
<mgrwt>
<rscale>  0 0.54009919E+03</rscale>
<asrwt>0</asrwt>
<pdfrwt beam="1">  1        1 0.20157883E+00 0.69072073E+03</pdfrwt>
<pdfrwt beam="2">  1       -1 0.63168241E-01 0.69072073E+03</pdfrwt>
<totfact> 0.23498517E+01</totfact>
</mgrwt>
</event>
<event>
 4    1  0.4055965E-007  0.7548510E+03  0.7818608E-02  0.9818625E-01
         -1   -1    0    0    0  501 -0.00000000000E+00  0.00000000000E+00  0.66140240125E+03  0.66140240127E+03  0.50400000000E-02 0.  1.
          1   -1    0    0  501    0  0.00000000000E+00 -0.00000000000E+00 -0.95150346235E+03  0.95150346237E+03  0.50400000000E-02 0. -1.
    8880023    1    1    2    0    0  0.35567062157E+03 -0.97407646676E+02 -0.70802708060E+03  0.10349407683E+04  0.65864270000E+03 0. -1.
    8880022    1    1    2    0    0 -0.35567062157E+03  0.97407646676E+02  0.41792601950E+03  0.57796509538E+03  0.15294330000E+03 0.  0.
<mgrwt>
<rscale>  0 0.64372543E+03</rscale>
<asrwt>0</asrwt>
<pdfrwt beam="1">  1        1 0.14638515E+00 0.75485101E+03</pdfrwt>
<pdfrwt beam="2">  1       -1 0.10175422E+00 0.75485101E+03</pdfrwt>
<totfact> 0.15579660E+01</totfact>
</mgrwt>
</event>
<event>
 4    1  0.4055965E-007  0.7361834E+03  0.7818608E-02  0.9871207E-01
          1   -1    0    0  501    0  0.00000000000E+00  0.00000000000E+00  0.25164950694E+04  0.25164950694E+04  0.50400000000E-02 0. -1.
         -1   -1    0    0    0  501 -0.00000000000E+00 -0.00000000000E+00 -0.32057816288E+03  0.32057816292E+03  0.50400000000E-02 0.  1.
    8880023    1    1    2    0    0 -0.32374618580E+03 -0.57829585293E+02  0.23352452834E+04  0.24485376440E+04  0.65864270000E+03 0. -1.
    8880022    1    1    2    0    0  0.32374618580E+03  0.57829585293E+02 -0.13932837697E+03  0.38853558833E+03  0.15294330000E+03 0.  0.
<mgrwt>
<rscale>  0 0.61677230E+03</rscale>
<asrwt>0</asrwt>
<pdfrwt beam="1">  1        1 0.38715309E+00 0.73618344E+03</pdfrwt>
<pdfrwt beam="2">  1       -1 0.49319717E-01 0.73618344E+03</pdfrwt>
<totfact> 0.57657554E+00</totfact>
</mgrwt>
</event>
<event>
 4    1  0.4055965E-007  0.9605888E+03  0.7818608E-02  0.9435040E-01
         -1   -1    0    0    0  501 -0.00000000000E+00  0.00000000000E+00  0.45049603464E+03  0.45049603467E+03  0.50400000000E-02 0.  1.
          1   -1    0    0  501    0  0.00000000000E+00 -0.00000000000E+00 -0.25578552052E+04  0.25578552052E+04  0.50400000000E-02 0. -1.
    8880023    1    1    2    0    0 -0.52376389419E+03  0.46324075949E+03 -0.20811148348E+04  0.22921103333E+04  0.65864270000E+03 0.  0.
    8880022    1    1    2    0    0  0.52376389419E+03 -0.46324075949E+03 -0.26244335784E+02  0.71624090660E+03  0.15294330000E+03 0.  0.
<mgrwt>
<rscale>  0 0.89247278E+03</rscale>
<asrwt>0</asrwt>
<pdfrwt beam="1">  1        1 0.39351618E+00 0.96058879E+03</pdfrwt>
<pdfrwt beam="2">  1       -1 0.69307084E-01 0.96058879E+03</pdfrwt>
<totfact> 0.26674242E+00</totfact>
</mgrwt>
</event>
<event>
 4    1  0.4055965E-007  0.7392697E+03  0.7818608E-02  0.9862080E-01
         -1   -1    0    0    0  501 -0.00000000000E+00  0.00000000000E+00  0.57629169171E+03  0.57629169173E+03  0.50400000000E-02 0.  1.
          1   -1    0    0  501    0  0.00000000000E+00 -0.00000000000E+00 -0.71061373634E+03  0.71061373636E+03  0.50400000000E-02 0. -1.
    8880023    1    1    2    0    0 -0.84638516618E+02  0.32487812404E+03 -0.39213127351E+03  0.83683129477E+03  0.65864270000E+03 0.  0.
    8880022    1    1    2    0    0  0.84638516618E+02 -0.32487812404E+03  0.25780922888E+03  0.45007413332E+03  0.15294330000E+03 0.  0.
<mgrwt>
<rscale>  0 0.62134798E+03</rscale>
<asrwt>0</asrwt>
<pdfrwt beam="1">  1        1 0.10932519E+00 0.73926969E+03</pdfrwt>
<pdfrwt beam="2">  1       -1 0.88660261E-01 0.73926969E+03</pdfrwt>
<totfact> 0.34088682E+01</totfact>
</mgrwt>
</event>
<event>
 4    1  0.4055965E-007  0.1056606E+04  0.7818608E-02  0.9310982E-01
          1   -1    0    0  501    0  0.00000000000E+00  0.00000000000E+00  0.17621372535E+04  0.17621372536E+04  0.50400000000E-02 0. -1.
         -1   -1    0    0    0  501 -0.00000000000E+00 -0.00000000000E+00 -0.79027395291E+03  0.79027395292E+03  0.50400000000E-02 0.  1.
    8880023    1    1    2    0    0  0.25181722997E+03  0.78688931131E+03  0.12779276159E+04  0.16581664281E+04  0.65864270000E+03 0.  0.
    8880022    1    1    2    0    0 -0.25181722997E+03 -0.78688931131E+03 -0.30606431526E+03  0.89424477837E+03  0.15294330000E+03 0.  0.
<mgrwt>
<rscale>  0 0.99778131E+03</rscale>
<asrwt>0</asrwt>
<pdfrwt beam="1">  1        1 0.27109804E+00 0.10566063E+04</pdfrwt>
<pdfrwt beam="2">  1       -1 0.12158061E+00 0.10566063E+04</pdfrwt>
<totfact> 0.25926730E+00</totfact>
</mgrwt>
</event>
<event>
 4    1  0.4055965E-007  0.8262332E+03  0.7818608E-02  0.9656706E-01
          1   -1    0    0  501    0  0.00000000000E+00  0.00000000000E+00  0.28828128608E+04  0.28828128608E+04  0.50400000000E-02 0. -1.
         -1   -1    0    0    0  501 -0.00000000000E+00 -0.00000000000E+00 -0.19569178220E+03  0.19569178226E+03  0.50400000000E-02 0.  1.
    8880023    1    1    2    0    0  0.48094041801E+03  0.13246632688E+03  0.22531004456E+04  0.23998172509E+04  0.65864270000E+03 0. -1.
    8880022    1    1    2    0    0 -0.48094041801E+03 -0.13246632688E+03  0.43402063306E+03  0.67868739223E+03  0.15294330000E+03 0.  0.
<mgrwt>
<rscale>  0 0.73654025E+03</rscale>
<asrwt>0</asrwt>
<pdfrwt beam="1">  1        1 0.44350966E+00 0.82623315E+03</pdfrwt>
<pdfrwt beam="2">  1       -1 0.30106429E-01 0.82623315E+03</pdfrwt>
<totfact> 0.77295834E+00</totfact>
</mgrwt>
</event>
<event>
 4    1  0.4055965E-007  0.9270510E+03  0.7818608E-02  0.9483931E-01
         -1   -1    0    0    0  501 -0.00000000000E+00  0.00000000000E+00  0.87054624461E+03  0.87054624463E+03  0.50400000000E-02 0.  1.
          1   -1    0    0  501    0  0.00000000000E+00 -0.00000000000E+00 -0.16242492172E+04  0.16242492172E+04  0.50400000000E-02 0. -1.
    8880023    1    1    2    0    0 -0.63741807568E+03  0.13896586544E+03 -0.13230404001E+04  0.16155059336E+04  0.65864270000E+03 0.  0.
    8880022    1    1    2    0    0  0.63741807568E+03 -0.13896586544E+03  0.56933742755E+03  0.87928952819E+03  0.15294330000E+03 0.  0.
<mgrwt>
<rscale>  0 0.85478936E+03</rscale>
<asrwt>0</asrwt>
<pdfrwt beam="1">  1        1 0.24988449E+00 0.92705098E+03</pdfrwt>
<pdfrwt beam="2">  1       -1 0.13393019E+00 0.92705098E+03</pdfrwt>
<totfact> 0.25677173E+00</totfact>
</mgrwt>
</event>
<event>
 4    1  0.4055965E-007  0.6921877E+03  0.7818608E-02  0.1003130E+00
         -1   -1    0    0    0  501 -0.00000000000E+00  0.00000000000E+00  0.44437182952E+03  0.44437182954E+03  0.50400000000E-02 0.  1.
          1   -1    0    0  501    0  0.00000000000E+00 -0.00000000000E+00 -0.56479645714E+03  0.56479645717E+03  0.50400000000E-02 0. -1.
    8880023    1    1    2    0    0  0.10149845530E+03  0.18711421565E+03  0.54046470270E+02  0.69429452924E+03  0.65864270000E+03 0.  0.
    8880022    1    1    2    0    0 -0.10149845530E+03 -0.18711421565E+03 -0.17447109790E+03  0.31487375747E+03  0.15294330000E+03 0.  1.
<mgrwt>
<rscale>  0 0.54298987E+03</rscale>
<asrwt>0</asrwt>
<pdfrwt beam="1">  1        1 0.86891763E-01 0.69218774E+03</pdfrwt>
<pdfrwt beam="2">  1       -1 0.68364897E-01 0.69218774E+03</pdfrwt>
<totfact> 0.82809160E+01</totfact>
</mgrwt>
</event>
<event>
 4    1  0.5107535E-007  0.6610229E+03  0.7818608E-02  0.1023132E+00
         -1   -1    0    0    0  501 -0.00000000000E+00  0.00000000000E+00  0.79428802068E+03  0.79428802069E+03  0.50400000000E-02 0.  1.
          1   -1    0    0  501    0  0.00000000000E+00 -0.00000000000E+00 -0.21802145614E+04  0.21802145615E+04  0.50400000000E-02 0. -1.
    8880023    1    1    2    0    0  0.48025109932E+02 -0.28890199591E+02 -0.21209888422E+04  0.22216086356E+04  0.65864270000E+03 0. -1.
    8880022    1    1    2    0    0 -0.48025109932E+02  0.28890199591E+02  0.73506230140E+03  0.75289394656E+03  0.15294330000E+03 0.  0.
<mgrwt>
<rscale>  0 0.46573092E+03</rscale>
<asrwt>0</asrwt>
<pdfrwt beam="1">  1        1 0.33541762E+00 0.66102289E+03</pdfrwt>
<pdfrwt beam="2">  1       -1 0.12219816E+00 0.66102289E+03</pdfrwt>
<totfact> 0.14380937E+00</totfact>
</mgrwt>
</event>
<event>
 4    1  0.4055965E-007  0.6782331E+03  0.7818608E-02  0.1010341E+00
         -1   -1    0    0    0  501 -0.00000000000E+00  0.00000000000E+00  0.55353245938E+03  0.55353245940E+03  0.50400000000E-02 0.  1.
          1   -1    0    0  501    0  0.00000000000E+00 -0.00000000000E+00 -0.69473750558E+03  0.69473750560E+03  0.50400000000E-02 0. -1.
    8880023    1    1    2    0    0 -0.15436316551E+03  0.48599690905E+02 -0.48841603923E+03  0.83579324624E+03  0.65864270000E+03 0. -1.
    8880022    1    1    2    0    0  0.15436316551E+03 -0.48599690905E+02  0.34721099302E+03  0.41247671876E+03  0.15294330000E+03 0.  0.
<mgrwt>
<rscale>  0 0.51339220E+03</rscale>
<asrwt>0</asrwt>
<pdfrwt beam="1">  1        1 0.10688269E+00 0.67823309E+03</pdfrwt>
<pdfrwt beam="2">  1       -1 0.85158840E-01 0.67823309E+03</pdfrwt>
<totfact> 0.38746791E+01</totfact>
</mgrwt>
</event>
<event>
 4    1  0.4055965E-007  0.8885575E+03  0.7818608E-02  0.9544656E-01
          1   -1    0    0  501    0  0.00000000000E+00  0.00000000000E+00  0.94392540947E+03  0.94392540948E+03  0.50400000000E-02 0. -1.
         -1   -1    0    0    0  501 -0.00000000000E+00 -0.00000000000E+00 -0.91769459482E+03  0.91769459483E+03  0.50400000000E-02 0.  1.
    8880023    1    1    2    0    0  0.38135841393E+03  0.45857377850E+03 -0.52766121690E+03  0.10334218482E+04  0.65864270000E+03 0.  1.
    8880022    1    1    2    0    0 -0.38135841393E+03 -0.45857377850E+03  0.55389203155E+03  0.82819815614E+03  0.15294330000E+03 0.  0.
<mgrwt>
<rscale>  0 0.81070084E+03</rscale>
<asrwt>0</asrwt>
<pdfrwt beam="1">  1        1 0.14521929E+00 0.88855746E+03</pdfrwt>
<pdfrwt beam="2">  1       -1 0.14118378E+00 0.88855746E+03</pdfrwt>
<totfact> 0.69767043E+00</totfact>
</mgrwt>
</event>
<event>
 4    1  0.4055965E-007  0.8987316E+03  0.7818608E-02  0.9528071E-01
         -1   -1    0    0    0  501 -0.00000000000E+00  0.00000000000E+00  0.63288288578E+03  0.63288288580E+03  0.50400000000E-02 0.  1.
          1   -1    0    0  501    0  0.00000000000E+00 -0.00000000000E+00 -0.10949657296E+04  0.10949657296E+04  0.50400000000E-02 0. -1.
    8880023    1    1    2    0    0 -0.17388668868E+03 -0.58623520367E+03  0.72103362798E+02  0.90161931862E+03  0.65864270000E+03 0.  0.
    8880022    1    1    2    0    0  0.17388668868E+03  0.58623520367E+03 -0.53418620664E+03  0.82622929680E+03  0.15294330000E+03 0.  0.
<mgrwt>
<rscale>  0 0.82245534E+03</rscale>
<asrwt>0</asrwt>
<pdfrwt beam="1">  1        1 0.16845627E+00 0.89873161E+03</pdfrwt>
<pdfrwt beam="2">  1       -1 0.97366598E-01 0.89873161E+03</pdfrwt>
<totfact> 0.13131794E+01</totfact>
</mgrwt>
</event>
<event>
 4    1  0.4055965E-007  0.6708983E+03  0.7818608E-02  0.1015027E+00
         -1   -1    0    0    0  501 -0.00000000000E+00  0.00000000000E+00  0.14737555491E+03  0.14737555499E+03  0.50400000000E-02 0.  1.
          1   -1    0    0  501    0  0.00000000000E+00 -0.00000000000E+00 -0.13065172593E+04  0.13065172593E+04  0.50400000000E-02 0. -1.
    8880023    1    1    2    0    0  0.22239222939E+02  0.12569697535E+03 -0.96836083035E+03  0.11780607865E+04  0.65864270000E+03 0.  0.
    8880022    1    1    2    0    0 -0.22239222939E+02 -0.12569697535E+03 -0.19078087404E+03  0.27583202780E+03  0.15294330000E+03 0.  0.
<mgrwt>
<rscale>  0 0.49524732E+03</rscale>
<asrwt>0</asrwt>
<pdfrwt beam="1">  1        1 0.20100265E+00 0.67089829E+03</pdfrwt>
<pdfrwt beam="2">  1       -1 0.22673163E-01 0.67089829E+03</pdfrwt>
<totfact> 0.15169657E+02</totfact>
</mgrwt>
</event>
<event>
 4    1  0.4055965E-007  0.8122359E+03  0.7818608E-02  0.9684938E-01
         -1   -1    0    0    0  501 -0.00000000000E+00  0.00000000000E+00  0.11687096633E+04  0.11687096633E+04  0.50400000000E-02 0.  1.
          1   -1    0    0  501    0  0.00000000000E+00 -0.00000000000E+00 -0.12081575684E+04  0.12081575684E+04  0.50400000000E-02 0. -1.
    8880023    1    1    2    0    0 -0.34238779857E+03  0.32967795791E+03 -0.10035977421E+04  0.12910986000E+04  0.65864270000E+03 0. -1.
    8880022    1    1    2    0    0  0.34238779857E+03 -0.32967795791E+03  0.96414983698E+03  0.10857686318E+04  0.15294330000E+03 0.  0.
<mgrwt>
<rscale>  0 0.71920682E+03</rscale>
<asrwt>0</asrwt>
<pdfrwt beam="1">  1        1 0.18587040E+00 0.81223591E+03</pdfrwt>
<pdfrwt beam="2">  1       -1 0.17980149E+00 0.81223591E+03</pdfrwt>
<totfact> 0.22722507E+00</totfact>
</mgrwt>
</event>
<event>
 4    1  0.4055965E-007  0.9107026E+03  0.7818608E-02  0.9509064E-01
         -1   -1    0    0    0  501 -0.00000000000E+00  0.00000000000E+00  0.97708894424E+03  0.97708894426E+03  0.50400000000E-02 0.  1.
          1   -1    0    0  501    0  0.00000000000E+00 -0.00000000000E+00 -0.69165941314E+03  0.69165941316E+03  0.50400000000E-02 0. -1.
    8880023    1    1    2    0    0 -0.48852656680E+03  0.39611971117E+03  0.42752967217E+03  0.10060620552E+04  0.65864270000E+03 0.  0.
    8880022    1    1    2    0    0  0.48852656680E+03 -0.39611971117E+03 -0.14210014106E+03  0.66268630222E+03  0.15294330000E+03 0.  0.
<mgrwt>
<rscale>  0 0.83618831E+03</rscale>
<asrwt>0</asrwt>
<pdfrwt beam="1">  1        1 0.10640914E+00 0.91070261E+03</pdfrwt>
<pdfrwt beam="2">  1       -1 0.15032138E+00 0.91070261E+03</pdfrwt>
<totfact> 0.97354626E+00</totfact>
</mgrwt>
</event>
<event>
 4    1  0.4055965E-007  0.7981494E+03  0.7818608E-02  0.9714812E-01
         -1   -1    0    0    0  501 -0.00000000000E+00  0.00000000000E+00  0.11501832985E+04  0.11501832985E+04  0.50400000000E-02 0.  1.
          1   -1    0    0  501    0  0.00000000000E+00 -0.00000000000E+00 -0.41278058738E+03  0.41278058741E+03  0.50400000000E-02 0. -1.
    8880023    1    1    2    0    0  0.67113625966E+02 -0.44578923185E+03  0.15897214397E+03  0.81382714802E+03  0.65864270000E+03 0. -1.
    8880022    1    1    2    0    0 -0.67113625966E+02  0.44578923185E+03  0.57843056712E+03  0.74913673786E+03  0.15294330000E+03 0.  1.
<mgrwt>
<rscale>  0 0.70141713E+03</rscale>
<asrwt>0</asrwt>
<pdfrwt beam="1">  1        1 0.63504706E-01 0.79814941E+03</pdfrwt>
<pdfrwt beam="2">  1       -1 0.17695128E+00 0.79814941E+03</pdfrwt>
<totfact> 0.12888764E+01</totfact>
</mgrwt>
</event>
<event>
 4    1  0.4055965E-007  0.7176936E+03  0.7818608E-02  0.9930469E-01
          1   -1    0    0  501    0  0.00000000000E+00  0.00000000000E+00  0.39208557322E+03  0.39208557325E+03  0.50400000000E-02 0. -1.
         -1   -1    0    0    0  501 -0.00000000000E+00 -0.00000000000E+00 -0.11840588704E+04  0.11840588704E+04  0.50400000000E-02 0.  1.
    8880023    1    1    2    0    0 -0.27651544121E+03 -0.69376728027E+02  0.31746116605E+01  0.71770063678E+03  0.65864270000E+03 0. -1.
    8880022    1    1    2    0    0  0.27651544121E+03  0.69376728027E+02 -0.79514790879E+03  0.85844380683E+03  0.15294330000E+03 0.  0.
<mgrwt>
<rscale>  0 0.58807104E+03</rscale>
<asrwt>0</asrwt>
<pdfrwt beam="1">  1        1 0.60320858E-01 0.71769362E+03</pdfrwt>
<pdfrwt beam="2">  1       -1 0.18216290E+00 0.71769362E+03</pdfrwt>
<totfact> 0.12782562E+01</totfact>
</mgrwt>
</event>
<event>
 4    1  0.4055965E-007  0.8711651E+03  0.7818608E-02  0.9574003E-01
         -1   -1    0    0    0  501 -0.00000000000E+00  0.00000000000E+00  0.13959234973E+04  0.13959234973E+04  0.50400000000E-02 0.  1.
          1   -1    0    0  501    0  0.00000000000E+00 -0.00000000000E+00 -0.11359507180E+04  0.11359507180E+04  0.50400000000E-02 0. -1.
    8880023    1    1    2    0    0 -0.48688524368E+03  0.29675107107E+03 -0.88614508262E+03  0.12426510984E+04  0.65864270000E+03 0.  0.
    8880022    1    1    2    0    0  0.48688524368E+03 -0.29675107107E+03  0.11461178619E+04  0.12892231169E+04  0.15294330000E+03 0.  0.
<mgrwt>
<rscale>  0 0.79040972E+03</rscale>
<asrwt>0</asrwt>
<pdfrwt beam="1">  1        1 0.17476165E+00 0.87116511E+03</pdfrwt>
<pdfrwt beam="2">  1       -1 0.21475746E+00 0.87116511E+03</pdfrwt>
<totfact> 0.14583912E+00</totfact>
</mgrwt>
</event>
<event>
 4    1  0.4055965E-007  0.1564519E+04  0.7818608E-02  0.8865371E-01
         -1   -1    0    0    0  501 -0.00000000000E+00  0.00000000000E+00  0.17583981587E+04  0.17583981587E+04  0.50400000000E-02 0.  1.
          1   -1    0    0  501    0  0.00000000000E+00 -0.00000000000E+00 -0.15667524834E+04  0.15667524835E+04  0.50400000000E-02 0. -1.
    8880023    1    1    2    0    0  0.66866860749E+03  0.12517153259E+04 -0.62033532631E+03  0.16830136918E+04  0.65864270000E+03 0.  0.
    8880022    1    1    2    0    0 -0.66866860749E+03 -0.12517153259E+04  0.81198100154E+03  0.16421369503E+04  0.15294330000E+03 0.  0.
<mgrwt>
<rscale>  0 0.15290352E+04</rscale>
<asrwt>0</asrwt>
<pdfrwt beam="1">  1        1 0.24103884E+00 0.15645188E+04</pdfrwt>
<pdfrwt beam="2">  1       -1 0.27052279E+00 0.15645188E+04</pdfrwt>
<totfact> 0.28294949E-01</totfact>
</mgrwt>
</event>
<event>
 4    1  0.4055965E-007  0.7208978E+03  0.7818608E-02  0.9919560E-01
          1   -1    0    0  501    0  0.00000000000E+00  0.00000000000E+00  0.13790547192E+04  0.13790547192E+04  0.50400000000E-02 0. -1.
         -1   -1    0    0    0  501 -0.00000000000E+00 -0.00000000000E+00 -0.26215674697E+03  0.26215674702E+03  0.50400000000E-02 0.  1.
    8880023    1    1    2    0    0 -0.28307712392E+03 -0.75834315576E+02  0.10935915468E+04  0.13098229571E+04  0.65864270000E+03 0. -1.
    8880022    1    1    2    0    0  0.28307712392E+03  0.75834315576E+02  0.23306425460E+02  0.33138850913E+03  0.15294330000E+03 0.  0.
<mgrwt>
<rscale>  0 0.59322641E+03</rscale>
<asrwt>0</asrwt>
<pdfrwt beam="1">  1        1 0.21216226E+00 0.72089785E+03</pdfrwt>
<pdfrwt beam="2">  1       -1 0.40331808E-01 0.72089785E+03</pdfrwt>
<totfact> 0.49130767E+01</totfact>
</mgrwt>
</event>
<event>
 4    1  0.4055965E-007  0.7387956E+03  0.7818608E-02  0.9863469E-01
          1   -1    0    0  501    0  0.00000000000E+00  0.00000000000E+00  0.35805365703E+04  0.35805365703E+04  0.50400000000E-02 0. -1.
         -1   -1    0    0    0  501 -0.00000000000E+00 -0.00000000000E+00 -0.21372988859E+03  0.21372988865E+03  0.50400000000E-02 0.  1.
    8880023    1    1    2    0    0  0.25454084007E+03 -0.21729634917E+03  0.33450404306E+04  0.34256553287E+04  0.65864270000E+03 0. -1.
    8880022    1    1    2    0    0 -0.25454084007E+03  0.21729634917E+03  0.21766251104E+02  0.36861113022E+03  0.15294330000E+03 0.  0.
<mgrwt>
<rscale>  0 0.62064851E+03</rscale>
<asrwt>0</asrwt>
<pdfrwt beam="1">  1        1 0.55085176E+00 0.73879561E+03</pdfrwt>
<pdfrwt beam="2">  1       -1 0.32881522E-01 0.73879561E+03</pdfrwt>
<totfact> 0.20397438E+00</totfact>
</mgrwt>
</event>
<event>
 4    1  0.4055965E-007  0.6803999E+03  0.7818608E-02  0.1009098E+00
         -1   -1    0    0    0  501 -0.00000000000E+00  0.00000000000E+00  0.10908241467E+03  0.10908241479E+03  0.50400000000E-02 0.  1.
          1   -1    0    0  501    0  0.00000000000E+00 -0.00000000000E+00 -0.22845271950E+04  0.22845271950E+04  0.50400000000E-02 0. -1.
    8880023    1    1    2    0    0  0.11484230915E+03  0.12627366197E+03 -0.19757686668E+04  0.20896425112E+04  0.65864270000E+03 0. -1.
    8880022    1    1    2    0    0 -0.11484230915E+03 -0.12627366197E+03 -0.19967611345E+03  0.30396709850E+03  0.15294330000E+03 0.  0.
<mgrwt>
<rscale>  0 0.51834557E+03</rscale>
<asrwt>0</asrwt>
<pdfrwt beam="1">  1        1 0.35146569E+00 0.68039988E+03</pdfrwt>
<pdfrwt beam="2">  1       -1 0.16781912E-01 0.68039988E+03</pdfrwt>
<totfact> 0.54653990E+01</totfact>
</mgrwt>
</event>
<event>
 4    1  0.4055965E-007  0.6732945E+03  0.7818608E-02  0.1013404E+00
         -1   -1    0    0    0  501 -0.00000000000E+00  0.00000000000E+00  0.34016467642E+03  0.34016467645E+03  0.50400000000E-02 0.  1.
          1   -1    0    0  501    0  0.00000000000E+00 -0.00000000000E+00 -0.66297705951E+03  0.66297705953E+03  0.50400000000E-02 0. -1.
    8880023    1    1    2    0    0  0.13153406975E+03  0.47053342497E+02 -0.39875935010E+03  0.78251802158E+03  0.65864270000E+03 0. -1.
    8880022    1    1    2    0    0 -0.13153406975E+03 -0.47053342497E+02  0.75946967008E+02  0.22062371440E+03  0.15294330000E+03 0.  1.
<mgrwt>
<rscale>  0 0.50144078E+03</rscale>
<asrwt>0</asrwt>
<pdfrwt beam="1">  1        1 0.10199647E+00 0.67329446E+03</pdfrwt>
<pdfrwt beam="2">  1       -1 0.52333027E-01 0.67329446E+03</pdfrwt>
<totfact> 0.11129918E+02</totfact>
</mgrwt>
</event>
<event>
 4    1  0.4055965E-007  0.7825302E+03  0.7818608E-02  0.9749927E-01
         -1   -1    0    0    0  501 -0.00000000000E+00  0.00000000000E+00  0.14854668718E+04  0.14854668718E+04  0.50400000000E-02 0.  1.
          1   -1    0    0  501    0  0.00000000000E+00 -0.00000000000E+00 -0.37828862487E+03  0.37828862491E+03  0.50400000000E-02 0. -1.
    8880023    1    1    2    0    0  0.44577460417E+02  0.42018584644E+03  0.11725124234E+04  0.14096591378E+04  0.65864270000E+03 0.  1.
    8880022    1    1    2    0    0 -0.44577460417E+02 -0.42018584644E+03 -0.65334176491E+02  0.45409635889E+03  0.15294330000E+03 0.  0.
<mgrwt>
<rscale>  0 0.68120412E+03</rscale>
<asrwt>0</asrwt>
<pdfrwt beam="1">  1        1 0.58198251E-01 0.78253019E+03</pdfrwt>
<pdfrwt beam="2">  1       -1 0.22853336E+00 0.78253019E+03</pdfrwt>
<totfact> 0.64358095E+00</totfact>
</mgrwt>
</event>
<event>
 4    1  0.4055965E-007  0.7524690E+03  0.7818608E-02  0.9825010E-01
         -1   -1    0    0    0  501 -0.00000000000E+00  0.00000000000E+00  0.10275394295E+04  0.10275394295E+04  0.50400000000E-02 0.  1.
          1   -1    0    0  501    0  0.00000000000E+00 -0.00000000000E+00 -0.43676333205E+03  0.43676333208E+03  0.50400000000E-02 0. -1.
    8880023    1    1    2    0    0 -0.29471998167E+03 -0.21339992889E+03 -0.16036910177E+01  0.75247071394E+03  0.65864270000E+03 0.  0.
    8880022    1    1    2    0    0  0.29471998167E+03  0.21339992889E+03  0.59237978842E+03  0.71183204760E+03  0.15294330000E+03 0.  0.
<mgrwt>
<rscale>  0 0.64037486E+03</rscale>
<asrwt>0</asrwt>
<pdfrwt beam="1">  1        1 0.67194358E-01 0.75246901E+03</pdfrwt>
<pdfrwt beam="2">  1       -1 0.15808299E+00 0.75246901E+03</pdfrwt>
<totfact> 0.16545822E+01</totfact>
</mgrwt>
</event>
<event>
 4    1  0.4055965E-007  0.9770322E+03  0.7818608E-02  0.9412243E-01
         -1   -1    0    0    0  501 -0.00000000000E+00  0.00000000000E+00  0.11753556808E+04  0.11753556808E+04  0.50400000000E-02 0.  1.
          1   -1    0    0  501    0  0.00000000000E+00 -0.00000000000E+00 -0.17007458840E+04  0.17007458840E+04  0.50400000000E-02 0. -1.
    8880023    1    1    2    0    0 -0.69398104202E+03 -0.19791908825E+03 -0.14155583521E+04  0.17199992170E+04  0.65864270000E+03 0.  0.
    8880022    1    1    2    0    0  0.69398104202E+03  0.19791908825E+03  0.89016814884E+03  0.11561023477E+04  0.15294330000E+03 0.  0.
<mgrwt>
<rscale>  0 0.91074921E+03</rscale>
<asrwt>0</asrwt>
<pdfrwt beam="1">  1        1 0.26165321E+00 0.97703217E+03</pdfrwt>
<pdfrwt beam="2">  1       -1 0.18082395E+00 0.97703217E+03</pdfrwt>
<totfact> 0.98893573E-01</totfact>
</mgrwt>
</event>
<event>
 4    1  0.4055965E-007  0.7992443E+03  0.7818608E-02  0.9712432E-01
          1   -1    0    0  501    0  0.00000000000E+00  0.00000000000E+00  0.25258356250E+04  0.25258356250E+04  0.50400000000E-02 0. -1.
         -1   -1    0    0    0  501 -0.00000000000E+00 -0.00000000000E+00 -0.35354530087E+03  0.35354530091E+03  0.50400000000E-02 0.  1.
    8880023    1    1    2    0    0  0.86891314520E+02  0.44433225859E+03  0.22567424295E+04  0.23940922822E+04  0.65864270000E+03 0. -1.
    8880022    1    1    2    0    0 -0.86891314520E+02 -0.44433225859E+03 -0.84452105355E+02  0.48528864368E+03  0.15294330000E+03 0.  0.
<mgrwt>
<rscale>  0 0.70281373E+03</rscale>
<asrwt>0</asrwt>
<pdfrwt beam="1">  1        1 0.38859010E+00 0.79924431E+03</pdfrwt>
<pdfrwt beam="2">  1       -1 0.54391584E-01 0.79924431E+03</pdfrwt>
<totfact> 0.46617179E+00</totfact>
</mgrwt>
</event>
<event>
 4    1  0.4055965E-007  0.8562059E+03  0.7818608E-02  0.9600348E-01
          1   -1    0    0  501    0  0.00000000000E+00  0.00000000000E+00  0.18584255857E+04  0.18584255857E+04  0.50400000000E-02 0. -1.
         -1   -1    0    0    0  501 -0.00000000000E+00 -0.00000000000E+00 -0.57823027285E+03  0.57823027287E+03  0.50400000000E-02 0.  1.
    8880023    1    1    2    0    0  0.40631685492E+03  0.36631253503E+03  0.15779736809E+04  0.17952964668E+04  0.65864270000E+03 0. -1.
    8880022    1    1    2    0    0 -0.40631685492E+03 -0.36631253503E+03 -0.29777836804E+03  0.64135939176E+03  0.15294330000E+03 0.  0.
<mgrwt>
<rscale>  0 0.77273121E+03</rscale>
<asrwt>0</asrwt>
<pdfrwt beam="1">  1        1 0.28591163E+00 0.85620586E+03</pdfrwt>
<pdfrwt beam="2">  1       -1 0.88958503E-01 0.85620586E+03</pdfrwt>
<totfact> 0.47453149E+00</totfact>
</mgrwt>
</event>
<event>
 4    1  0.4055965E-007  0.7391343E+03  0.7818608E-02  0.9862476E-01
         -1   -1    0    0    0  501 -0.00000000000E+00  0.00000000000E+00  0.53349312433E+03  0.53349312435E+03  0.50400000000E-02 0.  1.
          1   -1    0    0  501    0  0.00000000000E+00 -0.00000000000E+00 -0.12007626493E+04  0.12007626493E+04  0.50400000000E-02 0. -1.
    8880023    1    1    2    0    0 -0.26760090447E+03  0.20223518759E+03 -0.99602138494E+03  0.12403137187E+04  0.65864270000E+03 0. -1.
    8880022    1    1    2    0    0  0.26760090447E+03 -0.20223518759E+03  0.32875186002E+03  0.49394205495E+03  0.15294330000E+03 0.  0.
<mgrwt>
<rscale>  0 0.62114835E+03</rscale>
<asrwt>0</asrwt>
<pdfrwt beam="1">  1        1 0.18473271E+00 0.73913431E+03</pdfrwt>
<pdfrwt beam="2">  1       -1 0.82075866E-01 0.73913431E+03</pdfrwt>
<totfact> 0.16289531E+01</totfact>
</mgrwt>
</event>
<event>
 4    1  0.4055965E-007  0.6801082E+03  0.7818608E-02  0.1009262E+00
         -1   -1    0    0    0  501 -0.00000000000E+00  0.00000000000E+00  0.10894997402E+04  0.10894997403E+04  0.50400000000E-02 0.  1.
          1   -1    0    0  501    0  0.00000000000E+00 -0.00000000000E+00 -0.28750454240E+03  0.28750454244E+03  0.50400000000E-02 0. -1.
    8880023    1    1    2    0    0 -0.39297210950E+02 -0.16490220553E+03  0.16430582570E+03  0.69967393749E+03  0.65864270000E+03 0.  0.
    8880022    1    1    2    0    0  0.39297210950E+02  0.16490220553E+03  0.63768937214E+03  0.67733034521E+03  0.15294330000E+03 0.  0.
<mgrwt>
<rscale>  0 0.51768800E+03</rscale>
<asrwt>0</asrwt>
<pdfrwt beam="1">  1        1 0.44231468E-01 0.68010824E+03</pdfrwt>
<pdfrwt beam="2">  1       -1 0.16761535E+00 0.68010824E+03</pdfrwt>
<totfact> 0.24501307E+01</totfact>
</mgrwt>
</event>
<event>
 4    1  0.4055965E-007  0.6640745E+03  0.7818608E-02  0.1020323E+00
          1   -1    0    0  501    0  0.00000000000E+00  0.00000000000E+00  0.68708220188E+03  0.68708220190E+03  0.50400000000E-02 0. -1.
         -1   -1    0    0    0  501 -0.00000000000E+00 -0.00000000000E+00 -0.37023822393E+03  0.37023822396E+03  0.50400000000E-02 0.  1.
    8880023    1    1    2    0    0 -0.28934789275E+01 -0.84713042482E+02  0.47903377986E+03  0.81882125051E+03  0.65864270000E+03 0. -1.
    8880022    1    1    2    0    0  0.28934789275E+01  0.84713042482E+02 -0.16218980190E+03  0.23849917535E+03  0.15294330000E+03 0.  0.
<mgrwt>
<rscale>  0 0.47570284E+03</rscale>
<asrwt>0</asrwt>
<pdfrwt beam="1">  1        1 0.10570495E+00 0.66407445E+03</pdfrwt>
<pdfrwt beam="2">  1       -1 0.56959727E-01 0.66407445E+03</pdfrwt>
<totfact> 0.89727407E+01</totfact>
</mgrwt>
</event>
<event>
 4    1  0.4055965E-007  0.6883728E+03  0.7818608E-02  0.1004936E+00
         -1   -1    0    0    0  501 -0.00000000000E+00  0.00000000000E+00  0.74674959606E+03  0.74674959608E+03  0.50400000000E-02 0.  1.
          1   -1    0    0  501    0  0.00000000000E+00 -0.00000000000E+00 -0.38601029123E+03  0.38601029126E+03  0.50400000000E-02 0. -1.
    8880023    1    1    2    0    0  0.19668449475E+03  0.36907479368E+02 -0.53518827841E+01  0.68839363842E+03  0.65864270000E+03 0. -1.
    8880022    1    1    2    0    0 -0.19668449475E+03 -0.36907479368E+02  0.36609118762E+03  0.44436624892E+03  0.15294330000E+03 0.  1.
<mgrwt>
<rscale>  0 0.53537982E+03</rscale>
<asrwt>0</asrwt>
<pdfrwt beam="1">  1        1 0.59386199E-01 0.68837283E+03</pdfrwt>
<pdfrwt beam="2">  1       -1 0.11488455E+00 0.68837283E+03</pdfrwt>
<totfact> 0.44447264E+01</totfact>
</mgrwt>
</event>
<event>
 4    1  0.4055965E-007  0.7738517E+03  0.7818608E-02  0.9770483E-01
         -1   -1    0    0    0  501 -0.00000000000E+00  0.00000000000E+00  0.15103053521E+04  0.15103053521E+04  0.50400000000E-02 0.  1.
          1   -1    0    0  501    0  0.00000000000E+00 -0.00000000000E+00 -0.79141395660E+03  0.79141395662E+03  0.50400000000E-02 0. -1.
    8880023    1    1    2    0    0  0.29706596886E+03  0.27710650288E+03 -0.55735446864E+03  0.95367206825E+03  0.65864270000E+03 0. -1.
    8880022    1    1    2    0    0 -0.29706596886E+03 -0.27710650288E+03  0.12762458641E+04  0.13480472405E+04  0.15294330000E+03 0.  0.
<mgrwt>
<rscale>  0 0.66970946E+03</rscale>
<asrwt>0</asrwt>
<pdfrwt beam="1">  1        1 0.12175599E+00 0.77385167E+03</pdfrwt>
<pdfrwt beam="2">  1       -1 0.23235467E+00 0.77385167E+03</pdfrwt>
<totfact> 0.21306698E+00</totfact>
</mgrwt>
</event>
<event>
 4    1  0.4055965E-007  0.1231474E+04  0.7818608E-02  0.9127118E-01
         -1   -1    0    0    0  501 -0.00000000000E+00  0.00000000000E+00  0.65520357858E+03  0.65520357859E+03  0.50400000000E-02 0.  1.
          1   -1    0    0  501    0  0.00000000000E+00 -0.00000000000E+00 -0.31144314962E+04  0.31144314962E+04  0.50400000000E-02 0. -1.
    8880023    1    1    2    0    0 -0.17275493722E+03  0.10260963662E+04 -0.24221899561E+04  0.27172656128E+04  0.65864270000E+03 0.  0.
    8880022    1    1    2    0    0  0.17275493722E+03 -0.10260963662E+04 -0.37037961602E+02  0.10523694620E+04  0.15294330000E+03 0.  0.
<mgrwt>
<rscale>  0 0.11838419E+04</rscale>
<asrwt>0</asrwt>
<pdfrwt beam="1">  1        1 0.47914330E+00 0.12314740E+04</pdfrwt>
<pdfrwt beam="2">  1       -1 0.10080055E+00 0.12314740E+04</pdfrwt>
<totfact> 0.45763645E-01</totfact>
</mgrwt>
</event>
<event>
 4    1  0.4055965E-007  0.7245866E+03  0.7818608E-02  0.9907361E-01
          1   -1    0    0  501    0  0.00000000000E+00  0.00000000000E+00  0.28764790233E+04  0.28764790233E+04  0.50400000000E-02 0. -1.
         -1   -1    0    0    0  501 -0.00000000000E+00 -0.00000000000E+00 -0.98552876563E+02  0.98552876692E+02  0.50400000000E-02 0.  1.
    8880023    1    1    2    0    0 -0.29762099334E+03  0.51355060796E+02  0.18123938358E+04  0.19518701853E+04  0.65864270000E+03 0.  1.
    8880022    1    1    2    0    0  0.29762099334E+03 -0.51355060796E+02  0.96553231092E+03  0.10231617147E+04  0.15294330000E+03 0. -1.
<mgrwt>
<rscale>  0 0.59905853E+03</rscale>
<asrwt>0</asrwt>
<pdfrwt beam="1">  1        1 0.44253518E+00 0.72458664E+03</pdfrwt>
<pdfrwt beam="2">  1       -1 0.15161983E-01 0.72458664E+03</pdfrwt>
<totfact> 0.25130640E+01</totfact>
</mgrwt>
</event>
<event>
 4    1  0.4055965E-007  0.7336078E+03  0.7818608E-02  0.9878974E-01
          1   -1    0    0  501    0  0.00000000000E+00  0.00000000000E+00  0.13119586543E+04  0.13119586543E+04  0.50400000000E-02 0. -1.
         -1   -1    0    0    0  501 -0.00000000000E+00 -0.00000000000E+00 -0.36763960721E+03  0.36763960724E+03  0.50400000000E-02 0.  1.
    8880023    1    1    2    0    0  0.21594676750E+03 -0.24028578311E+03  0.10729066162E+04  0.12997342334E+04  0.65864270000E+03 0. -1.
    8880022    1    1    2    0    0 -0.21594676750E+03  0.24028578311E+03 -0.12858756914E+03  0.37986402819E+03  0.15294330000E+03 0.  0.
<mgrwt>
<rscale>  0 0.61291204E+03</rscale>
<asrwt>0</asrwt>
<pdfrwt beam="1">  1        1 0.20183979E+00 0.73360784E+03</pdfrwt>
<pdfrwt beam="2">  1       -1 0.56559940E-01 0.73360784E+03</pdfrwt>
<totfact> 0.28964488E+01</totfact>
</mgrwt>
</event>
<event>
 4    1  0.4055965E-007  0.6905113E+03  0.7818608E-02  0.1003911E+00
         -1   -1    0    0    0  501 -0.00000000000E+00  0.00000000000E+00  0.46677533338E+03  0.46677533341E+03  0.50400000000E-02 0.  1.
          1   -1    0    0  501    0  0.00000000000E+00 -0.00000000000E+00 -0.10442180956E+04  0.10442180956E+04  0.50400000000E-02 0. -1.
    8880023    1    1    2    0    0  0.12737820947E+03 -0.16361656619E+03 -0.87677744440E+03  0.11160396419E+04  0.65864270000E+03 0. -1.
    8880022    1    1    2    0    0 -0.12737820947E+03  0.16361656619E+03  0.29933468220E+03  0.39495378712E+03  0.15294330000E+03 0.  0.
<mgrwt>
<rscale>  0 0.53968289E+03</rscale>
<asrwt>0</asrwt>
<pdfrwt beam="1">  1        1 0.16064894E+00 0.69051126E+03</pdfrwt>
<pdfrwt beam="2">  1       -1 0.71811590E-01 0.69051126E+03</pdfrwt>
<totfact> 0.28323904E+01</totfact>
</mgrwt>
</event>
<event>
 4    1  0.4055965E-007  0.1783692E+04  0.7818608E-02  0.8731611E-01
          1   -1    0    0  501    0  0.00000000000E+00  0.00000000000E+00  0.21504762256E+04  0.21504762256E+04  0.50400000000E-02 0. -1.
         -1   -1    0    0    0  501 -0.00000000000E+00 -0.00000000000E+00 -0.16682738315E+04  0.16682738315E+04  0.50400000000E-02 0.  1.
    8880023    1    1    2    0    0 -0.98940243906E+03 -0.13299739939E+04 -0.54201608702E+03  0.18642262888E+04  0.65864270000E+03 0.  1.
    8880022    1    1    2    0    0  0.98940243906E+03  0.13299739939E+04  0.10242184812E+04  0.19545237684E+04  0.15294330000E+03 0.  0.
<mgrwt>
<rscale>  0 0.17531628E+04</rscale>
<asrwt>0</asrwt>
<pdfrwt beam="1">  1        1 0.33084249E+00 0.17836923E+04</pdfrwt>
<pdfrwt beam="2">  1       -1 0.25665751E+00 0.17836923E+04</pdfrwt>
<totfact> 0.13561457E-01</totfact>
</mgrwt>
</event>
<event>
 4    1  0.4055965E-007  0.7006596E+03  0.7818608E-02  0.9994476E-01
         -1   -1    0    0    0  501 -0.00000000000E+00  0.00000000000E+00  0.20934154319E+03  0.20934154325E+03  0.50400000000E-02 0.  1.
          1   -1    0    0  501    0  0.00000000000E+00 -0.00000000000E+00 -0.32233740172E+04  0.32233740172E+04  0.50400000000E-02 0. -1.
    8880023    1    1    2    0    0 -0.17951444278E+03 -0.15775999832E+03 -0.30653245994E+04  0.31443820949E+04  0.65864270000E+03 0. -1.
    8880022    1    1    2    0    0  0.17951444278E+03  0.15775999832E+03  0.51292125443E+02  0.28833346559E+03  0.15294330000E+03 0.  0.
<mgrwt>
<rscale>  0 0.55893122E+03</rscale>
<asrwt>0</asrwt>
<pdfrwt beam="1">  1        1 0.49590366E+00 0.70065959E+03</pdfrwt>
<pdfrwt beam="2">  1       -1 0.32206394E-01 0.70065959E+03</pdfrwt>
<totfact> 0.39856328E+00</totfact>
</mgrwt>
</event>
<event>
 4    1  0.4055965E-007  0.6690061E+03  0.7818608E-02  0.1016386E+00
         -1   -1    0    0    0  501 -0.00000000000E+00  0.00000000000E+00  0.11280658117E+04  0.11280658117E+04  0.50400000000E-02 0.  1.
          1   -1    0    0  501    0  0.00000000000E+00 -0.00000000000E+00 -0.20426566976E+03  0.20426566982E+03  0.50400000000E-02 0. -1.
    8880023    1    1    2    0    0 -0.10908368498E+03  0.43124730149E+02  0.41261438312E+03  0.78601515768E+03  0.65864270000E+03 0. -1.
    8880022    1    1    2    0    0  0.10908368498E+03 -0.43124730149E+02  0.51118575879E+03  0.54631632383E+03  0.15294330000E+03 0.  0.
<mgrwt>
<rscale>  0 0.49013799E+03</rscale>
<asrwt>0</asrwt>
<pdfrwt beam="1">  1        1 0.31425487E-01 0.66900613E+03</pdfrwt>
<pdfrwt beam="2">  1       -1 0.17354859E+00 0.66900613E+03</pdfrwt>
<totfact> 0.34535001E+01</totfact>
</mgrwt>
</event>
<event>
 4    1  0.4055965E-007  0.6765401E+03  0.7818608E-02  0.1011353E+00
          1   -1    0    0  501    0  0.00000000000E+00  0.00000000000E+00  0.13891088715E+04  0.13891088715E+04  0.50400000000E-02 0. -1.
         -1   -1    0    0    0  501 -0.00000000000E+00 -0.00000000000E+00 -0.49888406035E+03  0.49888406037E+03  0.50400000000E-02 0.  1.
    8880023    1    1    2    0    0  0.13227866177E+03 -0.79991658147E+02  0.12765076687E+04  0.14447070098E+04  0.65864270000E+03 0. -1.
    8880022    1    1    2    0    0 -0.13227866177E+03  0.79991658147E+02 -0.38628285749E+03  0.44328592211E+03  0.15294330000E+03 0.  0.
<mgrwt>
<rscale>  0 0.50940592E+03</rscale>
<asrwt>0</asrwt>
<pdfrwt beam="1">  1        1 0.21370906E+00 0.67654011E+03</pdfrwt>
<pdfrwt beam="2">  1       -1 0.76751394E-01 0.67654011E+03</pdfrwt>
<totfact> 0.13938494E+01</totfact>
</mgrwt>
</event>
<event>
 4    1  0.4055965E-007  0.8452372E+03  0.7818608E-02  0.9620383E-01
         -1   -1    0    0    0  501 -0.00000000000E+00  0.00000000000E+00  0.48017217627E+03  0.48017217630E+03  0.50400000000E-02 0.  1.
          1   -1    0    0  501    0  0.00000000000E+00 -0.00000000000E+00 -0.11360936073E+04  0.11360936073E+04  0.50400000000E-02 0. -1.
    8880023    1    1    2    0    0  0.49264645604E+03  0.19471801070E+03 -0.13164279496E+03  0.85542718338E+03  0.65864270000E+03 0.  0.
    8880022    1    1    2    0    0 -0.49264645604E+03 -0.19471801070E+03 -0.52427863608E+03  0.76083860024E+03  0.15294330000E+03 0.  0.
<mgrwt>
<rscale>  0 0.75961657E+03</rscale>
<asrwt>0</asrwt>
<pdfrwt beam="1">  1        1 0.17478363E+00 0.84523715E+03</pdfrwt>
<pdfrwt beam="2">  1       -1 0.73872643E-01 0.84523715E+03</pdfrwt>
<totfact> 0.22395734E+01</totfact>
</mgrwt>
</event>
<event>
 4    1  0.4055965E-007  0.7703594E+03  0.7818608E-02  0.9778990E-01
         -1   -1    0    0    0  501 -0.00000000000E+00  0.00000000000E+00  0.15030958565E+04  0.15030958565E+04  0.50400000000E-02 0.  1.
          1   -1    0    0  501    0  0.00000000000E+00 -0.00000000000E+00 -0.47042037384E+03  0.47042037386E+03  0.50400000000E-02 0. -1.
    8880023    1    1    2    0    0 -0.31290801995E+03 -0.24845928522E+03 -0.86648273959E+02  0.77521711475E+03  0.65864270000E+03 0. -1.
    8880022    1    1    2    0    0  0.31290801995E+03  0.24845928522E+03  0.11193237567E+04  0.11982991157E+04  0.15294330000E+03 0.  0.
<mgrwt>
<rscale>  0 0.66502328E+03</rscale>
<asrwt>0</asrwt>
<pdfrwt beam="1">  1        1 0.72372365E-01 0.77035943E+03</pdfrwt>
<pdfrwt beam="2">  1       -1 0.23124552E+00 0.77035943E+03</pdfrwt>
<totfact> 0.46227469E+00</totfact>
</mgrwt>
</event>
<event>
 4    1  0.4055965E-007  0.7567836E+03  0.7818608E-02  0.9813507E-01
         -1   -1    0    0    0  501 -0.00000000000E+00  0.00000000000E+00  0.93633754284E+03  0.93633754285E+03  0.50400000000E-02 0.  1.
          1   -1    0    0  501    0  0.00000000000E+00 -0.00000000000E+00 -0.71644070734E+03  0.71644070736E+03  0.50400000000E-02 0. -1.
    8880023    1    1    2    0    0  0.36696630503E+03 -0.65168327096E+02 -0.44311240939E+03  0.87696635825E+03  0.65864270000E+03 0. -1.
    8880022    1    1    2    0    0 -0.36696630503E+03  0.65168327096E+02  0.66300924489E+03  0.77581189196E+03  0.15294330000E+03 0.  0.
<mgrwt>
<rscale>  0 0.64642707E+03</rscale>
<asrwt>0</asrwt>
<pdfrwt beam="1">  1        1 0.11022165E+00 0.75678358E+03</pdfrwt>
<pdfrwt beam="2">  1       -1 0.14405193E+00 0.75678358E+03</pdfrwt>
<totfact> 0.10525299E+01</totfact>
</mgrwt>
</event>
<event>
 4    1  0.4055965E-007  0.8318256E+03  0.7818608E-02  0.9645791E-01
          1   -1    0    0  501    0  0.00000000000E+00  0.00000000000E+00  0.19311254439E+04  0.19311254439E+04  0.50400000000E-02 0. -1.
         -1   -1    0    0    0  501 -0.00000000000E+00 -0.00000000000E+00 -0.36192270206E+03  0.36192270209E+03  0.50400000000E-02 0.  1.
    8880023    1    1    2    0    0  0.29009156248E+02  0.50722979918E+03  0.15535595017E+04  0.17622374789E+04  0.65864270000E+03 0.  0.
    8880022    1    1    2    0    0 -0.29009156248E+02 -0.50722979918E+03  0.15643240102E+02  0.53081066709E+03  0.15294330000E+03 0.  0.
<mgrwt>
<rscale>  0 0.74338184E+03</rscale>
<asrwt>0</asrwt>
<pdfrwt beam="1">  1        1 0.29709622E+00 0.83182559E+03</pdfrwt>
<pdfrwt beam="2">  1       -1 0.55680416E-01 0.83182559E+03</pdfrwt>
<totfact> 0.11169106E+01</totfact>
</mgrwt>
</event>
<event>
 4    1  0.4055965E-007  0.7431232E+03  0.7818608E-02  0.9850941E-01
          1   -1    0    0  501    0  0.00000000000E+00  0.00000000000E+00  0.39072694089E+04  0.39072694089E+04  0.50400000000E-02 0. -1.
         -1   -1    0    0    0  501 -0.00000000000E+00 -0.00000000000E+00 -0.27812307785E+03  0.27812307790E+03  0.50400000000E-02 0.  1.
    8880023    1    1    2    0    0 -0.34033742434E+03  0.50914608801E+02  0.37236959482E+04  0.37971230663E+04  0.65864270000E+03 0. -1.
    8880022    1    1    2    0    0  0.34033742434E+03 -0.50914608801E+02 -0.94549617133E+02  0.38826942052E+03  0.15294330000E+03 0.  0.
<mgrwt>
<rscale>  0 0.62698956E+03</rscale>
<asrwt>0</asrwt>
<pdfrwt beam="1">  1        1 0.60111831E+00 0.74312318E+03</pdfrwt>
<pdfrwt beam="2">  1       -1 0.42788170E-01 0.74312318E+03</pdfrwt>
<totfact> 0.68840589E-01</totfact>
</mgrwt>
</event>
<event>
 4    1  0.4055965E-007  0.9345230E+03  0.7818608E-02  0.9472741E-01
         -1   -1    0    0    0  501 -0.00000000000E+00  0.00000000000E+00  0.15058917070E+04  0.15058917070E+04  0.50400000000E-02 0.  1.
          1   -1    0    0  501    0  0.00000000000E+00 -0.00000000000E+00 -0.14946851546E+04  0.14946851546E+04  0.50400000000E-02 0. -1.
    8880023    1    1    2    0    0  0.58822814598E+03 -0.30579516706E+03 -0.12540656623E+04  0.15639737618E+04  0.65864270000E+03 0.  0.
    8880022    1    1    2    0    0 -0.58822814598E+03  0.30579516706E+03  0.12652722147E+04  0.14366030998E+04  0.15294330000E+03 0.  0.
<mgrwt>
<rscale>  0 0.86323714E+03</rscale>
<asrwt>0</asrwt>
<pdfrwt beam="1">  1        1 0.22995156E+00 0.93452300E+03</pdfrwt>
<pdfrwt beam="2">  1       -1 0.23167565E+00 0.93452300E+03</pdfrwt>
<totfact> 0.61951785E-01</totfact>
</mgrwt>
</event>
<event>
 4    1  0.4055965E-007  0.7226939E+03  0.7818608E-02  0.9913574E-01
         -1   -1    0    0    0  501 -0.00000000000E+00  0.00000000000E+00  0.87091226850E+02  0.87091226996E+02  0.50400000000E-02 0.  1.
          1   -1    0    0  501    0  0.00000000000E+00 -0.00000000000E+00 -0.40892355073E+04  0.40892355073E+04  0.50400000000E-02 0. -1.
    8880023    1    1    2    0    0 -0.24051389042E+03  0.17501258169E+03 -0.34941952601E+04  0.35681489679E+04  0.65864270000E+03 0.  0.
    8880022    1    1    2    0    0  0.24051389042E+03 -0.17501258169E+03 -0.50794902032E+03  0.60817776636E+03  0.15294330000E+03 0.  0.
<mgrwt>
<rscale>  0 0.59607930E+03</rscale>
<asrwt>0</asrwt>
<pdfrwt beam="1">  1        1 0.62911301E+00 0.72269395E+03</pdfrwt>
<pdfrwt beam="2">  1       -1 0.13398653E-01 0.72269395E+03</pdfrwt>
<totfact> 0.34949322E+00</totfact>
</mgrwt>
</event>
<event>
 4    1  0.5089386E-007  0.8021558E+03  0.7818608E-02  0.9706154E-01
          1   -1    0    0  501    0  0.00000000000E+00  0.00000000000E+00  0.16179340507E+04  0.16179340507E+04  0.50400000000E-02 0. -1.
         -1   -1    0    0    0  501 -0.00000000000E+00 -0.00000000000E+00 -0.11782925708E+04  0.11782925708E+04  0.50400000000E-02 0.  1.
    8880023    1    1    2    0    0 -0.12032045278E+03  0.44177668407E+03  0.14608915198E+04  0.16666306996E+04  0.65864270000E+03 0. -1.
    8880022    1    1    2    0    0  0.12032045278E+03 -0.44177668407E+03 -0.10212500399E+04  0.11295959220E+04  0.15294330000E+03 0.  0.
<mgrwt>
<rscale>  0 0.70651558E+03</rscale>
<asrwt>0</asrwt>
<pdfrwt beam="1">  1        1 0.24891293E+00 0.80215576E+03</pdfrwt>
<pdfrwt beam="2">  1       -1 0.18127578E+00 0.80215576E+03</pdfrwt>
<totfact> 0.11515345E+00</totfact>
</mgrwt>
</event>
<event>
 4    1  0.4055965E-007  0.6851146E+03  0.7818608E-02  0.1006567E+00
         -1   -1    0    0    0  501 -0.00000000000E+00  0.00000000000E+00  0.11816872277E+03  0.11816872288E+03  0.50400000000E-02 0.  1.
          1   -1    0    0  501    0  0.00000000000E+00 -0.00000000000E+00 -0.26354463576E+04  0.26354463576E+04  0.50400000000E-02 0. -1.
    8880023    1    1    2    0    0  0.16653101609E+02 -0.18786827713E+03 -0.23757362716E+04  0.24725502733E+04  0.65864270000E+03 0. -1.
    8880022    1    1    2    0    0 -0.16653101609E+02  0.18786827713E+03 -0.14154136324E+03  0.28106480724E+03  0.15294330000E+03 0.  0.
<mgrwt>
<rscale>  0 0.52862208E+03</rscale>
<asrwt>0</asrwt>
<pdfrwt beam="1">  1        1 0.40545324E+00 0.68511460E+03</pdfrwt>
<pdfrwt beam="2">  1       -1 0.18179805E-01 0.68511460E+03</pdfrwt>
<totfact> 0.27651748E+01</totfact>
</mgrwt>
</event>
<event>
 4    1  0.4055965E-007  0.7135778E+03  0.7818608E-02  0.9944948E-01
         -1   -1    0    0    0  501 -0.00000000000E+00  0.00000000000E+00  0.31641425454E+03  0.31641425458E+03  0.50400000000E-02 0.  1.
          1   -1    0    0  501    0  0.00000000000E+00 -0.00000000000E+00 -0.95326275382E+03  0.95326275384E+03  0.50400000000E-02 0. -1.
    8880023    1    1    2    0    0 -0.25277679236E+03  0.10717724401E+03 -0.63527483827E+03  0.95538860931E+03  0.65864270000E+03 0. -1.
    8880022    1    1    2    0    0  0.25277679236E+03 -0.10717724401E+03 -0.15736610111E+01  0.31428839911E+03  0.15294330000E+03 0.  0.
<mgrwt>
<rscale>  0 0.58131526E+03</rscale>
<asrwt>0</asrwt>
<pdfrwt beam="1">  1        1 0.14665581E+00 0.71357780E+03</pdfrwt>
<pdfrwt beam="2">  1       -1 0.48679116E-01 0.71357780E+03</pdfrwt>
<totfact> 0.71313451E+01</totfact>
</mgrwt>
</event>
<event>
 4    1  0.4055965E-007  0.7111505E+03  0.7818608E-02  0.9953753E-01
          1   -1    0    0  501    0  0.00000000000E+00  0.00000000000E+00  0.42858628274E+03  0.42858628277E+03  0.50400000000E-02 0. -1.
         -1   -1    0    0    0  501 -0.00000000000E+00 -0.00000000000E+00 -0.13326401958E+04  0.13326401958E+04  0.50400000000E-02 0.  1.
    8880023    1    1    2    0    0 -0.25051817515E+03  0.95736153883E+02  0.93241242662E+02  0.71723699210E+03  0.65864270000E+03 0.  0.
    8880022    1    1    2    0    0  0.25051817515E+03 -0.95736153883E+02 -0.99729515569E+03  0.10439894865E+04  0.15294330000E+03 0.  0.
<mgrwt>
<rscale>  0 0.57725418E+03</rscale>
<asrwt>0</asrwt>
<pdfrwt beam="1">  1        1 0.65936352E-01 0.71115046E+03</pdfrwt>
<pdfrwt beam="2">  1       -1 0.20502157E+00 0.71115046E+03</pdfrwt>
<totfact> 0.78963073E+00</totfact>
</mgrwt>
</event>
<event>
 4    1  0.4055965E-007  0.7538478E+03  0.7818608E-02  0.9821303E-01
         -1   -1    0    0    0  501 -0.00000000000E+00  0.00000000000E+00  0.21108827028E+03  0.21108827034E+03  0.50400000000E-02 0.  1.
          1   -1    0    0  501    0  0.00000000000E+00 -0.00000000000E+00 -0.17917841121E+04  0.17917841121E+04  0.50400000000E-02 0. -1.
    8880023    1    1    2    0    0  0.33183370483E+03 -0.15608557674E+03 -0.13423445435E+04  0.15395373963E+04  0.65864270000E+03 0.  0.
    8880022    1    1    2    0    0 -0.33183370483E+03  0.15608557674E+03 -0.23835129830E+03  0.46333498610E+03  0.15294330000E+03 0.  0.
<mgrwt>
<rscale>  0 0.64231714E+03</rscale>
<asrwt>0</asrwt>
<pdfrwt beam="1">  1        1 0.27565908E+00 0.75384781E+03</pdfrwt>
<pdfrwt beam="2">  1       -1 0.32475120E-01 0.75384781E+03</pdfrwt>
<totfact> 0.37800633E+01</totfact>
</mgrwt>
</event>
<event>
 4    1  0.4055965E-007  0.6713826E+03  0.7818608E-02  0.1014690E+00
         -1   -1    0    0    0  501 -0.00000000000E+00  0.00000000000E+00  0.70825170396E+03  0.70825170397E+03  0.50400000000E-02 0.  1.
          1   -1    0    0  501    0  0.00000000000E+00 -0.00000000000E+00 -0.78763831539E+03  0.78763831540E+03  0.50400000000E-02 0. -1.
    8880023    1    1    2    0    0  0.11289065565E+03  0.64808358531E+02 -0.62328243130E+03  0.91609804000E+03  0.65864270000E+03 0. -1.
    8880022    1    1    2    0    0 -0.11289065565E+03 -0.64808358531E+02  0.54389581986E+03  0.57979197938E+03  0.15294330000E+03 0.  0.
<mgrwt>
<rscale>  0 0.49652290E+03</rscale>
<asrwt>0</asrwt>
<pdfrwt beam="1">  1        1 0.12117513E+00 0.67138263E+03</pdfrwt>
<pdfrwt beam="2">  1       -1 0.10896180E+00 0.67138263E+03</pdfrwt>
<totfact> 0.18365544E+01</totfact>
</mgrwt>
</event>
<event>
 4    1  0.4055965E-007  0.8338351E+03  0.7818608E-02  0.9641916E-01
          1   -1    0    0  501    0  0.00000000000E+00  0.00000000000E+00  0.13281433125E+04  0.13281433125E+04  0.50400000000E-02 0. -1.
         -1   -1    0    0    0  501 -0.00000000000E+00 -0.00000000000E+00 -0.58986016439E+03  0.58986016442E+03  0.50400000000E-02 0.  1.
    8880023    1    1    2    0    0 -0.50492986077E+03 -0.80725054941E+02  0.10176104031E+04  0.13156032219E+04  0.65864270000E+03 0. -1.
    8880022    1    1    2    0    0  0.50492986077E+03  0.80725054941E+02 -0.27932725501E+03  0.60240025498E+03  0.15294330000E+03 0.  0.
<mgrwt>
<rscale>  0 0.74582939E+03</rscale>
<asrwt>0</asrwt>
<pdfrwt beam="1">  1        1 0.20432974E+00 0.83383506E+03</pdfrwt>
<pdfrwt beam="2">  1       -1 0.90747718E-01 0.83383506E+03</pdfrwt>
<totfact> 0.10490360E+01</totfact>
</mgrwt>
</event>
<event>
 4    1  0.4055965E-007  0.6705404E+03  0.7818608E-02  0.1015278E+00
          1   -1    0    0  501    0  0.00000000000E+00  0.00000000000E+00  0.51967229197E+03  0.51967229200E+03  0.50400000000E-02 0. -1.
         -1   -1    0    0    0  501 -0.00000000000E+00 -0.00000000000E+00 -0.36495954496E+03  0.36495954499E+03  0.50400000000E-02 0.  1.
    8880023    1    1    2    0    0 -0.55226529319E+02 -0.11297911700E+03  0.14707074167E+03  0.68647961349E+03  0.65864270000E+03 0.  0.
    8880022    1    1    2    0    0  0.55226529319E+02  0.11297911700E+03  0.76420053455E+01  0.19815222350E+03  0.15294330000E+03 0. -1.
<mgrwt>
<rscale>  0 0.49429664E+03</rscale>
<asrwt>0</asrwt>
<pdfrwt beam="1">  1        1 0.79949583E-01 0.67054042E+03</pdfrwt>
<pdfrwt beam="2">  1       -1 0.56147623E-01 0.67054042E+03</pdfrwt>
<totfact> 0.13765673E+02</totfact>
</mgrwt>
</event>
<event>
 4    1  0.4055965E-007  0.8719973E+03  0.7818608E-02  0.9572569E-01
          1   -1    0    0  501    0  0.00000000000E+00  0.00000000000E+00  0.10998213569E+04  0.10998213569E+04  0.50400000000E-02 0. -1.
         -1   -1    0    0    0  501 -0.00000000000E+00 -0.00000000000E+00 -0.10794005363E+04  0.10794005363E+04  0.50400000000E-02 0.  1.
    8880023    1    1    2    0    0 -0.55207538885E+03  0.14758658237E+03  0.81165653536E+03  0.11912873591E+04  0.65864270000E+03 0.  0.
    8880022    1    1    2    0    0  0.55207538885E+03 -0.14758658237E+03 -0.79123571484E+03  0.98793453413E+03  0.15294330000E+03 0.  0.
<mgrwt>
<rscale>  0 0.79138671E+03</rscale>
<asrwt>0</asrwt>
<pdfrwt beam="1">  1        1 0.16920329E+00 0.87199727E+03</pdfrwt>
<pdfrwt beam="2">  1       -1 0.16606162E+00 0.87199727E+03</pdfrwt>
<totfact> 0.34053649E+00</totfact>
</mgrwt>
</event>
<event>
 4    1  0.4055965E-007  0.6988075E+03  0.7818608E-02  0.1000218E+00
          1   -1    0    0  501    0  0.00000000000E+00  0.00000000000E+00  0.69024844090E+03  0.69024844092E+03  0.50400000000E-02 0. -1.
         -1   -1    0    0    0  501 -0.00000000000E+00 -0.00000000000E+00 -0.39061351444E+03  0.39061351447E+03  0.50400000000E-02 0.  1.
    8880023    1    1    2    0    0 -0.27230454904E+02  0.23190551667E+03  0.37317594393E+03  0.79220714320E+03  0.65864270000E+03 0.  0.
    8880022    1    1    2    0    0  0.27230454904E+02 -0.23190551667E+03 -0.73541017470E+02  0.28865481219E+03  0.15294330000E+03 0.  0.
<mgrwt>
<rscale>  0 0.55554548E+03</rscale>
<asrwt>0</asrwt>
<pdfrwt beam="1">  1        1 0.10619207E+00 0.69880746E+03</pdfrwt>
<pdfrwt beam="2">  1       -1 0.60094388E-01 0.69880746E+03</pdfrwt>
<totfact> 0.80011286E+01</totfact>
</mgrwt>
</event>
<event>
 4    1  0.4055965E-007  0.6931518E+03  0.7818608E-02  0.1002689E+00
          1   -1    0    0  501    0  0.00000000000E+00  0.00000000000E+00  0.22825086077E+03  0.22825086083E+03  0.50400000000E-02 0. -1.
         -1   -1    0    0    0  501 -0.00000000000E+00 -0.00000000000E+00 -0.13923691870E+04  0.13923691871E+04  0.50400000000E-02 0.  1.
    8880023    1    1    2    0    0 -0.17146252342E+03 -0.13133850674E+03 -0.37454336936E+03  0.78787190715E+03  0.65864270000E+03 0. -1.
    8880022    1    1    2    0    0  0.17146252342E+03  0.13133850674E+03 -0.78957495691E+03  0.83274814073E+03  0.15294330000E+03 0.  0.
<mgrwt>
<rscale>  0 0.54486661E+03</rscale>
<asrwt>0</asrwt>
<pdfrwt beam="1">  1        1 0.35115518E-01 0.69315179E+03</pdfrwt>
<pdfrwt beam="2">  1       -1 0.21421064E+00 0.69315179E+03</pdfrwt>
<totfact> 0.15607151E+01</totfact>
</mgrwt>
</event>
<event>
 4    1  0.4055965E-007  0.9456625E+03  0.7818608E-02  0.9456382E-01
          1   -1    0    0  501    0  0.00000000000E+00  0.00000000000E+00  0.25653290532E+04  0.25653290532E+04  0.50400000000E-02 0. -1.
         -1   -1    0    0    0  501 -0.00000000000E+00 -0.00000000000E+00 -0.46312668791E+03  0.46312668793E+03  0.50400000000E-02 0.  1.
    8880023    1    1    2    0    0  0.29246808862E+03 -0.61231512518E+03  0.21318967884E+04  0.23322224418E+04  0.65864270000E+03 0. -1.
    8880022    1    1    2    0    0 -0.29246808862E+03  0.61231512518E+03 -0.29694423063E+02  0.69623329938E+03  0.15294330000E+03 0.  0.
<mgrwt>
<rscale>  0 0.87577389E+03</rscale>
<asrwt>0</asrwt>
<pdfrwt beam="1">  1        1 0.39466600E+00 0.94566252E+03</pdfrwt>
<pdfrwt beam="2">  1       -1 0.71250260E-01 0.94566252E+03</pdfrwt>
<totfact> 0.24958350E+00</totfact>
</mgrwt>
</event>
<event>
 4    1  0.4055965E-007  0.9133855E+03  0.7818608E-02  0.9504876E-01
          1   -1    0    0  501    0  0.00000000000E+00  0.00000000000E+00  0.11569204059E+04  0.11569204059E+04  0.50400000000E-02 0. -1.
         -1   -1    0    0    0  501 -0.00000000000E+00 -0.00000000000E+00 -0.64230012679E+03  0.64230012681E+03  0.50400000000E-02 0.  1.
    8880023    1    1    2    0    0  0.54278695908E+03  0.32533854359E+03 -0.80812813700E+02  0.91695352555E+03  0.65864270000E+03 0.  0.
    8880022    1    1    2    0    0 -0.54278695908E+03 -0.32533854359E+03  0.59543309279E+03  0.88226700714E+03  0.15294330000E+03 0.  0.
<mgrwt>
<rscale>  0 0.83925257E+03</rscale>
<asrwt>0</asrwt>
<pdfrwt beam="1">  1        1 0.17798775E+00 0.91338549E+03</pdfrwt>
<pdfrwt beam="2">  1       -1 0.98815404E-01 0.91338549E+03</pdfrwt>
<totfact> 0.11401412E+01</totfact>
</mgrwt>
</event>
<event>
 4    1  0.4055965E-007  0.6798373E+03  0.7818608E-02  0.1009416E+00
          1   -1    0    0  501    0  0.00000000000E+00  0.00000000000E+00  0.14132746742E+04  0.14132746742E+04  0.50400000000E-02 0. -1.
         -1   -1    0    0    0  501 -0.00000000000E+00 -0.00000000000E+00 -0.26869444713E+03  0.26869444718E+03  0.50400000000E-02 0.  1.
    8880023    1    1    2    0    0 -0.11888727161E+03 -0.11930780595E+03  0.12563457443E+04  0.14284898920E+04  0.65864270000E+03 0.  0.
    8880022    1    1    2    0    0  0.11888727161E+03  0.11930780595E+03 -0.11176551722E+03  0.25347922946E+03  0.15294330000E+03 0.  0.
<mgrwt>
<rscale>  0 0.51707462E+03</rscale>
<asrwt>0</asrwt>
<pdfrwt beam="1">  1        1 0.21742688E+00 0.67983729E+03</pdfrwt>
<pdfrwt beam="2">  1       -1 0.41337607E-01 0.67983729E+03</pdfrwt>
<totfact> 0.44689813E+01</totfact>
</mgrwt>
</event>
<event>
 4    1  0.4055965E-007  0.7676256E+03  0.7818608E-02  0.9785751E-01
          1   -1    0    0  501    0  0.00000000000E+00  0.00000000000E+00  0.93404835551E+03  0.93404835552E+03  0.50400000000E-02 0. -1.
         -1   -1    0    0    0  501 -0.00000000000E+00 -0.00000000000E+00 -0.64588775558E+03  0.64588775560E+03  0.50400000000E-02 0.  1.
    8880023    1    1    2    0    0 -0.14328598221E+03 -0.36729825159E+03  0.66340384568E+03  0.10145707206E+04  0.65864270000E+03 0. -1.
    8880022    1    1    2    0    0  0.14328598221E+03  0.36729825159E+03 -0.37524324575E+03  0.56536539054E+03  0.15294330000E+03 0.  0.
<mgrwt>
<rscale>  0 0.66132860E+03</rscale>
<asrwt>0</asrwt>
<pdfrwt beam="1">  1        1 0.14369975E+00 0.76762561E+03</pdfrwt>
<pdfrwt beam="2">  1       -1 0.99367348E-01 0.76762561E+03</pdfrwt>
<totfact> 0.16957569E+01</totfact>
</mgrwt>
</event>
<event>
 4    1  0.4055965E-007  0.1208805E+04  0.7818608E-02  0.9148610E-01
         -1   -1    0    0    0  501 -0.00000000000E+00  0.00000000000E+00  0.11223079734E+04  0.11223079734E+04  0.50400000000E-02 0.  1.
          1   -1    0    0  501    0  0.00000000000E+00 -0.00000000000E+00 -0.17786276357E+04  0.17786276357E+04  0.50400000000E-02 0. -1.
    8880023    1    1    2    0    0 -0.95422256901E+03  0.34184666517E+03 -0.12313999300E+04  0.17255595752E+04  0.65864270000E+03 0.  0.
    8880022    1    1    2    0    0  0.95422256901E+03 -0.34184666517E+03  0.57508026776E+03  0.11753760339E+04  0.15294330000E+03 0.  0.
<mgrwt>
<rscale>  0 0.11599969E+04</rscale>
<asrwt>0</asrwt>
<pdfrwt beam="1">  1        1 0.27363502E+00 0.12088052E+04</pdfrwt>
<pdfrwt beam="2">  1       -1 0.17266277E+00 0.12088052E+04</pdfrwt>
<totfact> 0.97103924E-01</totfact>
</mgrwt>
</event>
<event>
 4    1  0.4055965E-007  0.8798556E+03  0.7818608E-02  0.9559176E-01
         -1   -1    0    0    0  501 -0.00000000000E+00  0.00000000000E+00  0.48576721936E+03  0.48576721938E+03  0.50400000000E-02 0.  1.
          1   -1    0    0  501    0  0.00000000000E+00 -0.00000000000E+00 -0.23550332734E+04  0.23550332734E+04  0.50400000000E-02 0. -1.
    8880023    1    1    2    0    0  0.25491136531E+03 -0.52474355905E+03 -0.20335454372E+04  0.22157285164E+04  0.65864270000E+03 0.  0.
    8880022    1    1    2    0    0 -0.25491136531E+03  0.52474355905E+03  0.16427938315E+03  0.62507197640E+03  0.15294330000E+03 0.  0.
<mgrwt>
<rscale>  0 0.80058144E+03</rscale>
<asrwt>0</asrwt>
<pdfrwt beam="1">  1        1 0.36231280E+00 0.87985556E+03</pdfrwt>
<pdfrwt beam="2">  1       -1 0.74733420E-01 0.87985556E+03</pdfrwt>
<totfact> 0.31803556E+00</totfact>
</mgrwt>
</event>
<event>
 4    1  0.4055965E-007  0.9848400E+03  0.7818608E-02  0.9401666E-01
          1   -1    0    0  501    0  0.00000000000E+00  0.00000000000E+00  0.31232996078E+04  0.31232996078E+04  0.50400000000E-02 0. -1.
         -1   -1    0    0    0  501 -0.00000000000E+00 -0.00000000000E+00 -0.28937752751E+03  0.28937752755E+03  0.50400000000E-02 0.  1.
    8880023    1    1    2    0    0  0.38947452910E+03 -0.62000738772E+03  0.22747189349E+04  0.24787609826E+04  0.65864270000E+03 0.  0.
    8880022    1    1    2    0    0 -0.38947452910E+03  0.62000738772E+03  0.55920314543E+03  0.93391615283E+03  0.15294330000E+03 0.  0.
<mgrwt>
<rscale>  0 0.91938711E+03</rscale>
<asrwt>0</asrwt>
<pdfrwt beam="1">  1        1 0.48050764E+00 0.98483997E+03</pdfrwt>
<pdfrwt beam="2">  1       -1 0.44519619E-01 0.98483997E+03</pdfrwt>
<totfact> 0.25019080E+00</totfact>
</mgrwt>
</event>
<event>
 4    1  0.4055965E-007  0.7315007E+03  0.7818608E-02  0.9885435E-01
         -1   -1    0    0    0  501 -0.00000000000E+00  0.00000000000E+00  0.33422302938E+03  0.33422302941E+03  0.50400000000E-02 0.  1.
          1   -1    0    0  501    0  0.00000000000E+00 -0.00000000000E+00 -0.20950552608E+04  0.20950552608E+04  0.50400000000E-02 0. -1.
    8880023    1    1    2    0    0  0.44773794935E+02 -0.31508464447E+03 -0.19105166156E+04  0.20457680638E+04  0.65864270000E+03 0. -1.
    8880022    1    1    2    0    0 -0.44773794935E+02  0.31508464447E+03  0.14968438421E+03  0.38351022644E+03  0.15294330000E+03 0.  0.
<mgrwt>
<rscale>  0 0.60972405E+03</rscale>
<asrwt>0</asrwt>
<pdfrwt beam="1">  1        1 0.32231618E+00 0.73150067E+03</pdfrwt>
<pdfrwt beam="2">  1       -1 0.51418929E-01 0.73150067E+03</pdfrwt>
<totfact> 0.10262657E+01</totfact>
</mgrwt>
</event>
<event>
 4    1  0.4055965E-007  0.9596343E+03  0.7818608E-02  0.9436386E-01
         -1   -1    0    0    0  501 -0.00000000000E+00  0.00000000000E+00  0.76864503259E+03  0.76864503261E+03  0.50400000000E-02 0.  1.
          1   -1    0    0  501    0  0.00000000000E+00 -0.00000000000E+00 -0.10283905086E+04  0.10283905086E+04  0.50400000000E-02 0. -1.
    8880023    1    1    2    0    0  0.44317385588E+03  0.53915192360E+03 -0.44669155346E+03  0.10585043285E+04  0.65864270000E+03 0.  0.
    8880022    1    1    2    0    0 -0.44317385588E+03 -0.53915192360E+03  0.18694607746E+03  0.73853121271E+03  0.15294330000E+03 0.  0.
<mgrwt>
<rscale>  0 0.89140820E+03</rscale>
<asrwt>0</asrwt>
<pdfrwt beam="1">  1        1 0.15821392E+00 0.95963434E+03</pdfrwt>
<pdfrwt beam="2">  1       -1 0.11825308E+00 0.95963434E+03</pdfrwt>
<totfact> 0.92913782E+00</totfact>
</mgrwt>
</event>
<event>
 4    1  0.4055965E-007  0.7236700E+03  0.7818608E-02  0.9910358E-01
          1   -1    0    0  501    0  0.00000000000E+00  0.00000000000E+00  0.29851302244E+03  0.29851302249E+03  0.50400000000E-02 0. -1.
         -1   -1    0    0    0  501 -0.00000000000E+00 -0.00000000000E+00 -0.98812022894E+03  0.98812022895E+03  0.50400000000E-02 0.  1.
    8880023    1    1    2    0    0  0.29975858000E+03  0.57291798132E+01 -0.33407725725E+03  0.79706075669E+03  0.65864270000E+03 0. -1.
    8880022    1    1    2    0    0 -0.29975858000E+03 -0.57291798132E+01 -0.35552994924E+03  0.48957249474E+03  0.15294330000E+03 0.  0.
<mgrwt>
<rscale>  0 0.59761903E+03</rscale>
<asrwt>0</asrwt>
<pdfrwt beam="1">  1        1 0.45925081E-01 0.72366998E+03</pdfrwt>
<pdfrwt beam="2">  1       -1 0.15201850E+00 0.72366998E+03</pdfrwt>
<totfact> 0.30447603E+01</totfact>
</mgrwt>
</event>
<event>
 4    1  0.4055965E-007  0.7222888E+03  0.7818608E-02  0.9914916E-01
          1   -1    0    0  501    0  0.00000000000E+00  0.00000000000E+00  0.18650567197E+04  0.18650567197E+04  0.50400000000E-02 0. -1.
         -1   -1    0    0    0  501 -0.00000000000E+00 -0.00000000000E+00 -0.26277404219E+03  0.26277404224E+03  0.50400000000E-02 0.  1.
    8880023    1    1    2    0    0 -0.29148842597E+03  0.54086442485E+02  0.16401018108E+04  0.17921035132E+04  0.65864270000E+03 0.  0.
    8880022    1    1    2    0    0  0.29148842597E+03 -0.54086442485E+02 -0.37819133294E+02  0.33572724881E+03  0.15294330000E+03 0.  0.
<mgrwt>
<rscale>  0 0.59543794E+03</rscale>
<asrwt>0</asrwt>
<pdfrwt beam="1">  1        1 0.28693180E+00 0.72228876E+03</pdfrwt>
<pdfrwt beam="2">  1       -1 0.40426776E-01 0.72228876E+03</pdfrwt>
<totfact> 0.22904652E+01</totfact>
</mgrwt>
</event>
<event>
 4    1  0.4055965E-007  0.6722314E+03  0.7818608E-02  0.1014111E+00
         -1   -1    0    0    0  501 -0.00000000000E+00  0.00000000000E+00  0.38346110677E+03  0.38346110680E+03  0.50400000000E-02 0.  1.
          1   -1    0    0  501    0  0.00000000000E+00 -0.00000000000E+00 -0.66900364134E+03  0.66900364136E+03  0.50400000000E-02 0. -1.
    8880023    1    1    2    0    0  0.12800534869E+03  0.41224660264E+02 -0.43425075232E+03  0.80029292391E+03  0.65864270000E+03 0. -1.
    8880022    1    1    2    0    0 -0.12800534869E+03 -0.41224660264E+02  0.14870821775E+03  0.25217182425E+03  0.15294330000E+03 0.  0.
<mgrwt>
<rscale>  0 0.49872869E+03</rscale>
<asrwt>0</asrwt>
<pdfrwt beam="1">  1        1 0.10292364E+00 0.67223139E+03</pdfrwt>
<pdfrwt beam="2">  1       -1 0.58994017E-01 0.67223139E+03</pdfrwt>
<totfact> 0.87126832E+01</totfact>
</mgrwt>
</event>
<event>
 4    1  0.4055965E-007  0.8615181E+03  0.7818608E-02  0.9590869E-01
         -1   -1    0    0    0  501 -0.00000000000E+00  0.00000000000E+00  0.12297118029E+04  0.12297118029E+04  0.50400000000E-02 0.  1.
          1   -1    0    0  501    0  0.00000000000E+00 -0.00000000000E+00 -0.14880919561E+04  0.14880919561E+04  0.50400000000E-02 0. -1.
    8880023    1    1    2    0    0  0.54730018176E+03 -0.94158054738E+02  0.10083447170E+04  0.13262626070E+04  0.65864270000E+03 0.  1.
    8880022    1    1    2    0    0 -0.54730018176E+03  0.94158054738E+02 -0.12667248702E+04  0.13915411521E+04  0.15294330000E+03 0.  0.
<mgrwt>
<rscale>  0 0.77903508E+03</rscale>
<asrwt>0</asrwt>
<pdfrwt beam="1">  1        1 0.22893722E+00 0.86151810E+03</pdfrwt>
<pdfrwt beam="2">  1       -1 0.18918643E+00 0.86151810E+03</pdfrwt>
<totfact> 0.12285005E+00</totfact>
</mgrwt>
</event>
<event>
 4    1  0.4055965E-007  0.6586983E+03  0.7818608E-02  0.1025532E+00
          1   -1    0    0  501    0  0.00000000000E+00  0.00000000000E+00  0.12380128535E+04  0.12380128535E+04  0.50400000000E-02 0. -1.
         -1   -1    0    0    0  501 -0.00000000000E+00 -0.00000000000E+00 -0.36777834595E+03  0.36777834598E+03  0.50400000000E-02 0.  1.
    8880023    1    1    2    0    0  0.45360311277E+01  0.72539876036E+01  0.11278276567E+04  0.13060928855E+04  0.65864270000E+03 0. -1.
    8880022    1    1    2    0    0 -0.45360311277E+01 -0.72539876036E+01 -0.25759314918E+03  0.29969831403E+03  0.15294330000E+03 0.  0.
<mgrwt>
<rscale>  0 0.45742206E+03</rscale>
<asrwt>0</asrwt>
<pdfrwt beam="1">  1        1 0.19046352E+00 0.65869826E+03</pdfrwt>
<pdfrwt beam="2">  1       -1 0.56581284E-01 0.65869826E+03</pdfrwt>
<totfact> 0.32970221E+01</totfact>
</mgrwt>
</event>
<event>
 4    1  0.4055965E-007  0.7115915E+03  0.7818608E-02  0.9952138E-01
          1   -1    0    0  501    0  0.00000000000E+00  0.00000000000E+00  0.82735668080E+03  0.82735668082E+03  0.50400000000E-02 0. -1.
         -1   -1    0    0    0  501 -0.00000000000E+00 -0.00000000000E+00 -0.43542154599E+03  0.43542154602E+03  0.50400000000E-02 0.  1.
    8880023    1    1    2    0    0 -0.24896505596E+03 -0.10280430725E+03  0.56440680524E+03  0.90824973039E+03  0.65864270000E+03 0. -1.
    8880022    1    1    2    0    0  0.24896505596E+03  0.10280430725E+03 -0.17247167043E+03  0.35452849645E+03  0.15294330000E+03 0.  0.
<mgrwt>
<rscale>  0 0.57799662E+03</rscale>
<asrwt>0</asrwt>
<pdfrwt beam="1">  1        1 0.12728564E+00 0.71159155E+03</pdfrwt>
<pdfrwt beam="2">  1       -1 0.66987931E-01 0.71159155E+03</pdfrwt>
<totfact> 0.48540995E+01</totfact>
</mgrwt>
</event>
<event>
 4    1  0.4055965E-007  0.9134334E+03  0.7818608E-02  0.9504802E-01
         -1   -1    0    0    0  501 -0.00000000000E+00  0.00000000000E+00  0.78646258136E+03  0.78646258137E+03  0.50400000000E-02 0.  1.
          1   -1    0    0  501    0  0.00000000000E+00 -0.00000000000E+00 -0.10883524843E+04  0.10883524843E+04  0.50400000000E-02 0. -1.
    8880023    1    1    2    0    0  0.62332739197E+03  0.10960558232E+03 -0.66447940368E+03  0.11295545606E+04  0.65864270000E+03 0.  0.
    8880022    1    1    2    0    0 -0.62332739197E+03 -0.10960558232E+03  0.36258950077E+03  0.74526050502E+03  0.15294330000E+03 0.  0.
<mgrwt>
<rscale>  0 0.83930728E+03</rscale>
<asrwt>0</asrwt>
<pdfrwt beam="1">  1        1 0.16743884E+00 0.91343343E+03</pdfrwt>
<pdfrwt beam="2">  1       -1 0.12099424E+00 0.91343343E+03</pdfrwt>
<totfact> 0.79480812E+00</totfact>
</mgrwt>
</event>
<event>
 4    1  0.4055965E-007  0.6613136E+03  0.7818608E-02  0.1022849E+00
         -1   -1    0    0    0  501 -0.00000000000E+00  0.00000000000E+00  0.80836834293E+03  0.80836834295E+03  0.50400000000E-02 0.  1.
          1   -1    0    0  501    0  0.00000000000E+00 -0.00000000000E+00 -0.39301965515E+03  0.39301965518E+03  0.50400000000E-02 0. -1.
    8880023    1    1    2    0    0 -0.56722453344E+02  0.17551298679E+02 -0.92448931479E+02  0.66774433430E+03  0.65864270000E+03 0. -1.
    8880022    1    1    2    0    0  0.56722453344E+02 -0.17551298679E+02  0.50779761926E+03  0.53364366382E+03  0.15294330000E+03 0.  0.
<mgrwt>
<rscale>  0 0.46672300E+03</rscale>
<asrwt>0</asrwt>
<pdfrwt beam="1">  1        1 0.60464563E-01 0.66131361E+03</pdfrwt>
<pdfrwt beam="2">  1       -1 0.12436436E+00 0.66131361E+03</pdfrwt>
<totfact> 0.35896006E+01</totfact>
</mgrwt>
</event>
<event>
 4    1  0.4055965E-007  0.7179347E+03  0.7818608E-02  0.9929637E-01
          1   -1    0    0  501    0  0.00000000000E+00  0.00000000000E+00  0.19135839935E+04  0.19135839935E+04  0.50400000000E-02 0. -1.
         -1   -1    0    0    0  501 -0.00000000000E+00 -0.00000000000E+00 -0.43525204476E+03  0.43525204478E+03  0.50400000000E-02 0.  1.
    8880023    1    1    2    0    0  0.22882720157E+03  0.17105017259E+03  0.17717483828E+04  0.19116805664E+04  0.65864270000E+03 0. -1.
    8880022    1    1    2    0    0 -0.22882720157E+03 -0.17105017259E+03 -0.29341643412E+03  0.43715547183E+03  0.15294330000E+03 0.  0.
<mgrwt>
<rscale>  0 0.58846201E+03</rscale>
<asrwt>0</asrwt>
<pdfrwt beam="1">  1        1 0.29439754E+00 0.71793472E+03</pdfrwt>
<pdfrwt beam="2">  1       -1 0.66961852E-01 0.71793472E+03</pdfrwt>
<totfact> 0.81018852E+00</totfact>
</mgrwt>
</event>
<event>
 4    1  0.4055965E-007  0.1084990E+04  0.7818608E-02  0.9277955E-01
         -1   -1    0    0    0  501 -0.00000000000E+00  0.00000000000E+00  0.72260491626E+03  0.72260491627E+03  0.50400000000E-02 0.  1.
          1   -1    0    0  501    0  0.00000000000E+00 -0.00000000000E+00 -0.17174809137E+04  0.17174809137E+04  0.50400000000E-02 0. -1.
    8880023    1    1    2    0    0 -0.84868962403E+03 -0.15204967775E+03  0.38399937547E+02  0.10856693529E+04  0.65864270000E+03 0.  0.
    8880022    1    1    2    0    0  0.84868962403E+03  0.15204967775E+03 -0.10332759350E+04  0.13544164770E+04  0.15294330000E+03 0.  0.
<mgrwt>
<rscale>  0 0.10283797E+04</rscale>
<asrwt>0</asrwt>
<pdfrwt beam="1">  1        1 0.26422783E+00 0.10849900E+04</pdfrwt>
<pdfrwt beam="2">  1       -1 0.11116999E+00 0.10849900E+04</pdfrwt>
<totfact> 0.34404566E+00</totfact>
</mgrwt>
</event>
<event>
 4    1  0.4055965E-007  0.6687204E+03  0.7818608E-02  0.1016597E+00
         -1   -1    0    0    0  501 -0.00000000000E+00  0.00000000000E+00  0.21021483539E+03  0.21021483545E+03  0.50400000000E-02 0.  1.
          1   -1    0    0  501    0  0.00000000000E+00 -0.00000000000E+00 -0.26535714908E+04  0.26535714908E+04  0.50400000000E-02 0. -1.
    8880023    1    1    2    0    0 -0.11514109697E+03  0.10924752868E+02 -0.25555702872E+04  0.26416143779E+04  0.65864270000E+03 0. -1.
    8880022    1    1    2    0    0  0.11514109697E+03 -0.10924752868E+02  0.11221363182E+03  0.22217194832E+03  0.15294330000E+03 0.  0.
<mgrwt>
<rscale>  0 0.48934810E+03</rscale>
<asrwt>0</asrwt>
<pdfrwt beam="1">  1        1 0.40824174E+00 0.66872044E+03</pdfrwt>
<pdfrwt beam="2">  1       -1 0.32340746E-01 0.66872044E+03</pdfrwt>
<totfact> 0.10127211E+01</totfact>
</mgrwt>
</event>
<event>
 4    1  0.4055965E-007  0.7916314E+03  0.7818608E-02  0.9729191E-01
          1   -1    0    0  501    0  0.00000000000E+00  0.00000000000E+00  0.26239818520E+04  0.26239818520E+04  0.50400000000E-02 0. -1.
         -1   -1    0    0    0  501 -0.00000000000E+00 -0.00000000000E+00 -0.17277573996E+03  0.17277574003E+03  0.50400000000E-02 0.  1.
    8880023    1    1    2    0    0  0.82289521276E+02 -0.43139143604E+03  0.19905345548E+04  0.21421736990E+04  0.65864270000E+03 0.  0.
    8880022    1    1    2    0    0 -0.82289521276E+02  0.43139143604E+03  0.46067155724E+03  0.65458389307E+03  0.15294330000E+03 0.  0.
<mgrwt>
<rscale>  0 0.69305029E+03</rscale>
<asrwt>0</asrwt>
<pdfrwt beam="1">  1        1 0.40368944E+00 0.79163144E+03</pdfrwt>
<pdfrwt beam="2">  1       -1 0.26580888E-01 0.79163144E+03</pdfrwt>
<totfact> 0.14626492E+01</totfact>
</mgrwt>
</event>
<event>
 4    1  0.4055965E-007  0.7524034E+03  0.7818608E-02  0.9825187E-01
          1   -1    0    0  501    0  0.00000000000E+00  0.00000000000E+00  0.77758981703E+03  0.77758981705E+03  0.50400000000E-02 0. -1.
         -1   -1    0    0    0  501 -0.00000000000E+00 -0.00000000000E+00 -0.77506461812E+03  0.77506461813E+03  0.50400000000E-02 0.  1.
    8880023    1    1    2    0    0 -0.26203969858E+03  0.25226153621E+03  0.51064306423E+03  0.90932240245E+03  0.65864270000E+03 0.  0.
    8880022    1    1    2    0    0  0.26203969858E+03 -0.25226153621E+03 -0.50811786531E+03  0.64333203274E+03  0.15294330000E+03 0.  0.
<mgrwt>
<rscale>  0 0.64028226E+03</rscale>
<asrwt>0</asrwt>
<pdfrwt beam="1">  1        1 0.11962920E+00 0.75240341E+03</pdfrwt>
<pdfrwt beam="2">  1       -1 0.11924071E+00 0.75240341E+03</pdfrwt>
<totfact> 0.14963377E+01</totfact>
</mgrwt>
</event>
<event>
 4    1  0.4055965E-007  0.9661699E+03  0.7818608E-02  0.9427221E-01
          1   -1    0    0  501    0  0.00000000000E+00  0.00000000000E+00  0.53882497934E+03  0.53882497936E+03  0.50400000000E-02 0. -1.
         -1   -1    0    0    0  501 -0.00000000000E+00 -0.00000000000E+00 -0.37583337059E+04  0.37583337059E+04  0.50400000000E-02 0.  1.
    8880023    1    1    2    0    0 -0.32288966061E+03  0.62882138770E+03  0.31491529852E+02  0.96668298489E+03  0.65864270000E+03 0. -1.
    8880022    1    1    2    0    0  0.32288966061E+03 -0.62882138770E+03 -0.32510002564E+04  0.33304757003E+04  0.15294330000E+03 0.  1.
<mgrwt>
<rscale>  0 0.89868949E+03</rscale>
<asrwt>0</asrwt>
<pdfrwt beam="1">  1        1 0.82896153E-01 0.96616990E+03</pdfrwt>
<pdfrwt beam="2">  1       -1 0.57820517E+00 0.96616990E+03</pdfrwt>
<totfact> 0.21711853E-02</totfact>
</mgrwt>
</event>
<event>
 4    1  0.4294109E-007  0.7657206E+03  0.7818608E-02  0.9790516E-01
         -1   -1    0    0    0  501 -0.00000000000E+00  0.00000000000E+00  0.11890645490E+04  0.11890645490E+04  0.50400000000E-02 0.  1.
          1   -1    0    0  501    0  0.00000000000E+00 -0.00000000000E+00 -0.10678914685E+04  0.10678914685E+04  0.50400000000E-02 0. -1.
    8880023    1    1    2    0    0 -0.18899350402E+03 -0.34175921066E+03 -0.88296754440E+03  0.11687428260E+04  0.65864270000E+03 0. -1.
    8880022    1    1    2    0    0  0.18899350402E+03  0.34175921066E+03  0.10041406249E+04  0.10882131915E+04  0.15294330000E+03 0.  0.
<mgrwt>
<rscale>  0 0.65873987E+03</rscale>
<asrwt>0</asrwt>
<pdfrwt beam="1">  1        1 0.16429099E+00 0.76572065E+03</pdfrwt>
<pdfrwt beam="2">  1       -1 0.18293301E+00 0.76572065E+03</pdfrwt>
<totfact> 0.27615827E+00</totfact>
</mgrwt>
</event>
<event>
 4    1  0.4055965E-007  0.6861171E+03  0.7818608E-02  0.1006056E+00
          1   -1    0    0  501    0  0.00000000000E+00  0.00000000000E+00  0.63705944788E+03  0.63705944790E+03  0.50400000000E-02 0. -1.
         -1   -1    0    0    0  501 -0.00000000000E+00 -0.00000000000E+00 -0.41575433569E+03  0.41575433572E+03  0.50400000000E-02 0.  1.
    8880023    1    1    2    0    0 -0.18556337195E+03  0.50126441926E+02  0.35567374468E+03  0.77282627033E+03  0.65864270000E+03 0. -1.
    8880022    1    1    2    0    0  0.18556337195E+03 -0.50126441926E+02 -0.13436863249E+03  0.27998751329E+03  0.15294330000E+03 0.  1.
<mgrwt>
<rscale>  0 0.53072873E+03</rscale>
<asrwt>0</asrwt>
<pdfrwt beam="1">  1        1 0.98009145E-01 0.68611707E+03</pdfrwt>
<pdfrwt beam="2">  1       -1 0.63962206E-01 0.68611707E+03</pdfrwt>
<totfact> 0.79701639E+01</totfact>
</mgrwt>
</event>
<event>
 4    1  0.4055965E-007  0.8810766E+03  0.7818608E-02  0.9557119E-01
          1   -1    0    0  501    0  0.00000000000E+00  0.00000000000E+00  0.24705272664E+04  0.24705272664E+04  0.50400000000E-02 0. -1.
         -1   -1    0    0    0  501 -0.00000000000E+00 -0.00000000000E+00 -0.29082616175E+03  0.29082616179E+03  0.50400000000E-02 0.  1.
    8880023    1    1    2    0    0  0.38942872043E+03 -0.43684218753E+03  0.19012060619E+04  0.20954427984E+04  0.65864270000E+03 0.  0.
    8880022    1    1    2    0    0 -0.38942872043E+03  0.43684218753E+03  0.27849504277E+03  0.66591062986E+03  0.15294330000E+03 0.  0.
<mgrwt>
<rscale>  0 0.80200527E+03</rscale>
<asrwt>0</asrwt>
<pdfrwt beam="1">  1        1 0.38008114E+00 0.88107663E+03</pdfrwt>
<pdfrwt beam="2">  1       -1 0.44742484E-01 0.88107663E+03</pdfrwt>
<totfact> 0.72681364E+00</totfact>
</mgrwt>
</event>
<event>
 4    1  0.4055965E-007  0.9733729E+03  0.7818608E-02  0.9417254E-01
         -1   -1    0    0    0  501 -0.00000000000E+00  0.00000000000E+00  0.89655689096E+03  0.89655689097E+03  0.50400000000E-02 0.  1.
          1   -1    0    0  501    0  0.00000000000E+00 -0.00000000000E+00 -0.11922662523E+04  0.11922662523E+04  0.50400000000E-02 0. -1.
    8880023    1    1    2    0    0 -0.51406125013E+03 -0.49938534278E+03 -0.74806765404E+03  0.12276237660E+04  0.65864270000E+03 0. -1.
    8880022    1    1    2    0    0  0.51406125013E+03  0.49938534278E+03  0.45235829271E+03  0.86119937731E+03  0.15294330000E+03 0.  0.
<mgrwt>
<rscale>  0 0.90669227E+03</rscale>
<asrwt>0</asrwt>
<pdfrwt beam="1">  1        1 0.18342558E+00 0.97337295E+03</pdfrwt>
<pdfrwt beam="2">  1       -1 0.13793183E+00 0.97337295E+03</pdfrwt>
<totfact> 0.47482592E+00</totfact>
</mgrwt>
</event>
<event>
 4    1  0.4055965E-007  0.9086319E+03  0.7818608E-02  0.9512314E-01
         -1   -1    0    0    0  501 -0.00000000000E+00  0.00000000000E+00  0.78167389203E+03  0.78167389205E+03  0.50400000000E-02 0.  1.
          1   -1    0    0  501    0  0.00000000000E+00 -0.00000000000E+00 -0.84030002982E+03  0.84030002983E+03  0.50400000000E-02 0. -1.
    8880023    1    1    2    0    0  0.11317941582E+03 -0.61562333016E+03 -0.26309596541E+03  0.94595526220E+03  0.65864270000E+03 0.  0.
    8880022    1    1    2    0    0 -0.11317941582E+03  0.61562333016E+03  0.20446982763E+03  0.67601865968E+03  0.15294330000E+03 0.  0.
<mgrwt>
<rscale>  0 0.83381992E+03</rscale>
<asrwt>0</asrwt>
<pdfrwt beam="1">  1        1 0.12927693E+00 0.90863187E+03</pdfrwt>
<pdfrwt beam="2">  1       -1 0.12025752E+00 0.90863187E+03</pdfrwt>
<totfact> 0.12712401E+01</totfact>
</mgrwt>
</event>
<event>
 4    1  0.4055965E-007  0.6847839E+03  0.7818608E-02  0.1006737E+00
          1   -1    0    0  501    0  0.00000000000E+00  0.00000000000E+00  0.14004447230E+04  0.14004447230E+04  0.50400000000E-02 0. -1.
         -1   -1    0    0    0  501 -0.00000000000E+00 -0.00000000000E+00 -0.11434889444E+04  0.11434889444E+04  0.50400000000E-02 0.  1.
    8880023    1    1    2    0    0 -0.12351641302E+03 -0.14093415146E+03  0.13020867133E+04  0.14711759767E+04  0.65864270000E+03 0. -1.
    8880022    1    1    2    0    0  0.12351641302E+03  0.14093415146E+03 -0.10451309346E+04  0.10727576907E+04  0.15294330000E+03 0.  0.
<mgrwt>
<rscale>  0 0.52792140E+03</rscale>
<asrwt>0</asrwt>
<pdfrwt beam="1">  1        1 0.21545303E+00 0.68478387E+03</pdfrwt>
<pdfrwt beam="2">  1       -1 0.17592138E+00 0.68478387E+03</pdfrwt>
<totfact> 0.18140286E+00</totfact>
</mgrwt>
</event>
<event>
 4    1  0.4055965E-007  0.7706973E+03  0.7818608E-02  0.9778161E-01
         -1   -1    0    0    0  501 -0.00000000000E+00  0.00000000000E+00  0.88853476540E+03  0.88853476541E+03  0.50400000000E-02 0.  1.
          1   -1    0    0  501    0  0.00000000000E+00 -0.00000000000E+00 -0.56656823790E+03  0.56656823792E+03  0.50400000000E-02 0. -1.
    8880023    1    1    2    0    0  0.38286345452E+03  0.11653226852E+03 -0.18375262291E+03  0.79230008653E+03  0.65864270000E+03 0.  0.
    8880022    1    1    2    0    0 -0.38286345452E+03 -0.11653226852E+03  0.50571915041E+03  0.66280291681E+03  0.15294330000E+03 0.  0.
<mgrwt>
<rscale>  0 0.66547834E+03</rscale>
<asrwt>0</asrwt>
<pdfrwt beam="1">  1        1 0.87164345E-01 0.77069735E+03</pdfrwt>
<pdfrwt beam="2">  1       -1 0.13669766E+00 0.77069735E+03</pdfrwt>
<totfact> 0.16999829E+01</totfact>
</mgrwt>
</event>
<event>
 4    1  0.4055965E-007  0.6616924E+03  0.7818608E-02  0.1022486E+00
          1   -1    0    0  501    0  0.00000000000E+00  0.00000000000E+00  0.12554141199E+04  0.12554141199E+04  0.50400000000E-02 0. -1.
         -1   -1    0    0    0  501 -0.00000000000E+00 -0.00000000000E+00 -0.25810687787E+03  0.25810687792E+03  0.50400000000E-02 0.  1.
    8880023    1    1    2    0    0 -0.62177408574E+02  0.12672324455E+02  0.11244914362E+04  0.13047290195E+04  0.65864270000E+03 0. -1.
    8880022    1    1    2    0    0  0.62177408574E+02 -0.12672324455E+02 -0.12718419419E+03  0.20879197832E+03  0.15294330000E+03 0.  0.
<mgrwt>
<rscale>  0 0.46800136E+03</rscale>
<asrwt>0</asrwt>
<pdfrwt beam="1">  1        1 0.19314063E+00 0.66169239E+03</pdfrwt>
<pdfrwt beam="2">  1       -1 0.39708751E-01 0.66169239E+03</pdfrwt>
<totfact> 0.62155438E+01</totfact>
</mgrwt>
</event>
<event>
 4    1  0.4055965E-007  0.6769443E+03  0.7818608E-02  0.1011108E+00
          1   -1    0    0  501    0  0.00000000000E+00  0.00000000000E+00  0.28233779032E+04  0.28233779032E+04  0.50400000000E-02 0. -1.
         -1   -1    0    0    0  501 -0.00000000000E+00 -0.00000000000E+00 -0.16990067287E+03  0.16990067294E+03  0.50400000000E-02 0.  1.
    8880023    1    1    2    0    0 -0.14227587649E+03 -0.64815223233E+02  0.26879360710E+04  0.27718683169E+04  0.65864270000E+03 0. -1.
    8880022    1    1    2    0    0  0.14227587649E+03  0.64815223233E+02 -0.34458840646E+02  0.22141025926E+03  0.15294330000E+03 0.  0.
<mgrwt>
<rscale>  0 0.51036754E+03</rscale>
<asrwt>0</asrwt>
<pdfrwt beam="1">  1        1 0.43436582E+00 0.67694434E+03</pdfrwt>
<pdfrwt beam="2">  1       -1 0.26138566E-01 0.67694434E+03</pdfrwt>
<totfact> 0.11145317E+01</totfact>
</mgrwt>
</event>
<event>
 4    1  0.4055965E-007  0.7276383E+03  0.7818608E-02  0.9897540E-01
         -1   -1    0    0    0  501 -0.00000000000E+00  0.00000000000E+00  0.14672193514E+03  0.14672193522E+03  0.50400000000E-02 0.  1.
          1   -1    0    0  501    0  0.00000000000E+00 -0.00000000000E+00 -0.19861157638E+04  0.19861157638E+04  0.50400000000E-02 0. -1.
    8880023    1    1    2    0    0 -0.10355050793E+03  0.29141815665E+03 -0.11302839708E+04  0.13442467447E+04  0.65864270000E+03 0. -1.
    8880022    1    1    2    0    0  0.10355050793E+03 -0.29141815665E+03 -0.70910985792E+03  0.78859095438E+03  0.15294330000E+03 0.  1.
<mgrwt>
<rscale>  0 0.60380647E+03</rscale>
<asrwt>0</asrwt>
<pdfrwt beam="1">  1        1 0.30555625E+00 0.72763827E+03</pdfrwt>
<pdfrwt beam="2">  1       -1 0.22572607E-01 0.72763827E+03</pdfrwt>
<totfact> 0.52592313E+01</totfact>
</mgrwt>
</event>
<event>
 4    1  0.4227404E-007  0.8044455E+03  0.7818608E-02  0.9701265E-01
         -1   -1    0    0    0  501 -0.00000000000E+00  0.00000000000E+00  0.60769171082E+03  0.60769171084E+03  0.50400000000E-02 0.  1.
          1   -1    0    0  501    0  0.00000000000E+00 -0.00000000000E+00 -0.19398855583E+04  0.19398855583E+04  0.50400000000E-02 0. -1.
    8880023    1    1    2    0    0  0.36363184903E+03  0.28477044317E+03 -0.17372748626E+04  0.19144859575E+04  0.65864270000E+03 0.  0.
    8880022    1    1    2    0    0 -0.36363184903E+03 -0.28477044317E+03  0.40508101519E+03  0.63309131159E+03  0.15294330000E+03 0.  0.
<mgrwt>
<rscale>  0 0.70941514E+03</rscale>
<asrwt>0</asrwt>
<pdfrwt beam="1">  1        1 0.29844393E+00 0.80444548E+03</pdfrwt>
<pdfrwt beam="2">  1       -1 0.93491033E-01 0.80444548E+03</pdfrwt>
<totfact> 0.37799527E+00</totfact>
</mgrwt>
</event>
<event>
 4    1  0.4055965E-007  0.8212486E+03  0.7818608E-02  0.9666606E-01
          1   -1    0    0  501    0  0.00000000000E+00  0.00000000000E+00  0.21233663269E+04  0.21233663269E+04  0.50400000000E-02 0. -1.
         -1   -1    0    0    0  501 -0.00000000000E+00 -0.00000000000E+00 -0.51036345662E+03  0.51036345665E+03  0.50400000000E-02 0.  1.
    8880023    1    1    2    0    0 -0.33974524037E+03  0.35385342031E+03  0.18822588237E+04  0.20536181624E+04  0.65864270000E+03 0. -1.
    8880022    1    1    2    0    0  0.33974524037E+03 -0.35385342031E+03 -0.26925595347E+03  0.58011162108E+03  0.15294330000E+03 0.  0.
<mgrwt>
<rscale>  0 0.73040341E+03</rscale>
<asrwt>0</asrwt>
<pdfrwt beam="1">  1        1 0.32667174E+00 0.82124861E+03</pdfrwt>
<pdfrwt beam="2">  1       -1 0.78517454E-01 0.82124861E+03</pdfrwt>
<totfact> 0.41480975E+00</totfact>
</mgrwt>
</event>
<event>
 4    1  0.6268980E-007  0.7547358E+03  0.7818608E-02  0.9818931E-01
          1   -1    0    0  501    0  0.00000000000E+00  0.00000000000E+00  0.16655978797E+04  0.16655978797E+04  0.50400000000E-02 0. -1.
         -1   -1    0    0    0  501 -0.00000000000E+00 -0.00000000000E+00 -0.14044380513E+04  0.14044380513E+04  0.50400000000E-02 0.  1.
    8880023    1    1    2    0    0  0.30280874176E+03  0.21005435714E+03  0.15483061625E+04  0.17224628141E+04  0.65864270000E+03 0. -1.
    8880022    1    1    2    0    0 -0.30280874176E+03 -0.21005435714E+03 -0.12871463340E+04  0.13475731169E+04  0.15294330000E+03 0.  0.
<mgrwt>
<rscale>  0 0.64356395E+03</rscale>
<asrwt>0</asrwt>
<pdfrwt beam="1">  1        1 0.25624583E+00 0.75473583E+03</pdfrwt>
<pdfrwt beam="2">  1       -1 0.21606739E+00 0.75473583E+03</pdfrwt>
<totfact> 0.62256708E-01</totfact>
</mgrwt>
</event>
<event>
 4    1  0.4055965E-007  0.8563817E+03  0.7818608E-02  0.9600032E-01
         -1   -1    0    0    0  501 -0.00000000000E+00  0.00000000000E+00  0.32450384560E+03  0.32450384564E+03  0.50400000000E-02 0.  1.
          1   -1    0    0  501    0  0.00000000000E+00 -0.00000000000E+00 -0.30248235304E+04  0.30248235304E+04  0.50400000000E-02 0. -1.
    8880023    1    1    2    0    0 -0.18408243840E+03  0.51545419271E+03 -0.26428341068E+04  0.27781219720E+04  0.65864270000E+03 0. -1.
    8880022    1    1    2    0    0  0.18408243840E+03 -0.51545419271E+03 -0.57485577992E+02  0.57120540404E+03  0.15294330000E+03 0.  0.
<mgrwt>
<rscale>  0 0.77294033E+03</rscale>
<asrwt>0</asrwt>
<pdfrwt beam="1">  1        1 0.46535745E+00 0.85638168E+03</pdfrwt>
<pdfrwt beam="2">  1       -1 0.49923670E-01 0.85638168E+03</pdfrwt>
<totfact> 0.24286287E+00</totfact>
</mgrwt>
</event>
<event>
 4    1  0.4055965E-007  0.7606441E+03  0.7818608E-02  0.9803443E-01
         -1   -1    0    0    0  501 -0.00000000000E+00  0.00000000000E+00  0.14467311918E+03  0.14467311927E+03  0.50400000000E-02 0.  1.
          1   -1    0    0  501    0  0.00000000000E+00 -0.00000000000E+00 -0.29610000445E+04  0.29610000445E+04  0.50400000000E-02 0. -1.
    8880023    1    1    2    0    0 -0.32944889395E+02 -0.37905660139E+03 -0.24147477660E+04  0.25317160687E+04  0.65864270000E+03 0. -1.
    8880022    1    1    2    0    0  0.32944889395E+02  0.37905660139E+03 -0.40157915934E+03  0.57395709511E+03  0.15294330000E+03 0.  0.
<mgrwt>
<rscale>  0 0.65178111E+03</rscale>
<asrwt>0</asrwt>
<pdfrwt beam="1">  1        1 0.45553842E+00 0.76064412E+03</pdfrwt>
<pdfrwt beam="2">  1       -1 0.22257405E-01 0.76064412E+03</pdfrwt>
<totfact> 0.11534203E+01</totfact>
</mgrwt>
</event>
<event>
 4    1  0.4055965E-007  0.1199813E+04  0.7818608E-02  0.9157305E-01
         -1   -1    0    0    0  501 -0.00000000000E+00  0.00000000000E+00  0.61144639349E+03  0.61144639351E+03  0.50400000000E-02 0.  1.
          1   -1    0    0  501    0  0.00000000000E+00 -0.00000000000E+00 -0.28672414465E+04  0.28672414465E+04  0.50400000000E-02 0. -1.
    8880023    1    1    2    0    0 -0.61222922423E+03 -0.79430187559E+03 -0.21455703281E+04  0.24582559532E+04  0.65864270000E+03 0. -1.
    8880022    1    1    2    0    0  0.61222922423E+03  0.79430187559E+03 -0.11022472493E+03  0.10204318868E+04  0.15294330000E+03 0.  0.
<mgrwt>
<rscale>  0 0.11505194E+04</rscale>
<asrwt>0</asrwt>
<pdfrwt beam="1">  1        1 0.44111406E+00 0.11998126E+04</pdfrwt>
<pdfrwt beam="2">  1       -1 0.94068678E-01 0.11998126E+04</pdfrwt>
<totfact> 0.81241784E-01</totfact>
</mgrwt>
</event>
<event>
 4    1  0.4055965E-007  0.8153599E+03  0.7818608E-02  0.9678519E-01
          1   -1    0    0  501    0  0.00000000000E+00  0.00000000000E+00  0.14943598166E+04  0.14943598166E+04  0.50400000000E-02 0. -1.
         -1   -1    0    0    0  501 -0.00000000000E+00 -0.00000000000E+00 -0.33704069472E+03  0.33704069475E+03  0.50400000000E-02 0.  1.
    8880023    1    1    2    0    0  0.33341989158E+03  0.34616861491E+03  0.10254003760E+04  0.13100601785E+04  0.65864270000E+03 0.  0.
    8880022    1    1    2    0    0 -0.33341989158E+03 -0.34616861491E+03  0.13191874583E+03  0.52134033276E+03  0.15294330000E+03 0.  0.
<mgrwt>
<rscale>  0 0.72310304E+03</rscale>
<asrwt>0</asrwt>
<pdfrwt beam="1">  1        1 0.22990151E+00 0.81535988E+03</pdfrwt>
<pdfrwt beam="2">  1       -1 0.51852414E-01 0.81535988E+03</pdfrwt>
<totfact> 0.25328132E+01</totfact>
</mgrwt>
</event>
<event>
 4    1  0.4055965E-007  0.7259997E+03  0.7818608E-02  0.9902784E-01
          1   -1    0    0  501    0  0.00000000000E+00  0.00000000000E+00  0.14961066111E+04  0.14961066111E+04  0.50400000000E-02 0. -1.
         -1   -1    0    0    0  501 -0.00000000000E+00 -0.00000000000E+00 -0.36268358456E+03  0.36268358459E+03  0.50400000000E-02 0.  1.
    8880023    1    1    2    0    0  0.20382861739E+03 -0.22741862940E+03  0.12921675819E+04  0.14821513432E+04  0.65864270000E+03 0. -1.
    8880022    1    1    2    0    0 -0.20382861739E+03  0.22741862940E+03 -0.15874455541E+03  0.37663885242E+03  0.15294330000E+03 0.  0.
<mgrwt>
<rscale>  0 0.60126534E+03</rscale>
<asrwt>0</asrwt>
<pdfrwt beam="1">  1        1 0.23017025E+00 0.72599969E+03</pdfrwt>
<pdfrwt beam="2">  1       -1 0.55797475E-01 0.72599969E+03</pdfrwt>
<totfact> 0.22179398E+01</totfact>
</mgrwt>
</event>
<event>
 4    1  0.4055965E-007  0.1320664E+04  0.7818608E-02  0.9047918E-01
          1   -1    0    0  501    0  0.00000000000E+00  0.00000000000E+00  0.16047009369E+04  0.16047009369E+04  0.50400000000E-02 0. -1.
         -1   -1    0    0    0  501 -0.00000000000E+00 -0.00000000000E+00 -0.11856508977E+04  0.11856508977E+04  0.50400000000E-02 0.  1.
    8880023    1    1    2    0    0 -0.42544162948E+03  0.10627052622E+04  0.83541638157E+03  0.15627135986E+04  0.65864270000E+03 0. -1.
    8880022    1    1    2    0    0  0.42544162948E+03 -0.10627052622E+04 -0.41636634238E+03  0.12276382360E+04  0.15294330000E+03 0.  0.
<mgrwt>
<rscale>  0 0.12771089E+04</rscale>
<asrwt>0</asrwt>
<pdfrwt beam="1">  1        1 0.24687707E+00 0.13206639E+04</pdfrwt>
<pdfrwt beam="2">  1       -1 0.18240783E+00 0.13206639E+04</pdfrwt>
<totfact> 0.10704567E+00</totfact>
</mgrwt>
</event>
<event>
 4    1  0.4055965E-007  0.7242894E+03  0.7818608E-02  0.9908331E-01
          1   -1    0    0  501    0  0.00000000000E+00  0.00000000000E+00  0.17368773779E+04  0.17368773779E+04  0.50400000000E-02 0. -1.
         -1   -1    0    0    0  501 -0.00000000000E+00 -0.00000000000E+00 -0.51134109459E+03  0.51134109462E+03  0.50400000000E-02 0.  1.
    8880023    1    1    2    0    0 -0.21845101790E+03 -0.20751875316E+03  0.15924448264E+04  0.17494215077E+04  0.65864270000E+03 0. -1.
    8880022    1    1    2    0    0  0.21845101790E+03  0.20751875316E+03 -0.36690854309E+03  0.49879696485E+03  0.15294330000E+03 0.  0.
<mgrwt>
<rscale>  0 0.59859239E+03</rscale>
<asrwt>0</asrwt>
<pdfrwt beam="1">  1        1 0.26721190E+00 0.72428937E+03</pdfrwt>
<pdfrwt beam="2">  1       -1 0.78667861E-01 0.72428937E+03</pdfrwt>
<totfact> 0.76182466E+00</totfact>
</mgrwt>
</event>
<event>
 4    1  0.4055965E-007  0.6836444E+03  0.7818608E-02  0.1007333E+00
          1   -1    0    0  501    0  0.00000000000E+00  0.00000000000E+00  0.29462521129E+04  0.29462521129E+04  0.50400000000E-02 0. -1.
         -1   -1    0    0    0  501 -0.00000000000E+00 -0.00000000000E+00 -0.41592788301E+03  0.41592788304E+03  0.50400000000E-02 0.  1.
    8880023    1    1    2    0    0 -0.17219221260E+03  0.62524834617E+02  0.28681861080E+04  0.29485354448E+04  0.65864270000E+03 0. -1.
    8880022    1    1    2    0    0  0.17219221260E+03 -0.62524834617E+02 -0.33786187807E+03  0.41364455115E+03  0.15294330000E+03 0.  0.
<mgrwt>
<rscale>  0 0.52548526E+03</rscale>
<asrwt>0</asrwt>
<pdfrwt beam="1">  1        1 0.45326955E+00 0.68364444E+03</pdfrwt>
<pdfrwt beam="2">  1       -1 0.63988906E-01 0.68364444E+03</pdfrwt>
<totfact> 0.17662984E+00</totfact>
</mgrwt>
</event>
<event>
 4    1  0.4933699E-007  0.7273482E+03  0.7818608E-02  0.9898464E-01
         -1   -1    0    0    0  501 -0.00000000000E+00  0.00000000000E+00  0.64565704847E+03  0.64565704849E+03  0.50400000000E-02 0.  1.
          1   -1    0    0  501    0  0.00000000000E+00 -0.00000000000E+00 -0.16706436772E+04  0.16706436772E+04  0.50400000000E-02 0. -1.
    8880023    1    1    2    0    0 -0.24212443161E+03 -0.19131386076E+03 -0.15363183252E+04  0.16997968809E+04  0.65864270000E+03 0. -1.
    8880022    1    1    2    0    0  0.24212443161E+03  0.19131386076E+03  0.51133169653E+03  0.61650384475E+03  0.15294330000E+03 0.  0.
<mgrwt>
<rscale>  0 0.60335804E+03</rscale>
<asrwt>0</asrwt>
<pdfrwt beam="1">  1        1 0.25702210E+00 0.72734822E+03</pdfrwt>
<pdfrwt beam="2">  1       -1 0.99331854E-01 0.72734822E+03</pdfrwt>
<totfact> 0.50648628E+00</totfact>
</mgrwt>
</event>
<event>
 4    1  0.4055965E-007  0.8383952E+03  0.7818608E-02  0.9633214E-01
         -1   -1    0    0    0  501 -0.00000000000E+00  0.00000000000E+00  0.34118943340E+03  0.34118943343E+03  0.50400000000E-02 0.  1.
          1   -1    0    0  501    0  0.00000000000E+00 -0.00000000000E+00 -0.33713101472E+04  0.33713101472E+04  0.50400000000E-02 0. -1.
    8880023    1    1    2    0    0  0.29709261425E+03 -0.42524376044E+03 -0.30581111928E+04  0.31709542020E+04  0.65864270000E+03 0.  0.
    8880022    1    1    2    0    0 -0.29709261425E+03  0.42524376044E+03  0.27990478983E+02  0.54154537868E+03  0.15294330000E+03 0.  0.
<mgrwt>
<rscale>  0 0.75136347E+03</rscale>
<asrwt>0</asrwt>
<pdfrwt beam="1">  1        1 0.51866308E+00 0.83839518E+03</pdfrwt>
<pdfrwt beam="2">  1       -1 0.52490684E-01 0.83839518E+03</pdfrwt>
<totfact> 0.12282472E+00</totfact>
</mgrwt>
</event>
<event>
 4    1  0.4055965E-007  0.6655188E+03  0.7818608E-02  0.1019102E+00
         -1   -1    0    0    0  501 -0.00000000000E+00  0.00000000000E+00  0.69845848818E+03  0.69845848819E+03  0.50400000000E-02 0.  1.
          1   -1    0    0  501    0  0.00000000000E+00 -0.00000000000E+00 -0.22152042222E+04  0.22152042222E+04  0.50400000000E-02 0. -1.
    8880023    1    1    2    0    0 -0.86106007229E+02 -0.41119358393E+02 -0.21524003001E+04  0.22529408124E+04  0.65864270000E+03 0. -1.
    8880022    1    1    2    0    0  0.86106007229E+02  0.41119358393E+02  0.63565456607E+03  0.66072189799E+03  0.15294330000E+03 0.  0.
<mgrwt>
<rscale>  0 0.48012038E+03</rscale>
<asrwt>0</asrwt>
<pdfrwt beam="1">  1        1 0.34080065E+00 0.66551878E+03</pdfrwt>
<pdfrwt beam="2">  1       -1 0.10745515E+00 0.66551878E+03</pdfrwt>
<totfact> 0.18502272E+00</totfact>
</mgrwt>
</event>
<event>
 4    1  0.4055965E-007  0.8928865E+03  0.7818608E-02  0.9537549E-01
         -1   -1    0    0    0  501 -0.00000000000E+00  0.00000000000E+00  0.47880092869E+03  0.47880092872E+03  0.50400000000E-02 0.  1.
          1   -1    0    0  501    0  0.00000000000E+00 -0.00000000000E+00 -0.17929638448E+04  0.17929638449E+04  0.50400000000E-02 0. -1.
    8880023    1    1    2    0    0 -0.30798593130E+03  0.51824778688E+03 -0.13828148065E+04  0.16460325325E+04  0.65864270000E+03 0.  0.
    8880022    1    1    2    0    0  0.30798593130E+03 -0.51824778688E+03  0.68651890392E+02  0.62573224110E+03  0.15294330000E+03 0. -1.
<mgrwt>
<rscale>  0 0.81571209E+03</rscale>
<asrwt>0</asrwt>
<pdfrwt beam="1">  1        1 0.27584059E+00 0.89288650E+03</pdfrwt>
<pdfrwt beam="2">  1       -1 0.73661682E-01 0.89288650E+03</pdfrwt>
<totfact> 0.78187752E+00</totfact>
</mgrwt>
</event>
<event>
 4    1  0.4055965E-007  0.8774636E+03  0.7818608E-02  0.9563224E-01
         -1   -1    0    0    0  501 -0.00000000000E+00  0.00000000000E+00  0.63921647022E+03  0.63921647024E+03  0.50400000000E-02 0.  1.
          1   -1    0    0  501    0  0.00000000000E+00 -0.00000000000E+00 -0.19620966563E+04  0.19620966563E+04  0.50400000000E-02 0. -1.
    8880023    1    1    2    0    0  0.48548553569E+03  0.31691644472E+03 -0.16857582009E+04  0.19004534081E+04  0.65864270000E+03 0. -1.
    8880022    1    1    2    0    0 -0.48548553569E+03 -0.31691644472E+03  0.36287801479E+03  0.70085971844E+03  0.15294330000E+03 0.  0.
<mgrwt>
<rscale>  0 0.79778858E+03</rscale>
<asrwt>0</asrwt>
<pdfrwt beam="1">  1        1 0.30186102E+00 0.87746364E+03</pdfrwt>
<pdfrwt beam="2">  1       -1 0.98340997E-01 0.87746364E+03</pdfrwt>
<totfact> 0.32211505E+00</totfact>
</mgrwt>
</event>
<event>
 4    1  0.4055965E-007  0.7406491E+03  0.7818608E-02  0.9858060E-01
          1   -1    0    0  501    0  0.00000000000E+00  0.00000000000E+00  0.17502481049E+04  0.17502481049E+04  0.50400000000E-02 0. -1.
         -1   -1    0    0    0  501 -0.00000000000E+00 -0.00000000000E+00 -0.29343004971E+03  0.29343004976E+03  0.50400000000E-02 0.  1.
    8880023    1    1    2    0    0 -0.29779474808E+03 -0.16145944343E+03  0.14966377200E+04  0.16698759040E+04  0.65864270000E+03 0. -1.
    8880022    1    1    2    0    0  0.29779474808E+03  0.16145944343E+03 -0.39819664760E+02  0.37380225063E+03  0.15294330000E+03 0.  0.
<mgrwt>
<rscale>  0 0.62337630E+03</rscale>
<asrwt>0</asrwt>
<pdfrwt beam="1">  1        1 0.26926894E+00 0.74064909E+03</pdfrwt>
<pdfrwt beam="2">  1       -1 0.45143084E-01 0.74064909E+03</pdfrwt>
<totfact> 0.22261761E+01</totfact>
</mgrwt>
</event>
<event>
 4    1  0.4055965E-007  0.7339026E+03  0.7818608E-02  0.9878078E-01
         -1   -1    0    0    0  501 -0.00000000000E+00  0.00000000000E+00  0.87124822872E+02  0.87124823018E+02  0.50400000000E-02 0.  1.
          1   -1    0    0  501    0  0.00000000000E+00 -0.00000000000E+00 -0.46743454954E+04  0.46743454954E+04  0.50400000000E-02 0. -1.
    8880023    1    1    2    0    0 -0.15895351160E+03 -0.28202245031E+03 -0.40494135164E+04  0.41153812600E+04  0.65864270000E+03 0.  0.
    8880022    1    1    2    0    0  0.15895351160E+03  0.28202245031E+03 -0.53780715610E+03  0.64608905849E+03  0.15294330000E+03 0.  0.
<mgrwt>
<rscale>  0 0.61335587E+03</rscale>
<asrwt>0</asrwt>
<pdfrwt beam="1">  1        1 0.71912988E+00 0.73390264E+03</pdfrwt>
<pdfrwt beam="2">  1       -1 0.13403823E-01 0.73390264E+03</pdfrwt>
<totfact> 0.94556499E-01</totfact>
</mgrwt>
</event>
<event>
 4    1  0.4055965E-007  0.8606464E+03  0.7818608E-02  0.9592415E-01
          1   -1    0    0  501    0  0.00000000000E+00  0.00000000000E+00  0.11291637300E+04  0.11291637300E+04  0.50400000000E-02 0. -1.
         -1   -1    0    0    0  501 -0.00000000000E+00 -0.00000000000E+00 -0.56581579879E+03  0.56581579881E+03  0.50400000000E-02 0.  1.
    8880023    1    1    2    0    0  0.34721031345E+03 -0.43167934541E+03  0.69400619593E+03  0.11056024897E+04  0.65864270000E+03 0. -1.
    8880022    1    1    2    0    0 -0.34721031345E+03  0.43167934541E+03 -0.13065826475E+03  0.58937703907E+03  0.15294330000E+03 0.  0.
<mgrwt>
<rscale>  0 0.77800272E+03</rscale>
<asrwt>0</asrwt>
<pdfrwt beam="1">  1        1 0.17371750E+00 0.86064642E+03</pdfrwt>
<pdfrwt beam="2">  1       -1 0.87048584E-01 0.86064642E+03</pdfrwt>
<totfact> 0.15949603E+01</totfact>
</mgrwt>
</event>
<event>
 4    1  0.4055965E-007  0.7466126E+03  0.7818608E-02  0.9841087E-01
         -1   -1    0    0    0  501 -0.00000000000E+00  0.00000000000E+00  0.16288980805E+04  0.16288980805E+04  0.50400000000E-02 0.  1.
          1   -1    0    0  501    0  0.00000000000E+00 -0.00000000000E+00 -0.36989839502E+03  0.36989839505E+03  0.50400000000E-02 0. -1.
    8880023    1    1    2    0    0  0.24672363786E+01 -0.35158794522E+03  0.70446420208E+02  0.74992871319E+03  0.65864270000E+03 0.  0.
    8880022    1    1    2    0    0 -0.24672363786E+01  0.35158794522E+03  0.11885532653E+04  0.12488677624E+04  0.15294330000E+03 0.  0.
<mgrwt>
<rscale>  0 0.63203411E+03</rscale>
<asrwt>0</asrwt>
<pdfrwt beam="1">  1        1 0.56907446E-01 0.74661260E+03</pdfrwt>
<pdfrwt beam="2">  1       -1 0.25059970E+00 0.74661260E+03</pdfrwt>
<totfact> 0.47858545E+00</totfact>
</mgrwt>
</event>
<event>
 4    1  0.4055965E-007  0.9223991E+03  0.7818608E-02  0.9490990E-01
          1   -1    0    0  501    0  0.00000000000E+00  0.00000000000E+00  0.15734017554E+04  0.15734017554E+04  0.50400000000E-02 0. -1.
         -1   -1    0    0    0  501 -0.00000000000E+00 -0.00000000000E+00 -0.90107751048E+03  0.90107751049E+03  0.50400000000E-02 0.  1.
    8880023    1    1    2    0    0  0.41652588765E+03  0.49347348851E+03  0.12779375177E+04  0.15760534269E+04  0.65864270000E+03 0. -1.
    8880022    1    1    2    0    0 -0.41652588765E+03 -0.49347348851E+03 -0.60561327282E+03  0.89842583900E+03  0.15294330000E+03 0.  0.
<mgrwt>
<rscale>  0 0.84951345E+03</rscale>
<asrwt>0</asrwt>
<pdfrwt beam="1">  1        1 0.24206181E+00 0.92239910E+03</pdfrwt>
<pdfrwt beam="2">  1       -1 0.13862731E+00 0.92239910E+03</pdfrwt>
<totfact> 0.25463444E+00</totfact>
</mgrwt>
</event>
<event>
 4    1  0.4055965E-007  0.1022677E+04  0.7818608E-02  0.9352472E-01
          1   -1    0    0  501    0  0.00000000000E+00  0.00000000000E+00  0.84171569272E+03  0.84171569274E+03  0.50400000000E-02 0. -1.
         -1   -1    0    0    0  501 -0.00000000000E+00 -0.00000000000E+00 -0.11058063935E+04  0.11058063935E+04  0.50400000000E-02 0.  1.
    8880023    1    1    2    0    0  0.78128964793E+03  0.40563702330E+02  0.17484123920E+03  0.10375155869E+04  0.65864270000E+03 0. -1.
    8880022    1    1    2    0    0 -0.78128964793E+03 -0.40563702330E+02 -0.43893194001E+03  0.91000649936E+03  0.15294330000E+03 0.  1.
<mgrwt>
<rscale>  0 0.96092441E+03</rscale>
<asrwt>0</asrwt>
<pdfrwt beam="1">  1        1 0.12949472E+00 0.10226774E+04</pdfrwt>
<pdfrwt beam="2">  1       -1 0.17012406E+00 0.10226774E+04</pdfrwt>
<totfact> 0.49992008E+00</totfact>
</mgrwt>
</event>
<event>
 4    1  0.4055965E-007  0.8653486E+03  0.7818608E-02  0.9584119E-01
         -1   -1    0    0    0  501 -0.00000000000E+00  0.00000000000E+00  0.94320120431E+03  0.94320120432E+03  0.50400000000E-02 0.  1.
          1   -1    0    0  501    0  0.00000000000E+00 -0.00000000000E+00 -0.11057210834E+04  0.11057210834E+04  0.50400000000E-02 0. -1.
    8880023    1    1    2    0    0 -0.55558351707E+03 -0.79654927739E+02 -0.80522812138E+03  0.11820408139E+04  0.65864270000E+03 0. -1.
    8880022    1    1    2    0    0  0.55558351707E+03  0.79654927739E+02  0.64270824230E+03  0.86688147384E+03  0.15294330000E+03 0.  0.
<mgrwt>
<rscale>  0 0.78356251E+03</rscale>
<asrwt>0</asrwt>
<pdfrwt beam="1">  1        1 0.17011094E+00 0.86534858E+03</pdfrwt>
<pdfrwt beam="2">  1       -1 0.14510788E+00 0.86534858E+03</pdfrwt>
<totfact> 0.48827715E+00</totfact>
</mgrwt>
</event>
<event>
 4    1  0.4055965E-007  0.9668793E+03  0.7818608E-02  0.9426233E-01
         -1   -1    0    0    0  501 -0.00000000000E+00  0.00000000000E+00  0.13913743356E+04  0.13913743356E+04  0.50400000000E-02 0.  1.
          1   -1    0    0  501    0  0.00000000000E+00 -0.00000000000E+00 -0.95468463274E+03  0.95468463275E+03  0.50400000000E-02 0. -1.
    8880023    1    1    2    0    0  0.35910130064E+03  0.60999314432E+03  0.10279112884E+04  0.14111899955E+04  0.65864270000E+03 0.  0.
    8880022    1    1    2    0    0 -0.35910130064E+03 -0.60999314432E+03 -0.59122158555E+03  0.93486897289E+03  0.15294330000E+03 0.  0.
<mgrwt>
<rscale>  0 0.89947867E+03</rscale>
<asrwt>0</asrwt>
<pdfrwt beam="1">  1        1 0.14687456E+00 0.96687930E+03</pdfrwt>
<pdfrwt beam="2">  1       -1 0.21405759E+00 0.96687930E+03</pdfrwt>
<totfact> 0.20017804E+00</totfact>
</mgrwt>
</event>
<event>
 4    1  0.4055965E-007  0.9762762E+03  0.7818608E-02  0.9413276E-01
         -1   -1    0    0    0  501 -0.00000000000E+00  0.00000000000E+00  0.30827251681E+03  0.30827251685E+03  0.50400000000E-02 0.  1.
          1   -1    0    0  501    0  0.00000000000E+00 -0.00000000000E+00 -0.25021540166E+04  0.25021540166E+04  0.50400000000E-02 0. -1.
    8880023    1    1    2    0    0 -0.52846121302E+03  0.48993241555E+03 -0.15509860482E+04  0.18326682606E+04  0.65864270000E+03 0. -1.
    8880022    1    1    2    0    0  0.52846121302E+03 -0.48993241555E+03 -0.64289545165E+03  0.97775827290E+03  0.15294330000E+03 0.  0.
<mgrwt>
<rscale>  0 0.90991154E+03</rscale>
<asrwt>0</asrwt>
<pdfrwt beam="1">  1        1 0.38494676E+00 0.97627621E+03</pdfrwt>
<pdfrwt beam="2">  1       -1 0.47426543E-01 0.97627621E+03</pdfrwt>
<totfact> 0.61193783E+00</totfact>
</mgrwt>
</event>
<event>
 4    1  0.4055965E-007  0.8378352E+03  0.7818608E-02  0.9634276E-01
         -1   -1    0    0    0  501 -0.00000000000E+00  0.00000000000E+00  0.82554328068E+03  0.82554328070E+03  0.50400000000E-02 0.  1.
          1   -1    0    0  501    0  0.00000000000E+00 -0.00000000000E+00 -0.77689906595E+03  0.77689906596E+03  0.50400000000E-02 0. -1.
    8880023    1    1    2    0    0  0.50977302223E+03  0.91044624629E+02 -0.37324459476E+03  0.91721283879E+03  0.65864270000E+03 0. -1.
    8880022    1    1    2    0    0 -0.50977302223E+03 -0.91044624629E+02  0.42188880949E+03  0.68522950787E+03  0.15294330000E+03 0.  0.
<mgrwt>
<rscale>  0 0.75068539E+03</rscale>
<asrwt>0</asrwt>
<pdfrwt beam="1">  1        1 0.11952293E+00 0.83783522E+03</pdfrwt>
<pdfrwt beam="2">  1       -1 0.12700666E+00 0.83783522E+03</pdfrwt>
<totfact> 0.12696698E+01</totfact>
</mgrwt>
</event>
<event>
 4    1  0.4055965E-007  0.7183306E+03  0.7818608E-02  0.9928276E-01
          1   -1    0    0  501    0  0.00000000000E+00  0.00000000000E+00  0.15933762283E+04  0.15933762283E+04  0.50400000000E-02 0. -1.
         -1   -1    0    0    0  501 -0.00000000000E+00 -0.00000000000E+00 -0.18125059291E+03  0.18125059298E+03  0.50400000000E-02 0.  1.
    8880023    1    1    2    0    0  0.18698744489E+03  0.21731162434E+03  0.11554863111E+04  0.13605688032E+04  0.65864270000E+03 0. -1.
    8880022    1    1    2    0    0 -0.18698744489E+03 -0.21731162434E+03  0.25663932427E+03  0.41405801816E+03  0.15294330000E+03 0.  1.
<mgrwt>
<rscale>  0 0.58910287E+03</rscale>
<asrwt>0</asrwt>
<pdfrwt beam="1">  1        1 0.24513480E+00 0.71833060E+03</pdfrwt>
<pdfrwt beam="2">  1       -1 0.27884707E-01 0.71833060E+03</pdfrwt>
<totfact> 0.67339307E+01</totfact>
</mgrwt>
</event>
<event>
 4    1  0.4055965E-007  0.7390259E+03  0.7818608E-02  0.9862794E-01
         -1   -1    0    0    0  501 -0.00000000000E+00  0.00000000000E+00  0.53739195340E+03  0.53739195342E+03  0.50400000000E-02 0.  1.
          1   -1    0    0  501    0  0.00000000000E+00 -0.00000000000E+00 -0.15460939935E+04  0.15460939935E+04  0.50400000000E-02 0. -1.
    8880023    1    1    2    0    0 -0.13619743535E+03  0.30626665165E+03 -0.13768478662E+04  0.15626481550E+04  0.65864270000E+03 0. -1.
    8880022    1    1    2    0    0  0.13619743535E+03 -0.30626665165E+03  0.36814582606E+03  0.52083779200E+03  0.15294330000E+03 0.  0.
<mgrwt>
<rscale>  0 0.62098837E+03</rscale>
<asrwt>0</asrwt>
<pdfrwt beam="1">  1        1 0.23786061E+00 0.73902585E+03</pdfrwt>
<pdfrwt beam="2">  1       -1 0.82675686E-01 0.73902585E+03</pdfrwt>
<totfact> 0.92006573E+00</totfact>
</mgrwt>
</event>
<event>
 4    1  0.4055965E-007  0.6693281E+03  0.7818608E-02  0.1016149E+00
          1   -1    0    0  501    0  0.00000000000E+00  0.00000000000E+00  0.19577857454E+04  0.19577857454E+04  0.50400000000E-02 0. -1.
         -1   -1    0    0    0  501 -0.00000000000E+00 -0.00000000000E+00 -0.13724971028E+03  0.13724971038E+03  0.50400000000E-02 0.  1.
    8880023    1    1    2    0    0  0.54928256586E+02 -0.10570143258E+03  0.17734291902E+04  0.18955345433E+04  0.65864270000E+03 0. -1.
    8880022    1    1    2    0    0 -0.54928256586E+02  0.10570143258E+03  0.47106844997E+02  0.19950091248E+03  0.15294330000E+03 0.  0.
<mgrwt>
<rscale>  0 0.49102222E+03</rscale>
<asrwt>0</asrwt>
<pdfrwt beam="1">  1        1 0.30119778E+00 0.66932811E+03</pdfrwt>
<pdfrwt beam="2">  1       -1 0.21115342E-01 0.66932811E+03</pdfrwt>
<totfact> 0.61885877E+01</totfact>
</mgrwt>
</event>
<event>
 4    1  0.4055965E-007  0.6817804E+03  0.7818608E-02  0.1008334E+00
         -1   -1    0    0    0  501 -0.00000000000E+00  0.00000000000E+00  0.58508448821E+03  0.58508448823E+03  0.50400000000E-02 0.  1.
          1   -1    0    0  501    0  0.00000000000E+00 -0.00000000000E+00 -0.44965374794E+03  0.44965374797E+03  0.50400000000E-02 0. -1.
    8880023    1    1    2    0    0 -0.16158788020E+03  0.70026406778E+02 -0.11621887518E+03  0.69161504747E+03  0.65864270000E+03 0.  0.
    8880022    1    1    2    0    0  0.16158788020E+03 -0.70026406778E+02  0.25164961544E+03  0.34312318873E+03  0.15294330000E+03 0.  0.
<mgrwt>
<rscale>  0 0.52142187E+03</rscale>
<asrwt>0</asrwt>
<pdfrwt beam="1">  1        1 0.69177499E-01 0.68178042E+03</pdfrwt>
<pdfrwt beam="2">  1       -1 0.90012999E-01 0.68178042E+03</pdfrwt>
<totfact> 0.63477481E+01</totfact>
</mgrwt>
</event>
<event>
 4    1  0.4055965E-007  0.6746597E+03  0.7818608E-02  0.1012522E+00
          1   -1    0    0  501    0  0.00000000000E+00  0.00000000000E+00  0.11646630764E+04  0.11646630764E+04  0.50400000000E-02 0. -1.
         -1   -1    0    0    0  501 -0.00000000000E+00 -0.00000000000E+00 -0.21549068051E+03  0.21549068057E+03  0.50400000000E-02 0.  1.
    8880023    1    1    2    0    0  0.61026203080E+02  0.13278271352E+03  0.95413208507E+03  0.11685605198E+04  0.65864270000E+03 0. -1.
    8880022    1    1    2    0    0 -0.61026203080E+02 -0.13278271352E+03 -0.49596891878E+01  0.21159323714E+03  0.15294330000E+03 0.  0.
<mgrwt>
<rscale>  0 0.50484629E+03</rscale>
<asrwt>0</asrwt>
<pdfrwt beam="1">  1        1 0.17917893E+00 0.67465966E+03</pdfrwt>
<pdfrwt beam="2">  1       -1 0.33152413E-01 0.67465966E+03</pdfrwt>
<totfact> 0.99607000E+01</totfact>
</mgrwt>
</event>
<event>
 4    1  0.4055965E-007  0.7043126E+03  0.7818608E-02  0.9979760E-01
          1   -1    0    0  501    0  0.00000000000E+00  0.00000000000E+00  0.12248769596E+04  0.12248769596E+04  0.50400000000E-02 0. -1.
         -1   -1    0    0    0  501 -0.00000000000E+00 -0.00000000000E+00 -0.63000945866E+03  0.63000945868E+03  0.50400000000E-02 0.  1.
    8880023    1    1    2    0    0  0.12318652531E+03  0.21695877391E+03  0.10793876185E+04  0.12888498232E+04  0.65864270000E+03 0. -1.
    8880022    1    1    2    0    0 -0.12318652531E+03 -0.21695877391E+03 -0.48452011757E+03  0.56603659506E+03  0.15294330000E+03 0.  0.
<mgrwt>
<rscale>  0 0.56546692E+03</rscale>
<asrwt>0</asrwt>
<pdfrwt beam="1">  1        1 0.18844261E+00 0.70431260E+03</pdfrwt>
<pdfrwt beam="2">  1       -1 0.96924532E-01 0.70431260E+03</pdfrwt>
<totfact> 0.10922053E+01</totfact>
</mgrwt>
</event>
<event>
 4    1  0.4055965E-007  0.7692615E+03  0.7818608E-02  0.9781695E-01
         -1   -1    0    0    0  501 -0.00000000000E+00  0.00000000000E+00  0.77977273286E+03  0.77977273288E+03  0.50400000000E-02 0.  1.
          1   -1    0    0  501    0  0.00000000000E+00 -0.00000000000E+00 -0.11989909745E+04  0.11989909745E+04  0.50400000000E-02 0. -1.
    8880023    1    1    2    0    0 -0.35330835360E+03  0.18200619941E+03 -0.99808398610E+03  0.12601328894E+04  0.65864270000E+03 0. -1.
    8880022    1    1    2    0    0  0.35330835360E+03 -0.18200619941E+03  0.57886574450E+03  0.71863081796E+03  0.15294330000E+03 0.  0.
<mgrwt>
<rscale>  0 0.66354229E+03</rscale>
<asrwt>0</asrwt>
<pdfrwt beam="1">  1        1 0.18446015E+00 0.76926150E+03</pdfrwt>
<pdfrwt beam="2">  1       -1 0.11996504E+00 0.76926150E+03</pdfrwt>
<totfact> 0.68536613E+00</totfact>
</mgrwt>
</event>
<event>
 4    1  0.4055965E-007  0.6595063E+03  0.7818608E-02  0.1024668E+00
          1   -1    0    0  501    0  0.00000000000E+00  0.00000000000E+00  0.77796958585E+03  0.77796958586E+03  0.50400000000E-02 0. -1.
         -1   -1    0    0    0  501 -0.00000000000E+00 -0.00000000000E+00 -0.51516099272E+03  0.51516099275E+03  0.50400000000E-02 0.  1.
    8880023    1    1    2    0    0  0.37561611277E+01 -0.33530614753E+02  0.61870734796E+03  0.90429386792E+03  0.65864270000E+03 0. -1.
    8880022    1    1    2    0    0 -0.37561611277E+01  0.33530614753E+02 -0.35589875484E+03  0.38883671069E+03  0.15294330000E+03 0.  0.
<mgrwt>
<rscale>  0 0.46039073E+03</rscale>
<asrwt>0</asrwt>
<pdfrwt beam="1">  1        1 0.11968763E+00 0.65950634E+03</pdfrwt>
<pdfrwt beam="2">  1       -1 0.79255537E-01 0.65950634E+03</pdfrwt>
<totfact> 0.38043034E+01</totfact>
</mgrwt>
</event>
<event>
 4    1  0.5805498E-007  0.7150422E+03  0.7818608E-02  0.9939733E-01
          1   -1    0    0  501    0  0.00000000000E+00  0.00000000000E+00  0.14717113788E+04  0.14717113788E+04  0.50400000000E-02 0. -1.
         -1   -1    0    0    0  501 -0.00000000000E+00 -0.00000000000E+00 -0.13611446307E+04  0.13611446307E+04  0.50400000000E-02 0.  1.
    8880023    1    1    2    0    0  0.27832920235E+03 -0.28263851989E+01  0.13638671469E+04  0.15399412112E+04  0.65864270000E+03 0. -1.
    8880022    1    1    2    0    0 -0.27832920235E+03  0.28263851989E+01 -0.12533003988E+04  0.12929147984E+04  0.15294330000E+03 0.  0.
<mgrwt>
<rscale>  0 0.58373707E+03</rscale>
<asrwt>0</asrwt>
<pdfrwt beam="1">  1        1 0.22641713E+00 0.71504219E+03</pdfrwt>
<pdfrwt beam="2">  1       -1 0.20940687E+00 0.71504219E+03</pdfrwt>
<totfact> 0.94272860E-01</totfact>
</mgrwt>
</event>
<event>
 4    1  0.4055965E-007  0.8273140E+03  0.7818608E-02  0.9654581E-01
         -1   -1    0    0    0  501 -0.00000000000E+00  0.00000000000E+00  0.59103403350E+03  0.59103403352E+03  0.50400000000E-02 0.  1.
          1   -1    0    0  501    0  0.00000000000E+00 -0.00000000000E+00 -0.12149478432E+04  0.12149478432E+04  0.50400000000E-02 0. -1.
    8880023    1    1    2    0    0  0.48201770680E+03 -0.13526721752E+03 -0.89305079939E+03  0.12173693878E+04  0.65864270000E+03 0.  0.
    8880022    1    1    2    0    0 -0.48201770680E+03  0.13526721752E+03  0.26913698973E+03  0.58861248888E+03  0.15294330000E+03 0.  0.
<mgrwt>
<rscale>  0 0.73786607E+03</rscale>
<asrwt>0</asrwt>
<pdfrwt beam="1">  1        1 0.18691505E+00 0.82731403E+03</pdfrwt>
<pdfrwt beam="2">  1       -1 0.90928313E-01 0.82731403E+03</pdfrwt>
<totfact> 0.12590476E+01</totfact>
</mgrwt>
</event>
<event>
 4    1  0.4055965E-007  0.8392678E+03  0.7818608E-02  0.9631562E-01
          1   -1    0    0  501    0  0.00000000000E+00  0.00000000000E+00  0.94058766239E+03  0.94058766240E+03  0.50400000000E-02 0. -1.
         -1   -1    0    0    0  501 -0.00000000000E+00 -0.00000000000E+00 -0.51738368133E+03  0.51738368136E+03  0.50400000000E-02 0.  1.
    8880023    1    1    2    0    0  0.45443524971E+03 -0.25307870816E+03  0.35599427532E+03  0.91164815528E+03  0.65864270000E+03 0.  1.
    8880022    1    1    2    0    0 -0.45443524971E+03  0.25307870816E+03  0.67209705736E+02  0.54632318848E+03  0.15294330000E+03 0. -1.
<mgrwt>
<rscale>  0 0.75241934E+03</rscale>
<asrwt>0</asrwt>
<pdfrwt beam="1">  1        1 0.14470579E+00 0.83926780E+03</pdfrwt>
<pdfrwt beam="2">  1       -1 0.79597491E-01 0.83926780E+03</pdfrwt>
<totfact> 0.27057287E+01</totfact>
</mgrwt>
</event>
<event>
 4    1  0.4055965E-007  0.6798275E+03  0.7818608E-02  0.1009421E+00
          1   -1    0    0  501    0  0.00000000000E+00  0.00000000000E+00  0.15495885877E+04  0.15495885877E+04  0.50400000000E-02 0. -1.
         -1   -1    0    0    0  501 -0.00000000000E+00 -0.00000000000E+00 -0.30172420516E+03  0.30172420520E+03  0.50400000000E-02 0.  1.
    8880023    1    1    2    0    0  0.14496291283E+03  0.85679494528E+02  0.14144617653E+04  0.15693525779E+04  0.65864270000E+03 0. -1.
    8880022    1    1    2    0    0 -0.14496291283E+03 -0.85679494528E+02 -0.16659738280E+03  0.28196021501E+03  0.15294330000E+03 0.  0.
<mgrwt>
<rscale>  0 0.51705240E+03</rscale>
<asrwt>0</asrwt>
<pdfrwt beam="1">  1        1 0.23839825E+00 0.67982750E+03</pdfrwt>
<pdfrwt beam="2">  1       -1 0.46419108E-01 0.67982750E+03</pdfrwt>
<totfact> 0.29106452E+01</totfact>
</mgrwt>
</event>
<event>
 4    1  0.4055965E-007  0.1042930E+04  0.7818608E-02  0.9327429E-01
          1   -1    0    0  501    0  0.00000000000E+00  0.00000000000E+00  0.10795709676E+04  0.10795709677E+04  0.50400000000E-02 0. -1.
         -1   -1    0    0    0  501 -0.00000000000E+00 -0.00000000000E+00 -0.97241132524E+03  0.97241132525E+03  0.50400000000E-02 0.  1.
    8880023    1    1    2    0    0  0.76600085770E+03  0.25910608062E+03  0.48048732065E+03  0.11482907065E+04  0.65864270000E+03 0. -1.
    8880022    1    1    2    0    0 -0.76600085770E+03 -0.25910608062E+03 -0.37332767825E+03  0.90369158643E+03  0.15294330000E+03 0.  0.
<mgrwt>
<rscale>  0 0.98296458E+03</rscale>
<asrwt>0</asrwt>
<pdfrwt beam="1">  1        1 0.16608784E+00 0.10429302E+04</pdfrwt>
<pdfrwt beam="2">  1       -1 0.14960174E+00 0.10429302E+04</pdfrwt>
<totfact> 0.46073055E+00</totfact>
</mgrwt>
</event>
<event>
 4    1  0.4055965E-007  0.6647392E+03  0.7818608E-02  0.1019753E+00
          1   -1    0    0  501    0  0.00000000000E+00  0.00000000000E+00  0.16011077051E+04  0.16011077051E+04  0.50400000000E-02 0. -1.
         -1   -1    0    0    0  501 -0.00000000000E+00 -0.00000000000E+00 -0.24577869094E+03  0.24577869099E+03  0.50400000000E-02 0.  1.
    8880023    1    1    2    0    0 -0.73809259992E+02 -0.51187341854E+02  0.14851200891E+04  0.16271016674E+04  0.65864270000E+03 0. -1.
    8880022    1    1    2    0    0  0.73809259992E+02  0.51187341854E+02 -0.12979107492E+03  0.21978472870E+03  0.15294330000E+03 0.  0.
<mgrwt>
<rscale>  0 0.47775760E+03</rscale>
<asrwt>0</asrwt>
<pdfrwt beam="1">  1        1 0.24632427E+00 0.66473916E+03</pdfrwt>
<pdfrwt beam="2">  1       -1 0.37812105E-01 0.66473916E+03</pdfrwt>
<totfact> 0.39174410E+01</totfact>
</mgrwt>
</event>
<event>
 4    1  0.4055965E-007  0.7949901E+03  0.7818608E-02  0.9721735E-01
          1   -1    0    0  501    0  0.00000000000E+00  0.00000000000E+00  0.93423925735E+03  0.93423925737E+03  0.50400000000E-02 0. -1.
         -1   -1    0    0    0  501 -0.00000000000E+00 -0.00000000000E+00 -0.12580096668E+04  0.12580096668E+04  0.50400000000E-02 0.  1.
    8880023    1    1    2    0    0 -0.25044910133E+03 -0.36806830057E+03  0.70394169925E+03  0.10618583467E+04  0.65864270000E+03 0.  0.
    8880022    1    1    2    0    0  0.25044910133E+03  0.36806830057E+03 -0.10277121087E+04  0.11303905774E+04  0.15294330000E+03 0.  0.
<mgrwt>
<rscale>  0 0.69737315E+03</rscale>
<asrwt>0</asrwt>
<pdfrwt beam="1">  1        1 0.14372912E+00 0.79499008E+03</pdfrwt>
<pdfrwt beam="2">  1       -1 0.19353995E+00 0.79499008E+03</pdfrwt>
<totfact> 0.29416828E+00</totfact>
</mgrwt>
</event>
<event>
 4    1  0.4055965E-007  0.7066563E+03  0.7818608E-02  0.9970633E-01
          1   -1    0    0  501    0  0.00000000000E+00  0.00000000000E+00  0.34522342470E+04  0.34522342470E+04  0.50400000000E-02 0. -1.
         -1   -1    0    0    0  501 -0.00000000000E+00 -0.00000000000E+00 -0.10245469791E+03  0.10245469803E+03  0.50400000000E-02 0.  1.
    8880023    1    1    2    0    0  0.11549188260E+03  0.22850503539E+03  0.30538646278E+04  0.31345577515E+04  0.65864270000E+03 0.  0.
    8880022    1    1    2    0    0 -0.11549188260E+03 -0.22850503539E+03  0.29591492129E+03  0.42013119356E+03  0.15294330000E+03 0.  0.
<mgrwt>
<rscale>  0 0.56956870E+03</rscale>
<asrwt>0</asrwt>
<pdfrwt beam="1">  1        1 0.53111309E+00 0.70665630E+03</pdfrwt>
<pdfrwt beam="2">  1       -1 0.15762257E-01 0.70665630E+03</pdfrwt>
<totfact> 0.89477158E+00</totfact>
</mgrwt>
</event>
<event>
 4    1  0.4055965E-007  0.6983974E+03  0.7818608E-02  0.1000392E+00
         -1   -1    0    0    0  501 -0.00000000000E+00  0.00000000000E+00  0.25336233139E+03  0.25336233144E+03  0.50400000000E-02 0.  1.
          1   -1    0    0  501    0  0.00000000000E+00 -0.00000000000E+00 -0.14337638676E+04  0.14337638676E+04  0.50400000000E-02 0. -1.
    8880023    1    1    2    0    0 -0.23153833274E+03 -0.18403607128E+02 -0.12204562410E+04  0.14061551602E+04  0.65864270000E+03 0. -1.
    8880022    1    1    2    0    0  0.23153833274E+03  0.18403607128E+02  0.40054704721E+02  0.28097103884E+03  0.15294330000E+03 0.  0.
<mgrwt>
<rscale>  0 0.55478884E+03</rscale>
<asrwt>0</asrwt>
<pdfrwt beam="1">  1        1 0.22057905E+00 0.69839738E+03</pdfrwt>
<pdfrwt beam="2">  1       -1 0.38978821E-01 0.69839738E+03</pdfrwt>
<totfact> 0.48026325E+01</totfact>
</mgrwt>
</event>
<event>
 4    1  0.4055965E-007  0.7030352E+03  0.7818608E-02  0.9984836E-01
         -1   -1    0    0    0  501 -0.00000000000E+00  0.00000000000E+00  0.50337513276E+03  0.50337513278E+03  0.50400000000E-02 0.  1.
          1   -1    0    0  501    0  0.00000000000E+00 -0.00000000000E+00 -0.20820427616E+04  0.20820427616E+04  0.50400000000E-02 0. -1.
    8880023    1    1    2    0    0 -0.93316516635E+02  0.22746488380E+03 -0.19739623069E+04  0.20954201586E+04  0.65864270000E+03 0. -1.
    8880022    1    1    2    0    0  0.93316516635E+02 -0.22746488380E+03  0.39529467803E+03  0.48999773584E+03  0.15294330000E+03 0.  0.
<mgrwt>
<rscale>  0 0.56320193E+03</rscale>
<asrwt>0</asrwt>
<pdfrwt beam="1">  1        1 0.32031427E+00 0.70303517E+03</pdfrwt>
<pdfrwt beam="2">  1       -1 0.77442329E-01 0.70303517E+03</pdfrwt>
<totfact> 0.46472804E+00</totfact>
</mgrwt>
</event>
<event>
 4    1  0.4055965E-007  0.8106101E+03  0.7818608E-02  0.9688308E-01
         -1   -1    0    0    0  501 -0.00000000000E+00  0.00000000000E+00  0.18086777881E+04  0.18086777881E+04  0.50400000000E-02 0.  1.
          1   -1    0    0  501    0  0.00000000000E+00 -0.00000000000E+00 -0.52533195186E+03  0.52533195189E+03  0.50400000000E-02 0. -1.
    8880023    1    1    2    0    0  0.36903766652E+02 -0.47108027248E+03 -0.14348377546E+03  0.82321097611E+03  0.65864270000E+03 0.  0.
    8880022    1    1    2    0    0 -0.36903766652E+02  0.47108027248E+03  0.14268296117E+04  0.15107987639E+04  0.15294330000E+03 0.  0.
<mgrwt>
<rscale>  0 0.71717242E+03</rscale>
<asrwt>0</asrwt>
<pdfrwt beam="1">  1        1 0.80820300E-01 0.81061009E+03</pdfrwt>
<pdfrwt beam="2">  1       -1 0.27825812E+00 0.81061009E+03</pdfrwt>
<totfact> 0.19631890E+00</totfact>
</mgrwt>
</event>
<event>
 4    1  0.4055965E-007  0.6774437E+03  0.7818608E-02  0.1010808E+00
         -1   -1    0    0    0  501 -0.00000000000E+00  0.00000000000E+00  0.18000037202E+03  0.18000037209E+03  0.50400000000E-02 0.  1.
          1   -1    0    0  501    0  0.00000000000E+00 -0.00000000000E+00 -0.13166531720E+04  0.13166531721E+04  0.50400000000E-02 0. -1.
    8880023    1    1    2    0    0 -0.55845507702E+02 -0.14832748241E+03 -0.10702016829E+04  0.12665944936E+04  0.65864270000E+03 0. -1.
    8880022    1    1    2    0    0  0.55845507702E+02  0.14832748241E+03 -0.66451117112E+02  0.23005905057E+03  0.15294330000E+03 0.  0.
<mgrwt>
<rscale>  0 0.51154683E+03</rscale>
<asrwt>0</asrwt>
<pdfrwt beam="1">  1        1 0.20256202E+00 0.67744370E+03</pdfrwt>
<pdfrwt beam="2">  1       -1 0.27692366E-01 0.67744370E+03</pdfrwt>
<totfact> 0.10610311E+02</totfact>
</mgrwt>
</event>
<event>
 4    1  0.4055965E-007  0.7820919E+03  0.7818608E-02  0.9750946E-01
          1   -1    0    0  501    0  0.00000000000E+00  0.00000000000E+00  0.24447382065E+04  0.24447382065E+04  0.50400000000E-02 0. -1.
         -1   -1    0    0    0  501 -0.00000000000E+00 -0.00000000000E+00 -0.21020011303E+03  0.21020011309E+03  0.50400000000E-02 0.  1.
    8880023    1    1    2    0    0 -0.37118286542E+03  0.20020203301E+03  0.20026380175E+04  0.21499364663E+04  0.65864270000E+03 0.  0.
    8880022    1    1    2    0    0  0.37118286542E+03 -0.20020203301E+03  0.23190007595E+03  0.50500185331E+03  0.15294330000E+03 0.  0.
<mgrwt>
<rscale>  0 0.68062850E+03</rscale>
<asrwt>0</asrwt>
<pdfrwt beam="1">  1        1 0.37611358E+00 0.78209193E+03</pdfrwt>
<pdfrwt beam="2">  1       -1 0.32338478E-01 0.78209193E+03</pdfrwt>
<totfact> 0.13815997E+01</totfact>
</mgrwt>
</event>
<event>
 4    1  0.4055965E-007  0.1051209E+04  0.7818608E-02  0.9317430E-01
         -1   -1    0    0    0  501 -0.00000000000E+00  0.00000000000E+00  0.95611683164E+03  0.95611683165E+03  0.50400000000E-02 0.  1.
          1   -1    0    0  501    0  0.00000000000E+00 -0.00000000000E+00 -0.16691615152E+04  0.16691615153E+04  0.50400000000E-02 0. -1.
    8880023    1    1    2    0    0  0.77352258529E+03 -0.26998628052E+03 -0.12504462138E+04  0.16336020695E+04  0.65864270000E+03 0.  0.
    8880022    1    1    2    0    0 -0.77352258529E+03  0.26998628052E+03  0.53740153014E+03  0.99167627744E+03  0.15294330000E+03 0.  0.
<mgrwt>
<rscale>  0 0.99193970E+03</rscale>
<asrwt>0</asrwt>
<pdfrwt beam="1">  1        1 0.25679408E+00 0.10512088E+04</pdfrwt>
<pdfrwt beam="2">  1       -1 0.14709490E+00 0.10512088E+04</pdfrwt>
<totfact> 0.18396770E+00</totfact>
</mgrwt>
</event>
<event>
 4    1  0.4055965E-007  0.8238212E+03  0.7818608E-02  0.9661476E-01
          1   -1    0    0  501    0  0.00000000000E+00  0.00000000000E+00  0.10565650756E+04  0.10565650756E+04  0.50400000000E-02 0. -1.
         -1   -1    0    0    0  501 -0.00000000000E+00 -0.00000000000E+00 -0.47883205289E+03  0.47883205292E+03  0.50400000000E-02 0.  1.
    8880023    1    1    2    0    0 -0.62030560556E+02  0.49094132966E+03  0.98377376474E+02  0.82967433013E+03  0.65864270000E+03 0. -1.
    8880022    1    1    2    0    0  0.62030560556E+02 -0.49094132966E+03  0.47935564625E+03  0.70572279842E+03  0.15294330000E+03 0.  0.
<mgrwt>
<rscale>  0 0.73357545E+03</rscale>
<asrwt>0</asrwt>
<pdfrwt beam="1">  1        1 0.16254847E+00 0.82382121E+03</pdfrwt>
<pdfrwt beam="2">  1       -1 0.73666470E-01 0.82382121E+03</pdfrwt>
<totfact> 0.25899905E+01</totfact>
</mgrwt>
</event>
<event>
 4    1  0.4055965E-007  0.9253433E+03  0.7818608E-02  0.9486514E-01
         -1   -1    0    0    0  501 -0.00000000000E+00  0.00000000000E+00  0.10238840635E+04  0.10238840635E+04  0.50400000000E-02 0.  1.
          1   -1    0    0  501    0  0.00000000000E+00 -0.00000000000E+00 -0.91675895849E+03  0.91675895850E+03  0.50400000000E-02 0. -1.
    8880023    1    1    2    0    0  0.60905318564E+03  0.22694541986E+03  0.60689627588E+03  0.11066089203E+04  0.65864270000E+03 0.  1.
    8880022    1    1    2    0    0 -0.60905318564E+03 -0.22694541986E+03 -0.49977117088E+03  0.83403410170E+03  0.15294330000E+03 0.  0.
<mgrwt>
<rscale>  0 0.85285410E+03</rscale>
<asrwt>0</asrwt>
<pdfrwt beam="1">  1        1 0.14103984E+00 0.92534329E+03</pdfrwt>
<pdfrwt beam="2">  1       -1 0.15752062E+00 0.92534329E+03</pdfrwt>
<totfact> 0.54421193E+00</totfact>
</mgrwt>
</event>
<event>
 4    1  0.4055965E-007  0.9508634E+03  0.7818608E-02  0.9448873E-01
         -1   -1    0    0    0  501 -0.00000000000E+00  0.00000000000E+00  0.10620718535E+04  0.10620718535E+04  0.50400000000E-02 0.  1.
          1   -1    0    0  501    0  0.00000000000E+00 -0.00000000000E+00 -0.14785503881E+04  0.14785503881E+04  0.50400000000E-02 0. -1.
    8880023    1    1    2    0    0 -0.62907029332E+03 -0.27313295773E+03 -0.11717650667E+04  0.15090310216E+04  0.65864270000E+03 0. -1.
    8880022    1    1    2    0    0  0.62907029332E+03  0.27313295773E+03  0.75528653205E+03  0.10315912199E+04  0.15294330000E+03 0.  0.
<mgrwt>
<rscale>  0 0.88160490E+03</rscale>
<asrwt>0</asrwt>
<pdfrwt beam="1">  1        1 0.22746929E+00 0.95086342E+03</pdfrwt>
<pdfrwt beam="2">  1       -1 0.16339567E+00 0.95086342E+03</pdfrwt>
<totfact> 0.18889093E+00</totfact>
</mgrwt>
</event>
<event>
 4    1  0.4055965E-007  0.1159922E+04  0.7818608E-02  0.9197101E-01
          1   -1    0    0  501    0  0.00000000000E+00  0.00000000000E+00  0.14550801138E+04  0.14550801138E+04  0.50400000000E-02 0. -1.
         -1   -1    0    0    0  501 -0.00000000000E+00 -0.00000000000E+00 -0.10454608319E+04  0.10454608319E+04  0.50400000000E-02 0.  1.
    8880023    1    1    2    0    0  0.47056852315E+03 -0.83076760243E+03  0.85000042882E+03  0.14380265921E+04  0.65864270000E+03 0. -1.
    8880022    1    1    2    0    0 -0.47056852315E+03  0.83076760243E+03 -0.44038114686E+03  0.10625143537E+04  0.15294330000E+03 0.  0.
<mgrwt>
<rscale>  0 0.11083405E+04</rscale>
<asrwt>0</asrwt>
<pdfrwt beam="1">  1        1 0.22385848E+00 0.11599223E+04</pdfrwt>
<pdfrwt beam="2">  1       -1 0.16084013E+00 0.11599223E+04</pdfrwt>
<totfact> 0.19944096E+00</totfact>
</mgrwt>
</event>
<event>
 4    1  0.4055965E-007  0.7928488E+03  0.7818608E-02  0.9726477E-01
         -1   -1    0    0    0  501 -0.00000000000E+00  0.00000000000E+00  0.30940074179E+03  0.30940074183E+03  0.50400000000E-02 0.  1.
          1   -1    0    0  501    0  0.00000000000E+00 -0.00000000000E+00 -0.14434485968E+04  0.14434485969E+04  0.50400000000E-02 0. -1.
    8880023    1    1    2    0    0  0.11323802830E+03  0.42658665366E+03 -0.41365327422E+03  0.89426968062E+03  0.65864270000E+03 0.  1.
    8880022    1    1    2    0    0 -0.11323802830E+03 -0.42658665366E+03 -0.72039458084E+03  0.85857965807E+03  0.15294330000E+03 0.  0.
<mgrwt>
<rscale>  0 0.69462004E+03</rscale>
<asrwt>0</asrwt>
<pdfrwt beam="1">  1        1 0.22206901E+00 0.79284881E+03</pdfrwt>
<pdfrwt beam="2">  1       -1 0.47600115E-01 0.79284881E+03</pdfrwt>
<totfact> 0.32373073E+01</totfact>
</mgrwt>
</event>
<event>
 4    1  0.4055965E-007  0.7838571E+03  0.7818608E-02  0.9746853E-01
          1   -1    0    0  501    0  0.00000000000E+00  0.00000000000E+00  0.10675701371E+04  0.10675701371E+04  0.50400000000E-02 0. -1.
         -1   -1    0    0    0  501 -0.00000000000E+00 -0.00000000000E+00 -0.53148474304E+03  0.53148474306E+03  0.50400000000E-02 0.  1.
    8880023    1    1    2    0    0 -0.14463953631E+03  0.39962636012E+03  0.76272823989E+03  0.10937030664E+04  0.65864270000E+03 0. -1.
    8880022    1    1    2    0    0  0.14463953631E+03 -0.39962636012E+03 -0.22664284581E+03  0.50535181383E+03  0.15294330000E+03 0.  0.
<mgrwt>
<rscale>  0 0.68294393E+03</rscale>
<asrwt>0</asrwt>
<pdfrwt beam="1">  1        1 0.16424156E+00 0.78385715E+03</pdfrwt>
<pdfrwt beam="2">  1       -1 0.81766884E-01 0.78385715E+03</pdfrwt>
<totfact> 0.20483455E+01</totfact>
</mgrwt>
</event>
<event>
 4    1  0.4055965E-007  0.6932853E+03  0.7818608E-02  0.1002629E+00
         -1   -1    0    0    0  501 -0.00000000000E+00  0.00000000000E+00  0.17899004561E+03  0.17899004568E+03  0.50400000000E-02 0.  1.
          1   -1    0    0  501    0  0.00000000000E+00 -0.00000000000E+00 -0.18240393597E+04  0.18240393597E+04  0.50400000000E-02 0. -1.
    8880023    1    1    2    0    0 -0.10900040056E+03  0.18695786823E+03 -0.15868865784E+04  0.17317198245E+04  0.65864270000E+03 0. -1.
    8880022    1    1    2    0    0  0.10900040056E+03 -0.18695786823E+03 -0.58162735715E+02  0.27130958084E+03  0.15294330000E+03 0.  0.
<mgrwt>
<rscale>  0 0.54512517E+03</rscale>
<asrwt>0</asrwt>
<pdfrwt beam="1">  1        1 0.28062143E+00 0.69328532E+03</pdfrwt>
<pdfrwt beam="2">  1       -1 0.27536931E-01 0.69328532E+03</pdfrwt>
<totfact> 0.48298660E+01</totfact>
</mgrwt>
</event>
<event>
 4    1  0.4055965E-007  0.7262888E+03  0.7818608E-02  0.9901854E-01
          1   -1    0    0  501    0  0.00000000000E+00  0.00000000000E+00  0.10552049742E+04  0.10552049742E+04  0.50400000000E-02 0. -1.
         -1   -1    0    0    0  501 -0.00000000000E+00 -0.00000000000E+00 -0.27294437611E+03  0.27294437616E+03  0.50400000000E-02 0.  1.
    8880023    1    1    2    0    0 -0.28668990293E+03 -0.10721042497E+03  0.58954512279E+03  0.93544579412E+03  0.65864270000E+03 0.  0.
    8880022    1    1    2    0    0  0.28668990293E+03  0.10721042497E+03  0.19271547532E+03  0.39270355628E+03  0.15294330000E+03 0.  0.
<mgrwt>
<rscale>  0 0.60171504E+03</rscale>
<asrwt>0</asrwt>
<pdfrwt beam="1">  1        1 0.16233923E+00 0.72628877E+03</pdfrwt>
<pdfrwt beam="2">  1       -1 0.41991442E-01 0.72628877E+03</pdfrwt>
<totfact> 0.78169679E+01</totfact>
</mgrwt>
</event>
<event>
 4    1  0.4055965E-007  0.9161767E+03  0.7818608E-02  0.9500546E-01
         -1   -1    0    0    0  501 -0.00000000000E+00  0.00000000000E+00  0.14539095678E+04  0.14539095678E+04  0.50400000000E-02 0.  1.
          1   -1    0    0  501    0  0.00000000000E+00 -0.00000000000E+00 -0.77612611854E+03  0.77612611856E+03  0.50400000000E-02 0. -1.
    8880023    1    1    2    0    0 -0.61797431902E+03 -0.15387453161E+03 -0.37516202629E+03  0.99001332450E+03  0.65864270000E+03 0.  0.
    8880022    1    1    2    0    0  0.61797431902E+03  0.15387453161E+03  0.10529454756E+04  0.12400223619E+04  0.15294330000E+03 0.  0.
<mgrwt>
<rscale>  0 0.84243560E+03</rscale>
<asrwt>0</asrwt>
<pdfrwt beam="1">  1        1 0.11940402E+00 0.91617675E+03</pdfrwt>
<pdfrwt beam="2">  1       -1 0.22367839E+00 0.91617675E+03</pdfrwt>
<totfact> 0.24534201E+00</totfact>
</mgrwt>
</event>
<event>
 4    1  0.4055965E-007  0.6914180E+03  0.7818608E-02  0.1003486E+00
          1   -1    0    0  501    0  0.00000000000E+00  0.00000000000E+00  0.84602162178E+03  0.84602162179E+03  0.50400000000E-02 0. -1.
         -1   -1    0    0    0  501 -0.00000000000E+00 -0.00000000000E+00 -0.98069394160E+03  0.98069394161E+03  0.50400000000E-02 0.  1.
    8880023    1    1    2    0    0  0.15158360867E+03 -0.14584580631E+03  0.68106636889E+03  0.97052057924E+03  0.65864270000E+03 0. -1.
    8880022    1    1    2    0    0 -0.15158360867E+03  0.14584580631E+03 -0.81573868871E+03  0.85619498416E+03  0.15294330000E+03 0.  0.
<mgrwt>
<rscale>  0 0.54147840E+03</rscale>
<asrwt>0</asrwt>
<pdfrwt beam="1">  1        1 0.13015717E+00 0.69141796E+03</pdfrwt>
<pdfrwt beam="2">  1       -1 0.15087599E+00 0.69141796E+03</pdfrwt>
<totfact> 0.72264366E+00</totfact>
</mgrwt>
</event>
<event>
 4    1  0.4055965E-007  0.6970377E+03  0.7818608E-02  0.1000972E+00
         -1   -1    0    0    0  501 -0.00000000000E+00  0.00000000000E+00  0.22275576133E+03  0.22275576138E+03  0.50400000000E-02 0.  1.
          1   -1    0    0  501    0  0.00000000000E+00 -0.00000000000E+00 -0.11938452394E+04  0.11938452394E+04  0.50400000000E-02 0. -1.
    8880023    1    1    2    0    0  0.58257866817E+02 -0.22058402055E+03 -0.45627090483E+03  0.83309341255E+03  0.65864270000E+03 0.  1.
    8880022    1    1    2    0    0 -0.58257866817E+02  0.22058402055E+03 -0.51481857322E+03  0.58350758822E+03  0.15294330000E+03 0.  0.
<mgrwt>
<rscale>  0 0.55226117E+03</rscale>
<asrwt>0</asrwt>
<pdfrwt beam="1">  1        1 0.18366849E+00 0.69703766E+03</pdfrwt>
<pdfrwt beam="2">  1       -1 0.34270118E-01 0.69703766E+03</pdfrwt>
<totfact> 0.89270109E+01</totfact>
</mgrwt>
</event>
<event>
 4    1  0.4055965E-007  0.1185259E+04  0.7818608E-02  0.9171587E-01
          1   -1    0    0  501    0  0.00000000000E+00  0.00000000000E+00  0.29707944200E+04  0.29707944200E+04  0.50400000000E-02 0. -1.
         -1   -1    0    0    0  501 -0.00000000000E+00 -0.00000000000E+00 -0.10771695502E+04  0.10771695502E+04  0.50400000000E-02 0.  1.
    8880023    1    1    2    0    0  0.12168883638E+03  0.97786518524E+03  0.25787397269E+04  0.28380869047E+04  0.65864270000E+03 0. -1.
    8880022    1    1    2    0    0 -0.12168883638E+03 -0.97786518524E+03 -0.68511485699E+03  0.12098770655E+04  0.15294330000E+03 0.  0.
<mgrwt>
<rscale>  0 0.11351576E+04</rscale>
<asrwt>0</asrwt>
<pdfrwt beam="1">  1        1 0.45704530E+00 0.11852589E+04</pdfrwt>
<pdfrwt beam="2">  1       -1 0.16571839E+00 0.11852589E+04</pdfrwt>
<totfact> 0.16520119E-01</totfact>
</mgrwt>
</event>
<event>
 4    1  0.4055965E-007  0.7898655E+03  0.7818608E-02  0.9733153E-01
         -1   -1    0    0    0  501 -0.00000000000E+00  0.00000000000E+00  0.17787085308E+04  0.17787085308E+04  0.50400000000E-02 0.  1.
          1   -1    0    0  501    0  0.00000000000E+00 -0.00000000000E+00 -0.62911415736E+03  0.62911415738E+03  0.50400000000E-02 0. -1.
    8880023    1    1    2    0    0 -0.28355170556E+03  0.33117336881E+03 -0.33129646076E+03  0.85653074732E+03  0.65864270000E+03 0.  0.
    8880022    1    1    2    0    0  0.28355170556E+03 -0.33117336881E+03  0.14808908342E+04  0.15512919408E+04  0.15294330000E+03 0.  0.
<mgrwt>
<rscale>  0 0.69076724E+03</rscale>
<asrwt>0</asrwt>
<pdfrwt beam="1">  1        1 0.96786793E-01 0.78986554E+03</pdfrwt>
<pdfrwt beam="2">  1       -1 0.27364747E+00 0.78986554E+03</pdfrwt>
<totfact> 0.16306067E+00</totfact>
</mgrwt>
</event>
<event>
 4    1  0.4055965E-007  0.8042820E+03  0.7818608E-02  0.9701613E-01
          1   -1    0    0  501    0  0.00000000000E+00  0.00000000000E+00  0.53944601927E+03  0.53944601930E+03  0.50400000000E-02 0. -1.
         -1   -1    0    0    0  501 -0.00000000000E+00 -0.00000000000E+00 -0.86339241902E+03  0.86339241904E+03  0.50400000000E-02 0.  1.
    8880023    1    1    2    0    0 -0.33056760402E+03 -0.32215583653E+03  0.24441999516E+02  0.80465330512E+03  0.65864270000E+03 0. -1.
    8880022    1    1    2    0    0  0.33056760402E+03  0.32215583653E+03 -0.34838839927E+03  0.59818513321E+03  0.15294330000E+03 0.  0.
<mgrwt>
<rscale>  0 0.70920845E+03</rscale>
<asrwt>0</asrwt>
<pdfrwt beam="1">  1        1 0.82991696E-01 0.80428200E+03</pdfrwt>
<pdfrwt beam="2">  1       -1 0.13282960E+00 0.80428200E+03</pdfrwt>
<totfact> 0.19533548E+01</totfact>
</mgrwt>
</event>
<event>
 4    1  0.4055965E-007  0.7108199E+03  0.7818608E-02  0.9954969E-01
          1   -1    0    0  501    0  0.00000000000E+00  0.00000000000E+00  0.55351026532E+03  0.55351026535E+03  0.50400000000E-02 0. -1.
         -1   -1    0    0    0  501 -0.00000000000E+00 -0.00000000000E+00 -0.14383762289E+04  0.14383762289E+04  0.50400000000E-02 0.  1.
    8880023    1    1    2    0    0  0.26457839731E+03 -0.38118050862E+02  0.29713391479E+03  0.77042422321E+03  0.65864270000E+03 0. -1.
    8880022    1    1    2    0    0 -0.26457839731E+03  0.38118050862E+02 -0.11819998784E+04  0.12214622710E+04  0.15294330000E+03 0.  0.
<mgrwt>
<rscale>  0 0.57669644E+03</rscale>
<asrwt>0</asrwt>
<pdfrwt beam="1">  1        1 0.85155426E-01 0.71081989E+03</pdfrwt>
<pdfrwt beam="2">  1       -1 0.22128865E+00 0.71081989E+03</pdfrwt>
<totfact> 0.43321929E+00</totfact>
</mgrwt>
</event>
<event>
 4    1  0.4055965E-007  0.9951996E+03  0.7818608E-02  0.9387865E-01
          1   -1    0    0  501    0  0.00000000000E+00  0.00000000000E+00  0.40569974582E+04  0.40569974582E+04  0.50400000000E-02 0. -1.
         -1   -1    0    0    0  501 -0.00000000000E+00 -0.00000000000E+00 -0.23279055600E+03  0.23279055605E+03  0.50400000000E-02 0.  1.
    8880023    1    1    2    0    0  0.37611059076E+03 -0.64432359118E+03  0.12088537109E+04  0.15658063632E+04  0.65864270000E+03 0.  1.
    8880022    1    1    2    0    0 -0.37611059076E+03  0.64432359118E+03  0.26153531913E+04  0.27239816510E+04  0.15294330000E+03 0.  0.
<mgrwt>
<rscale>  0 0.93081098E+03</rscale>
<asrwt>0</asrwt>
<pdfrwt beam="1">  1        1 0.62415343E+00 0.99519961E+03</pdfrwt>
<pdfrwt beam="2">  1       -1 0.35813933E-01 0.99519961E+03</pdfrwt>
<totfact> 0.67128926E-01</totfact>
</mgrwt>
</event>
<event>
 4    1  0.4055965E-007  0.7599752E+03  0.7818608E-02  0.9805172E-01
         -1   -1    0    0    0  501 -0.00000000000E+00  0.00000000000E+00  0.47591742362E+03  0.47591742365E+03  0.50400000000E-02 0.  1.
          1   -1    0    0  501    0  0.00000000000E+00 -0.00000000000E+00 -0.17096463011E+04  0.17096463011E+04  0.50400000000E-02 0. -1.
    8880023    1    1    2    0    0 -0.12865901931E+03  0.35664959289E+03 -0.15111522038E+04  0.16914914321E+04  0.65864270000E+03 0. -1.
    8880022    1    1    2    0    0  0.12865901931E+03 -0.35664959289E+03  0.27742332636E+03  0.49407229267E+03  0.15294330000E+03 0.  0.
<mgrwt>
<rscale>  0 0.65085736E+03</rscale>
<asrwt>0</asrwt>
<pdfrwt beam="1">  1        1 0.26302251E+00 0.75997518E+03</pdfrwt>
<pdfrwt beam="2">  1       -1 0.73218066E-01 0.75997518E+03</pdfrwt>
<totfact> 0.91811152E+00</totfact>
</mgrwt>
</event>
<event>
 4    1  0.4055965E-007  0.8694068E+03  0.7818608E-02  0.9577045E-01
          1   -1    0    0  501    0  0.00000000000E+00  0.00000000000E+00  0.16196361569E+04  0.16196361570E+04  0.50400000000E-02 0. -1.
         -1   -1    0    0    0  501 -0.00000000000E+00 -0.00000000000E+00 -0.58222865981E+03  0.58222865984E+03  0.50400000000E-02 0.  1.
    8880023    1    1    2    0    0  0.49296013562E+03 -0.28115535231E+03  0.12953020772E+04  0.15600242642E+04  0.65864270000E+03 0. -1.
    8880022    1    1    2    0    0 -0.49296013562E+03  0.28115535231E+03 -0.25789458011E+03  0.64184055255E+03  0.15294330000E+03 0.  0.
<mgrwt>
<rscale>  0 0.78834331E+03</rscale>
<asrwt>0</asrwt>
<pdfrwt beam="1">  1        1 0.24917479E+00 0.86940683E+03</pdfrwt>
<pdfrwt beam="2">  1       -1 0.89573639E-01 0.86940683E+03</pdfrwt>
<totfact> 0.67598686E+00</totfact>
</mgrwt>
</event>
<event>
 4    1  0.4055965E-007  0.8357085E+03  0.7818608E-02  0.9638326E-01
         -1   -1    0    0    0  501 -0.00000000000E+00  0.00000000000E+00  0.49904481607E+03  0.49904481609E+03  0.50400000000E-02 0.  1.
          1   -1    0    0  501    0  0.00000000000E+00 -0.00000000000E+00 -0.10108696270E+04  0.10108696270E+04  0.50400000000E-02 0. -1.
    8880023    1    1    2    0    0 -0.21182650340E+03  0.46875150583E+03 -0.49851741302E+03  0.97310238881E+03  0.65864270000E+03 0.  1.
    8880022    1    1    2    0    0  0.21182650340E+03 -0.46875150583E+03 -0.13307397888E+02  0.53681205427E+03  0.15294330000E+03 0.  0.
<mgrwt>
<rscale>  0 0.74810627E+03</rscale>
<asrwt>0</asrwt>
<pdfrwt beam="1">  1        1 0.15551840E+00 0.83570847E+03</pdfrwt>
<pdfrwt beam="2">  1       -1 0.76776126E-01 0.83570847E+03</pdfrwt>
<totfact> 0.25720742E+01</totfact>
</mgrwt>
</event>
<event>
 4    1  0.4055965E-007  0.6974445E+03  0.7818608E-02  0.1000797E+00
          1   -1    0    0  501    0  0.00000000000E+00  0.00000000000E+00  0.96770096766E+03  0.96770096767E+03  0.50400000000E-02 0. -1.
         -1   -1    0    0    0  501 -0.00000000000E+00 -0.00000000000E+00 -0.59209912988E+03  0.59209912990E+03  0.50400000000E-02 0.  1.
    8880023    1    1    2    0    0 -0.21683376818E+03 -0.74844620982E+02  0.79520717349E+03  0.10577255104E+04  0.65864270000E+03 0.  0.
    8880022    1    1    2    0    0  0.21683376818E+03  0.74844620982E+02 -0.41960533571E+03  0.50207458717E+03  0.15294330000E+03 0.  0.
<mgrwt>
<rscale>  0 0.55302053E+03</rscale>
<asrwt>0</asrwt>
<pdfrwt beam="1">  1        1 0.14887707E+00 0.69744448E+03</pdfrwt>
<pdfrwt beam="2">  1       -1 0.91092174E-01 0.69744448E+03</pdfrwt>
<totfact> 0.19545582E+01</totfact>
</mgrwt>
</event>
<event>
 4    1  0.4055965E-007  0.7518578E+03  0.7818608E-02  0.9826662E-01
          1   -1    0    0  501    0  0.00000000000E+00  0.00000000000E+00  0.70083576586E+03  0.70083576588E+03  0.50400000000E-02 0. -1.
         -1   -1    0    0    0  501 -0.00000000000E+00 -0.00000000000E+00 -0.13606852723E+04  0.13606852723E+04  0.50400000000E-02 0.  1.
    8880023    1    1    2    0    0 -0.24978373688E+02 -0.36174020987E+03  0.45529915306E+03  0.87896952372E+03  0.65864270000E+03 0. -1.
    8880022    1    1    2    0    0  0.24978373688E+02  0.36174020987E+03 -0.11151486595E+04  0.11825515145E+04  0.15294330000E+03 0.  0.
<mgrwt>
<rscale>  0 0.63951130E+03</rscale>
<asrwt>0</asrwt>
<pdfrwt beam="1">  1        1 0.10782089E+00 0.75185777E+03</pdfrwt>
<pdfrwt beam="2">  1       -1 0.20933619E+00 0.75185777E+03</pdfrwt>
<totfact> 0.36689156E+00</totfact>
</mgrwt>
</event>
<event>
 4    1  0.4055965E-007  0.8063525E+03  0.7818608E-02  0.9697225E-01
          1   -1    0    0  501    0  0.00000000000E+00  0.00000000000E+00  0.81124787174E+03  0.81124787176E+03  0.50400000000E-02 0. -1.
         -1   -1    0    0    0  501 -0.00000000000E+00 -0.00000000000E+00 -0.11390681418E+04  0.11390681418E+04  0.50400000000E-02 0.  1.
    8880023    1    1    2    0    0  0.46065960229E+03 -0.64705671871E+02  0.52832943208E+03  0.96402089615E+03  0.65864270000E+03 0. -1.
    8880022    1    1    2    0    0 -0.46065960229E+03  0.64705671871E+02 -0.85614970214E+03  0.98629511742E+03  0.15294330000E+03 0.  0.
<mgrwt>
<rscale>  0 0.71182233E+03</rscale>
<asrwt>0</asrwt>
<pdfrwt beam="1">  1        1 0.12480737E+00 0.80635247E+03</pdfrwt>
<pdfrwt beam="2">  1       -1 0.17524125E+00 0.80635247E+03</pdfrwt>
<totfact> 0.50030904E+00</totfact>
</mgrwt>
</event>
<event>
 4    1  0.4055965E-007  0.8103992E+03  0.7818608E-02  0.9688746E-01
         -1   -1    0    0    0  501 -0.00000000000E+00  0.00000000000E+00  0.96751804546E+03  0.96751804547E+03  0.50400000000E-02 0.  1.
          1   -1    0    0  501    0  0.00000000000E+00 -0.00000000000E+00 -0.56254686602E+03  0.56254686604E+03  0.50400000000E-02 0. -1.
    8880023    1    1    2    0    0  0.46567219682E+03  0.78012930727E+02 -0.10650583890E+03  0.81736791730E+03  0.65864270000E+03 0.  0.
    8880022    1    1    2    0    0 -0.46567219682E+03 -0.78012930727E+02  0.51147701834E+03  0.71269699421E+03  0.15294330000E+03 0.  0.
<mgrwt>
<rscale>  0 0.71690816E+03</rscale>
<asrwt>0</asrwt>
<pdfrwt beam="1">  1        1 0.86545672E-01 0.81039917E+03</pdfrwt>
<pdfrwt beam="2">  1       -1 0.14884893E+00 0.81039917E+03</pdfrwt>
<totfact> 0.13669301E+01</totfact>
</mgrwt>
</event>
<event>
 4    1  0.4055965E-007  0.7022153E+03  0.7818608E-02  0.9988132E-01
          1   -1    0    0  501    0  0.00000000000E+00  0.00000000000E+00  0.67245260009E+03  0.67245260011E+03  0.50400000000E-02 0. -1.
         -1   -1    0    0    0  501 -0.00000000000E+00 -0.00000000000E+00 -0.37044061265E+03  0.37044061269E+03  0.50400000000E-02 0.  1.
    8880023    1    1    2    0    0  0.11391577311E+03  0.21521928618E+03  0.15166936379E+03  0.71840792499E+03  0.65864270000E+03 0.  1.
    8880022    1    1    2    0    0 -0.11391577311E+03 -0.21521928618E+03  0.15034262365E+03  0.32448528781E+03  0.15294330000E+03 0. -1.
<mgrwt>
<rscale>  0 0.56173683E+03</rscale>
<asrwt>0</asrwt>
<pdfrwt beam="1">  1        1 0.10345424E+00 0.70221532E+03</pdfrwt>
<pdfrwt beam="2">  1       -1 0.56990864E-01 0.70221532E+03</pdfrwt>
<totfact> 0.92270706E+01</totfact>
</mgrwt>
</event>
<event>
 4    1  0.4055965E-007  0.8538528E+03  0.7818608E-02  0.9604593E-01
         -1   -1    0    0    0  501 -0.00000000000E+00  0.00000000000E+00  0.10673698458E+04  0.10673698458E+04  0.50400000000E-02 0.  1.
          1   -1    0    0  501    0  0.00000000000E+00 -0.00000000000E+00 -0.13131209314E+04  0.13131209314E+04  0.50400000000E-02 0. -1.
    8880023    1    1    2    0    0 -0.54326449764E+03 -0.10863998322E+02  0.81405619723E+03  0.11797254085E+04  0.65864270000E+03 0.  1.
    8880022    1    1    2    0    0  0.54326449764E+03  0.10863998322E+02 -0.10598072828E+04  0.12007653687E+04  0.15294330000E+03 0.  0.
<mgrwt>
<rscale>  0 0.76992922E+03</rscale>
<asrwt>0</asrwt>
<pdfrwt beam="1">  1        1 0.20201861E+00 0.85385277E+03</pdfrwt>
<pdfrwt beam="2">  1       -1 0.16421075E+00 0.85385277E+03</pdfrwt>
<totfact> 0.24665931E+00</totfact>
</mgrwt>
</event>
<event>
 4    1  0.4055965E-007  0.7030432E+03  0.7818608E-02  0.9984804E-01
          1   -1    0    0  501    0  0.00000000000E+00  0.00000000000E+00  0.11814322740E+04  0.11814322740E+04  0.50400000000E-02 0. -1.
         -1   -1    0    0    0  501 -0.00000000000E+00 -0.00000000000E+00 -0.63668707521E+03  0.63668707523E+03  0.50400000000E-02 0.  1.
    8880023    1    1    2    0    0  0.19985416297E+03 -0.14324051755E+03  0.10335397728E+04  0.12499896802E+04  0.65864270000E+03 0.  0.
    8880022    1    1    2    0    0 -0.19985416297E+03  0.14324051755E+03 -0.48879457398E+03  0.56812966908E+03  0.15294330000E+03 0.  0.
<mgrwt>
<rscale>  0 0.56321623E+03</rscale>
<asrwt>0</asrwt>
<pdfrwt beam="1">  1        1 0.18175881E+00 0.70304320E+03</pdfrwt>
<pdfrwt beam="2">  1       -1 0.97951859E-01 0.70304320E+03</pdfrwt>
<totfact> 0.11466653E+01</totfact>
</mgrwt>
</event>
<event>
 4    1  0.4055965E-007  0.6815762E+03  0.7818608E-02  0.1008446E+00
          1   -1    0    0  501    0  0.00000000000E+00  0.00000000000E+00  0.10868161457E+04  0.10868161457E+04  0.50400000000E-02 0. -1.
         -1   -1    0    0    0  501 -0.00000000000E+00 -0.00000000000E+00 -0.39763533040E+03  0.39763533043E+03  0.50400000000E-02 0.  1.
    8880023    1    1    2    0    0  0.14625905708E+03 -0.96665136684E+02  0.92776224485E+03  0.11512119048E+04  0.65864270000E+03 0. -1.
    8880022    1    1    2    0    0 -0.14625905708E+03  0.96665136684E+02 -0.23858142952E+03  0.33323957141E+03  0.15294330000E+03 0.  0.
<mgrwt>
<rscale>  0 0.52097041E+03</rscale>
<asrwt>0</asrwt>
<pdfrwt beam="1">  1        1 0.16720248E+00 0.68157616E+03</pdfrwt>
<pdfrwt beam="2">  1       -1 0.61174668E-01 0.68157616E+03</pdfrwt>
<totfact> 0.36379638E+01</totfact>
</mgrwt>
</event>
<event>
 4    1  0.4055965E-007  0.7120175E+03  0.7818608E-02  0.9950584E-01
          1   -1    0    0  501    0  0.00000000000E+00  0.00000000000E+00  0.12939173530E+04  0.12939173530E+04  0.50400000000E-02 0. -1.
         -1   -1    0    0    0  501 -0.00000000000E+00 -0.00000000000E+00 -0.22038806916E+03  0.22038806922E+03  0.50400000000E-02 0.  1.
    8880023    1    1    2    0    0 -0.56347382821E+02 -0.26454425229E+03  0.93202439528E+03  0.11728761097E+04  0.65864270000E+03 0.  0.
    8880022    1    1    2    0    0  0.56347382821E+02  0.26454425229E+03  0.14150488855E+03  0.34142931255E+03  0.15294330000E+03 0.  0.
<mgrwt>
<rscale>  0 0.57871164E+03</rscale>
<asrwt>0</asrwt>
<pdfrwt beam="1">  1        1 0.19906421E+00 0.71201748E+03</pdfrwt>
<pdfrwt beam="2">  1       -1 0.33905857E-01 0.71201748E+03</pdfrwt>
<totfact> 0.77045474E+01</totfact>
</mgrwt>
</event>
<event>
 4    1  0.4055965E-007  0.7306981E+03  0.7818608E-02  0.9887921E-01
         -1   -1    0    0    0  501 -0.00000000000E+00  0.00000000000E+00  0.38059651159E+03  0.38059651163E+03  0.50400000000E-02 0.  1.
          1   -1    0    0  501    0  0.00000000000E+00 -0.00000000000E+00 -0.11324515435E+04  0.11324515435E+04  0.50400000000E-02 0. -1.
    8880023    1    1    2    0    0 -0.28874018246E+03 -0.12937799524E+03 -0.87563103145E+03  0.11404602001E+04  0.65864270000E+03 0. -1.
    8880022    1    1    2    0    0  0.28874018246E+03  0.12937799524E+03  0.12377599953E+03  0.37258785500E+03  0.15294330000E+03 0.  0.
<mgrwt>
<rscale>  0 0.60850255E+03</rscale>
<asrwt>0</asrwt>
<pdfrwt beam="1">  1        1 0.17422331E+00 0.73069814E+03</pdfrwt>
<pdfrwt beam="2">  1       -1 0.58553310E-01 0.73069814E+03</pdfrwt>
<totfact> 0.36468962E+01</totfact>
</mgrwt>
</event>
<event>
 4    1  0.4055965E-007  0.7130814E+03  0.7818608E-02  0.9946732E-01
          1   -1    0    0  501    0  0.00000000000E+00  0.00000000000E+00  0.75175643046E+03  0.75175643047E+03  0.50400000000E-02 0. -1.
         -1   -1    0    0    0  501 -0.00000000000E+00 -0.00000000000E+00 -0.42603500999E+03  0.42603501002E+03  0.50400000000E-02 0.  1.
    8880023    1    1    2    0    0 -0.11153343141E+03  0.24946978900E+03  0.44741367991E+03  0.84182188685E+03  0.65864270000E+03 0. -1.
    8880022    1    1    2    0    0  0.11153343141E+03 -0.24946978900E+03 -0.12169225945E+03  0.33596955364E+03  0.15294330000E+03 0.  0.
<mgrwt>
<rscale>  0 0.58048959E+03</rscale>
<asrwt>0</asrwt>
<pdfrwt beam="1">  1        1 0.11565483E+00 0.71308140E+03</pdfrwt>
<pdfrwt beam="2">  1       -1 0.65543848E-01 0.71308140E+03</pdfrwt>
<totfact> 0.59025087E+01</totfact>
</mgrwt>
</event>
<event>
 4    1  0.4055965E-007  0.7601177E+03  0.7818608E-02  0.9804803E-01
          1   -1    0    0  501    0  0.00000000000E+00  0.00000000000E+00  0.49340923510E+03  0.49340923512E+03  0.50400000000E-02 0. -1.
         -1   -1    0    0    0  501 -0.00000000000E+00 -0.00000000000E+00 -0.11935325608E+04  0.11935325608E+04  0.50400000000E-02 0.  1.
    8880023    1    1    2    0    0  0.29885698605E+03  0.23378032621E+03 -0.94297712686E+03  0.12111914824E+04  0.65864270000E+03 0.  0.
    8880022    1    1    2    0    0 -0.29885698605E+03 -0.23378032621E+03  0.24285380118E+03  0.47575031350E+03  0.15294330000E+03 0.  0.
<mgrwt>
<rscale>  0 0.65105432E+03</rscale>
<asrwt>0</asrwt>
<pdfrwt beam="1">  1        1 0.75909113E-01 0.76011772E+03</pdfrwt>
<pdfrwt beam="2">  1       -1 0.18362039E+00 0.76011772E+03</pdfrwt>
<totfact> 0.91173724E+00</totfact>
</mgrwt>
</event>
<event>
 4    1  0.4055965E-007  0.8845626E+03  0.7818608E-02  0.9551282E-01
          1   -1    0    0  501    0  0.00000000000E+00  0.00000000000E+00  0.90198331879E+03  0.90198331881E+03  0.50400000000E-02 0. -1.
         -1   -1    0    0    0  501 -0.00000000000E+00 -0.00000000000E+00 -0.74149840347E+03  0.74149840349E+03  0.50400000000E-02 0.  1.
    8880023    1    1    2    0    0 -0.25461127551E+03 -0.53274189941E+03  0.42172023870E+03  0.97994846752E+03  0.65864270000E+03 0.  0.
    8880022    1    1    2    0    0  0.25461127551E+03  0.53274189941E+03 -0.26123532338E+03  0.66353325478E+03  0.15294330000E+03 0.  0.
<mgrwt>
<rscale>  0 0.80606311E+03</rscale>
<asrwt>0</asrwt>
<pdfrwt beam="1">  1        1 0.13876666E+00 0.88456263E+03</pdfrwt>
<pdfrwt beam="2">  1       -1 0.11407668E+00 0.88456263E+03</pdfrwt>
<totfact> 0.12866241E+01</totfact>
</mgrwt>
</event>
<event>
 4    1  0.4055965E-007  0.8900786E+03  0.7818608E-02  0.9542150E-01
         -1   -1    0    0    0  501 -0.00000000000E+00  0.00000000000E+00  0.19061149511E+04  0.19061149511E+04  0.50400000000E-02 0.  1.
          1   -1    0    0  501    0  0.00000000000E+00 -0.00000000000E+00 -0.71143520962E+03  0.71143520964E+03  0.50400000000E-02 0. -1.
    8880023    1    1    2    0    0  0.54353521163E+03  0.25099636715E+03 -0.34802237753E+03  0.95569842740E+03  0.65864270000E+03 0.  0.
    8880022    1    1    2    0    0 -0.54353521163E+03 -0.25099636715E+03  0.15427021190E+04  0.16618517333E+04  0.15294330000E+03 0.  0.
<mgrwt>
<rscale>  0 0.81246338E+03</rscale>
<asrwt>0</asrwt>
<pdfrwt beam="1">  1        1 0.10945157E+00 0.89007860E+03</pdfrwt>
<pdfrwt beam="2">  1       -1 0.29324845E+00 0.89007860E+03</pdfrwt>
<totfact> 0.99983033E-01</totfact>
</mgrwt>
</event>
<event>
 4    1  0.4055965E-007  0.8402999E+03  0.7818608E-02  0.9629615E-01
         -1   -1    0    0    0  501 -0.00000000000E+00  0.00000000000E+00  0.35295944195E+03  0.35295944199E+03  0.50400000000E-02 0.  1.
          1   -1    0    0  501    0  0.00000000000E+00 -0.00000000000E+00 -0.21545254986E+04  0.21545254986E+04  0.50400000000E-02 0. -1.
    8880023    1    1    2    0    0 -0.26805097831E+03  0.44770783429E+03 -0.17740765775E+04  0.19630210241E+04  0.65864270000E+03 0.  0.
    8880022    1    1    2    0    0  0.26805097831E+03 -0.44770783429E+03 -0.27489479090E+02  0.54446391647E+03  0.15294330000E+03 0.  0.
<mgrwt>
<rscale>  0 0.75366688E+03</rscale>
<asrwt>0</asrwt>
<pdfrwt beam="1">  1        1 0.33146545E+00 0.84029985E+03</pdfrwt>
<pdfrwt beam="2">  1       -1 0.54301454E-01 0.84029985E+03</pdfrwt>
<totfact> 0.82932701E+00</totfact>
</mgrwt>
</event>
<event>
 4    1  0.4055965E-007  0.1190649E+04  0.7818608E-02  0.9166266E-01
          1   -1    0    0  501    0  0.00000000000E+00  0.00000000000E+00  0.17829763146E+04  0.17829763146E+04  0.50400000000E-02 0. -1.
         -1   -1    0    0    0  501 -0.00000000000E+00 -0.00000000000E+00 -0.92514161126E+03  0.92514161127E+03  0.50400000000E-02 0.  1.
    8880023    1    1    2    0    0  0.45498813767E+03 -0.88137414253E+03  0.11576735167E+04  0.16606784042E+04  0.65864270000E+03 0.  0.
    8880022    1    1    2    0    0 -0.45498813767E+03  0.88137414253E+03 -0.29983881339E+03  0.10474395217E+04  0.15294330000E+03 0.  0.
<mgrwt>
<rscale>  0 0.11408503E+04</rscale>
<asrwt>0</asrwt>
<pdfrwt beam="1">  1        1 0.27430405E+00 0.11906489E+04</pdfrwt>
<pdfrwt beam="2">  1       -1 0.14232948E+00 0.11906489E+04</pdfrwt>
<totfact> 0.16512479E+00</totfact>
</mgrwt>
</event>
<event>
 4    1  0.4055965E-007  0.7562753E+03  0.7818608E-02  0.9814848E-01
         -1   -1    0    0    0  501 -0.00000000000E+00  0.00000000000E+00  0.84992285378E+03  0.84992285380E+03  0.50400000000E-02 0.  1.
          1   -1    0    0  501    0  0.00000000000E+00 -0.00000000000E+00 -0.99218546983E+03  0.99218546984E+03  0.50400000000E-02 0. -1.
    8880023    1    1    2    0    0  0.89116623130E+02  0.36083278674E+03 -0.78118214792E+03  0.10872892104E+04  0.65864270000E+03 0.  0.
    8880022    1    1    2    0    0 -0.89116623130E+02 -0.36083278674E+03  0.63891953188E+03  0.75481911326E+03  0.15294330000E+03 0.  0.
<mgrwt>
<rscale>  0 0.64571790E+03</rscale>
<asrwt>0</asrwt>
<pdfrwt beam="1">  1        1 0.15264392E+00 0.75627527E+03</pdfrwt>
<pdfrwt beam="2">  1       -1 0.13075736E+00 0.75627527E+03</pdfrwt>
<totfact> 0.79208960E+00</totfact>
</mgrwt>
</event>
<event>
 4    1  0.4055965E-007  0.7340365E+03  0.7818608E-02  0.9877672E-01
          1   -1    0    0  501    0  0.00000000000E+00  0.00000000000E+00  0.15934634633E+04  0.15934634633E+04  0.50400000000E-02 0. -1.
         -1   -1    0    0    0  501 -0.00000000000E+00 -0.00000000000E+00 -0.29200800002E+03  0.29200800006E+03  0.50400000000E-02 0.  1.
    8880023    1    1    2    0    0  0.30772906794E+03  0.10149956983E+03  0.13371525945E+04  0.15253808079E+04  0.65864270000E+03 0. -1.
    8880022    1    1    2    0    0 -0.30772906794E+03 -0.10149956983E+03 -0.35697131238E+02  0.36009065543E+03  0.15294330000E+03 0.  0.
<mgrwt>
<rscale>  0 0.61355719E+03</rscale>
<asrwt>0</asrwt>
<pdfrwt beam="1">  1        1 0.24514822E+00 0.73403648E+03</pdfrwt>
<pdfrwt beam="2">  1       -1 0.44924308E-01 0.73403648E+03</pdfrwt>
<totfact> 0.28677443E+01</totfact>
</mgrwt>
</event>
<event>
 4    1  0.4055965E-007  0.6748305E+03  0.7818608E-02  0.1012413E+00
         -1   -1    0    0    0  501 -0.00000000000E+00  0.00000000000E+00  0.13642293632E+03  0.13642293641E+03  0.50400000000E-02 0.  1.
          1   -1    0    0  501    0  0.00000000000E+00 -0.00000000000E+00 -0.18971160419E+04  0.18971160419E+04  0.50400000000E-02 0. -1.
    8880023    1    1    2    0    0 -0.58623288801E+02 -0.13471942206E+03 -0.16731275726E+04  0.18040931497E+04  0.65864270000E+03 0.  0.
    8880022    1    1    2    0    0  0.58623288801E+02  0.13471942206E+03 -0.87565533057E+02  0.22944582860E+03  0.15294330000E+03 0.  0.
<mgrwt>
<rscale>  0 0.50526667E+03</rscale>
<asrwt>0</asrwt>
<pdfrwt beam="1">  1        1 0.29186399E+00 0.67483051E+03</pdfrwt>
<pdfrwt beam="2">  1       -1 0.20988145E-01 0.67483051E+03</pdfrwt>
<totfact> 0.68567886E+01</totfact>
</mgrwt>
</event>
<event>
 4    1  0.4055965E-007  0.6881424E+03  0.7818608E-02  0.1005048E+00
          1   -1    0    0  501    0  0.00000000000E+00  0.00000000000E+00  0.51313044067E+03  0.51313044069E+03  0.50400000000E-02 0. -1.
         -1   -1    0    0    0  501 -0.00000000000E+00 -0.00000000000E+00 -0.44256172855E+03  0.44256172857E+03  0.50400000000E-02 0.  1.
    8880023    1    1    2    0    0 -0.19890256658E+03  0.12943174411E+02 -0.20523702028E+02  0.68844838976E+03  0.65864270000E+03 0.  1.
    8880022    1    1    2    0    0  0.19890256658E+03 -0.12943174411E+02  0.91092414150E+02  0.26724377951E+03  0.15294330000E+03 0. -1.
<mgrwt>
<rscale>  0 0.53491013E+03</rscale>
<asrwt>0</asrwt>
<pdfrwt beam="1">  1        1 0.78943144E-01 0.68814240E+03</pdfrwt>
<pdfrwt beam="2">  1       -1 0.68086420E-01 0.68814240E+03</pdfrwt>
<totfact> 0.95484775E+01</totfact>
</mgrwt>
</event>
<event>
 4    1  0.4055965E-007  0.6752519E+03  0.7818608E-02  0.1012148E+00
         -1   -1    0    0    0  501 -0.00000000000E+00  0.00000000000E+00  0.92889813117E+02  0.92889813254E+02  0.50400000000E-02 0.  1.
          1   -1    0    0  501    0  0.00000000000E+00 -0.00000000000E+00 -0.25062873432E+04  0.25062873432E+04  0.50400000000E-02 0. -1.
    8880023    1    1    2    0    0 -0.37876160381E+02  0.14394554100E+03 -0.21833312474E+04  0.22853665930E+04  0.65864270000E+03 0.  0.
    8880022    1    1    2    0    0  0.37876160381E+02 -0.14394554100E+03 -0.23006628273E+03  0.31381056350E+03  0.15294330000E+03 0.  0.
<mgrwt>
<rscale>  0 0.50629813E+03</rscale>
<asrwt>0</asrwt>
<pdfrwt beam="1">  1        1 0.38558262E+00 0.67525190E+03</pdfrwt>
<pdfrwt beam="2">  1       -1 0.14290742E-01 0.67525190E+03</pdfrwt>
<totfact> 0.50293874E+01</totfact>
</mgrwt>
</event>
<event>
 4    1  0.4055965E-007  0.6614815E+03  0.7818608E-02  0.1022687E+00
         -1   -1    0    0    0  501 -0.00000000000E+00  0.00000000000E+00  0.15709701882E+03  0.15709701890E+03  0.50400000000E-02 0.  1.
          1   -1    0    0  501    0  0.00000000000E+00 -0.00000000000E+00 -0.16084659366E+04  0.16084659366E+04  0.50400000000E-02 0. -1.
    8880023    1    1    2    0    0  0.30120100950E+02 -0.53294654350E+02 -0.14576336591E+04  0.16007041047E+04  0.65864270000E+03 0. -1.
    8880022    1    1    2    0    0 -0.30120100950E+02  0.53294654350E+02  0.62647413138E+01  0.16485885072E+03  0.15294330000E+03 0.  0.
<mgrwt>
<rscale>  0 0.46729150E+03</rscale>
<asrwt>0</asrwt>
<pdfrwt beam="1">  1        1 0.24745629E+00 0.66148148E+03</pdfrwt>
<pdfrwt beam="2">  1       -1 0.24168773E-01 0.66148148E+03</pdfrwt>
<totfact> 0.84527115E+01</totfact>
</mgrwt>
</event>
<event>
 4    1  0.4055965E-007  0.8474024E+03  0.7818608E-02  0.9616377E-01
         -1   -1    0    0    0  501 -0.00000000000E+00  0.00000000000E+00  0.74776945360E+03  0.74776945361E+03  0.50400000000E-02 0.  1.
          1   -1    0    0  501    0  0.00000000000E+00 -0.00000000000E+00 -0.84147174129E+03  0.84147174131E+03  0.50400000000E-02 0. -1.
    8880023    1    1    2    0    0  0.23846282366E+03 -0.47688161178E+03 -0.41992320287E+03  0.94574113398E+03  0.65864270000E+03 0. -1.
    8880022    1    1    2    0    0 -0.23846282366E+03  0.47688161178E+03  0.32622091518E+03  0.64350006094E+03  0.15294330000E+03 0.  0.
<mgrwt>
<rscale>  0 0.76221642E+03</rscale>
<asrwt>0</asrwt>
<pdfrwt beam="1">  1        1 0.12945719E+00 0.84740238E+03</pdfrwt>
<pdfrwt beam="2">  1       -1 0.11504145E+00 0.84740238E+03</pdfrwt>
<totfact> 0.14214292E+01</totfact>
</mgrwt>
</event>
<event>
 4    1  0.4055965E-007  0.1011262E+04  0.7818608E-02  0.9366969E-01
          1   -1    0    0  501    0  0.00000000000E+00  0.00000000000E+00  0.12283211785E+04  0.12283211785E+04  0.50400000000E-02 0. -1.
         -1   -1    0    0    0  501 -0.00000000000E+00 -0.00000000000E+00 -0.12402050811E+04  0.12402050811E+04  0.50400000000E-02 0.  1.
    8880023    1    1    2    0    0  0.63064073159E+03  0.43718842683E+03  0.83796530929E+03  0.13133306966E+04  0.65864270000E+03 0.  0.
    8880022    1    1    2    0    0 -0.63064073159E+03 -0.43718842683E+03 -0.84984921190E+03  0.11551955630E+04  0.15294330000E+03 0.  0.
<mgrwt>
<rscale>  0 0.94844576E+03</rscale>
<asrwt>0</asrwt>
<pdfrwt beam="1">  1        1 0.18897249E+00 0.10112624E+04</pdfrwt>
<pdfrwt beam="2">  1       -1 0.19080078E+00 0.10112624E+04</pdfrwt>
<totfact> 0.17829843E+00</totfact>
</mgrwt>
</event>
<event>
 4    1  0.4055965E-007  0.6953151E+03  0.7818608E-02  0.1001722E+00
          1   -1    0    0  501    0  0.00000000000E+00  0.00000000000E+00  0.16102538912E+04  0.16102538912E+04  0.50400000000E-02 0. -1.
         -1   -1    0    0    0  501 -0.00000000000E+00 -0.00000000000E+00 -0.34404068830E+03  0.34404068834E+03  0.50400000000E-02 0.  1.
    8880023    1    1    2    0    0 -0.18174008102E+03 -0.12893182151E+03  0.14631007527E+04  0.16199157047E+04  0.65864270000E+03 0. -1.
    8880022    1    1    2    0    0  0.18174008102E+03  0.12893182151E+03 -0.19688754979E+03  0.33437887482E+03  0.15294330000E+03 0.  0.
<mgrwt>
<rscale>  0 0.54901562E+03</rscale>
<asrwt>0</asrwt>
<pdfrwt beam="1">  1        1 0.24773137E+00 0.69531509E+03</pdfrwt>
<pdfrwt beam="2">  1       -1 0.52929337E-01 0.69531509E+03</pdfrwt>
<totfact> 0.20621099E+01</totfact>
</mgrwt>
</event>
<event>
 4    1  0.4055965E-007  0.7423879E+03  0.7818608E-02  0.9853045E-01
         -1   -1    0    0    0  501 -0.00000000000E+00  0.00000000000E+00  0.46526569574E+03  0.46526569577E+03  0.50400000000E-02 0.  1.
          1   -1    0    0  501    0  0.00000000000E+00 -0.00000000000E+00 -0.97588104679E+03  0.97588104680E+03  0.50400000000E-02 0. -1.
    8880023    1    1    2    0    0 -0.34023653404E+03 -0.39605899131E+02 -0.70049307113E+03  0.10207008745E+04  0.65864270000E+03 0. -1.
    8880022    1    1    2    0    0  0.34023653404E+03  0.39605899131E+02  0.18987772007E+03  0.42044586802E+03  0.15294330000E+03 0.  0.
<mgrwt>
<rscale>  0 0.62591892E+03</rscale>
<asrwt>0</asrwt>
<pdfrwt beam="1">  1        1 0.15013554E+00 0.74238786E+03</pdfrwt>
<pdfrwt beam="2">  1       -1 0.71579338E-01 0.74238786E+03</pdfrwt>
<totfact> 0.31998182E+01</totfact>
</mgrwt>
</event>
<event>
 4    1  0.6135294E-007  0.8386469E+03  0.7818608E-02  0.9632737E-01
         -1   -1    0    0    0  501 -0.00000000000E+00  0.00000000000E+00  0.15095301914E+04  0.15095301914E+04  0.50400000000E-02 0.  1.
          1   -1    0    0  501    0  0.00000000000E+00 -0.00000000000E+00 -0.16246047525E+04  0.16246047525E+04  0.50400000000E-02 0. -1.
    8880023    1    1    2    0    0 -0.33365893470E+03 -0.39773117836E+03 -0.14603756977E+04  0.16840504029E+04  0.65864270000E+03 0. -1.
    8880022    1    1    2    0    0  0.33365893470E+03  0.39773117836E+03  0.13453011365E+04  0.14500845410E+04  0.15294330000E+03 0.  0.
<mgrwt>
<rscale>  0 0.75166812E+03</rscale>
<asrwt>0</asrwt>
<pdfrwt beam="1">  1        1 0.24993919E+00 0.83864688E+03</pdfrwt>
<pdfrwt beam="2">  1       -1 0.23223541E+00 0.83864688E+03</pdfrwt>
<totfact> 0.50972769E-01</totfact>
</mgrwt>
</event>
<event>
 4    1  0.4055965E-007  0.7276085E+03  0.7818608E-02  0.9897635E-01
          1   -1    0    0  501    0  0.00000000000E+00  0.00000000000E+00  0.10862698075E+04  0.10862698075E+04  0.50400000000E-02 0. -1.
         -1   -1    0    0    0  501 -0.00000000000E+00 -0.00000000000E+00 -0.29309462753E+03  0.29309462757E+03  0.50400000000E-02 0.  1.
    8880023    1    1    2    0    0 -0.20352257974E+03  0.23277123727E+03  0.72613635563E+03  0.10279533562E+04  0.65864270000E+03 0. -1.
    8880022    1    1    2    0    0  0.20352257974E+03 -0.23277123727E+03  0.67038824352E+02  0.35141107886E+03  0.15294330000E+03 0.  0.
<mgrwt>
<rscale>  0 0.60376043E+03</rscale>
<asrwt>0</asrwt>
<pdfrwt beam="1">  1        1 0.16711843E+00 0.72760848E+03</pdfrwt>
<pdfrwt beam="2">  1       -1 0.45091481E-01 0.72760848E+03</pdfrwt>
<totfact> 0.64939804E+01</totfact>
</mgrwt>
</event>
<event>
 4    1  0.4055965E-007  0.7931211E+03  0.7818608E-02  0.9725872E-01
          1   -1    0    0  501    0  0.00000000000E+00  0.00000000000E+00  0.83811620909E+03  0.83811620910E+03  0.50400000000E-02 0. -1.
         -1   -1    0    0    0  501 -0.00000000000E+00 -0.00000000000E+00 -0.76668452086E+03  0.76668452088E+03  0.50400000000E-02 0.  1.
    8880023    1    1    2    0    0  0.11975550438E+03  0.42531103272E+03  0.52679445875E+03  0.95213101169E+03  0.65864270000E+03 0. -1.
    8880022    1    1    2    0    0 -0.11975550438E+03 -0.42531103272E+03 -0.45536277053E+03  0.65266971829E+03  0.15294330000E+03 0.  0.
<mgrwt>
<rscale>  0 0.69497068E+03</rscale>
<asrwt>0</asrwt>
<pdfrwt beam="1">  1        1 0.12894095E+00 0.79312109E+03</pdfrwt>
<pdfrwt beam="2">  1       -1 0.11795147E+00 0.79312109E+03</pdfrwt>
<totfact> 0.13556909E+01</totfact>
</mgrwt>
</event>
<event>
 4    1  0.4055965E-007  0.6904712E+03  0.7818608E-02  0.1003929E+00
          1   -1    0    0  501    0  0.00000000000E+00  0.00000000000E+00  0.50890438209E+03  0.50890438211E+03  0.50400000000E-02 0. -1.
         -1   -1    0    0    0  501 -0.00000000000E+00 -0.00000000000E+00 -0.48334840167E+03  0.48334840169E+03  0.50400000000E-02 0.  1.
    8880023    1    1    2    0    0  0.20386818462E+03  0.37121716200E+02  0.14943877439E+03  0.70645765058E+03  0.65864270000E+03 0. -1.
    8880022    1    1    2    0    0 -0.20386818462E+03 -0.37121716200E+02 -0.12388279397E+03  0.28579513322E+03  0.15294330000E+03 0.  0.
<mgrwt>
<rscale>  0 0.53960316E+03</rscale>
<asrwt>0</asrwt>
<pdfrwt beam="1">  1        1 0.78292982E-01 0.69047119E+03</pdfrwt>
<pdfrwt beam="2">  1       -1 0.74361292E-01 0.69047119E+03</pdfrwt>
<totfact> 0.80581682E+01</totfact>
</mgrwt>
</event>
<event>
 4    1  0.4055965E-007  0.8085297E+03  0.7818608E-02  0.9692648E-01
          1   -1    0    0  501    0  0.00000000000E+00  0.00000000000E+00  0.13547914705E+04  0.13547914705E+04  0.50400000000E-02 0. -1.
         -1   -1    0    0    0  501 -0.00000000000E+00 -0.00000000000E+00 -0.87464685595E+03  0.87464685596E+03  0.50400000000E-02 0.  1.
    8880023    1    1    2    0    0  0.44839922863E+03  0.13728886908E+03  0.11449353770E+04  0.14016409403E+04  0.65864270000E+03 0.  0.
    8880022    1    1    2    0    0 -0.44839922863E+03 -0.13728886908E+03 -0.66479076239E+03  0.82779738620E+03  0.15294330000E+03 0.  0.
<mgrwt>
<rscale>  0 0.71456238E+03</rscale>
<asrwt>0</asrwt>
<pdfrwt beam="1">  1        1 0.20842946E+00 0.80852972E+03</pdfrwt>
<pdfrwt beam="2">  1       -1 0.13456105E+00 0.80852972E+03</pdfrwt>
<totfact> 0.39613987E+00</totfact>
</mgrwt>
</event>
<event>
 4    1  0.4055965E-007  0.1029687E+04  0.7818608E-02  0.9343708E-01
          1   -1    0    0  501    0  0.00000000000E+00  0.00000000000E+00  0.90693387987E+03  0.90693387989E+03  0.50400000000E-02 0. -1.
         -1   -1    0    0    0  501 -0.00000000000E+00 -0.00000000000E+00 -0.12066194095E+04  0.12066194095E+04  0.50400000000E-02 0.  1.
    8880023    1    1    2    0    0  0.42719565616E+03  0.66629554754E+03 -0.66788049096E+03  0.12273224685E+04  0.65864270000E+03 0.  0.
    8880022    1    1    2    0    0 -0.42719565616E+03 -0.66629554754E+03  0.36819496132E+03  0.88623082087E+03  0.15294330000E+03 0.  0.
<mgrwt>
<rscale>  0 0.96856694E+03</rscale>
<asrwt>0</asrwt>
<pdfrwt beam="1">  1        1 0.13952829E+00 0.10296874E+04</pdfrwt>
<pdfrwt beam="2">  1       -1 0.18563375E+00 0.10296874E+04</pdfrwt>
<totfact> 0.34064651E+00</totfact>
</mgrwt>
</event>
<event>
 4    1  0.4055965E-007  0.8568088E+03  0.7818608E-02  0.9599265E-01
         -1   -1    0    0    0  501 -0.00000000000E+00  0.00000000000E+00  0.89514826753E+03  0.89514826754E+03  0.50400000000E-02 0.  1.
          1   -1    0    0  501    0  0.00000000000E+00 -0.00000000000E+00 -0.84450751488E+03  0.84450751490E+03  0.50400000000E-02 0. -1.
    8880023    1    1    2    0    0  0.41915545855E+03 -0.35301534976E+03  0.51985585435E+03  0.10021833421E+04  0.65864270000E+03 0.  0.
    8880022    1    1    2    0    0 -0.41915545855E+03  0.35301534976E+03 -0.46921510170E+03  0.73747244035E+03  0.15294330000E+03 0.  0.
<mgrwt>
<rscale>  0 0.77344823E+03</rscale>
<asrwt>0</asrwt>
<pdfrwt beam="1">  1        1 0.12992423E+00 0.85680881E+03</pdfrwt>
<pdfrwt beam="2">  1       -1 0.13771512E+00 0.85680881E+03</pdfrwt>
<totfact> 0.90170340E+00</totfact>
</mgrwt>
</event>
<event>
 4    1  0.4055965E-007  0.9952033E+03  0.7818608E-02  0.9387860E-01
         -1   -1    0    0    0  501 -0.00000000000E+00  0.00000000000E+00  0.58105471706E+03  0.58105471708E+03  0.50400000000E-02 0.  1.
          1   -1    0    0  501    0  0.00000000000E+00 -0.00000000000E+00 -0.20436469433E+04  0.20436469433E+04  0.50400000000E-02 0. -1.
    8880023    1    1    2    0    0  0.34355514990E+03  0.66226077208E+03 -0.15666682771E+04  0.18560385686E+04  0.65864270000E+03 0. -1.
    8880022    1    1    2    0    0 -0.34355514990E+03 -0.66226077208E+03  0.10407605091E+03  0.76866309177E+03  0.15294330000E+03 0.  0.
<mgrwt>
<rscale>  0 0.93081507E+03</rscale>
<asrwt>0</asrwt>
<pdfrwt beam="1">  1        1 0.31440722E+00 0.99520333E+03</pdfrwt>
<pdfrwt beam="2">  1       -1 0.89393034E-01 0.99520333E+03</pdfrwt>
<totfact> 0.34555303E+00</totfact>
</mgrwt>
</event>
<event>
 4    1  0.4055965E-007  0.8126186E+03  0.7818608E-02  0.9684148E-01
         -1   -1    0    0    0  501 -0.00000000000E+00  0.00000000000E+00  0.36457042809E+03  0.36457042813E+03  0.50400000000E-02 0.  1.
          1   -1    0    0  501    0  0.00000000000E+00 -0.00000000000E+00 -0.37402340529E+04  0.37402340529E+04  0.50400000000E-02 0. -1.
    8880023    1    1    2    0    0 -0.76789087263E+02 -0.46972575920E+03 -0.34971527928E+04  0.35903240404E+04  0.65864270000E+03 0. -1.
    8880022    1    1    2    0    0  0.76789087263E+02  0.46972575920E+03  0.12148916802E+03  0.51448044058E+03  0.15294330000E+03 0.  0.
<mgrwt>
<rscale>  0 0.71968507E+03</rscale>
<asrwt>0</asrwt>
<pdfrwt beam="1">  1        1 0.57542059E+00 0.81261864E+03</pdfrwt>
<pdfrwt beam="2">  1       -1 0.56087761E-01 0.81261864E+03</pdfrwt>
<totfact> 0.55838514E-01</totfact>
</mgrwt>
</event>
<event>
 4    1  0.4055965E-007  0.9054345E+03  0.7818608E-02  0.9517363E-01
         -1   -1    0    0    0  501 -0.00000000000E+00  0.00000000000E+00  0.10103363439E+04  0.10103363439E+04  0.50400000000E-02 0.  1.
          1   -1    0    0  501    0  0.00000000000E+00 -0.00000000000E+00 -0.79372540704E+03  0.79372540706E+03  0.50400000000E-02 0. -1.
    8880023    1    1    2    0    0  0.39787647726E+03 -0.47717477269E+03 -0.32882200393E+03  0.96329412506E+03  0.65864270000E+03 0. -1.
    8880022    1    1    2    0    0 -0.39787647726E+03  0.47717477269E+03  0.54543294075E+03  0.84076762587E+03  0.15294330000E+03 0.  0.
<mgrwt>
<rscale>  0 0.83015722E+03</rscale>
<asrwt>0</asrwt>
<pdfrwt beam="1">  1        1 0.12211160E+00 0.90543452E+03</pdfrwt>
<pdfrwt beam="2">  1       -1 0.15543636E+00 0.90543452E+03</pdfrwt>
<totfact> 0.71815465E+00</totfact>
</mgrwt>
</event>
<event>
 4    1  0.4055965E-007  0.7278814E+03  0.7818608E-02  0.9896768E-01
          1   -1    0    0  501    0  0.00000000000E+00  0.00000000000E+00  0.22546120289E+04  0.22546120289E+04  0.50400000000E-02 0. -1.
         -1   -1    0    0    0  501 -0.00000000000E+00 -0.00000000000E+00 -0.78419138707E+03  0.78419138708E+03  0.50400000000E-02 0.  1.
    8880023    1    1    2    0    0  0.30457843157E+03  0.56860144070E+02  0.21535639800E+04  0.22732463833E+04  0.65864270000E+03 0. -1.
    8880022    1    1    2    0    0 -0.30457843157E+03 -0.56860144070E+02 -0.68314333811E+03  0.76555703274E+03  0.15294330000E+03 0.  0.
<mgrwt>
<rscale>  0 0.60418189E+03</rscale>
<asrwt>0</asrwt>
<pdfrwt beam="1">  1        1 0.34686338E+00 0.72788138E+03</pdfrwt>
<pdfrwt beam="2">  1       -1 0.12064483E+00 0.72788138E+03</pdfrwt>
<totfact> 0.13026547E+00</totfact>
</mgrwt>
</event>
<event>
 4    1  0.4055965E-007  0.8737472E+03  0.7818608E-02  0.9569563E-01
         -1   -1    0    0    0  501 -0.00000000000E+00  0.00000000000E+00  0.12857134772E+04  0.12857134772E+04  0.50400000000E-02 0.  1.
          1   -1    0    0  501    0  0.00000000000E+00 -0.00000000000E+00 -0.96583220934E+03  0.96583220936E+03  0.50400000000E-02 0. -1.
    8880023    1    1    2    0    0 -0.51394622784E+03  0.25589682909E+03 -0.66725616489E+03  0.10993929726E+04  0.65864270000E+03 0.  0.
    8880022    1    1    2    0    0  0.51394622784E+03 -0.25589682909E+03  0.98713743271E+03  0.11521527140E+04  0.15294330000E+03 0.  0.
<mgrwt>
<rscale>  0 0.79343905E+03</rscale>
<asrwt>0</asrwt>
<pdfrwt beam="1">  1        1 0.14858957E+00 0.87374717E+03</pdfrwt>
<pdfrwt beam="2">  1       -1 0.19780207E+00 0.87374717E+03</pdfrwt>
<totfact> 0.25631353E+00</totfact>
</mgrwt>
</event>
<event>
 4    1  0.4055965E-007  0.6859615E+03  0.7818608E-02  0.1006134E+00
         -1   -1    0    0    0  501 -0.00000000000E+00  0.00000000000E+00  0.24252044794E+03  0.24252044799E+03  0.50400000000E-02 0.  1.
          1   -1    0    0  501    0  0.00000000000E+00 -0.00000000000E+00 -0.18950589834E+04  0.18950589834E+04  0.50400000000E-02 0. -1.
    8880023    1    1    2    0    0 -0.24566913223E+02  0.19007742679E+03 -0.17454188098E+04  0.18753746264E+04  0.65864270000E+03 0. -1.
    8880022    1    1    2    0    0  0.24566913223E+02 -0.19007742679E+03  0.92880274339E+02  0.26220480502E+03  0.15294330000E+03 0.  0.
<mgrwt>
<rscale>  0 0.53040345E+03</rscale>
<asrwt>0</asrwt>
<pdfrwt beam="1">  1        1 0.29154753E+00 0.68596149E+03</pdfrwt>
<pdfrwt beam="2">  1       -1 0.37310839E-01 0.68596149E+03</pdfrwt>
<totfact> 0.25418374E+01</totfact>
</mgrwt>
</event>
<event>
 4    1  0.4055965E-007  0.7683640E+03  0.7818608E-02  0.9783916E-01
         -1   -1    0    0    0  501 -0.00000000000E+00  0.00000000000E+00  0.80374086347E+03  0.80374086349E+03  0.50400000000E-02 0.  1.
          1   -1    0    0  501    0  0.00000000000E+00 -0.00000000000E+00 -0.45911401157E+03  0.45911401160E+03  0.50400000000E-02 0. -1.
    8880023    1    1    2    0    0 -0.37200674499E+03 -0.13484794101E+03  0.10464319318E+03  0.77545689091E+03  0.65864270000E+03 0. -1.
    8880022    1    1    2    0    0  0.37200674499E+03  0.13484794101E+03  0.23998365873E+03  0.48739798418E+03  0.15294330000E+03 0.  0.
<mgrwt>
<rscale>  0 0.66232880E+03</rscale>
<asrwt>0</asrwt>
<pdfrwt beam="1">  1        1 0.70632925E-01 0.76836397E+03</pdfrwt>
<pdfrwt beam="2">  1       -1 0.12365244E+00 0.76836397E+03</pdfrwt>
<totfact> 0.29277688E+01</totfact>
</mgrwt>
</event>
<event>
 4    1  0.4055965E-007  0.8211846E+03  0.7818608E-02  0.9666734E-01
         -1   -1    0    0    0  501 -0.00000000000E+00  0.00000000000E+00  0.87248922700E+03  0.87248922701E+03  0.50400000000E-02 0.  1.
          1   -1    0    0  501    0  0.00000000000E+00 -0.00000000000E+00 -0.11691557219E+04  0.11691557219E+04  0.50400000000E-02 0. -1.
    8880023    1    1    2    0    0 -0.19984916490E+03  0.44787751590E+03 -0.92046383765E+03  0.12335306403E+04  0.65864270000E+03 0.  0.
    8880022    1    1    2    0    0  0.19984916490E+03 -0.44787751590E+03  0.62379734273E+03  0.80811430861E+03  0.15294330000E+03 0.  0.
<mgrwt>
<rscale>  0 0.73032437E+03</rscale>
<asrwt>0</asrwt>
<pdfrwt beam="1">  1        1 0.17987011E+00 0.82118461E+03</pdfrwt>
<pdfrwt beam="2">  1       -1 0.13422911E+00 0.82118461E+03</pdfrwt>
<totfact> 0.54021167E+00</totfact>
</mgrwt>
</event>
<event>
 4    1  0.4055965E-007  0.8623304E+03  0.7818608E-02  0.9589431E-01
         -1   -1    0    0    0  501 -0.00000000000E+00  0.00000000000E+00  0.21122366707E+04  0.21122366707E+04  0.50400000000E-02 0.  1.
          1   -1    0    0  501    0  0.00000000000E+00 -0.00000000000E+00 -0.40568782850E+03  0.40568782853E+03  0.50400000000E-02 0. -1.
    8880023    1    1    2    0    0  0.32316087075E+03  0.45317836263E+03  0.17323717706E+03  0.87955949345E+03  0.65864270000E+03 0. -1.
    8880022    1    1    2    0    0 -0.32316087075E+03 -0.45317836263E+03  0.15333116652E+04  0.16383650058E+04  0.15294330000E+03 0.  0.
<mgrwt>
<rscale>  0 0.77999646E+03</rscale>
<asrwt>0</asrwt>
<pdfrwt beam="1">  1        1 0.62413512E-01 0.86233044E+03</pdfrwt>
<pdfrwt beam="2">  1       -1 0.32495949E+00 0.86233044E+03</pdfrwt>
<totfact> 0.13877293E+00</totfact>
</mgrwt>
</event>
<event>
 4    1  0.4055965E-007  0.6825449E+03  0.7818608E-02  0.1007919E+00
          1   -1    0    0  501    0  0.00000000000E+00  0.00000000000E+00  0.12156416453E+04  0.12156416453E+04  0.50400000000E-02 0. -1.
         -1   -1    0    0    0  501 -0.00000000000E+00 -0.00000000000E+00 -0.51606398288E+03  0.51606398290E+03  0.50400000000E-02 0.  1.
    8880023    1    1    2    0    0  0.17561393560E+03  0.34886479628E+02  0.10839472727E+04  0.12809407547E+04  0.65864270000E+03 0. -1.
    8880022    1    1    2    0    0 -0.17561393560E+03 -0.34886479628E+02 -0.38436961029E+03  0.45076487349E+03  0.15294330000E+03 0.  0.
<mgrwt>
<rscale>  0 0.52310046E+03</rscale>
<asrwt>0</asrwt>
<pdfrwt beam="1">  1        1 0.18702179E+00 0.68254489E+03</pdfrwt>
<pdfrwt beam="2">  1       -1 0.79394459E-01 0.68254489E+03</pdfrwt>
<totfact> 0.17188484E+01</totfact>
</mgrwt>
</event>
<event>
 4    1  0.4055965E-007  0.6777139E+03  0.7818608E-02  0.1010647E+00
         -1   -1    0    0    0  501 -0.00000000000E+00  0.00000000000E+00  0.10981490064E+04  0.10981490064E+04  0.50400000000E-02 0.  1.
          1   -1    0    0  501    0  0.00000000000E+00 -0.00000000000E+00 -0.25336675992E+03  0.25336675997E+03  0.50400000000E-02 0. -1.
    8880023    1    1    2    0    0  0.63644334470E+02 -0.14640804529E+03  0.25920138028E+03  0.72559043464E+03  0.65864270000E+03 0.  0.
    8880022    1    1    2    0    0 -0.63644334470E+02  0.14640804529E+03  0.58558086615E+03  0.62592533169E+03  0.15294330000E+03 0.  0.
<mgrwt>
<rscale>  0 0.51218103E+03</rscale>
<asrwt>0</asrwt>
<pdfrwt beam="1">  1        1 0.38979501E-01 0.67771389E+03</pdfrwt>
<pdfrwt beam="2">  1       -1 0.16894600E+00 0.67771389E+03</pdfrwt>
<totfact> 0.28211826E+01</totfact>
</mgrwt>
</event>
<event>
 4    1  0.4055965E-007  0.6977186E+03  0.7818608E-02  0.1000680E+00
          1   -1    0    0  501    0  0.00000000000E+00  0.00000000000E+00  0.12781658440E+04  0.12781658440E+04  0.50400000000E-02 0. -1.
         -1   -1    0    0    0  501 -0.00000000000E+00 -0.00000000000E+00 -0.61965520495E+03  0.61965520497E+03  0.50400000000E-02 0.  1.
    8880023    1    1    2    0    0  0.49268609068E+02 -0.22488578716E+03  0.11435287844E+04  0.13395780306E+04  0.65864270000E+03 0. -1.
    8880022    1    1    2    0    0 -0.49268609068E+02  0.22488578716E+03 -0.48501814540E+03  0.55824301831E+03  0.15294330000E+03 0.  0.
<mgrwt>
<rscale>  0 0.55353065E+03</rscale>
<asrwt>0</asrwt>
<pdfrwt beam="1">  1        1 0.19664090E+00 0.69771858E+03</pdfrwt>
<pdfrwt beam="2">  1       -1 0.95331570E-01 0.69771858E+03</pdfrwt>
<totfact> 0.10396371E+01</totfact>
</mgrwt>
</event>
<event>
 4    1  0.4055965E-007  0.8338921E+03  0.7818608E-02  0.9641807E-01
         -1   -1    0    0    0  501 -0.00000000000E+00  0.00000000000E+00  0.77855233279E+03  0.77855233281E+03  0.50400000000E-02 0.  1.
          1   -1    0    0  501    0  0.00000000000E+00 -0.00000000000E+00 -0.67650882344E+03  0.67650882346E+03  0.50400000000E-02 0. -1.
    8880023    1    1    2    0    0  0.29264168690E+03  0.41943613674E+03 -0.17736268970E+03  0.85254534171E+03  0.65864270000E+03 0.  0.
    8880022    1    1    2    0    0 -0.29264168690E+03 -0.41943613674E+03  0.27940619905E+03  0.60251581456E+03  0.15294330000E+03 0.  0.
<mgrwt>
<rscale>  0 0.74589879E+03</rscale>
<asrwt>0</asrwt>
<pdfrwt beam="1">  1        1 0.10407828E+00 0.83389210E+03</pdfrwt>
<pdfrwt beam="2">  1       -1 0.11977728E+00 0.83389210E+03</pdfrwt>
<totfact> 0.18162561E+01</totfact>
</mgrwt>
</event>
<event>
 4    1  0.4055965E-007  0.7642463E+03  0.7818608E-02  0.9794236E-01
         -1   -1    0    0    0  501 -0.00000000000E+00  0.00000000000E+00  0.81346810669E+03  0.81346810671E+03  0.50400000000E-02 0.  1.
          1   -1    0    0  501    0  0.00000000000E+00 -0.00000000000E+00 -0.78517643122E+03  0.78517643124E+03  0.50400000000E-02 0. -1.
    8880023    1    1    2    0    0  0.29261968790E+03 -0.25423588126E+03 -0.50934032403E+03  0.91842252641E+03  0.65864270000E+03 0. -1.
    8880022    1    1    2    0    0 -0.29261968790E+03  0.25423588126E+03  0.53763199951E+03  0.68022201154E+03  0.15294330000E+03 0.  0.
<mgrwt>
<rscale>  0 0.65672801E+03</rscale>
<asrwt>0</asrwt>
<pdfrwt beam="1">  1        1 0.12079638E+00 0.76424628E+03</pdfrwt>
<pdfrwt beam="2">  1       -1 0.12514894E+00 0.76424628E+03</pdfrwt>
<totfact> 0.13064800E+01</totfact>
</mgrwt>
</event>
<event>
 4    1  0.4055965E-007  0.6740529E+03  0.7818608E-02  0.1012910E+00
          1   -1    0    0  501    0  0.00000000000E+00  0.00000000000E+00  0.19150205847E+04  0.19150205847E+04  0.50400000000E-02 0. -1.
         -1   -1    0    0    0  501 -0.00000000000E+00 -0.00000000000E+00 -0.24535610850E+03  0.24535610855E+03  0.50400000000E-02 0.  1.
    8880023    1    1    2    0    0 -0.36183653102E+02  0.13866460862E+03  0.17941584659E+04  0.19165990550E+04  0.65864270000E+03 0.  0.
    8880022    1    1    2    0    0  0.36183653102E+02 -0.13866460862E+03 -0.12449398971E+03  0.24377763828E+03  0.15294330000E+03 0.  1.
<mgrwt>
<rscale>  0 0.50334313E+03</rscale>
<asrwt>0</asrwt>
<pdfrwt beam="1">  1        1 0.29461855E+00 0.67405292E+03</pdfrwt>
<pdfrwt beam="2">  1       -1 0.37747094E-01 0.67405292E+03</pdfrwt>
<totfact> 0.24184459E+01</totfact>
</mgrwt>
</event>
<event>
 4    1  0.4055965E-007  0.6625414E+03  0.7818608E-02  0.1021692E+00
          1   -1    0    0  501    0  0.00000000000E+00  0.00000000000E+00  0.15947465336E+04  0.15947465336E+04  0.50400000000E-02 0. -1.
         -1   -1    0    0    0  501 -0.00000000000E+00 -0.00000000000E+00 -0.38601397783E+03  0.38601397786E+03  0.50400000000E-02 0.  1.
    8880023    1    1    2    0    0 -0.71152356374E+02 -0.93918489914E+01  0.15023793039E+04  0.16419819255E+04  0.65864270000E+03 0. -1.
    8880022    1    1    2    0    0  0.71152356374E+02  0.93918489914E+01 -0.29364674810E+03  0.33877858599E+03  0.15294330000E+03 0.  0.
<mgrwt>
<rscale>  0 0.47081066E+03</rscale>
<asrwt>0</asrwt>
<pdfrwt beam="1">  1        1 0.24534563E+00 0.66254137E+03</pdfrwt>
<pdfrwt beam="2">  1       -1 0.59386764E-01 0.66254137E+03</pdfrwt>
<totfact> 0.16987292E+01</totfact>
</mgrwt>
</event>
<event>
 4    1  0.4055965E-007  0.6988507E+03  0.7818608E-02  0.1000200E+00
         -1   -1    0    0    0  501 -0.00000000000E+00  0.00000000000E+00  0.97395863419E+03  0.97395863421E+03  0.50400000000E-02 0.  1.
          1   -1    0    0  501    0  0.00000000000E+00 -0.00000000000E+00 -0.51628311173E+03  0.51628311175E+03  0.50400000000E-02 0. -1.
    8880023    1    1    2    0    0 -0.19273787245E+03  0.13203883650E+03 -0.23987788300E+03  0.73887329552E+03  0.65864270000E+03 0. -1.
    8880022    1    1    2    0    0  0.19273787245E+03 -0.13203883650E+03  0.69755340547E+03  0.75136845044E+03  0.15294330000E+03 0.  0.
<mgrwt>
<rscale>  0 0.55562516E+03</rscale>
<asrwt>0</asrwt>
<pdfrwt beam="1">  1        1 0.79428171E-01 0.69885073E+03</pdfrwt>
<pdfrwt beam="2">  1       -1 0.14983979E+00 0.69885073E+03</pdfrwt>
<totfact> 0.15337419E+01</totfact>
</mgrwt>
</event>
<event>
 4    1  0.4055965E-007  0.6672530E+03  0.7818608E-02  0.1017714E+00
          1   -1    0    0  501    0  0.00000000000E+00  0.00000000000E+00  0.66159128186E+03  0.66159128188E+03  0.50400000000E-02 0. -1.
         -1   -1    0    0    0  501 -0.00000000000E+00 -0.00000000000E+00 -0.40796314904E+03  0.40796314907E+03  0.50400000000E-02 0.  1.
    8880023    1    1    2    0    0 -0.22196321279E+02  0.10451655976E+03  0.44520338986E+03  0.80214253880E+03  0.65864270000E+03 0. -1.
    8880022    1    1    2    0    0  0.22196321279E+02 -0.10451655976E+03 -0.19157525703E+03  0.26741189215E+03  0.15294330000E+03 0.  0.
<mgrwt>
<rscale>  0 0.48520790E+03</rscale>
<asrwt>0</asrwt>
<pdfrwt beam="1">  1        1 0.10178327E+00 0.66725302E+03</pdfrwt>
<pdfrwt beam="2">  1       -1 0.62763562E-01 0.66725302E+03</pdfrwt>
<totfact> 0.78419493E+01</totfact>
</mgrwt>
</event>
<event>
 4    1  0.4217417E-007  0.7901892E+03  0.7818608E-02  0.9732425E-01
          1   -1    0    0  501    0  0.00000000000E+00  0.00000000000E+00  0.11505475726E+04  0.11505475726E+04  0.50400000000E-02 0. -1.
         -1   -1    0    0    0  501 -0.00000000000E+00 -0.00000000000E+00 -0.11745204321E+04  0.11745204322E+04  0.50400000000E-02 0.  1.
    8880023    1    1    2    0    0 -0.37741547918E+03  0.21942263662E+03  0.95666133444E+03  0.12408061301E+04  0.65864270000E+03 0.  0.
    8880022    1    1    2    0    0  0.37741547918E+03 -0.21942263662E+03 -0.98063419400E+03  0.10842618747E+04  0.15294330000E+03 0.  0.
<mgrwt>
<rscale>  0 0.69118620E+03</rscale>
<asrwt>0</asrwt>
<pdfrwt beam="1">  1        1 0.17700732E+00 0.79018918E+03</pdfrwt>
<pdfrwt beam="2">  1       -1 0.18069545E+00 0.79018918E+03</pdfrwt>
<totfact> 0.24757478E+00</totfact>
</mgrwt>
</event>
<event>
 4    1  0.4055965E-007  0.6822775E+03  0.7818608E-02  0.1008064E+00
         -1   -1    0    0    0  501 -0.00000000000E+00  0.00000000000E+00  0.27835206432E+03  0.27835206437E+03  0.50400000000E-02 0.  1.
          1   -1    0    0  501    0  0.00000000000E+00 -0.00000000000E+00 -0.15959441558E+04  0.15959441558E+04  0.50400000000E-02 0. -1.
    8880023    1    1    2    0    0 -0.17726777315E+03 -0.16386006663E+02 -0.14516616693E+04  0.16040025477E+04  0.65864270000E+03 0. -1.
    8880022    1    1    2    0    0  0.17726777315E+03  0.16386006663E+02  0.13406957790E+03  0.27029367241E+03  0.15294330000E+03 0.  0.
<mgrwt>
<rscale>  0 0.52251526E+03</rscale>
<asrwt>0</asrwt>
<pdfrwt beam="1">  1        1 0.24552986E+00 0.68227749E+03</pdfrwt>
<pdfrwt beam="2">  1       -1 0.42823395E-01 0.68227749E+03</pdfrwt>
<totfact> 0.31421759E+01</totfact>
</mgrwt>
</event>
<event>
 4    1  0.4055965E-007  0.7064417E+03  0.7818608E-02  0.9971460E-01
          1   -1    0    0  501    0  0.00000000000E+00  0.00000000000E+00  0.56600065568E+03  0.56600065571E+03  0.50400000000E-02 0. -1.
         -1   -1    0    0    0  501 -0.00000000000E+00 -0.00000000000E+00 -0.70185826330E+03  0.70185826332E+03  0.50400000000E-02 0.  1.
    8880023    1    1    2    0    0  0.20199725980E+02 -0.25464009875E+03  0.27703397798E+03  0.75881989961E+03  0.65864270000E+03 0. -1.
    8880022    1    1    2    0    0 -0.20199725980E+02  0.25464009875E+03 -0.41289158559E+03  0.50903901942E+03  0.15294330000E+03 0.  1.
<mgrwt>
<rscale>  0 0.56919584E+03</rscale>
<asrwt>0</asrwt>
<pdfrwt beam="1">  1        1 0.87077024E-01 0.70644166E+03</pdfrwt>
<pdfrwt beam="2">  1       -1 0.10797819E+00 0.70644166E+03</pdfrwt>
<totfact> 0.30546123E+01</totfact>
</mgrwt>
</event>
<event>
 4    1  0.4055965E-007  0.8555713E+03  0.7818608E-02  0.9601490E-01
         -1   -1    0    0    0  501 -0.00000000000E+00  0.00000000000E+00  0.73394602765E+03  0.73394602767E+03  0.50400000000E-02 0.  1.
          1   -1    0    0  501    0  0.00000000000E+00 -0.00000000000E+00 -0.13489058390E+04  0.13489058390E+04  0.50400000000E-02 0. -1.
    8880023    1    1    2    0    0  0.32425990264E+03 -0.43937178953E+03 -0.10598446639E+04  0.13620840546E+04  0.65864270000E+03 0.  0.
    8880022    1    1    2    0    0 -0.32425990264E+03  0.43937178953E+03  0.44488485255E+03  0.72076781209E+03  0.15294330000E+03 0.  0.
<mgrwt>
<rscale>  0 0.77197620E+03</rscale>
<asrwt>0</asrwt>
<pdfrwt beam="1">  1        1 0.20752398E+00 0.85557131E+03</pdfrwt>
<pdfrwt beam="2">  1       -1 0.11291477E+00 0.85557131E+03</pdfrwt>
<totfact> 0.61234661E+00</totfact>
</mgrwt>
</event>
<event>
 4    1  0.4055965E-007  0.8195040E+03  0.7818608E-02  0.9670110E-01
          1   -1    0    0  501    0  0.00000000000E+00  0.00000000000E+00  0.10768073956E+04  0.10768073956E+04  0.50400000000E-02 0. -1.
         -1   -1    0    0    0  501 -0.00000000000E+00 -0.00000000000E+00 -0.78790812893E+03  0.78790812895E+03  0.50400000000E-02 0.  1.
    8880023    1    1    2    0    0  0.16390967100E+03 -0.45924964018E+03  0.79765239658E+03  0.11436066475E+04  0.65864270000E+03 0.  0.
    8880022    1    1    2    0    0 -0.16390967100E+03  0.45924964018E+03 -0.50875312994E+03  0.72110887700E+03  0.15294330000E+03 0.  0.
<mgrwt>
<rscale>  0 0.72824643E+03</rscale>
<asrwt>0</asrwt>
<pdfrwt beam="1">  1        1 0.16566268E+00 0.81950401E+03</pdfrwt>
<pdfrwt beam="2">  1       -1 0.12121664E+00 0.81950401E+03</pdfrwt>
<totfact> 0.81676122E+00</totfact>
</mgrwt>
</event>
<event>
 4    1  0.4055965E-007  0.9404915E+03  0.7818608E-02  0.9463929E-01
          1   -1    0    0  501    0  0.00000000000E+00  0.00000000000E+00  0.92072362576E+03  0.92072362577E+03  0.50400000000E-02 0. -1.
         -1   -1    0    0    0  501 -0.00000000000E+00 -0.00000000000E+00 -0.79551119400E+03  0.79551119401E+03  0.50400000000E-02 0.  1.
    8880023    1    1    2    0    0 -0.64271782396E+03  0.19397876596E+03  0.33188678331E+03  0.99733294645E+03  0.65864270000E+03 0.  0.
    8880022    1    1    2    0    0  0.64271782396E+03 -0.19397876596E+03 -0.20667435155E+03  0.71890187333E+03  0.15294330000E+03 0.  0.
<mgrwt>
<rscale>  0 0.86996249E+03</rscale>
<asrwt>0</asrwt>
<pdfrwt beam="1">  1        1 0.14164979E+00 0.94049145E+03</pdfrwt>
<pdfrwt beam="2">  1       -1 0.12238634E+00 0.94049145E+03</pdfrwt>
<totfact> 0.10409002E+01</totfact>
</mgrwt>
</event>
<event>
 4    1  0.4055965E-007  0.7621864E+03  0.7818608E-02  0.9799480E-01
          1   -1    0    0  501    0  0.00000000000E+00  0.00000000000E+00  0.15936779202E+04  0.15936779202E+04  0.50400000000E-02 0. -1.
         -1   -1    0    0    0  501 -0.00000000000E+00 -0.00000000000E+00 -0.31968029110E+03  0.31968029114E+03  0.50400000000E-02 0.  1.
    8880023    1    1    2    0    0 -0.28607324538E+03 -0.25549965438E+03  0.12919710439E+04  0.15000391194E+04  0.65864270000E+03 0. -1.
    8880022    1    1    2    0    0  0.28607324538E+03  0.25549965438E+03 -0.17973414816E+02  0.41331909195E+03  0.15294330000E+03 0.  0.
<mgrwt>
<rscale>  0 0.65390481E+03</rscale>
<asrwt>0</asrwt>
<pdfrwt beam="1">  1        1 0.24518122E+00 0.76218645E+03</pdfrwt>
<pdfrwt beam="2">  1       -1 0.49181583E-01 0.76218645E+03</pdfrwt>
<totfact> 0.24112448E+01</totfact>
</mgrwt>
</event>
<event>
 4    1  0.4055965E-007  0.7448036E+03  0.7818608E-02  0.9846169E-01
         -1   -1    0    0    0  501 -0.00000000000E+00  0.00000000000E+00  0.39777842215E+03  0.39777842218E+03  0.50400000000E-02 0.  1.
          1   -1    0    0  501    0  0.00000000000E+00 -0.00000000000E+00 -0.23083651422E+04  0.23083651422E+04  0.50400000000E-02 0. -1.
    8880023    1    1    2    0    0  0.28817025438E+03  0.19462822389E+03 -0.21375693355E+04  0.22636110777E+04  0.65864270000E+03 0. -1.
    8880022    1    1    2    0    0 -0.28817025438E+03 -0.19462822389E+03  0.22698261540E+03  0.44253248666E+03  0.15294330000E+03 0.  0.
<mgrwt>
<rscale>  0 0.62942626E+03</rscale>
<asrwt>0</asrwt>
<pdfrwt beam="1">  1        1 0.35513309E+00 0.74480363E+03</pdfrwt>
<pdfrwt beam="2">  1       -1 0.61196682E-01 0.74480363E+03</pdfrwt>
<totfact> 0.52525510E+00</totfact>
</mgrwt>
</event>
<event>
 4    1  0.4055965E-007  0.8736262E+03  0.7818608E-02  0.9569770E-01
          1   -1    0    0  501    0  0.00000000000E+00  0.00000000000E+00  0.22293925817E+04  0.22293925817E+04  0.50400000000E-02 0. -1.
         -1   -1    0    0    0  501 -0.00000000000E+00 -0.00000000000E+00 -0.35001758629E+03  0.35001758632E+03  0.50400000000E-02 0.  1.
    8880023    1    1    2    0    0 -0.55203139680E+03 -0.15707895632E+03  0.35427555529E+03  0.94272680927E+03  0.65864270000E+03 0.  1.
    8880022    1    1    2    0    0  0.55203139680E+03  0.15707895632E+03  0.15250994401E+04  0.16366833588E+04  0.15294330000E+03 0.  0.
<mgrwt>
<rscale>  0 0.79329721E+03</rscale>
<asrwt>0</asrwt>
<pdfrwt beam="1">  1        1 0.34298345E+00 0.87362616E+03</pdfrwt>
<pdfrwt beam="2">  1       -1 0.53848863E-01 0.87362616E+03</pdfrwt>
<totfact> 0.74683578E+00</totfact>
</mgrwt>
</event>
<event>
 4    1  0.4055965E-007  0.7943288E+03  0.7818608E-02  0.9723195E-01
          1   -1    0    0  501    0  0.00000000000E+00  0.00000000000E+00  0.16029988391E+04  0.16029988391E+04  0.50400000000E-02 0. -1.
         -1   -1    0    0    0  501 -0.00000000000E+00 -0.00000000000E+00 -0.81826960344E+03  0.81826960346E+03  0.50400000000E-02 0.  1.
    8880023    1    1    2    0    0 -0.16087763778E+03  0.41384341601E+03  0.14224991379E+04  0.16292519728E+04  0.65864270000E+03 0. -1.
    8880022    1    1    2    0    0  0.16087763778E+03 -0.41384341601E+03 -0.63776990218E+03  0.79201646982E+03  0.15294330000E+03 0.  0.
<mgrwt>
<rscale>  0 0.69652395E+03</rscale>
<asrwt>0</asrwt>
<pdfrwt beam="1">  1        1 0.24661521E+00 0.79432877E+03</pdfrwt>
<pdfrwt beam="2">  1       -1 0.12588763E+00 0.79432877E+03</pdfrwt>
<totfact> 0.31688255E+00</totfact>
</mgrwt>
</event>
<event>
 4    1  0.4055965E-007  0.1014280E+04  0.7818608E-02  0.9363109E-01
          1   -1    0    0  501    0  0.00000000000E+00  0.00000000000E+00  0.12229076138E+04  0.12229076138E+04  0.50400000000E-02 0. -1.
         -1   -1    0    0    0  501 -0.00000000000E+00 -0.00000000000E+00 -0.97208038878E+03  0.97208038879E+03  0.50400000000E-02 0.  1.
    8880023    1    1    2    0    0  0.10928776621E+03 -0.76355114895E+03  0.75187999872E+03  0.12625719432E+04  0.65864270000E+03 0.  0.
    8880022    1    1    2    0    0 -0.10928776621E+03  0.76355114895E+03 -0.50105277369E+03  0.93241605946E+03  0.15294330000E+03 0.  0.
<mgrwt>
<rscale>  0 0.95174893E+03</rscale>
<asrwt>0</asrwt>
<pdfrwt beam="1">  1        1 0.18813963E+00 0.10142802E+04</pdfrwt>
<pdfrwt beam="2">  1       -1 0.14955083E+00 0.10142802E+04</pdfrwt>
<totfact> 0.36229233E+00</totfact>
</mgrwt>
</event>
<event>
 4    1  0.4055965E-007  0.6803872E+03  0.7818608E-02  0.1009105E+00
         -1   -1    0    0    0  501 -0.00000000000E+00  0.00000000000E+00  0.24052164146E+03  0.24052164152E+03  0.50400000000E-02 0.  1.
          1   -1    0    0  501    0  0.00000000000E+00 -0.00000000000E+00 -0.14950664940E+04  0.14950664940E+04  0.50400000000E-02 0. -1.
    8880023    1    1    2    0    0 -0.15428325353E+03  0.72892078576E+02 -0.13303388330E+04  0.14942316401E+04  0.65864270000E+03 0.  0.
    8880022    1    1    2    0    0  0.15428325353E+03 -0.72892078576E+02  0.75793980385E+02  0.24135649549E+03  0.15294330000E+03 0.  0.
<mgrwt>
<rscale>  0 0.51831710E+03</rscale>
<asrwt>0</asrwt>
<pdfrwt beam="1">  1        1 0.23001022E+00 0.68038723E+03</pdfrwt>
<pdfrwt beam="2">  1       -1 0.37003330E-01 0.68038723E+03</pdfrwt>
<totfact> 0.47975118E+01</totfact>
</mgrwt>
</event>
<event>
 4    1  0.4055965E-007  0.8537179E+03  0.7818608E-02  0.9604837E-01
         -1   -1    0    0    0  501 -0.00000000000E+00  0.00000000000E+00  0.57709394570E+03  0.57709394572E+03  0.50400000000E-02 0.  1.
          1   -1    0    0  501    0  0.00000000000E+00 -0.00000000000E+00 -0.10028522264E+04  0.10028522264E+04  0.50400000000E-02 0. -1.
    8880023    1    1    2    0    0 -0.98693591046E+02  0.53411949685E+03 -0.53177130208E+03  0.10057907266E+04  0.65864270000E+03 0.  1.
    8880022    1    1    2    0    0  0.98693591046E+02 -0.53411949685E+03  0.10601302140E+03  0.57415544546E+03  0.15294330000E+03 0.  0.
<mgrwt>
<rscale>  0 0.76976845E+03</rscale>
<asrwt>0</asrwt>
<pdfrwt beam="1">  1        1 0.15428496E+00 0.85371791E+03</pdfrwt>
<pdfrwt beam="2">  1       -1 0.88783684E-01 0.85371791E+03</pdfrwt>
<totfact> 0.19061256E+01</totfact>
</mgrwt>
</event>
<event>
 4    1  0.4055965E-007  0.8690130E+03  0.7818608E-02  0.9577728E-01
          1   -1    0    0  501    0  0.00000000000E+00  0.00000000000E+00  0.19001693589E+04  0.19001693589E+04  0.50400000000E-02 0. -1.
         -1   -1    0    0    0  501 -0.00000000000E+00 -0.00000000000E+00 -0.36902526930E+03  0.36902526934E+03  0.50400000000E-02 0.  1.
    8880023    1    1    2    0    0 -0.86895028845E+02 -0.56019869477E+03  0.14300510476E+04  0.16733886365E+04  0.65864270000E+03 0. -1.
    8880022    1    1    2    0    0  0.86895028845E+02  0.56019869477E+03  0.10109304198E+03  0.59580599176E+03  0.15294330000E+03 0.  0.
<mgrwt>
<rscale>  0 0.78788001E+03</rscale>
<asrwt>0</asrwt>
<pdfrwt beam="1">  1        1 0.29233375E+00 0.86901296E+03</pdfrwt>
<pdfrwt beam="2">  1       -1 0.56773117E-01 0.86901296E+03</pdfrwt>
<totfact> 0.11224678E+01</totfact>
</mgrwt>
</event>
<event>
 4    1  0.4055965E-007  0.6795525E+03  0.7818608E-02  0.1009578E+00
         -1   -1    0    0    0  501 -0.00000000000E+00  0.00000000000E+00  0.16416031592E+03  0.16416031599E+03  0.50400000000E-02 0.  1.
          1   -1    0    0  501    0  0.00000000000E+00 -0.00000000000E+00 -0.15638142073E+04  0.15638142073E+04  0.50400000000E-02 0. -1.
    8880023    1    1    2    0    0 -0.15969184585E+03 -0.49798938809E+02 -0.13254172299E+04  0.14894705299E+04  0.65864270000E+03 0. -1.
    8880022    1    1    2    0    0  0.15969184585E+03  0.49798938809E+02 -0.74236661494E+02  0.23850399339E+03  0.15294330000E+03 0.  0.
<mgrwt>
<rscale>  0 0.51642732E+03</rscale>
<asrwt>0</asrwt>
<pdfrwt beam="1">  1        1 0.24058679E+00 0.67955252E+03</pdfrwt>
<pdfrwt beam="2">  1       -1 0.25255434E-01 0.67955252E+03</pdfrwt>
<totfact> 0.83924586E+01</totfact>
</mgrwt>
</event>
<event>
 4    1  0.4055965E-007  0.1153560E+04  0.7818608E-02  0.9203643E-01
          1   -1    0    0  501    0  0.00000000000E+00  0.00000000000E+00  0.15718814050E+04  0.15718814050E+04  0.50400000000E-02 0. -1.
         -1   -1    0    0    0  501 -0.00000000000E+00 -0.00000000000E+00 -0.12634060522E+04  0.12634060522E+04  0.50400000000E-02 0.  1.
    8880023    1    1    2    0    0  0.93140658392E+03  0.17138209365E+03  0.10982114498E+04  0.15927236551E+04  0.65864270000E+03 0.  0.
    8880022    1    1    2    0    0 -0.93140658392E+03 -0.17138209365E+03 -0.78973609703E+03  0.12425638022E+04  0.15294330000E+03 0.  0.
<mgrwt>
<rscale>  0 0.11015905E+04</rscale>
<asrwt>0</asrwt>
<pdfrwt beam="1">  1        1 0.24182791E+00 0.11535598E+04</pdfrwt>
<pdfrwt beam="2">  1       -1 0.19437016E+00 0.11535598E+04</pdfrwt>
<totfact> 0.94721218E-01</totfact>
</mgrwt>
</event>
<event>
 4    1  0.4055965E-007  0.7320611E+03  0.7818608E-02  0.9883707E-01
          1   -1    0    0  501    0  0.00000000000E+00  0.00000000000E+00  0.13586316727E+04  0.13586316727E+04  0.50400000000E-02 0. -1.
         -1   -1    0    0    0  501 -0.00000000000E+00 -0.00000000000E+00 -0.63064778004E+03  0.63064778006E+03  0.50400000000E-02 0.  1.
    8880023    1    1    2    0    0 -0.26397605094E+03  0.18005522245E+03  0.11960306612E+04  0.14022848453E+04  0.65864270000E+03 0. -1.
    8880022    1    1    2    0    0  0.26397605094E+03 -0.18005522245E+03 -0.46804676856E+03  0.58699460744E+03  0.15294330000E+03 0.  0.
<mgrwt>
<rscale>  0 0.61057462E+03</rscale>
<asrwt>0</asrwt>
<pdfrwt beam="1">  1        1 0.20902026E+00 0.73206109E+03</pdfrwt>
<pdfrwt beam="2">  1       -1 0.97022736E-01 0.73206109E+03</pdfrwt>
<totfact> 0.87257452E+00</totfact>
</mgrwt>
</event>
<event>
 4    1  0.4055965E-007  0.8190844E+03  0.7818608E-02  0.9670956E-01
          1   -1    0    0  501    0  0.00000000000E+00  0.00000000000E+00  0.13546971401E+04  0.13546971401E+04  0.50400000000E-02 0. -1.
         -1   -1    0    0    0  501 -0.00000000000E+00 -0.00000000000E+00 -0.72813002520E+03  0.72813002521E+03  0.50400000000E-02 0.  1.
    8880023    1    1    2    0    0 -0.45978225559E+03 -0.16027883088E+03  0.11102343100E+04  0.13796809253E+04  0.65864270000E+03 0.  0.
    8880022    1    1    2    0    0  0.45978225559E+03  0.16027883088E+03 -0.48366719514E+03  0.70314624002E+03  0.15294330000E+03 0.  0.
<mgrwt>
<rscale>  0 0.72772689E+03</rscale>
<asrwt>0</asrwt>
<pdfrwt beam="1">  1        1 0.20841494E+00 0.81908439E+03</pdfrwt>
<pdfrwt beam="2">  1       -1 0.11202000E+00 0.81908439E+03</pdfrwt>
<totfact> 0.62142840E+00</totfact>
</mgrwt>
</event>
<event>
 4    1  0.4055965E-007  0.1100593E+04  0.7818608E-02  0.9260397E-01
          1   -1    0    0  501    0  0.00000000000E+00  0.00000000000E+00  0.11842465463E+04  0.11842465463E+04  0.50400000000E-02 0. -1.
         -1   -1    0    0    0  501 -0.00000000000E+00 -0.00000000000E+00 -0.10380292836E+04  0.10380292836E+04  0.50400000000E-02 0.  1.
    8880023    1    1    2    0    0  0.21607994933E+03  0.85487041152E+03  0.56166230384E+03  0.12356248277E+04  0.65864270000E+03 0.  0.
    8880022    1    1    2    0    0 -0.21607994933E+03 -0.85487041152E+03 -0.41544504114E+03  0.98665100224E+03  0.15294330000E+03 0.  0.
<mgrwt>
<rscale>  0 0.10451203E+04</rscale>
<asrwt>0</asrwt>
<pdfrwt beam="1">  1        1 0.18219178E+00 0.11005926E+04</pdfrwt>
<pdfrwt beam="2">  1       -1 0.15969681E+00 0.11005926E+04</pdfrwt>
<totfact> 0.31968542E+00</totfact>
</mgrwt>
</event>
<event>
 4    1  0.4055965E-007  0.7962715E+03  0.7818608E-02  0.9718917E-01
         -1   -1    0    0    0  501 -0.00000000000E+00  0.00000000000E+00  0.50116889285E+03  0.50116889288E+03  0.50400000000E-02 0.  1.
          1   -1    0    0  501    0  0.00000000000E+00 -0.00000000000E+00 -0.10506969373E+04  0.10506969373E+04  0.50400000000E-02 0. -1.
    8880023    1    1    2    0    0  0.29791493321E+02 -0.44648683931E+03 -0.69519395770E+03  0.10570444058E+04  0.65864270000E+03 0.  0.
    8880022    1    1    2    0    0 -0.29791493321E+02  0.44648683931E+03  0.14566591324E+03  0.49482142440E+03  0.15294330000E+03 0.  0.
<mgrwt>
<rscale>  0 0.69901588E+03</rscale>
<asrwt>0</asrwt>
<pdfrwt beam="1">  1        1 0.16164568E+00 0.79627146E+03</pdfrwt>
<pdfrwt beam="2">  1       -1 0.77102907E-01 0.79627146E+03</pdfrwt>
<totfact> 0.23859589E+01</totfact>
</mgrwt>
</event>
<event>
 4    1  0.4055965E-007  0.8314677E+03  0.7818608E-02  0.9646483E-01
          1   -1    0    0  501    0  0.00000000000E+00  0.00000000000E+00  0.30286581360E+04  0.30286581360E+04  0.50400000000E-02 0. -1.
         -1   -1    0    0    0  501 -0.00000000000E+00 -0.00000000000E+00 -0.20854836204E+03  0.20854836210E+03  0.50400000000E-02 0.  1.
    8880023    1    1    2    0    0 -0.50746867842E+03  0.19595560259E+01  0.24592456939E+04  0.25960022898E+04  0.65864270000E+03 0.  0.
    8880022    1    1    2    0    0  0.50746867842E+03 -0.19595560259E+01  0.36086408001E+03  0.64120420826E+03  0.15294330000E+03 0.  0.
<mgrwt>
<rscale>  0 0.74294532E+03</rscale>
<asrwt>0</asrwt>
<pdfrwt beam="1">  1        1 0.46594734E+00 0.83146768E+03</pdfrwt>
<pdfrwt beam="2">  1       -1 0.32084368E-01 0.83146768E+03</pdfrwt>
<totfact> 0.54327569E+00</totfact>
</mgrwt>
</event>
<event>
 4    1  0.4055965E-007  0.8820620E+03  0.7818608E-02  0.9555464E-01
         -1   -1    0    0    0  501 -0.00000000000E+00  0.00000000000E+00  0.10348974680E+04  0.10348974680E+04  0.50400000000E-02 0.  1.
          1   -1    0    0  501    0  0.00000000000E+00 -0.00000000000E+00 -0.85400681085E+03  0.85400681086E+03  0.50400000000E-02 0. -1.
    8880023    1    1    2    0    0 -0.36424226270E+02  0.58557359339E+03 -0.46991863821E+03  0.99942828174E+03  0.65864270000E+03 0. -1.
    8880022    1    1    2    0    0  0.36424226270E+02 -0.58557359339E+03  0.65080929536E+03  0.88947599713E+03  0.15294330000E+03 0.  0.
<mgrwt>
<rscale>  0 0.80315332E+03</rscale>
<asrwt>0</asrwt>
<pdfrwt beam="1">  1        1 0.13138566E+00 0.88206200E+03</pdfrwt>
<pdfrwt beam="2">  1       -1 0.15921499E+00 0.88206200E+03</pdfrwt>
<totfact> 0.59836008E+00</totfact>
</mgrwt>
</event>
<event>
 4    1  0.4055965E-007  0.8938730E+03  0.7818608E-02  0.9535940E-01
         -1   -1    0    0    0  501 -0.00000000000E+00  0.00000000000E+00  0.91984264134E+03  0.91984264135E+03  0.50400000000E-02 0.  1.
          1   -1    0    0  501    0  0.00000000000E+00 -0.00000000000E+00 -0.11793977970E+04  0.11793977970E+04  0.50400000000E-02 0. -1.
    8880023    1    1    2    0    0 -0.19419244322E+03  0.57226574183E+03 -0.85517107300E+03  0.12370636825E+04  0.65864270000E+03 0.  0.
    8880022    1    1    2    0    0  0.19419244322E+03 -0.57226574183E+03  0.59561591735E+03  0.86217675583E+03  0.15294330000E+03 0.  0.
<mgrwt>
<rscale>  0 0.81685202E+03</rscale>
<asrwt>0</asrwt>
<pdfrwt beam="1">  1        1 0.18144582E+00 0.89387303E+03</pdfrwt>
<pdfrwt beam="2">  1       -1 0.14151425E+00 0.89387303E+03</pdfrwt>
<totfact> 0.45840533E+00</totfact>
</mgrwt>
</event>
<event>
 4    1  0.4055965E-007  0.9370459E+03  0.7818608E-02  0.9469002E-01
         -1   -1    0    0    0  501 -0.00000000000E+00  0.00000000000E+00  0.20549765670E+03  0.20549765677E+03  0.50400000000E-02 0.  1.
          1   -1    0    0  501    0  0.00000000000E+00 -0.00000000000E+00 -0.37062905290E+04  0.37062905290E+04  0.50400000000E-02 0. -1.
    8880023    1    1    2    0    0 -0.55835363678E+03  0.36398642845E+03 -0.12682960751E+04  0.15769052109E+04  0.65864270000E+03 0.  1.
    8880022    1    1    2    0    0  0.55835363678E+03 -0.36398642845E+03 -0.22324967973E+04  0.23348829749E+04  0.15294330000E+03 0. -1.
<mgrwt>
<rscale>  0 0.86608242E+03</rscale>
<asrwt>0</asrwt>
<pdfrwt beam="1">  1        1 0.57019849E+00 0.93704595E+03</pdfrwt>
<pdfrwt beam="2">  1       -1 0.31615027E-01 0.93704595E+03</pdfrwt>
<totfact> 0.16716644E+00</totfact>
</mgrwt>
</event>
<event>
 4    1  0.4055965E-007  0.1096542E+04  0.7818608E-02  0.9264916E-01
         -1   -1    0    0    0  501 -0.00000000000E+00  0.00000000000E+00  0.14800335365E+04  0.14800335365E+04  0.50400000000E-02 0.  1.
          1   -1    0    0  501    0  0.00000000000E+00 -0.00000000000E+00 -0.11924557446E+04  0.11924557446E+04  0.50400000000E-02 0. -1.
    8880023    1    1    2    0    0 -0.77612005458E+03  0.40771472968E+03 -0.73255961027E+03  0.13187294752E+04  0.65864270000E+03 0.  0.
    8880022    1    1    2    0    0  0.77612005458E+03 -0.40771472968E+03  0.10201374022E+04  0.13537598060E+04  0.15294330000E+03 0.  0.
<mgrwt>
<rscale>  0 0.10407790E+04</rscale>
<asrwt>0</asrwt>
<pdfrwt beam="1">  1        1 0.18345473E+00 0.10965418E+04</pdfrwt>
<pdfrwt beam="2">  1       -1 0.22769747E+00 0.10965418E+04</pdfrwt>
<totfact> 0.10512880E+00</totfact>
</mgrwt>
</event>
<event>
 4    1  0.4055965E-007  0.9321404E+03  0.7818608E-02  0.9476290E-01
          1   -1    0    0  501    0  0.00000000000E+00  0.00000000000E+00  0.10319091045E+04  0.10319091045E+04  0.50400000000E-02 0. -1.
         -1   -1    0    0    0  501 -0.00000000000E+00 -0.00000000000E+00 -0.11501819939E+04  0.11501819939E+04  0.50400000000E-02 0.  1.
    8880023    1    1    2    0    0  0.61518570336E+03 -0.23795377386E+03  0.66626116534E+03  0.11457703063E+04  0.65864270000E+03 0.  0.
    8880022    1    1    2    0    0 -0.61518570336E+03  0.23795377386E+03 -0.78453405475E+03  0.10363207921E+04  0.15294330000E+03 0.  0.
<mgrwt>
<rscale>  0 0.86054683E+03</rscale>
<asrwt>0</asrwt>
<pdfrwt beam="1">  1        1 0.15875525E+00 0.93214036E+03</pdfrwt>
<pdfrwt beam="2">  1       -1 0.17695108E+00 0.93214036E+03</pdfrwt>
<totfact> 0.31664473E+00</totfact>
</mgrwt>
</event>
<event>
 4    1  0.4055965E-007  0.8163553E+03  0.7818608E-02  0.9676488E-01
          1   -1    0    0  501    0  0.00000000000E+00  0.00000000000E+00  0.63186505380E+03  0.63186505382E+03  0.50400000000E-02 0. -1.
         -1   -1    0    0    0  501 -0.00000000000E+00 -0.00000000000E+00 -0.13913246094E+04  0.13913246094E+04  0.50400000000E-02 0.  1.
    8880023    1    1    2    0    0  0.46748644684E+03  0.11866820821E+03  0.28333131019E+03  0.86412531453E+03  0.65864270000E+03 0.  0.
    8880022    1    1    2    0    0 -0.46748644684E+03 -0.11866820821E+03 -0.10427908658E+04  0.11590643487E+04  0.15294330000E+03 0.  0.
<mgrwt>
<rscale>  0 0.72434102E+03</rscale>
<asrwt>0</asrwt>
<pdfrwt beam="1">  1        1 0.97210009E-01 0.81635527E+03</pdfrwt>
<pdfrwt beam="2">  1       -1 0.21404994E+00 0.81635527E+03</pdfrwt>
<totfact> 0.39417742E+00</totfact>
</mgrwt>
</event>
<event>
 4    1  0.4055965E-007  0.7140526E+03  0.7818608E-02  0.9943249E-01
          1   -1    0    0  501    0  0.00000000000E+00  0.00000000000E+00  0.14370342559E+04  0.14370342559E+04  0.50400000000E-02 0. -1.
         -1   -1    0    0    0  501 -0.00000000000E+00 -0.00000000000E+00 -0.26232903982E+03  0.26232903987E+03  0.50400000000E-02 0.  1.
    8880023    1    1    2    0    0  0.68315150334E+02  0.26719640943E+03  0.11853660918E+04  0.13838221919E+04  0.65864270000E+03 0. -1.
    8880022    1    1    2    0    0 -0.68315150334E+02 -0.26719640943E+03 -0.10660875665E+02  0.31554110392E+03  0.15294330000E+03 0.  0.
<mgrwt>
<rscale>  0 0.58210272E+03</rscale>
<asrwt>0</asrwt>
<pdfrwt beam="1">  1        1 0.22108220E+00 0.71405258E+03</pdfrwt>
<pdfrwt beam="2">  1       -1 0.40358313E-01 0.71405258E+03</pdfrwt>
<totfact> 0.44772957E+01</totfact>
</mgrwt>
</event>
<event>
 4    1  0.4055965E-007  0.8352818E+03  0.7818608E-02  0.9639142E-01
          1   -1    0    0  501    0  0.00000000000E+00  0.00000000000E+00  0.14316805485E+04  0.14316805485E+04  0.50400000000E-02 0. -1.
         -1   -1    0    0    0  501 -0.00000000000E+00 -0.00000000000E+00 -0.54132725102E+03  0.54132725104E+03  0.50400000000E-02 0.  1.
    8880023    1    1    2    0    0 -0.49851829114E+03 -0.12395566499E+03  0.11138883347E+04  0.13922797570E+04  0.65864270000E+03 0.  0.
    8880022    1    1    2    0    0  0.49851829114E+03  0.12395566499E+03 -0.22353503720E+03  0.58072804251E+03  0.15294330000E+03 0.  0.
<mgrwt>
<rscale>  0 0.74758814E+03</rscale>
<asrwt>0</asrwt>
<pdfrwt beam="1">  1        1 0.22025854E+00 0.83528181E+03</pdfrwt>
<pdfrwt beam="2">  1       -1 0.83281116E-01 0.83528181E+03</pdfrwt>
<totfact> 0.10706923E+01</totfact>
</mgrwt>
</event>
<event>
 4    1  0.4055965E-007  0.6707936E+03  0.7818608E-02  0.1015100E+00
          1   -1    0    0  501    0  0.00000000000E+00  0.00000000000E+00  0.75198200989E+03  0.75198200991E+03  0.50400000000E-02 0. -1.
         -1   -1    0    0    0  501 -0.00000000000E+00 -0.00000000000E+00 -0.11151603591E+04  0.11151603591E+04  0.50400000000E-02 0.  1.
    8880023    1    1    2    0    0  0.58731209000E+02  0.11271403294E+03  0.59005897172E+03  0.89338323496E+03  0.65864270000E+03 0. -1.
    8880022    1    1    2    0    0 -0.58731209000E+02 -0.11271403294E+03 -0.95323732094E+03  0.97375913407E+03  0.15294330000E+03 0.  0.
<mgrwt>
<rscale>  0 0.49496985E+03</rscale>
<asrwt>0</asrwt>
<pdfrwt beam="1">  1        1 0.11568954E+00 0.67079357E+03</pdfrwt>
<pdfrwt beam="2">  1       -1 0.17156313E+00 0.67079357E+03</pdfrwt>
<totfact> 0.61198180E+00</totfact>
</mgrwt>
</event>
<event>
 4    1  0.4055965E-007  0.7179149E+03  0.7818608E-02  0.9929705E-01
          1   -1    0    0  501    0  0.00000000000E+00  0.00000000000E+00  0.15175882569E+04  0.15175882569E+04  0.50400000000E-02 0. -1.
         -1   -1    0    0    0  501 -0.00000000000E+00 -0.00000000000E+00 -0.18357701718E+03  0.18357701725E+03  0.50400000000E-02 0.  1.
    8880023    1    1    2    0    0  0.26870205811E+03 -0.96906048950E+02  0.10394522158E+04  0.12632745915E+04  0.65864270000E+03 0.  0.
    8880022    1    1    2    0    0 -0.26870205811E+03  0.96906048950E+02  0.29455902389E+03  0.43789068262E+03  0.15294330000E+03 0.  0.
<mgrwt>
<rscale>  0 0.58842987E+03</rscale>
<asrwt>0</asrwt>
<pdfrwt beam="1">  1        1 0.23347512E+00 0.71791489E+03</pdfrwt>
<pdfrwt beam="2">  1       -1 0.28242617E-01 0.71791489E+03</pdfrwt>
<totfact> 0.74173104E+01</totfact>
</mgrwt>
</event>
<event>
 4    1  0.4055965E-007  0.7277590E+03  0.7818608E-02  0.9897156E-01
         -1   -1    0    0    0  501 -0.00000000000E+00  0.00000000000E+00  0.35655370187E+03  0.35655370191E+03  0.50400000000E-02 0.  1.
          1   -1    0    0  501    0  0.00000000000E+00 -0.00000000000E+00 -0.11275474376E+04  0.11275474376E+04  0.50400000000E-02 0. -1.
    8880023    1    1    2    0    0  0.20073812086E+03  0.23564193577E+03 -0.86092309858E+03  0.11273072798E+04  0.65864270000E+03 0.  0.
    8880022    1    1    2    0    0 -0.20073812086E+03 -0.23564193577E+03  0.89929362835E+02  0.35679385978E+03  0.15294330000E+03 0.  0.
<mgrwt>
<rscale>  0 0.60399291E+03</rscale>
<asrwt>0</asrwt>
<pdfrwt beam="1">  1        1 0.17346883E+00 0.72775897E+03</pdfrwt>
<pdfrwt beam="2">  1       -1 0.54854416E-01 0.72775897E+03</pdfrwt>
<totfact> 0.41761053E+01</totfact>
</mgrwt>
</event>
<event>
 4    1  0.4055965E-007  0.7869651E+03  0.7818608E-02  0.9739723E-01
          1   -1    0    0  501    0  0.00000000000E+00  0.00000000000E+00  0.98371701219E+03  0.98371701220E+03  0.50400000000E-02 0. -1.
         -1   -1    0    0    0  501 -0.00000000000E+00 -0.00000000000E+00 -0.40642812890E+03  0.40642812894E+03  0.50400000000E-02 0.  1.
    8880023    1    1    2    0    0  0.38536120284E+03 -0.19235560150E+03  0.24211520394E+03  0.82336742243E+03  0.65864270000E+03 0.  1.
    8880022    1    1    2    0    0 -0.38536120284E+03  0.19235560150E+03  0.33517367934E+03  0.56677771870E+03  0.15294330000E+03 0.  0.
<mgrwt>
<rscale>  0 0.68700165E+03</rscale>
<asrwt>0</asrwt>
<pdfrwt beam="1">  1        1 0.15134108E+00 0.78696515E+03</pdfrwt>
<pdfrwt beam="2">  1       -1 0.62527404E-01 0.78696515E+03</pdfrwt>
<totfact> 0.41290847E+01</totfact>
</mgrwt>
</event>
<event>
 4    1  0.4055965E-007  0.6829029E+03  0.7818608E-02  0.1007727E+00
         -1   -1    0    0    0  501 -0.00000000000E+00  0.00000000000E+00  0.54039916609E+03  0.54039916611E+03  0.50400000000E-02 0.  1.
          1   -1    0    0  501    0  0.00000000000E+00 -0.00000000000E+00 -0.53264836308E+03  0.53264836310E+03  0.50400000000E-02 0. -1.
    8880023    1    1    2    0    0  0.15619455180E+03 -0.90273951493E+02 -0.24628542429E+03  0.72595650063E+03  0.65864270000E+03 0. -1.
    8880022    1    1    2    0    0 -0.15619455180E+03  0.90273951493E+02  0.25403622730E+03  0.34709102858E+03  0.15294330000E+03 0.  0.
<mgrwt>
<rscale>  0 0.52388065E+03</rscale>
<asrwt>0</asrwt>
<pdfrwt beam="1">  1        1 0.81945902E-01 0.68290287E+03</pdfrwt>
<pdfrwt beam="2">  1       -1 0.83138333E-01 0.68290287E+03</pdfrwt>
<totfact> 0.59831463E+01</totfact>
</mgrwt>
</event>
<event>
 4    1  0.4055965E-007  0.9309020E+03  0.7818608E-02  0.9478141E-01
          1   -1    0    0  501    0  0.00000000000E+00  0.00000000000E+00  0.20117741911E+04  0.20117741911E+04  0.50400000000E-02 0. -1.
         -1   -1    0    0    0  501 -0.00000000000E+00 -0.00000000000E+00 -0.36779534240E+03  0.36779534244E+03  0.50400000000E-02 0.  1.
    8880023    1    1    2    0    0  0.58890437983E+03  0.29318942506E+03  0.51466339633E+03  0.10636996876E+04  0.65864270000E+03 0.  0.
    8880022    1    1    2    0    0 -0.58890437983E+03 -0.29318942506E+03  0.11293154523E+04  0.13158698459E+04  0.15294330000E+03 0.  0.
<mgrwt>
<rscale>  0 0.85914733E+03</rscale>
<asrwt>0</asrwt>
<pdfrwt beam="1">  1        1 0.30950372E+00 0.93090204E+03</pdfrwt>
<pdfrwt beam="2">  1       -1 0.56583899E-01 0.93090204E+03</pdfrwt>
<totfact> 0.94327442E+00</totfact>
</mgrwt>
</event>
<event>
 4    1  0.4055965E-007  0.6797976E+03  0.7818608E-02  0.1009438E+00
          1   -1    0    0  501    0  0.00000000000E+00  0.00000000000E+00  0.14884282829E+03  0.14884282838E+03  0.50400000000E-02 0. -1.
         -1   -1    0    0    0  501 -0.00000000000E+00 -0.00000000000E+00 -0.14507781135E+04  0.14507781135E+04  0.50400000000E-02 0.  1.
    8880023    1    1    2    0    0  0.11762750217E+03 -0.12032590200E+03 -0.80850638628E+03  0.10563178191E+04  0.65864270000E+03 0. -1.
    8880022    1    1    2    0    0 -0.11762750217E+03  0.12032590200E+03 -0.49342889891E+03  0.54330312281E+03  0.15294330000E+03 0.  1.
<mgrwt>
<rscale>  0 0.51698453E+03</rscale>
<asrwt>0</asrwt>
<pdfrwt beam="1">  1        1 0.22898898E-01 0.67979759E+03</pdfrwt>
<pdfrwt beam="2">  1       -1 0.22319662E+00 0.67979759E+03</pdfrwt>
<totfact> 0.23765711E+01</totfact>
</mgrwt>
</event>
<event>
 4    1  0.4055965E-007  0.8538093E+03  0.7818608E-02  0.9604672E-01
         -1   -1    0    0    0  501 -0.00000000000E+00  0.00000000000E+00  0.32644930291E+03  0.32644930295E+03  0.50400000000E-02 0.  1.
          1   -1    0    0  501    0  0.00000000000E+00 -0.00000000000E+00 -0.16161046229E+04  0.16161046229E+04  0.50400000000E-02 0. -1.
    8880023    1    1    2    0    0 -0.30834813348E+03  0.44732709074E+03 -0.97631430547E+03  0.12969887921E+04  0.65864270000E+03 0. -1.
    8880022    1    1    2    0    0  0.30834813348E+03 -0.44732709074E+03 -0.31334101455E+03  0.64556513377E+03  0.15294330000E+03 0.  1.
<mgrwt>
<rscale>  0 0.76987739E+03</rscale>
<asrwt>0</asrwt>
<pdfrwt beam="1">  1        1 0.24863148E+00 0.85380929E+03</pdfrwt>
<pdfrwt beam="2">  1       -1 0.50222971E-01 0.85380929E+03</pdfrwt>
<totfact> 0.22129467E+01</totfact>
</mgrwt>
</event>
<event>
 4    1  0.4055965E-007  0.8318050E+03  0.7818608E-02  0.9645831E-01
         -1   -1    0    0    0  501 -0.00000000000E+00  0.00000000000E+00  0.11279646045E+04  0.11279646045E+04  0.50400000000E-02 0.  1.
          1   -1    0    0  501    0  0.00000000000E+00 -0.00000000000E+00 -0.13454959916E+04  0.13454959916E+04  0.50400000000E-02 0. -1.
    8880023    1    1    2    0    0 -0.14293159019E+01 -0.50802289726E+03 -0.11388646660E+04  0.14102879992E+04  0.65864270000E+03 0.  0.
    8880022    1    1    2    0    0  0.14293159019E+01  0.50802289726E+03  0.92133327884E+03  0.10631725969E+04  0.15294330000E+03 0.  0.
<mgrwt>
<rscale>  0 0.74335670E+03</rscale>
<asrwt>0</asrwt>
<pdfrwt beam="1">  1        1 0.20699938E+00 0.83180497E+03</pdfrwt>
<pdfrwt beam="2">  1       -1 0.17353302E+00 0.83180497E+03</pdfrwt>
<totfact> 0.20059147E+00</totfact>
</mgrwt>
</event>
<event>
 4    1  0.4055965E-007  0.7996131E+03  0.7818608E-02  0.9711633E-01
          1   -1    0    0  501    0  0.00000000000E+00  0.00000000000E+00  0.23773388293E+04  0.23773388293E+04  0.50400000000E-02 0. -1.
         -1   -1    0    0    0  501 -0.00000000000E+00 -0.00000000000E+00 -0.37488074385E+03  0.37488074388E+03  0.50400000000E-02 0.  1.
    8880023    1    1    2    0    0  0.15368554580E+02  0.45313881530E+03  0.21146178982E+04  0.22607498844E+04  0.65864270000E+03 0.  0.
    8880022    1    1    2    0    0 -0.15368554580E+02 -0.45313881530E+03 -0.11215981269E+03  0.49146968879E+03  0.15294330000E+03 0.  1.
<mgrwt>
<rscale>  0 0.70328365E+03</rscale>
<asrwt>0</asrwt>
<pdfrwt beam="1">  1        1 0.36574442E+00 0.79961315E+03</pdfrwt>
<pdfrwt beam="2">  1       -1 0.57673962E-01 0.79961315E+03</pdfrwt>
<totfact> 0.52516860E+00</totfact>
</mgrwt>
</event>
<event>
 4    1  0.4055965E-007  0.6691370E+03  0.7818608E-02  0.1016289E+00
         -1   -1    0    0    0  501 -0.00000000000E+00  0.00000000000E+00  0.32966190335E+03  0.32966190339E+03  0.50400000000E-02 0.  1.
          1   -1    0    0  501    0  0.00000000000E+00 -0.00000000000E+00 -0.61456979715E+03  0.61456979718E+03  0.50400000000E-02 0. -1.
    8880023    1    1    2    0    0 -0.11718820487E+03 -0.14178432112E+02 -0.32963283463E+03  0.74592366582E+03  0.65864270000E+03 0.  0.
    8880022    1    1    2    0    0  0.11718820487E+03  0.14178432112E+02  0.44724940826E+02  0.19830803475E+03  0.15294330000E+03 0.  0.
<mgrwt>
<rscale>  0 0.49049813E+03</rscale>
<asrwt>0</asrwt>
<pdfrwt beam="1">  1        1 0.94549200E-01 0.66913699E+03</pdfrwt>
<pdfrwt beam="2">  1       -1 0.50717216E-01 0.66913699E+03</pdfrwt>
<totfact> 0.13201943E+02</totfact>
</mgrwt>
</event>
<event>
 4    1  0.4055965E-007  0.7500758E+03  0.7818608E-02  0.9831513E-01
          1   -1    0    0  501    0  0.00000000000E+00  0.00000000000E+00  0.10239678681E+04  0.10239678681E+04  0.50400000000E-02 0. -1.
         -1   -1    0    0    0  501 -0.00000000000E+00 -0.00000000000E+00 -0.47495497921E+03  0.47495497924E+03  0.50400000000E-02 0.  1.
    8880023    1    1    2    0    0 -0.29917493079E+03  0.19823673975E+03  0.74944804293E+03  0.10603235447E+04  0.65864270000E+03 0. -1.
    8880022    1    1    2    0    0  0.29917493079E+03 -0.19823673975E+03 -0.20043515409E+03  0.43859930257E+03  0.15294330000E+03 0.  0.
<mgrwt>
<rscale>  0 0.63698460E+03</rscale>
<asrwt>0</asrwt>
<pdfrwt beam="1">  1        1 0.15753352E+00 0.75007576E+03</pdfrwt>
<pdfrwt beam="2">  1       -1 0.73069998E-01 0.75007576E+03</pdfrwt>
<totfact> 0.28118848E+01</totfact>
</mgrwt>
</event>
<event>
 4    1  0.4055965E-007  0.7028981E+03  0.7818608E-02  0.9985385E-01
         -1   -1    0    0    0  501 -0.00000000000E+00  0.00000000000E+00  0.79164787457E+03  0.79164787459E+03  0.50400000000E-02 0.  1.
          1   -1    0    0  501    0  0.00000000000E+00 -0.00000000000E+00 -0.39003343815E+03  0.39003343818E+03  0.50400000000E-02 0. -1.
    8880023    1    1    2    0    0 -0.61483575456E+02 -0.23764530282E+03  0.20429360406E+02  0.70319491255E+03  0.65864270000E+03 0.  0.
    8880022    1    1    2    0    0  0.61483575456E+02  0.23764530282E+03  0.38118507602E+03  0.47848640022E+03  0.15294330000E+03 0.  0.
<mgrwt>
<rscale>  0 0.56295759E+03</rscale>
<asrwt>0</asrwt>
<pdfrwt beam="1">  1        1 0.60005145E-01 0.70289809E+03</pdfrwt>
<pdfrwt beam="2">  1       -1 0.12179198E+00 0.70289809E+03</pdfrwt>
<totfact> 0.38018031E+01</totfact>
</mgrwt>
</event>
<event>
 4    1  0.4055965E-007  0.1207265E+04  0.7818608E-02  0.9150093E-01
          1   -1    0    0  501    0  0.00000000000E+00  0.00000000000E+00  0.87090120024E+03  0.87090120026E+03  0.50400000000E-02 0. -1.
         -1   -1    0    0    0  501 -0.00000000000E+00 -0.00000000000E+00 -0.17098227137E+04  0.17098227137E+04  0.50400000000E-02 0.  1.
    8880023    1    1    2    0    0  0.83186548956E+03  0.57591461730E+03  0.73837543895E+02  0.12095205779E+04  0.65864270000E+03 0.  0.
    8880022    1    1    2    0    0 -0.83186548956E+03 -0.57591461730E+03 -0.91275905739E+03  0.13712033361E+04  0.15294330000E+03 0.  0.
<mgrwt>
<rscale>  0 0.11583740E+04</rscale>
<asrwt>0</asrwt>
<pdfrwt beam="1">  1        1 0.13398480E+00 0.12072647E+04</pdfrwt>
<pdfrwt beam="2">  1       -1 0.26304965E+00 0.12072647E+04</pdfrwt>
<totfact> 0.10839055E+00</totfact>
</mgrwt>
</event>
<event>
 4    1  0.4055965E-007  0.1409349E+04  0.7818608E-02  0.8976452E-01
         -1   -1    0    0    0  501 -0.00000000000E+00  0.00000000000E+00  0.19412118243E+04  0.19412118243E+04  0.50400000000E-02 0.  1.
          1   -1    0    0  501    0  0.00000000000E+00 -0.00000000000E+00 -0.13474786118E+04  0.13474786118E+04  0.50400000000E-02 0. -1.
    8880023    1    1    2    0    0  0.41276498036E+03 -0.11756190565E+04 -0.62259973671E+03  0.15407451877E+04  0.65864270000E+03 0.  0.
    8880022    1    1    2    0    0 -0.41276498036E+03  0.11756190565E+04  0.12163329492E+04  0.17479452484E+04  0.15294330000E+03 0.  0.
<mgrwt>
<rscale>  0 0.13691569E+04</rscale>
<asrwt>0</asrwt>
<pdfrwt beam="1">  1        1 0.20730440E+00 0.14093492E+04</pdfrwt>
<pdfrwt beam="2">  1       -1 0.29864797E+00 0.14093492E+04</pdfrwt>
<totfact> 0.26991277E-01</totfact>
</mgrwt>
</event>
