<event>
 4    1  0.1998832E-007  0.8454049E+03  0.7818608E-02  0.9620072E-01
          2   -1    0    0  501    0  0.00000000000E+00  0.00000000000E+00  0.32408012648E+04  0.32408012648E+04  0.25500000000E-02 0. -1.
         -2   -1    0    0    0  501 -0.00000000000E+00 -0.00000000000E+00 -0.22311795553E+03  0.22311795554E+03  0.25500000000E-02 0.  1.
    8880023    1    1    2    0    0  0.20041978515E+03 -0.49064355761E+03  0.75009632772E+03  0.11302008220E+04  0.65864270000E+03 0.  1.
    8880022    1    1    2    0    0 -0.20041978515E+03  0.49064355761E+03  0.22675869816E+04  0.23337183984E+04  0.15294330000E+03 0. -1.
<mgrwt>
<rscale>  0 0.75981816E+03</rscale>
<asrwt>0</asrwt>
<pdfrwt beam="1">  1        2 0.49858479E+00 0.84540487E+03</pdfrwt>
<pdfrwt beam="2">  1       -2 0.34325841E-01 0.84540487E+03</pdfrwt>
<totfact> 0.10207568E+01</totfact>
</mgrwt>
</event>
<event>
 4    1  0.1998832E-007  0.1219155E+04  0.7818608E-02  0.9138724E-01
         -2   -1    0    0    0  501 -0.00000000000E+00  0.00000000000E+00  0.17617429902E+04  0.17617429902E+04  0.25500000000E-02 0.  1.
          2   -1    0    0  501    0  0.00000000000E+00 -0.00000000000E+00 -0.16547097333E+04  0.16547097333E+04  0.25500000000E-02 0. -1.
    8880023    1    1    2    0    0 -0.74653883209E+03  0.70371002522E+03  0.13357379265E+04  0.18084617890E+04  0.65864270000E+03 0.  0.
    8880022    1    1    2    0    0  0.74653883209E+03 -0.70371002522E+03 -0.12287046697E+04  0.16079909346E+04  0.15294330000E+03 0.  0.
<mgrwt>
<rscale>  0 0.11708914E+04</rscale>
<asrwt>0</asrwt>
<pdfrwt beam="1">  1        2 0.25457073E+00 0.12191547E+04</pdfrwt>
<pdfrwt beam="2">  1       -2 0.27103738E+00 0.12191547E+04</pdfrwt>
<totfact> 0.48191255E-01</totfact>
</mgrwt>
</event>
<event>
 4    1  0.1998832E-007  0.9051163E+03  0.7818608E-02  0.9517868E-01
         -2   -1    0    0    0  501 -0.00000000000E+00  0.00000000000E+00  0.86609209739E+03  0.86609209739E+03  0.25500000000E-02 0.  1.
          2   -1    0    0  501    0  0.00000000000E+00 -0.00000000000E+00 -0.22114335416E+04  0.22114335416E+04  0.25500000000E-02 0. -1.
    8880023    1    1    2    0    0 -0.60970832846E+03 -0.11696587160E+03  0.56231608080E+03  0.10655678495E+04  0.65864270000E+03 0.  1.
    8880022    1    1    2    0    0  0.60970832846E+03  0.11696587160E+03 -0.19076575250E+04  0.20119577895E+04  0.15294330000E+03 0.  0.
<mgrwt>
<rscale>  0 0.82979227E+03</rscale>
<asrwt>0</asrwt>
<pdfrwt beam="1">  1        2 0.34022054E+00 0.90511627E+03</pdfrwt>
<pdfrwt beam="2">  1       -2 0.13324494E+00 0.90511627E+03</pdfrwt>
<totfact> 0.21074046E+00</totfact>
</mgrwt>
</event>
<event>
 4    1  0.1998832E-007  0.9091597E+03  0.7818608E-02  0.9511485E-01
          2   -1    0    0  501    0  0.00000000000E+00  0.00000000000E+00  0.92021724077E+03  0.92021724078E+03  0.25500000000E-02 0. -1.
         -2   -1    0    0    0  501 -0.00000000000E+00 -0.00000000000E+00 -0.13007329500E+04  0.13007329500E+04  0.25500000000E-02 0.  1.
    8880023    1    1    2    0    0 -0.54409841846E+03 -0.31099516358E+03 -0.98249434283E+03  0.13386061485E+04  0.65864270000E+03 0.  1.
    8880022    1    1    2    0    0  0.54409841846E+03  0.31099516358E+03  0.60197863358E+03  0.88234404234E+03  0.15294330000E+03 0.  0.
<mgrwt>
<rscale>  0 0.83442386E+03</rscale>
<asrwt>0</asrwt>
<pdfrwt beam="1">  1        2 0.14157188E+00 0.90915966E+03</pdfrwt>
<pdfrwt beam="2">  1       -2 0.20011276E+00 0.90915966E+03</pdfrwt>
<totfact> 0.37821054E+00</totfact>
</mgrwt>
</event>
<event>
 4    1  0.1998832E-007  0.8667200E+03  0.7818608E-02  0.9581720E-01
          2   -1    0    0  501    0  0.00000000000E+00  0.00000000000E+00  0.13897388455E+04  0.13897388455E+04  0.25500000000E-02 0. -1.
         -2   -1    0    0    0  501 -0.00000000000E+00 -0.00000000000E+00 -0.85855488765E+03  0.85855488765E+03  0.25500000000E-02 0.  1.
    8880023    1    1    2    0    0  0.22131543677E+03  0.51808579519E+03 -0.54510229874E+03  0.10238848256E+04  0.65864270000E+03 0.  0.
    8880022    1    1    2    0    0 -0.22131543677E+03 -0.51808579519E+03  0.10762862566E+04  0.12244089075E+04  0.15294330000E+03 0.  0.
<mgrwt>
<rscale>  0 0.78517994E+03</rscale>
<asrwt>0</asrwt>
<pdfrwt beam="1">  1        2 0.21380598E+00 0.86672004E+03</pdfrwt>
<pdfrwt beam="2">  1       -2 0.13208537E+00 0.86672004E+03</pdfrwt>
<totfact> 0.61658283E+00</totfact>
</mgrwt>
</event>
<event>
 4    1  0.1998832E-007  0.7167950E+03  0.7818608E-02  0.9933584E-01
          2   -1    0    0  501    0  0.00000000000E+00  0.00000000000E+00  0.11102543112E+04  0.11102543112E+04  0.25500000000E-02 0. -1.
         -2   -1    0    0    0  501 -0.00000000000E+00 -0.00000000000E+00 -0.35685133956E+03  0.35685133957E+03  0.25500000000E-02 0.  1.
    8880023    1    1    2    0    0 -0.27956873622E+02  0.28143070317E+03  0.86805721142E+03  0.11257523511E+04  0.65864270000E+03 0. -1.
    8880022    1    1    2    0    0  0.27956873622E+02 -0.28143070317E+03 -0.11465423978E+03  0.34135329965E+03  0.15294330000E+03 0.  0.
<mgrwt>
<rscale>  0 0.58660928E+03</rscale>
<asrwt>0</asrwt>
<pdfrwt beam="1">  1        2 0.17080835E+00 0.71679497E+03</pdfrwt>
<pdfrwt beam="2">  1       -2 0.54900207E-01 0.71679497E+03</pdfrwt>
<totfact> 0.68263419E+01</totfact>
</mgrwt>
</event>
<event>
 4    1  0.1998832E-007  0.6856686E+03  0.7818608E-02  0.1006283E+00
          2   -1    0    0  501    0  0.00000000000E+00  0.00000000000E+00  0.43655713814E+03  0.43655713814E+03  0.25500000000E-02 0. -1.
         -2   -1    0    0    0  501 -0.00000000000E+00 -0.00000000000E+00 -0.18280854145E+04  0.18280854145E+04  0.25500000000E-02 0.  1.
    8880023    1    1    2    0    0 -0.18555369577E+03 -0.43601624433E+02 -0.17220785064E+04  0.18535630187E+04  0.65864270000E+03 0.  1.
    8880022    1    1    2    0    0  0.18555369577E+03  0.43601624433E+02  0.33055023004E+03  0.41107953399E+03  0.15294330000E+03 0.  0.
<mgrwt>
<rscale>  0 0.52978951E+03</rscale>
<asrwt>0</asrwt>
<pdfrwt beam="1">  1        2 0.67162637E-01 0.68566864E+03</pdfrwt>
<pdfrwt beam="2">  1       -2 0.28124391E+00 0.68566864E+03</pdfrwt>
<totfact> 0.31173864E+00</totfact>
</mgrwt>
</event>
<event>
 4    1  0.1998832E-007  0.1703618E+04  0.7818608E-02  0.8777813E-01
          2   -1    0    0  501    0  0.00000000000E+00  0.00000000000E+00  0.33041780380E+04  0.33041780380E+04  0.25500000000E-02 0. -1.
         -2   -1    0    0    0  501 -0.00000000000E+00 -0.00000000000E+00 -0.10776717228E+04  0.10776717228E+04  0.25500000000E-02 0.  1.
    8880023    1    1    2    0    0  0.29484270945E+03  0.15432337592E+04  0.64445276092E+02  0.17048360797E+04  0.65864270000E+03 0.  1.
    8880022    1    1    2    0    0 -0.29484270945E+03 -0.15432337592E+04  0.21620610392E+04  0.26770136811E+04  0.15294330000E+03 0.  0.
<mgrwt>
<rscale>  0 0.16714573E+04</rscale>
<asrwt>0</asrwt>
<pdfrwt beam="1">  1        2 0.50833507E+00 0.17036176E+04</pdfrwt>
<pdfrwt beam="2">  1       -2 0.16579565E+00 0.17036176E+04</pdfrwt>
<totfact> 0.23426825E-01</totfact>
</mgrwt>
</event>
<event>
 4    1  0.1998832E-007  0.8789085E+03  0.7818608E-02  0.9560776E-01
         -2   -1    0    0    0  501 -0.00000000000E+00  0.00000000000E+00  0.66374862292E+03  0.66374862293E+03  0.25500000000E-02 0.  1.
          2   -1    0    0  501    0  0.00000000000E+00 -0.00000000000E+00 -0.19009020721E+04  0.19009020721E+04  0.25500000000E-02 0. -1.
    8880023    1    1    2    0    0  0.51523802335E+03 -0.27055438099E+03  0.28816109343E+03  0.92494157427E+03  0.65864270000E+03 0.  0.
    8880022    1    1    2    0    0 -0.51523802335E+03  0.27055438099E+03 -0.15253145426E+04  0.16397091207E+04  0.15294330000E+03 0.  0.
<mgrwt>
<rscale>  0 0.79947620E+03</rscale>
<asrwt>0</asrwt>
<pdfrwt beam="1">  1        2 0.29244647E+00 0.87890847E+03</pdfrwt>
<pdfrwt beam="2">  1       -2 0.10211517E+00 0.87890847E+03</pdfrwt>
<totfact> 0.60454808E+00</totfact>
</mgrwt>
</event>
<event>
 4    1  0.1998832E-007  0.7523113E+03  0.7818608E-02  0.9825435E-01
         -2   -1    0    0    0  501 -0.00000000000E+00  0.00000000000E+00  0.29128167496E+03  0.29128167497E+03  0.25500000000E-02 0.  1.
          2   -1    0    0  501    0  0.00000000000E+00 -0.00000000000E+00 -0.24138083859E+04  0.24138083859E+04  0.25500000000E-02 0. -1.
    8880023    1    1    2    0    0 -0.36283150387E+03 -0.22703130805E+02 -0.25193971650E+03  0.79337630375E+03  0.65864270000E+03 0.  1.
    8880022    1    1    2    0    0  0.36283150387E+03  0.22703130805E+02 -0.18705869945E+04  0.19117137572E+04  0.15294330000E+03 0.  0.
<mgrwt>
<rscale>  0 0.64015225E+03</rscale>
<asrwt>0</asrwt>
<pdfrwt beam="1">  1        2 0.37135512E+00 0.75231133E+03</pdfrwt>
<pdfrwt beam="2">  1       -2 0.44812567E-01 0.75231133E+03</pdfrwt>
<totfact> 0.19235730E+01</totfact>
</mgrwt>
</event>
<event>
 4    1  0.1998832E-007  0.8568427E+03  0.7818608E-02  0.9599205E-01
         -2   -1    0    0    0  501 -0.00000000000E+00  0.00000000000E+00  0.26814392649E+03  0.26814392650E+03  0.25500000000E-02 0.  1.
          2   -1    0    0  501    0  0.00000000000E+00 -0.00000000000E+00 -0.26812308242E+04  0.26812308242E+04  0.25500000000E-02 0. -1.
    8880023    1    1    2    0    0 -0.52521399061E+03  0.15658699198E+03 -0.59199179024E+03  0.10414574922E+04  0.65864270000E+03 0.  1.
    8880022    1    1    2    0    0  0.52521399061E+03 -0.15658699198E+03 -0.18210951075E+04  0.19079172586E+04  0.15294330000E+03 0.  0.
<mgrwt>
<rscale>  0 0.77348852E+03</rscale>
<asrwt>0</asrwt>
<pdfrwt beam="1">  1        2 0.41249703E+00 0.85684271E+03</pdfrwt>
<pdfrwt beam="2">  1       -2 0.41252914E-01 0.85684271E+03</pdfrwt>
<totfact> 0.15693757E+01</totfact>
</mgrwt>
</event>
<event>
 4    1  0.1998832E-007  0.8286790E+03  0.7818608E-02  0.9651908E-01
          2   -1    0    0  501    0  0.00000000000E+00  0.00000000000E+00  0.32290159799E+04  0.32290159799E+04  0.25500000000E-02 0. -1.
         -2   -1    0    0    0  501 -0.00000000000E+00 -0.00000000000E+00 -0.36509322910E+03  0.36509322911E+03  0.25500000000E-02 0.  1.
    8880023    1    1    2    0    0 -0.76130901330E+02 -0.49709430220E+03  0.16559614888E+03  0.84506269011E+03  0.65864270000E+03 0.  1.
    8880022    1    1    2    0    0  0.76130901330E+02  0.49709430220E+03  0.26983266019E+04  0.27490465189E+04  0.15294330000E+03 0.  0.
<mgrwt>
<rscale>  0 0.73953793E+03</rscale>
<asrwt>0</asrwt>
<pdfrwt beam="1">  1        2 0.49677170E+00 0.82867899E+03</pdfrwt>
<pdfrwt beam="2">  1       -2 0.56168188E-01 0.82867899E+03</pdfrwt>
<totfact> 0.39098289E+00</totfact>
</mgrwt>
</event>
<event>
 4    1  0.1998832E-007  0.1198844E+04  0.7818608E-02  0.9158246E-01
          2   -1    0    0  501    0  0.00000000000E+00  0.00000000000E+00  0.10523028878E+04  0.10523028878E+04  0.25500000000E-02 0. -1.
         -2   -1    0    0    0  501 -0.00000000000E+00 -0.00000000000E+00 -0.12300328624E+04  0.12300328624E+04  0.25500000000E-02 0.  1.
    8880023    1    1    2    0    0  0.64597906405E+03 -0.76559056201E+03  0.17038344209E+03  0.12108916481E+04  0.65864270000E+03 0.  0.
    8880022    1    1    2    0    0 -0.64597906405E+03  0.76559056201E+03 -0.34811341669E+03  0.10714441020E+04  0.15294330000E+03 0.  0.
<mgrwt>
<rscale>  0 0.11494984E+04</rscale>
<asrwt>0</asrwt>
<pdfrwt beam="1">  1        2 0.16189275E+00 0.11988445E+04</pdfrwt>
<pdfrwt beam="2">  1       -2 0.18923582E+00 0.11988445E+04</pdfrwt>
<totfact> 0.35580613E+00</totfact>
</mgrwt>
</event>
<event>
 4    1  0.1998832E-007  0.9353475E+03  0.7818608E-02  0.9471517E-01
         -2   -1    0    0    0  501 -0.00000000000E+00  0.00000000000E+00  0.90265653133E+03  0.90265653134E+03  0.25500000000E-02 0.  1.
          2   -1    0    0  501    0  0.00000000000E+00 -0.00000000000E+00 -0.12158224226E+04  0.12158224226E+04  0.25500000000E-02 0. -1.
    8880023    1    1    2    0    0  0.59001161023E+03  0.30487872580E+03  0.49748464658E+03  0.10594177257E+04  0.65864270000E+03 0.  1.
    8880022    1    1    2    0    0 -0.59001161023E+03 -0.30487872580E+03 -0.81065053782E+03  0.10590612282E+04  0.15294330000E+03 0.  0.
<mgrwt>
<rscale>  0 0.86416736E+03</rscale>
<asrwt>0</asrwt>
<pdfrwt beam="1">  1        2 0.18704960E+00 0.93534750E+03</pdfrwt>
<pdfrwt beam="2">  1       -2 0.13887024E+00 0.93534750E+03</pdfrwt>
<totfact> 0.67871953E+00</totfact>
</mgrwt>
</event>
<event>
 4    1  0.1998832E-007  0.9042111E+03  0.7818608E-02  0.9519305E-01
          2   -1    0    0  501    0  0.00000000000E+00  0.00000000000E+00  0.22991964839E+04  0.22991964839E+04  0.25500000000E-02 0. -1.
         -2   -1    0    0    0  501 -0.00000000000E+00 -0.00000000000E+00 -0.10717123982E+04  0.10717123982E+04  0.25500000000E-02 0.  1.
    8880023    1    1    2    0    0  0.54904928365E+03  0.28693633310E+03 -0.82346578448E+03  0.12229855599E+04  0.65864270000E+03 0.  1.
    8880022    1    1    2    0    0 -0.54904928365E+03 -0.28693633310E+03  0.20509498702E+04  0.21479233222E+04  0.15294330000E+03 0.  0.
<mgrwt>
<rscale>  0 0.82875391E+03</rscale>
<asrwt>0</asrwt>
<pdfrwt beam="1">  1        2 0.35372253E+00 0.90421114E+03</pdfrwt>
<pdfrwt beam="2">  1       -2 0.16487883E+00 0.90421114E+03</pdfrwt>
<totfact> 0.10714254E+00</totfact>
</mgrwt>
</event>
<event>
 4    1  0.1998832E-007  0.1652464E+04  0.7818608E-02  0.8808862E-01
         -2   -1    0    0    0  501 -0.00000000000E+00  0.00000000000E+00  0.12501912506E+04  0.12501912506E+04  0.25500000000E-02 0.  1.
          2   -1    0    0  501    0  0.00000000000E+00 -0.00000000000E+00 -0.39599099017E+04  0.39599099017E+04  0.25500000000E-02 0. -1.
    8880023    1    1    2    0    0 -0.78753773184E+03  0.12948401734E+04  0.44117002055E+03  0.17103414709E+04  0.65864270000E+03 0.  0.
    8880022    1    1    2    0    0  0.78753773184E+03 -0.12948401734E+04 -0.31508886716E+04  0.34997596814E+04  0.15294330000E+03 0.  0.
<mgrwt>
<rscale>  0 0.16191612E+04</rscale>
<asrwt>0</asrwt>
<pdfrwt beam="1">  1        2 0.60921690E+00 0.16524639E+04</pdfrwt>
<pdfrwt beam="2">  1       -2 0.19233712E+00 0.16524639E+04</pdfrwt>
<totfact> 0.51544267E-02</totfact>
</mgrwt>
</event>
<event>
 4    1  0.1998832E-007  0.1368096E+04  0.7818608E-02  0.9008878E-01
          2   -1    0    0  501    0  0.00000000000E+00  0.00000000000E+00  0.12946191284E+04  0.12946191284E+04  0.25500000000E-02 0. -1.
         -2   -1    0    0    0  501 -0.00000000000E+00 -0.00000000000E+00 -0.14564762887E+04  0.14564762887E+04  0.25500000000E-02 0.  1.
    8880023    1    1    2    0    0 -0.11955431050E+04 -0.92483063353E+02 -0.56016747559E+03  0.14783349553E+04  0.65864270000E+03 0.  0.
    8880022    1    1    2    0    0  0.11955431050E+04  0.92483063353E+02  0.39831031526E+03  0.12727604618E+04  0.15294330000E+03 0.  0.
<mgrwt>
<rscale>  0 0.13264127E+04</rscale>
<asrwt>0</asrwt>
<pdfrwt beam="1">  1        2 0.19917217E+00 0.13680960E+04</pdfrwt>
<pdfrwt beam="2">  1       -2 0.22407327E+00 0.13680960E+04</pdfrwt>
<totfact> 0.14807083E+00</totfact>
</mgrwt>
</event>
<event>
 4    1  0.1998832E-007  0.1096581E+04  0.7818608E-02  0.9264872E-01
          2   -1    0    0  501    0  0.00000000000E+00  0.00000000000E+00  0.17105642342E+04  0.17105642342E+04  0.25500000000E-02 0. -1.
         -2   -1    0    0    0  501 -0.00000000000E+00 -0.00000000000E+00 -0.69143227869E+03  0.69143227870E+03  0.25500000000E-02 0.  1.
    8880023    1    1    2    0    0  0.87663704517E+03  0.13687459267E+02  0.10406281428E+04  0.15117529538E+04  0.65864270000E+03 0.  0.
    8880022    1    1    2    0    0 -0.87663704517E+03 -0.13687459267E+02 -0.21496187240E+02  0.89024355914E+03  0.15294330000E+03 0.  0.
<mgrwt>
<rscale>  0 0.10408212E+04</rscale>
<asrwt>0</asrwt>
<pdfrwt beam="1">  1        2 0.26316372E+00 0.10965811E+04</pdfrwt>
<pdfrwt beam="2">  1       -2 0.10637420E+00 0.10965811E+04</pdfrwt>
<totfact> 0.68006769E+00</totfact>
</mgrwt>
</event>
<event>
 4    1  0.1998832E-007  0.9309960E+03  0.7818608E-02  0.9478001E-01
          2   -1    0    0  501    0  0.00000000000E+00  0.00000000000E+00  0.12010600494E+04  0.12010600494E+04  0.25500000000E-02 0. -1.
         -2   -1    0    0    0  501 -0.00000000000E+00 -0.00000000000E+00 -0.22413036809E+04  0.22413036809E+04  0.25500000000E-02 0.  1.
    8880023    1    1    2    0    0 -0.34435915374E+03 -0.56067830482E+03 -0.20361900140E+04  0.22389335336E+04  0.65864270000E+03 0.  1.
    8880022    1    1    2    0    0  0.34435915374E+03  0.56067830482E+03  0.99594638254E+03  0.12034301966E+04  0.15294330000E+03 0.  0.
<mgrwt>
<rscale>  0 0.85925357E+03</rscale>
<asrwt>0</asrwt>
<pdfrwt beam="1">  1        2 0.18477847E+00 0.93099602E+03</pdfrwt>
<pdfrwt beam="2">  1       -2 0.34481595E+00 0.93099602E+03</pdfrwt>
<totfact> 0.32447915E-01</totfact>
</mgrwt>
</event>
<event>
 4    1  0.1998832E-007  0.9910519E+03  0.7818608E-02  0.9393359E-01
         -2   -1    0    0    0  501 -0.00000000000E+00  0.00000000000E+00  0.26028864202E+04  0.26028864202E+04  0.25500000000E-02 0.  1.
          2   -1    0    0  501    0  0.00000000000E+00 -0.00000000000E+00 -0.62474097284E+03  0.62474097284E+03  0.25500000000E-02 0. -1.
    8880023    1    1    2    0    0 -0.72090071251E+03 -0.16933965928E+03  0.22221078352E+04  0.24330941608E+04  0.65864270000E+03 0.  1.
    8880022    1    1    2    0    0  0.72090071251E+03  0.16933965928E+03 -0.24396238786E+03  0.79453323228E+03  0.15294330000E+03 0.  0.
<mgrwt>
<rscale>  0 0.92624217E+03</rscale>
<asrwt>0</asrwt>
<pdfrwt beam="1">  1        2 0.96113996E-01 0.99105195E+03</pdfrwt>
<pdfrwt beam="2">  1       -2 0.40044407E+00 0.99105195E+03</pdfrwt>
<totfact> 0.35518268E-01</totfact>
</mgrwt>
</event>
<event>
 4    1  0.1998832E-007  0.9547348E+03  0.7818608E-02  0.9443334E-01
         -2   -1    0    0    0  501 -0.00000000000E+00  0.00000000000E+00  0.56398206195E+03  0.56398206195E+03  0.25500000000E-02 0.  1.
          2   -1    0    0  501    0  0.00000000000E+00 -0.00000000000E+00 -0.16979414202E+04  0.16979414202E+04  0.25500000000E-02 0. -1.
    8880023    1    1    2    0    0  0.67323562655E+03  0.15640365803E+03 -0.35831155463E+02  0.95540692433E+03  0.65864270000E+03 0.  0.
    8880022    1    1    2    0    0 -0.67323562655E+03 -0.15640365803E+03 -0.10981282028E+04  0.13065165578E+04  0.15294330000E+03 0.  0.
<mgrwt>
<rscale>  0 0.88593653E+03</rscale>
<asrwt>0</asrwt>
<pdfrwt beam="1">  1        2 0.26122176E+00 0.95473479E+03</pdfrwt>
<pdfrwt beam="2">  1       -2 0.86766472E-01 0.95473479E+03</pdfrwt>
<totfact> 0.11337177E+01</totfact>
</mgrwt>
</event>
<event>
 4    1  0.1998832E-007  0.6929770E+03  0.7818608E-02  0.1002769E+00
         -2   -1    0    0    0  501 -0.00000000000E+00  0.00000000000E+00  0.15311858977E+04  0.15311858977E+04  0.25500000000E-02 0.  1.
          2   -1    0    0  501    0  0.00000000000E+00 -0.00000000000E+00 -0.49195866414E+03  0.49195866415E+03  0.25500000000E-02 0. -1.
    8880023    1    1    2    0    0  0.19907231164E+03  0.82323066003E+02  0.14081219083E+04  0.15694025575E+04  0.65864270000E+03 0.  1.
    8880022    1    1    2    0    0 -0.19907231164E+03 -0.82323066003E+02 -0.36889467476E+03  0.45374200438E+03  0.15294330000E+03 0.  0.
<mgrwt>
<rscale>  0 0.54452758E+03</rscale>
<asrwt>0</asrwt>
<pdfrwt beam="1">  1        2 0.75685949E-01 0.69297697E+03</pdfrwt>
<pdfrwt beam="2">  1       -2 0.23556706E+00 0.69297697E+03</pdfrwt>
<totfact> 0.51192880E+00</totfact>
</mgrwt>
</event>
<event>
 4    1  0.1998832E-007  0.1172524E+04  0.7818608E-02  0.9184305E-01
         -2   -1    0    0    0  501 -0.00000000000E+00  0.00000000000E+00  0.10320128277E+04  0.10320128277E+04  0.25500000000E-02 0.  1.
          2   -1    0    0  501    0  0.00000000000E+00 -0.00000000000E+00 -0.12625120321E+04  0.12625120321E+04  0.25500000000E-02 0. -1.
    8880023    1    1    2    0    0  0.27439455826E+02  0.96966435110E+03  0.25362613523E+03  0.11996409047E+04  0.65864270000E+03 0.  1.
    8880022    1    1    2    0    0 -0.27439455826E+02 -0.96966435110E+03 -0.48412533969E+03  0.10948839551E+04  0.15294330000E+03 0. -1.
<mgrwt>
<rscale>  0 0.11216905E+04</rscale>
<asrwt>0</asrwt>
<pdfrwt beam="1">  1        2 0.19423262E+00 0.11725238E+04</pdfrwt>
<pdfrwt beam="2">  1       -2 0.15877120E+00 0.11725238E+04</pdfrwt>
<totfact> 0.43592357E+00</totfact>
</mgrwt>
</event>
<event>
 4    1  0.1998832E-007  0.7975500E+03  0.7818608E-02  0.9716119E-01
         -2   -1    0    0    0  501 -0.00000000000E+00  0.00000000000E+00  0.32787451096E+03  0.32787451097E+03  0.25500000000E-02 0.  1.
          2   -1    0    0  501    0  0.00000000000E+00 -0.00000000000E+00 -0.24299422052E+04  0.24299422052E+04  0.25500000000E-02 0. -1.
    8880023    1    1    2    0    0  0.42503388606E+03  0.14704408721E+03 -0.23527409447E+03  0.83152863671E+03  0.65864270000E+03 0.  0.
    8880022    1    1    2    0    0 -0.42503388606E+03 -0.14704408721E+03 -0.18667935997E+04  0.19262880794E+04  0.15294330000E+03 0.  0.
<mgrwt>
<rscale>  0 0.70065147E+03</rscale>
<asrwt>0</asrwt>
<pdfrwt beam="1">  1        2 0.37383725E+00 0.79754998E+03</pdfrwt>
<pdfrwt beam="2">  1       -2 0.50442234E-01 0.79754998E+03</pdfrwt>
<totfact> 0.14739539E+01</totfact>
</mgrwt>
</event>
<event>
 4    1  0.1998832E-007  0.1339011E+04  0.7818608E-02  0.9032583E-01
          2   -1    0    0  501    0  0.00000000000E+00  0.00000000000E+00  0.24770197962E+04  0.24770197962E+04  0.25500000000E-02 0. -1.
         -2   -1    0    0    0  501 -0.00000000000E+00 -0.00000000000E+00 -0.65774129541E+03  0.65774129541E+03  0.25500000000E-02 0.  1.
    8880023    1    1    2    0    0 -0.91016906792E+03  0.72851324183E+03  0.69800721997E+03  0.15100210466E+04  0.65864270000E+03 0.  0.
    8880022    1    1    2    0    0  0.91016906792E+03 -0.72851324183E+03  0.11212712808E+04  0.16247400450E+04  0.15294330000E+03 0.  0.
<mgrwt>
<rscale>  0 0.12962011E+04</rscale>
<asrwt>0</asrwt>
<pdfrwt beam="1">  1        2 0.38107997E+00 0.13390106E+04</pdfrwt>
<pdfrwt beam="2">  1       -2 0.10119097E+00 0.13390106E+04</pdfrwt>
<totfact> 0.27910599E+00</totfact>
</mgrwt>
</event>
<event>
 4    1  0.1998832E-007  0.1217991E+04  0.7818608E-02  0.9139829E-01
         -2   -1    0    0    0  501 -0.00000000000E+00  0.00000000000E+00  0.12173821516E+04  0.12173821516E+04  0.25500000000E-02 0.  1.
          2   -1    0    0  501    0  0.00000000000E+00 -0.00000000000E+00 -0.19930424026E+04  0.19930424026E+04  0.25500000000E-02 0. -1.
    8880023    1    1    2    0    0  0.61119067921E+03 -0.82227641318E+03  0.70201329642E+03  0.14058184167E+04  0.65864270000E+03 0.  0.
    8880022    1    1    2    0    0 -0.61119067921E+03  0.82227641318E+03 -0.14776735474E+04  0.18046061375E+04  0.15294330000E+03 0.  0.
<mgrwt>
<rscale>  0 0.11696673E+04</rscale>
<asrwt>0</asrwt>
<pdfrwt beam="1">  1        2 0.30662191E+00 0.12179913E+04</pdfrwt>
<pdfrwt beam="2">  1       -2 0.18728956E+00 0.12179913E+04</pdfrwt>
<totfact> 0.10563714E+00</totfact>
</mgrwt>
</event>
<event>
 4    1  0.1998832E-007  0.1418267E+04  0.7818608E-02  0.8969617E-01
          2   -1    0    0  501    0  0.00000000000E+00  0.00000000000E+00  0.74470409786E+03  0.74470409786E+03  0.25500000000E-02 0. -1.
         -2   -1    0    0    0  501 -0.00000000000E+00 -0.00000000000E+00 -0.24468690579E+04  0.24468690579E+04  0.25500000000E-02 0.  1.
    8880023    1    1    2    0    0  0.34338632611E+03  0.12082042374E+04 -0.72486862951E+03  0.15927700350E+04  0.65864270000E+03 0.  0.
    8880022    1    1    2    0    0 -0.34338632611E+03 -0.12082042374E+04 -0.97729633049E+03  0.15988031207E+04  0.15294330000E+03 0. -1.
<mgrwt>
<rscale>  0 0.13783820E+04</rscale>
<asrwt>0</asrwt>
<pdfrwt beam="1">  1        2 0.11456986E+00 0.14182672E+04</pdfrwt>
<pdfrwt beam="2">  1       -2 0.37644139E+00 0.14182672E+04</pdfrwt>
<totfact> 0.38495507E-01</totfact>
</mgrwt>
</event>
<event>
 4    1  0.1998832E-007  0.1416453E+04  0.7818608E-02  0.8971003E-01
          2   -1    0    0  501    0  0.00000000000E+00  0.00000000000E+00  0.23271039913E+04  0.23271039913E+04  0.25500000000E-02 0. -1.
         -2   -1    0    0    0  501 -0.00000000000E+00 -0.00000000000E+00 -0.18899928820E+04  0.18899928820E+04  0.25500000000E-02 0.  1.
    8880023    1    1    2    0    0 -0.12241964284E+04 -0.27179480160E+03 -0.13973655080E+04  0.19897160297E+04  0.65864270000E+03 0.  1.
    8880022    1    1    2    0    0  0.12241964284E+04  0.27179480160E+03  0.18344766174E+04  0.22273808436E+04  0.15294330000E+03 0.  0.
<mgrwt>
<rscale>  0 0.13765059E+04</rscale>
<asrwt>0</asrwt>
<pdfrwt beam="1">  1        2 0.35801600E+00 0.14164531E+04</pdfrwt>
<pdfrwt beam="2">  1       -2 0.29076814E+00 0.14164531E+04</pdfrwt>
<totfact> 0.15014896E-01</totfact>
</mgrwt>
</event>
<event>
 4    1  0.1998832E-007  0.8394164E+03  0.7818608E-02  0.9631282E-01
          2   -1    0    0  501    0  0.00000000000E+00  0.00000000000E+00  0.20809329103E+03  0.20809329105E+03  0.25500000000E-02 0. -1.
         -2   -1    0    0    0  501 -0.00000000000E+00 -0.00000000000E+00 -0.23789827751E+04  0.23789827751E+04  0.25500000000E-02 0.  1.
    8880023    1    1    2    0    0  0.14669407967E+03  0.49929005295E+03 -0.15494550959E+04  0.17622233146E+04  0.65864270000E+03 0.  0.
    8880022    1    1    2    0    0 -0.14669407967E+03 -0.49929005295E+03 -0.62143438822E+03  0.82485275162E+03  0.15294330000E+03 0.  0.
<mgrwt>
<rscale>  0 0.75259907E+03</rscale>
<asrwt>0</asrwt>
<pdfrwt beam="1">  1        2 0.32014354E-01 0.83941641E+03</pdfrwt>
<pdfrwt beam="2">  1       -2 0.36599733E+00 0.83941641E+03</pdfrwt>
<totfact> 0.21205566E+00</totfact>
</mgrwt>
</event>
<event>
 4    1  0.2000156E-007  0.1664858E+04  0.7818608E-02  0.8801223E-01
         -2   -1    0    0    0  501 -0.00000000000E+00  0.00000000000E+00  0.21406335571E+04  0.21406335571E+04  0.25500000000E-02 0.  1.
          2   -1    0    0  501    0  0.00000000000E+00 -0.00000000000E+00 -0.26813079200E+04  0.26813079200E+04  0.25500000000E-02 0. -1.
    8880023    1    1    2    0    0 -0.13784271134E+04 -0.66172619625E+03  0.15179878670E+04  0.22530069322E+04  0.65864270000E+03 0.  0.
    8880022    1    1    2    0    0  0.13784271134E+04  0.66172619625E+03 -0.20586622300E+04  0.25689345449E+04  0.15294330000E+03 0.  0.
<mgrwt>
<rscale>  0 0.16318403E+04</rscale>
<asrwt>0</asrwt>
<pdfrwt beam="1">  1        2 0.41250891E+00 0.16648583E+04</pdfrwt>
<pdfrwt beam="2">  1       -2 0.32932824E+00 0.16648583E+04</pdfrwt>
<totfact> 0.52484686E-02</totfact>
</mgrwt>
</event>
<event>
 4    1  0.1998832E-007  0.9934737E+03  0.7818608E-02  0.9390146E-01
          2   -1    0    0  501    0  0.00000000000E+00  0.00000000000E+00  0.10783170807E+04  0.10783170807E+04  0.25500000000E-02 0. -1.
         -2   -1    0    0    0  501 -0.00000000000E+00 -0.00000000000E+00 -0.15870680982E+04  0.15870680982E+04  0.25500000000E-02 0.  1.
    8880023    1    1    2    0    0 -0.69234289919E+03  0.27173713218E+03 -0.12550776628E+04  0.16006904464E+04  0.65864270000E+03 0.  1.
    8880022    1    1    2    0    0  0.69234289919E+03 -0.27173713218E+03  0.74632664533E+03  0.10646947326E+04  0.15294330000E+03 0.  0.
<mgrwt>
<rscale>  0 0.92891059E+03</rscale>
<asrwt>0</asrwt>
<pdfrwt beam="1">  1        2 0.16589494E+00 0.99347369E+03</pdfrwt>
<pdfrwt beam="2">  1       -2 0.24416432E+00 0.99347369E+03</pdfrwt>
<totfact> 0.15639367E+00</totfact>
</mgrwt>
</event>
<event>
 4    1  0.1998832E-007  0.8835074E+03  0.7818608E-02  0.9553044E-01
          2   -1    0    0  501    0  0.00000000000E+00  0.00000000000E+00  0.60069708031E+03  0.60069708031E+03  0.25500000000E-02 0. -1.
         -2   -1    0    0    0  501 -0.00000000000E+00 -0.00000000000E+00 -0.12500787345E+04  0.12500787345E+04  0.25500000000E-02 0.  1.
    8880023    1    1    2    0    0  0.93439507337E+02 -0.58141572366E+03 -0.83400311296E+03  0.12149677296E+04  0.65864270000E+03 0.  1.
    8880022    1    1    2    0    0 -0.93439507337E+02  0.58141572366E+03  0.18462145872E+03  0.63580808527E+03  0.15294330000E+03 0. -1.
<mgrwt>
<rscale>  0 0.80483591E+03</rscale>
<asrwt>0</asrwt>
<pdfrwt beam="1">  1        2 0.92414935E-01 0.88350744E+03</pdfrwt>
<pdfrwt beam="2">  1       -2 0.19231981E+00 0.88350744E+03</pdfrwt>
<totfact> 0.74409703E+00</totfact>
</mgrwt>
</event>
<event>
 4    1  0.1998832E-007  0.7448135E+03  0.7818608E-02  0.9846141E-01
          2   -1    0    0  501    0  0.00000000000E+00  0.00000000000E+00  0.22086441712E+04  0.22086441712E+04  0.25500000000E-02 0. -1.
         -2   -1    0    0    0  501 -0.00000000000E+00 -0.00000000000E+00 -0.29142942075E+03  0.29142942076E+03  0.25500000000E-02 0.  1.
    8880023    1    1    2    0    0 -0.43202234334E+02 -0.34506602478E+03  0.24323310776E+03  0.78352380020E+03  0.65864270000E+03 0.  1.
    8880022    1    1    2    0    0  0.43202234334E+02  0.34506602478E+03  0.16739816427E+04  0.17165497918E+04  0.15294330000E+03 0.  0.
<mgrwt>
<rscale>  0 0.62944058E+03</rscale>
<asrwt>0</asrwt>
<pdfrwt beam="1">  1        2 0.33979141E+00 0.74481353E+03</pdfrwt>
<pdfrwt beam="2">  1       -2 0.44835295E-01 0.74481353E+03</pdfrwt>
<totfact> 0.25017932E+01</totfact>
</mgrwt>
</event>
<event>
 4    1  0.1998832E-007  0.7037427E+03  0.7818608E-02  0.9982015E-01
         -2   -1    0    0    0  501 -0.00000000000E+00  0.00000000000E+00  0.22894160055E+03  0.22894160056E+03  0.25500000000E-02 0.  1.
          2   -1    0    0  501    0  0.00000000000E+00 -0.00000000000E+00 -0.15384149832E+04  0.15384149832E+04  0.25500000000E-02 0. -1.
    8880023    1    1    2    0    0  0.11334044593E+03  0.22044844810E+03 -0.39370649639E+03  0.80638612743E+03  0.65864270000E+03 0.  1.
    8880022    1    1    2    0    0 -0.11334044593E+03 -0.22044844810E+03 -0.91576688629E+03  0.96097045636E+03  0.15294330000E+03 0.  0.
<mgrwt>
<rscale>  0 0.56445907E+03</rscale>
<asrwt>0</asrwt>
<pdfrwt beam="1">  1        2 0.23667922E+00 0.70374270E+03</pdfrwt>
<pdfrwt beam="2">  1       -2 0.35221786E-01 0.70374270E+03</pdfrwt>
<totfact> 0.93557897E+01</totfact>
</mgrwt>
</event>
<event>
 4    1  0.2536728E-007  0.8717617E+03  0.7818608E-02  0.9572975E-01
          2   -1    0    0  501    0  0.00000000000E+00  0.00000000000E+00  0.32857678303E+04  0.32857678303E+04  0.25500000000E-02 0. -1.
         -2   -1    0    0    0  501 -0.00000000000E+00 -0.00000000000E+00 -0.14029915786E+04  0.14029915786E+04  0.25500000000E-02 0.  1.
    8880023    1    1    2    0    0  0.12407413927E+03 -0.55746205001E+03 -0.12370753536E+04  0.15133816327E+04  0.65864270000E+03 0.  0.
    8880022    1    1    2    0    0 -0.12407413927E+03  0.55746205001E+03  0.31198516053E+04  0.31753777762E+04  0.15294330000E+03 0. -1.
<mgrwt>
<rscale>  0 0.79111026E+03</rscale>
<asrwt>0</asrwt>
<pdfrwt beam="1">  1        2 0.50550273E+00 0.87176174E+03</pdfrwt>
<pdfrwt beam="2">  1       -2 0.21584486E+00 0.87176174E+03</pdfrwt>
<totfact> 0.12629171E-01</totfact>
</mgrwt>
</event>
<event>
 4    1  0.1998832E-007  0.7122303E+03  0.7818608E-02  0.9949810E-01
          2   -1    0    0  501    0  0.00000000000E+00  0.00000000000E+00  0.99405304068E+03  0.99405304068E+03  0.25500000000E-02 0. -1.
         -2   -1    0    0    0  501 -0.00000000000E+00 -0.00000000000E+00 -0.32724297247E+03  0.32724297248E+03  0.25500000000E-02 0.  1.
    8880023    1    1    2    0    0  0.26743565299E+03  0.44045514175E+02  0.16544441554E+03  0.73119347419E+03  0.65864270000E+03 0.  0.
    8880022    1    1    2    0    0 -0.26743565299E+03 -0.44045514175E+02  0.50136565267E+03  0.59010253897E+03  0.15294330000E+03 0. -1.
<mgrwt>
<rscale>  0 0.57906825E+03</rscale>
<asrwt>0</asrwt>
<pdfrwt beam="1">  1        2 0.15293124E+00 0.71223033E+03</pdfrwt>
<pdfrwt beam="2">  1       -2 0.50345072E-01 0.71223033E+03</pdfrwt>
<totfact> 0.96390836E+01</totfact>
</mgrwt>
</event>
<event>
 4    1  0.1998832E-007  0.7086628E+03  0.7818608E-02  0.9963000E-01
          2   -1    0    0  501    0  0.00000000000E+00  0.00000000000E+00  0.13477338883E+04  0.13477338883E+04  0.25500000000E-02 0. -1.
         -2   -1    0    0    0  501 -0.00000000000E+00 -0.00000000000E+00 -0.61011660957E+03  0.61011660958E+03  0.25500000000E-02 0.  1.
    8880023    1    1    2    0    0 -0.24683729249E+03 -0.86395281386E+02 -0.37706329026E+03  0.80273266082E+03  0.65864270000E+03 0.  1.
    8880022    1    1    2    0    0  0.24683729249E+03  0.86395281386E+02  0.11146805690E+04  0.11551178371E+04  0.15294330000E+03 0.  0.
<mgrwt>
<rscale>  0 0.57302804E+03</rscale>
<asrwt>0</asrwt>
<pdfrwt beam="1">  1        2 0.20734367E+00 0.70866283E+03</pdfrwt>
<pdfrwt beam="2">  1       -2 0.93864094E-01 0.70866283E+03</pdfrwt>
<totfact> 0.15266845E+01</totfact>
</mgrwt>
</event>
<event>
 4    1  0.1998832E-007  0.8103850E+03  0.7818608E-02  0.9688776E-01
         -2   -1    0    0    0  501 -0.00000000000E+00  0.00000000000E+00  0.10621279529E+04  0.10621279529E+04  0.25500000000E-02 0.  1.
          2   -1    0    0  501    0  0.00000000000E+00 -0.00000000000E+00 -0.46957651831E+03  0.46957651832E+03  0.25500000000E-02 0. -1.
    8880023    1    1    2    0    0 -0.38444435908E+03 -0.27407331920E+03  0.64072680156E+03  0.10330801953E+04  0.65864270000E+03 0.  1.
    8880022    1    1    2    0    0  0.38444435908E+03  0.27407331920E+03 -0.48175366941E+02  0.49862427590E+03  0.15294330000E+03 0.  0.
<mgrwt>
<rscale>  0 0.71689040E+03</rscale>
<asrwt>0</asrwt>
<pdfrwt beam="1">  1        2 0.72242542E-01 0.81038500E+03</pdfrwt>
<pdfrwt beam="2">  1       -2 0.16340430E+00 0.81038500E+03</pdfrwt>
<totfact> 0.15892532E+01</totfact>
</mgrwt>
</event>
<event>
 4    1  0.1998832E-007  0.1019049E+04  0.7818608E-02  0.9357049E-01
          2   -1    0    0  501    0  0.00000000000E+00  0.00000000000E+00  0.16276863117E+04  0.16276863117E+04  0.25500000000E-02 0. -1.
         -2   -1    0    0    0  501 -0.00000000000E+00 -0.00000000000E+00 -0.72180413360E+03  0.72180413360E+03  0.25500000000E-02 0.  1.
    8880023    1    1    2    0    0 -0.73074245313E+03 -0.26583061518E+03 -0.14921744398E+03  0.10299157736E+04  0.65864270000E+03 0.  0.
    8880022    1    1    2    0    0  0.73074245313E+03  0.26583061518E+03  0.10550996221E+04  0.13195746717E+04  0.15294330000E+03 0.  0.
<mgrwt>
<rscale>  0 0.95696237E+03</rscale>
<asrwt>0</asrwt>
<pdfrwt beam="1">  1        2 0.25041328E+00 0.10190489E+04</pdfrwt>
<pdfrwt beam="2">  1       -2 0.11104679E+00 0.10190489E+04</pdfrwt>
<totfact> 0.68652688E+00</totfact>
</mgrwt>
</event>
<event>
 4    1  0.1998832E-007  0.1069403E+04  0.7818608E-02  0.9295912E-01
          2   -1    0    0  501    0  0.00000000000E+00  0.00000000000E+00  0.19886319367E+04  0.19886319367E+04  0.25500000000E-02 0. -1.
         -2   -1    0    0    0  501 -0.00000000000E+00 -0.00000000000E+00 -0.73525213036E+03  0.73525213037E+03  0.25500000000E-02 0.  1.
    8880023    1    1    2    0    0  0.37580197399E+03  0.75404641960E+03 -0.15002951569E+03  0.10798760060E+04  0.65864270000E+03 0.  1.
    8880022    1    1    2    0    0 -0.37580197399E+03 -0.75404641960E+03  0.14034093220E+04  0.16440080610E+04  0.15294330000E+03 0.  0.
<mgrwt>
<rscale>  0 0.10116011E+04</rscale>
<asrwt>0</asrwt>
<pdfrwt beam="1">  1        2 0.30594337E+00 0.10694033E+04</pdfrwt>
<pdfrwt beam="2">  1       -2 0.11311572E+00 0.10694033E+04</pdfrwt>
<totfact> 0.41246524E+00</totfact>
</mgrwt>
</event>
<event>
 4    1  0.1998832E-007  0.9265034E+03  0.7818608E-02  0.9484759E-01
         -2   -1    0    0    0  501 -0.00000000000E+00  0.00000000000E+00  0.24486895757E+04  0.24486895757E+04  0.25500000000E-02 0.  1.
          2   -1    0    0  501    0  0.00000000000E+00 -0.00000000000E+00 -0.63864794966E+03  0.63864794967E+03  0.25500000000E-02 0. -1.
    8880023    1    1    2    0    0  0.56613049373E+03  0.32263688467E+03  0.21467109132E+04  0.23381138224E+04  0.65864270000E+03 0.  1.
    8880022    1    1    2    0    0 -0.56613049373E+03 -0.32263688467E+03 -0.33666928713E+03  0.74922370303E+03  0.15294330000E+03 0.  0.
<mgrwt>
<rscale>  0 0.85416896E+03</rscale>
<asrwt>0</asrwt>
<pdfrwt beam="1">  1        2 0.98253530E-01 0.92650337E+03</pdfrwt>
<pdfrwt beam="2">  1       -2 0.37672147E+00 0.92650337E+03</pdfrwt>
<totfact> 0.49662397E-01</totfact>
</mgrwt>
</event>
<event>
 4    1  0.1998832E-007  0.6658201E+03  0.7818608E-02  0.1018855E+00
          2   -1    0    0  501    0  0.00000000000E+00  0.00000000000E+00  0.13229419776E+04  0.13229419776E+04  0.25500000000E-02 0. -1.
         -2   -1    0    0    0  501 -0.00000000000E+00 -0.00000000000E+00 -0.47340570937E+03  0.47340570937E+03  0.25500000000E-02 0.  1.
    8880023    1    1    2    0    0  0.38070366620E+02  0.89759904039E+02 -0.22790604815E+03  0.70374538452E+03  0.65864270000E+03 0.  1.
    8880022    1    1    2    0    0 -0.38070366620E+02 -0.89759904039E+02  0.10774423164E+04  0.10926023024E+04  0.15294330000E+03 0.  0.
<mgrwt>
<rscale>  0 0.48102052E+03</rscale>
<asrwt>0</asrwt>
<pdfrwt beam="1">  1        2 0.20352953E+00 0.66582010E+03</pdfrwt>
<pdfrwt beam="2">  1       -2 0.72831648E-01 0.66582010E+03</pdfrwt>
<totfact> 0.28151178E+01</totfact>
</mgrwt>
</event>
<event>
 4    1  0.1998832E-007  0.9372827E+03  0.7818608E-02  0.9468653E-01
         -2   -1    0    0    0  501 -0.00000000000E+00  0.00000000000E+00  0.48992377833E+03  0.48992377833E+03  0.25500000000E-02 0.  1.
          2   -1    0    0  501    0  0.00000000000E+00 -0.00000000000E+00 -0.15555018563E+04  0.15555018563E+04  0.25500000000E-02 0. -1.
    8880023    1    1    2    0    0 -0.52566558480E+02 -0.66477470102E+03 -0.97978305644E+03  0.13559032746E+04  0.65864270000E+03 0.  0.
    8880022    1    1    2    0    0  0.52566558480E+02  0.66477470102E+03 -0.85795021504E+02  0.68952235998E+03  0.15294330000E+03 0.  0.
<mgrwt>
<rscale>  0 0.86634923E+03</rscale>
<asrwt>0</asrwt>
<pdfrwt beam="1">  1        2 0.23930798E+00 0.93728270E+03</pdfrwt>
<pdfrwt beam="2">  1       -2 0.75372890E-01 0.93728270E+03</pdfrwt>
<totfact> 0.18727682E+01</totfact>
</mgrwt>
</event>
<event>
 4    1  0.1998832E-007  0.8218141E+03  0.7818608E-02  0.9665475E-01
         -2   -1    0    0    0  501 -0.00000000000E+00  0.00000000000E+00  0.48336434725E+03  0.48336434725E+03  0.25500000000E-02 0.  1.
          2   -1    0    0  501    0  0.00000000000E+00 -0.00000000000E+00 -0.95267678645E+03  0.95267678645E+03  0.25500000000E-02 0. -1.
    8880023    1    1    2    0    0 -0.15022233082E+03 -0.46797592168E+03 -0.16545407151E+03  0.83830392340E+03  0.65864270000E+03 0.  0.
    8880022    1    1    2    0    0  0.15022233082E+03  0.46797592168E+03 -0.30385836769E+03  0.59773721030E+03  0.15294330000E+03 0.  0.
<mgrwt>
<rscale>  0 0.73110155E+03</rscale>
<asrwt>0</asrwt>
<pdfrwt beam="1">  1        2 0.14656566E+00 0.82181410E+03</pdfrwt>
<pdfrwt beam="2">  1       -2 0.74363746E-01 0.82181410E+03</pdfrwt>
<totfact> 0.44402123E+01</totfact>
</mgrwt>
</event>
<event>
 4    1  0.1998832E-007  0.6675602E+03  0.7818608E-02  0.1017476E+00
         -2   -1    0    0    0  501 -0.00000000000E+00  0.00000000000E+00  0.13378006060E+03  0.13378006062E+03  0.25500000000E-02 0.  1.
          2   -1    0    0  501    0  0.00000000000E+00 -0.00000000000E+00 -0.16201137234E+04  0.16201137234E+04  0.25500000000E-02 0. -1.
    8880023    1    1    2    0    0 -0.82979578524E+02  0.70290699938E+02 -0.79783592172E+03  0.10402782114E+04  0.65864270000E+03 0.  1.
    8880022    1    1    2    0    0  0.82979578524E+02 -0.70290699938E+02 -0.68849774109E+03  0.71361557259E+03  0.15294330000E+03 0.  0.
<mgrwt>
<rscale>  0 0.48608641E+03</rscale>
<asrwt>0</asrwt>
<pdfrwt beam="1">  1        2 0.24924825E+00 0.66756018E+03</pdfrwt>
<pdfrwt beam="2">  1       -2 0.20581549E-01 0.66756018E+03</pdfrwt>
<totfact> 0.22554443E+02</totfact>
</mgrwt>
</event>
<event>
 4    1  0.1998832E-007  0.1611531E+04  0.7818608E-02  0.8834648E-01
         -2   -1    0    0    0  501 -0.00000000000E+00  0.00000000000E+00  0.16151608266E+04  0.16151608266E+04  0.25500000000E-02 0.  1.
          2   -1    0    0  501    0  0.00000000000E+00 -0.00000000000E+00 -0.17743515429E+04  0.17743515429E+04  0.25500000000E-02 0. -1.
    8880023    1    1    2    0    0  0.13243119608E+03 -0.14648151754E+04 -0.77437728250E+03  0.17879295013E+04  0.65864270000E+03 0.  1.
    8880022    1    1    2    0    0 -0.13243119608E+03  0.14648151754E+04  0.61518656621E+03  0.16015828683E+04  0.15294330000E+03 0.  0.
<mgrwt>
<rscale>  0 0.15772497E+04</rscale>
<asrwt>0</asrwt>
<pdfrwt beam="1">  1        2 0.27297716E+00 0.16115309E+04</pdfrwt>
<pdfrwt beam="2">  1       -2 0.24848628E+00 0.16115309E+04</pdfrwt>
<totfact> 0.54332764E-01</totfact>
</mgrwt>
</event>
<event>
 4    1  0.1998832E-007  0.7456460E+03  0.7818608E-02  0.9843796E-01
          2   -1    0    0  501    0  0.00000000000E+00  0.00000000000E+00  0.52887204636E+03  0.52887204637E+03  0.25500000000E-02 0. -1.
         -2   -1    0    0    0  501 -0.00000000000E+00 -0.00000000000E+00 -0.12220398037E+04  0.12220398037E+04  0.25500000000E-02 0.  1.
    8880023    1    1    2    0    0 -0.16019883634E+03 -0.31066726073E+03 -0.10096901126E+04  0.12551741488E+04  0.65864270000E+03 0.  1.
    8880022    1    1    2    0    0  0.16019883634E+03  0.31066726073E+03  0.31652235527E+03  0.49573770127E+03  0.15294330000E+03 0.  0.
<mgrwt>
<rscale>  0 0.63064263E+03</rscale>
<asrwt>0</asrwt>
<pdfrwt beam="1">  1        2 0.81364931E-01 0.74564604E+03</pdfrwt>
<pdfrwt beam="2">  1       -2 0.18800612E+00 0.74564604E+03</pdfrwt>
<totfact> 0.93869357E+00</totfact>
</mgrwt>
</event>
<event>
 4    1  0.1998832E-007  0.6743065E+03  0.7818608E-02  0.1012747E+00
          2   -1    0    0  501    0  0.00000000000E+00  0.00000000000E+00  0.13835986868E+04  0.13835986868E+04  0.25500000000E-02 0. -1.
         -2   -1    0    0    0  501 -0.00000000000E+00 -0.00000000000E+00 -0.37524940187E+03  0.37524940188E+03  0.25500000000E-02 0.  1.
    8880023    1    1    2    0    0  0.82833666265E+02  0.11839624647E+03 -0.53431965194E+02  0.67642018643E+03  0.65864270000E+03 0.  1.
    8880022    1    1    2    0    0 -0.82833666265E+02 -0.11839624647E+03  0.10617812501E+04  0.10824279022E+04  0.15294330000E+03 0.  0.
<mgrwt>
<rscale>  0 0.50397341E+03</rscale>
<asrwt>0</asrwt>
<pdfrwt beam="1">  1        2 0.21286134E+00 0.67430653E+03</pdfrwt>
<pdfrwt beam="2">  1       -2 0.57730678E-01 0.67430653E+03</pdfrwt>
<totfact> 0.42751955E+01</totfact>
</mgrwt>
</event>
<event>
 4    1  0.1998832E-007  0.8276643E+03  0.7818608E-02  0.9653894E-01
          2   -1    0    0  501    0  0.00000000000E+00  0.00000000000E+00  0.17698422081E+04  0.17698422081E+04  0.25500000000E-02 0. -1.
         -2   -1    0    0    0  501 -0.00000000000E+00 -0.00000000000E+00 -0.54088832846E+03  0.54088832847E+03  0.25500000000E-02 0.  1.
    8880023    1    1    2    0    0 -0.46540000267E+03  0.18606662950E+03 -0.14496811950E+03  0.84026419359E+03  0.65864270000E+03 0.  1.
    8880022    1    1    2    0    0  0.46540000267E+03 -0.18606662950E+03  0.13739219991E+04  0.14704663429E+04  0.15294330000E+03 0.  0.
<mgrwt>
<rscale>  0 0.73829534E+03</rscale>
<asrwt>0</asrwt>
<pdfrwt beam="1">  1        2 0.27228342E+00 0.82766428E+03</pdfrwt>
<pdfrwt beam="2">  1       -2 0.83213588E-01 0.82766428E+03</pdfrwt>
<totfact> 0.11558785E+01</totfact>
</mgrwt>
</event>
<event>
 4    1  0.1998832E-007  0.9509028E+03  0.7818608E-02  0.9448816E-01
         -2   -1    0    0    0  501 -0.00000000000E+00  0.00000000000E+00  0.91860175585E+03  0.91860175585E+03  0.25500000000E-02 0.  1.
          2   -1    0    0  501    0  0.00000000000E+00 -0.00000000000E+00 -0.14093173410E+04  0.14093173410E+04  0.25500000000E-02 0. -1.
    8880023    1    1    2    0    0  0.24624626304E+02 -0.68541919037E+03  0.53005504362E+03  0.10886571519E+04  0.65864270000E+03 0.  1.
    8880022    1    1    2    0    0 -0.24624626304E+02  0.68541919037E+03 -0.10207706287E+04  0.12392619450E+04  0.15294330000E+03 0.  0.
<mgrwt>
<rscale>  0 0.88164894E+03</rscale>
<asrwt>0</asrwt>
<pdfrwt beam="1">  1        2 0.21681805E+00 0.95090275E+03</pdfrwt>
<pdfrwt beam="2">  1       -2 0.14132335E+00 0.95090275E+03</pdfrwt>
<totfact> 0.49990533E+00</totfact>
</mgrwt>
</event>
<event>
 4    1  0.1998832E-007  0.7590383E+03  0.7818608E-02  0.9807604E-01
         -2   -1    0    0    0  501 -0.00000000000E+00  0.00000000000E+00  0.39688263076E+03  0.39688263077E+03  0.25500000000E-02 0.  1.
          2   -1    0    0  501    0  0.00000000000E+00 -0.00000000000E+00 -0.11056392022E+04  0.11056392022E+04  0.25500000000E-02 0. -1.
    8880023    1    1    2    0    0 -0.33248799420E+03 -0.17827114201E+03 -0.93491698300E+02  0.76477432637E+03  0.65864270000E+03 0.  0.
    8880022    1    1    2    0    0  0.33248799420E+03  0.17827114201E+03 -0.61526487310E+03  0.73774750656E+03  0.15294330000E+03 0.  0.
<mgrwt>
<rscale>  0 0.64956076E+03</rscale>
<asrwt>0</asrwt>
<pdfrwt beam="1">  1        2 0.17009834E+00 0.75903826E+03</pdfrwt>
<pdfrwt beam="2">  1       -2 0.61058867E-01 0.75903826E+03</pdfrwt>
<totfact> 0.54776015E+01</totfact>
</mgrwt>
</event>
<event>
 4    1  0.1998832E-007  0.8696236E+03  0.7818608E-02  0.9576669E-01
          2   -1    0    0  501    0  0.00000000000E+00  0.00000000000E+00  0.99886964599E+03  0.99886964599E+03  0.25500000000E-02 0. -1.
         -2   -1    0    0    0  501 -0.00000000000E+00 -0.00000000000E+00 -0.14754507246E+04  0.14754507246E+04  0.25500000000E-02 0.  1.
    8880023    1    1    2    0    0  0.34182912275E+03  0.45341800433E+03 -0.12375895274E+04  0.15125716778E+04  0.65864270000E+03 0.  1.
    8880022    1    1    2    0    0 -0.34182912275E+03 -0.45341800433E+03  0.76100844885E+03  0.96174869277E+03  0.15294330000E+03 0.  0.
<mgrwt>
<rscale>  0 0.78859825E+03</rscale>
<asrwt>0</asrwt>
<pdfrwt beam="1">  1        2 0.15367225E+00 0.86962362E+03</pdfrwt>
<pdfrwt beam="2">  1       -2 0.22699242E+00 0.86962362E+03</pdfrwt>
<totfact> 0.22775109E+00</totfact>
</mgrwt>
</event>
<event>
 4    1  0.1998832E-007  0.8119882E+03  0.7818608E-02  0.9685450E-01
         -2   -1    0    0    0  501 -0.00000000000E+00  0.00000000000E+00  0.30772944340E+04  0.30772944340E+04  0.25500000000E-02 0.  1.
          2   -1    0    0  501    0  0.00000000000E+00 -0.00000000000E+00 -0.93992313221E+03  0.93992313221E+03  0.25500000000E-02 0. -1.
    8880023    1    1    2    0    0 -0.88368924972E+02 -0.46658923110E+03  0.29521744474E+04  0.30618064523E+04  0.65864270000E+03 0.  0.
    8880022    1    1    2    0    0  0.88368924972E+02  0.46658923110E+03 -0.81480314558E+03  0.95541111389E+03  0.15294330000E+03 0.  0.
<mgrwt>
<rscale>  0 0.71889712E+03</rscale>
<asrwt>0</asrwt>
<pdfrwt beam="1">  1        2 0.14460356E+00 0.81198817E+03</pdfrwt>
<pdfrwt beam="2">  1       -2 0.47342992E+00 0.81198817E+03</pdfrwt>
<totfact> 0.70735454E-02</totfact>
</mgrwt>
</event>
<event>
 4    1  0.1998832E-007  0.7633842E+03  0.7818608E-02  0.9796424E-01
          2   -1    0    0  501    0  0.00000000000E+00  0.00000000000E+00  0.58975510849E+03  0.58975510850E+03  0.25500000000E-02 0. -1.
         -2   -1    0    0    0  501 -0.00000000000E+00 -0.00000000000E+00 -0.67216086600E+03  0.67216086601E+03  0.25500000000E-02 0.  1.
    8880023    1    1    2    0    0  0.12445938726E+03 -0.36531498718E+03 -0.26544741077E+03  0.80821885222E+03  0.65864270000E+03 0.  1.
    8880022    1    1    2    0    0 -0.12445938726E+03  0.36531498718E+03  0.18304165325E+03  0.45369712229E+03  0.15294330000E+03 0.  0.
<mgrwt>
<rscale>  0 0.65554819E+03</rscale>
<asrwt>0</asrwt>
<pdfrwt beam="1">  1        2 0.90731555E-01 0.76338417E+03</pdfrwt>
<pdfrwt beam="2">  1       -2 0.10340936E+00 0.76338417E+03</pdfrwt>
<totfact> 0.39055158E+01</totfact>
</mgrwt>
</event>
<event>
 4    1  0.1998832E-007  0.9990194E+03  0.7818608E-02  0.9382842E-01
          2   -1    0    0  501    0  0.00000000000E+00  0.00000000000E+00  0.21987687350E+04  0.21987687350E+04  0.25500000000E-02 0. -1.
         -2   -1    0    0    0  501 -0.00000000000E+00 -0.00000000000E+00 -0.73267463164E+03  0.73267463165E+03  0.25500000000E-02 0.  1.
    8880023    1    1    2    0    0 -0.21070410581E+02 -0.75085651703E+03 -0.26896311793E+03  0.10345921111E+04  0.65864270000E+03 0.  1.
    8880022    1    1    2    0    0  0.21070410581E+02  0.75085651703E+03  0.17350572213E+04  0.18968512555E+04  0.15294330000E+03 0.  0.
<mgrwt>
<rscale>  0 0.93501290E+03</rscale>
<asrwt>0</asrwt>
<pdfrwt beam="1">  1        2 0.33827211E+00 0.99901936E+03</pdfrwt>
<pdfrwt beam="2">  1       -2 0.11271918E+00 0.99901936E+03</pdfrwt>
<totfact> 0.32105655E+00</totfact>
</mgrwt>
</event>
<event>
 4    1  0.1998832E-007  0.1528859E+04  0.7818608E-02  0.8889522E-01
          2   -1    0    0  501    0  0.00000000000E+00  0.00000000000E+00  0.15593127776E+04  0.15593127776E+04  0.25500000000E-02 0. -1.
         -2   -1    0    0    0  501 -0.00000000000E+00 -0.00000000000E+00 -0.21186306331E+04  0.21186306331E+04  0.25500000000E-02 0.  1.
    8880023    1    1    2    0    0 -0.11809589144E+04 -0.71339677622E+03 -0.13848855455E+04  0.20628419954E+04  0.65864270000E+03 0.  1.
    8880022    1    1    2    0    0  0.11809589144E+04  0.71339677622E+03  0.82556768999E+03  0.16151014153E+04  0.15294330000E+03 0.  0.
<mgrwt>
<rscale>  0 0.14924008E+04</rscale>
<asrwt>0</asrwt>
<pdfrwt beam="1">  1        2 0.23989427E+00 0.15288588E+04</pdfrwt>
<pdfrwt beam="2">  1       -2 0.32594317E+00 0.15288588E+04</pdfrwt>
<totfact> 0.24251402E-01</totfact>
</mgrwt>
</event>
<event>
 4    1  0.1998832E-007  0.1378812E+04  0.7818608E-02  0.9000324E-01
          2   -1    0    0  501    0  0.00000000000E+00  0.00000000000E+00  0.19110404644E+04  0.19110404644E+04  0.25500000000E-02 0. -1.
         -2   -1    0    0    0  501 -0.00000000000E+00 -0.00000000000E+00 -0.10370144686E+04  0.10370144686E+04  0.25500000000E-02 0.  1.
    8880023    1    1    2    0    0 -0.21014026716E+03  0.11929600365E+04 -0.10537028543E+03  0.13828324859E+04  0.65864270000E+03 0.  0.
    8880022    1    1    2    0    0  0.21014026716E+03 -0.11929600365E+04  0.97939628121E+03  0.15652224472E+04  0.15294330000E+03 0.  0.
<mgrwt>
<rscale>  0 0.13375276E+04</rscale>
<asrwt>0</asrwt>
<pdfrwt beam="1">  1        2 0.29400623E+00 0.13788121E+04</pdfrwt>
<pdfrwt beam="2">  1       -2 0.15954069E+00 0.13788121E+04</pdfrwt>
<totfact> 0.18138617E+00</totfact>
</mgrwt>
</event>
<event>
 4    1  0.1998832E-007  0.6998673E+03  0.7818608E-02  0.9997752E-01
         -2   -1    0    0    0  501 -0.00000000000E+00  0.00000000000E+00  0.13837762787E+03  0.13837762789E+03  0.25500000000E-02 0.  1.
          2   -1    0    0  501    0  0.00000000000E+00 -0.00000000000E+00 -0.24257434612E+04  0.24257434612E+04  0.25500000000E-02 0. -1.
    8880023    1    1    2    0    0 -0.23622086966E+03 -0.14272505373E+02 -0.85796160635E+03  0.11072092521E+04  0.65864270000E+03 0.  1.
    8880022    1    1    2    0    0  0.23622086966E+03  0.14272505373E+02 -0.14294042270E+04  0.14569118370E+04  0.15294330000E+03 0.  0.
<mgrwt>
<rscale>  0 0.55748907E+03</rscale>
<asrwt>0</asrwt>
<pdfrwt beam="1">  1        2 0.37319127E+00 0.69986728E+03</pdfrwt>
<pdfrwt beam="2">  1       -2 0.21288868E-01 0.69986728E+03</pdfrwt>
<totfact> 0.76654736E+01</totfact>
</mgrwt>
</event>
<event>
 4    1  0.1998832E-007  0.8539940E+03  0.7818608E-02  0.9604337E-01
         -2   -1    0    0    0  501 -0.00000000000E+00  0.00000000000E+00  0.35862915006E+04  0.35862915006E+04  0.25500000000E-02 0.  1.
          2   -1    0    0  501    0  0.00000000000E+00 -0.00000000000E+00 -0.20633848123E+03  0.20633848125E+03  0.25500000000E-02 0. -1.
    8880023    1    1    2    0    0 -0.33343540947E+03  0.42932087835E+03  0.29817901376E+04  0.31016734548E+04  0.65864270000E+03 0.  0.
    8880022    1    1    2    0    0  0.33343540947E+03 -0.42932087835E+03  0.39816288168E+03  0.69095652702E+03  0.15294330000E+03 0.  0.
<mgrwt>
<rscale>  0 0.77009760E+03</rscale>
<asrwt>0</asrwt>
<pdfrwt beam="1">  1        2 0.31744384E-01 0.85399403E+03</pdfrwt>
<pdfrwt beam="2">  1       -2 0.55173712E+00 0.85399403E+03</pdfrwt>
<totfact> 0.14216471E-01</totfact>
</mgrwt>
</event>
<event>
 4    1  0.1998832E-007  0.1196502E+04  0.7818608E-02  0.9160530E-01
          2   -1    0    0  501    0  0.00000000000E+00  0.00000000000E+00  0.34209493340E+04  0.34209493340E+04  0.25500000000E-02 0. -1.
         -2   -1    0    0    0  501 -0.00000000000E+00 -0.00000000000E+00 -0.47232530612E+03  0.47232530613E+03  0.25500000000E-02 0.  1.
    8880023    1    1    2    0    0 -0.36963924407E+03  0.92799465224E+03  0.25315133494E+04  0.28000316587E+04  0.65864270000E+03 0.  0.
    8880022    1    1    2    0    0  0.36963924407E+03 -0.92799465224E+03  0.41711067853E+03  0.10932429815E+04  0.15294330000E+03 0.  0.
<mgrwt>
<rscale>  0 0.11470277E+04</rscale>
<asrwt>0</asrwt>
<pdfrwt beam="1">  1        2 0.52629991E+00 0.11965022E+04</pdfrwt>
<pdfrwt beam="2">  1       -2 0.72665430E-01 0.11965022E+04</pdfrwt>
<totfact> 0.15848556E+00</totfact>
</mgrwt>
</event>
<event>
 4    1  0.1998832E-007  0.9695736E+03  0.7818608E-02  0.9422494E-01
          2   -1    0    0  501    0  0.00000000000E+00  0.00000000000E+00  0.45398981967E+03  0.45398981967E+03  0.25500000000E-02 0. -1.
         -2   -1    0    0    0  501 -0.00000000000E+00 -0.00000000000E+00 -0.20946114040E+04  0.20946114040E+04  0.25500000000E-02 0.  1.
    8880023    1    1    2    0    0 -0.70907470037E+03 -0.58956056128E+02 -0.15316141135E+04  0.18127092282E+04  0.65864270000E+03 0.  1.
    8880022    1    1    2    0    0  0.70907470037E+03  0.58956056128E+02 -0.10900747088E+03  0.73589199546E+03  0.15294330000E+03 0.  0.
<mgrwt>
<rscale>  0 0.90247391E+03</rscale>
<asrwt>0</asrwt>
<pdfrwt beam="1">  1        2 0.69844589E-01 0.96957359E+03</pdfrwt>
<pdfrwt beam="2">  1       -2 0.32224790E+00 0.96957359E+03</pdfrwt>
<totfact> 0.16202759E+00</totfact>
</mgrwt>
</event>
<event>
 4    1  0.1998832E-007  0.7597018E+03  0.7818608E-02  0.9805880E-01
         -2   -1    0    0    0  501 -0.00000000000E+00  0.00000000000E+00  0.19158948583E+03  0.19158948585E+03  0.25500000000E-02 0.  1.
          2   -1    0    0  501    0  0.00000000000E+00 -0.00000000000E+00 -0.24936783027E+04  0.24936783027E+04  0.25500000000E-02 0. -1.
    8880023    1    1    2    0    0  0.56995355761E+02  0.37428358349E+03 -0.70366788153E+03  0.10355169555E+04  0.65864270000E+03 0.  1.
    8880022    1    1    2    0    0 -0.56995355761E+02 -0.37428358349E+03 -0.15984209353E+04  0.16497508330E+04  0.15294330000E+03 0.  0.
<mgrwt>
<rscale>  0 0.65047941E+03</rscale>
<asrwt>0</asrwt>
<pdfrwt beam="1">  1        2 0.38364279E+00 0.75970183E+03</pdfrwt>
<pdfrwt beam="2">  1       -2 0.29475307E-01 0.75970183E+03</pdfrwt>
<totfact> 0.38698838E+01</totfact>
</mgrwt>
</event>
<event>
 4    1  0.1998832E-007  0.8509673E+03  0.7818608E-02  0.9609837E-01
         -2   -1    0    0    0  501 -0.00000000000E+00  0.00000000000E+00  0.68126222083E+03  0.68126222083E+03  0.25500000000E-02 0.  1.
          2   -1    0    0  501    0  0.00000000000E+00 -0.00000000000E+00 -0.20644258089E+04  0.20644258089E+04  0.25500000000E-02 0. -1.
    8880023    1    1    2    0    0 -0.31353659717E+03 -0.43821230591E+03  0.35309825133E+03  0.92131634316E+03  0.65864270000E+03 0.  0.
    8880022    1    1    2    0    0  0.31353659717E+03  0.43821230591E+03 -0.17362618394E+04  0.18243716865E+04  0.15294330000E+03 0.  0.
<mgrwt>
<rscale>  0 0.76648496E+03</rscale>
<asrwt>0</asrwt>
<pdfrwt beam="1">  1        2 0.31760397E+00 0.85096735E+03</pdfrwt>
<pdfrwt beam="2">  1       -2 0.10480957E+00 0.85096735E+03</pdfrwt>
<totfact> 0.46383414E+00</totfact>
</mgrwt>
</event>
<event>
 4    1  0.1998832E-007  0.8381980E+03  0.7818608E-02  0.9633587E-01
         -2   -1    0    0    0  501 -0.00000000000E+00  0.00000000000E+00  0.35824203191E+03  0.35824203192E+03  0.25500000000E-02 0.  1.
          2   -1    0    0  501    0  0.00000000000E+00 -0.00000000000E+00 -0.16082477818E+04  0.16082477818E+04  0.25500000000E-02 0. -1.
    8880023    1    1    2    0    0  0.51821880002E+03 -0.14660766303E+02 -0.33276543214E+03  0.90183629437E+03  0.65864270000E+03 0.  1.
    8880022    1    1    2    0    0 -0.51821880002E+03  0.14660766303E+02 -0.91724031778E+03  0.10646535194E+04  0.15294330000E+03 0.  0.
<mgrwt>
<rscale>  0 0.75112472E+03</rscale>
<asrwt>0</asrwt>
<pdfrwt beam="1">  1        2 0.24742273E+00 0.83819799E+03</pdfrwt>
<pdfrwt beam="2">  1       -2 0.55114159E-01 0.83819799E+03</pdfrwt>
<totfact> 0.34665466E+01</totfact>
</mgrwt>
</event>
<event>
 4    1  0.1998832E-007  0.1288464E+04  0.7818608E-02  0.9075586E-01
         -2   -1    0    0    0  501 -0.00000000000E+00  0.00000000000E+00  0.19733156127E+04  0.19733156127E+04  0.25500000000E-02 0.  1.
          2   -1    0    0  501    0  0.00000000000E+00 -0.00000000000E+00 -0.15587355574E+04  0.15587355574E+04  0.25500000000E-02 0. -1.
    8880023    1    1    2    0    0  0.65387847022E+03 -0.89374098178E+03  0.14975834973E+04  0.19755749882E+04  0.65864270000E+03 0.  1.
    8880022    1    1    2    0    0 -0.65387847022E+03  0.89374098178E+03 -0.10830034420E+04  0.15564761819E+04  0.15294330000E+03 0.  0.
<mgrwt>
<rscale>  0 0.12435291E+04</rscale>
<asrwt>0</asrwt>
<pdfrwt beam="1">  1        2 0.23980547E+00 0.12884643E+04</pdfrwt>
<pdfrwt beam="2">  1       -2 0.30358702E+00 0.12884643E+04</pdfrwt>
<totfact> 0.34274172E-01</totfact>
</mgrwt>
</event>
<event>
 4    1  0.1998832E-007  0.8900118E+03  0.7818608E-02  0.9542260E-01
         -2   -1    0    0    0  501 -0.00000000000E+00  0.00000000000E+00  0.14905329767E+04  0.14905329767E+04  0.25500000000E-02 0.  1.
          2   -1    0    0  501    0  0.00000000000E+00 -0.00000000000E+00 -0.94267577110E+03  0.94267577111E+03  0.25500000000E-02 0. -1.
    8880023    1    1    2    0    0  0.41443462415E+03  0.43191974162E+03  0.12265432467E+04  0.15154303888E+04  0.65864270000E+03 0.  1.
    8880022    1    1    2    0    0 -0.41443462415E+03 -0.43191974162E+03 -0.67868604111E+03  0.91777835904E+03  0.15294330000E+03 0.  0.
<mgrwt>
<rscale>  0 0.81238597E+03</rscale>
<asrwt>0</asrwt>
<pdfrwt beam="1">  1        2 0.14502704E+00 0.89001176E+03</pdfrwt>
<pdfrwt beam="2">  1       -2 0.22931276E+00 0.89001176E+03</pdfrwt>
<totfact> 0.23902853E+00</totfact>
</mgrwt>
</event>
<event>
 4    1  0.1998832E-007  0.1162193E+04  0.7818608E-02  0.9194780E-01
          2   -1    0    0  501    0  0.00000000000E+00  0.00000000000E+00  0.84446866104E+03  0.84446866105E+03  0.25500000000E-02 0. -1.
         -2   -1    0    0    0  501 -0.00000000000E+00 -0.00000000000E+00 -0.20995054831E+04  0.20995054831E+04  0.25500000000E-02 0.  1.
    8880023    1    1    2    0    0  0.93755719630E+03 -0.19459668137E+03 -0.15436672137E+04  0.19322525813E+04  0.65864270000E+03 0.  1.
    8880022    1    1    2    0    0 -0.93755719630E+03  0.19459668137E+03  0.28863039170E+03  0.10117215629E+04  0.15294330000E+03 0.  0.
<mgrwt>
<rscale>  0 0.11107474E+04</rscale>
<asrwt>0</asrwt>
<pdfrwt beam="1">  1        2 0.12991826E+00 0.11621926E+04</pdfrwt>
<pdfrwt beam="2">  1       -2 0.32300084E+00 0.11621926E+04</pdfrwt>
<totfact> 0.72483299E-01</totfact>
</mgrwt>
</event>
<event>
 4    1  0.1998832E-007  0.9240101E+03  0.7818608E-02  0.9488537E-01
         -2   -1    0    0    0  501 -0.00000000000E+00  0.00000000000E+00  0.99038681161E+03  0.99038681161E+03  0.25500000000E-02 0.  1.
          2   -1    0    0  501    0  0.00000000000E+00 -0.00000000000E+00 -0.27474637832E+04  0.27474637832E+04  0.25500000000E-02 0. -1.
    8880023    1    1    2    0    0 -0.61698203034E+03  0.19828681664E+03  0.72090564171E+03  0.11719640088E+04  0.65864270000E+03 0.  1.
    8880022    1    1    2    0    0  0.61698203034E+03 -0.19828681664E+03 -0.24779826133E+04  0.25658865860E+04  0.15294330000E+03 0.  0.
<mgrwt>
<rscale>  0 0.85134205E+03</rscale>
<asrwt>0</asrwt>
<pdfrwt beam="1">  1        2 0.42268673E+00 0.92401012E+03</pdfrwt>
<pdfrwt beam="2">  1       -2 0.15236720E+00 0.92401012E+03</pdfrwt>
<totfact> 0.73219236E-01</totfact>
</mgrwt>
</event>
<event>
 4    1  0.1998832E-007  0.8278915E+03  0.7818608E-02  0.9653449E-01
          2   -1    0    0  501    0  0.00000000000E+00  0.00000000000E+00  0.31449912379E+04  0.31449912379E+04  0.25500000000E-02 0. -1.
         -2   -1    0    0    0  501 -0.00000000000E+00 -0.00000000000E+00 -0.31686834289E+03  0.31686834290E+03  0.25500000000E-02 0.  1.
    8880023    1    1    2    0    0  0.47867113408E+03 -0.14989373007E+03  0.30101334393E+03  0.88091624142E+03  0.65864270000E+03 0.  1.
    8880022    1    1    2    0    0 -0.47867113408E+03  0.14989373007E+03  0.25271095510E+04  0.25809433393E+04  0.15294330000E+03 0.  0.
<mgrwt>
<rscale>  0 0.73857376E+03</rscale>
<asrwt>0</asrwt>
<pdfrwt beam="1">  1        2 0.48384482E+00 0.82789153E+03</pdfrwt>
<pdfrwt beam="2">  1       -2 0.48748975E-01 0.82789153E+03</pdfrwt>
<totfact> 0.59195892E+00</totfact>
</mgrwt>
</event>
<event>
 4    1  0.1998832E-007  0.7271125E+03  0.7818608E-02  0.9899216E-01
          2   -1    0    0  501    0  0.00000000000E+00  0.00000000000E+00  0.14346827800E+04  0.14346827800E+04  0.25500000000E-02 0. -1.
         -2   -1    0    0    0  501 -0.00000000000E+00 -0.00000000000E+00 -0.20001192586E+03  0.20001192587E+03  0.25500000000E-02 0.  1.
    8880023    1    1    2    0    0  0.30123271349E+03  0.64352605918E+02  0.85726292295E+03  0.11240962285E+04  0.65864270000E+03 0.  0.
    8880022    1    1    2    0    0 -0.30123271349E+03 -0.64352605918E+02  0.37740793117E+03  0.51059847737E+03  0.15294330000E+03 0. -1.
<mgrwt>
<rscale>  0 0.60299318E+03</rscale>
<asrwt>0</asrwt>
<pdfrwt beam="1">  1        2 0.22072043E+00 0.72711252E+03</pdfrwt>
<pdfrwt beam="2">  1       -2 0.30771065E-01 0.72711252E+03</pdfrwt>
<totfact> 0.13754469E+02</totfact>
</mgrwt>
</event>
<event>
 4    1  0.1998832E-007  0.7485012E+03  0.7818608E-02  0.9835841E-01
          2   -1    0    0  501    0  0.00000000000E+00  0.00000000000E+00  0.14129959582E+04  0.14129959582E+04  0.25500000000E-02 0. -1.
         -2   -1    0    0    0  501 -0.00000000000E+00 -0.00000000000E+00 -0.23401983364E+03  0.23401983365E+03  0.25500000000E-02 0.  1.
    8880023    1    1    2    0    0 -0.13242919783E+03  0.33000960394E+03  0.89611028614E+03  0.11675905457E+04  0.65864270000E+03 0. -1.
    8880022    1    1    2    0    0  0.13242919783E+03 -0.33000960394E+03  0.28286583842E+03  0.47942524620E+03  0.15294330000E+03 0.  0.
<mgrwt>
<rscale>  0 0.63474050E+03</rscale>
<asrwt>0</asrwt>
<pdfrwt beam="1">  1        2 0.21738399E+00 0.74850119E+03</pdfrwt>
<pdfrwt beam="2">  1       -2 0.36003051E-01 0.74850119E+03</pdfrwt>
<totfact> 0.10498091E+02</totfact>
</mgrwt>
</event>
<event>
 4    1  0.1998832E-007  0.1314444E+04  0.7818608E-02  0.9053186E-01
          2   -1    0    0  501    0  0.00000000000E+00  0.00000000000E+00  0.17762905336E+04  0.17762905336E+04  0.25500000000E-02 0. -1.
         -2   -1    0    0    0  501 -0.00000000000E+00 -0.00000000000E+00 -0.17456503532E+04  0.17456503532E+04  0.25500000000E-02 0.  1.
    8880023    1    1    2    0    0  0.97974955206E+03 -0.57796419811E+03 -0.12418471578E+04  0.18082993029E+04  0.65864270000E+03 0.  0.
    8880022    1    1    2    0    0 -0.97974955206E+03  0.57796419811E+03  0.12724873383E+04  0.17136415839E+04  0.15294330000E+03 0.  0.
<mgrwt>
<rscale>  0 0.12706292E+04</rscale>
<asrwt>0</asrwt>
<pdfrwt beam="1">  1        2 0.27327546E+00 0.13144436E+04</pdfrwt>
<pdfrwt beam="2">  1       -2 0.26856160E+00 0.13144436E+04</pdfrwt>
<totfact> 0.42177902E-01</totfact>
</mgrwt>
</event>
<event>
 4    1  0.1998832E-007  0.8648480E+03  0.7818608E-02  0.9584997E-01
         -2   -1    0    0    0  501 -0.00000000000E+00  0.00000000000E+00  0.63760220950E+03  0.63760220950E+03  0.25500000000E-02 0.  1.
          2   -1    0    0  501    0  0.00000000000E+00 -0.00000000000E+00 -0.12102723198E+04  0.12102723198E+04  0.25500000000E-02 0. -1.
    8880023    1    1    2    0    0 -0.75780077961E+02  0.55534597727E+03  0.19360215981E+03  0.88625265993E+03  0.65864270000E+03 0.  1.
    8880022    1    1    2    0    0  0.75780077961E+02 -0.55534597727E+03 -0.76627227009E+03  0.96162186935E+03  0.15294330000E+03 0.  0.
<mgrwt>
<rscale>  0 0.78297163E+03</rscale>
<asrwt>0</asrwt>
<pdfrwt beam="1">  1        2 0.18619574E+00 0.86484795E+03</pdfrwt>
<pdfrwt beam="2">  1       -2 0.98092648E-01 0.86484795E+03</pdfrwt>
<totfact> 0.16254902E+01</totfact>
</mgrwt>
</event>
<event>
 4    1  0.1998832E-007  0.6814526E+03  0.7818608E-02  0.1008514E+00
          2   -1    0    0  501    0  0.00000000000E+00  0.00000000000E+00  0.14014222249E+04  0.14014222249E+04  0.25500000000E-02 0. -1.
         -2   -1    0    0    0  501 -0.00000000000E+00 -0.00000000000E+00 -0.26728181940E+03  0.26728181942E+03  0.25500000000E-02 0.  1.
    8880023    1    1    2    0    0 -0.11520254592E+03 -0.13151356440E+03  0.20595847895E+03  0.71189644298E+03  0.65864270000E+03 0.  1.
    8880022    1    1    2    0    0  0.11520254592E+03  0.13151356440E+03  0.92818192652E+03  0.95680760132E+03  0.15294330000E+03 0.  0.
<mgrwt>
<rscale>  0 0.52069670E+03</rscale>
<asrwt>0</asrwt>
<pdfrwt beam="1">  1        2 0.21560342E+00 0.68145260E+03</pdfrwt>
<pdfrwt beam="2">  1       -2 0.41120281E-01 0.68145260E+03</pdfrwt>
<totfact> 0.82920034E+01</totfact>
</mgrwt>
</event>
<event>
 4    1  0.1998832E-007  0.1048462E+04  0.7818608E-02  0.9320733E-01
          2   -1    0    0  501    0  0.00000000000E+00  0.00000000000E+00  0.27552944936E+04  0.27552944936E+04  0.25500000000E-02 0. -1.
         -2   -1    0    0    0  501 -0.00000000000E+00 -0.00000000000E+00 -0.74663274265E+03  0.74663274266E+03  0.25500000000E-02 0.  1.
    8880023    1    1    2    0    0 -0.17616034432E+03  0.79651099457E+03 -0.26506984421E+03  0.10814501653E+04  0.65864270000E+03 0.  0.
    8880022    1    1    2    0    0  0.17616034432E+03 -0.79651099457E+03  0.22737315951E+04  0.24204770709E+04  0.15294330000E+03 0.  0.
<mgrwt>
<rscale>  0 0.98896379E+03</rscale>
<asrwt>0</asrwt>
<pdfrwt beam="1">  1        2 0.42389145E+00 0.10484619E+04</pdfrwt>
<pdfrwt beam="2">  1       -2 0.11486658E+00 0.10484619E+04</pdfrwt>
<totfact> 0.14626677E+00</totfact>
</mgrwt>
</event>
<event>
 4    1  0.1998832E-007  0.1380959E+04  0.7818608E-02  0.8998621E-01
         -2   -1    0    0    0  501 -0.00000000000E+00  0.00000000000E+00  0.14899089514E+04  0.14899089514E+04  0.25500000000E-02 0.  1.
          2   -1    0    0  501    0  0.00000000000E+00 -0.00000000000E+00 -0.21473149601E+04  0.21473149601E+04  0.25500000000E-02 0. -1.
    8880023    1    1    2    0    0 -0.88699375141E+02  0.12105249059E+04  0.90632264107E+03  0.16518078166E+04  0.65864270000E+03 0.  0.
    8880022    1    1    2    0    0  0.88699375141E+02 -0.12105249059E+04 -0.15637286498E+04  0.19854160950E+04  0.15294330000E+03 0.  0.
<mgrwt>
<rscale>  0 0.13397536E+04</rscale>
<asrwt>0</asrwt>
<pdfrwt beam="1">  1        2 0.33035615E+00 0.13809592E+04</pdfrwt>
<pdfrwt beam="2">  1       -2 0.22921676E+00 0.13809592E+04</pdfrwt>
<totfact> 0.45441386E-01</totfact>
</mgrwt>
</event>
<event>
 4    1  0.1998832E-007  0.1281285E+04  0.7818608E-02  0.9081892E-01
          2   -1    0    0  501    0  0.00000000000E+00  0.00000000000E+00  0.20179880052E+04  0.20179880052E+04  0.25500000000E-02 0. -1.
         -2   -1    0    0    0  501 -0.00000000000E+00 -0.00000000000E+00 -0.18492590533E+04  0.18492590533E+04  0.25500000000E-02 0.  1.
    8880023    1    1    2    0    0  0.15243130299E+03 -0.10884145964E+04 -0.14307164009E+04  0.19205835732E+04  0.65864270000E+03 0.  0.
    8880022    1    1    2    0    0 -0.15243130299E+03  0.10884145964E+04  0.15994453527E+04  0.19466634853E+04  0.15294330000E+03 0.  0.
<mgrwt>
<rscale>  0 0.12360290E+04</rscale>
<asrwt>0</asrwt>
<pdfrwt beam="1">  1        2 0.31045969E+00 0.12812852E+04</pdfrwt>
<pdfrwt beam="2">  1       -2 0.28450140E+00 0.12812852E+04</pdfrwt>
<totfact> 0.24886760E-01</totfact>
</mgrwt>
</event>
<event>
 4    1  0.1998832E-007  0.7020069E+03  0.7818608E-02  0.9988976E-01
          2   -1    0    0  501    0  0.00000000000E+00  0.00000000000E+00  0.19700223848E+04  0.19700223848E+04  0.25500000000E-02 0. -1.
         -2   -1    0    0    0  501 -0.00000000000E+00 -0.00000000000E+00 -0.34144705097E+03  0.34144705098E+03  0.25500000000E-02 0.  1.
    8880023    1    1    2    0    0  0.11446179064E+03  0.21424735942E+03  0.46478721104E+02  0.70354382259E+03  0.65864270000E+03 0.  0.
    8880022    1    1    2    0    0 -0.11446179064E+03 -0.21424735942E+03  0.15820966127E+04  0.16079256132E+04  0.15294330000E+03 0.  0.
<mgrwt>
<rscale>  0 0.56136287E+03</rscale>
<asrwt>0</asrwt>
<pdfrwt beam="1">  1        2 0.30308037E+00 0.70200687E+03</pdfrwt>
<pdfrwt beam="2">  1       -2 0.52530316E-01 0.70200687E+03</pdfrwt>
<totfact> 0.24680405E+01</totfact>
</mgrwt>
</event>
<event>
 4    1  0.1998832E-007  0.7220626E+03  0.7818608E-02  0.9915668E-01
         -2   -1    0    0    0  501 -0.00000000000E+00  0.00000000000E+00  0.61881530718E+03  0.61881530719E+03  0.25500000000E-02 0.  1.
          2   -1    0    0  501    0  0.00000000000E+00 -0.00000000000E+00 -0.98970144787E+03  0.98970144787E+03  0.25500000000E-02 0. -1.
    8880023    1    1    2    0    0  0.11897407843E+03  0.27094167108E+03  0.35887442877E+03  0.80632827208E+03  0.65864270000E+03 0.  1.
    8880022    1    1    2    0    0 -0.11897407843E+03 -0.27094167108E+03 -0.72976056946E+03  0.80218848298E+03  0.15294330000E+03 0.  0.
<mgrwt>
<rscale>  0 0.59507942E+03</rscale>
<asrwt>0</asrwt>
<pdfrwt beam="1">  1        2 0.15226176E+00 0.72206262E+03</pdfrwt>
<pdfrwt beam="2">  1       -2 0.95202355E-01 0.72206262E+03</pdfrwt>
<totfact> 0.24173183E+01</totfact>
</mgrwt>
</event>
<event>
 4    1  0.1998832E-007  0.7237405E+03  0.7818608E-02  0.9910127E-01
         -2   -1    0    0    0  501 -0.00000000000E+00  0.00000000000E+00  0.73800584647E+03  0.73800584647E+03  0.25500000000E-02 0.  1.
          2   -1    0    0  501    0  0.00000000000E+00 -0.00000000000E+00 -0.10252549908E+04  0.10252549908E+04  0.25500000000E-02 0. -1.
    8880023    1    1    2    0    0  0.23736648469E+03 -0.18343189962E+03  0.51828647962E+03  0.89018042613E+03  0.65864270000E+03 0.  1.
    8880022    1    1    2    0    0 -0.23736648469E+03  0.18343189962E+03 -0.80553562392E+03  0.87308041112E+03  0.15294330000E+03 0.  0.
<mgrwt>
<rscale>  0 0.59773001E+03</rscale>
<asrwt>0</asrwt>
<pdfrwt beam="1">  1        2 0.15773154E+00 0.72374050E+03</pdfrwt>
<pdfrwt beam="2">  1       -2 0.11353936E+00 0.72374050E+03</pdfrwt>
<totfact> 0.15060494E+01</totfact>
</mgrwt>
</event>
<event>
 4    1  0.1998832E-007  0.9934640E+03  0.7818608E-02  0.9390159E-01
          2   -1    0    0  501    0  0.00000000000E+00  0.00000000000E+00  0.30402683238E+04  0.30402683238E+04  0.25500000000E-02 0. -1.
         -2   -1    0    0    0  501 -0.00000000000E+00 -0.00000000000E+00 -0.69900124891E+03  0.69900124891E+03  0.25500000000E-02 0.  1.
    8880023    1    1    2    0    0 -0.26262066555E+03 -0.69583821293E+03 -0.26207836626E+03  0.10274510737E+04  0.65864270000E+03 0.  0.
    8880022    1    1    2    0    0  0.26262066555E+03  0.69583821293E+03  0.26033454411E+04  0.27118184990E+04  0.15294330000E+03 0.  0.
<mgrwt>
<rscale>  0 0.92889988E+03</rscale>
<asrwt>0</asrwt>
<pdfrwt beam="1">  1        2 0.46773359E+00 0.99346396E+03</pdfrwt>
<pdfrwt beam="2">  1       -2 0.10753865E+00 0.99346396E+03</pdfrwt>
<totfact> 0.11638233E+00</totfact>
</mgrwt>
</event>
<event>
 4    1  0.1998832E-007  0.8875736E+03  0.7818608E-02  0.9546282E-01
          2   -1    0    0  501    0  0.00000000000E+00  0.00000000000E+00  0.11073034738E+04  0.11073034738E+04  0.25500000000E-02 0. -1.
         -2   -1    0    0    0  501 -0.00000000000E+00 -0.00000000000E+00 -0.13403633868E+04  0.13403633868E+04  0.25500000000E-02 0.  1.
    8880023    1    1    2    0    0  0.52228031748E+03  0.28495618443E+03 -0.10821967429E+04  0.13996202176E+04  0.65864270000E+03 0.  1.
    8880022    1    1    2    0    0 -0.52228031748E+03 -0.28495618443E+03  0.84913682989E+03  0.10480466430E+04  0.15294330000E+03 0.  0.
<mgrwt>
<rscale>  0 0.80955990E+03</rscale>
<asrwt>0</asrwt>
<pdfrwt beam="1">  1        2 0.17035438E+00 0.88757364E+03</pdfrwt>
<pdfrwt beam="2">  1       -2 0.20620975E+00 0.88757364E+03</pdfrwt>
<totfact> 0.26290499E+00</totfact>
</mgrwt>
</event>
<event>
 4    1  0.1998832E-007  0.1630401E+04  0.7818608E-02  0.8822652E-01
         -2   -1    0    0    0  501 -0.00000000000E+00  0.00000000000E+00  0.19186076505E+04  0.19186076505E+04  0.25500000000E-02 0.  1.
          2   -1    0    0  501    0  0.00000000000E+00 -0.00000000000E+00 -0.21021755256E+04  0.21021755256E+04  0.25500000000E-02 0. -1.
    8880023    1    1    2    0    0  0.48284300916E+03 -0.14111205983E+04  0.11653122368E+04  0.20040363096E+04  0.65864270000E+03 0.  0.
    8880022    1    1    2    0    0 -0.48284300916E+03  0.14111205983E+04 -0.13488801119E+04  0.20167468666E+04  0.15294330000E+03 0.  0.
<mgrwt>
<rscale>  0 0.15965789E+04</rscale>
<asrwt>0</asrwt>
<pdfrwt beam="1">  1        2 0.32341162E+00 0.16304015E+04</pdfrwt>
<pdfrwt beam="2">  1       -2 0.29517041E+00 0.16304015E+04</pdfrwt>
<totfact> 0.18412149E-01</totfact>
</mgrwt>
</event>
<event>
 4    1  0.1998832E-007  0.6630660E+03  0.7818608E-02  0.1021214E+00
         -2   -1    0    0    0  501 -0.00000000000E+00  0.00000000000E+00  0.24253059098E+03  0.24253059099E+03  0.25500000000E-02 0.  1.
          2   -1    0    0  501    0  0.00000000000E+00 -0.00000000000E+00 -0.23704127686E+04  0.23704127686E+04  0.25500000000E-02 0. -1.
    8880023    1    1    2    0    0  0.20934198436E+02  0.73539731234E+02 -0.22175943636E+03  0.69916649420E+03  0.65864270000E+03 0.  1.
    8880022    1    1    2    0    0 -0.20934198436E+02 -0.73539731234E+02 -0.19061227412E+04  0.19137768653E+04  0.15294330000E+03 0.  0.
<mgrwt>
<rscale>  0 0.47251000E+03</rscale>
<asrwt>0</asrwt>
<pdfrwt beam="1">  1        2 0.36467887E+00 0.66306601E+03</pdfrwt>
<pdfrwt beam="2">  1       -2 0.37312400E-01 0.66306601E+03</pdfrwt>
<totfact> 0.29516458E+01</totfact>
</mgrwt>
</event>
<event>
 4    1  0.1998832E-007  0.8417508E+03  0.7818608E-02  0.9626888E-01
         -2   -1    0    0    0  501 -0.00000000000E+00  0.00000000000E+00  0.51190275149E+03  0.51190275150E+03  0.25500000000E-02 0.  1.
          2   -1    0    0  501    0  0.00000000000E+00 -0.00000000000E+00 -0.17735168903E+04  0.17735168903E+04  0.25500000000E-02 0. -1.
    8880023    1    1    2    0    0 -0.51867456040E+03 -0.75570724432E+02  0.71540380002E+02  0.84478545574E+03  0.65864270000E+03 0.  1.
    8880022    1    1    2    0    0  0.51867456040E+03  0.75570724432E+02 -0.13331545188E+04  0.14406341860E+04  0.15294330000E+03 0.  0.
<mgrwt>
<rscale>  0 0.75541851E+03</rscale>
<asrwt>0</asrwt>
<pdfrwt beam="1">  1        2 0.27284875E+00 0.84175082E+03</pdfrwt>
<pdfrwt beam="2">  1       -2 0.78754270E-01 0.84175082E+03</pdfrwt>
<totfact> 0.13005827E+01</totfact>
</mgrwt>
</event>
<event>
 4    1  0.1998832E-007  0.8654240E+03  0.7818608E-02  0.9583987E-01
          2   -1    0    0  501    0  0.00000000000E+00  0.00000000000E+00  0.22384827224E+04  0.22384827224E+04  0.25500000000E-02 0. -1.
         -2   -1    0    0    0  501 -0.00000000000E+00 -0.00000000000E+00 -0.36545593856E+03  0.36545593857E+03  0.25500000000E-02 0.  1.
    8880023    1    1    2    0    0  0.54912364281E+03 -0.11666960144E+03  0.28255870643E+03  0.91038354546E+03  0.65864270000E+03 0.  0.
    8880022    1    1    2    0    0 -0.54912364281E+03  0.11666960144E+03  0.15904680774E+04  0.16935551155E+04  0.15294330000E+03 0.  0.
<mgrwt>
<rscale>  0 0.78365156E+03</rscale>
<asrwt>0</asrwt>
<pdfrwt beam="1">  1        2 0.34438196E+00 0.86542404E+03</pdfrwt>
<pdfrwt beam="2">  1       -2 0.56223990E-01 0.86542404E+03</pdfrwt>
<totfact> 0.14932392E+01</totfact>
</mgrwt>
</event>
<event>
 4    1  0.1998832E-007  0.9709355E+03  0.7818608E-02  0.9420611E-01
          2   -1    0    0  501    0  0.00000000000E+00  0.00000000000E+00  0.21724554894E+04  0.21724554894E+04  0.25500000000E-02 0. -1.
         -2   -1    0    0    0  501 -0.00000000000E+00 -0.00000000000E+00 -0.11157533047E+04  0.11157533047E+04  0.25500000000E-02 0.  1.
    8880023    1    1    2    0    0 -0.20648788650E+03  0.68283842037E+03 -0.82241171063E+03  0.12724294808E+04  0.65864270000E+03 0.  1.
    8880022    1    1    2    0    0  0.20648788650E+03 -0.68283842037E+03  0.18791138953E+04  0.20157793134E+04  0.15294330000E+03 0.  0.
<mgrwt>
<rscale>  0 0.90398674E+03</rscale>
<asrwt>0</asrwt>
<pdfrwt beam="1">  1        2 0.33422392E+00 0.97093551E+03</pdfrwt>
<pdfrwt beam="2">  1       -2 0.17165436E+00 0.97093551E+03</pdfrwt>
<totfact> 0.11151476E+00</totfact>
</mgrwt>
</event>
<event>
 4    1  0.1998832E-007  0.1036248E+04  0.7818608E-02  0.9335599E-01
         -2   -1    0    0    0  501 -0.00000000000E+00  0.00000000000E+00  0.74385062103E+03  0.74385062103E+03  0.25500000000E-02 0.  1.
          2   -1    0    0  501    0  0.00000000000E+00 -0.00000000000E+00 -0.18656836189E+04  0.18656836189E+04  0.25500000000E-02 0. -1.
    8880023    1    1    2    0    0  0.78279790972E+03 -0.16500413991E+03  0.20147966727E+03  0.10556529715E+04  0.65864270000E+03 0.  0.
    8880022    1    1    2    0    0 -0.78279790972E+03  0.16500413991E+03 -0.13233126652E+04  0.15538812685E+04  0.15294330000E+03 0.  0.
<mgrwt>
<rscale>  0 0.97570566E+03</rscale>
<asrwt>0</asrwt>
<pdfrwt beam="1">  1        2 0.28702825E+00 0.10362476E+04</pdfrwt>
<pdfrwt beam="2">  1       -2 0.11443856E+00 0.10362476E+04</pdfrwt>
<totfact> 0.47036836E+00</totfact>
</mgrwt>
</event>
<event>
 4    1  0.1998832E-007  0.8919489E+03  0.7818608E-02  0.9539082E-01
          2   -1    0    0  501    0  0.00000000000E+00  0.00000000000E+00  0.98217687863E+03  0.98217687863E+03  0.25500000000E-02 0. -1.
         -2   -1    0    0    0  501 -0.00000000000E+00 -0.00000000000E+00 -0.17717421181E+04  0.17717421181E+04  0.25500000000E-02 0.  1.
    8880023    1    1    2    0    0  0.68062972785E+02  0.59760363072E+03 -0.15402771045E+04  0.17798950623E+04  0.65864270000E+03 0.  1.
    8880022    1    1    2    0    0 -0.68062972785E+02 -0.59760363072E+03  0.75071186501E+03  0.97402393451E+03  0.15294330000E+03 0.  0.
<mgrwt>
<rscale>  0 0.81462800E+03</rscale>
<asrwt>0</asrwt>
<pdfrwt beam="1">  1        2 0.15110414E+00 0.89194892E+03</pdfrwt>
<pdfrwt beam="2">  1       -2 0.27257571E+00 0.89194892E+03</pdfrwt>
<totfact> 0.12274269E+00</totfact>
</mgrwt>
</event>
<event>
 4    1  0.1998832E-007  0.1065141E+04  0.7818608E-02  0.9300897E-01
          2   -1    0    0  501    0  0.00000000000E+00  0.00000000000E+00  0.31525522607E+04  0.31525522607E+04  0.25500000000E-02 0. -1.
         -2   -1    0    0    0  501 -0.00000000000E+00 -0.00000000000E+00 -0.57374577530E+03  0.57374577531E+03  0.25500000000E-02 0.  1.
    8880023    1    1    2    0    0 -0.83201511574E+03 -0.92011348865E+02  0.59097516079E+02  0.10667792479E+04  0.65864270000E+03 0.  0.
    8880022    1    1    2    0    0  0.83201511574E+03  0.92011348865E+02  0.25197089694E+04  0.26595187881E+04  0.15294330000E+03 0.  0.
<mgrwt>
<rscale>  0 0.10070028E+04</rscale>
<asrwt>0</asrwt>
<pdfrwt beam="1">  1        2 0.48500805E+00 0.10651410E+04</pdfrwt>
<pdfrwt beam="2">  1       -2 0.88268578E-01 0.10651410E+04</pdfrwt>
<totfact> 0.15602568E+00</totfact>
</mgrwt>
</event>
<event>
 4    1  0.1998832E-007  0.1145559E+04  0.7818608E-02  0.9211950E-01
          2   -1    0    0  501    0  0.00000000000E+00  0.00000000000E+00  0.29161779375E+04  0.29161779375E+04  0.25500000000E-02 0. -1.
         -2   -1    0    0    0  501 -0.00000000000E+00 -0.00000000000E+00 -0.39194274414E+03  0.39194274415E+03  0.25500000000E-02 0.  1.
    8880023    1    1    2    0    0 -0.19929904521E+03 -0.91584670441E+03  0.17039438935E+04  0.20532243652E+04  0.65864270000E+03 0.  0.
    8880022    1    1    2    0    0  0.19929904521E+03  0.91584670441E+03  0.82029129988E+03  0.12548963165E+04  0.15294330000E+03 0.  0.
<mgrwt>
<rscale>  0 0.10930930E+04</rscale>
<asrwt>0</asrwt>
<pdfrwt beam="1">  1        2 0.44864276E+00 0.11455590E+04</pdfrwt>
<pdfrwt beam="2">  1       -2 0.60298884E-01 0.11455590E+04</pdfrwt>
<totfact> 0.50397135E+00</totfact>
</mgrwt>
</event>
<event>
 4    1  0.1998832E-007  0.8122340E+03  0.7818608E-02  0.9684942E-01
         -2   -1    0    0    0  501 -0.00000000000E+00  0.00000000000E+00  0.10380746581E+04  0.10380746581E+04  0.25500000000E-02 0.  1.
          2   -1    0    0  501    0  0.00000000000E+00 -0.00000000000E+00 -0.76918828370E+03  0.76918828371E+03  0.25500000000E-02 0. -1.
    8880023    1    1    2    0    0  0.43545870450E+03  0.19049822829E+03  0.75606143960E+03  0.11096634467E+04  0.65864270000E+03 0.  0.
    8880022    1    1    2    0    0 -0.43545870450E+03 -0.19049822829E+03 -0.48717506522E+03  0.69759949506E+03  0.15294330000E+03 0.  0.
<mgrwt>
<rscale>  0 0.71920444E+03</rscale>
<asrwt>0</asrwt>
<pdfrwt beam="1">  1        2 0.11833666E+00 0.81223400E+03</pdfrwt>
<pdfrwt beam="2">  1       -2 0.15970379E+00 0.81223400E+03</pdfrwt>
<totfact> 0.92752561E+00</totfact>
</mgrwt>
</event>
<event>
 4    1  0.1998832E-007  0.9787122E+03  0.7818608E-02  0.9409954E-01
          2   -1    0    0  501    0  0.00000000000E+00  0.00000000000E+00  0.11470816542E+04  0.11470816542E+04  0.25500000000E-02 0. -1.
         -2   -1    0    0    0  501 -0.00000000000E+00 -0.00000000000E+00 -0.10205405861E+04  0.10205405861E+04  0.25500000000E-02 0.  1.
    8880023    1    1    2    0    0 -0.68876218525E+03  0.22287671323E+03 -0.58572823001E+03  0.11405942060E+04  0.65864270000E+03 0.  1.
    8880022    1    1    2    0    0  0.68876218525E+03 -0.22287671323E+03  0.71226929814E+03  0.10270280343E+04  0.15294330000E+03 0.  0.
<mgrwt>
<rscale>  0 0.91260997E+03</rscale>
<asrwt>0</asrwt>
<pdfrwt beam="1">  1        2 0.17647410E+00 0.97871221E+03</pdfrwt>
<pdfrwt beam="2">  1       -2 0.15700624E+00 0.97871221E+03</pdfrwt>
<totfact> 0.53694795E+00</totfact>
</mgrwt>
</event>
<event>
 4    1  0.1998832E-007  0.1102126E+04  0.7818608E-02  0.9258693E-01
          2   -1    0    0  501    0  0.00000000000E+00  0.00000000000E+00  0.31013171210E+04  0.31013171210E+04  0.25500000000E-02 0. -1.
         -2   -1    0    0    0  501 -0.00000000000E+00 -0.00000000000E+00 -0.37112911355E+03  0.37112911356E+03  0.25500000000E-02 0.  1.
    8880023    1    1    2    0    0  0.38085898365E+03 -0.79738215599E+03  0.85862081195E+03  0.13971083613E+04  0.65864270000E+03 0. -1.
    8880022    1    1    2    0    0 -0.38085898365E+03  0.79738215599E+03  0.18715671955E+04  0.20753378733E+04  0.15294330000E+03 0.  0.
<mgrwt>
<rscale>  0 0.10467628E+04</rscale>
<asrwt>0</asrwt>
<pdfrwt beam="1">  1        2 0.47712572E+00 0.11021262E+04</pdfrwt>
<pdfrwt beam="2">  1       -2 0.57096786E-01 0.11021262E+04</pdfrwt>
<totfact> 0.43662688E+00</totfact>
</mgrwt>
</event>
<event>
 4    1  0.1998832E-007  0.7608709E+03  0.7818608E-02  0.9802858E-01
          2   -1    0    0  501    0  0.00000000000E+00  0.00000000000E+00  0.28654595301E+04  0.28654595301E+04  0.25500000000E-02 0. -1.
         -2   -1    0    0    0  501 -0.00000000000E+00 -0.00000000000E+00 -0.29505104828E+03  0.29505104829E+03  0.25500000000E-02 0.  1.
    8880023    1    1    2    0    0  0.35392513394E+03 -0.14089462467E+03  0.24528698020E+03  0.79943117566E+03  0.65864270000E+03 0.  1.
    8880022    1    1    2    0    0 -0.35392513394E+03  0.14089462467E+03  0.23251215016E+04  0.23610794027E+04  0.15294330000E+03 0.  0.
<mgrwt>
<rscale>  0 0.65209389E+03</rscale>
<asrwt>0</asrwt>
<pdfrwt beam="1">  1        2 0.44083991E+00 0.76087088E+03</pdfrwt>
<pdfrwt beam="2">  1       -2 0.45392471E-01 0.76087088E+03</pdfrwt>
<totfact> 0.10262945E+01</totfact>
</mgrwt>
</event>
<event>
 4    1  0.1998832E-007  0.1623030E+04  0.7818608E-02  0.8827316E-01
         -2   -1    0    0    0  501 -0.00000000000E+00  0.00000000000E+00  0.19853026347E+04  0.19853026347E+04  0.25500000000E-02 0.  1.
          2   -1    0    0  501    0  0.00000000000E+00 -0.00000000000E+00 -0.16171605772E+04  0.16171605772E+04  0.25500000000E-02 0. -1.
    8880023    1    1    2    0    0  0.35183228970E+03  0.14410513761E+04  0.10805145893E+04  0.19498043524E+04  0.65864270000E+03 0.  0.
    8880022    1    1    2    0    0 -0.35183228970E+03 -0.14410513761E+04 -0.71237253187E+03  0.16526588595E+04  0.15294330000E+03 0.  0.
<mgrwt>
<rscale>  0 0.15890295E+04</rscale>
<asrwt>0</asrwt>
<pdfrwt beam="1">  1        2 0.24879393E+00 0.16230296E+04</pdfrwt>
<pdfrwt beam="2">  1       -2 0.30543117E+00 0.16230296E+04</pdfrwt>
<totfact> 0.29792182E-01</totfact>
</mgrwt>
</event>
<event>
 4    1  0.1998832E-007  0.8141690E+03  0.7818608E-02  0.9680958E-01
         -2   -1    0    0    0  501 -0.00000000000E+00  0.00000000000E+00  0.12828004343E+04  0.12828004343E+04  0.25500000000E-02 0.  1.
          2   -1    0    0  501    0  0.00000000000E+00 -0.00000000000E+00 -0.14575399835E+04  0.14575399835E+04  0.25500000000E-02 0. -1.
    8880023    1    1    2    0    0 -0.41513785649E+01  0.47858511879E+03  0.11009365133E+04  0.13692816958E+04  0.65864270000E+03 0.  1.
    8880022    1    1    2    0    0  0.41513785649E+01 -0.47858511879E+03 -0.12756760625E+04  0.13710587220E+04  0.15294330000E+03 0.  0.
<mgrwt>
<rscale>  0 0.72161974E+03</rscale>
<asrwt>0</asrwt>
<pdfrwt beam="1">  1        2 0.22423692E+00 0.81416900E+03</pdfrwt>
<pdfrwt beam="2">  1       -2 0.19735391E+00 0.81416900E+03</pdfrwt>
<totfact> 0.18949792E+00</totfact>
</mgrwt>
</event>
<event>
 4    1  0.1998832E-007  0.1651384E+04  0.7818608E-02  0.8809531E-01
         -2   -1    0    0    0  501 -0.00000000000E+00  0.00000000000E+00  0.26954796963E+04  0.26954796963E+04  0.25500000000E-02 0.  1.
          2   -1    0    0  501    0  0.00000000000E+00 -0.00000000000E+00 -0.15587264196E+04  0.15587264196E+04  0.25500000000E-02 0. -1.
    8880023    1    1    2    0    0 -0.10781837429E+04  0.10633812036E+04  0.19281769142E+04  0.25386878867E+04  0.65864270000E+03 0.  1.
    8880022    1    1    2    0    0  0.10781837429E+04 -0.10633812036E+04 -0.79142363748E+03  0.17155182291E+04  0.15294330000E+03 0.  0.
<mgrwt>
<rscale>  0 0.16180565E+04</rscale>
<asrwt>0</asrwt>
<pdfrwt beam="1">  1        2 0.23980407E+00 0.16513843E+04</pdfrwt>
<pdfrwt beam="2">  1       -2 0.41468918E+00 0.16513843E+04</pdfrwt>
<totfact> 0.64659776E-02</totfact>
</mgrwt>
</event>
<event>
 4    1  0.1998832E-007  0.1357254E+04  0.7818608E-02  0.9017630E-01
         -2   -1    0    0    0  501 -0.00000000000E+00  0.00000000000E+00  0.90032502009E+03  0.90032502010E+03  0.25500000000E-02 0.  1.
          2   -1    0    0  501    0  0.00000000000E+00 -0.00000000000E+00 -0.27688623377E+04  0.27688623377E+04  0.25500000000E-02 0. -1.
    8880023    1    1    2    0    0  0.18540696589E+03 -0.11721571417E+04  0.10493755646E+03  0.13613045966E+04  0.65864270000E+03 0.  1.
    8880022    1    1    2    0    0 -0.18540696589E+03  0.11721571417E+04 -0.19734748741E+04  0.23078827612E+04  0.15294330000E+03 0.  0.
<mgrwt>
<rscale>  0 0.13151585E+04</rscale>
<asrwt>0</asrwt>
<pdfrwt beam="1">  1        2 0.42597882E+00 0.13572540E+04</pdfrwt>
<pdfrwt beam="2">  1       -2 0.13851154E+00 0.13572540E+04</pdfrwt>
<totfact> 0.85879324E-01</totfact>
</mgrwt>
</event>
<event>
 4    1  0.2366086E-007  0.1111204E+04  0.7818608E-02  0.9248684E-01
         -2   -1    0    0    0  501 -0.00000000000E+00  0.00000000000E+00  0.17219677482E+04  0.17219677482E+04  0.25500000000E-02 0.  1.
          2   -1    0    0  501    0  0.00000000000E+00 -0.00000000000E+00 -0.20760351281E+04  0.20760351281E+04  0.25500000000E-02 0. -1.
    8880023    1    1    2    0    0  0.72807847961E+03 -0.52044676480E+03  0.14211901568E+04  0.18040384629E+04  0.65864270000E+03 0.  1.
    8880022    1    1    2    0    0 -0.72807847961E+03  0.52044676480E+03 -0.17752575367E+04  0.19939644135E+04  0.15294330000E+03 0.  0.
<mgrwt>
<rscale>  0 0.10564756E+04</rscale>
<asrwt>0</asrwt>
<pdfrwt beam="1">  1        2 0.31939002E+00 0.11112035E+04</pdfrwt>
<pdfrwt beam="2">  1       -2 0.26491812E+00 0.11112035E+04</pdfrwt>
<totfact> 0.31160577E-01</totfact>
</mgrwt>
</event>
<event>
 4    1  0.1998832E-007  0.9338497E+03  0.7818608E-02  0.9473742E-01
         -2   -1    0    0    0  501 -0.00000000000E+00  0.00000000000E+00  0.13262847113E+04  0.13262847113E+04  0.25500000000E-02 0.  1.
          2   -1    0    0  501    0  0.00000000000E+00 -0.00000000000E+00 -0.70006321107E+03  0.70006321107E+03  0.25500000000E-02 0. -1.
    8880023    1    1    2    0    0 -0.63794892949E+03  0.17687898256E+03 -0.20163054074E+03  0.95536908697E+03  0.65864270000E+03 0.  0.
    8880022    1    1    2    0    0  0.63794892949E+03 -0.17687898256E+03  0.82785204092E+03  0.10709788354E+04  0.15294330000E+03 0.  0.
<mgrwt>
<rscale>  0 0.86247719E+03</rscale>
<asrwt>0</asrwt>
<pdfrwt beam="1">  1        2 0.10770203E+00 0.93384968E+03</pdfrwt>
<pdfrwt beam="2">  1       -2 0.20404380E+00 0.93384968E+03</pdfrwt>
<totfact> 0.51283088E+00</totfact>
</mgrwt>
</event>
<event>
 4    1  0.1998832E-007  0.9631936E+03  0.7818608E-02  0.9431380E-01
          2   -1    0    0  501    0  0.00000000000E+00  0.00000000000E+00  0.95997422908E+03  0.95997422908E+03  0.25500000000E-02 0. -1.
         -2   -1    0    0    0  501 -0.00000000000E+00 -0.00000000000E+00 -0.10252497609E+04  0.10252497609E+04  0.25500000000E-02 0.  1.
    8880023    1    1    2    0    0  0.70071498292E+03  0.54130660875E+02 -0.55822047942E+03  0.11132618406E+04  0.65864270000E+03 0.  1.
    8880022    1    1    2    0    0 -0.70071498292E+03 -0.54130660875E+02  0.49294494757E+03  0.87196214946E+03  0.15294330000E+03 0.  0.
<mgrwt>
<rscale>  0 0.89537595E+03</rscale>
<asrwt>0</asrwt>
<pdfrwt beam="1">  1        2 0.14768834E+00 0.96319355E+03</pdfrwt>
<pdfrwt beam="2">  1       -2 0.15773073E+00 0.96319355E+03</pdfrwt>
<totfact> 0.69663439E+00</totfact>
</mgrwt>
</event>
<event>
 4    1  0.1998832E-007  0.6657034E+03  0.7818608E-02  0.1018950E+00
         -2   -1    0    0    0  501 -0.00000000000E+00  0.00000000000E+00  0.46691789063E+03  0.46691789064E+03  0.25500000000E-02 0.  1.
          2   -1    0    0  501    0  0.00000000000E+00 -0.00000000000E+00 -0.13373140326E+04  0.13373140326E+04  0.25500000000E-02 0. -1.
    8880023    1    1    2    0    0  0.43060319010E+02  0.86583261990E+02  0.21831398931E+03  0.70058693716E+03  0.65864270000E+03 0.  1.
    8880022    1    1    2    0    0 -0.43060319010E+02 -0.86583261990E+02 -0.10887101313E+04  0.11036449861E+04  0.15294330000E+03 0.  0.
<mgrwt>
<rscale>  0 0.48067284E+03</rscale>
<asrwt>0</asrwt>
<pdfrwt beam="1">  1        2 0.20574062E+00 0.66570343E+03</pdfrwt>
<pdfrwt beam="2">  1       -2 0.71833523E-01 0.66570343E+03</pdfrwt>
<totfact> 0.28474590E+01</totfact>
</mgrwt>
</event>
<event>
 4    1  0.1998832E-007  0.6790829E+03  0.7818608E-02  0.1009847E+00
          2   -1    0    0  501    0  0.00000000000E+00  0.00000000000E+00  0.49698712008E+03  0.49698712009E+03  0.25500000000E-02 0. -1.
         -2   -1    0    0    0  501 -0.00000000000E+00 -0.00000000000E+00 -0.41903554500E+03  0.41903554500E+03  0.25500000000E-02 0.  1.
    8880023    1    1    2    0    0 -0.15466235239E+03  0.58506107403E+02  0.11187942402E+03  0.68823732799E+03  0.65864270000E+03 0. -1.
    8880022    1    1    2    0    0  0.15466235239E+03 -0.58506107403E+02 -0.33927848939E+02  0.22778533710E+03  0.15294330000E+03 0.  1.
<mgrwt>
<rscale>  0 0.51535397E+03</rscale>
<asrwt>0</asrwt>
<pdfrwt beam="1">  1        2 0.76459557E-01 0.67908292E+03</pdfrwt>
<pdfrwt beam="2">  1       -2 0.64467007E-01 0.67908292E+03</pdfrwt>
<totfact> 0.13972786E+02</totfact>
</mgrwt>
</event>
<event>
 4    1  0.1998832E-007  0.7687436E+03  0.7818608E-02  0.9782975E-01
          2   -1    0    0  501    0  0.00000000000E+00  0.00000000000E+00  0.14262082532E+04  0.14262082532E+04  0.25500000000E-02 0. -1.
         -2   -1    0    0    0  501 -0.00000000000E+00 -0.00000000000E+00 -0.10064283530E+04  0.10064283530E+04  0.25500000000E-02 0.  1.
    8880023    1    1    2    0    0  0.43655883125E+02  0.39401861452E+03 -0.81884639830E+03  0.11231545463E+04  0.65864270000E+03 0.  1.
    8880022    1    1    2    0    0 -0.43655883125E+02 -0.39401861452E+03  0.12386262985E+04  0.13094820598E+04  0.15294330000E+03 0.  0.
<mgrwt>
<rscale>  0 0.66284237E+03</rscale>
<asrwt>0</asrwt>
<pdfrwt beam="1">  1        2 0.21941665E+00 0.76874359E+03</pdfrwt>
<pdfrwt beam="2">  1       -2 0.15483513E+00 0.76874359E+03</pdfrwt>
<totfact> 0.39358736E+00</totfact>
</mgrwt>
</event>
<event>
 4    1  0.1998832E-007  0.6804874E+03  0.7818608E-02  0.1009049E+00
         -2   -1    0    0    0  501 -0.00000000000E+00  0.00000000000E+00  0.10684600506E+04  0.10684600506E+04  0.25500000000E-02 0.  1.
          2   -1    0    0  501    0  0.00000000000E+00 -0.00000000000E+00 -0.64403571529E+03  0.64403571530E+03  0.25500000000E-02 0. -1.
    8880023    1    1    2    0    0 -0.17024115471E+03 -0.16457014300E+02  0.93286243286E+03  0.11546841165E+04  0.65864270000E+03 0.  1.
    8880022    1    1    2    0    0  0.17024115471E+03  0.16457014300E+02 -0.50843809756E+03  0.55781164935E+03  0.15294330000E+03 0.  0.
<mgrwt>
<rscale>  0 0.51854234E+03</rscale>
<asrwt>0</asrwt>
<pdfrwt beam="1">  1        2 0.99082420E-01 0.68048739E+03</pdfrwt>
<pdfrwt beam="2">  1       -2 0.16437847E+00 0.68048739E+03</pdfrwt>
<totfact> 0.10893783E+01</totfact>
</mgrwt>
</event>
<event>
 4    1  0.1998832E-007  0.1137410E+04  0.7818608E-02  0.9220505E-01
         -2   -1    0    0    0  501 -0.00000000000E+00  0.00000000000E+00  0.68251666906E+03  0.68251666906E+03  0.25500000000E-02 0.  1.
          2   -1    0    0  501    0  0.00000000000E+00 -0.00000000000E+00 -0.18764941559E+04  0.18764941559E+04  0.25500000000E-02 0. -1.
    8880023    1    1    2    0    0  0.88940936465E+03 -0.26237755851E+03 -0.13860309616E+03  0.11458237324E+04  0.65864270000E+03 0.  0.
    8880022    1    1    2    0    0 -0.88940936465E+03  0.26237755851E+03 -0.10553743906E+04  0.14131870926E+04  0.15294330000E+03 0.  0.
<mgrwt>
<rscale>  0 0.10844267E+04</rscale>
<asrwt>0</asrwt>
<pdfrwt beam="1">  1        2 0.28869141E+00 0.11374099E+04</pdfrwt>
<pdfrwt beam="2">  1       -2 0.10500257E+00 0.11374099E+04</pdfrwt>
<totfact> 0.56581274E+00</totfact>
</mgrwt>
</event>
<event>
 4    1  0.1998832E-007  0.1454198E+04  0.7818608E-02  0.8942674E-01
         -2   -1    0    0    0  501 -0.00000000000E+00  0.00000000000E+00  0.13830949497E+04  0.13830949498E+04  0.25500000000E-02 0.  1.
          2   -1    0    0  501    0  0.00000000000E+00 -0.00000000000E+00 -0.26545871906E+04  0.26545871906E+04  0.25500000000E-02 0. -1.
    8880023    1    1    2    0    0  0.96661798535E+03 -0.86402101534E+03  0.74620804188E+03  0.16344782937E+04  0.65864270000E+03 0.  0.
    8880022    1    1    2    0    0 -0.96661798535E+03  0.86402101534E+03 -0.20177002827E+04  0.24032038466E+04  0.15294330000E+03 0.  0.
<mgrwt>
<rscale>  0 0.14155010E+04</rscale>
<asrwt>0</asrwt>
<pdfrwt beam="1">  1        2 0.40839803E+00 0.14541984E+04</pdfrwt>
<pdfrwt beam="2">  1       -2 0.21278384E+00 0.14541984E+04</pdfrwt>
<totfact> 0.29335506E-01</totfact>
</mgrwt>
</event>
<event>
 4    1  0.1998832E-007  0.1205021E+04  0.7818608E-02  0.9152257E-01
          2   -1    0    0  501    0  0.00000000000E+00  0.00000000000E+00  0.25476364747E+04  0.25476364747E+04  0.25500000000E-02 0. -1.
         -2   -1    0    0    0  501 -0.00000000000E+00 -0.00000000000E+00 -0.92953889096E+03  0.92953889096E+03  0.25500000000E-02 0.  1.
    8880023    1    1    2    0    0 -0.42872240527E+03  0.91348983315E+03 -0.35458604689E+03  0.12561082943E+04  0.65864270000E+03 0.  1.
    8880022    1    1    2    0    0  0.42872240527E+03 -0.91348983315E+03  0.19726836307E+04  0.22210670714E+04  0.15294330000E+03 0.  0.
<mgrwt>
<rscale>  0 0.11560104E+04</rscale>
<asrwt>0</asrwt>
<pdfrwt beam="1">  1        2 0.39194407E+00 0.12050215E+04</pdfrwt>
<pdfrwt beam="2">  1       -2 0.14300598E+00 0.12050215E+04</pdfrwt>
<totfact> 0.10856293E+00</totfact>
</mgrwt>
</event>
<event>
 4    1  0.1998832E-007  0.1218255E+04  0.7818608E-02  0.9139579E-01
         -2   -1    0    0    0  501 -0.00000000000E+00  0.00000000000E+00  0.45487993551E+03  0.45487993552E+03  0.25500000000E-02 0.  1.
          2   -1    0    0  501    0  0.00000000000E+00 -0.00000000000E+00 -0.39638628083E+04  0.39638628083E+04  0.25500000000E-02 0. -1.
    8880023    1    1    2    0    0  0.10248001162E+04 -0.10894694613E+02 -0.30521550500E+04  0.32863040986E+04  0.65864270000E+03 0.  0.
    8880022    1    1    2    0    0 -0.10248001162E+04  0.10894694613E+02 -0.45682782277E+03  0.11324386453E+04  0.15294330000E+03 0.  0.
<mgrwt>
<rscale>  0 0.11699443E+04</rscale>
<asrwt>0</asrwt>
<pdfrwt beam="1">  1        2 0.60982502E+00 0.12182546E+04</pdfrwt>
<pdfrwt beam="2">  1       -2 0.69981531E-01 0.12182546E+04</pdfrwt>
<totfact> 0.69016336E-01</totfact>
</mgrwt>
</event>
<event>
 4    1  0.1998832E-007  0.1123618E+04  0.7818608E-02  0.9235205E-01
          2   -1    0    0  501    0  0.00000000000E+00  0.00000000000E+00  0.29579461921E+04  0.29579461921E+04  0.25500000000E-02 0. -1.
         -2   -1    0    0    0  501 -0.00000000000E+00 -0.00000000000E+00 -0.71830738164E+03  0.71830738165E+03  0.25500000000E-02 0.  1.
    8880023    1    1    2    0    0  0.76802595429E+03  0.48871652985E+03 -0.13196041087E+03  0.11313405629E+04  0.65864270000E+03 0.  1.
    8880022    1    1    2    0    0 -0.76802595429E+03 -0.48871652985E+03  0.23715992213E+04  0.25449130108E+04  0.15294330000E+03 0.  0.
<mgrwt>
<rscale>  0 0.10697329E+04</rscale>
<asrwt>0</asrwt>
<pdfrwt beam="1">  1        2 0.45506865E+00 0.11236182E+04</pdfrwt>
<pdfrwt beam="2">  1       -2 0.11050883E+00 0.11236182E+04</pdfrwt>
<totfact> 0.12004427E+00</totfact>
</mgrwt>
</event>
<event>
 4    1  0.1998832E-007  0.1389659E+04  0.7818608E-02  0.8991760E-01
         -2   -1    0    0    0  501 -0.00000000000E+00  0.00000000000E+00  0.81757119275E+03  0.81757119276E+03  0.25500000000E-02 0.  1.
          2   -1    0    0  501    0  0.00000000000E+00 -0.00000000000E+00 -0.23646500822E+04  0.23646500822E+04  0.25500000000E-02 0. -1.
    8880023    1    1    2    0    0  0.96088303470E+02  0.12198805691E+04 -0.13424456751E+04  0.19321780875E+04  0.65864270000E+03 0.  0.
    8880022    1    1    2    0    0 -0.96088303470E+02 -0.12198805691E+04 -0.20463321431E+03  0.12500431874E+04  0.15294330000E+03 0.  0.
<mgrwt>
<rscale>  0 0.13487696E+04</rscale>
<asrwt>0</asrwt>
<pdfrwt beam="1">  1        2 0.36379232E+00 0.13896589E+04</pdfrwt>
<pdfrwt beam="2">  1       -2 0.12578018E+00 0.13896589E+04</pdfrwt>
<totfact> 0.18846858E+00</totfact>
</mgrwt>
</event>
<event>
 4    1  0.1998832E-007  0.7451821E+03  0.7818608E-02  0.9845101E-01
         -2   -1    0    0    0  501 -0.00000000000E+00  0.00000000000E+00  0.11821268763E+04  0.11821268763E+04  0.25500000000E-02 0.  1.
          2   -1    0    0  501    0  0.00000000000E+00 -0.00000000000E+00 -0.17897892611E+04  0.17897892611E+04  0.25500000000E-02 0. -1.
    8880023    1    1    2    0    0  0.33057961095E+03 -0.11046865086E+03  0.10408101288E+04  0.12800711435E+04  0.65864270000E+03 0.  1.
    8880022    1    1    2    0    0 -0.33057961095E+03  0.11046865086E+03 -0.16484725136E+04  0.16918449938E+04  0.15294330000E+03 0.  0.
<mgrwt>
<rscale>  0 0.62997320E+03</rscale>
<asrwt>0</asrwt>
<pdfrwt beam="1">  1        2 0.27535219E+00 0.74518213E+03</pdfrwt>
<pdfrwt beam="2">  1       -2 0.18186567E+00 0.74518213E+03</pdfrwt>
<totfact> 0.15958062E+00</totfact>
</mgrwt>
</event>
<event>
 4    1  0.1998832E-007  0.6912908E+03  0.7818608E-02  0.1003545E+00
         -2   -1    0    0    0  501 -0.00000000000E+00  0.00000000000E+00  0.20251589733E+04  0.20251589733E+04  0.25500000000E-02 0.  1.
          2   -1    0    0  501    0  0.00000000000E+00 -0.00000000000E+00 -0.56665431134E+03  0.56665431135E+03  0.25500000000E-02 0. -1.
    8880023    1    1    2    0    0 -0.20582866307E+03 -0.41319950805E+02  0.19318920079E+04  0.20518503145E+04  0.65864270000E+03 0.  1.
    8880022    1    1    2    0    0  0.20582866307E+03  0.41319950805E+02 -0.47338734588E+03  0.53996297015E+03  0.15294330000E+03 0.  0.
<mgrwt>
<rscale>  0 0.54122761E+03</rscale>
<asrwt>0</asrwt>
<pdfrwt beam="1">  1        2 0.87177586E-01 0.69129081E+03</pdfrwt>
<pdfrwt beam="2">  1       -2 0.31156292E+00 0.69129081E+03</pdfrwt>
<totfact> 0.15140330E+00</totfact>
</mgrwt>
</event>
<event>
 4    1  0.1998832E-007  0.6936928E+03  0.7818608E-02  0.1002445E+00
          2   -1    0    0  501    0  0.00000000000E+00  0.00000000000E+00  0.35089248892E+04  0.35089248892E+04  0.25500000000E-02 0. -1.
         -2   -1    0    0    0  501 -0.00000000000E+00 -0.00000000000E+00 -0.32138957069E+03  0.32138957070E+03  0.25500000000E-02 0.  1.
    8880023    1    1    2    0    0 -0.81313411409E+02  0.20195946883E+03  0.65296079015E+02  0.69675912776E+03  0.65864270000E+03 0.  1.
    8880022    1    1    2    0    0  0.81313411409E+02 -0.20195946883E+03  0.31222392395E+04  0.31335553321E+04  0.15294330000E+03 0.  0.
<mgrwt>
<rscale>  0 0.54591215E+03</rscale>
<asrwt>0</asrwt>
<pdfrwt beam="1">  1        2 0.53983456E+00 0.69369280E+03</pdfrwt>
<pdfrwt beam="2">  1       -2 0.49444552E-01 0.69369280E+03</pdfrwt>
<totfact> 0.34121907E+00</totfact>
</mgrwt>
</event>
<event>
 4    1  0.1998832E-007  0.8105125E+03  0.7818608E-02  0.9688510E-01
         -2   -1    0    0    0  501 -0.00000000000E+00  0.00000000000E+00  0.26941605028E+03  0.26941605030E+03  0.25500000000E-02 0.  1.
          2   -1    0    0  501    0  0.00000000000E+00 -0.00000000000E+00 -0.17341284614E+04  0.17341284614E+04  0.25500000000E-02 0. -1.
    8880023    1    1    2    0    0  0.43229076153E+03 -0.19038111677E+03 -0.60743988477E+03  0.10128739764E+04  0.65864270000E+03 0.  0.
    8880022    1    1    2    0    0 -0.43229076153E+03  0.19038111677E+03 -0.85727252633E+03  0.99067053532E+03  0.15294330000E+03 0.  0.
<mgrwt>
<rscale>  0 0.71705013E+03</rscale>
<asrwt>0</asrwt>
<pdfrwt beam="1">  1        2 0.26678899E+00 0.81051248E+03</pdfrwt>
<pdfrwt beam="2">  1       -2 0.41448624E-01 0.81051248E+03</pdfrwt>
<totfact> 0.52722267E+01</totfact>
</mgrwt>
</event>
<event>
 4    1  0.1998832E-007  0.6672138E+03  0.7818608E-02  0.1017744E+00
          2   -1    0    0  501    0  0.00000000000E+00  0.00000000000E+00  0.89367274371E+03  0.89367274371E+03  0.25500000000E-02 0. -1.
         -2   -1    0    0    0  501 -0.00000000000E+00 -0.00000000000E+00 -0.72045072809E+03  0.72045072809E+03  0.25500000000E-02 0.  1.
    8880023    1    1    2    0    0 -0.99582626040E+02 -0.38043900152E+02 -0.55160614820E+03  0.86570409884E+03  0.65864270000E+03 0.  1.
    8880022    1    1    2    0    0  0.99582626040E+02  0.38043900152E+02  0.72482816382E+03  0.74841937297E+03  0.15294330000E+03 0.  0.
<mgrwt>
<rscale>  0 0.48509523E+03</rscale>
<asrwt>0</asrwt>
<pdfrwt beam="1">  1        2 0.13748811E+00 0.66721379E+03</pdfrwt>
<pdfrwt beam="2">  1       -2 0.11083857E+00 0.66721379E+03</pdfrwt>
<totfact> 0.19569841E+01</totfact>
</mgrwt>
</event>
<event>
 4    1  0.1998832E-007  0.1185465E+04  0.7818608E-02  0.9171382E-01
          2   -1    0    0  501    0  0.00000000000E+00  0.00000000000E+00  0.15563450196E+04  0.15563450196E+04  0.25500000000E-02 0. -1.
         -2   -1    0    0    0  501 -0.00000000000E+00 -0.00000000000E+00 -0.10870854551E+04  0.10870854551E+04  0.25500000000E-02 0.  1.
    8880023    1    1    2    0    0 -0.71443523619E+03  0.67904323486E+03 -0.46820991224E+03  0.12745776358E+04  0.65864270000E+03 0.  0.
    8880022    1    1    2    0    0  0.71443523619E+03 -0.67904323486E+03  0.93746947676E+03  0.13688528388E+04  0.15294330000E+03 0.  0.
<mgrwt>
<rscale>  0 0.11353755E+04</rscale>
<asrwt>0</asrwt>
<pdfrwt beam="1">  1        2 0.23943769E+00 0.11854652E+04</pdfrwt>
<pdfrwt beam="2">  1       -2 0.16724392E+00 0.11854652E+04</pdfrwt>
<totfact> 0.25588485E+00</totfact>
</mgrwt>
</event>
<event>
 4    1  0.1998832E-007  0.1285300E+04  0.7818608E-02  0.9078359E-01
         -2   -1    0    0    0  501 -0.00000000000E+00  0.00000000000E+00  0.17795556486E+04  0.17795556486E+04  0.25500000000E-02 0.  1.
          2   -1    0    0  501    0  0.00000000000E+00 -0.00000000000E+00 -0.12008955383E+04  0.12008955383E+04  0.25500000000E-02 0. -1.
    8880023    1    1    2    0    0 -0.80119136068E+03 -0.75913011796E+03 -0.54673841271E+03  0.13967531030E+04  0.65864270000E+03 0.  0.
    8880022    1    1    2    0    0  0.80119136068E+03  0.75913011796E+03  0.11253985230E+04  0.15836980839E+04  0.15294330000E+03 0.  0.
<mgrwt>
<rscale>  0 0.12402240E+04</rscale>
<asrwt>0</asrwt>
<pdfrwt beam="1">  1        2 0.18475316E+00 0.12853001E+04</pdfrwt>
<pdfrwt beam="2">  1       -2 0.27377779E+00 0.12853001E+04</pdfrwt>
<totfact> 0.83890112E-01</totfact>
</mgrwt>
</event>
<event>
 4    1  0.1998832E-007  0.1523759E+04  0.7818608E-02  0.8893038E-01
          2   -1    0    0  501    0  0.00000000000E+00  0.00000000000E+00  0.21451606609E+04  0.21451606609E+04  0.25500000000E-02 0. -1.
         -2   -1    0    0    0  501 -0.00000000000E+00 -0.00000000000E+00 -0.11837057222E+04  0.11837057222E+04  0.25500000000E-02 0.  1.
    8880023    1    1    2    0    0 -0.95824255333E+03  0.98478571447E+03 -0.18219014917E+03  0.15346123781E+04  0.65864270000E+03 0.  0.
    8880022    1    1    2    0    0  0.95824255333E+03 -0.98478571447E+03  0.11436450878E+04  0.17942540050E+04  0.15294330000E+03 0.  0.
<mgrwt>
<rscale>  0 0.14871571E+04</rscale>
<asrwt>0</asrwt>
<pdfrwt beam="1">  1        2 0.33002471E+00 0.15237591E+04</pdfrwt>
<pdfrwt beam="2">  1       -2 0.18210858E+00 0.15237591E+04</pdfrwt>
<totfact> 0.91222404E-01</totfact>
</mgrwt>
</event>
<event>
 4    1  0.1998832E-007  0.1498614E+04  0.7818608E-02  0.8910616E-01
         -2   -1    0    0    0  501 -0.00000000000E+00  0.00000000000E+00  0.26782000567E+04  0.26782000567E+04  0.25500000000E-02 0.  1.
          2   -1    0    0  501    0  0.00000000000E+00 -0.00000000000E+00 -0.10522733349E+04  0.10522733349E+04  0.25500000000E-02 0. -1.
    8880023    1    1    2    0    0  0.12632798184E+04 -0.46492615673E+03  0.18246653197E+04  0.23611958762E+04  0.65864270000E+03 0.  0.
    8880022    1    1    2    0    0 -0.12632798184E+04  0.46492615673E+03 -0.19873859786E+03  0.13692775154E+04  0.15294330000E+03 0.  0.
<mgrwt>
<rscale>  0 0.14612828E+04</rscale>
<asrwt>0</asrwt>
<pdfrwt beam="1">  1        2 0.16188821E+00 0.14986135E+04</pdfrwt>
<pdfrwt beam="2">  1       -2 0.41203078E+00 0.14986135E+04</pdfrwt>
<totfact> 0.13698807E-01</totfact>
</mgrwt>
</event>
<event>
 4    1  0.1998832E-007  0.7469660E+03  0.7818608E-02  0.9840101E-01
         -2   -1    0    0    0  501 -0.00000000000E+00  0.00000000000E+00  0.10831975166E+04  0.10831975166E+04  0.25500000000E-02 0.  1.
          2   -1    0    0  501    0  0.00000000000E+00 -0.00000000000E+00 -0.55485436729E+03  0.55485436729E+03  0.25500000000E-02 0. -1.
    8880023    1    1    2    0    0 -0.29702016099E+03  0.18954407995E+03  0.85392259184E+03  0.11345227778E+04  0.65864270000E+03 0.  0.
    8880022    1    1    2    0    0  0.29702016099E+03 -0.18954407995E+03 -0.32557944251E+03  0.50352910609E+03  0.15294330000E+03 0.  0.
<mgrwt>
<rscale>  0 0.63254172E+03</rscale>
<asrwt>0</asrwt>
<pdfrwt beam="1">  1        2 0.85362211E-01 0.74696596E+03</pdfrwt>
<pdfrwt beam="2">  1       -2 0.16664577E+00 0.74696596E+03</pdfrwt>
<totfact> 0.12466165E+01</totfact>
</mgrwt>
</event>
<event>
 4    1  0.1998832E-007  0.1054418E+04  0.7818608E-02  0.9313589E-01
         -2   -1    0    0    0  501 -0.00000000000E+00  0.00000000000E+00  0.20127874961E+04  0.20127874961E+04  0.25500000000E-02 0.  1.
          2   -1    0    0  501    0  0.00000000000E+00 -0.00000000000E+00 -0.10059580398E+04  0.10059580398E+04  0.25500000000E-02 0. -1.
    8880023    1    1    2    0    0 -0.77246284832E+03 -0.28511024583E+03  0.16532016592E+04  0.19608346785E+04  0.65864270000E+03 0.  0.
    8880022    1    1    2    0    0  0.77246284832E+03  0.28511024583E+03 -0.64637220295E+03  0.10579108573E+04  0.15294330000E+03 0.  0.
<mgrwt>
<rscale>  0 0.99541365E+03</rscale>
<asrwt>0</asrwt>
<pdfrwt beam="1">  1        2 0.15476278E+00 0.10544178E+04</pdfrwt>
<pdfrwt beam="2">  1       -2 0.30965961E+00 0.10544178E+04</pdfrwt>
<totfact> 0.69059877E-01</totfact>
</mgrwt>
</event>
<event>
 4    1  0.1998832E-007  0.7240136E+03  0.7818608E-02  0.9909232E-01
         -2   -1    0    0    0  501 -0.00000000000E+00  0.00000000000E+00  0.40590345713E+03  0.40590345713E+03  0.25500000000E-02 0.  1.
          2   -1    0    0  501    0  0.00000000000E+00 -0.00000000000E+00 -0.12330478115E+04  0.12330478115E+04  0.25500000000E-02 0. -1.
    8880023    1    1    2    0    0  0.22875450277E+03 -0.19508159897E+03  0.22954645426E+02  0.72437737044E+03  0.65864270000E+03 0.  1.
    8880022    1    1    2    0    0 -0.22875450277E+03  0.19508159897E+03 -0.85009899980E+03  0.91457389820E+03  0.15294330000E+03 0.  0.
<mgrwt>
<rscale>  0 0.59815935E+03</rscale>
<asrwt>0</asrwt>
<pdfrwt beam="1">  1        2 0.18969966E+00 0.72401358E+03</pdfrwt>
<pdfrwt beam="2">  1       -2 0.62446686E-01 0.72401358E+03</pdfrwt>
<totfact> 0.43969699E+01</totfact>
</mgrwt>
</event>
<event>
 4    1  0.1998832E-007  0.6607152E+03  0.7818608E-02  0.1023435E+00
          2   -1    0    0  501    0  0.00000000000E+00  0.00000000000E+00  0.10193861009E+04  0.10193861009E+04  0.25500000000E-02 0. -1.
         -2   -1    0    0    0  501 -0.00000000000E+00 -0.00000000000E+00 -0.33592177633E+03  0.33592177634E+03  0.25500000000E-02 0.  1.
    8880023    1    1    2    0    0 -0.48107317669E+02 -0.20494934727E+02  0.79897604029E+01  0.66076349695E+03  0.65864270000E+03 0.  1.
    8880022    1    1    2    0    0  0.48107317669E+02  0.20494934727E+02  0.67547456421E+03  0.69454438034E+03  0.15294330000E+03 0.  0.
<mgrwt>
<rscale>  0 0.46467023E+03</rscale>
<asrwt>0</asrwt>
<pdfrwt beam="1">  1        2 0.15682863E+00 0.66071519E+03</pdfrwt>
<pdfrwt beam="2">  1       -2 0.51680274E-01 0.66071519E+03</pdfrwt>
<totfact> 0.88431467E+01</totfact>
</mgrwt>
</event>
<event>
 4    1  0.1998832E-007  0.8369394E+03  0.7818608E-02  0.9635978E-01
          2   -1    0    0  501    0  0.00000000000E+00  0.00000000000E+00  0.11872463109E+04  0.11872463109E+04  0.25500000000E-02 0. -1.
         -2   -1    0    0    0  501 -0.00000000000E+00 -0.00000000000E+00 -0.80756667070E+03  0.80756667070E+03  0.25500000000E-02 0.  1.
    8880023    1    1    2    0    0  0.50695181956E+03 -0.98271116662E+02 -0.49151264650E+03  0.97059376036E+03  0.65864270000E+03 0.  0.
    8880022    1    1    2    0    0 -0.50695181956E+03  0.98271116662E+02  0.87119228665E+03  0.10242192212E+04  0.15294330000E+03 0. -1.
<mgrwt>
<rscale>  0 0.74959975E+03</rscale>
<asrwt>0</asrwt>
<pdfrwt beam="1">  1        2 0.18265328E+00 0.83693940E+03</pdfrwt>
<pdfrwt beam="2">  1       -2 0.12424103E+00 0.83693940E+03</pdfrwt>
<totfact> 0.94719004E+00</totfact>
</mgrwt>
</event>
<event>
 4    1  0.1998832E-007  0.1234868E+04  0.7818608E-02  0.9123951E-01
          2   -1    0    0  501    0  0.00000000000E+00  0.00000000000E+00  0.14514528279E+04  0.14514528279E+04  0.25500000000E-02 0. -1.
         -2   -1    0    0    0  501 -0.00000000000E+00 -0.00000000000E+00 -0.11656516355E+04  0.11656516355E+04  0.25500000000E-02 0.  1.
    8880023    1    1    2    0    0 -0.48482252941E+02 -0.10434263362E+04 -0.46729365431E+03  0.13203267072E+04  0.65864270000E+03 0.  0.
    8880022    1    1    2    0    0  0.48482252941E+02  0.10434263362E+04  0.75309484666E+03  0.12967777562E+04  0.15294330000E+03 0.  0.
<mgrwt>
<rscale>  0 0.11874067E+04</rscale>
<asrwt>0</asrwt>
<pdfrwt beam="1">  1        2 0.22330044E+00 0.12348681E+04</pdfrwt>
<pdfrwt beam="2">  1       -2 0.17933102E+00 0.12348681E+04</pdfrwt>
<totfact> 0.23970493E+00</totfact>
</mgrwt>
</event>
<event>
 4    1  0.1998832E-007  0.1053490E+04  0.7818608E-02  0.9314697E-01
         -2   -1    0    0    0  501 -0.00000000000E+00  0.00000000000E+00  0.12084192300E+04  0.12084192300E+04  0.25500000000E-02 0.  1.
          2   -1    0    0  501    0  0.00000000000E+00 -0.00000000000E+00 -0.11458167765E+04  0.11458167765E+04  0.25500000000E-02 0. -1.
    8880023    1    1    2    0    0  0.80334070933E+03 -0.17514293254E+03  0.73214994828E+03  0.12829205334E+04  0.65864270000E+03 0.  1.
    8880022    1    1    2    0    0 -0.80334070933E+03  0.17514293254E+03 -0.66954749472E+03  0.10713154730E+04  0.15294330000E+03 0.  0.
<mgrwt>
<rscale>  0 0.99440971E+03</rscale>
<asrwt>0</asrwt>
<pdfrwt beam="1">  1        2 0.17627950E+00 0.10534902E+04</pdfrwt>
<pdfrwt beam="2">  1       -2 0.18591065E+00 0.10534902E+04</pdfrwt>
<totfact> 0.33251292E+00</totfact>
</mgrwt>
</event>
<event>
 4    1  0.1998832E-007  0.7393446E+03  0.7818608E-02  0.9861860E-01
         -2   -1    0    0    0  501 -0.00000000000E+00  0.00000000000E+00  0.14165652882E+04  0.14165652882E+04  0.25500000000E-02 0.  1.
          2   -1    0    0  501    0  0.00000000000E+00 -0.00000000000E+00 -0.11048425449E+04  0.11048425449E+04  0.25500000000E-02 0. -1.
    8880023    1    1    2    0    0  0.33262485757E+03  0.46700181893E+02  0.12838830016E+04  0.14815485044E+04  0.65864270000E+03 0.  0.
    8880022    1    1    2    0    0 -0.33262485757E+03 -0.46700181893E+02 -0.97216025825E+03  0.10398593288E+04  0.15294330000E+03 0.  0.
<mgrwt>
<rscale>  0 0.62145836E+03</rscale>
<asrwt>0</asrwt>
<pdfrwt beam="1">  1        2 0.16997578E+00 0.73934458E+03</pdfrwt>
<pdfrwt beam="2">  1       -2 0.21793312E+00 0.73934458E+03</pdfrwt>
<totfact> 0.22713664E+00</totfact>
</mgrwt>
</event>
<event>
 4    1  0.1998832E-007  0.7577517E+03  0.7818608E-02  0.9810963E-01
          2   -1    0    0  501    0  0.00000000000E+00  0.00000000000E+00  0.80034529344E+03  0.80034529345E+03  0.25500000000E-02 0. -1.
         -2   -1    0    0    0  501 -0.00000000000E+00 -0.00000000000E+00 -0.21331452406E+04  0.21331452406E+04  0.25500000000E-02 0.  1.
    8880023    1    1    2    0    0  0.35659078427E+03  0.11498024147E+03 -0.20080474066E+04  0.21462623411E+04  0.65864270000E+03 0.  0.
    8880022    1    1    2    0    0 -0.35659078427E+03 -0.11498024147E+03  0.67524745942E+03  0.78722819298E+03  0.15294330000E+03 0.  0.
<mgrwt>
<rscale>  0 0.64777501E+03</rscale>
<asrwt>0</asrwt>
<pdfrwt beam="1">  1        2 0.12313005E+00 0.75775171E+03</pdfrwt>
<pdfrwt beam="2">  1       -2 0.32817619E+00 0.75775171E+03</pdfrwt>
<totfact> 0.77005512E-01</totfact>
</mgrwt>
</event>
<event>
 4    1  0.1998832E-007  0.1381174E+04  0.7818608E-02  0.8998451E-01
         -2   -1    0    0    0  501 -0.00000000000E+00  0.00000000000E+00  0.23511321104E+04  0.23511321104E+04  0.25500000000E-02 0.  1.
          2   -1    0    0  501    0  0.00000000000E+00 -0.00000000000E+00 -0.18243714293E+04  0.18243714293E+04  0.25500000000E-02 0. -1.
    8880023    1    1    2    0    0  0.11860998337E+04 -0.25883868178E+03  0.18917896849E+04  0.23423297583E+04  0.65864270000E+03 0.  1.
    8880022    1    1    2    0    0 -0.11860998337E+04  0.25883868178E+03 -0.13650290038E+04  0.18331737814E+04  0.15294330000E+03 0.  0.
<mgrwt>
<rscale>  0 0.13399759E+04</rscale>
<asrwt>0</asrwt>
<pdfrwt beam="1">  1        2 0.28067253E+00 0.13811736E+04</pdfrwt>
<pdfrwt beam="2">  1       -2 0.36171263E+00 0.13811736E+04</pdfrwt>
<totfact> 0.10478433E-01</totfact>
</mgrwt>
</event>
<event>
 4    1  0.1998832E-007  0.9780155E+03  0.7818608E-02  0.9410903E-01
         -2   -1    0    0    0  501 -0.00000000000E+00  0.00000000000E+00  0.14326418453E+04  0.14326418453E+04  0.25500000000E-02 0.  1.
          2   -1    0    0  501    0  0.00000000000E+00 -0.00000000000E+00 -0.64500055073E+03  0.64500055074E+03  0.25500000000E-02 0. -1.
    8880023    1    1    2    0    0  0.71696288343E+03  0.93103484433E+02  0.90128382782E+03  0.13299724732E+04  0.65864270000E+03 0.  1.
    8880022    1    1    2    0    0 -0.71696288343E+03 -0.93103484433E+02 -0.11364253328E+03  0.74766992277E+03  0.15294330000E+03 0.  0.
<mgrwt>
<rscale>  0 0.91183841E+03</rscale>
<asrwt>0</asrwt>
<pdfrwt beam="1">  1        2 0.99230855E-01 0.97801546E+03</pdfrwt>
<pdfrwt beam="2">  1       -2 0.22040644E+00 0.97801546E+03</pdfrwt>
<totfact> 0.44494385E+00</totfact>
</mgrwt>
</event>
<event>
 4    1  0.1998832E-007  0.6715030E+03  0.7818608E-02  0.1014608E+00
         -2   -1    0    0    0  501 -0.00000000000E+00  0.00000000000E+00  0.40150199158E+03  0.40150199159E+03  0.25500000000E-02 0.  1.
          2   -1    0    0  501    0  0.00000000000E+00 -0.00000000000E+00 -0.38281384278E+04  0.38281384278E+04  0.25500000000E-02 0. -1.
    8880023    1    1    2    0    0 -0.11971470709E+03 -0.52672593205E+02  0.11586668263E+03  0.68142593697E+03  0.65864270000E+03 0.  1.
    8880022    1    1    2    0    0  0.11971470709E+03  0.52672593205E+02 -0.35425031188E+04  0.35482144824E+04  0.15294330000E+03 0.  0.
<mgrwt>
<rscale>  0 0.49683788E+03</rscale>
<asrwt>0</asrwt>
<pdfrwt beam="1">  1        2 0.58894435E+00 0.67150296E+03</pdfrwt>
<pdfrwt beam="2">  1       -2 0.61769540E-01 0.67150296E+03</pdfrwt>
<totfact> 0.12813446E+00</totfact>
</mgrwt>
</event>
<event>
 4    1  0.1998832E-007  0.1044103E+04  0.7818608E-02  0.9326004E-01
         -2   -1    0    0    0  501 -0.00000000000E+00  0.00000000000E+00  0.83585881430E+03  0.83585881431E+03  0.25500000000E-02 0.  1.
          2   -1    0    0  501    0  0.00000000000E+00 -0.00000000000E+00 -0.16982963651E+04  0.16982963651E+04  0.25500000000E-02 0. -1.
    8880023    1    1    2    0    0  0.79257714982E+03 -0.16781735163E+03  0.32056200012E+03  0.10922048362E+04  0.65864270000E+03 0.  0.
    8880022    1    1    2    0    0 -0.79257714982E+03  0.16781735163E+03 -0.11829995509E+04  0.14419503433E+04  0.15294330000E+03 0.  0.
<mgrwt>
<rscale>  0 0.98423735E+03</rscale>
<asrwt>0</asrwt>
<pdfrwt beam="1">  1        2 0.26127636E+00 0.10441032E+04</pdfrwt>
<pdfrwt beam="2">  1       -2 0.12859366E+00 0.10441032E+04</pdfrwt>
<totfact> 0.43440355E+00</totfact>
</mgrwt>
</event>
<event>
 4    1  0.1998832E-007  0.7258694E+03  0.7818608E-02  0.9903204E-01
         -2   -1    0    0    0  501 -0.00000000000E+00  0.00000000000E+00  0.44369087994E+03  0.44369087994E+03  0.25500000000E-02 0.  1.
          2   -1    0    0  501    0  0.00000000000E+00 -0.00000000000E+00 -0.14732024082E+04  0.14732024082E+04  0.25500000000E-02 0. -1.
    8880023    1    1    2    0    0  0.25724798378E+03  0.16401134011E+03  0.10385377430E+03  0.73326124781E+03  0.65864270000E+03 0.  0.
    8880022    1    1    2    0    0 -0.25724798378E+03 -0.16401134011E+03 -0.11333653026E+04  0.11836320404E+04  0.15294330000E+03 0.  0.
<mgrwt>
<rscale>  0 0.60106255E+03</rscale>
<asrwt>0</asrwt>
<pdfrwt beam="1">  1        2 0.22664652E+00 0.72586944E+03</pdfrwt>
<pdfrwt beam="2">  1       -2 0.68260136E-01 0.72586944E+03</pdfrwt>
<totfact> 0.26484956E+01</totfact>
</mgrwt>
</event>
<event>
 4    1  0.1998832E-007  0.1670459E+04  0.7818608E-02  0.8797795E-01
          2   -1    0    0  501    0  0.00000000000E+00  0.00000000000E+00  0.16121209705E+04  0.16121209705E+04  0.25500000000E-02 0. -1.
         -2   -1    0    0    0  501 -0.00000000000E+00 -0.00000000000E+00 -0.20529610920E+04  0.20529610920E+04  0.25500000000E-02 0.  1.
    8880023    1    1    2    0    0 -0.51414414091E+03  0.14464709652E+04 -0.10864740827E+04  0.19927013297E+04  0.65864270000E+03 0.  0.
    8880022    1    1    2    0    0  0.51414414091E+03 -0.14464709652E+04  0.64563396117E+03  0.16723807329E+04  0.15294330000E+03 0.  0.
<mgrwt>
<rscale>  0 0.16375677E+04</rscale>
<asrwt>0</asrwt>
<pdfrwt beam="1">  1        2 0.24801861E+00 0.16704588E+04</pdfrwt>
<pdfrwt beam="2">  1       -2 0.31584017E+00 0.16704588E+04</pdfrwt>
<totfact> 0.25752563E-01</totfact>
</mgrwt>
</event>
<event>
 4    1  0.1998832E-007  0.8493883E+03  0.7818608E-02  0.9612726E-01
          2   -1    0    0  501    0  0.00000000000E+00  0.00000000000E+00  0.22310621213E+04  0.22310621213E+04  0.25500000000E-02 0. -1.
         -2   -1    0    0    0  501 -0.00000000000E+00 -0.00000000000E+00 -0.28963805268E+03  0.28963805269E+03  0.25500000000E-02 0.  1.
    8880023    1    1    2    0    0  0.13370482968E+03  0.51939708637E+03  0.52527008761E+03  0.99868372672E+03  0.65864270000E+03 0.  0.
    8880022    1    1    2    0    0 -0.13370482968E+03 -0.51939708637E+03  0.14161539811E+04  0.15220164473E+04  0.15294330000E+03 0.  0.
<mgrwt>
<rscale>  0 0.76459612E+03</rscale>
<asrwt>0</asrwt>
<pdfrwt beam="1">  1        2 0.34324031E+00 0.84938832E+03</pdfrwt>
<pdfrwt beam="2">  1       -2 0.44559703E-01 0.84938832E+03</pdfrwt>
<totfact> 0.24276653E+01</totfact>
</mgrwt>
</event>
<event>
 4    1  0.1998832E-007  0.9242397E+03  0.7818608E-02  0.9488189E-01
          2   -1    0    0  501    0  0.00000000000E+00  0.00000000000E+00  0.53535480529E+03  0.53535480530E+03  0.25500000000E-02 0. -1.
         -2   -1    0    0    0  501 -0.00000000000E+00 -0.00000000000E+00 -0.23259098840E+04  0.23259098840E+04  0.25500000000E-02 0.  1.
    8880023    1    1    2    0    0 -0.73830597116E+02 -0.64417217276E+03 -0.19659601765E+04  0.21723762029E+04  0.65864270000E+03 0.  1.
    8880022    1    1    2    0    0  0.73830597116E+02  0.64417217276E+03  0.17540509783E+03  0.68888848632E+03  0.15294330000E+03 0.  0.
<mgrwt>
<rscale>  0 0.85160247E+03</rscale>
<asrwt>0</asrwt>
<pdfrwt beam="1">  1        2 0.82362279E-01 0.92423966E+03</pdfrwt>
<pdfrwt beam="2">  1       -2 0.35783228E+00 0.92423966E+03</pdfrwt>
<totfact> 0.80969595E-01</totfact>
</mgrwt>
</event>
<event>
 4    1  0.1998832E-007  0.1059507E+04  0.7818608E-02  0.9307539E-01
         -2   -1    0    0    0  501 -0.00000000000E+00  0.00000000000E+00  0.96922162522E+03  0.96922162522E+03  0.25500000000E-02 0.  1.
          2   -1    0    0  501    0  0.00000000000E+00 -0.00000000000E+00 -0.16945921065E+04  0.16945921065E+04  0.25500000000E-02 0. -1.
    8880023    1    1    2    0    0  0.24781079479E+03 -0.79204427121E+03  0.50352457727E+03  0.11730692749E+04  0.65864270000E+03 0.  0.
    8880022    1    1    2    0    0 -0.24781079479E+03  0.79204427121E+03 -0.12288950586E+04  0.14907444569E+04  0.15294330000E+03 0.  0.
<mgrwt>
<rscale>  0 0.10009172E+04</rscale>
<asrwt>0</asrwt>
<pdfrwt beam="1">  1        2 0.26070648E+00 0.10595067E+04</pdfrwt>
<pdfrwt beam="2">  1       -2 0.14911102E+00 0.10595067E+04</pdfrwt>
<totfact> 0.29672583E+00</totfact>
</mgrwt>
</event>
<event>
 4    1  0.1998832E-007  0.7306604E+03  0.7818608E-02  0.9888039E-01
          2   -1    0    0  501    0  0.00000000000E+00  0.00000000000E+00  0.93600535406E+03  0.93600535407E+03  0.25500000000E-02 0. -1.
         -2   -1    0    0    0  501 -0.00000000000E+00 -0.00000000000E+00 -0.89181781214E+03  0.89181781214E+03  0.25500000000E-02 0.  1.
    8880023    1    1    2    0    0  0.30787229432E+03  0.72588507501E+02 -0.69561128378E+03  0.10088308607E+04  0.65864270000E+03 0.  1.
    8880022    1    1    2    0    0 -0.30787229432E+03 -0.72588507501E+02  0.73979882570E+03  0.81899230555E+03  0.15294330000E+03 0.  0.
<mgrwt>
<rscale>  0 0.60844504E+03</rscale>
<asrwt>0</asrwt>
<pdfrwt beam="1">  1        2 0.14400082E+00 0.73066042E+03</pdfrwt>
<pdfrwt beam="2">  1       -2 0.13720274E+00 0.73066042E+03</pdfrwt>
<totfact> 0.10697711E+01</totfact>
</mgrwt>
</event>
<event>
 4    1  0.1998832E-007  0.9555793E+03  0.7818608E-02  0.9442132E-01
          2   -1    0    0  501    0  0.00000000000E+00  0.00000000000E+00  0.26249171685E+04  0.26249171685E+04  0.25500000000E-02 0. -1.
         -2   -1    0    0    0  501 -0.00000000000E+00 -0.00000000000E+00 -0.36739416002E+03  0.36739416003E+03  0.25500000000E-02 0.  1.
    8880023    1    1    2    0    0  0.58172709139E+03  0.37538674056E+03  0.46106300772E+03  0.10609952484E+04  0.65864270000E+03 0.  0.
    8880022    1    1    2    0    0 -0.58172709139E+03 -0.37538674056E+03  0.17964600007E+04  0.19313160801E+04  0.15294330000E+03 0.  0.
<mgrwt>
<rscale>  0 0.88688048E+03</rscale>
<asrwt>0</asrwt>
<pdfrwt beam="1">  1        2 0.40383342E+00 0.95557931E+03</pdfrwt>
<pdfrwt beam="2">  1       -2 0.56522176E-01 0.95557931E+03</pdfrwt>
<totfact> 0.88159358E+00</totfact>
</mgrwt>
</event>
<event>
 4    1  0.1998832E-007  0.9405270E+03  0.7818608E-02  0.9463877E-01
         -2   -1    0    0    0  501 -0.00000000000E+00  0.00000000000E+00  0.79818465172E+03  0.79818465173E+03  0.25500000000E-02 0.  1.
          2   -1    0    0  501    0  0.00000000000E+00 -0.00000000000E+00 -0.30013710641E+04  0.30013710641E+04  0.25500000000E-02 0. -1.
    8880023    1    1    2    0    0 -0.61540867801E+03 -0.26842690768E+03  0.46127449194E+03  0.10475520077E+04  0.65864270000E+03 0.  1.
    8880022    1    1    2    0    0  0.61540867801E+03  0.26842690768E+03 -0.26644609043E+04  0.27520037081E+04  0.15294330000E+03 0.  0.
<mgrwt>
<rscale>  0 0.87000250E+03</rscale>
<asrwt>0</asrwt>
<pdfrwt beam="1">  1        2 0.46174939E+00 0.94052701E+03</pdfrwt>
<pdfrwt beam="2">  1       -2 0.12279764E+00 0.94052701E+03</pdfrwt>
<totfact> 0.89593923E-01</totfact>
</mgrwt>
</event>
<event>
 4    1  0.1998832E-007  0.6634252E+03  0.7818608E-02  0.1020893E+00
          2   -1    0    0  501    0  0.00000000000E+00  0.00000000000E+00  0.81838607980E+03  0.81838607981E+03  0.25500000000E-02 0. -1.
         -2   -1    0    0    0  501 -0.00000000000E+00 -0.00000000000E+00 -0.19686893501E+04  0.19686893501E+04  0.25500000000E-02 0.  1.
    8880023    1    1    2    0    0 -0.23749177538E+02 -0.75886654274E+02 -0.19027735803E+04  0.20151129774E+04  0.65864270000E+03 0.  1.
    8880022    1    1    2    0    0  0.23749177538E+02  0.75886654274E+02  0.75247030994E+03  0.77196245252E+03  0.15294330000E+03 0.  0.
<mgrwt>
<rscale>  0 0.47365809E+03</rscale>
<asrwt>0</asrwt>
<pdfrwt beam="1">  1        2 0.12590555E+00 0.66342521E+03</pdfrwt>
<pdfrwt beam="2">  1       -2 0.30287528E+00 0.66342521E+03</pdfrwt>
<totfact> 0.10838834E+00</totfact>
</mgrwt>
</event>
<event>
 4    1  0.2329243E-007  0.8561518E+03  0.7818608E-02  0.9600446E-01
         -2   -1    0    0    0  501 -0.00000000000E+00  0.00000000000E+00  0.14631525968E+04  0.14631525968E+04  0.25500000000E-02 0.  1.
          2   -1    0    0  501    0  0.00000000000E+00 -0.00000000000E+00 -0.21886200363E+04  0.21886200363E+04  0.25500000000E-02 0. -1.
    8880023    1    1    2    0    0  0.43998473473E+03 -0.32496016559E+03  0.12953178656E+04  0.15526893622E+04  0.65864270000E+03 0.  1.
    8880022    1    1    2    0    0 -0.43998473473E+03  0.32496016559E+03 -0.20207853052E+04  0.20990832710E+04  0.15294330000E+03 0.  0.
<mgrwt>
<rscale>  0 0.77266690E+03</rscale>
<asrwt>0</asrwt>
<pdfrwt beam="1">  1        2 0.33671078E+00 0.85615179E+03</pdfrwt>
<pdfrwt beam="2">  1       -2 0.22510040E+00 0.85615179E+03</pdfrwt>
<totfact> 0.49531985E-01</totfact>
</mgrwt>
</event>
<event>
 4    1  0.1998832E-007  0.6605740E+03  0.7818608E-02  0.1023576E+00
         -2   -1    0    0    0  501 -0.00000000000E+00  0.00000000000E+00  0.13052798684E+04  0.13052798684E+04  0.25500000000E-02 0.  1.
          2   -1    0    0  501    0  0.00000000000E+00 -0.00000000000E+00 -0.14907064547E+04  0.14907064547E+04  0.25500000000E-02 0. -1.
    8880023    1    1    2    0    0 -0.49123189391E+02  0.11604654641E+02  0.12167985896E+04  0.13845420794E+04  0.65864270000E+03 0.  1.
    8880022    1    1    2    0    0  0.49123189391E+02 -0.11604654641E+02 -0.14022251760E+04  0.14114442436E+04  0.15294330000E+03 0.  0.
<mgrwt>
<rscale>  0 0.46417965E+03</rscale>
<asrwt>0</asrwt>
<pdfrwt beam="1">  1        2 0.22933945E+00 0.66057396E+03</pdfrwt>
<pdfrwt beam="2">  1       -2 0.20081229E+00 0.66057396E+03</pdfrwt>
<totfact> 0.17725952E+00</totfact>
</mgrwt>
</event>
<event>
 4    1  0.1998832E-007  0.1195651E+04  0.7818608E-02  0.9161362E-01
         -2   -1    0    0    0  501 -0.00000000000E+00  0.00000000000E+00  0.23920248733E+04  0.23920248733E+04  0.25500000000E-02 0.  1.
          2   -1    0    0  501    0  0.00000000000E+00 -0.00000000000E+00 -0.70779241574E+03  0.70779241574E+03  0.25500000000E-02 0. -1.
    8880023    1    1    2    0    0 -0.31215578324E+03  0.94780204369E+03  0.17140192473E+04  0.20898426097E+04  0.65864270000E+03 0.  0.
    8880022    1    1    2    0    0  0.31215578324E+03 -0.94780204369E+03 -0.29786789720E+02  0.10099746793E+04  0.15294330000E+03 0.  0.
<mgrwt>
<rscale>  0 0.11461292E+04</rscale>
<asrwt>0</asrwt>
<pdfrwt beam="1">  1        2 0.10889114E+00 0.11956505E+04</pdfrwt>
<pdfrwt beam="2">  1       -2 0.36800383E+00 0.11956505E+04</pdfrwt>
<totfact> 0.47755351E-01</totfact>
</mgrwt>
</event>
<event>
 4    1  0.1998832E-007  0.6624177E+03  0.7818608E-02  0.1021806E+00
         -2   -1    0    0    0  501 -0.00000000000E+00  0.00000000000E+00  0.24345333728E+03  0.24345333730E+03  0.25500000000E-02 0.  1.
          2   -1    0    0  501    0  0.00000000000E+00 -0.00000000000E+00 -0.17196902017E+04  0.17196902017E+04  0.25500000000E-02 0. -1.
    8880023    1    1    2    0    0 -0.30350052557E+02  0.63764304145E+02 -0.22346341568E+03  0.69909449761E+03  0.65864270000E+03 0.  0.
    8880022    1    1    2    0    0  0.30350052557E+02 -0.63764304145E+02 -0.12527734488E+04  0.12640490414E+04  0.15294330000E+03 0.  0.
<mgrwt>
<rscale>  0 0.47040610E+03</rscale>
<asrwt>0</asrwt>
<pdfrwt beam="1">  1        2 0.26456772E+00 0.66241771E+03</pdfrwt>
<pdfrwt beam="2">  1       -2 0.37454361E-01 0.66241771E+03</pdfrwt>
<totfact> 0.66460569E+01</totfact>
</mgrwt>
</event>
<event>
 4    1  0.1998832E-007  0.1112012E+04  0.7818608E-02  0.9247799E-01
          2   -1    0    0  501    0  0.00000000000E+00  0.00000000000E+00  0.43526442877E+04  0.43526442877E+04  0.25500000000E-02 0. -1.
         -2   -1    0    0    0  501 -0.00000000000E+00 -0.00000000000E+00 -0.59215267066E+03  0.59215267066E+03  0.25500000000E-02 0.  1.
    8880023    1    1    2    0    0  0.51457451964E+03  0.73346638953E+03  0.37697677780E+02  0.11126505300E+04  0.65864270000E+03 0.  0.
    8880022    1    1    2    0    0 -0.51457451964E+03 -0.73346638953E+03  0.37227939393E+04  0.38321464283E+04  0.15294330000E+03 0.  0.
<mgrwt>
<rscale>  0 0.10573396E+04</rscale>
<asrwt>0</asrwt>
<pdfrwt beam="1">  1        2 0.66963759E+00 0.11120117E+04</pdfrwt>
<pdfrwt beam="2">  1       -2 0.91100409E-01 0.11120117E+04</pdfrwt>
<totfact> 0.18197239E-01</totfact>
</mgrwt>
</event>
<event>
 4    1  0.1998832E-007  0.1309985E+04  0.7818608E-02  0.9056985E-01
          2   -1    0    0  501    0  0.00000000000E+00  0.00000000000E+00  0.87671760497E+03  0.87671760497E+03  0.25500000000E-02 0. -1.
         -2   -1    0    0    0  501 -0.00000000000E+00 -0.00000000000E+00 -0.21382341970E+04  0.21382341970E+04  0.25500000000E-02 0.  1.
    8880023    1    1    2    0    0  0.85415142493E+03 -0.74342146028E+03 -0.13344524199E+04  0.18699795698E+04  0.65864270000E+03 0.  0.
    8880022    1    1    2    0    0 -0.85415142493E+03  0.74342146028E+03  0.72935827910E+02  0.11449722321E+04  0.15294330000E+03 0.  0.
<mgrwt>
<rscale>  0 0.12659825E+04</rscale>
<asrwt>0</asrwt>
<pdfrwt beam="1">  1        2 0.13487963E+00 0.13099849E+04</pdfrwt>
<pdfrwt beam="2">  1       -2 0.32895911E+00 0.13099849E+04</pdfrwt>
<totfact> 0.62155891E-01</totfact>
</mgrwt>
</event>
<event>
 4    1  0.1998832E-007  0.1019389E+04  0.7818608E-02  0.9356620E-01
         -2   -1    0    0    0  501 -0.00000000000E+00  0.00000000000E+00  0.33819159808E+03  0.33819159809E+03  0.25500000000E-02 0.  1.
          2   -1    0    0  501    0  0.00000000000E+00 -0.00000000000E+00 -0.39570118434E+04  0.39570118434E+04  0.25500000000E-02 0. -1.
    8880023    1    1    2    0    0 -0.73326176817E+03 -0.26013445307E+03 -0.61956084887E+03  0.11928992439E+04  0.65864270000E+03 0.  1.
    8880022    1    1    2    0    0  0.73326176817E+03  0.26013445307E+03 -0.29992593965E+04  0.31023041976E+04  0.15294330000E+03 0.  0.
<mgrwt>
<rscale>  0 0.95733339E+03</rscale>
<asrwt>0</asrwt>
<pdfrwt beam="1">  1        2 0.60877102E+00 0.10193885E+04</pdfrwt>
<pdfrwt beam="2">  1       -2 0.52029479E-01 0.10193885E+04</pdfrwt>
<totfact> 0.13560419E+00</totfact>
</mgrwt>
</event>
<event>
 4    1  0.1998832E-007  0.9627266E+03  0.7818608E-02  0.9432035E-01
         -2   -1    0    0    0  501 -0.00000000000E+00  0.00000000000E+00  0.11899376833E+04  0.11899376833E+04  0.25500000000E-02 0.  1.
          2   -1    0    0  501    0  0.00000000000E+00 -0.00000000000E+00 -0.25915733743E+04  0.25915733743E+04  0.25500000000E-02 0. -1.
    8880023    1    1    2    0    0 -0.68551213478E+03 -0.15200491493E+03  0.93186851411E+03  0.13398587668E+04  0.65864270000E+03 0.  0.
    8880022    1    1    2    0    0  0.68551213478E+03  0.15200491493E+03 -0.23335042051E+04  0.24416522908E+04  0.15294330000E+03 0.  0.
<mgrwt>
<rscale>  0 0.89485578E+03</rscale>
<asrwt>0</asrwt>
<pdfrwt beam="1">  1        2 0.39870360E+00 0.96272664E+03</pdfrwt>
<pdfrwt beam="2">  1       -2 0.18306734E+00 0.96272664E+03</pdfrwt>
<totfact> 0.53927510E-01</totfact>
</mgrwt>
</event>
<event>
 4    1  0.1998832E-007  0.7863390E+03  0.7818608E-02  0.9741152E-01
         -2   -1    0    0    0  501 -0.00000000000E+00  0.00000000000E+00  0.56618141829E+03  0.56618141830E+03  0.25500000000E-02 0.  1.
          2   -1    0    0  501    0  0.00000000000E+00 -0.00000000000E+00 -0.16624199456E+04  0.16624199456E+04  0.25500000000E-02 0. -1.
    8880023    1    1    2    0    0 -0.32529818123E+03  0.28053512370E+03  0.23559654365E+03  0.82087441182E+03  0.65864270000E+03 0.  1.
    8880022    1    1    2    0    0  0.32529818123E+03 -0.28053512370E+03 -0.13318350710E+04  0.14077269521E+04  0.15294330000E+03 0.  0.
<mgrwt>
<rscale>  0 0.68618612E+03</rscale>
<asrwt>0</asrwt>
<pdfrwt beam="1">  1        2 0.25575691E+00 0.78633903E+03</pdfrwt>
<pdfrwt beam="2">  1       -2 0.87104834E-01 0.78633903E+03</pdfrwt>
<totfact> 0.11991660E+01</totfact>
</mgrwt>
</event>
<event>
 4    1  0.1998832E-007  0.1141823E+04  0.7818608E-02  0.9215860E-01
          2   -1    0    0  501    0  0.00000000000E+00  0.00000000000E+00  0.17080796755E+04  0.17080796755E+04  0.25500000000E-02 0. -1.
         -2   -1    0    0    0  501 -0.00000000000E+00 -0.00000000000E+00 -0.94365615761E+03  0.94365615761E+03  0.25500000000E-02 0.  1.
    8880023    1    1    2    0    0 -0.48976314252E+03 -0.79377707214E+03 -0.34640761776E+03  0.11932134846E+04  0.65864270000E+03 0.  0.
    8880022    1    1    2    0    0  0.48976314252E+03  0.79377707214E+03  0.11108311356E+04  0.14585223484E+04  0.15294330000E+03 0.  0.
<mgrwt>
<rscale>  0 0.10891215E+04</rscale>
<asrwt>0</asrwt>
<pdfrwt beam="1">  1        2 0.26278148E+00 0.11418232E+04</pdfrwt>
<pdfrwt beam="2">  1       -2 0.14517787E+00 0.11418232E+04</pdfrwt>
<totfact> 0.31019882E+00</totfact>
</mgrwt>
</event>
<event>
 4    1  0.1998832E-007  0.1325817E+04  0.7818608E-02  0.9043580E-01
          2   -1    0    0  501    0  0.00000000000E+00  0.00000000000E+00  0.94289439312E+03  0.94289439313E+03  0.25500000000E-02 0. -1.
         -2   -1    0    0    0  501 -0.00000000000E+00 -0.00000000000E+00 -0.19503006918E+04  0.19503006918E+04  0.25500000000E-02 0.  1.
    8880023    1    1    2    0    0  0.69321387818E+03  0.91838697666E+03  0.44706420235E+02  0.13265703864E+04  0.65864270000E+03 0.  0.
    8880022    1    1    2    0    0 -0.69321387818E+03 -0.91838697666E+03 -0.10521127190E+04  0.15666246986E+04  0.15294330000E+03 0.  0.
<mgrwt>
<rscale>  0 0.12824740E+04</rscale>
<asrwt>0</asrwt>
<pdfrwt beam="1">  1        2 0.14506068E+00 0.13258169E+04</pdfrwt>
<pdfrwt beam="2">  1       -2 0.30004626E+00 0.13258169E+04</pdfrwt>
<totfact> 0.84154858E-01</totfact>
</mgrwt>
</event>
<event>
 4    1  0.1998832E-007  0.8928359E+03  0.7818608E-02  0.9537631E-01
         -2   -1    0    0    0  501 -0.00000000000E+00  0.00000000000E+00  0.51010482875E+03  0.51010482876E+03  0.25500000000E-02 0.  1.
          2   -1    0    0  501    0  0.00000000000E+00 -0.00000000000E+00 -0.22705874711E+04  0.22705874711E+04  0.25500000000E-02 0. -1.
    8880023    1    1    2    0    0  0.33533268337E+03 -0.50089701102E+03  0.21725627897E+02  0.89310023701E+03  0.65864270000E+03 0.  0.
    8880022    1    1    2    0    0 -0.33533268337E+03  0.50089701102E+03 -0.17822082703E+04  0.18875920629E+04  0.15294330000E+03 0.  0.
<mgrwt>
<rscale>  0 0.81565365E+03</rscale>
<asrwt>0</asrwt>
<pdfrwt beam="1">  1        2 0.34932114E+00 0.89283595E+03</pdfrwt>
<pdfrwt beam="2">  1       -2 0.78477667E-01 0.89283595E+03</pdfrwt>
<totfact> 0.69383442E+00</totfact>
</mgrwt>
</event>
<event>
 4    1  0.1998832E-007  0.6933208E+03  0.7818608E-02  0.1002613E+00
         -2   -1    0    0    0  501 -0.00000000000E+00  0.00000000000E+00  0.34206425775E+03  0.34206425776E+03  0.25500000000E-02 0.  1.
          2   -1    0    0  501    0  0.00000000000E+00 -0.00000000000E+00 -0.18699748173E+04  0.18699748173E+04  0.25500000000E-02 0. -1.
    8880023    1    1    2    0    0 -0.17468274682E+03  0.12794343017E+03 -0.33320352547E+02  0.69412105250E+03  0.65864270000E+03 0.  1.
    8880022    1    1    2    0    0  0.17468274682E+03 -0.12794343017E+03 -0.14945902070E+04  0.15179180226E+04  0.15294330000E+03 0.  0.
<mgrwt>
<rscale>  0 0.54519389E+03</rscale>
<asrwt>0</asrwt>
<pdfrwt beam="1">  1        2 0.28768843E+00 0.69332084E+03</pdfrwt>
<pdfrwt beam="2">  1       -2 0.52625271E-01 0.69332084E+03</pdfrwt>
<totfact> 0.27904799E+01</totfact>
</mgrwt>
</event>
<event>
 4    1  0.1998832E-007  0.6586644E+03  0.7818608E-02  0.1025569E+00
         -2   -1    0    0    0  501 -0.00000000000E+00  0.00000000000E+00  0.14818961596E+03  0.14818961598E+03  0.25500000000E-02 0.  1.
          2   -1    0    0  501    0  0.00000000000E+00 -0.00000000000E+00 -0.12165337358E+04  0.12165337358E+04  0.25500000000E-02 0. -1.
    8880023    1    1    2    0    0  0.14058156009E+01  0.51552736868E+01 -0.99926950645E+03  0.11968200809E+04  0.65864270000E+03 0.  0.
    8880022    1    1    2    0    0 -0.14058156009E+01 -0.51552736868E+01 -0.69074613434E+02  0.16790327096E+03  0.15294330000E+03 0.  1.
<mgrwt>
<rscale>  0 0.45729554E+03</rscale>
<asrwt>0</asrwt>
<pdfrwt beam="1">  1        2 0.18715903E+00 0.65866438E+03</pdfrwt>
<pdfrwt beam="2">  1       -2 0.22798403E-01 0.65866438E+03</pdfrwt>
<totfact> 0.31797627E+02</totfact>
</mgrwt>
</event>
<event>
 4    1  0.1998832E-007  0.8800624E+03  0.7818608E-02  0.9558827E-01
          2   -1    0    0  501    0  0.00000000000E+00  0.00000000000E+00  0.20093588991E+04  0.20093588991E+04  0.25500000000E-02 0. -1.
         -2   -1    0    0    0  501 -0.00000000000E+00 -0.00000000000E+00 -0.44739659850E+03  0.44739659851E+03  0.25500000000E-02 0.  1.
    8880023    1    1    2    0    0 -0.58012261720E+03  0.64477371331E+02  0.11314117490E+03  0.88730531054E+03  0.65864270000E+03 0.  0.
    8880022    1    1    2    0    0  0.58012261720E+03 -0.64477371331E+02  0.14488211257E+04  0.15694501870E+04  0.15294330000E+03 0.  0.
<mgrwt>
<rscale>  0 0.80082269E+03</rscale>
<asrwt>0</asrwt>
<pdfrwt beam="1">  1        2 0.30913214E+00 0.88006238E+03</pdfrwt>
<pdfrwt beam="2">  1       -2 0.68830246E-01 0.88006238E+03</pdfrwt>
<totfact> 0.12950495E+01</totfact>
</mgrwt>
</event>
<event>
 4    1  0.1998832E-007  0.7017387E+03  0.7818608E-02  0.9990063E-01
         -2   -1    0    0    0  501 -0.00000000000E+00  0.00000000000E+00  0.74710231718E+03  0.74710231718E+03  0.25500000000E-02 0.  1.
          2   -1    0    0  501    0  0.00000000000E+00 -0.00000000000E+00 -0.47364363596E+03  0.47364363597E+03  0.25500000000E-02 0. -1.
    8880023    1    1    2    0    0 -0.23561686175E+03  0.55782828582E+02  0.49492715845E+03  0.85871422950E+03  0.65864270000E+03 0.  0.
    8880022    1    1    2    0    0  0.23561686175E+03 -0.55782828582E+02 -0.22146847724E+03  0.36203172365E+03  0.15294330000E+03 0.  0.
<mgrwt>
<rscale>  0 0.56088094E+03</rscale>
<asrwt>0</asrwt>
<pdfrwt beam="1">  1        2 0.72868252E-01 0.70173872E+03</pdfrwt>
<pdfrwt beam="2">  1       -2 0.11493882E+00 0.70173872E+03</pdfrwt>
<totfact> 0.39310764E+01</totfact>
</mgrwt>
</event>
<event>
 4    1  0.1998832E-007  0.9812873E+03  0.7818608E-02  0.9406460E-01
          2   -1    0    0  501    0  0.00000000000E+00  0.00000000000E+00  0.20279870762E+04  0.20279870762E+04  0.25500000000E-02 0. -1.
         -2   -1    0    0    0  501 -0.00000000000E+00 -0.00000000000E+00 -0.69709701107E+03  0.69709701107E+03  0.25500000000E-02 0.  1.
    8880023    1    1    2    0    0  0.78913423183E+02  0.72310947330E+03 -0.21966246243E+03  0.10055726937E+04  0.65864270000E+03 0. -1.
    8880022    1    1    2    0    0 -0.78913423183E+02 -0.72310947330E+03  0.15505525276E+04  0.17195113936E+04  0.15294330000E+03 0.  0.
<mgrwt>
<rscale>  0 0.91545985E+03</rscale>
<asrwt>0</asrwt>
<pdfrwt beam="1">  1        2 0.31199801E+00 0.98128734E+03</pdfrwt>
<pdfrwt beam="2">  1       -2 0.10724569E+00 0.98128734E+03</pdfrwt>
<totfact> 0.45148465E+00</totfact>
</mgrwt>
</event>
<event>
 4    1  0.1998832E-007  0.1072058E+04  0.7818608E-02  0.9292823E-01
          2   -1    0    0  501    0  0.00000000000E+00  0.00000000000E+00  0.22738158782E+04  0.22738158782E+04  0.25500000000E-02 0. -1.
         -2   -1    0    0    0  501 -0.00000000000E+00 -0.00000000000E+00 -0.51522422567E+03  0.51522422568E+03  0.25500000000E-02 0.  1.
    8880023    1    1    2    0    0  0.68305710460E+02 -0.84310914349E+03  0.32986063393E+03  0.11216581217E+04  0.65864270000E+03 0.  0.
    8880022    1    1    2    0    0 -0.68305710460E+02  0.84310914349E+03  0.14287310186E+04  0.16673819822E+04  0.15294330000E+03 0.  0.
<mgrwt>
<rscale>  0 0.10144632E+04</rscale>
<asrwt>0</asrwt>
<pdfrwt beam="1">  1        2 0.34981783E+00 0.10720583E+04</pdfrwt>
<pdfrwt beam="2">  1       -2 0.79265265E-01 0.10720583E+04</pdfrwt>
<totfact> 0.66054004E+00</totfact>
</mgrwt>
</event>
<event>
 4    1  0.1998832E-007  0.8247353E+03  0.7818608E-02  0.9659664E-01
         -2   -1    0    0    0  501 -0.00000000000E+00  0.00000000000E+00  0.43596681303E+03  0.43596681304E+03  0.25500000000E-02 0.  1.
          2   -1    0    0  501    0  0.00000000000E+00 -0.00000000000E+00 -0.15046785699E+04  0.15046785699E+04  0.25500000000E-02 0. -1.
    8880023    1    1    2    0    0 -0.44212609896E+03  0.22561592379E+03 -0.86113448517E+02  0.82921876771E+03  0.65864270000E+03 0.  0.
    8880022    1    1    2    0    0  0.44212609896E+03 -0.22561592379E+03 -0.98259830836E+03  0.11114266152E+04  0.15294330000E+03 0.  0.
<mgrwt>
<rscale>  0 0.73470004E+03</rscale>
<asrwt>0</asrwt>
<pdfrwt beam="1">  1        2 0.23148901E+00 0.82473525E+03</pdfrwt>
<pdfrwt beam="2">  1       -2 0.67071818E-01 0.82473525E+03</pdfrwt>
<totfact> 0.26128902E+01</totfact>
</mgrwt>
</event>
<event>
 4    1  0.1998832E-007  0.8909387E+03  0.7818608E-02  0.9540737E-01
          2   -1    0    0  501    0  0.00000000000E+00  0.00000000000E+00  0.11527327122E+04  0.11527327122E+04  0.25500000000E-02 0. -1.
         -2   -1    0    0    0  501 -0.00000000000E+00 -0.00000000000E+00 -0.15367242554E+04  0.15367242554E+04  0.25500000000E-02 0.  1.
    8880023    1    1    2    0    0 -0.30637225036E+03 -0.51584653546E+03 -0.13047295541E+04  0.15799022184E+04  0.65864270000E+03 0.  0.
    8880022    1    1    2    0    0  0.30637225036E+03  0.51584653546E+03  0.92073801089E+03  0.11095547493E+04  0.15294330000E+03 0.  0.
<mgrwt>
<rscale>  0 0.81345919E+03</rscale>
<asrwt>0</asrwt>
<pdfrwt beam="1">  1        2 0.17734349E+00 0.89093872E+03</pdfrwt>
<pdfrwt beam="2">  1       -2 0.23641912E+00 0.89093872E+03</pdfrwt>
<totfact> 0.15929732E+00</totfact>
</mgrwt>
</event>
<event>
 4    1  0.1998832E-007  0.6699213E+03  0.7818608E-02  0.1015719E+00
          2   -1    0    0  501    0  0.00000000000E+00  0.00000000000E+00  0.58609308695E+03  0.58609308696E+03  0.25500000000E-02 0. -1.
         -2   -1    0    0    0  501 -0.00000000000E+00 -0.00000000000E+00 -0.11573307496E+04  0.11573307496E+04  0.25500000000E-02 0.  1.
    8880023    1    1    2    0    0 -0.83719487859E+02 -0.89305303268E+02 -0.10390262993E+04  0.12362727234E+04  0.65864270000E+03 0.  1.
    8880022    1    1    2    0    0  0.83719487859E+02  0.89305303268E+02  0.46778863670E+03  0.50715111306E+03  0.15294330000E+03 0.  0.
<mgrwt>
<rscale>  0 0.49263513E+03</rscale>
<asrwt>0</asrwt>
<pdfrwt beam="1">  1        2 0.90168168E-01 0.66992134E+03</pdfrwt>
<pdfrwt beam="2">  1       -2 0.17805088E+00 0.66992134E+03</pdfrwt>
<totfact> 0.97958736E+00</totfact>
</mgrwt>
</event>
<event>
 4    1  0.1998832E-007  0.1255622E+04  0.7818608E-02  0.9104863E-01
          2   -1    0    0  501    0  0.00000000000E+00  0.00000000000E+00  0.20308190372E+04  0.20308190372E+04  0.25500000000E-02 0. -1.
         -2   -1    0    0    0  501 -0.00000000000E+00 -0.00000000000E+00 -0.78480839440E+03  0.78480839441E+03  0.25500000000E-02 0.  1.
    8880023    1    1    2    0    0  0.29109326276E+03  0.10286109650E+04  0.12943833828E+03  0.12622758394E+04  0.65864270000E+03 0.  0.
    8880022    1    1    2    0    0 -0.29109326276E+03 -0.10286109650E+04  0.11165723045E+04  0.15533515923E+04  0.15294330000E+03 0.  0.
<mgrwt>
<rscale>  0 0.12091752E+04</rscale>
<asrwt>0</asrwt>
<pdfrwt beam="1">  1        2 0.31243369E+00 0.12556218E+04</pdfrwt>
<pdfrwt beam="2">  1       -2 0.12073975E+00 0.12556218E+04</pdfrwt>
<totfact> 0.32603209E+00</totfact>
</mgrwt>
</event>
<event>
 4    1  0.1998832E-007  0.9754187E+03  0.7818608E-02  0.9414449E-01
         -2   -1    0    0    0  501 -0.00000000000E+00  0.00000000000E+00  0.17493762770E+04  0.17493762770E+04  0.25500000000E-02 0.  1.
          2   -1    0    0  501    0  0.00000000000E+00 -0.00000000000E+00 -0.10970217675E+04  0.10970217675E+04  0.25500000000E-02 0. -1.
    8880023    1    1    2    0    0 -0.30788672447E+02 -0.71880695118E+03  0.14588217597E+04  0.17548796278E+04  0.65864270000E+03 0.  1.
    8880022    1    1    2    0    0  0.30788672447E+02  0.71880695118E+03 -0.80646725019E+03  0.10915184167E+04  0.15294330000E+03 0.  0.
<mgrwt>
<rscale>  0 0.90896104E+03</rscale>
<asrwt>0</asrwt>
<pdfrwt beam="1">  1        2 0.16877258E+00 0.97541867E+03</pdfrwt>
<pdfrwt beam="2">  1       -2 0.26913481E+00 0.97541867E+03</pdfrwt>
<totfact> 0.10763184E+00</totfact>
</mgrwt>
</event>
<event>
 4    1  0.1998832E-007  0.9533182E+03  0.7818608E-02  0.9445356E-01
         -2   -1    0    0    0  501 -0.00000000000E+00  0.00000000000E+00  0.15011960822E+04  0.15011960822E+04  0.25500000000E-02 0.  1.
          2   -1    0    0  501    0  0.00000000000E+00 -0.00000000000E+00 -0.77967341992E+03  0.77967341992E+03  0.25500000000E-02 0. -1.
    8880023    1    1    2    0    0 -0.39768762518E+03  0.56289427872E+03  0.11195329633E+04  0.14704318000E+04  0.65864270000E+03 0.  0.
    8880022    1    1    2    0    0  0.39768762518E+03 -0.56289427872E+03 -0.39801030104E+03  0.81043770210E+03  0.15294330000E+03 0.  0.
<mgrwt>
<rscale>  0 0.88435239E+03</rscale>
<asrwt>0</asrwt>
<pdfrwt beam="1">  1        2 0.11994976E+00 0.95331822E+03</pdfrwt>
<pdfrwt beam="2">  1       -2 0.23095324E+00 0.95331822E+03</pdfrwt>
<totfact> 0.30078718E+00</totfact>
</mgrwt>
</event>
<event>
 4    1  0.1998832E-007  0.7192598E+03  0.7818608E-02  0.9925098E-01
          2   -1    0    0  501    0  0.00000000000E+00  0.00000000000E+00  0.87688559673E+03  0.87688559673E+03  0.25500000000E-02 0. -1.
         -2   -1    0    0    0  501 -0.00000000000E+00 -0.00000000000E+00 -0.51568140304E+03  0.51568140305E+03  0.25500000000E-02 0.  1.
    8880023    1    1    2    0    0  0.22847333640E+03  0.17698707601E+03 -0.19690645643E+03  0.74572571993E+03  0.65864270000E+03 0.  1.
    8880022    1    1    2    0    0 -0.22847333640E+03 -0.17698707601E+03  0.55811065012E+03  0.64684127985E+03  0.15294330000E+03 0.  0.
<mgrwt>
<rscale>  0 0.59060180E+03</rscale>
<asrwt>0</asrwt>
<pdfrwt beam="1">  1        2 0.13490548E+00 0.71925983E+03</pdfrwt>
<pdfrwt beam="2">  1       -2 0.79335600E-01 0.71925983E+03</pdfrwt>
<totfact> 0.43561590E+01</totfact>
</mgrwt>
</event>
<event>
 4    1  0.1998832E-007  0.7220450E+03  0.7818608E-02  0.9915726E-01
          2   -1    0    0  501    0  0.00000000000E+00  0.00000000000E+00  0.93787433543E+03  0.93787433543E+03  0.25500000000E-02 0. -1.
         -2   -1    0    0    0  501 -0.00000000000E+00 -0.00000000000E+00 -0.45045522489E+03  0.45045522489E+03  0.25500000000E-02 0.  1.
    8880023    1    1    2    0    0  0.28756604778E+03  0.69602798386E+02 -0.84014954677E+02  0.72691643278E+03  0.65864270000E+03 0.  0.
    8880022    1    1    2    0    0 -0.28756604778E+03 -0.69602798386E+02  0.57143406522E+03  0.66141312754E+03  0.15294330000E+03 0.  0.
<mgrwt>
<rscale>  0 0.59505148E+03</rscale>
<asrwt>0</asrwt>
<pdfrwt beam="1">  1        2 0.14428836E+00 0.72204500E+03</pdfrwt>
<pdfrwt beam="2">  1       -2 0.69300804E-01 0.72204500E+03</pdfrwt>
<totfact> 0.53451895E+01</totfact>
</mgrwt>
</event>
<event>
 4    1  0.1998832E-007  0.1132633E+04  0.7818608E-02  0.9225565E-01
         -2   -1    0    0    0  501 -0.00000000000E+00  0.00000000000E+00  0.30707036859E+04  0.30707036859E+04  0.25500000000E-02 0.  1.
          2   -1    0    0  501    0  0.00000000000E+00 -0.00000000000E+00 -0.47304619200E+03  0.47304619201E+03  0.25500000000E-02 0. -1.
    8880023    1    1    2    0    0  0.83131003336E+02  0.91767986662E+03  0.22994363035E+04  0.25632527424E+04  0.65864270000E+03 0.  0.
    8880022    1    1    2    0    0 -0.83131003336E+02 -0.91767986662E+03  0.29822119038E+03  0.98049713550E+03  0.15294330000E+03 0.  0.
<mgrwt>
<rscale>  0 0.10793412E+04</rscale>
<asrwt>0</asrwt>
<pdfrwt beam="1">  1        2 0.72776336E-01 0.11326329E+04</pdfrwt>
<pdfrwt beam="2">  1       -2 0.47241596E+00 0.11326329E+04</pdfrwt>
<totfact> 0.16237875E-01</totfact>
</mgrwt>
</event>
<event>
 4    1  0.1998832E-007  0.1052818E+04  0.7818608E-02  0.9315501E-01
          2   -1    0    0  501    0  0.00000000000E+00  0.00000000000E+00  0.13274067626E+04  0.13274067626E+04  0.25500000000E-02 0. -1.
         -2   -1    0    0    0  501 -0.00000000000E+00 -0.00000000000E+00 -0.71499376497E+03  0.71499376498E+03  0.25500000000E-02 0.  1.
    8880023    1    1    2    0    0 -0.72247847244E+03 -0.39069293734E+03  0.58949095723E+03  0.12066175489E+04  0.65864270000E+03 0. -1.
    8880022    1    1    2    0    0  0.72247847244E+03  0.39069293734E+03  0.22922040363E+02  0.83578297863E+03  0.15294330000E+03 0.  0.
<mgrwt>
<rscale>  0 0.99368239E+03</rscale>
<asrwt>0</asrwt>
<pdfrwt beam="1">  1        2 0.20421642E+00 0.10528183E+04</pdfrwt>
<pdfrwt beam="2">  1       -2 0.10999904E+00 0.10528183E+04</pdfrwt>
<totfact> 0.10353537E+01</totfact>
</mgrwt>
</event>
<event>
 4    1  0.1998832E-007  0.8029593E+03  0.7818608E-02  0.9704434E-01
         -2   -1    0    0    0  501 -0.00000000000E+00  0.00000000000E+00  0.40737333799E+03  0.40737333799E+03  0.25500000000E-02 0.  1.
          2   -1    0    0  501    0  0.00000000000E+00 -0.00000000000E+00 -0.24794477018E+04  0.24794477018E+04  0.25500000000E-02 0. -1.
    8880023    1    1    2    0    0  0.30412692617E+03 -0.34415140217E+03 -0.46605422680E+02  0.80431066543E+03  0.65864270000E+03 0.  1.
    8880022    1    1    2    0    0 -0.30412692617E+03  0.34415140217E+03 -0.20254689412E+04  0.20825103744E+04  0.15294330000E+03 0.  0.
<mgrwt>
<rscale>  0 0.70753425E+03</rscale>
<asrwt>0</asrwt>
<pdfrwt beam="1">  1        2 0.38145348E+00 0.80295926E+03</pdfrwt>
<pdfrwt beam="2">  1       -2 0.62672823E-01 0.80295926E+03</pdfrwt>
<totfact> 0.87784840E+00</totfact>
</mgrwt>
</event>
<event>
 4    1  0.1998832E-007  0.7282567E+03  0.7818608E-02  0.9895578E-01
          2   -1    0    0  501    0  0.00000000000E+00  0.00000000000E+00  0.28582849672E+04  0.28582849672E+04  0.25500000000E-02 0. -1.
         -2   -1    0    0    0  501 -0.00000000000E+00 -0.00000000000E+00 -0.39396151687E+03  0.39396151688E+03  0.25500000000E-02 0.  1.
    8880023    1    1    2    0    0 -0.18314985847E+02  0.31018098378E+03 -0.34947470360E+02  0.72909479037E+03  0.65864270000E+03 0.  1.
    8880022    1    1    2    0    0  0.18314985847E+02 -0.31018098378E+03  0.24992709207E+04  0.25231516937E+04  0.15294330000E+03 0.  0.
<mgrwt>
<rscale>  0 0.60476074E+03</rscale>
<asrwt>0</asrwt>
<pdfrwt beam="1">  1        2 0.43973615E+00 0.72825675E+03</pdfrwt>
<pdfrwt beam="2">  1       -2 0.60609464E-01 0.72825675E+03</pdfrwt>
<totfact> 0.57548766E+00</totfact>
</mgrwt>
</event>
<event>
 4    1  0.1998832E-007  0.1872322E+04  0.7818608E-02  0.8683551E-01
          2   -1    0    0  501    0  0.00000000000E+00  0.00000000000E+00  0.30125301071E+04  0.30125301071E+04  0.25500000000E-02 0. -1.
         -2   -1    0    0    0  501 -0.00000000000E+00 -0.00000000000E+00 -0.11811047956E+04  0.11811047956E+04  0.25500000000E-02 0.  1.
    8880023    1    1    2    0    0 -0.17396298572E+04  0.21322717997E+03  0.37455335015E+03  0.19094183116E+04  0.65864270000E+03 0.  0.
    8880022    1    1    2    0    0  0.17396298572E+04 -0.21322717997E+03  0.14568719613E+04  0.22842165911E+04  0.15294330000E+03 0.  0.
<mgrwt>
<rscale>  0 0.18434055E+04</rscale>
<asrwt>0</asrwt>
<pdfrwt beam="1">  1        2 0.46346617E+00 0.18723216E+04</pdfrwt>
<pdfrwt beam="2">  1       -2 0.18170843E+00 0.18723216E+04</pdfrwt>
<totfact> 0.27376928E-01</totfact>
</mgrwt>
</event>
<event>
 4    1  0.1998832E-007  0.7521774E+03  0.7818608E-02  0.9825797E-01
          2   -1    0    0  501    0  0.00000000000E+00  0.00000000000E+00  0.28190874504E+04  0.28190874504E+04  0.25500000000E-02 0. -1.
         -2   -1    0    0    0  501 -0.00000000000E+00 -0.00000000000E+00 -0.34599971491E+03  0.34599971491E+03  0.25500000000E-02 0.  1.
    8880023    1    1    2    0    0 -0.37258250000E+02  0.36134804501E+03  0.99188056898E+02  0.75868904284E+03  0.65864270000E+03 0.  1.
    8880022    1    1    2    0    0  0.37258250000E+02 -0.36134804501E+03  0.23738996786E+04  0.24063981225E+04  0.15294330000E+03 0.  0.
<mgrwt>
<rscale>  0 0.63996303E+03</rscale>
<asrwt>0</asrwt>
<pdfrwt beam="1">  1        2 0.43370577E+00 0.75217737E+03</pdfrwt>
<pdfrwt beam="2">  1       -2 0.53230724E-01 0.75217737E+03</pdfrwt>
<totfact> 0.79279967E+00</totfact>
</mgrwt>
</event>
<event>
 4    1  0.3324473E-007  0.8172873E+03  0.7818608E-02  0.9674593E-01
          2   -1    0    0  501    0  0.00000000000E+00  0.00000000000E+00  0.24588451892E+04  0.24588451892E+04  0.25500000000E-02 0. -1.
         -2   -1    0    0    0  501 -0.00000000000E+00 -0.00000000000E+00 -0.13242599796E+04  0.13242599796E+04  0.25500000000E-02 0.  1.
    8880023    1    1    2    0    0  0.36196439926E+03 -0.32113874914E+03 -0.11678399608E+04  0.14254152738E+04  0.65864270000E+03 0.  1.
    8880022    1    1    2    0    0 -0.36196439926E+03  0.32113874914E+03  0.23024251704E+04  0.23576898950E+04  0.15294330000E+03 0.  0.
<mgrwt>
<rscale>  0 0.72549871E+03</rscale>
<asrwt>0</asrwt>
<pdfrwt beam="1">  1        2 0.37828387E+00 0.81728730E+03</pdfrwt>
<pdfrwt beam="2">  1       -2 0.20373231E+00 0.81728730E+03</pdfrwt>
<totfact> 0.48171739E-01</totfact>
</mgrwt>
</event>
<event>
 4    1  0.1998832E-007  0.9879971E+03  0.7818608E-02  0.9397432E-01
         -2   -1    0    0    0  501 -0.00000000000E+00  0.00000000000E+00  0.31777230588E+03  0.31777230589E+03  0.25500000000E-02 0.  1.
          2   -1    0    0  501    0  0.00000000000E+00 -0.00000000000E+00 -0.37951466678E+04  0.37951466678E+04  0.25500000000E-02 0. -1.
    8880023    1    1    2    0    0  0.24079566387E+03  0.69594943063E+03 -0.63912018292E+03  0.11766957875E+04  0.65864270000E+03 0.  1.
    8880022    1    1    2    0    0 -0.24079566387E+03 -0.69594943063E+03 -0.28382541790E+04  0.29362231862E+04  0.15294330000E+03 0. -1.
<mgrwt>
<rscale>  0 0.92287300E+03</rscale>
<asrwt>0</asrwt>
<pdfrwt beam="1">  1        2 0.58386869E+00 0.98799715E+03</pdfrwt>
<pdfrwt beam="2">  1       -2 0.48888050E-01 0.98799715E+03</pdfrwt>
<totfact> 0.20590349E+00</totfact>
</mgrwt>
</event>
<event>
 4    1  0.1998832E-007  0.1172354E+04  0.7818608E-02  0.9184476E-01
         -2   -1    0    0    0  501 -0.00000000000E+00  0.00000000000E+00  0.17379384258E+04  0.17379384258E+04  0.25500000000E-02 0.  1.
          2   -1    0    0  501    0  0.00000000000E+00 -0.00000000000E+00 -0.90109566571E+03  0.90109566572E+03  0.25500000000E-02 0. -1.
    8880023    1    1    2    0    0  0.96942668406E+03  0.28541022571E+02  0.11156747290E+04  0.16183766536E+04  0.65864270000E+03 0.  0.
    8880022    1    1    2    0    0 -0.96942668406E+03 -0.28541022571E+02 -0.27883196888E+03  0.10206574379E+04  0.15294330000E+03 0.  0.
<mgrwt>
<rscale>  0 0.11215103E+04</rscale>
<asrwt>0</asrwt>
<pdfrwt beam="1">  1        2 0.13863010E+00 0.11723536E+04</pdfrwt>
<pdfrwt beam="2">  1       -2 0.26737514E+00 0.11723536E+04</pdfrwt>
<totfact> 0.14417301E+00</totfact>
</mgrwt>
</event>
<event>
 4    1  0.1998832E-007  0.9936712E+03  0.7818608E-02  0.9389885E-01
         -2   -1    0    0    0  501 -0.00000000000E+00  0.00000000000E+00  0.90620653636E+03  0.90620653637E+03  0.25500000000E-02 0.  1.
          2   -1    0    0  501    0  0.00000000000E+00 -0.00000000000E+00 -0.15815613941E+04  0.15815613941E+04  0.25500000000E-02 0. -1.
    8880023    1    1    2    0    0  0.70620390705E+03 -0.23419706450E+03  0.48122285395E+03  0.11040642485E+04  0.65864270000E+03 0.  0.
    8880022    1    1    2    0    0 -0.70620390705E+03  0.23419706450E+03 -0.11565777117E+04  0.13837036820E+04  0.15294330000E+03 0.  0.
<mgrwt>
<rscale>  0 0.92912811E+03</rscale>
<asrwt>0</asrwt>
<pdfrwt beam="1">  1        2 0.24331714E+00 0.99367119E+03</pdfrwt>
<pdfrwt beam="2">  1       -2 0.13941639E+00 0.99367119E+03</pdfrwt>
<totfact> 0.41231240E+00</totfact>
</mgrwt>
</event>
<event>
 4    1  0.1998832E-007  0.1045238E+04  0.7818608E-02  0.9324628E-01
         -2   -1    0    0    0  501 -0.00000000000E+00  0.00000000000E+00  0.73016949487E+03  0.73016949488E+03  0.25500000000E-02 0.  1.
          2   -1    0    0  501    0  0.00000000000E+00 -0.00000000000E+00 -0.15475957158E+04  0.15475957158E+04  0.25500000000E-02 0. -1.
    8880023    1    1    2    0    0 -0.38119317434E+03  0.71652250159E+03  0.92008517831E+02  0.10492799936E+04  0.65864270000E+03 0.  1.
    8880022    1    1    2    0    0  0.38119317434E+03 -0.71652250159E+03 -0.90943473880E+03  0.12284852171E+04  0.15294330000E+03 0.  0.
<mgrwt>
<rscale>  0 0.98546866E+03</rscale>
<asrwt>0</asrwt>
<pdfrwt beam="1">  1        2 0.23809165E+00 0.10452382E+04</pdfrwt>
<pdfrwt beam="2">  1       -2 0.11233377E+00 0.10452382E+04</pdfrwt>
<totfact> 0.73777000E+00</totfact>
</mgrwt>
</event>
<event>
 4    1  0.1998832E-007  0.1098025E+04  0.7818608E-02  0.9263259E-01
          2   -1    0    0  501    0  0.00000000000E+00  0.00000000000E+00  0.95067864738E+03  0.95067864738E+03  0.25500000000E-02 0. -1.
         -2   -1    0    0    0  501 -0.00000000000E+00 -0.00000000000E+00 -0.13502195433E+04  0.13502195433E+04  0.25500000000E-02 0.  1.
    8880023    1    1    2    0    0 -0.43310861072E+03 -0.76437212737E+03 -0.76385986220E+03  0.13375873478E+04  0.65864270000E+03 0.  1.
    8880022    1    1    2    0    0  0.43310861072E+03  0.76437212737E+03  0.36431896626E+03  0.96331084286E+03  0.15294330000E+03 0.  0.
<mgrwt>
<rscale>  0 0.10423685E+04</rscale>
<asrwt>0</asrwt>
<pdfrwt beam="1">  1        2 0.14625825E+00 0.10980246E+04</pdfrwt>
<pdfrwt beam="2">  1       -2 0.20772608E+00 0.10980246E+04</pdfrwt>
<totfact> 0.31566407E+00</totfact>
</mgrwt>
</event>
<event>
 4    1  0.1998832E-007  0.6795620E+03  0.7818608E-02  0.1009572E+00
         -2   -1    0    0    0  501 -0.00000000000E+00  0.00000000000E+00  0.24631194492E+03  0.24631194494E+03  0.25500000000E-02 0.  1.
          2   -1    0    0  501    0  0.00000000000E+00 -0.00000000000E+00 -0.33527816705E+04  0.33527816705E+04  0.25500000000E-02 0. -1.
    8880023    1    1    2    0    0  0.12216539795E+03 -0.11432373999E+03 -0.23553382583E+03  0.71922228230E+03  0.65864270000E+03 0.  1.
    8880022    1    1    2    0    0 -0.12216539795E+03  0.11432373999E+03 -0.28709358997E+04  0.28798713331E+04  0.15294330000E+03 0.  0.
<mgrwt>
<rscale>  0 0.51644891E+03</rscale>
<asrwt>0</asrwt>
<pdfrwt beam="1">  1        2 0.51581253E+00 0.67956200E+03</pdfrwt>
<pdfrwt beam="2">  1       -2 0.37894148E-01 0.67956200E+03</pdfrwt>
<totfact> 0.73684680E+00</totfact>
</mgrwt>
</event>
<event>
 4    1  0.1998832E-007  0.7152989E+03  0.7818608E-02  0.9938826E-01
         -2   -1    0    0    0  501 -0.00000000000E+00  0.00000000000E+00  0.17422155117E+03  0.17422155119E+03  0.25500000000E-02 0.  1.
          2   -1    0    0  501    0  0.00000000000E+00 -0.00000000000E+00 -0.36595177915E+04  0.36595177915E+04  0.25500000000E-02 0. -1.
    8880023    1    1    2    0    0  0.64562004535E+01 -0.27892766549E+03 -0.60765331610E+03  0.93856011205E+03  0.65864270000E+03 0.  1.
    8880022    1    1    2    0    0 -0.64562004535E+01  0.27892766549E+03 -0.28776429242E+04  0.28951792306E+04  0.15294330000E+03 0.  0.
<mgrwt>
<rscale>  0 0.58415952E+03</rscale>
<asrwt>0</asrwt>
<pdfrwt beam="1">  1        2 0.56300268E+00 0.71529891E+03</pdfrwt>
<pdfrwt beam="2">  1       -2 0.26803318E-01 0.71529891E+03</pdfrwt>
<totfact> 0.86375835E+00</totfact>
</mgrwt>
</event>
<event>
 4    1  0.1998832E-007  0.9389121E+03  0.7818608E-02  0.9466250E-01
          2   -1    0    0  501    0  0.00000000000E+00  0.00000000000E+00  0.89306048757E+03  0.89306048757E+03  0.25500000000E-02 0. -1.
         -2   -1    0    0    0  501 -0.00000000000E+00 -0.00000000000E+00 -0.76864815331E+03  0.76864815332E+03  0.25500000000E-02 0.  1.
    8880023    1    1    2    0    0 -0.66669285406E+03 -0.57152806158E+02 -0.88440888156E+02  0.94306829120E+03  0.65864270000E+03 0.  0.
    8880022    1    1    2    0    0  0.66669285406E+03  0.57152806158E+02  0.21285322241E+03  0.71864034969E+03  0.15294330000E+03 0.  0.
<mgrwt>
<rscale>  0 0.86818479E+03</rscale>
<asrwt>0</asrwt>
<pdfrwt beam="1">  1        2 0.13739392E+00 0.93891214E+03</pdfrwt>
<pdfrwt beam="2">  1       -2 0.11825356E+00 0.93891214E+03</pdfrwt>
<totfact> 0.16288309E+01</totfact>
</mgrwt>
</event>
<event>
 4    1  0.1998832E-007  0.9577100E+03  0.7818608E-02  0.9439107E-01
         -2   -1    0    0    0  501 -0.00000000000E+00  0.00000000000E+00  0.27854685446E+03  0.27854685448E+03  0.25500000000E-02 0.  1.
          2   -1    0    0  501    0  0.00000000000E+00 -0.00000000000E+00 -0.26108661995E+04  0.26108661995E+04  0.25500000000E-02 0. -1.
    8880023    1    1    2    0    0  0.69162937795E+03 -0.71042815649E+02 -0.16227689241E+04  0.18843002588E+04  0.65864270000E+03 0.  0.
    8880022    1    1    2    0    0 -0.69162937795E+03  0.71042815649E+02 -0.70955042090E+03  0.10051127951E+04  0.15294330000E+03 0.  0.
<mgrwt>
<rscale>  0 0.88926054E+03</rscale>
<asrwt>0</asrwt>
<pdfrwt beam="1">  1        2 0.40167171E+00 0.95771002E+03</pdfrwt>
<pdfrwt beam="2">  1       -2 0.42853364E-01 0.95771002E+03</pdfrwt>
<totfact> 0.15784277E+01</totfact>
</mgrwt>
</event>
<event>
 4    1  0.1998832E-007  0.7490404E+03  0.7818608E-02  0.9834355E-01
         -2   -1    0    0    0  501 -0.00000000000E+00  0.00000000000E+00  0.22305546582E+03  0.22305546584E+03  0.25500000000E-02 0.  1.
          2   -1    0    0  501    0  0.00000000000E+00 -0.00000000000E+00 -0.18292983426E+04  0.18292983426E+04  0.25500000000E-02 0. -1.
    8880023    1    1    2    0    0 -0.31708482468E+03 -0.16342744274E+03 -0.55645780660E+03  0.93311671932E+03  0.65864270000E+03 0.  0.
    8880022    1    1    2    0    0  0.31708482468E+03  0.16342744274E+03 -0.10497850702E+04  0.11192370891E+04  0.15294330000E+03 0.  0.
<mgrwt>
<rscale>  0 0.63551022E+03</rscale>
<asrwt>0</asrwt>
<pdfrwt beam="1">  1        2 0.28143050E+00 0.74904040E+03</pdfrwt>
<pdfrwt beam="2">  1       -2 0.34316227E-01 0.74904040E+03</pdfrwt>
<totfact> 0.67790726E+01</totfact>
</mgrwt>
</event>
<event>
 4    1  0.1998832E-007  0.8097152E+03  0.7818608E-02  0.9690170E-01
          2   -1    0    0  501    0  0.00000000000E+00  0.00000000000E+00  0.14923113235E+04  0.14923113235E+04  0.25500000000E-02 0. -1.
         -2   -1    0    0    0  501 -0.00000000000E+00 -0.00000000000E+00 -0.94351843096E+03  0.94351843097E+03  0.25500000000E-02 0.  1.
    8880023    1    1    2    0    0 -0.47096877619E+03 -0.41218859889E+01 -0.71391211580E+03  0.10794949252E+04  0.65864270000E+03 0.  0.
    8880022    1    1    2    0    0  0.47096877619E+03  0.41218859889E+01  0.12627050083E+04  0.13563348293E+04  0.15294330000E+03 0.  0.
<mgrwt>
<rscale>  0 0.71605070E+03</rscale>
<asrwt>0</asrwt>
<pdfrwt beam="1">  1        2 0.22958636E+00 0.80971525E+03</pdfrwt>
<pdfrwt beam="2">  1       -2 0.14515668E+00 0.80971525E+03</pdfrwt>
<totfact> 0.42610892E+00</totfact>
</mgrwt>
</event>
<event>
 4    1  0.1998832E-007  0.7062078E+03  0.7818608E-02  0.9972362E-01
          2   -1    0    0  501    0  0.00000000000E+00  0.00000000000E+00  0.11725957569E+04  0.11725957569E+04  0.25500000000E-02 0. -1.
         -2   -1    0    0    0  501 -0.00000000000E+00 -0.00000000000E+00 -0.94664598741E+03  0.94664598742E+03  0.25500000000E-02 0.  1.
    8880023    1    1    2    0    0 -0.24905064392E+03  0.53786444823E+02 -0.79063630031E+03  0.10601109237E+04  0.65864270000E+03 0.  1.
    8880022    1    1    2    0    0  0.24905064392E+03 -0.53786444823E+02  0.10165860698E+04  0.10591308206E+04  0.15294330000E+03 0.  0.
<mgrwt>
<rscale>  0 0.56878892E+03</rscale>
<asrwt>0</asrwt>
<pdfrwt beam="1">  1        2 0.18039935E+00 0.70620777E+03</pdfrwt>
<pdfrwt beam="2">  1       -2 0.14563784E+00 0.70620777E+03</pdfrwt>
<totfact> 0.65432386E+00</totfact>
</mgrwt>
</event>
<event>
 4    1  0.1998832E-007  0.1026573E+04  0.7818608E-02  0.9347589E-01
         -2   -1    0    0    0  501 -0.00000000000E+00  0.00000000000E+00  0.54011801075E+03  0.54011801075E+03  0.25500000000E-02 0.  1.
          2   -1    0    0  501    0  0.00000000000E+00 -0.00000000000E+00 -0.22430514511E+04  0.22430514511E+04  0.25500000000E-02 0. -1.
    8880023    1    1    2    0    0  0.24211267845E+03 -0.74928208322E+03 -0.15292420538E+03  0.10379008663E+04  0.65864270000E+03 0.  0.
    8880022    1    1    2    0    0 -0.24211267845E+03  0.74928208322E+03 -0.15500092350E+04  0.17452685956E+04  0.15294330000E+03 0.  0.
<mgrwt>
<rscale>  0 0.96517354E+03</rscale>
<asrwt>0</asrwt>
<pdfrwt beam="1">  1        2 0.34508483E+00 0.10265731E+04</pdfrwt>
<pdfrwt beam="2">  1       -2 0.83095080E-01 0.10265731E+04</pdfrwt>
<totfact> 0.62083967E+00</totfact>
</mgrwt>
</event>
<event>
 4    1  0.1998832E-007  0.6763141E+03  0.7818608E-02  0.1011490E+00
         -2   -1    0    0    0  501 -0.00000000000E+00  0.00000000000E+00  0.11467863369E+04  0.11467863369E+04  0.25500000000E-02 0.  1.
          2   -1    0    0  501    0  0.00000000000E+00 -0.00000000000E+00 -0.38116132882E+03  0.38116132883E+03  0.25500000000E-02 0. -1.
    8880023    1    1    2    0    0  0.84259332214E+02  0.12841681830E+03  0.10009465282E+04  0.12080126956E+04  0.65864270000E+03 0.  1.
    8880022    1    1    2    0    0 -0.84259332214E+02 -0.12841681830E+03 -0.23532152007E+03  0.31993497013E+03  0.15294330000E+03 0.  0.
<mgrwt>
<rscale>  0 0.50886543E+03</rscale>
<asrwt>0</asrwt>
<pdfrwt beam="1">  1        2 0.58640204E-01 0.67631407E+03</pdfrwt>
<pdfrwt beam="2">  1       -2 0.17642867E+00 0.67631407E+03</pdfrwt>
<totfact> 0.16478928E+01</totfact>
</mgrwt>
</event>
<event>
 4    1  0.1998832E-007  0.1438342E+04  0.7818608E-02  0.8954449E-01
         -2   -1    0    0    0  501 -0.00000000000E+00  0.00000000000E+00  0.82567174191E+03  0.82567174191E+03  0.25500000000E-02 0.  1.
          2   -1    0    0  501    0  0.00000000000E+00 -0.00000000000E+00 -0.36307561189E+04  0.36307561189E+04  0.25500000000E-02 0. -1.
    8880023    1    1    2    0    0  0.35023930469E+03 -0.12297761122E+04 -0.77864734913E+02  0.14404478400E+04  0.65864270000E+03 0.  0.
    8880022    1    1    2    0    0 -0.35023930469E+03  0.12297761122E+04 -0.27272196421E+04  0.30159800208E+04  0.15294330000E+03 0.  0.
<mgrwt>
<rscale>  0 0.13991298E+04</rscale>
<asrwt>0</asrwt>
<pdfrwt beam="1">  1        2 0.55857786E+00 0.14383418E+04</pdfrwt>
<pdfrwt beam="2">  1       -2 0.12702642E+00 0.14383418E+04</pdfrwt>
<totfact> 0.29186610E-01</totfact>
</mgrwt>
</event>
<event>
 4    1  0.1998832E-007  0.7926484E+03  0.7818608E-02  0.9726923E-01
          2   -1    0    0  501    0  0.00000000000E+00  0.00000000000E+00  0.33701437068E+04  0.33701437068E+04  0.25500000000E-02 0. -1.
         -2   -1    0    0    0  501 -0.00000000000E+00 -0.00000000000E+00 -0.75068699189E+03  0.75068699189E+03  0.25500000000E-02 0.  1.
    8880023    1    1    2    0    0 -0.42750471680E+03 -0.10826342721E+03 -0.51926571489E+03  0.94759080910E+03  0.65864270000E+03 0.  1.
    8880022    1    1    2    0    0  0.42750471680E+03  0.10826342721E+03  0.31387224298E+04  0.31732398896E+04  0.15294330000E+03 0.  0.
<mgrwt>
<rscale>  0 0.69436183E+03</rscale>
<asrwt>0</asrwt>
<pdfrwt beam="1">  1        2 0.51848366E+00 0.79264838E+03</pdfrwt>
<pdfrwt beam="2">  1       -2 0.11549030E+00 0.79264838E+03</pdfrwt>
<totfact> 0.62529392E-01</totfact>
</mgrwt>
</event>
<event>
 4    1  0.1998832E-007  0.8586659E+03  0.7818608E-02  0.9595941E-01
         -2   -1    0    0    0  501 -0.00000000000E+00  0.00000000000E+00  0.90728667919E+03  0.90728667919E+03  0.25500000000E-02 0.  1.
          2   -1    0    0  501    0  0.00000000000E+00 -0.00000000000E+00 -0.12594340145E+04  0.12594340145E+04  0.25500000000E-02 0. -1.
    8880023    1    1    2    0    0  0.45347271696E+03  0.31282495854E+03  0.60598724139E+03  0.10509651292E+04  0.65864270000E+03 0.  1.
    8880022    1    1    2    0    0 -0.45347271696E+03 -0.31282495854E+03 -0.95813457674E+03  0.11157555646E+04  0.15294330000E+03 0.  0.
<mgrwt>
<rscale>  0 0.77565419E+03</rscale>
<asrwt>0</asrwt>
<pdfrwt beam="1">  1        2 0.19375908E+00 0.85866592E+03</pdfrwt>
<pdfrwt beam="2">  1       -2 0.13958256E+00 0.85866592E+03</pdfrwt>
<totfact> 0.63676397E+00</totfact>
</mgrwt>
</event>
<event>
 4    1  0.1998832E-007  0.1303961E+04  0.7818608E-02  0.9062147E-01
          2   -1    0    0  501    0  0.00000000000E+00  0.00000000000E+00  0.10675987907E+04  0.10675987907E+04  0.25500000000E-02 0. -1.
         -2   -1    0    0    0  501 -0.00000000000E+00 -0.00000000000E+00 -0.17672355086E+04  0.17672355086E+04  0.25500000000E-02 0.  1.
    8880023    1    1    2    0    0 -0.10579351698E+04 -0.38376666817E+03 -0.10191770300E+04  0.16550032338E+04  0.65864270000E+03 0.  0.
    8880022    1    1    2    0    0  0.10579351698E+04  0.38376666817E+03  0.31954031207E+03  0.11798310655E+04  0.15294330000E+03 0.  0.
<mgrwt>
<rscale>  0 0.12597017E+04</rscale>
<asrwt>0</asrwt>
<pdfrwt beam="1">  1        2 0.16424597E+00 0.13039608E+04</pdfrwt>
<pdfrwt beam="2">  1       -2 0.27188239E+00 0.13039608E+04</pdfrwt>
<totfact> 0.10386257E+00</totfact>
</mgrwt>
</event>
<event>
 4    1  0.1998832E-007  0.1347842E+04  0.7818608E-02  0.9025309E-01
          2   -1    0    0  501    0  0.00000000000E+00  0.00000000000E+00  0.30635616403E+04  0.30635616403E+04  0.25500000000E-02 0. -1.
         -2   -1    0    0    0  501 -0.00000000000E+00 -0.00000000000E+00 -0.84992987380E+03  0.84992987381E+03  0.25500000000E-02 0.  1.
    8880023    1    1    2    0    0 -0.20931441643E+03  0.11571753632E+04 -0.60010568095E+02  0.13491770902E+04  0.65864270000E+03 0.  1.
    8880022    1    1    2    0    0  0.20931441643E+03 -0.11571753632E+04  0.22736423346E+04  0.25643144239E+04  0.15294330000E+03 0.  0.
<mgrwt>
<rscale>  0 0.13053812E+04</rscale>
<asrwt>0</asrwt>
<pdfrwt beam="1">  1        2 0.47131717E+00 0.13478418E+04</pdfrwt>
<pdfrwt beam="2">  1       -2 0.13075844E+00 0.13478418E+04</pdfrwt>
<totfact> 0.65802590E-01</totfact>
</mgrwt>
</event>
<event>
 4    1  0.1998832E-007  0.7024341E+03  0.7818608E-02  0.9987249E-01
         -2   -1    0    0    0  501 -0.00000000000E+00  0.00000000000E+00  0.27410483003E+03  0.27410483004E+03  0.25500000000E-02 0.  1.
          2   -1    0    0  501    0  0.00000000000E+00 -0.00000000000E+00 -0.36500451873E+04  0.36500451873E+04  0.25500000000E-02 0. -1.
    8880023    1    1    2    0    0 -0.20374784074E+03  0.13450031452E+03 -0.19336572421E+03  0.72856298751E+03  0.65864270000E+03 0.  1.
    8880022    1    1    2    0    0  0.20374784074E+03 -0.13450031452E+03 -0.31825746330E+04  0.31955870298E+04  0.15294330000E+03 0.  0.
<mgrwt>
<rscale>  0 0.56212877E+03</rscale>
<asrwt>0</asrwt>
<pdfrwt beam="1">  1        2 0.56154538E+00 0.70243414E+03</pdfrwt>
<pdfrwt beam="2">  1       -2 0.42169977E-01 0.70243414E+03</pdfrwt>
<totfact> 0.37334151E+00</totfact>
</mgrwt>
</event>
<event>
 4    1  0.1998832E-007  0.1108840E+04  0.7818608E-02  0.9251277E-01
          2   -1    0    0  501    0  0.00000000000E+00  0.00000000000E+00  0.23580524775E+04  0.23580524775E+04  0.25500000000E-02 0. -1.
         -2   -1    0    0    0  501 -0.00000000000E+00 -0.00000000000E+00 -0.43845945348E+03  0.43845945349E+03  0.25500000000E-02 0.  1.
    8880023    1    1    2    0    0 -0.52500394535E+03  0.72117046344E+03  0.86166526845E+03  0.14042767609E+04  0.65864270000E+03 0.  0.
    8880022    1    1    2    0    0  0.52500394535E+03 -0.72117046344E+03  0.10579277556E+04  0.13922351702E+04  0.15294330000E+03 0.  0.
<mgrwt>
<rscale>  0 0.10539483E+04</rscale>
<asrwt>0</asrwt>
<pdfrwt beam="1">  1        2 0.36277730E+00 0.11088400E+04</pdfrwt>
<pdfrwt beam="2">  1       -2 0.67455302E-01 0.11088400E+04</pdfrwt>
<totfact> 0.84330934E+00</totfact>
</mgrwt>
</event>
<event>
 4    1  0.1998832E-007  0.1335338E+04  0.7818608E-02  0.9035629E-01
          2   -1    0    0  501    0  0.00000000000E+00  0.00000000000E+00  0.12310250210E+04  0.12310250210E+04  0.25500000000E-02 0. -1.
         -2   -1    0    0    0  501 -0.00000000000E+00 -0.00000000000E+00 -0.34809932612E+04  0.34809932612E+04  0.25500000000E-02 0.  1.
    8880023    1    1    2    0    0 -0.73852688367E+02  0.11592508932E+04 -0.30254257359E+04  0.33070119357E+04  0.65864270000E+03 0.  1.
    8880022    1    1    2    0    0  0.73852688367E+02 -0.11592508932E+04  0.77545749572E+03  0.14050063465E+04  0.15294330000E+03 0.  0.
<mgrwt>
<rscale>  0 0.12923813E+04</rscale>
<asrwt>0</asrwt>
<pdfrwt beam="1">  1        2 0.18938847E+00 0.13353378E+04</pdfrwt>
<pdfrwt beam="2">  1       -2 0.53553742E+00 0.13353378E+04</pdfrwt>
<totfact> 0.17529958E-02</totfact>
</mgrwt>
</event>
<event>
 4    1  0.1998832E-007  0.7077409E+03  0.7818608E-02  0.9966487E-01
         -2   -1    0    0    0  501 -0.00000000000E+00  0.00000000000E+00  0.66023080536E+03  0.66023080537E+03  0.25500000000E-02 0.  1.
          2   -1    0    0  501    0  0.00000000000E+00 -0.00000000000E+00 -0.57802734119E+03  0.57802734119E+03  0.25500000000E-02 0. -1.
    8880023    1    1    2    0    0  0.25156135783E+03 -0.61675592582E+02  0.38983873698E+03  0.80800460555E+03  0.65864270000E+03 0.  1.
    8880022    1    1    2    0    0 -0.25156135783E+03  0.61675592582E+02 -0.30763527280E+03  0.43025354102E+03  0.15294330000E+03 0.  0.
<mgrwt>
<rscale>  0 0.57144441E+03</rscale>
<asrwt>0</asrwt>
<pdfrwt beam="1">  1        2 0.88927283E-01 0.70774091E+03</pdfrwt>
<pdfrwt beam="2">  1       -2 0.10157397E+00 0.70774091E+03</pdfrwt>
<totfact> 0.41931374E+01</totfact>
</mgrwt>
</event>
<event>
 4    1  0.1998832E-007  0.7313016E+03  0.7818608E-02  0.9886050E-01
          2   -1    0    0  501    0  0.00000000000E+00  0.00000000000E+00  0.11265692263E+04  0.11265692263E+04  0.25500000000E-02 0. -1.
         -2   -1    0    0    0  501 -0.00000000000E+00 -0.00000000000E+00 -0.54256087144E+03  0.54256087145E+03  0.25500000000E-02 0.  1.
    8880023    1    1    2    0    0  0.31162471475E+03  0.62305037974E+02 -0.24254897683E+03  0.77047523842E+03  0.65864270000E+03 0.  1.
    8880022    1    1    2    0    0 -0.31162471475E+03 -0.62305037974E+02  0.82655733167E+03  0.89865485930E+03  0.15294330000E+03 0.  0.
<mgrwt>
<rscale>  0 0.60942150E+03</rscale>
<asrwt>0</asrwt>
<pdfrwt beam="1">  1        2 0.17331834E+00 0.73130164E+03</pdfrwt>
<pdfrwt beam="2">  1       -2 0.83470904E-01 0.73130164E+03</pdfrwt>
<totfact> 0.26868245E+01</totfact>
</mgrwt>
</event>
<event>
 4    1  0.1998832E-007  0.1833228E+04  0.7818608E-02  0.8704375E-01
         -2   -1    0    0    0  501 -0.00000000000E+00  0.00000000000E+00  0.13234917726E+04  0.13234917727E+04  0.25500000000E-02 0.  1.
          2   -1    0    0  501    0  0.00000000000E+00 -0.00000000000E+00 -0.26033278520E+04  0.26033278520E+04  0.25500000000E-02 0. -1.
    8880023    1    1    2    0    0 -0.10005143934E+03 -0.17078948827E+04 -0.86394318683E+02  0.18352627620E+04  0.65864270000E+03 0.  0.
    8880022    1    1    2    0    0  0.10005143934E+03  0.17078948827E+04 -0.11934417607E+04  0.20915568627E+04  0.15294330000E+03 0.  0.
<mgrwt>
<rscale>  0 0.18036231E+04</rscale>
<asrwt>0</asrwt>
<pdfrwt beam="1">  1        2 0.40051198E+00 0.18332281E+04</pdfrwt>
<pdfrwt beam="2">  1       -2 0.20361412E+00 0.18332281E+04</pdfrwt>
<totfact> 0.34647405E-01</totfact>
</mgrwt>
</event>
<event>
 4    1  0.1998832E-007  0.9323521E+03  0.7818608E-02  0.9475974E-01
          2   -1    0    0  501    0  0.00000000000E+00  0.00000000000E+00  0.16085262186E+04  0.16085262186E+04  0.25500000000E-02 0. -1.
         -2   -1    0    0    0  501 -0.00000000000E+00 -0.00000000000E+00 -0.96115215162E+03  0.96115215162E+03  0.25500000000E-02 0.  1.
    8880023    1    1    2    0    0 -0.63510394197E+03  0.17920173205E+03 -0.62900157182E+03  0.11246881619E+04  0.65864270000E+03 0.  1.
    8880022    1    1    2    0    0  0.63510394197E+03 -0.17920173205E+03  0.12763756388E+04  0.14449902084E+04  0.15294330000E+03 0.  0.
<mgrwt>
<rscale>  0 0.86078606E+03</rscale>
<asrwt>0</asrwt>
<pdfrwt beam="1">  1        2 0.24746557E+00 0.93235212E+03</pdfrwt>
<pdfrwt beam="2">  1       -2 0.14786956E+00 0.93235212E+03</pdfrwt>
<totfact> 0.34391538E+00</totfact>
</mgrwt>
</event>
<event>
 4    1  0.1998832E-007  0.6720772E+03  0.7818608E-02  0.1014216E+00
          2   -1    0    0  501    0  0.00000000000E+00  0.00000000000E+00  0.34505789843E+04  0.34505789843E+04  0.25500000000E-02 0. -1.
         -2   -1    0    0    0  501 -0.00000000000E+00 -0.00000000000E+00 -0.20873942928E+03  0.20873942930E+03  0.25500000000E-02 0.  1.
    8880023    1    1    2    0    0 -0.10774052461E+03 -0.79179986239E+02  0.34516795810E+03  0.75553200887E+03  0.65864270000E+03 0.  0.
    8880022    1    1    2    0    0  0.10774052461E+03  0.79179986239E+02  0.28966715969E+04  0.29037864047E+04  0.15294330000E+03 0.  0.
<mgrwt>
<rscale>  0 0.49833057E+03</rscale>
<asrwt>0</asrwt>
<pdfrwt beam="1">  1        2 0.53085828E+00 0.67207715E+03</pdfrwt>
<pdfrwt beam="2">  1       -2 0.32113760E-01 0.67207715E+03</pdfrwt>
<totfact> 0.87043302E+00</totfact>
</mgrwt>
</event>
<event>
 4    1  0.1998832E-007  0.7265272E+03  0.7818608E-02  0.9901089E-01
         -2   -1    0    0    0  501 -0.00000000000E+00  0.00000000000E+00  0.12174086479E+04  0.12174086479E+04  0.25500000000E-02 0.  1.
          2   -1    0    0  501    0  0.00000000000E+00 -0.00000000000E+00 -0.11830056707E+04  0.11830056707E+04  0.25500000000E-02 0. -1.
    8880023    1    1    2    0    0  0.11561757238E+03  0.28401445159E+03  0.10791388950E+04  0.13009160591E+04  0.65864270000E+03 0.  1.
    8880022    1    1    2    0    0 -0.11561757238E+03 -0.28401445159E+03 -0.10447359178E+04  0.10994982595E+04  0.15294330000E+03 0.  0.
<mgrwt>
<rscale>  0 0.60208555E+03</rscale>
<asrwt>0</asrwt>
<pdfrwt beam="1">  1        2 0.18200087E+00 0.72652725E+03</pdfrwt>
<pdfrwt beam="2">  1       -2 0.18729364E+00 0.72652725E+03</pdfrwt>
<totfact> 0.32243989E+00</totfact>
</mgrwt>
</event>
<event>
 4    1  0.1998832E-007  0.7091408E+03  0.7818608E-02  0.9961205E-01
          2   -1    0    0  501    0  0.00000000000E+00  0.00000000000E+00  0.37552299494E+04  0.37552299494E+04  0.25500000000E-02 0. -1.
         -2   -1    0    0    0  501 -0.00000000000E+00 -0.00000000000E+00 -0.30384454956E+03  0.30384454957E+03  0.25500000000E-02 0.  1.
    8880023    1    1    2    0    0 -0.10109927865E+03  0.24258908320E+03  0.12652662888E+03  0.72034000410E+03  0.65864270000E+03 0.  1.
    8880022    1    1    2    0    0  0.10109927865E+03 -0.24258908320E+03  0.33248587709E+04  0.33387344948E+04  0.15294330000E+03 0.  0.
<mgrwt>
<rscale>  0 0.57384538E+03</rscale>
<asrwt>0</asrwt>
<pdfrwt beam="1">  1        2 0.57772770E+00 0.70914084E+03</pdfrwt>
<pdfrwt beam="2">  1       -2 0.46745314E-01 0.70914084E+03</pdfrwt>
<totfact> 0.25520594E+00</totfact>
</mgrwt>
</event>
<event>
 4    1  0.1998832E-007  0.1483668E+04  0.7818608E-02  0.8921255E-01
          2   -1    0    0  501    0  0.00000000000E+00  0.00000000000E+00  0.30160977408E+04  0.30160977408E+04  0.25500000000E-02 0. -1.
         -2   -1    0    0    0  501 -0.00000000000E+00 -0.00000000000E+00 -0.84374301939E+03  0.84374301939E+03  0.25500000000E-02 0.  1.
    8880023    1    1    2    0    0 -0.96744193944E+03  0.91187554285E+03  0.23041225131E+03  0.15014529375E+04  0.65864270000E+03 0.  1.
    8880022    1    1    2    0    0  0.96744193944E+03 -0.91187554285E+03  0.19419424701E+04  0.23583878227E+04  0.15294330000E+03 0.  0.
<mgrwt>
<rscale>  0 0.14458893E+04</rscale>
<asrwt>0</asrwt>
<pdfrwt beam="1">  1        2 0.46401503E+00 0.14836681E+04</pdfrwt>
<pdfrwt beam="2">  1       -2 0.12980662E+00 0.14836681E+04</pdfrwt>
<totfact> 0.70655805E-01</totfact>
</mgrwt>
</event>
<event>
 4    1  0.1998832E-007  0.1188579E+04  0.7818608E-02  0.9168305E-01
         -2   -1    0    0    0  501 -0.00000000000E+00  0.00000000000E+00  0.15493815776E+04  0.15493815776E+04  0.25500000000E-02 0.  1.
          2   -1    0    0  501    0  0.00000000000E+00 -0.00000000000E+00 -0.15727930259E+04  0.15727930259E+04  0.25500000000E-02 0. -1.
    8880023    1    1    2    0    0  0.22971882637E+03  0.96236145398E+03  0.10985375878E+04  0.16184885991E+04  0.65864270000E+03 0.  0.
    8880022    1    1    2    0    0 -0.22971882637E+03 -0.96236145398E+03 -0.11219490361E+04  0.15036860044E+04  0.15294330000E+03 0.  0.
<mgrwt>
<rscale>  0 0.11386649E+04</rscale>
<asrwt>0</asrwt>
<pdfrwt beam="1">  1        2 0.24196816E+00 0.11885792E+04</pdfrwt>
<pdfrwt beam="2">  1       -2 0.23836640E+00 0.11885792E+04</pdfrwt>
<totfact> 0.85161952E-01</totfact>
</mgrwt>
</event>
<event>
 4    1  0.1998832E-007  0.1004222E+04  0.7818608E-02  0.9376054E-01
         -2   -1    0    0    0  501 -0.00000000000E+00  0.00000000000E+00  0.27689717103E+03  0.27689717104E+03  0.25500000000E-02 0.  1.
          2   -1    0    0  501    0  0.00000000000E+00 -0.00000000000E+00 -0.34980495510E+04  0.34980495510E+04  0.25500000000E-02 0. -1.
    8880023    1    1    2    0    0 -0.46325033452E+03  0.60004304655E+03 -0.97612133061E+03  0.14004554932E+04  0.65864270000E+03 0.  0.
    8880022    1    1    2    0    0  0.46325033452E+03 -0.60004304655E+03 -0.22450310494E+04  0.23744912289E+04  0.15294330000E+03 0.  0.
<mgrwt>
<rscale>  0 0.94072807E+03</rscale>
<asrwt>0</asrwt>
<pdfrwt beam="1">  1        2 0.53816144E+00 0.10042225E+04</pdfrwt>
<pdfrwt beam="2">  1       -2 0.42599567E-01 0.10042225E+04</pdfrwt>
<totfact> 0.44152850E+00</totfact>
</mgrwt>
</event>
<event>
 4    1  0.1998832E-007  0.9171519E+03  0.7818608E-02  0.9499040E-01
          2   -1    0    0  501    0  0.00000000000E+00  0.00000000000E+00  0.85819816530E+03  0.85819816530E+03  0.25500000000E-02 0. -1.
         -2   -1    0    0    0  501 -0.00000000000E+00 -0.00000000000E+00 -0.13355980074E+04  0.13355980074E+04  0.25500000000E-02 0.  1.
    8880023    1    1    2    0    0 -0.18707979127E+03  0.61021189114E+03 -0.99848148825E+03  0.13557775957E+04  0.65864270000E+03 0.  1.
    8880022    1    1    2    0    0  0.18707979127E+03 -0.61021189114E+03  0.52108164616E+03  0.83801857698E+03  0.15294330000E+03 0.  0.
<mgrwt>
<rscale>  0 0.84354643E+03</rscale>
<asrwt>0</asrwt>
<pdfrwt beam="1">  1        2 0.13203049E+00 0.91715190E+03</pdfrwt>
<pdfrwt beam="2">  1       -2 0.20547662E+00 0.91715190E+03</pdfrwt>
<totfact> 0.38441708E+00</totfact>
</mgrwt>
</event>
<event>
 4    1  0.1998832E-007  0.1350900E+04  0.7818608E-02  0.9022805E-01
         -2   -1    0    0    0  501 -0.00000000000E+00  0.00000000000E+00  0.81433017218E+03  0.81433017218E+03  0.25500000000E-02 0.  1.
          2   -1    0    0  501    0  0.00000000000E+00 -0.00000000000E+00 -0.21461462219E+04  0.21461462219E+04  0.25500000000E-02 0. -1.
    8880023    1    1    2    0    0  0.63774449043E+02  0.11777323195E+04 -0.29516538107E+03  0.13827701925E+04  0.65864270000E+03 0.  0.
    8880022    1    1    2    0    0 -0.63774449043E+02 -0.11777323195E+04 -0.10366506686E+04  0.15777062016E+04  0.15294330000E+03 0.  0.
<mgrwt>
<rscale>  0 0.13085588E+04</rscale>
<asrwt>0</asrwt>
<pdfrwt beam="1">  1        2 0.33017634E+00 0.13509000E+04</pdfrwt>
<pdfrwt beam="2">  1       -2 0.12528157E+00 0.13509000E+04</pdfrwt>
<totfact> 0.25380159E+00</totfact>
</mgrwt>
</event>
<event>
 4    1  0.1998832E-007  0.9098181E+03  0.7818608E-02  0.9510451E-01
          2   -1    0    0  501    0  0.00000000000E+00  0.00000000000E+00  0.14644143482E+04  0.14644143482E+04  0.25500000000E-02 0. -1.
         -2   -1    0    0    0  501 -0.00000000000E+00 -0.00000000000E+00 -0.45210165456E+03  0.45210165457E+03  0.25500000000E-02 0.  1.
    8880023    1    1    2    0    0 -0.57089144038E+03  0.26084821100E+03  0.30738829862E+03  0.96034191737E+03  0.65864270000E+03 0.  0.
    8880022    1    1    2    0    0  0.57089144038E+03 -0.26084821100E+03  0.70492439501E+03  0.95617408539E+03  0.15294330000E+03 0.  0.
<mgrwt>
<rscale>  0 0.83517706E+03</rscale>
<asrwt>0</asrwt>
<pdfrwt beam="1">  1        2 0.22529452E+00 0.90981813E+03</pdfrwt>
<pdfrwt beam="2">  1       -2 0.69554101E-01 0.90981813E+03</pdfrwt>
<totfact> 0.25214097E+01</totfact>
</mgrwt>
</event>
<event>
 4    1  0.1998832E-007  0.1027517E+04  0.7818608E-02  0.9346411E-01
         -2   -1    0    0    0  501 -0.00000000000E+00  0.00000000000E+00  0.14811496115E+04  0.14811496115E+04  0.25500000000E-02 0.  1.
          2   -1    0    0  501    0  0.00000000000E+00 -0.00000000000E+00 -0.68418081769E+03  0.68418081769E+03  0.25500000000E-02 0. -1.
    8880023    1    1    2    0    0  0.28066862779E+03 -0.73702482475E+03  0.88640019285E+03  0.13570173098E+04  0.65864270000E+03 0.  0.
    8880022    1    1    2    0    0 -0.28066862779E+03  0.73702482475E+03 -0.89431398996E+02  0.80831311945E+03  0.15294330000E+03 0.  0.
<mgrwt>
<rscale>  0 0.96620206E+03</rscale>
<asrwt>0</asrwt>
<pdfrwt beam="1">  1        2 0.10525859E+00 0.10275168E+04</pdfrwt>
<pdfrwt beam="2">  1       -2 0.22786917E+00 0.10275168E+04</pdfrwt>
<totfact> 0.36925121E+00</totfact>
</mgrwt>
</event>
<event>
 4    1  0.1998832E-007  0.9538005E+03  0.7818608E-02  0.9444667E-01
          2   -1    0    0  501    0  0.00000000000E+00  0.00000000000E+00  0.39699902329E+04  0.39699902329E+04  0.25500000000E-02 0. -1.
         -2   -1    0    0    0  501 -0.00000000000E+00 -0.00000000000E+00 -0.47672799422E+03  0.47672799422E+03  0.25500000000E-02 0.  1.
    8880023    1    1    2    0    0 -0.51466222928E+03 -0.45939964289E+03  0.75623322830E+02  0.95679377890E+03  0.65864270000E+03 0.  0.
    8880022    1    1    2    0    0  0.51466222928E+03  0.45939964289E+03  0.34176389159E+04  0.34899244482E+04  0.15294330000E+03 0.  0.
<mgrwt>
<rscale>  0 0.88489186E+03</rscale>
<asrwt>0</asrwt>
<pdfrwt beam="1">  1        2 0.61076773E+00 0.95380053E+03</pdfrwt>
<pdfrwt beam="2">  1       -2 0.73342768E-01 0.95380053E+03</pdfrwt>
<totfact> 0.64440512E-01</totfact>
</mgrwt>
</event>
<event>
 4    1  0.1998832E-007  0.1283966E+04  0.7818608E-02  0.9079531E-01
         -2   -1    0    0    0  501 -0.00000000000E+00  0.00000000000E+00  0.14063868784E+04  0.14063868784E+04  0.25500000000E-02 0.  1.
          2   -1    0    0  501    0  0.00000000000E+00 -0.00000000000E+00 -0.16894902826E+04  0.16894902826E+04  0.25500000000E-02 0. -1.
    8880023    1    1    2    0    0  0.51897225603E+03 -0.97233056030E+03  0.82447287309E+03  0.15258848730E+04  0.65864270000E+03 0.  1.
    8880022    1    1    2    0    0 -0.51897225603E+03  0.97233056030E+03 -0.11075762774E+04  0.15699922879E+04  0.15294330000E+03 0.  0.
<mgrwt>
<rscale>  0 0.12388304E+04</rscale>
<asrwt>0</asrwt>
<pdfrwt beam="1">  1        2 0.25992158E+00 0.12839662E+04</pdfrwt>
<pdfrwt beam="2">  1       -2 0.21636721E+00 0.12839662E+04</pdfrwt>
<totfact> 0.99560690E-01</totfact>
</mgrwt>
</event>
<event>
 4    1  0.1998832E-007  0.1247188E+04  0.7818608E-02  0.9112564E-01
         -2   -1    0    0    0  501 -0.00000000000E+00  0.00000000000E+00  0.12851959478E+04  0.12851959478E+04  0.25500000000E-02 0.  1.
          2   -1    0    0  501    0  0.00000000000E+00 -0.00000000000E+00 -0.13919355935E+04  0.13919355935E+04  0.25500000000E-02 0. -1.
    8880023    1    1    2    0    0 -0.51910511098E+03  0.92314494420E+03  0.61082851183E+03  0.13887362534E+04  0.65864270000E+03 0.  0.
    8880022    1    1    2    0    0  0.51910511098E+03 -0.92314494420E+03 -0.71756815754E+03  0.12883952879E+04  0.15294330000E+03 0.  0.
<mgrwt>
<rscale>  0 0.12003345E+04</rscale>
<asrwt>0</asrwt>
<pdfrwt beam="1">  1        2 0.21414394E+00 0.12471876E+04</pdfrwt>
<pdfrwt beam="2">  1       -2 0.19772245E+00 0.12471876E+04</pdfrwt>
<totfact> 0.19442585E+00</totfact>
</mgrwt>
</event>
<event>
 4    1  0.1998832E-007  0.1776195E+04  0.7818608E-02  0.8735820E-01
          2   -1    0    0  501    0  0.00000000000E+00  0.00000000000E+00  0.18299324326E+04  0.18299324326E+04  0.25500000000E-02 0. -1.
         -2   -1    0    0    0  501 -0.00000000000E+00 -0.00000000000E+00 -0.21037695770E+04  0.21037695770E+04  0.25500000000E-02 0.  1.
    8880023    1    1    2    0    0 -0.29634975045E+03  0.16227247111E+04  0.81191722220E+03  0.19529665754E+04  0.65864270000E+03 0.  0.
    8880022    1    1    2    0    0  0.29634975045E+03 -0.16227247111E+04 -0.10857543666E+04  0.19807354342E+04  0.15294330000E+03 0.  0.
<mgrwt>
<rscale>  0 0.17455203E+04</rscale>
<asrwt>0</asrwt>
<pdfrwt beam="1">  1        2 0.28152807E+00 0.17761951E+04</pdfrwt>
<pdfrwt beam="2">  1       -2 0.32365686E+00 0.17761951E+04</pdfrwt>
<totfact> 0.17197202E-01</totfact>
</mgrwt>
</event>
<event>
 4    1  0.1998832E-007  0.7483018E+03  0.7818608E-02  0.9836393E-01
         -2   -1    0    0    0  501 -0.00000000000E+00  0.00000000000E+00  0.35642500074E+03  0.35642500075E+03  0.25500000000E-02 0.  1.
          2   -1    0    0  501    0  0.00000000000E+00 -0.00000000000E+00 -0.19237319251E+04  0.19237319251E+04  0.25500000000E-02 0. -1.
    8880023    1    1    2    0    0 -0.35514040067E+03 -0.45412256585E+01 -0.90728572296E+02  0.75378193598E+03  0.65864270000E+03 0.  0.
    8880022    1    1    2    0    0  0.35514040067E+03  0.45412256585E+01 -0.14765783521E+04  0.15263749899E+04  0.15294330000E+03 0.  0.
<mgrwt>
<rscale>  0 0.63445548E+03</rscale>
<asrwt>0</asrwt>
<pdfrwt beam="1">  1        2 0.29595875E+00 0.74830177E+03</pdfrwt>
<pdfrwt beam="2">  1       -2 0.54834617E-01 0.74830177E+03</pdfrwt>
<totfact> 0.23785703E+01</totfact>
</mgrwt>
</event>
<event>
 4    1  0.1998832E-007  0.8059745E+03  0.7818608E-02  0.9698024E-01
          2   -1    0    0  501    0  0.00000000000E+00  0.00000000000E+00  0.16499473498E+04  0.16499473498E+04  0.25500000000E-02 0. -1.
         -2   -1    0    0    0  501 -0.00000000000E+00 -0.00000000000E+00 -0.53638426819E+03  0.53638426819E+03  0.25500000000E-02 0.  1.
    8880023    1    1    2    0    0  0.44542679629E+03  0.13183214452E+03 -0.16034856409E+03  0.82177041407E+03  0.65864270000E+03 0.  1.
    8880022    1    1    2    0    0 -0.44542679629E+03 -0.13183214452E+03  0.12739116457E+04  0.13645612039E+04  0.15294330000E+03 0.  0.
<mgrwt>
<rscale>  0 0.71134581E+03</rscale>
<asrwt>0</asrwt>
<pdfrwt beam="1">  1        2 0.25383805E+00 0.80597454E+03</pdfrwt>
<pdfrwt beam="2">  1       -2 0.82520657E-01 0.80597454E+03</pdfrwt>
<totfact> 0.13744744E+01</totfact>
</mgrwt>
</event>
<event>
 4    1  0.1998832E-007  0.1046647E+04  0.7818608E-02  0.9322923E-01
         -2   -1    0    0    0  501 -0.00000000000E+00  0.00000000000E+00  0.12237536557E+04  0.12237536557E+04  0.25500000000E-02 0.  1.
          2   -1    0    0  501    0  0.00000000000E+00 -0.00000000000E+00 -0.99092131368E+03  0.99092131368E+03  0.25500000000E-02 0. -1.
    8880023    1    1    2    0    0 -0.80205401408E+03  0.13553322415E+03 -0.45232187279E+03  0.11402040077E+04  0.65864270000E+03 0.  0.
    8880022    1    1    2    0    0  0.80205401408E+03 -0.13553322415E+03  0.68515421477E+03  0.10744709616E+04  0.15294330000E+03 0.  0.
<mgrwt>
<rscale>  0 0.98699648E+03</rscale>
<asrwt>0</asrwt>
<pdfrwt beam="1">  1        2 0.15244943E+00 0.10466471E+04</pdfrwt>
<pdfrwt beam="2">  1       -2 0.18826979E+00 0.10466471E+04</pdfrwt>
<totfact> 0.40113673E+00</totfact>
</mgrwt>
</event>
<event>
 4    1  0.1998832E-007  0.7045881E+03  0.7818608E-02  0.9978675E-01
          2   -1    0    0  501    0  0.00000000000E+00  0.00000000000E+00  0.69794524186E+03  0.69794524186E+03  0.25500000000E-02 0. -1.
         -2   -1    0    0    0  501 -0.00000000000E+00 -0.00000000000E+00 -0.98300010997E+03  0.98300010997E+03  0.25500000000E-02 0.  1.
    8880023    1    1    2    0    0  0.36719294299E+01  0.25024119814E+03 -0.81371588319E+03  0.10763725587E+04  0.65864270000E+03 0.  0.
    8880022    1    1    2    0    0 -0.36719294299E+01 -0.25024119814E+03  0.52866101508E+03  0.60457279313E+03  0.15294330000E+03 0. -1.
<mgrwt>
<rscale>  0 0.56595259E+03</rscale>
<asrwt>0</asrwt>
<pdfrwt beam="1">  1        2 0.10737619E+00 0.70458807E+03</pdfrwt>
<pdfrwt beam="2">  1       -2 0.15123079E+00 0.70458807E+03</pdfrwt>
<totfact> 0.12302597E+01</totfact>
</mgrwt>
</event>
<event>
 4    1  0.1998832E-007  0.1076242E+04  0.7818608E-02  0.9287981E-01
          2   -1    0    0  501    0  0.00000000000E+00  0.00000000000E+00  0.14945545738E+04  0.14945545738E+04  0.25500000000E-02 0. -1.
         -2   -1    0    0    0  501 -0.00000000000E+00 -0.00000000000E+00 -0.10628027095E+04  0.10628027095E+04  0.25500000000E-02 0.  1.
    8880023    1    1    2    0    0  0.73485940256E+03  0.42949720821E+03 -0.58307037211E+03  0.12240373599E+04  0.65864270000E+03 0.  1.
    8880022    1    1    2    0    0 -0.73485940256E+03 -0.42949720821E+03  0.10148222364E+04  0.13333199233E+04  0.15294330000E+03 0.  0.
<mgrwt>
<rscale>  0 0.10189696E+04</rscale>
<asrwt>0</asrwt>
<pdfrwt beam="1">  1        2 0.22993147E+00 0.10762418E+04</pdfrwt>
<pdfrwt beam="2">  1       -2 0.16350811E+00 0.10762418E+04</pdfrwt>
<totfact> 0.29855439E+00</totfact>
</mgrwt>
</event>
<event>
 4    1  0.4057841E-007  0.1023090E+04  0.7818608E-02  0.9351953E-01
         -2   -1    0    0    0  501 -0.00000000000E+00  0.00000000000E+00  0.21394470189E+04  0.21394470189E+04  0.25500000000E-02 0.  1.
          2   -1    0    0  501    0  0.00000000000E+00 -0.00000000000E+00 -0.39700095818E+04  0.39700095818E+04  0.25500000000E-02 0. -1.
    8880023    1    1    2    0    0  0.69587629954E+03 -0.35869090830E+03  0.19733557076E+04  0.22228013737E+04  0.65864270000E+03 0.  0.
    8880022    1    1    2    0    0 -0.69587629954E+03  0.35869090830E+03 -0.38039182705E+04  0.38866552270E+04  0.15294330000E+03 0. -1.
<mgrwt>
<rscale>  0 0.96137466E+03</rscale>
<asrwt>0</asrwt>
<pdfrwt beam="1">  1        2 0.61077070E+00 0.10230900E+04</pdfrwt>
<pdfrwt beam="2">  1       -2 0.32914570E+00 0.10230900E+04</pdfrwt>
<totfact> 0.80442508E-03</totfact>
</mgrwt>
</event>
<event>
 4    1  0.1998832E-007  0.1089969E+04  0.7818608E-02  0.9272308E-01
         -2   -1    0    0    0  501 -0.00000000000E+00  0.00000000000E+00  0.48874015814E+03  0.48874015815E+03  0.25500000000E-02 0.  1.
          2   -1    0    0  501    0  0.00000000000E+00 -0.00000000000E+00 -0.23478727661E+04  0.23478727661E+04  0.25500000000E-02 0. -1.
    8880023    1    1    2    0    0 -0.23864130365E+03 -0.83502790602E+03 -0.46062763995E+03  0.11833044006E+04  0.65864270000E+03 0.  0.
    8880022    1    1    2    0    0  0.23864130365E+03  0.83502790602E+03 -0.13985049680E+04  0.16533085236E+04  0.15294330000E+03 0.  0.
<mgrwt>
<rscale>  0 0.10337271E+04</rscale>
<asrwt>0</asrwt>
<pdfrwt beam="1">  1        2 0.36121119E+00 0.10899686E+04</pdfrwt>
<pdfrwt beam="2">  1       -2 0.75190795E-01 0.10899686E+04</pdfrwt>
<totfact> 0.67416298E+00</totfact>
</mgrwt>
</event>
<event>
 4    1  0.1998832E-007  0.6756292E+03  0.7818608E-02  0.1011913E+00
         -2   -1    0    0    0  501 -0.00000000000E+00  0.00000000000E+00  0.23284490392E+03  0.23284490393E+03  0.25500000000E-02 0.  1.
          2   -1    0    0  501    0  0.00000000000E+00 -0.00000000000E+00 -0.37868011072E+04  0.37868011072E+04  0.25500000000E-02 0. -1.
    8880023    1    1    2    0    0  0.14296128396E+03 -0.47187493471E+02 -0.26824233985E+03  0.72693104721E+03  0.65864270000E+03 0.  1.
    8880022    1    1    2    0    0 -0.14296128396E+03  0.47187493471E+02 -0.32857138635E+04  0.32927149640E+04  0.15294330000E+03 0.  0.
<mgrwt>
<rscale>  0 0.50721532E+03</rscale>
<asrwt>0</asrwt>
<pdfrwt beam="1">  1        2 0.58258474E+00 0.67562918E+03</pdfrwt>
<pdfrwt beam="2">  1       -2 0.35822296E-01 0.67562918E+03</pdfrwt>
<totfact> 0.41066221E+00</totfact>
</mgrwt>
</event>
<event>
 4    1  0.1998832E-007  0.9472395E+03  0.7818608E-02  0.9454097E-01
          2   -1    0    0  501    0  0.00000000000E+00  0.00000000000E+00  0.43492433280E+04  0.43492433280E+04  0.25500000000E-02 0. -1.
         -2   -1    0    0    0  501 -0.00000000000E+00 -0.00000000000E+00 -0.32855844961E+03  0.32855844962E+03  0.25500000000E-02 0.  1.
    8880023    1    1    2    0    0 -0.13783986032E+02 -0.68063383095E+03  0.38426851079E+04  0.39577129071E+04  0.65864270000E+03 0.  0.
    8880022    1    1    2    0    0  0.13783986032E+02  0.68063383095E+03  0.17799977042E+03  0.72008887048E+03  0.15294330000E+03 0.  0.
<mgrwt>
<rscale>  0 0.87754334E+03</rscale>
<asrwt>0</asrwt>
<pdfrwt beam="1">  1        2 0.66911433E+00 0.94723947E+03</pdfrwt>
<pdfrwt beam="2">  1       -2 0.50547456E-01 0.94723947E+03</pdfrwt>
<totfact> 0.68435040E-01</totfact>
</mgrwt>
</event>
<event>
 4    1  0.1998832E-007  0.1228551E+04  0.7818608E-02  0.9129857E-01
          2   -1    0    0  501    0  0.00000000000E+00  0.00000000000E+00  0.12194079623E+04  0.12194079623E+04  0.25500000000E-02 0. -1.
         -2   -1    0    0    0  501 -0.00000000000E+00 -0.00000000000E+00 -0.12479275345E+04  0.12479275345E+04  0.25500000000E-02 0.  1.
    8880023    1    1    2    0    0 -0.28622228939E+02 -0.10366808011E+04  0.45864977726E+03  0.13113718541E+04  0.65864270000E+03 0. -1.
    8880022    1    1    2    0    0  0.28622228939E+02  0.10366808011E+04 -0.48716934947E+03  0.11559636427E+04  0.15294330000E+03 0.  0.
<mgrwt>
<rscale>  0 0.11807704E+04</rscale>
<asrwt>0</asrwt>
<pdfrwt beam="1">  1        2 0.18760122E+00 0.12285506E+04</pdfrwt>
<pdfrwt beam="2">  1       -2 0.19198885E+00 0.12285506E+04</pdfrwt>
<totfact> 0.26844682E+00</totfact>
</mgrwt>
</event>
<event>
 4    1  0.1998832E-007  0.1129161E+04  0.7818608E-02  0.9229263E-01
          2   -1    0    0  501    0  0.00000000000E+00  0.00000000000E+00  0.31347351482E+04  0.31347351482E+04  0.25500000000E-02 0. -1.
         -2   -1    0    0    0  501 -0.00000000000E+00 -0.00000000000E+00 -0.68976342982E+03  0.68976342982E+03  0.25500000000E-02 0.  1.
    8880023    1    1    2    0    0 -0.65295292881E+03 -0.64408528336E+03 -0.81752985162E+02  0.11321162203E+04  0.65864270000E+03 0.  0.
    8880022    1    1    2    0    0  0.65295292881E+03  0.64408528336E+03  0.25267247036E+04  0.26923823577E+04  0.15294330000E+03 0.  0.
<mgrwt>
<rscale>  0 0.10756420E+04</rscale>
<asrwt>0</asrwt>
<pdfrwt beam="1">  1        2 0.48226695E+00 0.11291606E+04</pdfrwt>
<pdfrwt beam="2">  1       -2 0.10611745E+00 0.11291606E+04</pdfrwt>
<totfact> 0.10266034E+00</totfact>
</mgrwt>
</event>
<event>
 4    1  0.1998832E-007  0.1085100E+04  0.7818608E-02  0.9277830E-01
          2   -1    0    0  501    0  0.00000000000E+00  0.00000000000E+00  0.23930119541E+04  0.23930119541E+04  0.25500000000E-02 0. -1.
         -2   -1    0    0    0  501 -0.00000000000E+00 -0.00000000000E+00 -0.65650596583E+03  0.65650596584E+03  0.25500000000E-02 0.  1.
    8880023    1    1    2    0    0 -0.45197568235E+02  0.86115520300E+03 -0.21637584621E+02  0.10853153897E+04  0.65864270000E+03 0.  0.
    8880022    1    1    2    0    0  0.45197568235E+02 -0.86115520300E+03  0.17581435729E+04  0.19642025302E+04  0.15294330000E+03 0.  0.
<mgrwt>
<rscale>  0 0.10284975E+04</rscale>
<asrwt>0</asrwt>
<pdfrwt beam="1">  1        2 0.36815569E+00 0.10850997E+04</pdfrwt>
<pdfrwt beam="2">  1       -2 0.10100092E+00 0.10850997E+04</pdfrwt>
<totfact> 0.32218807E+00</totfact>
</mgrwt>
</event>
<event>
 4    1  0.1998832E-007  0.7690125E+03  0.7818608E-02  0.9782310E-01
          2   -1    0    0  501    0  0.00000000000E+00  0.00000000000E+00  0.23583540369E+04  0.23583540369E+04  0.25500000000E-02 0. -1.
         -2   -1    0    0    0  501 -0.00000000000E+00 -0.00000000000E+00 -0.17043385663E+03  0.17043385665E+03  0.25500000000E-02 0.  1.
    8880023    1    1    2    0    0 -0.31482400061E+03  0.24177657512E+03  0.96467120404E+03  0.12336818074E+04  0.65864270000E+03 0.  0.
    8880022    1    1    2    0    0  0.31482400061E+03 -0.24177657512E+03  0.12232489763E+04  0.12951060862E+04  0.15294330000E+03 0.  0.
<mgrwt>
<rscale>  0 0.66320593E+03</rscale>
<asrwt>0</asrwt>
<pdfrwt beam="1">  1        2 0.36282371E+00 0.76901253E+03</pdfrwt>
<pdfrwt beam="2">  1       -2 0.26220592E-01 0.76901253E+03</pdfrwt>
<totfact> 0.57087746E+01</totfact>
</mgrwt>
</event>
<event>
 4    1  0.1998832E-007  0.6822029E+03  0.7818608E-02  0.1008104E+00
         -2   -1    0    0    0  501 -0.00000000000E+00  0.00000000000E+00  0.32311148203E+03  0.32311148204E+03  0.25500000000E-02 0.  1.
          2   -1    0    0  501    0  0.00000000000E+00 -0.00000000000E+00 -0.30254786010E+04  0.30254786010E+04  0.25500000000E-02 0. -1.
    8880023    1    1    2    0    0 -0.14343652806E+03 -0.10495952417E+03 -0.48003525543E+02  0.68388967241E+03  0.65864270000E+03 0.  1.
    8880022    1    1    2    0    0  0.14343652806E+03  0.10495952417E+03 -0.26543635935E+04  0.26647004107E+04  0.15294330000E+03 0.  0.
<mgrwt>
<rscale>  0 0.52235158E+03</rscale>
<asrwt>0</asrwt>
<pdfrwt beam="1">  1        2 0.46545823E+00 0.68220286E+03</pdfrwt>
<pdfrwt beam="2">  1       -2 0.49709461E-01 0.68220286E+03</pdfrwt>
<totfact> 0.69415581E+00</totfact>
</mgrwt>
</event>
<event>
 4    1  0.1998832E-007  0.8423753E+03  0.7818608E-02  0.9625718E-01
          2   -1    0    0  501    0  0.00000000000E+00  0.00000000000E+00  0.82389994922E+03  0.82389994922E+03  0.25500000000E-02 0. -1.
         -2   -1    0    0    0  501 -0.00000000000E+00 -0.00000000000E+00 -0.18593714634E+04  0.18593714634E+04  0.25500000000E-02 0.  1.
    8880023    1    1    2    0    0 -0.24034037185E+03 -0.46692874968E+03 -0.16548726619E+04  0.18569328703E+04  0.65864270000E+03 0.  1.
    8880022    1    1    2    0    0  0.24034037185E+03  0.46692874968E+03  0.61940114772E+03  0.82633854227E+03  0.15294330000E+03 0.  0.
<mgrwt>
<rscale>  0 0.75617159E+03</rscale>
<asrwt>0</asrwt>
<pdfrwt beam="1">  1        2 0.12675384E+00 0.84237531E+03</pdfrwt>
<pdfrwt beam="2">  1       -2 0.28605715E+00 0.84237531E+03</pdfrwt>
<totfact> 0.13126649E+00</totfact>
</mgrwt>
</event>
<event>
 4    1  0.1998832E-007  0.9250921E+03  0.7818608E-02  0.9486895E-01
         -2   -1    0    0    0  501 -0.00000000000E+00  0.00000000000E+00  0.79630617514E+03  0.79630617514E+03  0.25500000000E-02 0.  1.
          2   -1    0    0  501    0  0.00000000000E+00 -0.00000000000E+00 -0.16594881504E+04  0.16594881504E+04  0.25500000000E-02 0. -1.
    8880023    1    1    2    0    0 -0.33493052807E+03 -0.55660287305E+03  0.41497176989E+03  0.10139018656E+04  0.65864270000E+03 0.  1.
    8880022    1    1    2    0    0  0.33493052807E+03  0.55660287305E+03 -0.12781537451E+04  0.14418924600E+04  0.15294330000E+03 0.  0.
<mgrwt>
<rscale>  0 0.85256930E+03</rscale>
<asrwt>0</asrwt>
<pdfrwt beam="1">  1        2 0.25530587E+00 0.92509212E+03</pdfrwt>
<pdfrwt beam="2">  1       -2 0.12250864E+00 0.92509212E+03</pdfrwt>
<totfact> 0.52302466E+00</totfact>
</mgrwt>
</event>
<event>
 4    1  0.1998832E-007  0.7546793E+03  0.7818608E-02  0.9819082E-01
         -2   -1    0    0    0  501 -0.00000000000E+00  0.00000000000E+00  0.50542814257E+03  0.50542814258E+03  0.25500000000E-02 0.  1.
          2   -1    0    0  501    0  0.00000000000E+00 -0.00000000000E+00 -0.74609433662E+03  0.74609433662E+03  0.25500000000E-02 0. -1.
    8880023    1    1    2    0    0 -0.72083223707E+02  0.36129588636E+03  0.52462227428E+02  0.75650062803E+03  0.65864270000E+03 0.  0.
    8880022    1    1    2    0    0  0.72083223707E+02 -0.36129588636E+03 -0.29312842148E+03  0.49502185117E+03  0.15294330000E+03 0.  0.
<mgrwt>
<rscale>  0 0.64348474E+03</rscale>
<asrwt>0</asrwt>
<pdfrwt beam="1">  1        2 0.11478374E+00 0.75467935E+03</pdfrwt>
<pdfrwt beam="2">  1       -2 0.77758176E-01 0.75467935E+03</pdfrwt>
<totfact> 0.56335660E+01</totfact>
</mgrwt>
</event>
<event>
 4    1  0.1998832E-007  0.1133111E+04  0.7818608E-02  0.9225057E-01
          2   -1    0    0  501    0  0.00000000000E+00  0.00000000000E+00  0.30924903235E+04  0.30924903235E+04  0.25500000000E-02 0. -1.
         -2   -1    0    0    0  501 -0.00000000000E+00 -0.00000000000E+00 -0.50991666687E+03  0.50991666687E+03  0.25500000000E-02 0.  1.
    8880023    1    1    2    0    0 -0.92197518723E+03 -0.95738883386E+01  0.23944693458E+04  0.26490420078E+04  0.65864270000E+03 0.  0.
    8880022    1    1    2    0    0  0.92197518723E+03  0.95738883386E+01  0.18810431091E+03  0.95336498258E+03  0.15294330000E+03 0.  0.
<mgrwt>
<rscale>  0 0.10798501E+04</rscale>
<asrwt>0</asrwt>
<pdfrwt beam="1">  1        2 0.47576775E+00 0.11331108E+04</pdfrwt>
<pdfrwt beam="2">  1       -2 0.78448716E-01 0.11331108E+04</pdfrwt>
<totfact> 0.22070561E+00</totfact>
</mgrwt>
</event>
<event>
 4    1  0.1998832E-007  0.1031913E+04  0.7818608E-02  0.9340947E-01
          2   -1    0    0  501    0  0.00000000000E+00  0.00000000000E+00  0.22088211283E+04  0.22088211283E+04  0.25500000000E-02 0. -1.
         -2   -1    0    0    0  501 -0.00000000000E+00 -0.00000000000E+00 -0.51628240373E+03  0.51628240374E+03  0.25500000000E-02 0.  1.
    8880023    1    1    2    0    0  0.77453024634E+03  0.17645773156E+03  0.23533238841E+03  0.10584072812E+04  0.65864270000E+03 0.  0.
    8880022    1    1    2    0    0 -0.77453024634E+03 -0.17645773156E+03  0.14572063361E+04  0.16666962508E+04  0.15294330000E+03 0.  0.
<mgrwt>
<rscale>  0 0.97099036E+03</rscale>
<asrwt>0</asrwt>
<pdfrwt beam="1">  1        2 0.33981864E+00 0.10319131E+04</pdfrwt>
<pdfrwt beam="2">  1       -2 0.79428061E-01 0.10319131E+04</pdfrwt>
<totfact> 0.71815467E+00</totfact>
</mgrwt>
</event>
<event>
 4    1  0.1998832E-007  0.1052396E+04  0.7818608E-02  0.9316007E-01
          2   -1    0    0  501    0  0.00000000000E+00  0.00000000000E+00  0.15744674264E+04  0.15744674264E+04  0.25500000000E-02 0. -1.
         -2   -1    0    0    0  501 -0.00000000000E+00 -0.00000000000E+00 -0.23924599958E+04  0.23924599958E+04  0.25500000000E-02 0.  1.
    8880023    1    1    2    0    0 -0.81021736881E+03  0.13143195510E+03 -0.21506423693E+04  0.23943264920E+04  0.65864270000E+03 0.  1.
    8880022    1    1    2    0    0  0.81021736881E+03 -0.13143195510E+03  0.13326497999E+04  0.15726009302E+04  0.15294330000E+03 0.  0.
<mgrwt>
<rscale>  0 0.99322492E+03</rscale>
<asrwt>0</asrwt>
<pdfrwt beam="1">  1        2 0.24222576E+00 0.10523957E+04</pdfrwt>
<pdfrwt beam="2">  1       -2 0.36807077E+00 0.10523957E+04</pdfrwt>
<totfact> 0.13848473E-01</totfact>
</mgrwt>
</event>
<event>
 4    1  0.1998832E-007  0.8711834E+03  0.7818608E-02  0.9573972E-01
          2   -1    0    0  501    0  0.00000000000E+00  0.00000000000E+00  0.33889000469E+04  0.33889000469E+04  0.25500000000E-02 0. -1.
         -2   -1    0    0    0  501 -0.00000000000E+00 -0.00000000000E+00 -0.27031156018E+03  0.27031156019E+03  0.25500000000E-02 0.  1.
    8880023    1    1    2    0    0  0.44652382945E+03  0.35463620821E+03  0.56521207148E+03  0.10384725622E+04  0.65864270000E+03 0. -1.
    8880022    1    1    2    0    0 -0.44652382945E+03 -0.35463620821E+03  0.25533764153E+04  0.26207390449E+04  0.15294330000E+03 0.  0.
<mgrwt>
<rscale>  0 0.79043125E+03</rscale>
<asrwt>0</asrwt>
<pdfrwt beam="1">  1        2 0.52136924E+00 0.87118343E+03</pdfrwt>
<pdfrwt beam="2">  1       -2 0.41586394E-01 0.87118343E+03</pdfrwt>
<totfact> 0.56075702E+00</totfact>
</mgrwt>
</event>
<event>
 4    1  0.1998832E-007  0.1579116E+04  0.7818608E-02  0.8855699E-01
          2   -1    0    0  501    0  0.00000000000E+00  0.00000000000E+00  0.14112669909E+04  0.14112669909E+04  0.25500000000E-02 0. -1.
         -2   -1    0    0    0  501 -0.00000000000E+00 -0.00000000000E+00 -0.23593140451E+04  0.23593140451E+04  0.25500000000E-02 0.  1.
    8880023    1    1    2    0    0 -0.53897162485E+03  0.13301530781E+04  0.56724091023E+03  0.16779064575E+04  0.65864270000E+03 0.  0.
    8880022    1    1    2    0    0  0.53897162485E+03 -0.13301530781E+04 -0.15152879644E+04  0.20926745785E+04  0.15294330000E+03 0.  0.
<mgrwt>
<rscale>  0 0.15440155E+04</rscale>
<asrwt>0</asrwt>
<pdfrwt beam="1">  1        2 0.21711800E+00 0.15791162E+04</pdfrwt>
<pdfrwt beam="2">  1       -2 0.36297139E+00 0.15791162E+04</pdfrwt>
<totfact> 0.17161952E-01</totfact>
</mgrwt>
</event>
<event>
 4    1  0.1998832E-007  0.1063768E+04  0.7818608E-02  0.9302511E-01
         -2   -1    0    0    0  501 -0.00000000000E+00  0.00000000000E+00  0.21851595792E+04  0.21851595792E+04  0.25500000000E-02 0.  1.
          2   -1    0    0  501    0  0.00000000000E+00 -0.00000000000E+00 -0.16520450132E+04  0.16520450132E+04  0.25500000000E-02 0. -1.
    8880023    1    1    2    0    0  0.56353640327E+03  0.61661820507E+03  0.19292415621E+04  0.22030829535E+04  0.65864270000E+03 0.  1.
    8880022    1    1    2    0    0 -0.56353640327E+03 -0.61661820507E+03 -0.13961269961E+04  0.16341216390E+04  0.15294330000E+03 0.  0.
<mgrwt>
<rscale>  0 0.10055201E+04</rscale>
<asrwt>0</asrwt>
<pdfrwt beam="1">  1        2 0.25416077E+00 0.10637676E+04</pdfrwt>
<pdfrwt beam="2">  1       -2 0.33617840E+00 0.10637676E+04</pdfrwt>
<totfact> 0.19825447E-01</totfact>
</mgrwt>
</event>
<event>
 4    1  0.1998832E-007  0.6748626E+03  0.7818608E-02  0.1012393E+00
          2   -1    0    0  501    0  0.00000000000E+00  0.00000000000E+00  0.32017562492E+04  0.32017562492E+04  0.25500000000E-02 0. -1.
         -2   -1    0    0    0  501 -0.00000000000E+00 -0.00000000000E+00 -0.19244348207E+03  0.19244348209E+03  0.25500000000E-02 0.  1.
    8880023    1    1    2    0    0 -0.72862294424E+02 -0.12775159145E+03  0.41717929842E+03  0.79339659462E+03  0.65864270000E+03 0.  1.
    8880022    1    1    2    0    0  0.72862294424E+02  0.12775159145E+03  0.25921334687E+04  0.26008031366E+04  0.15294330000E+03 0.  0.
<mgrwt>
<rscale>  0 0.50534559E+03</rscale>
<asrwt>0</asrwt>
<pdfrwt beam="1">  1        2 0.49257790E+00 0.67486264E+03</pdfrwt>
<pdfrwt beam="2">  1       -2 0.29606689E-01 0.67486264E+03</pdfrwt>
<totfact> 0.14709942E+01</totfact>
</mgrwt>
</event>
<event>
 4    1  0.1998832E-007  0.7074361E+03  0.7818608E-02  0.9967648E-01
          2   -1    0    0  501    0  0.00000000000E+00  0.00000000000E+00  0.82693899969E+03  0.82693899969E+03  0.25500000000E-02 0. -1.
         -2   -1    0    0    0  501 -0.00000000000E+00 -0.00000000000E+00 -0.46339330047E+03  0.46339330048E+03  0.25500000000E-02 0.  1.
    8880023    1    1    2    0    0  0.60122602374E+02  0.25107948059E+03 -0.12362704375E+03  0.71815700588E+03  0.65864270000E+03 0.  1.
    8880022    1    1    2    0    0 -0.60122602374E+02 -0.25107948059E+03  0.48717274297E+03  0.57217529429E+03  0.15294330000E+03 0.  0.
<mgrwt>
<rscale>  0 0.57091867E+03</rscale>
<asrwt>0</asrwt>
<pdfrwt beam="1">  1        2 0.12722138E+00 0.70743610E+03</pdfrwt>
<pdfrwt beam="2">  1       -2 0.71291277E-01 0.70743610E+03</pdfrwt>
<totfact> 0.59846866E+01</totfact>
</mgrwt>
</event>
<event>
 4    1  0.1998832E-007  0.1298696E+04  0.7818608E-02  0.9066687E-01
         -2   -1    0    0    0  501 -0.00000000000E+00  0.00000000000E+00  0.10179837221E+04  0.10179837221E+04  0.25500000000E-02 0.  1.
          2   -1    0    0  501    0  0.00000000000E+00 -0.00000000000E+00 -0.20465774333E+04  0.20465774333E+04  0.25500000000E-02 0. -1.
    8880023    1    1    2    0    0 -0.55343411417E+03  0.97288791016E+03  0.28747922460E+03  0.13301333449E+04  0.65864270000E+03 0.  0.
    8880022    1    1    2    0    0  0.55343411417E+03 -0.97288791016E+03 -0.13160729358E+04  0.17344278105E+04  0.15294330000E+03 0.  0.
<mgrwt>
<rscale>  0 0.12542094E+04</rscale>
<asrwt>0</asrwt>
<pdfrwt beam="1">  1        2 0.31485807E+00 0.12986957E+04</pdfrwt>
<pdfrwt beam="2">  1       -2 0.15661288E+00 0.12986957E+04</pdfrwt>
<totfact> 0.16172000E+00</totfact>
</mgrwt>
</event>
<event>
 4    1  0.1998832E-007  0.1524899E+04  0.7818608E-02  0.8892251E-01
          2   -1    0    0  501    0  0.00000000000E+00  0.00000000000E+00  0.20190322413E+04  0.20190322413E+04  0.25500000000E-02 0. -1.
         -2   -1    0    0    0  501 -0.00000000000E+00 -0.00000000000E+00 -0.19580003206E+04  0.19580003206E+04  0.25500000000E-02 0.  1.
    8880023    1    1    2    0    0  0.10526781677E+04 -0.88508476842E+03 -0.13237765001E+04  0.20193317708E+04  0.65864270000E+03 0.  0.
    8880022    1    1    2    0    0 -0.10526781677E+04  0.88508476842E+03  0.13848084207E+04  0.19577007911E+04  0.15294330000E+03 0.  0.
<mgrwt>
<rscale>  0 0.14883292E+04</rscale>
<asrwt>0</asrwt>
<pdfrwt beam="1">  1        2 0.31062035E+00 0.15248989E+04</pdfrwt>
<pdfrwt beam="2">  1       -2 0.30123082E+00 0.15248989E+04</pdfrwt>
<totfact> 0.19045878E-01</totfact>
</mgrwt>
</event>
<event>
 4    1  0.1998832E-007  0.1645752E+04  0.7818608E-02  0.8813031E-01
         -2   -1    0    0    0  501 -0.00000000000E+00  0.00000000000E+00  0.18960726910E+04  0.18960726910E+04  0.25500000000E-02 0.  1.
          2   -1    0    0  501    0  0.00000000000E+00 -0.00000000000E+00 -0.26564310722E+04  0.26564310722E+04  0.25500000000E-02 0. -1.
    8880023    1    1    2    0    0 -0.48955601340E+03  0.14265433267E+04  0.12271136606E+04  0.20528782467E+04  0.65864270000E+03 0.  0.
    8880022    1    1    2    0    0  0.48955601340E+03 -0.14265433267E+04 -0.19874720418E+04  0.24996255166E+04  0.15294330000E+03 0.  0.
<mgrwt>
<rscale>  0 0.16122934E+04</rscale>
<asrwt>0</asrwt>
<pdfrwt beam="1">  1        2 0.40868170E+00 0.16457525E+04</pdfrwt>
<pdfrwt beam="2">  1       -2 0.29170349E+00 0.16457525E+04</pdfrwt>
<totfact> 0.92776458E-02</totfact>
</mgrwt>
</event>
<event>
 4    1  0.1998832E-007  0.1865595E+04  0.7818608E-02  0.8687094E-01
         -2   -1    0    0    0  501 -0.00000000000E+00  0.00000000000E+00  0.15376597151E+04  0.15376597152E+04  0.25500000000E-02 0.  1.
          2   -1    0    0  501    0  0.00000000000E+00 -0.00000000000E+00 -0.28380931344E+04  0.28380931344E+04  0.25500000000E-02 0. -1.
    8880023    1    1    2    0    0  0.12519123280E+04  0.12162857724E+04  0.42853019990E+03  0.19141796927E+04  0.65864270000E+03 0.  0.
    8880022    1    1    2    0    0 -0.12519123280E+04 -0.12162857724E+04 -0.17289636191E+04  0.24615731569E+04  0.15294330000E+03 0.  0.
<mgrwt>
<rscale>  0 0.18365631E+04</rscale>
<asrwt>0</asrwt>
<pdfrwt beam="1">  1        2 0.43662971E+00 0.18655953E+04</pdfrwt>
<pdfrwt beam="2">  1       -2 0.23656303E+00 0.18655953E+04</pdfrwt>
<totfact> 0.15377494E-01</totfact>
</mgrwt>
</event>
<event>
 4    1  0.1998832E-007  0.7083690E+03  0.7818608E-02  0.9964108E-01
          2   -1    0    0  501    0  0.00000000000E+00  0.00000000000E+00  0.42160053482E+04  0.42160053482E+04  0.25500000000E-02 0. -1.
         -2   -1    0    0    0  501 -0.00000000000E+00 -0.00000000000E+00 -0.24964179819E+03  0.24964179820E+03  0.25500000000E-02 0.  1.
    8880023    1    1    2    0    0 -0.24511385054E+03 -0.88857219614E+02  0.27177621475E+03  0.75871531049E+03  0.65864270000E+03 0.  1.
    8880022    1    1    2    0    0  0.24511385054E+03  0.88857219614E+02  0.36945873352E+04  0.37069318359E+04  0.15294330000E+03 0.  0.
<mgrwt>
<rscale>  0 0.57252433E+03</rscale>
<asrwt>0</asrwt>
<pdfrwt beam="1">  1        2 0.64861614E+00 0.70836898E+03</pdfrwt>
<pdfrwt beam="2">  1       -2 0.38406434E-01 0.70836898E+03</pdfrwt>
<totfact> 0.16335513E+00</totfact>
</mgrwt>
</event>
<event>
 4    1  0.1998832E-007  0.8703044E+03  0.7818608E-02  0.9575490E-01
         -2   -1    0    0    0  501 -0.00000000000E+00  0.00000000000E+00  0.26123800157E+03  0.26123800158E+03  0.25500000000E-02 0.  1.
          2   -1    0    0  501    0  0.00000000000E+00 -0.00000000000E+00 -0.48380364241E+04  0.48380364241E+04  0.25500000000E-02 0. -1.
    8880023    1    1    2    0    0 -0.23399150208E+03  0.51852429704E+03 -0.54980779553E+03  0.10294261935E+04  0.65864270000E+03 0.  1.
    8880022    1    1    2    0    0  0.23399150208E+03 -0.51852429704E+03 -0.40269906270E+04  0.40698482322E+04  0.15294330000E+03 0.  0.
<mgrwt>
<rscale>  0 0.78939849E+03</rscale>
<asrwt>0</asrwt>
<pdfrwt beam="1">  1        2 0.74431323E+00 0.87030436E+03</pdfrwt>
<pdfrwt beam="2">  1       -2 0.40190465E-01 0.87030436E+03</pdfrwt>
<totfact> 0.35596297E-01</totfact>
</mgrwt>
</event>
<event>
 4    1  0.1998832E-007  0.8851088E+03  0.7818608E-02  0.9550372E-01
          2   -1    0    0  501    0  0.00000000000E+00  0.00000000000E+00  0.20852908207E+04  0.20852908207E+04  0.25500000000E-02 0. -1.
         -2   -1    0    0    0  501 -0.00000000000E+00 -0.00000000000E+00 -0.50707455862E+03  0.50707455863E+03  0.25500000000E-02 0.  1.
    8880023    1    1    2    0    0 -0.15448974809E+03  0.57073659619E+03 -0.15909806689E+02  0.88525175668E+03  0.65864270000E+03 0.  0.
    8880022    1    1    2    0    0  0.15448974809E+03 -0.57073659619E+03  0.15941260688E+04  0.17071136227E+04  0.15294330000E+03 0.  0.
<mgrwt>
<rscale>  0 0.80669793E+03</rscale>
<asrwt>0</asrwt>
<pdfrwt beam="1">  1        2 0.32081397E+00 0.88510878E+03</pdfrwt>
<pdfrwt beam="2">  1       -2 0.78011471E-01 0.88510878E+03</pdfrwt>
<totfact> 0.89140782E+00</totfact>
</mgrwt>
</event>
<event>
 4    1  0.1998832E-007  0.1006635E+04  0.7818608E-02  0.9372928E-01
         -2   -1    0    0    0  501 -0.00000000000E+00  0.00000000000E+00  0.49520878376E+03  0.49520878377E+03  0.25500000000E-02 0.  1.
          2   -1    0    0  501    0  0.00000000000E+00 -0.00000000000E+00 -0.16706353374E+04  0.16706353374E+04  0.25500000000E-02 0. -1.
    8880023    1    1    2    0    0  0.21411628931E+03 -0.73051963570E+03 -0.44784683489E+03  0.11017630041E+04  0.65864270000E+03 0.  0.
    8880022    1    1    2    0    0 -0.21411628931E+03  0.73051963570E+03 -0.72757971875E+03  0.10640811170E+04  0.15294330000E+03 0.  0.
<mgrwt>
<rscale>  0 0.94337530E+03</rscale>
<asrwt>0</asrwt>
<pdfrwt beam="1">  1        2 0.25702082E+00 0.10066355E+04</pdfrwt>
<pdfrwt beam="2">  1       -2 0.76185968E-01 0.10066355E+04</pdfrwt>
<totfact> 0.15674117E+01</totfact>
</mgrwt>
</event>
<event>
 4    1  0.1998832E-007  0.8288081E+03  0.7818608E-02  0.9651656E-01
         -2   -1    0    0    0  501 -0.00000000000E+00  0.00000000000E+00  0.64921816192E+03  0.64921816193E+03  0.25500000000E-02 0.  1.
          2   -1    0    0  501    0  0.00000000000E+00 -0.00000000000E+00 -0.16724714912E+04  0.16724714912E+04  0.25500000000E-02 0. -1.
    8880023    1    1    2    0    0 -0.30081035792E+03  0.40326893385E+03  0.31280907391E+03  0.88587382139E+03  0.65864270000E+03 0.  0.
    8880022    1    1    2    0    0  0.30081035792E+03 -0.40326893385E+03 -0.13360624032E+04  0.14358158317E+04  0.15294330000E+03 0.  0.
<mgrwt>
<rscale>  0 0.73969596E+03</rscale>
<asrwt>0</asrwt>
<pdfrwt beam="1">  1        2 0.25730330E+00 0.82880813E+03</pdfrwt>
<pdfrwt beam="2">  1       -2 0.99879718E-01 0.82880813E+03</pdfrwt>
<totfact> 0.85600026E+00</totfact>
</mgrwt>
</event>
<event>
 4    1  0.1998832E-007  0.9260160E+03  0.7818608E-02  0.9485496E-01
          2   -1    0    0  501    0  0.00000000000E+00  0.00000000000E+00  0.25829729360E+04  0.25829729360E+04  0.25500000000E-02 0. -1.
         -2   -1    0    0    0  501 -0.00000000000E+00 -0.00000000000E+00 -0.42978183516E+03  0.42978183517E+03  0.25500000000E-02 0.  1.
    8880023    1    1    2    0    0 -0.59059181970E+03 -0.27367278693E+03  0.19875553308E+03  0.94710583358E+03  0.65864270000E+03 0.  0.
    8880022    1    1    2    0    0  0.59059181970E+03  0.27367278693E+03  0.19544355677E+04  0.20656489376E+04  0.15294330000E+03 0.  0.
<mgrwt>
<rscale>  0 0.85361670E+03</rscale>
<asrwt>0</asrwt>
<pdfrwt beam="1">  1        2 0.39738045E+00 0.92601604E+03</pdfrwt>
<pdfrwt beam="2">  1       -2 0.66120283E-01 0.92601604E+03</pdfrwt>
<totfact> 0.67045032E+00</totfact>
</mgrwt>
</event>
<event>
 4    1  0.1998832E-007  0.1992841E+04  0.7818608E-02  0.8622754E-01
          2   -1    0    0  501    0  0.00000000000E+00  0.00000000000E+00  0.38773961221E+04  0.38773961221E+04  0.25500000000E-02 0. -1.
         -2   -1    0    0    0  501 -0.00000000000E+00 -0.00000000000E+00 -0.11152746345E+04  0.11152746345E+04  0.25500000000E-02 0.  1.
    8880023    1    1    2    0    0  0.11020186817E+04  0.15241921036E+04  0.23126312317E+04  0.30528151211E+04  0.65864270000E+03 0.  0.
    8880022    1    1    2    0    0 -0.11020186817E+04 -0.15241921036E+04  0.44949025590E+03  0.19398556355E+04  0.15294330000E+03 0.  0.
<mgrwt>
<rscale>  0 0.19658530E+04</rscale>
<asrwt>0</asrwt>
<pdfrwt beam="1">  1        2 0.59652249E+00 0.19928414E+04</pdfrwt>
<pdfrwt beam="2">  1       -2 0.17158071E+00 0.19928414E+04</pdfrwt>
<totfact> 0.80114038E-02</totfact>
</mgrwt>
</event>
<event>
 4    1  0.1998832E-007  0.6674905E+03  0.7818608E-02  0.1017529E+00
         -2   -1    0    0    0  501 -0.00000000000E+00  0.00000000000E+00  0.18451918556E+04  0.18451918556E+04  0.25500000000E-02 0.  1.
          2   -1    0    0  501    0  0.00000000000E+00 -0.00000000000E+00 -0.12312411669E+04  0.12312411669E+04  0.25500000000E-02 0. -1.
    8880023    1    1    2    0    0  0.93892187402E+02 -0.54015337550E+02  0.17770786444E+04  0.18983024296E+04  0.65864270000E+03 0.  1.
    8880022    1    1    2    0    0 -0.93892187402E+02  0.54015337550E+02 -0.11631279557E+04  0.11781305929E+04  0.15294330000E+03 0.  0.
<mgrwt>
<rscale>  0 0.48588775E+03</rscale>
<asrwt>0</asrwt>
<pdfrwt beam="1">  1        2 0.18942172E+00 0.66749053E+03</pdfrwt>
<pdfrwt beam="2">  1       -2 0.28387567E+00 0.66749053E+03</pdfrwt>
<totfact> 0.77027429E-01</totfact>
</mgrwt>
</event>
<event>
 4    1  0.1998832E-007  0.1120502E+04  0.7818608E-02  0.9238566E-01
          2   -1    0    0  501    0  0.00000000000E+00  0.00000000000E+00  0.17343020664E+04  0.17343020664E+04  0.25500000000E-02 0. -1.
         -2   -1    0    0    0  501 -0.00000000000E+00 -0.00000000000E+00 -0.81123907470E+03  0.81123907470E+03  0.25500000000E-02 0.  1.
    8880023    1    1    2    0    0 -0.80680370982E+03  0.41325707175E+03 -0.15228756692E+03  0.11308029638E+04  0.65864270000E+03 0.  0.
    8880022    1    1    2    0    0  0.80680370982E+03 -0.41325707175E+03  0.10753505587E+04  0.14147381774E+04  0.15294330000E+03 0.  0.
<mgrwt>
<rscale>  0 0.10664076E+04</rscale>
<asrwt>0</asrwt>
<pdfrwt beam="1">  1        2 0.26681570E+00 0.11205016E+04</pdfrwt>
<pdfrwt beam="2">  1       -2 0.12480601E+00 0.11205016E+04</pdfrwt>
<totfact> 0.44385496E+00</totfact>
</mgrwt>
</event>
<event>
 4    1  0.1998832E-007  0.9142120E+03  0.7818608E-02  0.9503591E-01
          2   -1    0    0  501    0  0.00000000000E+00  0.00000000000E+00  0.22434114230E+04  0.22434114230E+04  0.25500000000E-02 0. -1.
         -2   -1    0    0    0  501 -0.00000000000E+00 -0.00000000000E+00 -0.79345673215E+03  0.79345673216E+03  0.25500000000E-02 0.  1.
    8880023    1    1    2    0    0 -0.51986695893E+03 -0.36292117400E+03 -0.45656530990E+03  0.10218784282E+04  0.65864270000E+03 0.  1.
    8880022    1    1    2    0    0  0.51986695893E+03  0.36292117400E+03  0.19065200007E+04  0.20149897269E+04  0.15294330000E+03 0.  0.
<mgrwt>
<rscale>  0 0.84019565E+03</rscale>
<asrwt>0</asrwt>
<pdfrwt beam="1">  1        2 0.34514021E+00 0.91421203E+03</pdfrwt>
<pdfrwt beam="2">  1       -2 0.12207027E+00 0.91421203E+03</pdfrwt>
<totfact> 0.25205573E+00</totfact>
</mgrwt>
</event>
<event>
 4    1  0.1998832E-007  0.1476719E+04  0.7818608E-02  0.8926253E-01
          2   -1    0    0  501    0  0.00000000000E+00  0.00000000000E+00  0.14870579468E+04  0.14870579468E+04  0.25500000000E-02 0. -1.
         -2   -1    0    0    0  501 -0.00000000000E+00 -0.00000000000E+00 -0.15574679124E+04  0.15574679124E+04  0.25500000000E-02 0.  1.
    8880023    1    1    2    0    0  0.11026829995E+04 -0.72868263605E+03 -0.62437516948E+03  0.16032912212E+04  0.65864270000E+03 0.  0.
    8880022    1    1    2    0    0 -0.11026829995E+04  0.72868263605E+03  0.55396520385E+03  0.14412346379E+04  0.15294330000E+03 0.  0.
<mgrwt>
<rscale>  0 0.14387277E+04</rscale>
<asrwt>0</asrwt>
<pdfrwt beam="1">  1        2 0.22877814E+00 0.14767188E+04</pdfrwt>
<pdfrwt beam="2">  1       -2 0.23961045E+00 0.14767188E+04</pdfrwt>
<totfact> 0.90665228E-01</totfact>
</mgrwt>
</event>
<event>
 4    1  0.1998832E-007  0.9208583E+03  0.7818608E-02  0.9493344E-01
         -2   -1    0    0    0  501 -0.00000000000E+00  0.00000000000E+00  0.42426726310E+03  0.42426726310E+03  0.25500000000E-02 0.  1.
          2   -1    0    0  501    0  0.00000000000E+00 -0.00000000000E+00 -0.21104406443E+04  0.21104406443E+04  0.25500000000E-02 0. -1.
    8880023    1    1    2    0    0 -0.44907790487E+03 -0.46097592301E+03 -0.25103884786E+03  0.95446344908E+03  0.65864270000E+03 0.  1.
    8880022    1    1    2    0    0  0.44907790487E+03  0.46097592301E+03 -0.14351345333E+04  0.15802444583E+04  0.15294330000E+03 0.  0.
<mgrwt>
<rscale>  0 0.84776303E+03</rscale>
<asrwt>0</asrwt>
<pdfrwt beam="1">  1        2 0.32468317E+00 0.92085828E+03</pdfrwt>
<pdfrwt beam="2">  1       -2 0.65271888E-01 0.92085828E+03</pdfrwt>
<totfact> 0.12720170E+01</totfact>
</mgrwt>
</event>
<event>
 4    1  0.1998832E-007  0.6910358E+03  0.7818608E-02  0.1003664E+00
         -2   -1    0    0    0  501 -0.00000000000E+00  0.00000000000E+00  0.10334214932E+04  0.10334214932E+04  0.25500000000E-02 0.  1.
          2   -1    0    0  501    0  0.00000000000E+00 -0.00000000000E+00 -0.61541016867E+03  0.61541016867E+03  0.25500000000E-02 0. -1.
    8880023    1    1    2    0    0  0.73931227885E+02  0.19558759634E+03  0.88016226354E+03  0.11190246426E+04  0.65864270000E+03 0.  1.
    8880022    1    1    2    0    0 -0.73931227885E+02 -0.19558759634E+03 -0.46215093898E+03  0.52980701931E+03  0.15294330000E+03 0.  0.
<mgrwt>
<rscale>  0 0.54072375E+03</rscale>
<asrwt>0</asrwt>
<pdfrwt beam="1">  1        2 0.94678489E-01 0.69103585E+03</pdfrwt>
<pdfrwt beam="2">  1       -2 0.15898792E+00 0.69103585E+03</pdfrwt>
<totfact> 0.12591389E+01</totfact>
</mgrwt>
</event>
<event>
 4    1  0.1998832E-007  0.7339436E+03  0.7818608E-02  0.9877953E-01
          2   -1    0    0  501    0  0.00000000000E+00  0.00000000000E+00  0.22251362147E+04  0.22251362147E+04  0.25500000000E-02 0. -1.
         -2   -1    0    0    0  501 -0.00000000000E+00 -0.00000000000E+00 -0.59865456823E+03  0.59865456824E+03  0.25500000000E-02 0.  1.
    8880023    1    1    2    0    0  0.32376119941E+03 -0.64597234337E+01 -0.35141354049E+03  0.81373504593E+03  0.65864270000E+03 0.  1.
    8880022    1    1    2    0    0 -0.32376119941E+03  0.64597234337E+01  0.19778951869E+04  0.20100557370E+04  0.15294330000E+03 0.  0.
<mgrwt>
<rscale>  0 0.61341754E+03</rscale>
<asrwt>0</asrwt>
<pdfrwt beam="1">  1        2 0.34232864E+00 0.73394363E+03</pdfrwt>
<pdfrwt beam="2">  1       -2 0.92100705E-01 0.73394363E+03</pdfrwt>
<totfact> 0.52313159E+00</totfact>
</mgrwt>
</event>
<event>
 4    1  0.1998832E-007  0.8589704E+03  0.7818608E-02  0.9595398E-01
          2   -1    0    0  501    0  0.00000000000E+00  0.00000000000E+00  0.19694635837E+04  0.19694635837E+04  0.25500000000E-02 0. -1.
         -2   -1    0    0    0  501 -0.00000000000E+00 -0.00000000000E+00 -0.36797351438E+03  0.36797351438E+03  0.25500000000E-02 0.  1.
    8880023    1    1    2    0    0 -0.28850680108E+03  0.46987624805E+03  0.29007800599E+03  0.90662854498E+03  0.65864270000E+03 0.  0.
    8880022    1    1    2    0    0  0.28850680108E+03 -0.46987624805E+03  0.13114120633E+04  0.14308085531E+04  0.15294330000E+03 0.  0.
<mgrwt>
<rscale>  0 0.77601546E+03</rscale>
<asrwt>0</asrwt>
<pdfrwt beam="1">  1        2 0.30299440E+00 0.85897035E+03</pdfrwt>
<pdfrwt beam="2">  1       -2 0.56611309E-01 0.85897035E+03</pdfrwt>
<totfact> 0.20722669E+01</totfact>
</mgrwt>
</event>
<event>
 4    1  0.1998832E-007  0.6660353E+03  0.7818608E-02  0.1018680E+00
          2   -1    0    0  501    0  0.00000000000E+00  0.00000000000E+00  0.11097324634E+04  0.11097324634E+04  0.25500000000E-02 0. -1.
         -2   -1    0    0    0  501 -0.00000000000E+00 -0.00000000000E+00 -0.45073002938E+03  0.45073002939E+03  0.25500000000E-02 0.  1.
    8880023    1    1    2    0    0 -0.12469221197E+02 -0.98170247575E+02 -0.18962510365E+03  0.69250326005E+03  0.65864270000E+03 0.  1.
    8880022    1    1    2    0    0  0.12469221197E+02  0.98170247575E+02  0.84862753768E+03  0.86795923274E+03  0.15294330000E+03 0.  0.
<mgrwt>
<rscale>  0 0.48165927E+03</rscale>
<asrwt>0</asrwt>
<pdfrwt beam="1">  1        2 0.17072807E+00 0.66603535E+03</pdfrwt>
<pdfrwt beam="2">  1       -2 0.69343081E-01 0.66603535E+03</pdfrwt>
<totfact> 0.41818753E+01</totfact>
</mgrwt>
</event>
<event>
 4    1  0.2031596E-007  0.6777628E+03  0.7818608E-02  0.1010619E+00
         -2   -1    0    0    0  501 -0.00000000000E+00  0.00000000000E+00  0.79820497813E+03  0.79820497814E+03  0.25500000000E-02 0.  1.
          2   -1    0    0  501    0  0.00000000000E+00 -0.00000000000E+00 -0.34865196037E+04  0.34865196037E+04  0.25500000000E-02 0. -1.
    8880023    1    1    2    0    0  0.15984677457E+03  0.11049101076E+01  0.65000713775E+03  0.93908024021E+03  0.65864270000E+03 0.  1.
    8880022    1    1    2    0    0 -0.15984677457E+03 -0.11049101076E+01 -0.33383217633E+04  0.33456443416E+04  0.15294330000E+03 0.  0.
<mgrwt>
<rscale>  0 0.51229555E+03</rscale>
<asrwt>0</asrwt>
<pdfrwt beam="1">  1        2 0.53638762E+00 0.67776280E+03</pdfrwt>
<pdfrwt beam="2">  1       -2 0.12280077E+00 0.67776280E+03</pdfrwt>
<totfact> 0.46232816E-01</totfact>
</mgrwt>
</event>
<event>
 4    1  0.1998832E-007  0.1014947E+04  0.7818608E-02  0.9362258E-01
          2   -1    0    0  501    0  0.00000000000E+00  0.00000000000E+00  0.83095101824E+03  0.83095101824E+03  0.25500000000E-02 0. -1.
         -2   -1    0    0    0  501 -0.00000000000E+00 -0.00000000000E+00 -0.27065128449E+04  0.27065128449E+04  0.25500000000E-02 0.  1.
    8880023    1    1    2    0    0  0.19178217716E+03  0.74801535766E+03 -0.23903333718E+04  0.25968849056E+04  0.65864270000E+03 0.  0.
    8880022    1    1    2    0    0 -0.19178217716E+03 -0.74801535766E+03  0.51477154504E+03  0.94057895754E+03  0.15294330000E+03 0.  0.
<mgrwt>
<rscale>  0 0.95247844E+03</rscale>
<asrwt>0</asrwt>
<pdfrwt beam="1">  1        2 0.12783862E+00 0.10149471E+04</pdfrwt>
<pdfrwt beam="2">  1       -2 0.41638659E+00 0.10149471E+04</pdfrwt>
<totfact> 0.19261759E-01</totfact>
</mgrwt>
</event>
<event>
 4    1  0.1998832E-007  0.9718267E+03  0.7818608E-02  0.9419382E-01
         -2   -1    0    0    0  501 -0.00000000000E+00  0.00000000000E+00  0.44533665372E+03  0.44533665373E+03  0.25500000000E-02 0.  1.
          2   -1    0    0  501    0  0.00000000000E+00 -0.00000000000E+00 -0.18761498803E+04  0.18761498803E+04  0.25500000000E-02 0. -1.
    8880023    1    1    2    0    0 -0.15613514557E+03  0.69732257319E+03 -0.38424229098E+03  0.10450307647E+04  0.65864270000E+03 0.  0.
    8880022    1    1    2    0    0  0.15613514557E+03 -0.69732257319E+03 -0.10465709356E+04  0.12764557693E+04  0.15294330000E+03 0.  1.
<mgrwt>
<rscale>  0 0.90497627E+03</rscale>
<asrwt>0</asrwt>
<pdfrwt beam="1">  1        2 0.28863844E+00 0.97182671E+03</pdfrwt>
<pdfrwt beam="2">  1       -2 0.68513333E-01 0.97182671E+03</pdfrwt>
<totfact> 0.15318857E+01</totfact>
</mgrwt>
</event>
<event>
 4    1  0.1998832E-007  0.1201461E+04  0.7818608E-02  0.9155704E-01
          2   -1    0    0  501    0  0.00000000000E+00  0.00000000000E+00  0.33671862647E+04  0.33671862647E+04  0.25500000000E-02 0. -1.
         -2   -1    0    0    0  501 -0.00000000000E+00 -0.00000000000E+00 -0.10738805004E+04  0.10738805004E+04  0.25500000000E-02 0.  1.
    8880023    1    1    2    0    0  0.76377147852E+03  0.65295528027E+03 -0.62252534879E+03  0.13531612933E+04  0.65864270000E+03 0.  0.
    8880022    1    1    2    0    0 -0.76377147852E+03 -0.65295528027E+03  0.29158311132E+04  0.30879054718E+04  0.15294330000E+03 0.  0.
<mgrwt>
<rscale>  0 0.11522571E+04</rscale>
<asrwt>0</asrwt>
<pdfrwt beam="1">  1        2 0.51802864E+00 0.12014606E+04</pdfrwt>
<pdfrwt beam="2">  1       -2 0.16521239E+00 0.12014606E+04</pdfrwt>
<totfact> 0.22938955E-01</totfact>
</mgrwt>
</event>
<event>
 4    1  0.1998832E-007  0.7439819E+03  0.7818608E-02  0.9848496E-01
         -2   -1    0    0    0  501 -0.00000000000E+00  0.00000000000E+00  0.76994938711E+03  0.76994938711E+03  0.25500000000E-02 0.  1.
          2   -1    0    0  501    0  0.00000000000E+00 -0.00000000000E+00 -0.11493585446E+04  0.11493585446E+04  0.25500000000E-02 0. -1.
    8880023    1    1    2    0    0 -0.31543760660E+03 -0.14211961884E+03  0.54384772707E+03  0.92156357687E+03  0.65864270000E+03 0.  1.
    8880022    1    1    2    0    0  0.31543760660E+03  0.14211961884E+03 -0.92325688461E+03  0.99774435489E+03  0.15294330000E+03 0.  0.
<mgrwt>
<rscale>  0 0.62823646E+03</rscale>
<asrwt>0</asrwt>
<pdfrwt beam="1">  1        2 0.17682439E+00 0.74398191E+03</pdfrwt>
<pdfrwt beam="2">  1       -2 0.11845375E+00 0.74398191E+03</pdfrwt>
<totfact> 0.11363178E+01</totfact>
</mgrwt>
</event>
<event>
 4    1  0.1998832E-007  0.7482673E+03  0.7818608E-02  0.9836488E-01
         -2   -1    0    0    0  501 -0.00000000000E+00  0.00000000000E+00  0.93476509519E+03  0.93476509520E+03  0.25500000000E-02 0.  1.
          2   -1    0    0  501    0  0.00000000000E+00 -0.00000000000E+00 -0.13384833388E+04  0.13384833388E+04  0.25500000000E-02 0. -1.
    8880023    1    1    2    0    0 -0.35475873924E+03 -0.15492077705E+02  0.74820833566E+03  0.10581680809E+04  0.65864270000E+03 0.  1.
    8880022    1    1    2    0    0  0.35475873924E+03  0.15492077705E+02 -0.11519265793E+04  0.12150803531E+04  0.15294330000E+03 0.  0.
<mgrwt>
<rscale>  0 0.63440623E+03</rscale>
<asrwt>0</asrwt>
<pdfrwt beam="1">  1        2 0.20592051E+00 0.74826731E+03</pdfrwt>
<pdfrwt beam="2">  1       -2 0.14381002E+00 0.74826731E+03</pdfrwt>
<totfact> 0.53805904E+00</totfact>
</mgrwt>
</event>
<event>
 4    1  0.1998832E-007  0.1108292E+04  0.7818608E-02  0.9251879E-01
          2   -1    0    0  501    0  0.00000000000E+00  0.00000000000E+00  0.10148612987E+04  0.10148612987E+04  0.25500000000E-02 0. -1.
         -2   -1    0    0    0  501 -0.00000000000E+00 -0.00000000000E+00 -0.17827262756E+04  0.17827262756E+04  0.25500000000E-02 0.  1.
    8880023    1    1    2    0    0  0.87487451233E+03  0.17057640427E+03 -0.13311564155E+04  0.17321343281E+04  0.65864270000E+03 0.  0.
    8880022    1    1    2    0    0 -0.87487451233E+03 -0.17057640427E+03  0.56329143849E+03  0.10654532461E+04  0.15294330000E+03 0.  0.
<mgrwt>
<rscale>  0 0.10533625E+04</rscale>
<asrwt>0</asrwt>
<pdfrwt beam="1">  1        2 0.15613251E+00 0.11082923E+04</pdfrwt>
<pdfrwt beam="2">  1       -2 0.27426558E+00 0.11082923E+04</pdfrwt>
<totfact> 0.11093490E+00</totfact>
</mgrwt>
</event>
<event>
 4    1  0.1998832E-007  0.9546831E+03  0.7818608E-02  0.9443408E-01
          2   -1    0    0  501    0  0.00000000000E+00  0.00000000000E+00  0.16205939890E+04  0.16205939891E+04  0.25500000000E-02 0. -1.
         -2   -1    0    0    0  501 -0.00000000000E+00 -0.00000000000E+00 -0.11836208966E+04  0.11836208967E+04  0.25500000000E-02 0.  1.
    8880023    1    1    2    0    0  0.47709772967E+03 -0.49998733077E+03 -0.88685134926E+03  0.13030445489E+04  0.65864270000E+03 0.  1.
    8880022    1    1    2    0    0 -0.47709772967E+03  0.49998733077E+03  0.13238244417E+04  0.15011703368E+04  0.15294330000E+03 0.  0.
<mgrwt>
<rscale>  0 0.88587872E+03</rscale>
<asrwt>0</asrwt>
<pdfrwt beam="1">  1        2 0.24932215E+00 0.95468308E+03</pdfrwt>
<pdfrwt beam="2">  1       -2 0.18209552E+00 0.95468308E+03</pdfrwt>
<totfact> 0.19044616E+00</totfact>
</mgrwt>
</event>
<event>
 4    1  0.1998832E-007  0.9460649E+03  0.7818608E-02  0.9455799E-01
          2   -1    0    0  501    0  0.00000000000E+00  0.00000000000E+00  0.85668394590E+03  0.85668394591E+03  0.25500000000E-02 0. -1.
         -2   -1    0    0    0  501 -0.00000000000E+00 -0.00000000000E+00 -0.13563791819E+04  0.13563791819E+04  0.25500000000E-02 0.  1.
    8880023    1    1    2    0    0 -0.62431072624E+02 -0.67626247454E+03 -0.98399835047E+03  0.13650243710E+04  0.65864270000E+03 0.  0.
    8880022    1    1    2    0    0  0.62431072624E+02  0.67626247454E+03  0.48430311452E+03  0.84803875681E+03  0.15294330000E+03 0.  0.
<mgrwt>
<rscale>  0 0.87622550E+03</rscale>
<asrwt>0</asrwt>
<pdfrwt beam="1">  1        2 0.13179753E+00 0.94606489E+03</pdfrwt>
<pdfrwt beam="2">  1       -2 0.20867372E+00 0.94606489E+03</pdfrwt>
<totfact> 0.36633379E+00</totfact>
</mgrwt>
</event>
<event>
 4    1  0.1998832E-007  0.8297460E+03  0.7818608E-02  0.9649827E-01
          2   -1    0    0  501    0  0.00000000000E+00  0.00000000000E+00  0.18715926119E+04  0.18715926119E+04  0.25500000000E-02 0. -1.
         -2   -1    0    0    0  501 -0.00000000000E+00 -0.00000000000E+00 -0.46526170347E+03  0.46526170348E+03  0.25500000000E-02 0.  1.
    8880023    1    1    2    0    0  0.50054062048E+03 -0.64243512796E+02 -0.54980169817E+01  0.82976416899E+03  0.65864270000E+03 0.  0.
    8880022    1    1    2    0    0 -0.50054062048E+03  0.64243512796E+02  0.14118289254E+04  0.15070901464E+04  0.15294330000E+03 0.  0.
<mgrwt>
<rscale>  0 0.74084292E+03</rscale>
<asrwt>0</asrwt>
<pdfrwt beam="1">  1        2 0.28793733E+00 0.82974595E+03</pdfrwt>
<pdfrwt beam="2">  1       -2 0.71578722E-01 0.82974595E+03</pdfrwt>
<totfact> 0.14231872E+01</totfact>
</mgrwt>
</event>
<event>
 4    1  0.1998832E-007  0.1045518E+04  0.7818608E-02  0.9324289E-01
          2   -1    0    0  501    0  0.00000000000E+00  0.00000000000E+00  0.64667488376E+03  0.64667488376E+03  0.25500000000E-02 0. -1.
         -2   -1    0    0    0  501 -0.00000000000E+00 -0.00000000000E+00 -0.24079951433E+04  0.24079951433E+04  0.25500000000E-02 0.  1.
    8880023    1    1    2    0    0  0.65876632092E+01  0.81194492187E+03 -0.19450479143E+04  0.22082390153E+04  0.65864270000E+03 0.  0.
    8880022    1    1    2    0    0 -0.65876632092E+01 -0.81194492187E+03  0.18372765480E+03  0.84643101173E+03  0.15294330000E+03 0.  0.
<mgrwt>
<rscale>  0 0.98577225E+03</rscale>
<asrwt>0</asrwt>
<pdfrwt beam="1">  1        2 0.99488445E-01 0.10455181E+04</pdfrwt>
<pdfrwt beam="2">  1       -2 0.37046079E+00 0.10455181E+04</pdfrwt>
<totfact> 0.52657325E-01</totfact>
</mgrwt>
</event>
<event>
 4    1  0.1998832E-007  0.6657767E+03  0.7818608E-02  0.1018890E+00
         -2   -1    0    0    0  501 -0.00000000000E+00  0.00000000000E+00  0.22922110766E+03  0.22922110768E+03  0.25500000000E-02 0.  1.
          2   -1    0    0  501    0  0.00000000000E+00 -0.00000000000E+00 -0.10957097939E+04  0.10957097939E+04  0.25500000000E-02 0. -1.
    8880023    1    1    2    0    0 -0.51759794887E+02  0.82276143160E+02 -0.30015357981E+03  0.73030871406E+03  0.65864270000E+03 0.  1.
    8880022    1    1    2    0    0  0.51759794887E+02 -0.82276143160E+02 -0.56633510640E+03  0.59462218749E+03  0.15294330000E+03 0.  0.
<mgrwt>
<rscale>  0 0.48089139E+03</rscale>
<asrwt>0</asrwt>
<pdfrwt beam="1">  1        2 0.16857073E+00 0.66577672E+03</pdfrwt>
<pdfrwt beam="2">  1       -2 0.35264787E-01 0.66577672E+03</pdfrwt>
<totfact> 0.16841607E+02</totfact>
</mgrwt>
</event>
<event>
 4    1  0.1998832E-007  0.7592890E+03  0.7818608E-02  0.9806952E-01
         -2   -1    0    0    0  501 -0.00000000000E+00  0.00000000000E+00  0.10697163046E+04  0.10697163046E+04  0.25500000000E-02 0.  1.
          2   -1    0    0  501    0  0.00000000000E+00 -0.00000000000E+00 -0.42377083507E+03  0.42377083508E+03  0.25500000000E-02 0. -1.
    8880023    1    1    2    0    0  0.13165555223E+03 -0.35408519883E+03  0.75585560960E+03  0.10713717475E+04  0.65864270000E+03 0.  1.
    8880022    1    1    2    0    0 -0.13165555223E+03  0.35408519883E+03 -0.10991014004E+03  0.42211539224E+03  0.15294330000E+03 0.  0.
<mgrwt>
<rscale>  0 0.64990802E+03</rscale>
<asrwt>0</asrwt>
<pdfrwt beam="1">  1        2 0.65195514E-01 0.75928896E+03</pdfrwt>
<pdfrwt beam="2">  1       -2 0.16457174E+00 0.75928896E+03</pdfrwt>
<totfact> 0.17601909E+01</totfact>
</mgrwt>
</event>
<event>
 4    1  0.1998832E-007  0.7910687E+03  0.7818608E-02  0.9730451E-01
          2   -1    0    0  501    0  0.00000000000E+00  0.00000000000E+00  0.10373127906E+04  0.10373127906E+04  0.25500000000E-02 0. -1.
         -2   -1    0    0    0  501 -0.00000000000E+00 -0.00000000000E+00 -0.12422020399E+04  0.12422020399E+04  0.25500000000E-02 0.  1.
    8880023    1    1    2    0    0 -0.16975968536E+03  0.40393199277E+03 -0.10504306990E+04  0.13149883137E+04  0.65864270000E+03 0.  1.
    8880022    1    1    2    0    0  0.16975968536E+03 -0.40393199277E+03  0.84554144965E+03  0.96452651682E+03  0.15294330000E+03 0.  0.
<mgrwt>
<rscale>  0 0.69232346E+03</rscale>
<asrwt>0</asrwt>
<pdfrwt beam="1">  1        2 0.15958658E+00 0.79106865E+03</pdfrwt>
<pdfrwt beam="2">  1       -2 0.19110801E+00 0.79106865E+03</pdfrwt>
<totfact> 0.36963335E+00</totfact>
</mgrwt>
</event>
<event>
 4    1  0.1998832E-007  0.7383662E+03  0.7818608E-02  0.9864732E-01
          2   -1    0    0  501    0  0.00000000000E+00  0.00000000000E+00  0.54271337055E+03  0.54271337056E+03  0.25500000000E-02 0. -1.
         -2   -1    0    0    0  501 -0.00000000000E+00 -0.00000000000E+00 -0.10628488550E+04  0.10628488550E+04  0.25500000000E-02 0.  1.
    8880023    1    1    2    0    0  0.14503424359E+03  0.30056542721E+03 -0.84019123267E+03  0.11185285073E+04  0.65864270000E+03 0.  1.
    8880022    1    1    2    0    0 -0.14503424359E+03 -0.30056542721E+03  0.32005574817E+03  0.48703371834E+03  0.15294330000E+03 0.  0.
<mgrwt>
<rscale>  0 0.62001398E+03</rscale>
<asrwt>0</asrwt>
<pdfrwt beam="1">  1        2 0.83494365E-01 0.73836625E+03</pdfrwt>
<pdfrwt beam="2">  1       -2 0.16351521E+00 0.73836625E+03</pdfrwt>
<totfact> 0.13490706E+01</totfact>
</mgrwt>
</event>
<event>
 4    1  0.1998832E-007  0.1030610E+04  0.7818608E-02  0.9342562E-01
         -2   -1    0    0    0  501 -0.00000000000E+00  0.00000000000E+00  0.19990636633E+04  0.19990636633E+04  0.25500000000E-02 0.  1.
          2   -1    0    0  501    0  0.00000000000E+00 -0.00000000000E+00 -0.66809683773E+03  0.66809683773E+03  0.25500000000E-02 0. -1.
    8880023    1    1    2    0    0  0.78819651640E+03 -0.84225885828E+02  0.15214840119E+04  0.18376810259E+04  0.65864270000E+03 0.  0.
    8880022    1    1    2    0    0 -0.78819651640E+03  0.84225885828E+02 -0.19051718633E+03  0.82947947510E+03  0.15294330000E+03 0.  0.
<mgrwt>
<rscale>  0 0.96957222E+03</rscale>
<asrwt>0</asrwt>
<pdfrwt beam="1">  1        2 0.10278413E+00 0.10306105E+04</pdfrwt>
<pdfrwt beam="2">  1       -2 0.30754826E+00 0.10306105E+04</pdfrwt>
<totfact> 0.12447410E+00</totfact>
</mgrwt>
</event>
<event>
 4    1  0.1998832E-007  0.6674915E+03  0.7818608E-02  0.1017529E+00
          2   -1    0    0  501    0  0.00000000000E+00  0.00000000000E+00  0.36908059024E+04  0.36908059024E+04  0.25500000000E-02 0. -1.
         -2   -1    0    0    0  501 -0.00000000000E+00 -0.00000000000E+00 -0.14637324486E+03  0.14637324488E+03  0.25500000000E-02 0.  1.
    8880023    1    1    2    0    0 -0.69085406228E+02 -0.83437709538E+02  0.63361181462E+03  0.92033080065E+03  0.65864270000E+03 0.  1.
    8880022    1    1    2    0    0  0.69085406228E+02  0.83437709538E+02  0.29108208429E+04  0.29168483466E+04  0.15294330000E+03 0.  0.
<mgrwt>
<rscale>  0 0.48589042E+03</rscale>
<asrwt>0</asrwt>
<pdfrwt beam="1">  1        2 0.56781623E+00 0.66749146E+03</pdfrwt>
<pdfrwt beam="2">  1       -2 0.22518963E-01 0.66749146E+03</pdfrwt>
<totfact> 0.11338111E+01</totfact>
</mgrwt>
</event>
<event>
 4    1  0.1998832E-007  0.1182096E+04  0.7818608E-02  0.9174725E-01
         -2   -1    0    0    0  501 -0.00000000000E+00  0.00000000000E+00  0.77464892831E+03  0.77464892832E+03  0.25500000000E-02 0.  1.
          2   -1    0    0  501    0  0.00000000000E+00 -0.00000000000E+00 -0.22733579703E+04  0.22733579703E+04  0.25500000000E-02 0. -1.
    8880023    1    1    2    0    0 -0.88673400924E+03 -0.42100442256E+03  0.77732270901E+02  0.11846495006E+04  0.65864270000E+03 0.  0.
    8880022    1    1    2    0    0  0.88673400924E+03  0.42100442256E+03 -0.15764413129E+04  0.18633573981E+04  0.15294330000E+03 0.  0.
<mgrwt>
<rscale>  0 0.11318156E+04</rscale>
<asrwt>0</asrwt>
<pdfrwt beam="1">  1        2 0.34974738E+00 0.11820965E+04</pdfrwt>
<pdfrwt beam="2">  1       -2 0.11917676E+00 0.11820965E+04</pdfrwt>
<totfact> 0.24861100E+00</totfact>
</mgrwt>
</event>
<event>
 4    1  0.1998832E-007  0.1034475E+04  0.7818608E-02  0.9337781E-01
         -2   -1    0    0    0  501 -0.00000000000E+00  0.00000000000E+00  0.87283043488E+03  0.87283043489E+03  0.25500000000E-02 0.  1.
          2   -1    0    0  501    0  0.00000000000E+00 -0.00000000000E+00 -0.29651722996E+04  0.29651722996E+04  0.25500000000E-02 0. -1.
    8880023    1    1    2    0    0  0.37145841686E+03  0.70593737937E+03  0.48004496159E+03  0.11404307565E+04  0.65864270000E+03 0.  1.
    8880022    1    1    2    0    0 -0.37145841686E+03 -0.70593737937E+03 -0.25723868263E+04  0.26975719779E+04  0.15294330000E+03 0.  0.
<mgrwt>
<rscale>  0 0.97377831E+03</rscale>
<asrwt>0</asrwt>
<pdfrwt beam="1">  1        2 0.45618035E+00 0.10344753E+04</pdfrwt>
<pdfrwt beam="2">  1       -2 0.13428161E+00 0.10344753E+04</pdfrwt>
<totfact> 0.73986687E-01</totfact>
</mgrwt>
</event>
<event>
 4    1  0.1998832E-007  0.1162115E+04  0.7818608E-02  0.9194859E-01
         -2   -1    0    0    0  501 -0.00000000000E+00  0.00000000000E+00  0.24559685667E+04  0.24559685667E+04  0.25500000000E-02 0.  1.
          2   -1    0    0  501    0  0.00000000000E+00 -0.00000000000E+00 -0.13625045959E+04  0.13625045959E+04  0.25500000000E-02 0. -1.
    8880023    1    1    2    0    0  0.37836765322E+03 -0.87951030727E+03  0.21130129486E+04  0.24115004434E+04  0.65864270000E+03 0.  1.
    8880022    1    1    2    0    0 -0.37836765322E+03  0.87951030727E+03 -0.10195489778E+04  0.14069727192E+04  0.15294330000E+03 0.  0.
<mgrwt>
<rscale>  0 0.11106649E+04</rscale>
<asrwt>0</asrwt>
<pdfrwt beam="1">  1        2 0.20961609E+00 0.11621147E+04</pdfrwt>
<pdfrwt beam="2">  1       -2 0.37784132E+00 0.11621147E+04</pdfrwt>
<totfact> 0.15537326E-01</totfact>
</mgrwt>
</event>
<event>
 4    1  0.1998832E-007  0.9238585E+03  0.7818608E-02  0.9488768E-01
         -2   -1    0    0    0  501 -0.00000000000E+00  0.00000000000E+00  0.55463518194E+03  0.55463518194E+03  0.25500000000E-02 0.  1.
          2   -1    0    0  501    0  0.00000000000E+00 -0.00000000000E+00 -0.12281906385E+04  0.12281906385E+04  0.25500000000E-02 0. -1.
    8880023    1    1    2    0    0  0.62165815452E+02 -0.64485630517E+03 -0.15002379630E+03  0.93596024951E+03  0.65864270000E+03 0.  0.
    8880022    1    1    2    0    0 -0.62165815452E+02  0.64485630517E+03 -0.52353166025E+03  0.84686557094E+03  0.15294330000E+03 0.  0.
<mgrwt>
<rscale>  0 0.85116997E+03</rscale>
<asrwt>0</asrwt>
<pdfrwt beam="1">  1        2 0.18895241E+00 0.92385846E+03</pdfrwt>
<pdfrwt beam="2">  1       -2 0.85328489E-01 0.92385846E+03</pdfrwt>
<totfact> 0.21805642E+01</totfact>
</mgrwt>
</event>
<event>
 4    1  0.1998832E-007  0.1091938E+04  0.7818608E-02  0.9270086E-01
          2   -1    0    0  501    0  0.00000000000E+00  0.00000000000E+00  0.17362573414E+04  0.17362573414E+04  0.25500000000E-02 0. -1.
         -2   -1    0    0    0  501 -0.00000000000E+00 -0.00000000000E+00 -0.91997577153E+03  0.91997577153E+03  0.25500000000E-02 0.  1.
    8880023    1    1    2    0    0 -0.87043007176E+03 -0.29483526041E+02 -0.39093564924E+03  0.11598097586E+04  0.65864270000E+03 0.  1.
    8880022    1    1    2    0    0  0.87043007176E+03  0.29483526041E+02  0.12072172191E+04  0.14964233543E+04  0.15294330000E+03 0.  0.
<mgrwt>
<rscale>  0 0.10358407E+04</rscale>
<asrwt>0</asrwt>
<pdfrwt beam="1">  1        2 0.26711651E+00 0.10919377E+04</pdfrwt>
<pdfrwt beam="2">  1       -2 0.14153474E+00 0.10919377E+04</pdfrwt>
<totfact> 0.32166796E+00</totfact>
</mgrwt>
</event>
<event>
 4    1  0.1998832E-007  0.8129712E+03  0.7818608E-02  0.9683421E-01
          2   -1    0    0  501    0  0.00000000000E+00  0.00000000000E+00  0.28826354844E+04  0.28826354844E+04  0.25500000000E-02 0. -1.
         -2   -1    0    0    0  501 -0.00000000000E+00 -0.00000000000E+00 -0.51501299106E+03  0.51501299107E+03  0.25500000000E-02 0.  1.
    8880023    1    1    2    0    0  0.44804214418E+03  0.16238888529E+03 -0.15349091790E+03  0.82733402031E+03  0.65864270000E+03 0.  1.
    8880022    1    1    2    0    0 -0.44804214418E+03 -0.16238888529E+03  0.25211134112E+04  0.25703144551E+04  0.15294330000E+03 0.  0.
<mgrwt>
<rscale>  0 0.72012535E+03</rscale>
<asrwt>0</asrwt>
<pdfrwt beam="1">  1        2 0.44348238E+00 0.81297117E+03</pdfrwt>
<pdfrwt beam="2">  1       -2 0.79232768E-01 0.81297117E+03</pdfrwt>
<totfact> 0.30545499E+00</totfact>
</mgrwt>
</event>
<event>
 4    1  0.1998832E-007  0.9211799E+03  0.7818608E-02  0.9492852E-01
         -2   -1    0    0    0  501 -0.00000000000E+00  0.00000000000E+00  0.42996403672E+03  0.42996403672E+03  0.25500000000E-02 0.  1.
          2   -1    0    0  501    0  0.00000000000E+00 -0.00000000000E+00 -0.25751324550E+04  0.25751324550E+04  0.25500000000E-02 0. -1.
    8880023    1    1    2    0    0 -0.64382038205E+03 -0.16046718141E+02 -0.18953496004E+03  0.94047641589E+03  0.65864270000E+03 0.  0.
    8880022    1    1    2    0    0  0.64382038205E+03  0.16046718141E+02 -0.19556334582E+04  0.20646200758E+04  0.15294330000E+03 0.  0.
<mgrwt>
<rscale>  0 0.84812851E+03</rscale>
<asrwt>0</asrwt>
<pdfrwt beam="1">  1        2 0.39617421E+00 0.92117989E+03</pdfrwt>
<pdfrwt beam="2">  1       -2 0.66148315E-01 0.92117989E+03</pdfrwt>
<totfact> 0.67729837E+00</totfact>
</mgrwt>
</event>
<event>
 4    1  0.1998832E-007  0.8455856E+03  0.7818608E-02  0.9619737E-01
          2   -1    0    0  501    0  0.00000000000E+00  0.00000000000E+00  0.21190255898E+04  0.21190255898E+04  0.25500000000E-02 0. -1.
         -2   -1    0    0    0  501 -0.00000000000E+00 -0.00000000000E+00 -0.58247597460E+03  0.58247597461E+03  0.25500000000E-02 0.  1.
    8880023    1    1    2    0    0 -0.96680927740E+02  0.52139962234E+03 -0.20878955069E+03  0.87098108516E+03  0.65864270000E+03 0.  1.
    8880022    1    1    2    0    0  0.96680927740E+02 -0.52139962234E+03  0.17453391659E+04  0.18305204793E+04  0.15294330000E+03 0.  0.
<mgrwt>
<rscale>  0 0.76003532E+03</rscale>
<asrwt>0</asrwt>
<pdfrwt beam="1">  1        2 0.32600394E+00 0.84558558E+03</pdfrwt>
<pdfrwt beam="2">  1       -2 0.89611687E-01 0.84558558E+03</pdfrwt>
<totfact> 0.62650502E+00</totfact>
</mgrwt>
</event>
<event>
 4    1  0.1998832E-007  0.8608517E+03  0.7818608E-02  0.9592050E-01
         -2   -1    0    0    0  501 -0.00000000000E+00  0.00000000000E+00  0.51271886530E+03  0.51271886531E+03  0.25500000000E-02 0.  1.
          2   -1    0    0  501    0  0.00000000000E+00 -0.00000000000E+00 -0.24408355442E+04  0.24408355442E+04  0.25500000000E-02 0. -1.
    8880023    1    1    2    0    0  0.27346900372E+03  0.48215162734E+03  0.80162102118E+02  0.86457599817E+03  0.65864270000E+03 0.  0.
    8880022    1    1    2    0    0 -0.27346900372E+03 -0.48215162734E+03 -0.20082787810E+04  0.20889784114E+04  0.15294330000E+03 0.  0.
<mgrwt>
<rscale>  0 0.77824594E+03</rscale>
<asrwt>0</asrwt>
<pdfrwt beam="1">  1        2 0.37551315E+00 0.86085173E+03</pdfrwt>
<pdfrwt beam="2">  1       -2 0.78879827E-01 0.86085173E+03</pdfrwt>
<totfact> 0.55301888E+00</totfact>
</mgrwt>
</event>
<event>
 4    1  0.1998832E-007  0.9687425E+03  0.7818608E-02  0.9423646E-01
          2   -1    0    0  501    0  0.00000000000E+00  0.00000000000E+00  0.95333422203E+03  0.95333422203E+03  0.25500000000E-02 0. -1.
         -2   -1    0    0    0  501 -0.00000000000E+00 -0.00000000000E+00 -0.10951437405E+04  0.10951437405E+04  0.25500000000E-02 0.  1.
    8880023    1    1    2    0    0 -0.70989128223E+03  0.26572782898E+02 -0.64568824472E+03  0.11642058499E+04  0.65864270000E+03 0.  1.
    8880022    1    1    2    0    0  0.70989128223E+03 -0.26572782898E+02  0.50387872624E+03  0.88427211262E+03  0.15294330000E+03 0. -1.
<mgrwt>
<rscale>  0 0.90155028E+03</rscale>
<asrwt>0</asrwt>
<pdfrwt beam="1">  1        2 0.14666680E+00 0.96874246E+03</pdfrwt>
<pdfrwt beam="2">  1       -2 0.16848365E+00 0.96874246E+03</pdfrwt>
<totfact> 0.58691856E+00</totfact>
</mgrwt>
</event>
<event>
 4    1  0.1998832E-007  0.1019121E+04  0.7818608E-02  0.9356959E-01
          2   -1    0    0  501    0  0.00000000000E+00  0.00000000000E+00  0.39937056613E+04  0.39937056613E+04  0.25500000000E-02 0. -1.
         -2   -1    0    0    0  501 -0.00000000000E+00 -0.00000000000E+00 -0.37901520432E+03  0.37901520433E+03  0.25500000000E-02 0.  1.
    8880023    1    1    2    0    0  0.62790047129E+03  0.45884379806E+03  0.45667123306E+03  0.11167611447E+04  0.65864270000E+03 0.  0.
    8880022    1    1    2    0    0 -0.62790047129E+03 -0.45884379806E+03  0.31580192239E+04  0.32559597209E+04  0.15294330000E+03 0.  0.
<mgrwt>
<rscale>  0 0.95704073E+03</rscale>
<asrwt>0</asrwt>
<pdfrwt beam="1">  1        2 0.61441627E+00 0.10191206E+04</pdfrwt>
<pdfrwt beam="2">  1       -2 0.58310030E-01 0.10191206E+04</pdfrwt>
<totfact> 0.10004157E+00</totfact>
</mgrwt>
</event>
<event>
 4    1  0.1998832E-007  0.7813478E+03  0.7818608E-02  0.9752680E-01
         -2   -1    0    0    0  501 -0.00000000000E+00  0.00000000000E+00  0.28713184015E+03  0.28713184016E+03  0.25500000000E-02 0.  1.
          2   -1    0    0  501    0  0.00000000000E+00 -0.00000000000E+00 -0.20250156885E+04  0.20250156885E+04  0.25500000000E-02 0. -1.
    8880023    1    1    2    0    0  0.29767570232E+03  0.29678839511E+03 -0.35405922580E+03  0.85782417596E+03  0.65864270000E+03 0.  1.
    8880022    1    1    2    0    0 -0.29767570232E+03 -0.29678839511E+03 -0.13838246225E+04  0.14543233527E+04  0.15294330000E+03 0.  0.
<mgrwt>
<rscale>  0 0.67965002E+03</rscale>
<asrwt>0</asrwt>
<pdfrwt beam="1">  1        2 0.31154087E+00 0.78134780E+03</pdfrwt>
<pdfrwt beam="2">  1       -2 0.44174131E-01 0.78134780E+03</pdfrwt>
<totfact> 0.32344163E+01</totfact>
</mgrwt>
</event>
<event>
 4    1  0.1998832E-007  0.1320275E+04  0.7818608E-02  0.9048246E-01
          2   -1    0    0  501    0  0.00000000000E+00  0.00000000000E+00  0.17859765290E+04  0.17859765290E+04  0.25500000000E-02 0. -1.
         -2   -1    0    0    0  501 -0.00000000000E+00 -0.00000000000E+00 -0.93362235991E+03  0.93362235991E+03  0.25500000000E-02 0.  1.
    8880023    1    1    2    0    0  0.10186561499E+04  0.52120575129E+03  0.64304423797E+02  0.13218400252E+04  0.65864270000E+03 0.  0.
    8880022    1    1    2    0    0 -0.10186561499E+04 -0.52120575129E+03  0.78804974526E+03  0.13977588637E+04  0.15294330000E+03 0.  0.
<mgrwt>
<rscale>  0 0.12767038E+04</rscale>
<asrwt>0</asrwt>
<pdfrwt beam="1">  1        2 0.27476562E+00 0.13202750E+04</pdfrwt>
<pdfrwt beam="2">  1       -2 0.14363421E+00 0.13202750E+04</pdfrwt>
<totfact> 0.28371244E+00</totfact>
</mgrwt>
</event>
<event>
 4    1  0.1998832E-007  0.7450741E+03  0.7818608E-02  0.9845406E-01
         -2   -1    0    0    0  501 -0.00000000000E+00  0.00000000000E+00  0.29942253693E+03  0.29942253694E+03  0.25500000000E-02 0.  1.
          2   -1    0    0  501    0  0.00000000000E+00 -0.00000000000E+00 -0.15482476280E+04  0.15482476280E+04  0.25500000000E-02 0. -1.
    8880023    1    1    2    0    0  0.32163844287E+03  0.13369312654E+03 -0.26156390406E+03  0.78965246925E+03  0.65864270000E+03 0.  1.
    8880022    1    1    2    0    0 -0.32163844287E+03 -0.13369312654E+03 -0.98726118705E+03  0.10580176957E+04  0.15294330000E+03 0.  0.
<mgrwt>
<rscale>  0 0.62981710E+03</rscale>
<asrwt>0</asrwt>
<pdfrwt beam="1">  1        2 0.23819194E+00 0.74507405E+03</pdfrwt>
<pdfrwt beam="2">  1       -2 0.46065007E-01 0.74507405E+03</pdfrwt>
<totfact> 0.54480083E+01</totfact>
</mgrwt>
</event>
<event>
 4    1  0.1998832E-007  0.9725674E+03  0.7818608E-02  0.9418362E-01
          2   -1    0    0  501    0  0.00000000000E+00  0.00000000000E+00  0.96630405773E+03  0.96630405774E+03  0.25500000000E-02 0. -1.
         -2   -1    0    0    0  501 -0.00000000000E+00 -0.00000000000E+00 -0.15156719329E+04  0.15156719329E+04  0.25500000000E-02 0.  1.
    8880023    1    1    2    0    0  0.46330788534E+03  0.54536488834E+03 -0.11707251221E+04  0.15220001892E+04  0.65864270000E+03 0.  0.
    8880022    1    1    2    0    0 -0.46330788534E+03 -0.54536488834E+03  0.62135724694E+03  0.95997580147E+03  0.15294330000E+03 0.  0.
<mgrwt>
<rscale>  0 0.90579836E+03</rscale>
<asrwt>0</asrwt>
<pdfrwt beam="1">  1        2 0.14866216E+00 0.97256736E+03</pdfrwt>
<pdfrwt beam="2">  1       -2 0.23318030E+00 0.97256736E+03</pdfrwt>
<totfact> 0.21597153E+00</totfact>
</mgrwt>
</event>
<event>
 4    1  0.1998832E-007  0.1261088E+04  0.7818608E-02  0.9099913E-01
          2   -1    0    0  501    0  0.00000000000E+00  0.00000000000E+00  0.16188680020E+04  0.16188680020E+04  0.25500000000E-02 0. -1.
         -2   -1    0    0    0  501 -0.00000000000E+00 -0.00000000000E+00 -0.11036077788E+04  0.11036077788E+04  0.25500000000E-02 0.  1.
    8880023    1    1    2    0    0 -0.33027304127E+03  0.10234509385E+04 -0.37756521374E+03  0.13163957620E+04  0.65864270000E+03 0.  0.
    8880022    1    1    2    0    0  0.33027304127E+03 -0.10234509385E+04  0.89282543696E+03  0.14060800188E+04  0.15294330000E+03 0.  0.
<mgrwt>
<rscale>  0 0.12149005E+04</rscale>
<asrwt>0</asrwt>
<pdfrwt beam="1">  1        2 0.24905662E+00 0.12610877E+04</pdfrwt>
<pdfrwt beam="2">  1       -2 0.16978581E+00 0.12610877E+04</pdfrwt>
<totfact> 0.22457777E+00</totfact>
</mgrwt>
</event>
<event>
 4    1  0.1998832E-007  0.1262546E+04  0.7818608E-02  0.9098598E-01
          2   -1    0    0  501    0  0.00000000000E+00  0.00000000000E+00  0.24026630395E+04  0.24026630395E+04  0.25500000000E-02 0. -1.
         -2   -1    0    0    0  501 -0.00000000000E+00 -0.00000000000E+00 -0.68028526008E+03  0.68028526008E+03  0.25500000000E-02 0.  1.
    8880023    1    1    2    0    0 -0.92805062851E+03 -0.54674764072E+03  0.15206636430E+04  0.19764713692E+04  0.65864270000E+03 0. -1.
    8880022    1    1    2    0    0  0.92805062851E+03  0.54674764072E+03  0.20171413642E+03  0.11064769304E+04  0.15294330000E+03 0.  0.
<mgrwt>
<rscale>  0 0.12164269E+04</rscale>
<asrwt>0</asrwt>
<pdfrwt beam="1">  1        2 0.36964048E+00 0.12625455E+04</pdfrwt>
<pdfrwt beam="2">  1       -2 0.10465927E+00 0.12625455E+04</pdfrwt>
<totfact> 0.28609989E+00</totfact>
</mgrwt>
</event>
<event>
 4    1  0.1998832E-007  0.1531751E+04  0.7818608E-02  0.8887535E-01
          2   -1    0    0  501    0  0.00000000000E+00  0.00000000000E+00  0.26569604743E+04  0.26569604743E+04  0.25500000000E-02 0. -1.
         -2   -1    0    0    0  501 -0.00000000000E+00 -0.00000000000E+00 -0.94965264069E+03  0.94965264069E+03  0.25500000000E-02 0.  1.
    8880023    1    1    2    0    0  0.78141281443E+03  0.11409845951E+04  0.18276169231E+03  0.15426159195E+04  0.65864270000E+03 0.  0.
    8880022    1    1    2    0    0 -0.78141281443E+03 -0.11409845951E+04  0.15245461413E+04  0.20639971954E+04  0.15294330000E+03 0.  0.
<mgrwt>
<rscale>  0 0.14953745E+04</rscale>
<asrwt>0</asrwt>
<pdfrwt beam="1">  1        2 0.40876315E+00 0.15317513E+04</pdfrwt>
<pdfrwt beam="2">  1       -2 0.14610041E+00 0.15317513E+04</pdfrwt>
<totfact> 0.85314553E-01</totfact>
</mgrwt>
</event>
<event>
 4    1  0.1998832E-007  0.9754302E+03  0.7818608E-02  0.9414433E-01
         -2   -1    0    0    0  501 -0.00000000000E+00  0.00000000000E+00  0.27054250505E+03  0.27054250506E+03  0.25500000000E-02 0.  1.
          2   -1    0    0  501    0  0.00000000000E+00 -0.00000000000E+00 -0.46117999733E+04  0.46117999733E+04  0.25500000000E-02 0. -1.
    8880023    1    1    2    0    0  0.69549764065E+03  0.18421975046E+03 -0.78859051634E+03  0.12543281442E+04  0.65864270000E+03 0.  0.
    8880022    1    1    2    0    0 -0.69549764065E+03 -0.18421975046E+03 -0.35526669519E+04  0.36280143342E+04  0.15294330000E+03 0.  0.
<mgrwt>
<rscale>  0 0.90897383E+03</rscale>
<asrwt>0</asrwt>
<pdfrwt beam="1">  1        2 0.70950763E+00 0.97543021E+03</pdfrwt>
<pdfrwt beam="2">  1       -2 0.41621927E-01 0.97543021E+03</pdfrwt>
<totfact> 0.56532672E-01</totfact>
</mgrwt>
</event>
<event>
 4    1  0.1998832E-007  0.8049430E+03  0.7818608E-02  0.9700209E-01
         -2   -1    0    0    0  501 -0.00000000000E+00  0.00000000000E+00  0.65322636456E+03  0.65322636457E+03  0.25500000000E-02 0.  1.
          2   -1    0    0  501    0  0.00000000000E+00 -0.00000000000E+00 -0.15844594317E+04  0.15844594317E+04  0.25500000000E-02 0. -1.
    8880023    1    1    2    0    0  0.12255382148E+02 -0.46257190597E+03  0.34183651253E+03  0.87452007990E+03  0.65864270000E+03 0.  0.
    8880022    1    1    2    0    0 -0.12255382148E+02  0.46257190597E+03 -0.12730695797E+04  0.13631657164E+04  0.15294330000E+03 0.  0.
<mgrwt>
<rscale>  0 0.71004377E+03</rscale>
<asrwt>0</asrwt>
<pdfrwt beam="1">  1        2 0.24376299E+00 0.80494296E+03</pdfrwt>
<pdfrwt beam="2">  1       -2 0.10049636E+00 0.80494296E+03</pdfrwt>
<totfact> 0.94625337E+00</totfact>
</mgrwt>
</event>
<event>
 4    1  0.1998832E-007  0.9038957E+03  0.7818608E-02  0.9519807E-01
          2   -1    0    0  501    0  0.00000000000E+00  0.00000000000E+00  0.27723742228E+04  0.27723742228E+04  0.25500000000E-02 0. -1.
         -2   -1    0    0    0  501 -0.00000000000E+00 -0.00000000000E+00 -0.37842912410E+03  0.37842912410E+03  0.25500000000E-02 0.  1.
    8880023    1    1    2    0    0 -0.38765102142E+03  0.48264257567E+03  0.28529946768E+03  0.94785186753E+03  0.65864270000E+03 0.  1.
    8880022    1    1    2    0    0  0.38765102142E+03 -0.48264257567E+03  0.21086456310E+04  0.22029514794E+04  0.15294330000E+03 0.  0.
<mgrwt>
<rscale>  0 0.82839187E+03</rscale>
<asrwt>0</asrwt>
<pdfrwt beam="1">  1        2 0.42651912E+00 0.90389567E+03</pdfrwt>
<pdfrwt beam="2">  1       -2 0.58219863E-01 0.90389567E+03</pdfrwt>
<totfact> 0.68399339E+00</totfact>
</mgrwt>
</event>
<event>
 4    1  0.1998832E-007  0.1184164E+04  0.7818608E-02  0.9172672E-01
          2   -1    0    0  501    0  0.00000000000E+00  0.00000000000E+00  0.12711704712E+04  0.12711704712E+04  0.25500000000E-02 0. -1.
         -2   -1    0    0    0  501 -0.00000000000E+00 -0.00000000000E+00 -0.22199977492E+04  0.22199977492E+04  0.25500000000E-02 0.  1.
    8880023    1    1    2    0    0 -0.93103559846E+03  0.31875690902E+03 -0.18177805675E+04  0.21694629866E+04  0.65864270000E+03 0.  1.
    8880022    1    1    2    0    0  0.93103559846E+03 -0.31875690902E+03  0.86895328952E+03  0.13217052338E+04  0.15294330000E+03 0.  0.
<mgrwt>
<rscale>  0 0.11340003E+04</rscale>
<asrwt>0</asrwt>
<pdfrwt beam="1">  1        2 0.19556469E+00 0.11841636E+04</pdfrwt>
<pdfrwt beam="2">  1       -2 0.34153812E+00 0.11841636E+04</pdfrwt>
<totfact> 0.29689586E-01</totfact>
</mgrwt>
</event>
<event>
 4    1  0.1998832E-007  0.1051038E+04  0.7818608E-02  0.9317634E-01
         -2   -1    0    0    0  501 -0.00000000000E+00  0.00000000000E+00  0.57697685977E+03  0.57697685977E+03  0.25500000000E-02 0.  1.
          2   -1    0    0  501    0  0.00000000000E+00 -0.00000000000E+00 -0.25200225165E+04  0.25200225165E+04  0.25500000000E-02 0. -1.
    8880023    1    1    2    0    0 -0.75646983853E+03  0.31404566538E+03 -0.77568400920E+02  0.10538967500E+04  0.65864270000E+03 0.  0.
    8880022    1    1    2    0    0  0.75646983853E+03 -0.31404566538E+03 -0.18654772558E+04  0.20431026262E+04  0.15294330000E+03 0.  0.
<mgrwt>
<rscale>  0 0.99175501E+03</rscale>
<asrwt>0</asrwt>
<pdfrwt beam="1">  1        2 0.38769576E+00 0.10510383E+04</pdfrwt>
<pdfrwt beam="2">  1       -2 0.88765672E-01 0.10510383E+04</pdfrwt>
<totfact> 0.37087563E+00</totfact>
</mgrwt>
</event>
<event>
 4    1  0.1998832E-007  0.7541445E+03  0.7818608E-02  0.9820509E-01
          2   -1    0    0  501    0  0.00000000000E+00  0.00000000000E+00  0.15521812724E+04  0.15521812724E+04  0.25500000000E-02 0. -1.
         -2   -1    0    0    0  501 -0.00000000000E+00 -0.00000000000E+00 -0.10255599338E+04  0.10255599338E+04  0.25500000000E-02 0.  1.
    8880023    1    1    2    0    0  0.36347901178E+03  0.52978978245E+02 -0.85494031111E+03  0.11400249585E+04  0.65864270000E+03 0.  1.
    8880022    1    1    2    0    0 -0.36347901178E+03 -0.52978978245E+02  0.13815616497E+04  0.14377162477E+04  0.15294330000E+03 0.  0.
<mgrwt>
<rscale>  0 0.64273410E+03</rscale>
<asrwt>0</asrwt>
<pdfrwt beam="1">  1        2 0.23879712E+00 0.75414453E+03</pdfrwt>
<pdfrwt beam="2">  1       -2 0.15777845E+00 0.75414453E+03</pdfrwt>
<totfact> 0.31894345E+00</totfact>
</mgrwt>
</event>
<event>
 4    1  0.2015468E-007  0.1157248E+04  0.7818608E-02  0.9199844E-01
          2   -1    0    0  501    0  0.00000000000E+00  0.00000000000E+00  0.18790287047E+04  0.18790287047E+04  0.25500000000E-02 0. -1.
         -2   -1    0    0    0  501 -0.00000000000E+00 -0.00000000000E+00 -0.14799427984E+04  0.14799427984E+04  0.25500000000E-02 0.  1.
    8880023    1    1    2    0    0 -0.21050006835E+03  0.92795593709E+03 -0.10870271974E+04  0.15877187516E+04  0.65864270000E+03 0.  1.
    8880022    1    1    2    0    0  0.21050006835E+03 -0.92795593709E+03  0.14861131037E+04  0.17712527516E+04  0.15294330000E+03 0.  0.
<mgrwt>
<rscale>  0 0.11055040E+04</rscale>
<asrwt>0</asrwt>
<pdfrwt beam="1">  1        2 0.28908134E+00 0.11572479E+04</pdfrwt>
<pdfrwt beam="2">  1       -2 0.22768351E+00 0.11572479E+04</pdfrwt>
<totfact> 0.67353221E-01</totfact>
</mgrwt>
</event>
<event>
 4    1  0.1998832E-007  0.8163784E+03  0.7818608E-02  0.9676441E-01
          2   -1    0    0  501    0  0.00000000000E+00  0.00000000000E+00  0.11869722242E+04  0.11869722242E+04  0.25500000000E-02 0. -1.
         -2   -1    0    0    0  501 -0.00000000000E+00 -0.00000000000E+00 -0.87476190061E+03  0.87476190061E+03  0.25500000000E-02 0.  1.
    8880023    1    1    2    0    0 -0.38927631130E+03  0.28482871384E+03 -0.60369397187E+03  0.10153423367E+04  0.65864270000E+03 0.  1.
    8880022    1    1    2    0    0  0.38927631130E+03 -0.28482871384E+03  0.91590429550E+03  0.10463917881E+04  0.15294330000E+03 0.  0.
<mgrwt>
<rscale>  0 0.72436973E+03</rscale>
<asrwt>0</asrwt>
<pdfrwt beam="1">  1        2 0.18261111E+00 0.81637837E+03</pdfrwt>
<pdfrwt beam="2">  1       -2 0.13457875E+00 0.81637837E+03</pdfrwt>
<totfact> 0.77589729E+00</totfact>
</mgrwt>
</event>
<event>
 4    1  0.1998832E-007  0.1288271E+04  0.7818608E-02  0.9075756E-01
          2   -1    0    0  501    0  0.00000000000E+00  0.00000000000E+00  0.18776684361E+04  0.18776684361E+04  0.25500000000E-02 0. -1.
         -2   -1    0    0    0  501 -0.00000000000E+00 -0.00000000000E+00 -0.96837223065E+03  0.96837223066E+03  0.25500000000E-02 0.  1.
    8880023    1    1    2    0    0 -0.10940815631E+04  0.16975437821E+03 -0.16130460913E+03  0.12983298498E+04  0.65864270000E+03 0.  0.
    8880022    1    1    2    0    0  0.10940815631E+04 -0.16975437821E+03  0.10706008146E+04  0.15477108170E+04  0.15294330000E+03 0.  0.
<mgrwt>
<rscale>  0 0.12433268E+04</rscale>
<asrwt>0</asrwt>
<pdfrwt beam="1">  1        2 0.28887206E+00 0.12882706E+04</pdfrwt>
<pdfrwt beam="2">  1       -2 0.14898035E+00 0.12882706E+04</pdfrwt>
<totfact> 0.22975913E+00</totfact>
</mgrwt>
</event>
<event>
 4    1  0.2336439E-007  0.1435758E+04  0.7818608E-02  0.8956385E-01
          2   -1    0    0  501    0  0.00000000000E+00  0.00000000000E+00  0.23191221265E+04  0.23191221265E+04  0.25500000000E-02 0. -1.
         -2   -1    0    0    0  501 -0.00000000000E+00 -0.00000000000E+00 -0.25171282480E+04  0.25171282480E+04  0.25500000000E-02 0.  1.
    8880023    1    1    2    0    0  0.11029756738E+04  0.64112001392E+03 -0.20981986152E+04  0.25424078831E+04  0.65864270000E+03 0.  0.
    8880022    1    1    2    0    0 -0.11029756738E+04 -0.64112001392E+03  0.19001924937E+04  0.22938424914E+04  0.15294330000E+03 0.  0.
<mgrwt>
<rscale>  0 0.13964606E+04</rscale>
<asrwt>0</asrwt>
<pdfrwt beam="1">  1        2 0.35678802E+00 0.14357578E+04</pdfrwt>
<pdfrwt beam="2">  1       -2 0.38725050E+00 0.14357578E+04</pdfrwt>
<totfact> 0.37698700E-02</totfact>
</mgrwt>
</event>
<event>
 4    1  0.1998832E-007  0.1008512E+04  0.7818608E-02  0.9370506E-01
          2   -1    0    0  501    0  0.00000000000E+00  0.00000000000E+00  0.15785543320E+04  0.15785543320E+04  0.25500000000E-02 0. -1.
         -2   -1    0    0    0  501 -0.00000000000E+00 -0.00000000000E+00 -0.12475121617E+04  0.12475121617E+04  0.25500000000E-02 0.  1.
    8880023    1    1    2    0    0 -0.67919790815E+03  0.34925010142E+03 -0.91162716185E+03  0.13594703823E+04  0.65864270000E+03 0.  1.
    8880022    1    1    2    0    0  0.67919790815E+03 -0.34925010142E+03  0.12426693322E+04  0.14665961114E+04  0.15294330000E+03 0.  0.
<mgrwt>
<rscale>  0 0.94543216E+03</rscale>
<asrwt>0</asrwt>
<pdfrwt beam="1">  1        2 0.24285451E+00 0.10085116E+04</pdfrwt>
<pdfrwt beam="2">  1       -2 0.19192495E+00 0.10085116E+04</pdfrwt>
<totfact> 0.17123516E+00</totfact>
</mgrwt>
</event>
<event>
 4    1  0.1998832E-007  0.9517690E+03  0.7818608E-02  0.9447573E-01
         -2   -1    0    0    0  501 -0.00000000000E+00  0.00000000000E+00  0.12632866275E+04  0.12632866275E+04  0.25500000000E-02 0.  1.
          2   -1    0    0  501    0  0.00000000000E+00 -0.00000000000E+00 -0.63609125067E+03  0.63609125067E+03  0.25500000000E-02 0. -1.
    8880023    1    1    2    0    0  0.39464777266E+03 -0.56241183621E+03 -0.72062141747E+01  0.95179623542E+03  0.65864270000E+03 0. -1.
    8880022    1    1    2    0    0 -0.39464777266E+03  0.56241183621E+03  0.63440159098E+03  0.94758164273E+03  0.15294330000E+03 0.  0.
<mgrwt>
<rscale>  0 0.88261875E+03</rscale>
<asrwt>0</asrwt>
<pdfrwt beam="1">  1        2 0.97860193E-01 0.95176896E+03</pdfrwt>
<pdfrwt beam="2">  1       -2 0.19435179E+00 0.95176896E+03</pdfrwt>
<totfact> 0.66812177E+00</totfact>
</mgrwt>
</event>
<event>
 4    1  0.1998832E-007  0.9861484E+03  0.7818608E-02  0.9399908E-01
          2   -1    0    0  501    0  0.00000000000E+00  0.00000000000E+00  0.21120960922E+04  0.21120960922E+04  0.25500000000E-02 0. -1.
         -2   -1    0    0    0  501 -0.00000000000E+00 -0.00000000000E+00 -0.90861105954E+03  0.90861105954E+03  0.25500000000E-02 0.  1.
    8880023    1    1    2    0    0 -0.86631108754E+02 -0.72881646595E+03 -0.53896083455E+03  0.11238182137E+04  0.65864270000E+03 0.  0.
    8880022    1    1    2    0    0  0.86631108754E+02  0.72881646595E+03  0.17424458673E+04  0.18968889381E+04  0.15294330000E+03 0.  0.
<mgrwt>
<rscale>  0 0.92083220E+03</rscale>
<asrwt>0</asrwt>
<pdfrwt beam="1">  1        2 0.32493786E+00 0.98614836E+03</pdfrwt>
<pdfrwt beam="2">  1       -2 0.13978632E+00 0.98614836E+03</pdfrwt>
<totfact> 0.20891738E+00</totfact>
</mgrwt>
</event>
<event>
 4    1  0.1998832E-007  0.7042736E+03  0.7818608E-02  0.9979914E-01
          2   -1    0    0  501    0  0.00000000000E+00  0.00000000000E+00  0.94917443957E+03  0.94917443957E+03  0.25500000000E-02 0. -1.
         -2   -1    0    0    0  501 -0.00000000000E+00 -0.00000000000E+00 -0.58836834374E+03  0.58836834374E+03  0.25500000000E-02 0.  1.
    8880023    1    1    2    0    0 -0.18792632976E+03 -0.16393534567E+03 -0.33710710006E+03  0.78079607206E+03  0.65864270000E+03 0.  0.
    8880022    1    1    2    0    0  0.18792632976E+03  0.16393534567E+03  0.69791319589E+03  0.75674671125E+03  0.15294330000E+03 0.  0.
<mgrwt>
<rscale>  0 0.56539810E+03</rscale>
<asrwt>0</asrwt>
<pdfrwt beam="1">  1        2 0.14602684E+00 0.70427360E+03</pdfrwt>
<pdfrwt beam="2">  1       -2 0.90518206E-01 0.70427360E+03</pdfrwt>
<totfact> 0.28922543E+01</totfact>
</mgrwt>
</event>
<event>
 4    1  0.1998832E-007  0.7289627E+03  0.7818608E-02  0.9893349E-01
          2   -1    0    0  501    0  0.00000000000E+00  0.00000000000E+00  0.22348655376E+04  0.22348655376E+04  0.25500000000E-02 0. -1.
         -2   -1    0    0    0  501 -0.00000000000E+00 -0.00000000000E+00 -0.13789721527E+03  0.13789721529E+03  0.25500000000E-02 0.  1.
    8880023    1    1    2    0    0  0.13488643900E+03  0.28174827251E+03  0.11258490545E+04  0.13412392554E+04  0.65864270000E+03 0.  1.
    8880022    1    1    2    0    0 -0.13488643900E+03 -0.28174827251E+03  0.97111926778E+03  0.10315234974E+04  0.15294330000E+03 0.  1.
<mgrwt>
<rscale>  0 0.60584683E+03</rscale>
<asrwt>0</asrwt>
<pdfrwt beam="1">  1        2 0.34382547E+00 0.72896272E+03</pdfrwt>
<pdfrwt beam="2">  1       -2 0.21214956E-01 0.72896272E+03</pdfrwt>
<totfact> 0.98136824E+01</totfact>
</mgrwt>
</event>
<event>
 4    1  0.1998832E-007  0.9996331E+03  0.7818608E-02  0.9382038E-01
          2   -1    0    0  501    0  0.00000000000E+00  0.00000000000E+00  0.20032941758E+04  0.20032941758E+04  0.25500000000E-02 0. -1.
         -2   -1    0    0    0  501 -0.00000000000E+00 -0.00000000000E+00 -0.58250781054E+03  0.58250781054E+03  0.25500000000E-02 0.  1.
    8880023    1    1    2    0    0  0.63041987729E+03  0.40991081841E+03  0.33222506768E+02  0.10001850039E+04  0.65864270000E+03 0.  0.
    8880022    1    1    2    0    0 -0.63041987729E+03 -0.40991081841E+03  0.13875638585E+04  0.15856169825E+04  0.15294330000E+03 0.  0.
<mgrwt>
<rscale>  0 0.93568754E+03</rscale>
<asrwt>0</asrwt>
<pdfrwt beam="1">  1        2 0.30819911E+00 0.99963309E+03</pdfrwt>
<pdfrwt beam="2">  1       -2 0.89616585E-01 0.99963309E+03</pdfrwt>
<totfact> 0.71109070E+00</totfact>
</mgrwt>
</event>
<event>
 4    1  0.1998832E-007  0.1030888E+04  0.7818608E-02  0.9342217E-01
          2   -1    0    0  501    0  0.00000000000E+00  0.00000000000E+00  0.13714526072E+04  0.13714526072E+04  0.25500000000E-02 0. -1.
         -2   -1    0    0    0  501 -0.00000000000E+00 -0.00000000000E+00 -0.13159172626E+04  0.13159172626E+04  0.25500000000E-02 0.  1.
    8880023    1    1    2    0    0 -0.68205576969E+03  0.40462304800E+03 -0.94709511279E+03  0.13998997260E+04  0.65864270000E+03 0.  1.
    8880022    1    1    2    0    0  0.68205576969E+03 -0.40462304800E+03  0.10026304574E+04  0.12874701438E+04  0.15294330000E+03 0.  0.
<mgrwt>
<rscale>  0 0.96987441E+03</rscale>
<asrwt>0</asrwt>
<pdfrwt beam="1">  1        2 0.21099271E+00 0.10308880E+04</pdfrwt>
<pdfrwt beam="2">  1       -2 0.20244881E+00 0.10308880E+04</pdfrwt>
<totfact> 0.19052469E+00</totfact>
</mgrwt>
</event>
<event>
 4    1  0.1998832E-007  0.1446473E+04  0.7818608E-02  0.8948388E-01
         -2   -1    0    0    0  501 -0.00000000000E+00  0.00000000000E+00  0.73095586151E+03  0.73095586151E+03  0.25500000000E-02 0.  1.
          2   -1    0    0  501    0  0.00000000000E+00 -0.00000000000E+00 -0.36875255358E+04  0.36875255358E+04  0.25500000000E-02 0. -1.
    8880023    1    1    2    0    0  0.11634219011E+04 -0.55219998302E+03 -0.32179942473E+03  0.14818368389E+04  0.65864270000E+03 0.  0.
    8880022    1    1    2    0    0 -0.11634219011E+04  0.55219998302E+03 -0.26347702496E+04  0.29366445584E+04  0.15294330000E+03 0.  0.
<mgrwt>
<rscale>  0 0.14075273E+04</rscale>
<asrwt>0</asrwt>
<pdfrwt beam="1">  1        2 0.56731161E+00 0.14464735E+04</pdfrwt>
<pdfrwt beam="2">  1       -2 0.11245475E+00 0.14464735E+04</pdfrwt>
<totfact> 0.35966973E-01</totfact>
</mgrwt>
</event>
<event>
 4    1  0.1998832E-007  0.1942968E+04  0.7818608E-02  0.8647320E-01
          2   -1    0    0  501    0  0.00000000000E+00  0.00000000000E+00  0.49410176860E+04  0.49410176860E+04  0.25500000000E-02 0. -1.
         -2   -1    0    0    0  501 -0.00000000000E+00 -0.00000000000E+00 -0.74635820299E+03  0.74635820300E+03  0.25500000000E-02 0.  1.
    8880023    1    1    2    0    0 -0.14843267666E+04 -0.10668124688E+04  0.16412038594E+04  0.25433590207E+04  0.65864270000E+03 0.  0.
    8880022    1    1    2    0    0  0.14843267666E+04  0.10668124688E+04  0.25534556236E+04  0.31440168683E+04  0.15294330000E+03 0.  0.
<mgrwt>
<rscale>  0 0.19152155E+04</rscale>
<asrwt>0</asrwt>
<pdfrwt beam="1">  1        2 0.76015656E+00 0.19429681E+04</pdfrwt>
<pdfrwt beam="2">  1       -2 0.11482434E+00 0.19429681E+04</pdfrwt>
<totfact> 0.22356149E-02</totfact>
</mgrwt>
</event>
<event>
 4    1  0.1998832E-007  0.7500420E+03  0.7818608E-02  0.9831605E-01
         -2   -1    0    0    0  501 -0.00000000000E+00  0.00000000000E+00  0.47776115777E+03  0.47776115778E+03  0.25500000000E-02 0.  1.
          2   -1    0    0  501    0  0.00000000000E+00 -0.00000000000E+00 -0.28633765890E+04  0.28633765890E+04  0.25500000000E-02 0. -1.
    8880023    1    1    2    0    0  0.21859311132E+01  0.35881474680E+03  0.15907581315E+03  0.76672558416E+03  0.65864270000E+03 0.  0.
    8880022    1    1    2    0    0 -0.21859311132E+01 -0.35881474680E+03 -0.25446912444E+04  0.25744121627E+04  0.15294330000E+03 0.  0.
<mgrwt>
<rscale>  0 0.63693660E+03</rscale>
<asrwt>0</asrwt>
<pdfrwt beam="1">  1        2 0.44051946E+00 0.75004200E+03</pdfrwt>
<pdfrwt beam="2">  1       -2 0.73501719E-01 0.75004200E+03</pdfrwt>
<totfact> 0.37517755E+00</totfact>
</mgrwt>
</event>
<event>
 4    1  0.1998832E-007  0.6721755E+03  0.7818608E-02  0.1014149E+00
         -2   -1    0    0    0  501 -0.00000000000E+00  0.00000000000E+00  0.28209610093E+03  0.28209610094E+03  0.25500000000E-02 0.  1.
          2   -1    0    0  501    0  0.00000000000E+00 -0.00000000000E+00 -0.14316344066E+04  0.14316344066E+04  0.25500000000E-02 0. -1.
    8880023    1    1    2    0    0  0.43551268825E+02  0.12693670259E+03 -0.14350049445E+03  0.68732251356E+03  0.65864270000E+03 0.  1.
    8880022    1    1    2    0    0 -0.43551268825E+02 -0.12693670259E+03 -0.10060378112E+04  0.10264079940E+04  0.15294330000E+03 0.  0.
<mgrwt>
<rscale>  0 0.49858445E+03</rscale>
<asrwt>0</asrwt>
<pdfrwt beam="1">  1        2 0.22025144E+00 0.67217546E+03</pdfrwt>
<pdfrwt beam="2">  1       -2 0.43399401E-01 0.67217546E+03</pdfrwt>
<totfact> 0.71782817E+01</totfact>
</mgrwt>
</event>
<event>
 4    1  0.1998832E-007  0.6830219E+03  0.7818608E-02  0.1007663E+00
          2   -1    0    0  501    0  0.00000000000E+00  0.00000000000E+00  0.19803097799E+04  0.19803097799E+04  0.25500000000E-02 0. -1.
         -2   -1    0    0    0  501 -0.00000000000E+00 -0.00000000000E+00 -0.15278466289E+03  0.15278466292E+03  0.25500000000E-02 0.  1.
    8880023    1    1    2    0    0  0.74350038612E+02 -0.16486584375E+03  0.68893373243E+03  0.97012811969E+03  0.65864270000E+03 0.  1.
    8880022    1    1    2    0    0 -0.74350038612E+02  0.16486584375E+03  0.11385913845E+04  0.11629663231E+04  0.15294330000E+03 0.  0.
<mgrwt>
<rscale>  0 0.52413919E+03</rscale>
<asrwt>0</asrwt>
<pdfrwt beam="1">  1        2 0.30466301E+00 0.68302187E+03</pdfrwt>
<pdfrwt beam="2">  1       -2 0.23505335E-01 0.68302187E+03</pdfrwt>
<totfact> 0.11335869E+02</totfact>
</mgrwt>
</event>
<event>
 4    1  0.1998832E-007  0.1143957E+04  0.7818608E-02  0.9213624E-01
          2   -1    0    0  501    0  0.00000000000E+00  0.00000000000E+00  0.31340198622E+04  0.31340198622E+04  0.25500000000E-02 0. -1.
         -2   -1    0    0    0  501 -0.00000000000E+00 -0.00000000000E+00 -0.55109456287E+03  0.55109456287E+03  0.25500000000E-02 0.  1.
    8880023    1    1    2    0    0 -0.51746585374E+02 -0.93389015236E+03  0.25552888988E+03  0.11721491994E+04  0.65864270000E+03 0.  1.
    8880022    1    1    2    0    0  0.51746585374E+02  0.93389015236E+03  0.23273964094E+04  0.25129652256E+04  0.15294330000E+03 0.  0.
<mgrwt>
<rscale>  0 0.10913907E+04</rscale>
<asrwt>0</asrwt>
<pdfrwt beam="1">  1        2 0.48215690E+00 0.11439575E+04</pdfrwt>
<pdfrwt beam="2">  1       -2 0.84783779E-01 0.11439575E+04</pdfrwt>
<totfact> 0.17390253E+00</totfact>
</mgrwt>
</event>
<event>
 4    1  0.1998832E-007  0.8110660E+03  0.7818608E-02  0.9687361E-01
          2   -1    0    0  501    0  0.00000000000E+00  0.00000000000E+00  0.41718040177E+04  0.41718040177E+04  0.25500000000E-02 0. -1.
         -2   -1    0    0    0  501 -0.00000000000E+00 -0.00000000000E+00 -0.22204468799E+03  0.22204468800E+03  0.25500000000E-02 0.  1.
    8880023    1    1    2    0    0 -0.47308486312E+03  0.14444348932E+02  0.60384906884E+03  0.10111685473E+04  0.65864270000E+03 0.  0.
    8880022    1    1    2    0    0  0.47308486312E+03 -0.14444348932E+02  0.33459102609E+04  0.33826801584E+04  0.15294330000E+03 0.  0.
<mgrwt>
<rscale>  0 0.71774344E+03</rscale>
<asrwt>0</asrwt>
<pdfrwt beam="1">  1        2 0.64181600E+00 0.81106605E+03</pdfrwt>
<pdfrwt beam="2">  1       -2 0.34160722E-01 0.81106605E+03</pdfrwt>
<totfact> 0.21738971E+00</totfact>
</mgrwt>
</event>
<event>
 4    1  0.1998832E-007  0.1053410E+04  0.7818608E-02  0.9314793E-01
          2   -1    0    0  501    0  0.00000000000E+00  0.00000000000E+00  0.38340212307E+04  0.38340212307E+04  0.25500000000E-02 0. -1.
         -2   -1    0    0    0  501 -0.00000000000E+00 -0.00000000000E+00 -0.28347738701E+03  0.28347738702E+03  0.25500000000E-02 0.  1.
    8880023    1    1    2    0    0  0.78711165606E+03  0.23731383171E+03  0.10773814572E+04  0.15067924955E+04  0.65864270000E+03 0.  1.
    8880022    1    1    2    0    0 -0.78711165606E+03 -0.23731383171E+03  0.24731623865E+04  0.26107061222E+04  0.15294330000E+03 0.  0.
<mgrwt>
<rscale>  0 0.99432303E+03</rscale>
<asrwt>0</asrwt>
<pdfrwt beam="1">  1        2 0.58984940E+00 0.10534101E+04</pdfrwt>
<pdfrwt beam="2">  1       -2 0.43611907E-01 0.10534101E+04</pdfrwt>
<totfact> 0.23967391E+00</totfact>
</mgrwt>
</event>
<event>
 4    1  0.1998832E-007  0.6802769E+03  0.7818608E-02  0.1009167E+00
         -2   -1    0    0    0  501 -0.00000000000E+00  0.00000000000E+00  0.78977480921E+03  0.78977480921E+03  0.25500000000E-02 0.  1.
          2   -1    0    0  501    0  0.00000000000E+00 -0.00000000000E+00 -0.92036343221E+03  0.92036343221E+03  0.25500000000E-02 0. -1.
    8880023    1    1    2    0    0  0.16283240836E+03 -0.49518269998E+02  0.62308010637E+03  0.92249958130E+03  0.65864270000E+03 0.  1.
    8880022    1    1    2    0    0 -0.16283240836E+03  0.49518269998E+02 -0.75366872937E+03  0.78763866013E+03  0.15294330000E+03 0.  0.
<mgrwt>
<rscale>  0 0.51806861E+03</rscale>
<asrwt>0</asrwt>
<pdfrwt beam="1">  1        2 0.14159437E+00 0.68027690E+03</pdfrwt>
<pdfrwt beam="2">  1       -2 0.12150382E+00 0.68027690E+03</pdfrwt>
<totfact> 0.14976926E+01</totfact>
</mgrwt>
</event>
<event>
 4    1  0.1998832E-007  0.8160393E+03  0.7818608E-02  0.9677132E-01
          2   -1    0    0  501    0  0.00000000000E+00  0.00000000000E+00  0.16619843800E+04  0.16619843800E+04  0.25500000000E-02 0. -1.
         -2   -1    0    0    0  501 -0.00000000000E+00 -0.00000000000E+00 -0.53071104183E+03  0.53071104184E+03  0.25500000000E-02 0.  1.
    8880023    1    1    2    0    0 -0.45663180495E+03  0.15361416813E+03 -0.13694996004E+03  0.82745115612E+03  0.65864270000E+03 0.  1.
    8880022    1    1    2    0    0  0.45663180495E+03 -0.15361416813E+03  0.12682232982E+04  0.13652442657E+04  0.15294330000E+03 0.  0.
<mgrwt>
<rscale>  0 0.72394821E+03</rscale>
<asrwt>0</asrwt>
<pdfrwt beam="1">  1        2 0.25568990E+00 0.81603929E+03</pdfrwt>
<pdfrwt beam="2">  1       -2 0.81647854E-01 0.81603929E+03</pdfrwt>
<totfact> 0.13849241E+01</totfact>
</mgrwt>
</event>
<event>
 4    1  0.1998832E-007  0.9473237E+03  0.7818608E-02  0.9453975E-01
         -2   -1    0    0    0  501 -0.00000000000E+00  0.00000000000E+00  0.80220033188E+03  0.80220033188E+03  0.25500000000E-02 0.  1.
          2   -1    0    0  501    0  0.00000000000E+00 -0.00000000000E+00 -0.13585472239E+04  0.13585472239E+04  0.25500000000E-02 0. -1.
    8880023    1    1    2    0    0 -0.45260063383E+03 -0.50868913905E+03  0.35608521381E+03  0.10120369853E+04  0.65864270000E+03 0.  0.
    8880022    1    1    2    0    0  0.45260063383E+03  0.50868913905E+03 -0.91243210586E+03  0.11487105705E+04  0.15294330000E+03 0.  0.
<mgrwt>
<rscale>  0 0.87763781E+03</rscale>
<asrwt>0</asrwt>
<pdfrwt beam="1">  1        2 0.20900727E+00 0.94732369E+03</pdfrwt>
<pdfrwt beam="2">  1       -2 0.12341544E+00 0.94732369E+03</pdfrwt>
<totfact> 0.75568439E+00</totfact>
</mgrwt>
</event>
<event>
 4    1  0.1998832E-007  0.7544179E+03  0.7818608E-02  0.9819779E-01
          2   -1    0    0  501    0  0.00000000000E+00  0.00000000000E+00  0.16676056645E+04  0.16676056645E+04  0.25500000000E-02 0. -1.
         -2   -1    0    0    0  501 -0.00000000000E+00 -0.00000000000E+00 -0.38653581647E+03  0.38653581648E+03  0.25500000000E-02 0.  1.
    8880023    1    1    2    0    0 -0.36502049037E+03  0.45784391121E+02  0.45344871282E+02  0.75577942052E+03  0.65864270000E+03 0.  0.
    8880022    1    1    2    0    0  0.36502049037E+03 -0.45784391121E+02  0.12357249768E+04  0.12983620605E+04  0.15294330000E+03 0.  0.
<mgrwt>
<rscale>  0 0.64311794E+03</rscale>
<asrwt>0</asrwt>
<pdfrwt beam="1">  1        2 0.25655471E+00 0.75441790E+03</pdfrwt>
<pdfrwt beam="2">  1       -2 0.59467050E-01 0.75441790E+03</pdfrwt>
<totfact> 0.27679077E+01</totfact>
</mgrwt>
</event>
<event>
 4    1  0.1998832E-007  0.9341910E+03  0.7818608E-02  0.9473234E-01
         -2   -1    0    0    0  501 -0.00000000000E+00  0.00000000000E+00  0.71667624817E+03  0.71667624817E+03  0.25500000000E-02 0.  1.
          2   -1    0    0  501    0  0.00000000000E+00 -0.00000000000E+00 -0.10498846667E+04  0.10498846667E+04  0.25500000000E-02 0. -1.
    8880023    1    1    2    0    0  0.58988205199E+03  0.30156569249E+03  0.13093363235E+03  0.94332206827E+03  0.65864270000E+03 0.  0.
    8880022    1    1    2    0    0 -0.58988205199E+03 -0.30156569249E+03 -0.46414205087E+03  0.82323884660E+03  0.15294330000E+03 0.  0.
<mgrwt>
<rscale>  0 0.86286251E+03</rscale>
<asrwt>0</asrwt>
<pdfrwt beam="1">  1        2 0.16152072E+00 0.93419104E+03</pdfrwt>
<pdfrwt beam="2">  1       -2 0.11025788E+00 0.93419104E+03</pdfrwt>
<totfact> 0.15278286E+01</totfact>
</mgrwt>
</event>
<event>
 4    1  0.1998832E-007  0.7413874E+03  0.7818608E-02  0.9855924E-01
          2   -1    0    0  501    0  0.00000000000E+00  0.00000000000E+00  0.12933669724E+04  0.12933669724E+04  0.25500000000E-02 0. -1.
         -2   -1    0    0    0  501 -0.00000000000E+00 -0.00000000000E+00 -0.86111794925E+03  0.86111794926E+03  0.25500000000E-02 0.  1.
    8880023    1    1    2    0    0 -0.52000281800E+02 -0.33636441319E+03 -0.66474690928E+03  0.99576287711E+03  0.65864270000E+03 0.  1.
    8880022    1    1    2    0    0  0.52000281800E+02  0.33636441319E+03  0.10969959324E+04  0.11587220446E+04  0.15294330000E+03 0.  0.
<mgrwt>
<rscale>  0 0.62445782E+03</rscale>
<asrwt>0</asrwt>
<pdfrwt beam="1">  1        2 0.19897953E+00 0.74138738E+03</pdfrwt>
<pdfrwt beam="2">  1       -2 0.13247969E+00 0.74138738E+03</pdfrwt>
<totfact> 0.70633295E+00</totfact>
</mgrwt>
</event>
<event>
 4    1  0.1998832E-007  0.8915071E+03  0.7818608E-02  0.9539805E-01
          2   -1    0    0  501    0  0.00000000000E+00  0.00000000000E+00  0.37070846275E+04  0.37070846275E+04  0.25500000000E-02 0. -1.
         -2   -1    0    0    0  501 -0.00000000000E+00 -0.00000000000E+00 -0.21508065522E+03  0.21508065523E+03  0.25500000000E-02 0.  1.
    8880023    1    1    2    0    0 -0.56706977020E+03 -0.19851086993E+03  0.93834034922E+03  0.12943212534E+04  0.65864270000E+03 0.  0.
    8880022    1    1    2    0    0  0.56706977020E+03  0.19851086993E+03  0.25536636231E+04  0.26278440294E+04  0.15294330000E+03 0.  0.
<mgrwt>
<rscale>  0 0.81411690E+03</rscale>
<asrwt>0</asrwt>
<pdfrwt beam="1">  1        2 0.57032066E+00 0.89150709E+03</pdfrwt>
<pdfrwt beam="2">  1       -2 0.33089334E-01 0.89150709E+03</pdfrwt>
<totfact> 0.52223594E+00</totfact>
</mgrwt>
</event>
<event>
 4    1  0.1998832E-007  0.1348206E+04  0.7818608E-02  0.9025010E-01
          2   -1    0    0  501    0  0.00000000000E+00  0.00000000000E+00  0.29065250385E+04  0.29065250385E+04  0.25500000000E-02 0. -1.
         -2   -1    0    0    0  501 -0.00000000000E+00 -0.00000000000E+00 -0.74802121480E+03  0.74802121480E+03  0.25500000000E-02 0.  1.
    8880023    1    1    2    0    0  0.91537185463E+02  0.11728039594E+04  0.19741848958E+03  0.13625830066E+04  0.65864270000E+03 0.  0.
    8880022    1    1    2    0    0 -0.91537185463E+02 -0.11728039594E+04  0.19610853341E+04  0.22919632467E+04  0.15294330000E+03 0.  0.
<mgrwt>
<rscale>  0 0.13057593E+04</rscale>
<asrwt>0</asrwt>
<pdfrwt beam="1">  1        2 0.44715770E+00 0.13482056E+04</pdfrwt>
<pdfrwt beam="2">  1       -2 0.11508019E+00 0.13482056E+04</pdfrwt>
<totfact> 0.11353905E+00</totfact>
</mgrwt>
</event>
<event>
 4    1  0.1998832E-007  0.7971219E+03  0.7818608E-02  0.9717054E-01
          2   -1    0    0  501    0  0.00000000000E+00  0.00000000000E+00  0.16284159839E+04  0.16284159839E+04  0.25500000000E-02 0. -1.
         -2   -1    0    0    0  501 -0.00000000000E+00 -0.00000000000E+00 -0.41149269294E+03  0.41149269294E+03  0.25500000000E-02 0.  1.
    8880023    1    1    2    0    0 -0.17761412986E+03  0.41236677139E+03  0.71695573452E+02  0.80033967463E+03  0.65864270000E+03 0.  1.
    8880022    1    1    2    0    0  0.17761412986E+03 -0.41236677139E+03  0.11452277175E+04  0.12395690022E+04  0.15294330000E+03 0.  0.
<mgrwt>
<rscale>  0 0.70010423E+03</rscale>
<asrwt>0</asrwt>
<pdfrwt beam="1">  1        2 0.25052553E+00 0.79712191E+03</pdfrwt>
<pdfrwt beam="2">  1       -2 0.63306570E-01 0.79712191E+03</pdfrwt>
<totfact> 0.25341531E+01</totfact>
</mgrwt>
</event>
<event>
 4    1  0.1998832E-007  0.1119220E+04  0.7818608E-02  0.9239953E-01
          2   -1    0    0  501    0  0.00000000000E+00  0.00000000000E+00  0.17184610072E+04  0.17184610072E+04  0.25500000000E-02 0. -1.
         -2   -1    0    0    0  501 -0.00000000000E+00 -0.00000000000E+00 -0.90014003901E+03  0.90014003902E+03  0.25500000000E-02 0.  1.
    8880023    1    1    2    0    0 -0.69725479858E+03  0.57678349112E+03 -0.31270122568E+03  0.11620824896E+04  0.65864270000E+03 0.  0.
    8880022    1    1    2    0    0  0.69725479858E+03 -0.57678349112E+03  0.11310221938E+04  0.14565185566E+04  0.15294330000E+03 0.  0.
<mgrwt>
<rscale>  0 0.10650397E+04</rscale>
<asrwt>0</asrwt>
<pdfrwt beam="1">  1        2 0.26437861E+00 0.11192201E+04</pdfrwt>
<pdfrwt beam="2">  1       -2 0.13848308E+00 0.11192201E+04</pdfrwt>
<totfact> 0.34727651E+00</totfact>
</mgrwt>
</event>
<event>
 4    1  0.2057578E-007  0.8414812E+03  0.7818608E-02  0.9627394E-01
         -2   -1    0    0    0  501 -0.00000000000E+00  0.00000000000E+00  0.12627977830E+04  0.12627977830E+04  0.25500000000E-02 0.  1.
          2   -1    0    0  501    0  0.00000000000E+00 -0.00000000000E+00 -0.14184471577E+04  0.14184471577E+04  0.25500000000E-02 0. -1.
    8880023    1    1    2    0    0  0.52095314516E+03  0.53742241349E+02  0.10572717086E+04  0.13512638825E+04  0.65864270000E+03 0.  1.
    8880022    1    1    2    0    0 -0.52095314516E+03 -0.53742241349E+02 -0.12129210834E+04  0.13299810583E+04  0.15294330000E+03 0.  0.
<mgrwt>
<rscale>  0 0.75509322E+03</rscale>
<asrwt>0</asrwt>
<pdfrwt beam="1">  1        2 0.21822264E+00 0.84148120E+03</pdfrwt>
<pdfrwt beam="2">  1       -2 0.19427658E+00 0.84148120E+03</pdfrwt>
<totfact> 0.20799454E+00</totfact>
</mgrwt>
</event>
<event>
 4    1  0.1998832E-007  0.1344087E+04  0.7818608E-02  0.9028393E-01
         -2   -1    0    0    0  501 -0.00000000000E+00  0.00000000000E+00  0.40135389587E+04  0.40135389587E+04  0.25500000000E-02 0.  1.
          2   -1    0    0  501    0  0.00000000000E+00 -0.00000000000E+00 -0.12135170917E+04  0.12135170917E+04  0.25500000000E-02 0. -1.
    8880023    1    1    2    0    0  0.58299861631E+03  0.10163032540E+04  0.35714112660E+04  0.38159596863E+04  0.65864270000E+03 0.  0.
    8880022    1    1    2    0    0 -0.58299861631E+03 -0.10163032540E+04 -0.77138939899E+03  0.14110963640E+04  0.15294330000E+03 0.  0.
<mgrwt>
<rscale>  0 0.13014788E+04</rscale>
<asrwt>0</asrwt>
<pdfrwt beam="1">  1        2 0.18669493E+00 0.13440870E+04</pdfrwt>
<pdfrwt beam="2">  1       -2 0.61746754E+00 0.13440870E+04</pdfrwt>
<totfact> 0.75430013E-03</totfact>
</mgrwt>
</event>
<event>
 4    1  0.1998832E-007  0.6698264E+03  0.7818608E-02  0.1015788E+00
         -2   -1    0    0    0  501 -0.00000000000E+00  0.00000000000E+00  0.20685165524E+03  0.20685165525E+03  0.25500000000E-02 0.  1.
          2   -1    0    0  501    0  0.00000000000E+00 -0.00000000000E+00 -0.10493309053E+04  0.10493309053E+04  0.25500000000E-02 0. -1.
    8880023    1    1    2    0    0  0.29202418353E+02  0.11834039504E+03 -0.41994780668E+03  0.79058433892E+03  0.65864270000E+03 0.  0.
    8880022    1    1    2    0    0 -0.29202418353E+02 -0.11834039504E+03 -0.42253144339E+03  0.46559822165E+03  0.15294330000E+03 0.  0.
<mgrwt>
<rscale>  0 0.49237847E+03</rscale>
<asrwt>0</asrwt>
<pdfrwt beam="1">  1        2 0.16143552E+00 0.66982642E+03</pdfrwt>
<pdfrwt beam="2">  1       -2 0.31823332E-01 0.66982642E+03</pdfrwt>
<totfact> 0.21825946E+02</totfact>
</mgrwt>
</event>
<event>
 4    1  0.1998832E-007  0.6677889E+03  0.7818608E-02  0.1017300E+00
          2   -1    0    0  501    0  0.00000000000E+00  0.00000000000E+00  0.13173778971E+04  0.13173778971E+04  0.25500000000E-02 0. -1.
         -2   -1    0    0    0  501 -0.00000000000E+00 -0.00000000000E+00 -0.53435182542E+03  0.53435182543E+03  0.25500000000E-02 0.  1.
    8880023    1    1    2    0    0 -0.97701535851E+02  0.50854962112E+02 -0.31449767395E+03  0.73814010219E+03  0.65864270000E+03 0.  1.
    8880022    1    1    2    0    0  0.97701535851E+02 -0.50854962112E+02  0.10975237456E+04  0.11135896203E+04  0.15294330000E+03 0.  0.
<mgrwt>
<rscale>  0 0.48673640E+03</rscale>
<asrwt>0</asrwt>
<pdfrwt beam="1">  1        2 0.20267352E+00 0.66778891E+03</pdfrwt>
<pdfrwt beam="2">  1       -2 0.82207974E-01 0.66778891E+03</pdfrwt>
<totfact> 0.21645862E+01</totfact>
</mgrwt>
</event>
<event>
 4    1  0.1998832E-007  0.7969287E+03  0.7818608E-02  0.9717477E-01
         -2   -1    0    0    0  501 -0.00000000000E+00  0.00000000000E+00  0.11960282287E+04  0.11960282287E+04  0.25500000000E-02 0.  1.
          2   -1    0    0  501    0  0.00000000000E+00 -0.00000000000E+00 -0.41354476154E+03  0.41354476155E+03  0.25500000000E-02 0. -1.
    8880023    1    1    2    0    0 -0.44627968023E+03  0.46038662758E+02  0.80800381479E+03  0.11348856693E+04  0.65864270000E+03 0.  0.
    8880022    1    1    2    0    0  0.44627968023E+03 -0.46038662758E+02 -0.25520347678E+02  0.47468732089E+03  0.15294330000E+03 0.  0.
<mgrwt>
<rscale>  0 0.69985708E+03</rscale>
<asrwt>0</asrwt>
<pdfrwt beam="1">  1        2 0.63622271E-01 0.79692868E+03</pdfrwt>
<pdfrwt beam="2">  1       -2 0.18400434E+00 0.79692868E+03</pdfrwt>
<totfact> 0.13189235E+01</totfact>
</mgrwt>
</event>
<event>
 4    1  0.1998832E-007  0.9311287E+03  0.7818608E-02  0.9477802E-01
         -2   -1    0    0    0  501 -0.00000000000E+00  0.00000000000E+00  0.60033872826E+03  0.60033872826E+03  0.25500000000E-02 0.  1.
          2   -1    0    0  501    0  0.00000000000E+00 -0.00000000000E+00 -0.16315573120E+04  0.16315573120E+04  0.25500000000E-02 0. -1.
    8880023    1    1    2    0    0  0.61214831381E+03 -0.24179502520E+03  0.76591167116E+02  0.93427341044E+03  0.65864270000E+03 0.  1.
    8880022    1    1    2    0    0 -0.61214831381E+03  0.24179502520E+03 -0.11078097508E+04  0.12976226298E+04  0.15294330000E+03 0.  0.
<mgrwt>
<rscale>  0 0.85940352E+03</rscale>
<asrwt>0</asrwt>
<pdfrwt beam="1">  1        2 0.25100882E+00 0.93112867E+03</pdfrwt>
<pdfrwt beam="2">  1       -2 0.92359805E-01 0.93112867E+03</pdfrwt>
<totfact> 0.10704837E+01</totfact>
</mgrwt>
</event>
<event>
 4    1  0.1998832E-007  0.7893019E+03  0.7818608E-02  0.9734423E-01
          2   -1    0    0  501    0  0.00000000000E+00  0.00000000000E+00  0.39861639762E+03  0.39861639763E+03  0.25500000000E-02 0. -1.
         -2   -1    0    0    0  501 -0.00000000000E+00 -0.00000000000E+00 -0.15170844500E+04  0.15170844500E+04  0.25500000000E-02 0.  1.
    8880023    1    1    2    0    0 -0.30690196672E+03  0.30821830707E+03 -0.12109300713E+04  0.14454581231E+04  0.65864270000E+03 0.  0.
    8880022    1    1    2    0    0  0.30690196672E+03 -0.30821830707E+03  0.92462018888E+02  0.47024272450E+03  0.15294330000E+03 0.  0.
<mgrwt>
<rscale>  0 0.69003707E+03</rscale>
<asrwt>0</asrwt>
<pdfrwt beam="1">  1        2 0.61325600E-01 0.78930194E+03</pdfrwt>
<pdfrwt beam="2">  1       -2 0.23339761E+00 0.78930194E+03</pdfrwt>
<totfact> 0.66307703E+00</totfact>
</mgrwt>
</event>
<event>
 4    1  0.1998832E-007  0.7264899E+03  0.7818608E-02  0.9901208E-01
         -2   -1    0    0    0  501 -0.00000000000E+00  0.00000000000E+00  0.20078567847E+03  0.20078567848E+03  0.25500000000E-02 0.  1.
          2   -1    0    0  501    0  0.00000000000E+00 -0.00000000000E+00 -0.14998754661E+04  0.14998754661E+04  0.25500000000E-02 0. -1.
    8880023    1    1    2    0    0 -0.30463533772E+03  0.34273217637E+02 -0.69059057210E+03  0.10023486853E+04  0.65864270000E+03 0.  1.
    8880022    1    1    2    0    0  0.30463533772E+03 -0.34273217637E+02 -0.60849921551E+03  0.69831245924E+03  0.15294330000E+03 0. -1.
<mgrwt>
<rscale>  0 0.60202753E+03</rscale>
<asrwt>0</asrwt>
<pdfrwt beam="1">  1        2 0.23075006E+00 0.72648988E+03</pdfrwt>
<pdfrwt beam="2">  1       -2 0.30890105E-01 0.72648988E+03</pdfrwt>
<totfact> 0.12557648E+02</totfact>
</mgrwt>
</event>
<event>
 4    1  0.1998832E-007  0.6868087E+03  0.7818608E-02  0.1005708E+00
          2   -1    0    0  501    0  0.00000000000E+00  0.00000000000E+00  0.31562944489E+04  0.31562944489E+04  0.25500000000E-02 0. -1.
         -2   -1    0    0    0  501 -0.00000000000E+00 -0.00000000000E+00 -0.66085952147E+03  0.66085952147E+03  0.25500000000E-02 0.  1.
    8880023    1    1    2    0    0 -0.15023008887E+03 -0.12380196658E+03 -0.47586670902E+03  0.83555690264E+03  0.65864270000E+03 0.  1.
    8880022    1    1    2    0    0  0.15023008887E+03  0.12380196658E+03  0.29713016365E+04  0.29815970678E+04  0.15294330000E+03 0.  0.
<mgrwt>
<rscale>  0 0.53216766E+03</rscale>
<asrwt>0</asrwt>
<pdfrwt beam="1">  1        2 0.48558377E+00 0.68680872E+03</pdfrwt>
<pdfrwt beam="2">  1       -2 0.10167069E+00 0.68680872E+03</pdfrwt>
<totfact> 0.11984252E+00</totfact>
</mgrwt>
</event>
<event>
 4    1  0.1998832E-007  0.1013298E+04  0.7818608E-02  0.9364363E-01
         -2   -1    0    0    0  501 -0.00000000000E+00  0.00000000000E+00  0.91278356230E+03  0.91278356230E+03  0.25500000000E-02 0.  1.
          2   -1    0    0  501    0  0.00000000000E+00 -0.00000000000E+00 -0.89211425410E+03  0.89211425410E+03  0.25500000000E-02 0. -1.
    8880023    1    1    2    0    0 -0.32720003866E+03 -0.69706706494E+03 -0.63683206776E+02  0.10152970577E+04  0.65864270000E+03 0. -1.
    8880022    1    1    2    0    0  0.32720003866E+03  0.69706706494E+03  0.84352514977E+02  0.78960075869E+03  0.15294330000E+03 0.  1.
<mgrwt>
<rscale>  0 0.95067402E+03</rscale>
<asrwt>0</asrwt>
<pdfrwt beam="1">  1        2 0.13724835E+00 0.10132979E+04</pdfrwt>
<pdfrwt beam="2">  1       -2 0.14042824E+00 0.10132979E+04</pdfrwt>
<totfact> 0.10479248E+01</totfact>
</mgrwt>
</event>
<event>
 4    1  0.1998832E-007  0.7734610E+03  0.7818608E-02  0.9771427E-01
          2   -1    0    0  501    0  0.00000000000E+00  0.00000000000E+00  0.25395832037E+04  0.25395832037E+04  0.25500000000E-02 0. -1.
         -2   -1    0    0    0  501 -0.00000000000E+00 -0.00000000000E+00 -0.16060597151E+03  0.16060597153E+03  0.25500000000E-02 0.  1.
    8880023    1    1    2    0    0 -0.39140939035E+03  0.10597380568E+03  0.10624942498E+04  0.13142054617E+04  0.65864270000E+03 0.  0.
    8880022    1    1    2    0    0  0.39140939035E+03 -0.10597380568E+03  0.13164829824E+04  0.13859837136E+04  0.15294330000E+03 0.  0.
<mgrwt>
<rscale>  0 0.66918707E+03</rscale>
<asrwt>0</asrwt>
<pdfrwt beam="1">  1        2 0.39070508E+00 0.77346103E+03</pdfrwt>
<pdfrwt beam="2">  1       -2 0.24708613E-01 0.77346103E+03</pdfrwt>
<totfact> 0.50201314E+01</totfact>
</mgrwt>
</event>
<event>
 4    1  0.1998832E-007  0.1390297E+04  0.7818608E-02  0.8991259E-01
          2   -1    0    0  501    0  0.00000000000E+00  0.00000000000E+00  0.45168213773E+04  0.45168213773E+04  0.25500000000E-02 0. -1.
         -2   -1    0    0    0  501 -0.00000000000E+00 -0.00000000000E+00 -0.38744770320E+03  0.38744770320E+03  0.25500000000E-02 0.  1.
    8880023    1    1    2    0    0 -0.32139261159E+03  0.11814490149E+04  0.18737365830E+04  0.23331982287E+04  0.65864270000E+03 0.  0.
    8880022    1    1    2    0    0  0.32139261159E+03 -0.11814490149E+04  0.22556370911E+04  0.25710708519E+04  0.15294330000E+03 0.  0.
<mgrwt>
<rscale>  0 0.13494306E+04</rscale>
<asrwt>0</asrwt>
<pdfrwt beam="1">  1        2 0.69489561E+00 0.13902968E+04</pdfrwt>
<pdfrwt beam="2">  1       -2 0.59607338E-01 0.13902968E+04</pdfrwt>
<totfact> 0.31298313E-01</totfact>
</mgrwt>
</event>
<event>
 4    1  0.1998832E-007  0.7525600E+03  0.7818608E-02  0.9824764E-01
          2   -1    0    0  501    0  0.00000000000E+00  0.00000000000E+00  0.12406763907E+04  0.12406763907E+04  0.25500000000E-02 0. -1.
         -2   -1    0    0    0  501 -0.00000000000E+00 -0.00000000000E+00 -0.32144314221E+03  0.32144314222E+03  0.25500000000E-02 0.  1.
    8880023    1    1    2    0    0 -0.19955476874E+03 -0.30449010437E+03  0.26481004983E+03  0.79779126226E+03  0.65864270000E+03 0.  0.
    8880022    1    1    2    0    0  0.19955476874E+03  0.30449010437E+03  0.65442319864E+03  0.76432827065E+03  0.15294330000E+03 0.  0.
<mgrwt>
<rscale>  0 0.64050327E+03</rscale>
<asrwt>0</asrwt>
<pdfrwt beam="1">  1        2 0.19087329E+00 0.75255999E+03</pdfrwt>
<pdfrwt beam="2">  1       -2 0.49452791E-01 0.75255999E+03</pdfrwt>
<totfact> 0.70497226E+01</totfact>
</mgrwt>
</event>
<event>
 4    1  0.1998832E-007  0.9592423E+03  0.7818608E-02  0.9436939E-01
         -2   -1    0    0    0  501 -0.00000000000E+00  0.00000000000E+00  0.13731158503E+04  0.13731158503E+04  0.25500000000E-02 0.  1.
          2   -1    0    0  501    0  0.00000000000E+00 -0.00000000000E+00 -0.13577624410E+04  0.13577624410E+04  0.25500000000E-02 0. -1.
    8880023    1    1    2    0    0 -0.49608475237E+03 -0.49013815326E+03  0.10828605710E+04  0.14466280494E+04  0.65864270000E+03 0.  0.
    8880022    1    1    2    0    0  0.49608475237E+03  0.49013815326E+03 -0.10675071617E+04  0.12842502420E+04  0.15294330000E+03 0.  0.
<mgrwt>
<rscale>  0 0.89097075E+03</rscale>
<asrwt>0</asrwt>
<pdfrwt beam="1">  1        2 0.20888653E+00 0.95924225E+03</pdfrwt>
<pdfrwt beam="2">  1       -2 0.21124859E+00 0.95924225E+03</pdfrwt>
<totfact> 0.17183968E+00</totfact>
</mgrwt>
</event>
<event>
 4    1  0.1998832E-007  0.9522443E+03  0.7818608E-02  0.9446892E-01
         -2   -1    0    0    0  501 -0.00000000000E+00  0.00000000000E+00  0.46262224061E+03  0.46262224062E+03  0.25500000000E-02 0.  1.
          2   -1    0    0  501    0  0.00000000000E+00 -0.00000000000E+00 -0.19478554545E+04  0.19478554545E+04  0.25500000000E-02 0. -1.
    8880023    1    1    2    0    0 -0.43151167127E+03  0.53549666268E+03 -0.24362894808E+03  0.98291620640E+03  0.65864270000E+03 0. -1.
    8880022    1    1    2    0    0  0.43151167127E+03 -0.53549666268E+03 -0.12416042658E+04  0.14275614887E+04  0.15294330000E+03 0.  0.
<mgrwt>
<rscale>  0 0.88315079E+03</rscale>
<asrwt>0</asrwt>
<pdfrwt beam="1">  1        2 0.29967007E+00 0.95224430E+03</pdfrwt>
<pdfrwt beam="2">  1       -2 0.71172653E-01 0.95224430E+03</pdfrwt>
<totfact> 0.12898843E+01</totfact>
</mgrwt>
</event>
<event>
 4    1  0.1998832E-007  0.1093983E+04  0.7818608E-02  0.9267785E-01
         -2   -1    0    0    0  501 -0.00000000000E+00  0.00000000000E+00  0.10955818181E+04  0.10955818181E+04  0.25500000000E-02 0.  1.
          2   -1    0    0  501    0  0.00000000000E+00 -0.00000000000E+00 -0.18185561544E+04  0.18185561544E+04  0.25500000000E-02 0. -1.
    8880023    1    1    2    0    0 -0.48707007704E+03 -0.72508653367E+03  0.65529865756E+03  0.12752310685E+04  0.65864270000E+03 0.  0.
    8880022    1    1    2    0    0  0.48707007704E+03  0.72508653367E+03 -0.13782729939E+04  0.16389069040E+04  0.15294330000E+03 0.  0.
<mgrwt>
<rscale>  0 0.10380346E+04</rscale>
<asrwt>0</asrwt>
<pdfrwt beam="1">  1        2 0.27977787E+00 0.10939826E+04</pdfrwt>
<pdfrwt beam="2">  1       -2 0.16855105E+00 0.10939826E+04</pdfrwt>
<totfact> 0.18087810E+00</totfact>
</mgrwt>
</event>
<event>
 4    1  0.1998832E-007  0.6876894E+03  0.7818608E-02  0.1005271E+00
          2   -1    0    0  501    0  0.00000000000E+00  0.00000000000E+00  0.31041598909E+04  0.31041598909E+04  0.25500000000E-02 0. -1.
         -2   -1    0    0    0  501 -0.00000000000E+00 -0.00000000000E+00 -0.10136023594E+03  0.10136023597E+03  0.25500000000E-02 0.  1.
    8880023    1    1    2    0    0  0.19579770919E+03  0.27743422366E+02  0.11808609930E+04  0.13665099091E+04  0.65864270000E+03 0.  1.
    8880022    1    1    2    0    0 -0.19579770919E+03 -0.27743422366E+02  0.18219386619E+04  0.18390102178E+04  0.15294330000E+03 0.  0.
<mgrwt>
<rscale>  0 0.53398317E+03</rscale>
<asrwt>0</asrwt>
<pdfrwt beam="1">  1        2 0.47756305E+00 0.68768935E+03</pdfrwt>
<pdfrwt beam="2">  1       -2 0.15593883E-01 0.68768935E+03</pdfrwt>
<totfact> 0.52462453E+01</totfact>
</mgrwt>
</event>
<event>
 4    1  0.1998832E-007  0.8708275E+03  0.7818608E-02  0.9574586E-01
          2   -1    0    0  501    0  0.00000000000E+00  0.00000000000E+00  0.22464685358E+04  0.22464685358E+04  0.25500000000E-02 0. -1.
         -2   -1    0    0    0  501 -0.00000000000E+00 -0.00000000000E+00 -0.11185365581E+04  0.11185365581E+04  0.25500000000E-02 0.  1.
    8880023    1    1    2    0    0  0.16961959494E+03 -0.54383778575E+03 -0.90041574542E+03  0.12526328533E+04  0.65864270000E+03 0.  0.
    8880022    1    1    2    0    0 -0.16961959494E+03  0.54383778575E+03  0.20283477231E+04  0.21123722406E+04  0.15294330000E+03 0.  0.
<mgrwt>
<rscale>  0 0.79001319E+03</rscale>
<asrwt>0</asrwt>
<pdfrwt beam="1">  1        2 0.34561053E+00 0.87082751E+03</pdfrwt>
<pdfrwt beam="2">  1       -2 0.17208255E+00 0.87082751E+03</pdfrwt>
<totfact> 0.10242079E+00</totfact>
</mgrwt>
</event>
<event>
 4    1  0.1998832E-007  0.6994126E+03  0.7818608E-02  0.9999647E-01
         -2   -1    0    0    0  501 -0.00000000000E+00  0.00000000000E+00  0.70615270122E+03  0.70615270122E+03  0.25500000000E-02 0.  1.
          2   -1    0    0  501    0  0.00000000000E+00 -0.00000000000E+00 -0.67563203960E+03  0.67563203960E+03  0.25500000000E-02 0. -1.
    8880023    1    1    2    0    0  0.19151341179E+03 -0.13671286879E+03  0.48254843631E+03  0.84972406994E+03  0.65864270000E+03 0.  1.
    8880022    1    1    2    0    0 -0.19151341179E+03  0.13671286879E+03 -0.45202777469E+03  0.53206067088E+03  0.15294330000E+03 0.  0.
<mgrwt>
<rscale>  0 0.55665732E+03</rscale>
<asrwt>0</asrwt>
<pdfrwt beam="1">  1        2 0.10394339E+00 0.69941261E+03</pdfrwt>
<pdfrwt beam="2">  1       -2 0.10863888E+00 0.69941261E+03</pdfrwt>
<totfact> 0.29527766E+01</totfact>
</mgrwt>
</event>
<event>
 4    1  0.1998832E-007  0.7400089E+03  0.7818608E-02  0.9859921E-01
          2   -1    0    0  501    0  0.00000000000E+00  0.00000000000E+00  0.26990300478E+04  0.26990300478E+04  0.25500000000E-02 0. -1.
         -2   -1    0    0    0  501 -0.00000000000E+00 -0.00000000000E+00 -0.23498044286E+03  0.23498044288E+03  0.25500000000E-02 0.  1.
    8880023    1    1    2    0    0 -0.27513113732E+03 -0.19520714100E+03  0.40833369660E+03  0.84519204011E+03  0.65864270000E+03 0.  0.
    8880022    1    1    2    0    0  0.27513113732E+03  0.19520714100E+03  0.20557159083E+04  0.20888184505E+04  0.15294330000E+03 0.  0.
<mgrwt>
<rscale>  0 0.62243620E+03</rscale>
<asrwt>0</asrwt>
<pdfrwt beam="1">  1        2 0.41523538E+00 0.74000890E+03</pdfrwt>
<pdfrwt beam="2">  1       -2 0.36150838E-01 0.74000890E+03</pdfrwt>
<totfact> 0.20146284E+01</totfact>
</mgrwt>
</event>
<event>
 4    1  0.1998832E-007  0.8915854E+03  0.7818608E-02  0.9539677E-01
          2   -1    0    0  501    0  0.00000000000E+00  0.00000000000E+00  0.22716553283E+04  0.22716553283E+04  0.25500000000E-02 0. -1.
         -2   -1    0    0    0  501 -0.00000000000E+00 -0.00000000000E+00 -0.31937284326E+03  0.31937284327E+03  0.25500000000E-02 0.  1.
    8880023    1    1    2    0    0 -0.50570718680E+03  0.32461449286E+03  0.52453122828E+03  0.10344358576E+04  0.65864270000E+03 0.  0.
    8880022    1    1    2    0    0  0.50570718680E+03 -0.32461449286E+03  0.14277512568E+04  0.15565923140E+04  0.15294330000E+03 0.  0.
<mgrwt>
<rscale>  0 0.81420750E+03</rscale>
<asrwt>0</asrwt>
<pdfrwt beam="1">  1        2 0.34948543E+00 0.89158540E+03</pdfrwt>
<pdfrwt beam="2">  1       -2 0.49134284E-01 0.89158540E+03</pdfrwt>
<totfact> 0.18832219E+01</totfact>
</mgrwt>
</event>
<event>
 4    1  0.1998832E-007  0.9492326E+03  0.7818608E-02  0.9451219E-01
          2   -1    0    0  501    0  0.00000000000E+00  0.00000000000E+00  0.10174686670E+04  0.10174686670E+04  0.25500000000E-02 0. -1.
         -2   -1    0    0    0  501 -0.00000000000E+00 -0.00000000000E+00 -0.10559708450E+04  0.10559708450E+04  0.25500000000E-02 0.  1.
    8880023    1    1    2    0    0  0.21225139024E+03 -0.64975512258E+03 -0.64440040209E+03  0.11472987651E+04  0.65864270000E+03 0.  0.
    8880022    1    1    2    0    0 -0.21225139024E+03  0.64975512258E+03  0.60589822417E+03  0.92614074689E+03  0.15294330000E+03 0.  0.
<mgrwt>
<rscale>  0 0.87977799E+03</rscale>
<asrwt>0</asrwt>
<pdfrwt beam="1">  1        2 0.15653364E+00 0.94923263E+03</pdfrwt>
<pdfrwt beam="2">  1       -2 0.16245705E+00 0.94923263E+03</pdfrwt>
<totfact> 0.59086305E+00</totfact>
</mgrwt>
</event>
<event>
 4    1  0.1998832E-007  0.9767861E+03  0.7818608E-02  0.9412579E-01
         -2   -1    0    0    0  501 -0.00000000000E+00  0.00000000000E+00  0.18925736908E+04  0.18925736908E+04  0.25500000000E-02 0.  1.
          2   -1    0    0  501    0  0.00000000000E+00 -0.00000000000E+00 -0.97302332177E+03  0.97302332178E+03  0.25500000000E-02 0. -1.
    8880023    1    1    2    0    0  0.10934935575E+03 -0.71298224947E+03  0.15919251642E+04  0.18677089989E+04  0.65864270000E+03 0.  0.
    8880022    1    1    2    0    0 -0.10934935575E+03  0.71298224947E+03 -0.67237479521E+03  0.99788801371E+03  0.15294330000E+03 0.  0.
<mgrwt>
<rscale>  0 0.91047662E+03</rscale>
<asrwt>0</asrwt>
<pdfrwt beam="1">  1        2 0.14969589E+00 0.97678615E+03</pdfrwt>
<pdfrwt beam="2">  1       -2 0.29116519E+00 0.97678615E+03</pdfrwt>
<totfact> 0.94942195E-01</totfact>
</mgrwt>
</event>
<event>
 4    1  0.1998832E-007  0.7983330E+03  0.7818608E-02  0.9714412E-01
          2   -1    0    0  501    0  0.00000000000E+00  0.00000000000E+00  0.19175070136E+04  0.19175070136E+04  0.25500000000E-02 0. -1.
         -2   -1    0    0    0  501 -0.00000000000E+00 -0.00000000000E+00 -0.78594070132E+03  0.78594070133E+03  0.25500000000E-02 0.  1.
    8880023    1    1    2    0    0 -0.23087395724E+03 -0.38758566763E+03 -0.54099683952E+03  0.96437193059E+03  0.65864270000E+03 0.  0.
    8880022    1    1    2    0    0  0.23087395724E+03  0.38758566763E+03  0.16725631518E+04  0.17390757843E+04  0.15294330000E+03 0.  0.
<mgrwt>
<rscale>  0 0.70165153E+03</rscale>
<asrwt>0</asrwt>
<pdfrwt beam="1">  1        2 0.29500108E+00 0.79833304E+03</pdfrwt>
<pdfrwt beam="2">  1       -2 0.12091396E+00 0.79833304E+03</pdfrwt>
<totfact> 0.39709831E+00</totfact>
</mgrwt>
</event>
<event>
 4    1  0.1998832E-007  0.1380051E+04  0.7818608E-02  0.8999341E-01
          2   -1    0    0  501    0  0.00000000000E+00  0.00000000000E+00  0.22908040828E+04  0.22908040828E+04  0.25500000000E-02 0. -1.
         -2   -1    0    0    0  501 -0.00000000000E+00 -0.00000000000E+00 -0.83190951745E+03  0.83190951746E+03  0.25500000000E-02 0.  1.
    8880023    1    1    2    0    0 -0.73104824004E+03  0.96762551164E+03  0.24804064912E+03  0.14021644090E+04  0.65864270000E+03 0.  0.
    8880022    1    1    2    0    0  0.73104824004E+03 -0.96762551164E+03  0.12108539163E+04  0.17205491913E+04  0.15294330000E+03 0.  0.
<mgrwt>
<rscale>  0 0.13388121E+04</rscale>
<asrwt>0</asrwt>
<pdfrwt beam="1">  1        2 0.35243140E+00 0.13800510E+04</pdfrwt>
<pdfrwt beam="2">  1       -2 0.12798608E+00 0.13800510E+04</pdfrwt>
<totfact> 0.19877641E+00</totfact>
</mgrwt>
</event>
<event>
 4    1  0.1998832E-007  0.8984009E+03  0.7818608E-02  0.9528604E-01
          2   -1    0    0  501    0  0.00000000000E+00  0.00000000000E+00  0.23372910467E+04  0.23372910467E+04  0.25500000000E-02 0. -1.
         -2   -1    0    0    0  501 -0.00000000000E+00 -0.00000000000E+00 -0.55586283681E+03  0.55586283682E+03  0.25500000000E-02 0.  1.
    8880023    1    1    2    0    0 -0.58998753281E+03 -0.15883512347E+03 -0.10484977334E+03  0.90449851661E+03  0.65864270000E+03 0.  0.
    8880022    1    1    2    0    0  0.58998753281E+03  0.15883512347E+03  0.18862779833E+04  0.19886553669E+04  0.15294330000E+03 0.  0.
<mgrwt>
<rscale>  0 0.82207445E+03</rscale>
<asrwt>0</asrwt>
<pdfrwt beam="1">  1        2 0.35958323E+00 0.89840085E+03</pdfrwt>
<pdfrwt beam="2">  1       -2 0.85517360E-01 0.89840085E+03</pdfrwt>
<totfact> 0.52374210E+00</totfact>
</mgrwt>
</event>
<event>
 4    1  0.1998832E-007  0.6959514E+03  0.7818608E-02  0.1001443E+00
          2   -1    0    0  501    0  0.00000000000E+00  0.00000000000E+00  0.25236358753E+04  0.25236358753E+04  0.25500000000E-02 0. -1.
         -2   -1    0    0    0  501 -0.00000000000E+00 -0.00000000000E+00 -0.18033278443E+03  0.18033278445E+03  0.25500000000E-02 0.  1.
    8880023    1    1    2    0    0 -0.67358255566E+02 -0.21447833421E+03  0.54159085653E+03  0.88185540344E+03  0.65864270000E+03 0.  1.
    8880022    1    1    2    0    0  0.67358255566E+02  0.21447833421E+03  0.18017122344E+04  0.18221132563E+04  0.15294330000E+03 0.  0.
<mgrwt>
<rscale>  0 0.55022025E+03</rscale>
<asrwt>0</asrwt>
<pdfrwt beam="1">  1        2 0.38825169E+00 0.69595136E+03</pdfrwt>
<pdfrwt beam="2">  1       -2 0.27743504E-01 0.69595136E+03</pdfrwt>
<totfact> 0.41982686E+01</totfact>
</mgrwt>
</event>
<event>
 4    1  0.1998832E-007  0.7223393E+03  0.7818608E-02  0.9914749E-01
         -2   -1    0    0    0  501 -0.00000000000E+00  0.00000000000E+00  0.28130743184E+03  0.28130743185E+03  0.25500000000E-02 0.  1.
          2   -1    0    0  501    0  0.00000000000E+00 -0.00000000000E+00 -0.17024484212E+04  0.17024484212E+04  0.25500000000E-02 0. -1.
    8880023    1    1    2    0    0  0.11791182668E+03  0.27214092104E+03 -0.24744931316E+03  0.76354780375E+03  0.65864270000E+03 0.  0.
    8880022    1    1    2    0    0 -0.11791182668E+03 -0.27214092104E+03 -0.11736916762E+04  0.12202080493E+04  0.15294330000E+03 0.  0.
<mgrwt>
<rscale>  0 0.59551803E+03</rscale>
<asrwt>0</asrwt>
<pdfrwt beam="1">  1        2 0.26191513E+00 0.72233932E+03</pdfrwt>
<pdfrwt beam="2">  1       -2 0.43278068E-01 0.72233932E+03</pdfrwt>
<totfact> 0.50872616E+01</totfact>
</mgrwt>
</event>
<event>
 4    1  0.1998832E-007  0.1105808E+04  0.7818608E-02  0.9254617E-01
         -2   -1    0    0    0  501 -0.00000000000E+00  0.00000000000E+00  0.16646689003E+04  0.16646689003E+04  0.25500000000E-02 0.  1.
          2   -1    0    0  501    0  0.00000000000E+00 -0.00000000000E+00 -0.80262363625E+03  0.80262363625E+03  0.25500000000E-02 0. -1.
    8880023    1    1    2    0    0  0.88775444805E+03 -0.29889346407E+02  0.10738452623E+04  0.15414133731E+04  0.65864270000E+03 0.  0.
    8880022    1    1    2    0    0 -0.88775444805E+03  0.29889346407E+02 -0.21179999826E+03  0.92587916347E+03  0.15294330000E+03 0.  0.
<mgrwt>
<rscale>  0 0.10507045E+04</rscale>
<asrwt>0</asrwt>
<pdfrwt beam="1">  1        2 0.12348056E+00 0.11058081E+04</pdfrwt>
<pdfrwt beam="2">  1       -2 0.25610291E+00 0.11058081E+04</pdfrwt>
<totfact> 0.19942390E+00</totfact>
</mgrwt>
</event>
<event>
 4    1  0.1998832E-007  0.6964743E+03  0.7818608E-02  0.1001215E+00
         -2   -1    0    0    0  501 -0.00000000000E+00  0.00000000000E+00  0.27141043379E+03  0.27141043381E+03  0.25500000000E-02 0.  1.
          2   -1    0    0  501    0  0.00000000000E+00 -0.00000000000E+00 -0.15087929936E+04  0.15087929936E+04  0.25500000000E-02 0. -1.
    8880023    1    1    2    0    0  0.75353697979E+02  0.21351348645E+03 -0.22548599797E+03  0.73206579639E+03  0.65864270000E+03 0.  1.
    8880022    1    1    2    0    0 -0.75353697979E+02 -0.21351348645E+03 -0.10118965618E+04  0.10481376310E+04  0.15294330000E+03 0.  0.
<mgrwt>
<rscale>  0 0.55120511E+03</rscale>
<asrwt>0</asrwt>
<pdfrwt beam="1">  1        2 0.23212200E+00 0.69647426E+03</pdfrwt>
<pdfrwt beam="2">  1       -2 0.41755452E-01 0.69647426E+03</pdfrwt>
<totfact> 0.69972331E+01</totfact>
</mgrwt>
</event>
<event>
 4    1  0.1998832E-007  0.9153024E+03  0.7818608E-02  0.9501900E-01
          2   -1    0    0  501    0  0.00000000000E+00  0.00000000000E+00  0.14465852325E+04  0.14465852325E+04  0.25500000000E-02 0. -1.
         -2   -1    0    0    0  501 -0.00000000000E+00 -0.00000000000E+00 -0.10328049530E+04  0.10328049530E+04  0.25500000000E-02 0.  1.
    8880023    1    1    2    0    0  0.42489813603E+03 -0.47268357633E+03 -0.72410006391E+03  0.11670900986E+04  0.65864270000E+03 0.  1.
    8880022    1    1    2    0    0 -0.42489813603E+03  0.47268357633E+03  0.11378803434E+04  0.13123000870E+04  0.15294330000E+03 0.  0.
<mgrwt>
<rscale>  0 0.84143902E+03</rscale>
<asrwt>0</asrwt>
<pdfrwt beam="1">  1        2 0.22255157E+00 0.91530235E+03</pdfrwt>
<pdfrwt beam="2">  1       -2 0.15889307E+00 0.91530235E+03</pdfrwt>
<totfact> 0.35027854E+00</totfact>
</mgrwt>
</event>
<event>
 4    1  0.1998832E-007  0.7107442E+03  0.7818608E-02  0.9955248E-01
          2   -1    0    0  501    0  0.00000000000E+00  0.00000000000E+00  0.21367046204E+04  0.21367046204E+04  0.25500000000E-02 0. -1.
         -2   -1    0    0    0  501 -0.00000000000E+00 -0.00000000000E+00 -0.12150496226E+03  0.12150496229E+03  0.25500000000E-02 0.  1.
    8880023    1    1    2    0    0 -0.26439622169E+03 -0.37969981928E+02  0.13727494000E+04  0.15458325275E+04  0.65864270000E+03 0. -1.
    8880022    1    1    2    0    0  0.26439622169E+03  0.37969981928E+02  0.64245025810E+03  0.71237705516E+03  0.15294330000E+03 0.  1.
<mgrwt>
<rscale>  0 0.57656853E+03</rscale>
<asrwt>0</asrwt>
<pdfrwt beam="1">  1        2 0.32872377E+00 0.71074418E+03</pdfrwt>
<pdfrwt beam="2">  1       -2 0.18693072E-01 0.71074418E+03</pdfrwt>
<totfact> 0.13892646E+02</totfact>
</mgrwt>
</event>
<event>
 4    1  0.1998832E-007  0.7479053E+03  0.7818608E-02  0.9837490E-01
          2   -1    0    0  501    0  0.00000000000E+00  0.00000000000E+00  0.10068742733E+04  0.10068742733E+04  0.25500000000E-02 0. -1.
         -2   -1    0    0    0  501 -0.00000000000E+00 -0.00000000000E+00 -0.57790345661E+03  0.57790345662E+03  0.25500000000E-02 0.  1.
    8880023    1    1    2    0    0 -0.76251254830E+02 -0.34603162788E+03 -0.26271806254E+03  0.79270620535E+03  0.65864270000E+03 0.  1.
    8880022    1    1    2    0    0  0.76251254830E+02  0.34603162788E+03  0.69168887918E+03  0.79207152452E+03  0.15294330000E+03 0.  0.
<mgrwt>
<rscale>  0 0.63388834E+03</rscale>
<asrwt>0</asrwt>
<pdfrwt beam="1">  1        2 0.15490373E+00 0.74790531E+03</pdfrwt>
<pdfrwt beam="2">  1       -2 0.88908225E-01 0.74790531E+03</pdfrwt>
<totfact> 0.27549805E+01</totfact>
</mgrwt>
</event>
<event>
 4    1  0.1998832E-007  0.7418362E+03  0.7818608E-02  0.9854630E-01
          2   -1    0    0  501    0  0.00000000000E+00  0.00000000000E+00  0.11452651290E+04  0.11452651290E+04  0.25500000000E-02 0. -1.
         -2   -1    0    0    0  501 -0.00000000000E+00 -0.00000000000E+00 -0.11352416544E+04  0.11352416544E+04  0.25500000000E-02 0.  1.
    8880023    1    1    2    0    0 -0.24619182736E+03 -0.23643256238E+03 -0.97599830959E+03  0.12259256417E+04  0.65864270000E+03 0.  1.
    8880022    1    1    2    0    0  0.24619182736E+03  0.23643256238E+03  0.98602178425E+03  0.10545811417E+04  0.15294330000E+03 0.  0.
<mgrwt>
<rscale>  0 0.62511394E+03</rscale>
<asrwt>0</asrwt>
<pdfrwt beam="1">  1        2 0.17619464E+00 0.74183622E+03</pdfrwt>
<pdfrwt beam="2">  1       -2 0.17465256E+00 0.74183622E+03</pdfrwt>
<totfact> 0.41349872E+00</totfact>
</mgrwt>
</event>
<event>
 4    1  0.1998832E-007  0.8854211E+03  0.7818608E-02  0.9549853E-01
         -2   -1    0    0    0  501 -0.00000000000E+00  0.00000000000E+00  0.61678077226E+03  0.61678077227E+03  0.25500000000E-02 0.  1.
          2   -1    0    0  501    0  0.00000000000E+00 -0.00000000000E+00 -0.20547304756E+04  0.20547304756E+04  0.25500000000E-02 0. -1.
    8880023    1    1    2    0    0 -0.46196777485E+03  0.36979188954E+03  0.21332403234E+03  0.91075661711E+03  0.65864270000E+03 0.  1.
    8880022    1    1    2    0    0  0.46196777485E+03 -0.36979188954E+03 -0.16512737357E+04  0.17607546308E+04  0.15294330000E+03 0.  0.
<mgrwt>
<rscale>  0 0.80706081E+03</rscale>
<asrwt>0</asrwt>
<pdfrwt beam="1">  1        2 0.31611238E+00 0.88542107E+03</pdfrwt>
<pdfrwt beam="2">  1       -2 0.94889350E-01 0.88542107E+03</pdfrwt>
<totfact> 0.59164571E+00</totfact>
</mgrwt>
</event>
<event>
 4    1  0.1998832E-007  0.1838742E+04  0.7818608E-02  0.8701403E-01
          2   -1    0    0  501    0  0.00000000000E+00  0.00000000000E+00  0.24533232662E+04  0.24533232662E+04  0.25500000000E-02 0. -1.
         -2   -1    0    0    0  501 -0.00000000000E+00 -0.00000000000E+00 -0.14995939229E+04  0.14995939229E+04  0.25500000000E-02 0.  1.
    8880023    1    1    2    0    0 -0.20546383445E+03 -0.17043903874E+04  0.12232185610E+04  0.22084464753E+04  0.65864270000E+03 0.  0.
    8880022    1    1    2    0    0  0.20546383445E+03  0.17043903874E+04 -0.26948921772E+03  0.17444707138E+04  0.15294330000E+03 0.  0.
<mgrwt>
<rscale>  0 0.18092362E+04</rscale>
<asrwt>0</asrwt>
<pdfrwt beam="1">  1        2 0.37743434E+00 0.18387420E+04</pdfrwt>
<pdfrwt beam="2">  1       -2 0.23070676E+00 0.18387420E+04</pdfrwt>
<totfact> 0.28381608E-01</totfact>
</mgrwt>
</event>
<event>
 4    1  0.1998832E-007  0.8979575E+03  0.7818608E-02  0.9529319E-01
          2   -1    0    0  501    0  0.00000000000E+00  0.00000000000E+00  0.13119316174E+04  0.13119316174E+04  0.25500000000E-02 0. -1.
         -2   -1    0    0    0  501 -0.00000000000E+00 -0.00000000000E+00 -0.47614753359E+03  0.47614753359E+03  0.25500000000E-02 0.  1.
    8880023    1    1    2    0    0  0.14106807642E+03  0.59381581019E+03  0.25914656890E+03  0.93460396375E+03  0.65864270000E+03 0.  0.
    8880022    1    1    2    0    0 -0.14106807642E+03 -0.59381581019E+03  0.57663751488E+03  0.85347518722E+03  0.15294330000E+03 0.  0.
<mgrwt>
<rscale>  0 0.82156373E+03</rscale>
<asrwt>0</asrwt>
<pdfrwt beam="1">  1        2 0.20183563E+00 0.89795747E+03</pdfrwt>
<pdfrwt beam="2">  1       -2 0.73253466E-01 0.89795747E+03</pdfrwt>
<totfact> 0.27518369E+01</totfact>
</mgrwt>
</event>
<event>
 4    1  0.1998832E-007  0.7487155E+03  0.7818608E-02  0.9835250E-01
         -2   -1    0    0    0  501 -0.00000000000E+00  0.00000000000E+00  0.37996067430E+03  0.37996067431E+03  0.25500000000E-02 0.  1.
          2   -1    0    0  501    0  0.00000000000E+00 -0.00000000000E+00 -0.11074435373E+04  0.11074435373E+04  0.25500000000E-02 0. -1.
    8880023    1    1    2    0    0  0.10136904257E+03 -0.34130493124E+03 -0.10765364879E+03  0.75641539728E+03  0.65864270000E+03 0.  1.
    8880022    1    1    2    0    0 -0.10136904257E+03  0.34130493124E+03 -0.61982921419E+03  0.73098881432E+03  0.15294330000E+03 0.  0.
<mgrwt>
<rscale>  0 0.63504662E+03</rscale>
<asrwt>0</asrwt>
<pdfrwt beam="1">  1        2 0.17037593E+00 0.74871553E+03</pdfrwt>
<pdfrwt beam="2">  1       -2 0.58455489E-01 0.74871553E+03</pdfrwt>
<totfact> 0.59953155E+01</totfact>
</mgrwt>
</event>
<event>
 4    1  0.1998832E-007  0.6956389E+03  0.7818608E-02  0.1001580E+00
          2   -1    0    0  501    0  0.00000000000E+00  0.00000000000E+00  0.19397711865E+04  0.19397711865E+04  0.25500000000E-02 0. -1.
         -2   -1    0    0    0  501 -0.00000000000E+00 -0.00000000000E+00 -0.70560891015E+03  0.70560891015E+03  0.25500000000E-02 0.  1.
    8880023    1    1    2    0    0 -0.21096052048E+03  0.74825567788E+02 -0.52118464286E+03  0.86922197684E+03  0.65864270000E+03 0.  1.
    8880022    1    1    2    0    0  0.21096052048E+03 -0.74825567788E+02  0.17553469192E+04  0.17761581198E+04  0.15294330000E+03 0.  0.
<mgrwt>
<rscale>  0 0.54962945E+03</rscale>
<asrwt>0</asrwt>
<pdfrwt beam="1">  1        2 0.29842633E+00 0.69563885E+03</pdfrwt>
<pdfrwt beam="2">  1       -2 0.10855522E+00 0.69563885E+03</pdfrwt>
<totfact> 0.51124063E+00</totfact>
</mgrwt>
</event>
<event>
 4    1  0.1998832E-007  0.6717499E+03  0.7818608E-02  0.1014438E+00
         -2   -1    0    0    0  501 -0.00000000000E+00  0.00000000000E+00  0.86773920246E+03  0.86773920246E+03  0.25500000000E-02 0.  1.
          2   -1    0    0  501    0  0.00000000000E+00 -0.00000000000E+00 -0.40553771345E+03  0.40553771345E+03  0.25500000000E-02 0. -1.
    8880023    1    1    2    0    0  0.15721135795E+02 -0.13111261550E+03  0.69394014849E+03  0.96581613571E+03  0.65864270000E+03 0.  1.
    8880022    1    1    2    0    0 -0.15721135795E+02  0.13111261550E+03 -0.23173865947E+03  0.30746078020E+03  0.15294330000E+03 0.  0.
<mgrwt>
<rscale>  0 0.49748182E+03</rscale>
<asrwt>0</asrwt>
<pdfrwt beam="1">  1        2 0.62390418E-01 0.67174986E+03</pdfrwt>
<pdfrwt beam="2">  1       -2 0.13349834E+00 0.67174986E+03</pdfrwt>
<totfact> 0.32354712E+01</totfact>
</mgrwt>
</event>
<event>
 4    1  0.1998832E-007  0.8148113E+03  0.7818608E-02  0.9679641E-01
          2   -1    0    0  501    0  0.00000000000E+00  0.00000000000E+00  0.98322123847E+03  0.98322123847E+03  0.25500000000E-02 0. -1.
         -2   -1    0    0    0  501 -0.00000000000E+00 -0.00000000000E+00 -0.48153213150E+03  0.48153213151E+03  0.25500000000E-02 0.  1.
    8880023    1    1    2    0    0  0.47492019808E+03 -0.67513865977E+02  0.10052335092E+03  0.82098871307E+03  0.65864270000E+03 0.  0.
    8880022    1    1    2    0    0 -0.47492019808E+03  0.67513865977E+02  0.40116575605E+03  0.64376465691E+03  0.15294330000E+03 0.  0.
<mgrwt>
<rscale>  0 0.72242011E+03</rscale>
<asrwt>0</asrwt>
<pdfrwt beam="1">  1        2 0.15126480E+00 0.81481134E+03</pdfrwt>
<pdfrwt beam="2">  1       -2 0.74081867E-01 0.81481134E+03</pdfrwt>
<totfact> 0.42799958E+01</totfact>
</mgrwt>
</event>
<event>
 4    1  0.1998832E-007  0.9660810E+03  0.7818608E-02  0.9427345E-01
          2   -1    0    0  501    0  0.00000000000E+00  0.00000000000E+00  0.31015414307E+04  0.31015414307E+04  0.25500000000E-02 0. -1.
         -2   -1    0    0    0  501 -0.00000000000E+00 -0.00000000000E+00 -0.49370046977E+03  0.49370046977E+03  0.25500000000E-02 0.  1.
    8880023    1    1    2    0    0 -0.47290976232E+03  0.52522247775E+03  0.83854868937E+02  0.96971343176E+03  0.65864270000E+03 0.  0.
    8880022    1    1    2    0    0  0.47290976232E+03 -0.52522247775E+03  0.25239860920E+04  0.26255284687E+04  0.15294330000E+03 0.  0.
<mgrwt>
<rscale>  0 0.89859057E+03</rscale>
<asrwt>0</asrwt>
<pdfrwt beam="1">  1        2 0.47716021E+00 0.96608100E+03</pdfrwt>
<pdfrwt beam="2">  1       -2 0.75953920E-01 0.96608100E+03</pdfrwt>
<totfact> 0.24002376E+00</totfact>
</mgrwt>
</event>
<event>
 4    1  0.1998832E-007  0.8793306E+03  0.7818608E-02  0.9560062E-01
         -2   -1    0    0    0  501 -0.00000000000E+00  0.00000000000E+00  0.31712447227E+03  0.31712447228E+03  0.25500000000E-02 0.  1.
          2   -1    0    0  501    0  0.00000000000E+00 -0.00000000000E+00 -0.26282977122E+04  0.26282977122E+04  0.25500000000E-02 0. -1.
    8880023    1    1    2    0    0  0.31124256125E+02 -0.58175882524E+03 -0.44713807273E+03  0.98648604268E+03  0.65864270000E+03 0.  0.
    8880022    1    1    2    0    0 -0.31124256125E+02  0.58175882524E+03 -0.18640351672E+04  0.19589361418E+04  0.15294330000E+03 0.  0.
<mgrwt>
<rscale>  0 0.79996888E+03</rscale>
<asrwt>0</asrwt>
<pdfrwt beam="1">  1        2 0.40435348E+00 0.87933057E+03</pdfrwt>
<pdfrwt beam="2">  1       -2 0.48788382E-01 0.87933057E+03</pdfrwt>
<totfact> 0.12010665E+01</totfact>
</mgrwt>
</event>
<event>
 4    1  0.1998832E-007  0.1132363E+04  0.7818608E-02  0.9225852E-01
         -2   -1    0    0    0  501 -0.00000000000E+00  0.00000000000E+00  0.14472264032E+04  0.14472264032E+04  0.25500000000E-02 0.  1.
          2   -1    0    0  501    0  0.00000000000E+00 -0.00000000000E+00 -0.11205195904E+04  0.11205195904E+04  0.25500000000E-02 0. -1.
    8880023    1    1    2    0    0 -0.61174731113E+03 -0.68862229673E+03  0.92213386758E+03  0.14603343851E+04  0.65864270000E+03 0.  0.
    8880022    1    1    2    0    0  0.61174731113E+03  0.68862229673E+03 -0.59542705470E+03  0.11074116085E+04  0.15294330000E+03 0.  0.
<mgrwt>
<rscale>  0 0.10790536E+04</rscale>
<asrwt>0</asrwt>
<pdfrwt beam="1">  1        2 0.17238763E+00 0.11323629E+04</pdfrwt>
<pdfrwt beam="2">  1       -2 0.22265021E+00 0.11323629E+04</pdfrwt>
<totfact> 0.19697283E+00</totfact>
</mgrwt>
</event>
<event>
 4    1  0.2637595E-007  0.1496991E+04  0.7818608E-02  0.8911763E-01
         -2   -1    0    0    0  501 -0.00000000000E+00  0.00000000000E+00  0.16492538294E+04  0.16492538294E+04  0.25500000000E-02 0.  1.
          2   -1    0    0  501    0  0.00000000000E+00 -0.00000000000E+00 -0.35627724244E+04  0.35627724244E+04  0.25500000000E-02 0. -1.
    8880023    1    1    2    0    0  0.59986379109E+01 -0.13442977790E+04  0.11337727686E+04  0.18778773654E+04  0.65864270000E+03 0.  1.
    8880022    1    1    2    0    0 -0.59986379109E+01  0.13442977790E+04 -0.30472913636E+04  0.33341488884E+04  0.15294330000E+03 0.  0.
<mgrwt>
<rscale>  0 0.14596124E+04</rscale>
<asrwt>0</asrwt>
<pdfrwt beam="1">  1        2 0.54811883E+00 0.14969912E+04</pdfrwt>
<pdfrwt beam="2">  1       -2 0.25373136E+00 0.14969912E+04</pdfrwt>
<totfact> 0.42385181E-02</totfact>
</mgrwt>
</event>
<event>
 4    1  0.1998832E-007  0.1538791E+04  0.7818608E-02  0.8882719E-01
         -2   -1    0    0    0  501 -0.00000000000E+00  0.00000000000E+00  0.14869360774E+04  0.14869360774E+04  0.25500000000E-02 0.  1.
          2   -1    0    0  501    0  0.00000000000E+00 -0.00000000000E+00 -0.19630863151E+04  0.19630863151E+04  0.25500000000E-02 0. -1.
    8880023    1    1    2    0    0  0.13788769776E+04  0.18100969879E+03  0.63371500176E+03  0.16641728096E+04  0.65864270000E+03 0.  1.
    8880022    1    1    2    0    0 -0.13788769776E+04 -0.18100969879E+03 -0.11098652394E+04  0.17858495830E+04  0.15294330000E+03 0.  0.
<mgrwt>
<rscale>  0 0.15026097E+04</rscale>
<asrwt>0</asrwt>
<pdfrwt beam="1">  1        2 0.30201328E+00 0.15387906E+04</pdfrwt>
<pdfrwt beam="2">  1       -2 0.22875940E+00 0.15387906E+04</pdfrwt>
<totfact> 0.56967082E-01</totfact>
</mgrwt>
</event>
<event>
 4    1  0.1998832E-007  0.1008094E+04  0.7818608E-02  0.9371044E-01
          2   -1    0    0  501    0  0.00000000000E+00  0.00000000000E+00  0.20389420621E+04  0.20389420621E+04  0.25500000000E-02 0. -1.
         -2   -1    0    0    0  501 -0.00000000000E+00 -0.00000000000E+00 -0.59613076464E+03  0.59613076464E+03  0.25500000000E-02 0.  1.
    8880023    1    1    2    0    0  0.72606540238E+03 -0.23510098686E+03  0.14210975237E+02  0.10081942276E+04  0.65864270000E+03 0.  0.
    8880022    1    1    2    0    0 -0.72606540238E+03  0.23510098686E+03  0.14286003222E+04  0.16268785991E+04  0.15294330000E+03 0.  0.
<mgrwt>
<rscale>  0 0.94497452E+03</rscale>
<asrwt>0</asrwt>
<pdfrwt beam="1">  1        2 0.31368340E+00 0.10080941E+04</pdfrwt>
<pdfrwt beam="2">  1       -2 0.91712425E-01 0.10080941E+04</pdfrwt>
<totfact> 0.64347900E+00</totfact>
</mgrwt>
</event>
<event>
 4    1  0.1998832E-007  0.1107192E+04  0.7818608E-02  0.9253090E-01
          2   -1    0    0  501    0  0.00000000000E+00  0.00000000000E+00  0.14869407663E+04  0.14869407663E+04  0.25500000000E-02 0. -1.
         -2   -1    0    0    0  501 -0.00000000000E+00 -0.00000000000E+00 -0.19843512913E+04  0.19843512913E+04  0.25500000000E-02 0.  1.
    8880023    1    1    2    0    0 -0.85145118664E+03 -0.25902866373E+03 -0.16623617758E+04  0.19973286790E+04  0.65864270000E+03 0.  0.
    8880022    1    1    2    0    0  0.85145118664E+03  0.25902866373E+03  0.11649512508E+04  0.14739633786E+04  0.15294330000E+03 0.  0.
<mgrwt>
<rscale>  0 0.10521858E+04</rscale>
<asrwt>0</asrwt>
<pdfrwt beam="1">  1        2 0.22876012E+00 0.11071925E+04</pdfrwt>
<pdfrwt beam="2">  1       -2 0.30528482E+00 0.11071925E+04</pdfrwt>
<totfact> 0.37675348E-01</totfact>
</mgrwt>
</event>
<event>
 4    1  0.1998832E-007  0.1628610E+04  0.7818608E-02  0.8823783E-01
         -2   -1    0    0    0  501 -0.00000000000E+00  0.00000000000E+00  0.19668921275E+04  0.19668921275E+04  0.25500000000E-02 0.  1.
          2   -1    0    0  501    0  0.00000000000E+00 -0.00000000000E+00 -0.14277505538E+04  0.14277505538E+04  0.25500000000E-02 0. -1.
    8880023    1    1    2    0    0  0.13714985443E+04  0.58099310998E+03  0.89118673728E+03  0.18564981168E+04  0.65864270000E+03 0.  0.
    8880022    1    1    2    0    0 -0.13714985443E+04 -0.58099310998E+03 -0.35204516363E+03  0.15381445644E+04  0.15294330000E+03 0.  0.
<mgrwt>
<rscale>  0 0.15947448E+04</rscale>
<asrwt>0</asrwt>
<pdfrwt beam="1">  1        2 0.21965393E+00 0.16286103E+04</pdfrwt>
<pdfrwt beam="2">  1       -2 0.30259879E+00 0.16286103E+04</pdfrwt>
<totfact> 0.39735607E-01</totfact>
</mgrwt>
</event>
<event>
 4    1  0.1998832E-007  0.8537584E+03  0.7818608E-02  0.9604764E-01
          2   -1    0    0  501    0  0.00000000000E+00  0.00000000000E+00  0.73163849548E+03  0.73163849549E+03  0.25500000000E-02 0. -1.
         -2   -1    0    0    0  501 -0.00000000000E+00 -0.00000000000E+00 -0.10266414772E+04  0.10266414773E+04  0.25500000000E-02 0.  1.
    8880023    1    1    2    0    0  0.51620236515E+03 -0.16919921942E+03 -0.66609359984E+03  0.10828592465E+04  0.65864270000E+03 0.  0.
    8880022    1    1    2    0    0 -0.51620236515E+03  0.16919921942E+03  0.37109061807E+03  0.67542072627E+03  0.15294330000E+03 0.  0.
<mgrwt>
<rscale>  0 0.76981676E+03</rscale>
<asrwt>0</asrwt>
<pdfrwt beam="1">  1        2 0.11255977E+00 0.85375843E+03</pdfrwt>
<pdfrwt beam="2">  1       -2 0.15794484E+00 0.85375843E+03</pdfrwt>
<totfact> 0.10156276E+01</totfact>
</mgrwt>
</event>
<event>
 4    1  0.1998832E-007  0.6936459E+03  0.7818608E-02  0.1002466E+00
          2   -1    0    0  501    0  0.00000000000E+00  0.00000000000E+00  0.20518400160E+04  0.20518400160E+04  0.25500000000E-02 0. -1.
         -2   -1    0    0    0  501 -0.00000000000E+00 -0.00000000000E+00 -0.23128416593E+03  0.23128416594E+03  0.25500000000E-02 0.  1.
    8880023    1    1    2    0    0  0.53791506260E+02 -0.21081010327E+03  0.32840593892E+03  0.76746015712E+03  0.65864270000E+03 0.  1.
    8880022    1    1    2    0    0 -0.53791506260E+02  0.21081010327E+03  0.14921499112E+04  0.15156640248E+04  0.15294330000E+03 0.  0.
<mgrwt>
<rscale>  0 0.54582172E+03</rscale>
<asrwt>0</asrwt>
<pdfrwt beam="1">  1        2 0.31566770E+00 0.69364590E+03</pdfrwt>
<pdfrwt beam="2">  1       -2 0.35582179E-01 0.69364590E+03</pdfrwt>
<totfact> 0.48184461E+01</totfact>
</mgrwt>
</event>
<event>
 4    1  0.1998832E-007  0.7592412E+03  0.7818608E-02  0.9807076E-01
         -2   -1    0    0    0  501 -0.00000000000E+00  0.00000000000E+00  0.84590157768E+03  0.84590157768E+03  0.25500000000E-02 0.  1.
          2   -1    0    0  501    0  0.00000000000E+00 -0.00000000000E+00 -0.46278284334E+03  0.46278284335E+03  0.25500000000E-02 0. -1.
    8880023    1    1    2    0    0  0.19920468977E+02 -0.37714746003E+03  0.46879349899E+03  0.89230856919E+03  0.65864270000E+03 0.  0.
    8880022    1    1    2    0    0 -0.19920468977E+02  0.37714746003E+03 -0.85674764652E+02  0.41637585185E+03  0.15294330000E+03 0.  0.
<mgrwt>
<rscale>  0 0.64984193E+03</rscale>
<asrwt>0</asrwt>
<pdfrwt beam="1">  1        2 0.71197361E-01 0.75924123E+03</pdfrwt>
<pdfrwt beam="2">  1       -2 0.13013870E+00 0.75924123E+03</pdfrwt>
<totfact> 0.29507234E+01</totfact>
</mgrwt>
</event>
<event>
 4    1  0.1998832E-007  0.7715245E+03  0.7818608E-02  0.9776136E-01
         -2   -1    0    0    0  501 -0.00000000000E+00  0.00000000000E+00  0.10229570117E+04  0.10229570117E+04  0.25500000000E-02 0.  1.
          2   -1    0    0  501    0  0.00000000000E+00 -0.00000000000E+00 -0.77004931994E+03  0.77004931994E+03  0.25500000000E-02 0. -1.
    8880023    1    1    2    0    0  0.23856834040E+03 -0.32330335955E+03  0.79053237560E+03  0.11046228128E+04  0.65864270000E+03 0.  1.
    8880022    1    1    2    0    0 -0.23856834040E+03  0.32330335955E+03 -0.53762468386E+03  0.68838351886E+03  0.15294330000E+03 0.  0.
<mgrwt>
<rscale>  0 0.66659082E+03</rscale>
<asrwt>0</asrwt>
<pdfrwt beam="1">  1        2 0.11846913E+00 0.77152454E+03</pdfrwt>
<pdfrwt beam="2">  1       -2 0.15737800E+00 0.77152454E+03</pdfrwt>
<totfact> 0.96790233E+00</totfact>
</mgrwt>
</event>
<event>
 4    1  0.1998832E-007  0.1257754E+04  0.7818608E-02  0.9102929E-01
          2   -1    0    0  501    0  0.00000000000E+00  0.00000000000E+00  0.15132903898E+04  0.15132903898E+04  0.25500000000E-02 0. -1.
         -2   -1    0    0    0  501 -0.00000000000E+00 -0.00000000000E+00 -0.11512432901E+04  0.11512432901E+04  0.25500000000E-02 0.  1.
    8880023    1    1    2    0    0  0.10149561902E+04 -0.34350919035E+03 -0.42350612155E+03  0.13271406380E+04  0.65864270000E+03 0.  1.
    8880022    1    1    2    0    0 -0.10149561902E+04  0.34350919035E+03  0.78555322131E+03  0.13373930419E+04  0.15294330000E+03 0.  0.
<mgrwt>
<rscale>  0 0.12114089E+04</rscale>
<asrwt>0</asrwt>
<pdfrwt beam="1">  1        2 0.23281391E+00 0.12577539E+04</pdfrwt>
<pdfrwt beam="2">  1       -2 0.17711435E+00 0.12577539E+04</pdfrwt>
<totfact> 0.22858199E+00</totfact>
</mgrwt>
</event>
<event>
 4    1  0.1998832E-007  0.6771206E+03  0.7818608E-02  0.1011002E+00
         -2   -1    0    0    0  501 -0.00000000000E+00  0.00000000000E+00  0.10603033402E+03  0.10603033405E+03  0.25500000000E-02 0.  1.
          2   -1    0    0  501    0  0.00000000000E+00 -0.00000000000E+00 -0.19798818449E+04  0.19798818449E+04  0.25500000000E-02 0. -1.
    8880023    1    1    2    0    0 -0.15680347053E+03 -0.97332922396E+01 -0.12072358589E+04  0.13841642571E+04  0.65864270000E+03 0.  0.
    8880022    1    1    2    0    0  0.15680347053E+03  0.97332922396E+01 -0.66661565193E+03  0.70174792181E+03  0.15294330000E+03 0.  0.
<mgrwt>
<rscale>  0 0.51078481E+03</rscale>
<asrwt>0</asrwt>
<pdfrwt beam="1">  1        2 0.30459718E+00 0.67712057E+03</pdfrwt>
<pdfrwt beam="2">  1       -2 0.16312361E-01 0.67712057E+03</pdfrwt>
<totfact> 0.21454454E+02</totfact>
</mgrwt>
</event>
<event>
 4    1  0.1998832E-007  0.1069070E+04  0.7818608E-02  0.9296301E-01
         -2   -1    0    0    0  501 -0.00000000000E+00  0.00000000000E+00  0.11979807288E+04  0.11979807288E+04  0.25500000000E-02 0.  1.
          2   -1    0    0  501    0  0.00000000000E+00 -0.00000000000E+00 -0.91505572354E+03  0.91505572354E+03  0.25500000000E-02 0. -1.
    8880023    1    1    2    0    0 -0.48558241709E+03 -0.68797483257E+03  0.56845589534E+03  0.12108063285E+04  0.65864270000E+03 0.  1.
    8880022    1    1    2    0    0  0.48558241709E+03  0.68797483257E+03 -0.28553089010E+03  0.90223012378E+03  0.15294330000E+03 0.  0.
<mgrwt>
<rscale>  0 0.10112413E+04</rscale>
<asrwt>0</asrwt>
<pdfrwt beam="1">  1        2 0.14077780E+00 0.10690696E+04</pdfrwt>
<pdfrwt beam="2">  1       -2 0.18430473E+00 0.10690696E+04</pdfrwt>
<totfact> 0.47793578E+00</totfact>
</mgrwt>
</event>
<event>
 4    1  0.1998832E-007  0.7273515E+03  0.7818608E-02  0.9898453E-01
          2   -1    0    0  501    0  0.00000000000E+00  0.00000000000E+00  0.11227608731E+04  0.11227608731E+04  0.25500000000E-02 0. -1.
         -2   -1    0    0    0  501 -0.00000000000E+00 -0.00000000000E+00 -0.45605306206E+03  0.45605306206E+03  0.25500000000E-02 0.  1.
    8880023    1    1    2    0    0  0.28099095584E+03 -0.12756989632E+03 -0.10390636307E+03  0.73473582617E+03  0.65864270000E+03 0.  1.
    8880022    1    1    2    0    0 -0.28099095584E+03  0.12756989632E+03  0.77061417410E+03  0.84407810897E+03  0.15294330000E+03 0.  0.
<mgrwt>
<rscale>  0 0.60336310E+03</rscale>
<asrwt>0</asrwt>
<pdfrwt beam="1">  1        2 0.17273244E+00 0.72735150E+03</pdfrwt>
<pdfrwt beam="2">  1       -2 0.70162011E-01 0.72735150E+03</pdfrwt>
<totfact> 0.39775683E+01</totfact>
</mgrwt>
</event>
<event>
 4    1  0.1998832E-007  0.6807948E+03  0.7818608E-02  0.1008878E+00
         -2   -1    0    0    0  501 -0.00000000000E+00  0.00000000000E+00  0.10557750223E+03  0.10557750226E+03  0.25500000000E-02 0.  1.
          2   -1    0    0  501    0  0.00000000000E+00 -0.00000000000E+00 -0.25101319322E+04  0.25101319322E+04  0.25500000000E-02 0. -1.
    8880023    1    1    2    0    0 -0.16128770641E+03 -0.60478658719E+02 -0.11201205858E+04  0.13107828673E+04  0.65864270000E+03 0.  1.
    8880022    1    1    2    0    0  0.16128770641E+03  0.60478658719E+02 -0.12844338442E+04  0.13049265671E+04  0.15294330000E+03 0.  0.
<mgrwt>
<rscale>  0 0.51923171E+03</rscale>
<asrwt>0</asrwt>
<pdfrwt beam="1">  1        2 0.38617410E+00 0.68079483E+03</pdfrwt>
<pdfrwt beam="2">  1       -2 0.16242694E-01 0.68079483E+03</pdfrwt>
<totfact> 0.11004423E+02</totfact>
</mgrwt>
</event>
<event>
 4    1  0.1998832E-007  0.2049020E+04  0.7818608E-02  0.8596015E-01
         -2   -1    0    0    0  501 -0.00000000000E+00  0.00000000000E+00  0.16653015069E+04  0.16653015069E+04  0.25500000000E-02 0.  1.
          2   -1    0    0  501    0  0.00000000000E+00 -0.00000000000E+00 -0.36014640372E+04  0.36014640372E+04  0.25500000000E-02 0. -1.
    8880023    1    1    2    0    0 -0.19318537682E+04  0.18059348797E+03  0.53833628495E+03  0.21185582719E+04  0.65864270000E+03 0.  0.
    8880022    1    1    2    0    0  0.19318537682E+04 -0.18059348797E+03 -0.24744988152E+04  0.31482072722E+04  0.15294330000E+03 0.  0.
<mgrwt>
<rscale>  0 0.20228414E+04</rscale>
<asrwt>0</asrwt>
<pdfrwt beam="1">  1        2 0.55407139E+00 0.20490201E+04</pdfrwt>
<pdfrwt beam="2">  1       -2 0.25620023E+00 0.20490201E+04</pdfrwt>
<totfact> 0.35810796E-02</totfact>
</mgrwt>
</event>
<event>
 4    1  0.1998832E-007  0.8098502E+03  0.7818608E-02  0.9689889E-01
         -2   -1    0    0    0  501 -0.00000000000E+00  0.00000000000E+00  0.13636551660E+04  0.13636551660E+04  0.25500000000E-02 0.  1.
          2   -1    0    0  501    0  0.00000000000E+00 -0.00000000000E+00 -0.86130351869E+03  0.86130351869E+03  0.25500000000E-02 0. -1.
    8880023    1    1    2    0    0  0.27787575140E+03 -0.38056831601E+03  0.11518676344E+04  0.14080683328E+04  0.65864270000E+03 0.  0.
    8880022    1    1    2    0    0 -0.27787575140E+03  0.38056831601E+03 -0.64951598715E+03  0.81689035185E+03  0.15294330000E+03 0. -1.
<mgrwt>
<rscale>  0 0.71621999E+03</rscale>
<asrwt>0</asrwt>
<pdfrwt beam="1">  1        2 0.13250823E+00 0.80985022E+03</pdfrwt>
<pdfrwt beam="2">  1       -2 0.20979310E+00 0.80985022E+03</pdfrwt>
<totfact> 0.36365893E+00</totfact>
</mgrwt>
</event>
<event>
 4    1  0.1998832E-007  0.8221791E+03  0.7818608E-02  0.9664745E-01
         -2   -1    0    0    0  501 -0.00000000000E+00  0.00000000000E+00  0.54516983941E+03  0.54516983941E+03  0.25500000000E-02 0.  1.
          2   -1    0    0  501    0  0.00000000000E+00 -0.00000000000E+00 -0.12087215690E+04  0.12087215690E+04  0.25500000000E-02 0. -1.
    8880023    1    1    2    0    0 -0.13295274984E+03  0.47380563214E+03  0.10469370384E+03  0.82881794661E+03  0.65864270000E+03 0.  1.
    8880022    1    1    2    0    0  0.13295274984E+03 -0.47380563214E+03 -0.76824543348E+03  0.92507346184E+03  0.15294330000E+03 0.  0.
<mgrwt>
<rscale>  0 0.73155185E+03</rscale>
<asrwt>0</asrwt>
<pdfrwt beam="1">  1        2 0.18595716E+00 0.82217907E+03</pdfrwt>
<pdfrwt beam="2">  1       -2 0.83872283E-01 0.82217907E+03</pdfrwt>
<totfact> 0.23512003E+01</totfact>
</mgrwt>
</event>
<event>
 4    1  0.1998832E-007  0.7223562E+03  0.7818608E-02  0.9914693E-01
          2   -1    0    0  501    0  0.00000000000E+00  0.00000000000E+00  0.12088635216E+04  0.12088635216E+04  0.25500000000E-02 0. -1.
         -2   -1    0    0    0  501 -0.00000000000E+00 -0.00000000000E+00 -0.49611739521E+03  0.49611739522E+03  0.25500000000E-02 0.  1.
    8880023    1    1    2    0    0  0.24067513876E+03 -0.17338909360E+03 -0.18629697452E+03  0.74599267367E+03  0.65864270000E+03 0.  1.
    8880022    1    1    2    0    0 -0.24067513876E+03  0.17338909360E+03  0.89904310085E+03  0.95898824310E+03  0.15294330000E+03 0.  0.
<mgrwt>
<rscale>  0 0.59554481E+03</rscale>
<asrwt>0</asrwt>
<pdfrwt beam="1">  1        2 0.18597900E+00 0.72235622E+03</pdfrwt>
<pdfrwt beam="2">  1       -2 0.76325754E-01 0.72235622E+03</pdfrwt>
<totfact> 0.29363497E+01</totfact>
</mgrwt>
</event>
<event>
 4    1  0.1998832E-007  0.7043692E+03  0.7818608E-02  0.9979537E-01
         -2   -1    0    0    0  501 -0.00000000000E+00  0.00000000000E+00  0.87635880049E+03  0.87635880050E+03  0.25500000000E-02 0.  1.
          2   -1    0    0  501    0  0.00000000000E+00 -0.00000000000E+00 -0.65757354567E+03  0.65757354567E+03  0.25500000000E-02 0. -1.
    8880023    1    1    2    0    0  0.23657949421E+03  0.79724014412E+02  0.68557194081E+03  0.98292668488E+03  0.65864270000E+03 0.  0.
    8880022    1    1    2    0    0 -0.23657949421E+03 -0.79724014412E+02 -0.46678668598E+03  0.55100566129E+03  0.15294330000E+03 0. -1.
<mgrwt>
<rscale>  0 0.56556681E+03</rscale>
<asrwt>0</asrwt>
<pdfrwt beam="1">  1        2 0.10116516E+00 0.70436921E+03</pdfrwt>
<pdfrwt beam="2">  1       -2 0.13482443E+00 0.70436921E+03</pdfrwt>
<totfact> 0.17868004E+01</totfact>
</mgrwt>
</event>
<event>
 4    1  0.2030350E-007  0.8309813E+03  0.7818608E-02  0.9647426E-01
         -2   -1    0    0    0  501 -0.00000000000E+00  0.00000000000E+00  0.67249601975E+03  0.67249601975E+03  0.25500000000E-02 0.  1.
          2   -1    0    0  501    0  0.00000000000E+00 -0.00000000000E+00 -0.18520089370E+04  0.18520089370E+04  0.25500000000E-02 0. -1.
    8880023    1    1    2    0    0  0.47843331339E+03  0.16679735105E+03  0.35324365874E+03  0.90294577931E+03  0.65864270000E+03 0.  1.
    8880022    1    1    2    0    0 -0.47843331339E+03 -0.16679735105E+03 -0.15327565760E+04  0.16215591774E+04  0.15294330000E+03 0.  0.
<mgrwt>
<rscale>  0 0.74235188E+03</rscale>
<asrwt>0</asrwt>
<pdfrwt beam="1">  1        2 0.28492445E+00 0.83098135E+03</pdfrwt>
<pdfrwt beam="2">  1       -2 0.10346093E+00 0.83098135E+03</pdfrwt>
<totfact> 0.62724529E+00</totfact>
</mgrwt>
</event>
<event>
 4    1  0.2252672E-007  0.2139013E+04  0.7818608E-02  0.8555088E-01
          2   -1    0    0  501    0  0.00000000000E+00  0.00000000000E+00  0.29308083601E+04  0.29308083601E+04  0.25500000000E-02 0. -1.
         -2   -1    0    0    0  501 -0.00000000000E+00 -0.00000000000E+00 -0.24789800707E+04  0.24789800707E+04  0.25500000000E-02 0.  1.
    8880023    1    1    2    0    0  0.37380187579E+03  0.20004594461E+04 -0.14788316403E+04  0.26004459357E+04  0.65864270000E+03 0.  0.
    8880022    1    1    2    0    0 -0.37380187579E+03 -0.20004594461E+04  0.19306599298E+04  0.28093424952E+04  0.15294330000E+03 0.  0.
<mgrwt>
<rscale>  0 0.21140311E+04</rscale>
<asrwt>0</asrwt>
<pdfrwt beam="1">  1        2 0.45089359E+00 0.21390129E+04</pdfrwt>
<pdfrwt beam="2">  1       -2 0.38138155E+00 0.21390129E+04</pdfrwt>
<totfact> 0.16358025E-02</totfact>
</mgrwt>
</event>
<event>
 4    1  0.1998832E-007  0.7980825E+03  0.7818608E-02  0.9714958E-01
         -2   -1    0    0    0  501 -0.00000000000E+00  0.00000000000E+00  0.16568440161E+04  0.16568440161E+04  0.25500000000E-02 0.  1.
          2   -1    0    0  501    0  0.00000000000E+00 -0.00000000000E+00 -0.24492984342E+03  0.24492984344E+03  0.25500000000E-02 0. -1.
    8880023    1    1    2    0    0  0.44178030308E+03 -0.89194051165E+02  0.89215345257E+03  0.11970269020E+04  0.65864270000E+03 0.  0.
    8880022    1    1    2    0    0 -0.44178030308E+03  0.89194051165E+02  0.51976072009E+03  0.70474695750E+03  0.15294330000E+03 0. -1.
<mgrwt>
<rscale>  0 0.70133166E+03</rscale>
<asrwt>0</asrwt>
<pdfrwt beam="1">  1        2 0.37681514E-01 0.79808247E+03</pdfrwt>
<pdfrwt beam="2">  1       -2 0.25489908E+00 0.79808247E+03</pdfrwt>
<totfact> 0.84418927E+00</totfact>
</mgrwt>
</event>
<event>
 4    1  0.1998832E-007  0.8028712E+03  0.7818608E-02  0.9704622E-01
          2   -1    0    0  501    0  0.00000000000E+00  0.00000000000E+00  0.13478583488E+04  0.13478583488E+04  0.25500000000E-02 0. -1.
         -2   -1    0    0    0  501 -0.00000000000E+00 -0.00000000000E+00 -0.54049186963E+03  0.54049186963E+03  0.25500000000E-02 0.  1.
    8880023    1    1    2    0    0 -0.27720346305E+03  0.36599216856E+03 -0.14894375900E+03  0.81656994616E+03  0.65864270000E+03 0.  1.
    8880022    1    1    2    0    0  0.27720346305E+03 -0.36599216856E+03  0.95631023814E+03  0.10717802722E+04  0.15294330000E+03 0.  0.
<mgrwt>
<rscale>  0 0.70742272E+03</rscale>
<asrwt>0</asrwt>
<pdfrwt beam="1">  1        2 0.20736282E+00 0.80287124E+03</pdfrwt>
<pdfrwt beam="2">  1       -2 0.83152596E-01 0.80287124E+03</pdfrwt>
<totfact> 0.19940960E+01</totfact>
</mgrwt>
</event>
<event>
 4    1  0.1998832E-007  0.1129198E+04  0.7818608E-02  0.9229224E-01
         -2   -1    0    0    0  501 -0.00000000000E+00  0.00000000000E+00  0.61306759701E+03  0.61306759702E+03  0.25500000000E-02 0.  1.
          2   -1    0    0  501    0  0.00000000000E+00 -0.00000000000E+00 -0.25303623225E+04  0.25303623225E+04  0.25500000000E-02 0. -1.
    8880023    1    1    2    0    0  0.71277265470E+03  0.57726305419E+03 -0.14034919198E+03  0.11378864587E+04  0.65864270000E+03 0.  0.
    8880022    1    1    2    0    0 -0.71277265470E+03 -0.57726305419E+03 -0.17769455335E+04  0.20055434608E+04  0.15294330000E+03 0.  0.
<mgrwt>
<rscale>  0 0.10756817E+04</rscale>
<asrwt>0</asrwt>
<pdfrwt beam="1">  1        2 0.38928651E+00 0.11291978E+04</pdfrwt>
<pdfrwt beam="2">  1       -2 0.94318093E-01 0.11291978E+04</pdfrwt>
<totfact> 0.31454259E+00</totfact>
</mgrwt>
</event>
<event>
 4    1  0.2008764E-007  0.1149221E+04  0.7818608E-02  0.9208137E-01
          2   -1    0    0  501    0  0.00000000000E+00  0.00000000000E+00  0.28947621795E+04  0.28947621795E+04  0.25500000000E-02 0. -1.
         -2   -1    0    0    0  501 -0.00000000000E+00 -0.00000000000E+00 -0.11029064996E+04  0.11029064996E+04  0.25500000000E-02 0.  1.
    8880023    1    1    2    0    0 -0.19506999743E+03 -0.92132846873E+03 -0.68881878819E+03  0.13398432671E+04  0.65864270000E+03 0.  1.
    8880022    1    1    2    0    0  0.19506999743E+03  0.92132846873E+03  0.24806744681E+04  0.26578254120E+04  0.15294330000E+03 0.  0.
<mgrwt>
<rscale>  0 0.10969835E+04</rscale>
<asrwt>0</asrwt>
<pdfrwt beam="1">  1        2 0.44534803E+00 0.11492209E+04</pdfrwt>
<pdfrwt beam="2">  1       -2 0.16967792E+00 0.11492209E+04</pdfrwt>
<totfact> 0.42910468E-01</totfact>
</mgrwt>
</event>
<event>
 4    1  0.1998832E-007  0.7262980E+03  0.7818608E-02  0.9901825E-01
          2   -1    0    0  501    0  0.00000000000E+00  0.00000000000E+00  0.11279536682E+04  0.11279536682E+04  0.25500000000E-02 0. -1.
         -2   -1    0    0    0  501 -0.00000000000E+00 -0.00000000000E+00 -0.48379377333E+03  0.48379377334E+03  0.25500000000E-02 0.  1.
    8880023    1    1    2    0    0 -0.26341467110E+03  0.15592074600E+03 -0.15478478772E+03  0.74260831180E+03  0.65864270000E+03 0.  1.
    8880022    1    1    2    0    0  0.26341467110E+03 -0.15592074600E+03  0.79894468263E+03  0.86913912977E+03  0.15294330000E+03 0.  0.
<mgrwt>
<rscale>  0 0.60172937E+03</rscale>
<asrwt>0</asrwt>
<pdfrwt beam="1">  1        2 0.17353133E+00 0.72629799E+03</pdfrwt>
<pdfrwt beam="2">  1       -2 0.74429813E-01 0.72629799E+03</pdfrwt>
<totfact> 0.34686892E+01</totfact>
</mgrwt>
</event>
<event>
 4    1  0.1998832E-007  0.8055102E+03  0.7818608E-02  0.9699006E-01
         -2   -1    0    0    0  501 -0.00000000000E+00  0.00000000000E+00  0.48226181242E+03  0.48226181242E+03  0.25500000000E-02 0.  1.
          2   -1    0    0  501    0  0.00000000000E+00 -0.00000000000E+00 -0.12162350785E+04  0.12162350785E+04  0.25500000000E-02 0. -1.
    8880023    1    1    2    0    0 -0.34601926029E+03  0.30871866444E+03 -0.87591947213E+03  0.11899922984E+04  0.65864270000E+03 0. -1.
    8880022    1    1    2    0    0  0.34601926029E+03 -0.30871866444E+03  0.14194620601E+03  0.50850459259E+03  0.15294330000E+03 0.  0.
<mgrwt>
<rscale>  0 0.71076004E+03</rscale>
<asrwt>0</asrwt>
<pdfrwt beam="1">  1        2 0.18711309E+00 0.80551024E+03</pdfrwt>
<pdfrwt beam="2">  1       -2 0.74194126E-01 0.80551024E+03</pdfrwt>
<totfact> 0.30694058E+01</totfact>
</mgrwt>
</event>
<event>
 4    1  0.1998832E-007  0.9709739E+03  0.7818608E-02  0.9420558E-01
          2   -1    0    0  501    0  0.00000000000E+00  0.00000000000E+00  0.65074130348E+03  0.65074130349E+03  0.25500000000E-02 0. -1.
         -2   -1    0    0    0  501 -0.00000000000E+00 -0.00000000000E+00 -0.26755059241E+04  0.26755059241E+04  0.25500000000E-02 0.  1.
    8880023    1    1    2    0    0 -0.56489301121E+02 -0.71118849055E+03 -0.23384606921E+04  0.25320325284E+04  0.65864270000E+03 0.  0.
    8880022    1    1    2    0    0  0.56489301121E+02  0.71118849055E+03  0.31369607142E+03  0.79421469923E+03  0.15294330000E+03 0.  0.
<mgrwt>
<rscale>  0 0.90402938E+03</rscale>
<asrwt>0</asrwt>
<pdfrwt beam="1">  1        2 0.10011405E+00 0.97097390E+03</pdfrwt>
<pdfrwt beam="2">  1       -2 0.41161629E+00 0.97097390E+03</pdfrwt>
<totfact> 0.28634749E-01</totfact>
</mgrwt>
</event>
<event>
 4    1  0.1998832E-007  0.6685707E+03  0.7818608E-02  0.1016709E+00
         -2   -1    0    0    0  501 -0.00000000000E+00  0.00000000000E+00  0.99216751565E+03  0.99216751565E+03  0.25500000000E-02 0.  1.
          2   -1    0    0  501    0  0.00000000000E+00 -0.00000000000E+00 -0.13505441691E+04  0.13505441691E+04  0.25500000000E-02 0. -1.
    8880023    1    1    2    0    0 -0.77236137725E+02 -0.84918619664E+02  0.87130335654E+03  0.10982514914E+04  0.65864270000E+03 0.  0.
    8880022    1    1    2    0    0  0.77236137725E+02  0.84918619664E+02 -0.12296800100E+04  0.12444601933E+04  0.15294330000E+03 0.  0.
<mgrwt>
<rscale>  0 0.48893207E+03</rscale>
<asrwt>0</asrwt>
<pdfrwt beam="1">  1        2 0.20777603E+00 0.66857071E+03</pdfrwt>
<pdfrwt beam="2">  1       -2 0.15264116E+00 0.66857071E+03</pdfrwt>
<totfact> 0.45839891E+00</totfact>
</mgrwt>
</event>
<event>
 4    1  0.1998832E-007  0.9294790E+03  0.7818608E-02  0.9480275E-01
         -2   -1    0    0    0  501 -0.00000000000E+00  0.00000000000E+00  0.75968900129E+03  0.75968900129E+03  0.25500000000E-02 0.  1.
          2   -1    0    0  501    0  0.00000000000E+00 -0.00000000000E+00 -0.13734523544E+04  0.13734523544E+04  0.25500000000E-02 0. -1.
    8880023    1    1    2    0    0  0.49217893569E+03 -0.43345227143E+03 -0.99310512376E+03  0.13602165156E+04  0.65864270000E+03 0.  0.
    8880022    1    1    2    0    0 -0.49217893569E+03  0.43345227143E+03  0.37934177066E+03  0.77292484003E+03  0.15294330000E+03 0.  0.
<mgrwt>
<rscale>  0 0.85753796E+03</rscale>
<asrwt>0</asrwt>
<pdfrwt beam="1">  1        2 0.21130036E+00 0.92947898E+03</pdfrwt>
<pdfrwt beam="2">  1       -2 0.11687523E+00 0.92947898E+03</pdfrwt>
<totfact> 0.85011738E+00</totfact>
</mgrwt>
</event>
<event>
 4    1  0.1998832E-007  0.6712101E+03  0.7818608E-02  0.1014810E+00
          2   -1    0    0  501    0  0.00000000000E+00  0.00000000000E+00  0.36521388902E+04  0.36521388902E+04  0.25500000000E-02 0. -1.
         -2   -1    0    0    0  501 -0.00000000000E+00 -0.00000000000E+00 -0.23243640788E+03  0.23243640789E+03  0.25500000000E-02 0.  1.
    8880023    1    1    2    0    0  0.94072182470E+02  0.88674714977E+02  0.26200551712E+03  0.72053443905E+03  0.65864270000E+03 0.  1.
    8880022    1    1    2    0    0 -0.94072182470E+02 -0.88674714977E+02  0.31576969652E+04  0.31640408590E+04  0.15294330000E+03 0.  0.
<mgrwt>
<rscale>  0 0.49606993E+03</rscale>
<asrwt>0</asrwt>
<pdfrwt beam="1">  1        2 0.56186745E+00 0.67121009E+03</pdfrwt>
<pdfrwt beam="2">  1       -2 0.35759452E-01 0.67121009E+03</pdfrwt>
<totfact> 0.51589848E+00</totfact>
</mgrwt>
</event>
<event>
 4    1  0.1998832E-007  0.7538707E+03  0.7818608E-02  0.9821242E-01
         -2   -1    0    0    0  501 -0.00000000000E+00  0.00000000000E+00  0.69004609149E+03  0.69004609149E+03  0.25500000000E-02 0.  1.
          2   -1    0    0  501    0  0.00000000000E+00 -0.00000000000E+00 -0.55699546184E+03  0.55699546184E+03  0.25500000000E-02 0. -1.
    8880023    1    1    2    0    0  0.31912605337E+03 -0.18074681002E+03  0.30607611631E+03  0.81363606269E+03  0.65864270000E+03 0.  1.
    8880022    1    1    2    0    0 -0.31912605337E+03  0.18074681002E+03 -0.17302548666E+03  0.43340549064E+03  0.15294330000E+03 0. -1.
<mgrwt>
<rscale>  0 0.64234934E+03</rscale>
<asrwt>0</asrwt>
<pdfrwt beam="1">  1        2 0.85691609E-01 0.75387071E+03</pdfrwt>
<pdfrwt beam="2">  1       -2 0.10616094E+00 0.75387071E+03</pdfrwt>
<totfact> 0.39288669E+01</totfact>
</mgrwt>
</event>
<event>
 4    1  0.1998832E-007  0.1694766E+04  0.7818608E-02  0.8783096E-01
          2   -1    0    0  501    0  0.00000000000E+00  0.00000000000E+00  0.20102351791E+04  0.20102351791E+04  0.25500000000E-02 0. -1.
         -2   -1    0    0    0  501 -0.00000000000E+00 -0.00000000000E+00 -0.20772732808E+04  0.20772732808E+04  0.25500000000E-02 0.  1.
    8880023    1    1    2    0    0  0.14618119078E+04  0.54911470091E+03  0.11951749884E+04  0.20738067575E+04  0.65864270000E+03 0.  0.
    8880022    1    1    2    0    0 -0.14618119078E+04 -0.54911470091E+03 -0.12622130900E+04  0.20137017024E+04  0.15294330000E+03 0.  0.
<mgrwt>
<rscale>  0 0.16624139E+04</rscale>
<asrwt>0</asrwt>
<pdfrwt beam="1">  1        2 0.30926695E+00 0.16947658E+04</pdfrwt>
<pdfrwt beam="2">  1       -2 0.31958050E+00 0.16947658E+04</pdfrwt>
<totfact> 0.14572645E-01</totfact>
</mgrwt>
</event>
<event>
 4    1  0.1998832E-007  0.1196164E+04  0.7818608E-02  0.9160860E-01
          2   -1    0    0  501    0  0.00000000000E+00  0.00000000000E+00  0.47572589327E+04  0.47572589327E+04  0.25500000000E-02 0. -1.
         -2   -1    0    0    0  501 -0.00000000000E+00 -0.00000000000E+00 -0.26671468643E+03  0.26671468644E+03  0.25500000000E-02 0.  1.
    8880023    1    1    2    0    0  0.83135077105E+03  0.55304026004E+03  0.29330617102E+04  0.31675951187E+04  0.65864270000E+03 0.  0.
    8880022    1    1    2    0    0 -0.83135077105E+03 -0.55304026004E+03  0.15574825360E+04  0.18563785004E+04  0.15294330000E+03 0.  0.
<mgrwt>
<rscale>  0 0.11466707E+04</rscale>
<asrwt>0</asrwt>
<pdfrwt beam="1">  1        2 0.73188592E+00 0.11961638E+04</pdfrwt>
<pdfrwt beam="2">  1       -2 0.41033033E-01 0.11961638E+04</pdfrwt>
<totfact> 0.39242092E-01</totfact>
</mgrwt>
</event>
<event>
 4    1  0.1998832E-007  0.8373570E+03  0.7818608E-02  0.9635184E-01
         -2   -1    0    0    0  501 -0.00000000000E+00  0.00000000000E+00  0.64219838322E+03  0.64219838322E+03  0.25500000000E-02 0.  1.
          2   -1    0    0  501    0  0.00000000000E+00 -0.00000000000E+00 -0.14561155385E+04  0.14561155385E+04  0.25500000000E-02 0. -1.
    8880023    1    1    2    0    0  0.34834088678E+03  0.38211938120E+03  0.27652797228E+03  0.88183588077E+03  0.65864270000E+03 0.  0.
    8880022    1    1    2    0    0 -0.34834088678E+03 -0.38211938120E+03 -0.10904451275E+04  0.12164780409E+04  0.15294330000E+03 0.  0.
<mgrwt>
<rscale>  0 0.75010601E+03</rscale>
<asrwt>0</asrwt>
<pdfrwt beam="1">  1        2 0.22401777E+00 0.83735703E+03</pdfrwt>
<pdfrwt beam="2">  1       -2 0.98799752E-01 0.83735703E+03</pdfrwt>
<totfact> 0.11570133E+01</totfact>
</mgrwt>
</event>
<event>
 4    1  0.1998832E-007  0.7321771E+03  0.7818608E-02  0.9883350E-01
          2   -1    0    0  501    0  0.00000000000E+00  0.00000000000E+00  0.16454905676E+03  0.16454905678E+03  0.25500000000E-02 0. -1.
         -2   -1    0    0    0  501 -0.00000000000E+00 -0.00000000000E+00 -0.26062877665E+04  0.26062877665E+04  0.25500000000E-02 0.  1.
    8880023    1    1    2    0    0 -0.19066839275E+03 -0.25674636977E+03 -0.22535101428E+04  0.23694706802E+04  0.65864270000E+03 0.  0.
    8880022    1    1    2    0    0  0.19066839275E+03  0.25674636977E+03 -0.18822856694E+03  0.40136614308E+03  0.15294330000E+03 0.  0.
<mgrwt>
<rscale>  0 0.61075048E+03</rscale>
<asrwt>0</asrwt>
<pdfrwt beam="1">  1        2 0.25315241E-01 0.73217712E+03</pdfrwt>
<pdfrwt beam="2">  1       -2 0.40096732E+00 0.73217712E+03</pdfrwt>
<totfact> 0.16809658E+00</totfact>
</mgrwt>
</event>
<event>
 4    1  0.1998832E-007  0.6935178E+03  0.7818608E-02  0.1002523E+00
         -2   -1    0    0    0  501 -0.00000000000E+00  0.00000000000E+00  0.40365156310E+03  0.40365156310E+03  0.25500000000E-02 0.  1.
          2   -1    0    0  501    0  0.00000000000E+00 -0.00000000000E+00 -0.82087856320E+03  0.82087856320E+03  0.25500000000E-02 0. -1.
    8880023    1    1    2    0    0  0.13366727134E+03 -0.17114253280E+03  0.41172829323E+02  0.69473888195E+03  0.65864270000E+03 0.  0.
    8880022    1    1    2    0    0 -0.13366727134E+03  0.17114253280E+03 -0.45839982942E+03  0.52979124435E+03  0.15294330000E+03 0.  0.
<mgrwt>
<rscale>  0 0.54557450E+03</rscale>
<asrwt>0</asrwt>
<pdfrwt beam="1">  1        2 0.12628901E+00 0.69351778E+03</pdfrwt>
<pdfrwt beam="2">  1       -2 0.62100241E-01 0.69351778E+03</pdfrwt>
<totfact> 0.81487999E+01</totfact>
</mgrwt>
</event>
<event>
 4    1  0.1998832E-007  0.1131345E+04  0.7818608E-02  0.9226935E-01
         -2   -1    0    0    0  501 -0.00000000000E+00  0.00000000000E+00  0.13892087179E+04  0.13892087179E+04  0.25500000000E-02 0.  1.
          2   -1    0    0  501    0  0.00000000000E+00 -0.00000000000E+00 -0.16632779526E+04  0.16632779526E+04  0.25500000000E-02 0. -1.
    8880023    1    1    2    0    0  0.69143160457E+03 -0.60667357073E+03  0.97515855953E+03  0.14936113643E+04  0.65864270000E+03 0.  1.
    8880022    1    1    2    0    0 -0.69143160457E+03  0.60667357073E+03 -0.12492277943E+04  0.15588753062E+04  0.15294330000E+03 0.  0.
<mgrwt>
<rscale>  0 0.10779690E+04</rscale>
<asrwt>0</asrwt>
<pdfrwt beam="1">  1        2 0.25588892E+00 0.11313446E+04</pdfrwt>
<pdfrwt beam="2">  1       -2 0.21372442E+00 0.11313446E+04</pdfrwt>
<totfact> 0.10899983E+00</totfact>
</mgrwt>
</event>
<event>
 4    1  0.1998832E-007  0.8598191E+03  0.7818608E-02  0.9593885E-01
          2   -1    0    0  501    0  0.00000000000E+00  0.00000000000E+00  0.18908457953E+04  0.18908457953E+04  0.25500000000E-02 0. -1.
         -2   -1    0    0    0  501 -0.00000000000E+00 -0.00000000000E+00 -0.32439657151E+03  0.32439657152E+03  0.25500000000E-02 0.  1.
    8880023    1    1    2    0    0 -0.13987116812E+03 -0.53470994344E+03  0.47498544304E+03  0.98229325797E+03  0.65864270000E+03 0.  1.
    8880022    1    1    2    0    0  0.13987116812E+03  0.53470994344E+03  0.10914637807E+04  0.12329491088E+04  0.15294330000E+03 0.  1.
<mgrwt>
<rscale>  0 0.77702215E+03</rscale>
<asrwt>0</asrwt>
<pdfrwt beam="1">  1        2 0.29089935E+00 0.85981909E+03</pdfrwt>
<pdfrwt beam="2">  1       -2 0.49907165E-01 0.85981909E+03</pdfrwt>
<totfact> 0.29681902E+01</totfact>
</mgrwt>
</event>
<event>
 4    1  0.1998832E-007  0.7576367E+03  0.7818608E-02  0.9811265E-01
         -2   -1    0    0    0  501 -0.00000000000E+00  0.00000000000E+00  0.30315333847E+03  0.30315333848E+03  0.25500000000E-02 0.  1.
          2   -1    0    0  501    0  0.00000000000E+00 -0.00000000000E+00 -0.26593174601E+04  0.26593174601E+04  0.25500000000E-02 0. -1.
    8880023    1    1    2    0    0 -0.32732973796E+03 -0.18181961192E+03 -0.22082427479E+03  0.78916202090E+03  0.65864270000E+03 0.  1.
    8880022    1    1    2    0    0  0.32732973796E+03  0.18181961192E+03 -0.21353398468E+04  0.21733087776E+04  0.15294330000E+03 0.  0.
<mgrwt>
<rscale>  0 0.64761504E+03</rscale>
<asrwt>0</asrwt>
<pdfrwt beam="1">  1        2 0.40912575E+00 0.75763668E+03</pdfrwt>
<pdfrwt beam="2">  1       -2 0.46638977E-01 0.75763668E+03</pdfrwt>
<totfact> 0.12857282E+01</totfact>
</mgrwt>
</event>
<event>
 4    1  0.1998832E-007  0.1287496E+04  0.7818608E-02  0.9076434E-01
          2   -1    0    0  501    0  0.00000000000E+00  0.00000000000E+00  0.17476264606E+04  0.17476264606E+04  0.25500000000E-02 0. -1.
         -2   -1    0    0    0  501 -0.00000000000E+00 -0.00000000000E+00 -0.13297305927E+04  0.13297305927E+04  0.25500000000E-02 0.  1.
    8880023    1    1    2    0    0  0.41411683210E+03 -0.10258377865E+04  0.11628548086E+04  0.17348998320E+04  0.65864270000E+03 0.  0.
    8880022    1    1    2    0    0 -0.41411683210E+03  0.10258377865E+04 -0.74495894060E+03  0.13424572213E+04  0.15294330000E+03 0.  0.
<mgrwt>
<rscale>  0 0.12425179E+04</rscale>
<asrwt>0</asrwt>
<pdfrwt beam="1">  1        2 0.26886561E+00 0.12874961E+04</pdfrwt>
<pdfrwt beam="2">  1       -2 0.20457394E+00 0.12874961E+04</pdfrwt>
<totfact> 0.11003755E+00</totfact>
</mgrwt>
</event>
<event>
 4    1  0.1998832E-007  0.1331963E+04  0.7818608E-02  0.9038438E-01
         -2   -1    0    0    0  501 -0.00000000000E+00  0.00000000000E+00  0.15433918436E+04  0.15433918436E+04  0.25500000000E-02 0.  1.
          2   -1    0    0  501    0  0.00000000000E+00 -0.00000000000E+00 -0.11501505674E+04  0.11501505674E+04  0.25500000000E-02 0. -1.
    8880023    1    1    2    0    0  0.96205662801E+03 -0.64402125426E+03  0.67356755839E+03  0.14925882866E+04  0.65864270000E+03 0.  0.
    8880022    1    1    2    0    0 -0.96205662801E+03  0.64402125426E+03 -0.28032628213E+03  0.12009541244E+04  0.15294330000E+03 0.  0.
<mgrwt>
<rscale>  0 0.12888708E+04</rscale>
<asrwt>0</asrwt>
<pdfrwt beam="1">  1        2 0.17694624E+00 0.13319634E+04</pdfrwt>
<pdfrwt beam="2">  1       -2 0.23744490E+00 0.13319634E+04</pdfrwt>
<totfact> 0.14962553E+00</totfact>
</mgrwt>
</event>
<event>
 4    1  0.1998832E-007  0.9015667E+03  0.7818608E-02  0.9523521E-01
          2   -1    0    0  501    0  0.00000000000E+00  0.00000000000E+00  0.11957607504E+04  0.11957607504E+04  0.25500000000E-02 0. -1.
         -2   -1    0    0    0  501 -0.00000000000E+00 -0.00000000000E+00 -0.66614946320E+03  0.66614946321E+03  0.25500000000E-02 0.  1.
    8880023    1    1    2    0    0  0.11086824227E+03  0.60557450027E+03 -0.17007835118E+03  0.91746885196E+03  0.65864270000E+03 0.  1.
    8880022    1    1    2    0    0 -0.11086824227E+03 -0.60557450027E+03  0.69968963832E+03  0.94444136160E+03  0.15294330000E+03 0.  0.
<mgrwt>
<rscale>  0 0.82571687E+03</rscale>
<asrwt>0</asrwt>
<pdfrwt beam="1">  1        2 0.18396319E+00 0.90156666E+03</pdfrwt>
<pdfrwt beam="2">  1       -2 0.10248453E+00 0.90156666E+03</pdfrwt>
<totfact> 0.14887039E+01</totfact>
</mgrwt>
</event>
<event>
 4    1  0.1998832E-007  0.8216389E+03  0.7818608E-02  0.9665825E-01
          2   -1    0    0  501    0  0.00000000000E+00  0.00000000000E+00  0.13104245435E+04  0.13104245435E+04  0.25500000000E-02 0. -1.
         -2   -1    0    0    0  501 -0.00000000000E+00 -0.00000000000E+00 -0.21397918535E+04  0.21397918535E+04  0.25500000000E-02 0.  1.
    8880023    1    1    2    0    0 -0.32091175770E+03 -0.37188162576E+03 -0.20050673310E+04  0.21668838243E+04  0.65864270000E+03 0.  1.
    8880022    1    1    2    0    0  0.32091175770E+03  0.37188162576E+03  0.11757000210E+04  0.12833325727E+04  0.15294330000E+03 0.  0.
<mgrwt>
<rscale>  0 0.73088532E+03</rscale>
<asrwt>0</asrwt>
<pdfrwt beam="1">  1        2 0.20160378E+00 0.82163891E+03</pdfrwt>
<pdfrwt beam="2">  1       -2 0.32919875E+00 0.82163891E+03</pdfrwt>
<totfact> 0.35686805E-01</totfact>
</mgrwt>
</event>
<event>
 4    1  0.2353075E-007  0.9684927E+03  0.7818608E-02  0.9423992E-01
          2   -1    0    0  501    0  0.00000000000E+00  0.00000000000E+00  0.13694753562E+04  0.13694753562E+04  0.25500000000E-02 0. -1.
         -2   -1    0    0    0  501 -0.00000000000E+00 -0.00000000000E+00 -0.20232335760E+04  0.20232335760E+04  0.25500000000E-02 0.  1.
    8880023    1    1    2    0    0  0.13278303847E+03 -0.69752171005E+03 -0.17951904489E+04  0.20397761704E+04  0.65864270000E+03 0.  1.
    8880022    1    1    2    0    0 -0.13278303847E+03  0.69752171005E+03  0.11414322291E+04  0.13529327618E+04  0.15294330000E+03 0.  0.
<mgrwt>
<rscale>  0 0.90127265E+03</rscale>
<asrwt>0</asrwt>
<pdfrwt beam="1">  1        2 0.21068852E+00 0.96849268E+03</pdfrwt>
<pdfrwt beam="2">  1       -2 0.31126670E+00 0.96849268E+03</pdfrwt>
<totfact> 0.41311674E-01</totfact>
</mgrwt>
</event>
<event>
 4    1  0.1998832E-007  0.1048928E+04  0.7818608E-02  0.9320171E-01
          2   -1    0    0  501    0  0.00000000000E+00  0.00000000000E+00  0.24897628079E+04  0.24897628079E+04  0.25500000000E-02 0. -1.
         -2   -1    0    0    0  501 -0.00000000000E+00 -0.00000000000E+00 -0.12006552061E+04  0.12006552061E+04  0.25500000000E-02 0.  1.
    8880023    1    1    2    0    0 -0.55707810323E+03  0.59674432738E+03 -0.87908384586E+03  0.13685899385E+04  0.65864270000E+03 0.  0.
    8880022    1    1    2    0    0  0.55707810323E+03 -0.59674432738E+03  0.21681914477E+04  0.23218280755E+04  0.15294330000E+03 0.  0.
<mgrwt>
<rscale>  0 0.98946889E+03</rscale>
<asrwt>0</asrwt>
<pdfrwt beam="1">  1        2 0.38304043E+00 0.10489280E+04</pdfrwt>
<pdfrwt beam="2">  1       -2 0.18471619E+00 0.10489280E+04</pdfrwt>
<totfact> 0.59260436E-01</totfact>
</mgrwt>
</event>
<event>
 4    1  0.1998832E-007  0.1347372E+04  0.7818608E-02  0.9025694E-01
          2   -1    0    0  501    0  0.00000000000E+00  0.00000000000E+00  0.27951151778E+04  0.27951151778E+04  0.25500000000E-02 0. -1.
         -2   -1    0    0    0  501 -0.00000000000E+00 -0.00000000000E+00 -0.90547583706E+03  0.90547583706E+03  0.25500000000E-02 0.  1.
    8880023    1    1    2    0    0  0.46955218948E+03 -0.10775530164E+04 -0.13539412853E+03  0.13541571320E+04  0.65864270000E+03 0.  0.
    8880022    1    1    2    0    0 -0.46955218948E+03  0.10775530164E+04  0.20250334693E+04  0.23464338828E+04  0.15294330000E+03 0.  0.
<mgrwt>
<rscale>  0 0.13048925E+04</rscale>
<asrwt>0</asrwt>
<pdfrwt beam="1">  1        2 0.43001771E+00 0.13473715E+04</pdfrwt>
<pdfrwt beam="2">  1       -2 0.13930398E+00 0.13473715E+04</pdfrwt>
<totfact> 0.81693003E-01</totfact>
</mgrwt>
</event>
<event>
 4    1  0.1998832E-007  0.1044854E+04  0.7818608E-02  0.9325093E-01
          2   -1    0    0  501    0  0.00000000000E+00  0.00000000000E+00  0.15074343880E+04  0.15074343880E+04  0.25500000000E-02 0. -1.
         -2   -1    0    0    0  501 -0.00000000000E+00 -0.00000000000E+00 -0.62568395999E+03  0.62568396000E+03  0.25500000000E-02 0.  1.
    8880023    1    1    2    0    0  0.59588065052E+03 -0.55030503256E+03  0.20281626655E+03  0.10643561541E+04  0.65864270000E+03 0. -1.
    8880022    1    1    2    0    0 -0.59588065052E+03  0.55030503256E+03  0.67893416150E+03  0.10687621939E+04  0.15294330000E+03 0.  0.
<mgrwt>
<rscale>  0 0.98505174E+03</rscale>
<asrwt>0</asrwt>
<pdfrwt beam="1">  1        2 0.23191298E+00 0.10448539E+04</pdfrwt>
<pdfrwt beam="2">  1       -2 0.96259071E-01 0.10448539E+04</pdfrwt>
<totfact> 0.11264398E+01</totfact>
</mgrwt>
</event>
<event>
 4    1  0.1998832E-007  0.1491670E+04  0.7818608E-02  0.8915540E-01
          2   -1    0    0  501    0  0.00000000000E+00  0.00000000000E+00  0.24112477369E+04  0.24112477369E+04  0.25500000000E-02 0. -1.
         -2   -1    0    0    0  501 -0.00000000000E+00 -0.00000000000E+00 -0.16610070225E+04  0.16610070225E+04  0.25500000000E-02 0.  1.
    8880023    1    1    2    0    0  0.67165465016E+03  0.11576487674E+04 -0.10497374121E+04  0.18240146596E+04  0.65864270000E+03 0.  0.
    8880022    1    1    2    0    0 -0.67165465016E+03 -0.11576487674E+04  0.17999781265E+04  0.22482400998E+04  0.15294330000E+03 0.  0.
<mgrwt>
<rscale>  0 0.14541331E+04</rscale>
<asrwt>0</asrwt>
<pdfrwt beam="1">  1        2 0.37096119E+00 0.14916705E+04</pdfrwt>
<pdfrwt beam="2">  1       -2 0.25553954E+00 0.14916705E+04</pdfrwt>
<totfact> 0.21841260E-01</totfact>
</mgrwt>
</event>
<event>
 4    1  0.1998832E-007  0.2081372E+04  0.7818608E-02  0.8581041E-01
         -2   -1    0    0    0  501 -0.00000000000E+00  0.00000000000E+00  0.19551225985E+04  0.19551225985E+04  0.25500000000E-02 0.  1.
          2   -1    0    0  501    0  0.00000000000E+00 -0.00000000000E+00 -0.28977100184E+04  0.28977100184E+04  0.25500000000E-02 0. -1.
    8880023    1    1    2    0    0 -0.88681652736E+03 -0.17640457301E+04  0.78536854407E+03  0.22246156629E+04  0.65864270000E+03 0.  0.
    8880022    1    1    2    0    0  0.88681652736E+03  0.17640457301E+04 -0.17279559640E+04  0.26282169540E+04  0.15294330000E+03 0.  0.
<mgrwt>
<rscale>  0 0.20556375E+04</rscale>
<asrwt>0</asrwt>
<pdfrwt beam="1">  1        2 0.44580154E+00 0.20813724E+04</pdfrwt>
<pdfrwt beam="2">  1       -2 0.30078809E+00 0.20813724E+04</pdfrwt>
<totfact> 0.55590081E-02</totfact>
</mgrwt>
</event>
<event>
 4    1  0.1998832E-007  0.1036695E+04  0.7818608E-02  0.9335049E-01
          2   -1    0    0  501    0  0.00000000000E+00  0.00000000000E+00  0.11200813333E+04  0.11200813333E+04  0.25500000000E-02 0. -1.
         -2   -1    0    0    0  501 -0.00000000000E+00 -0.00000000000E+00 -0.18872930934E+04  0.18872930934E+04  0.25500000000E-02 0.  1.
    8880023    1    1    2    0    0 -0.35356066128E+02  0.79979782989E+03 -0.15582292206E+04  0.18715809173E+04  0.65864270000E+03 0.  0.
    8880022    1    1    2    0    0  0.35356066128E+02 -0.79979782989E+03  0.79101746050E+03  0.11357935094E+04  0.15294330000E+03 0.  0.
<mgrwt>
<rscale>  0 0.97619218E+03</rscale>
<asrwt>0</asrwt>
<pdfrwt beam="1">  1        2 0.17232020E+00 0.10366951E+04</pdfrwt>
<pdfrwt beam="2">  1       -2 0.29035278E+00 0.10366951E+04</pdfrwt>
<totfact> 0.76870107E-01</totfact>
</mgrwt>
</event>
<event>
 4    1  0.1998832E-007  0.1432381E+04  0.7818608E-02  0.8958922E-01
          2   -1    0    0  501    0  0.00000000000E+00  0.00000000000E+00  0.15959706943E+04  0.15959706943E+04  0.25500000000E-02 0. -1.
         -2   -1    0    0    0  501 -0.00000000000E+00 -0.00000000000E+00 -0.19306197740E+04  0.19306197740E+04  0.25500000000E-02 0.  1.
    8880023    1    1    2    0    0  0.79218692985E+03  0.99516046272E+03 -0.12906505283E+04  0.19280802553E+04  0.65864270000E+03 0.  0.
    8880022    1    1    2    0    0 -0.79218692985E+03 -0.99516046272E+03  0.95600144858E+03  0.15985102130E+04  0.15294330000E+03 0.  0.
<mgrwt>
<rscale>  0 0.13929715E+04</rscale>
<asrwt>0</asrwt>
<pdfrwt beam="1">  1        2 0.24553395E+00 0.14323808E+04</pdfrwt>
<pdfrwt beam="2">  1       -2 0.29701843E+00 0.14323808E+04</pdfrwt>
<totfact> 0.35196528E-01</totfact>
</mgrwt>
</event>
<event>
 4    1  0.1998832E-007  0.8495438E+03  0.7818608E-02  0.9612441E-01
          2   -1    0    0  501    0  0.00000000000E+00  0.00000000000E+00  0.11478443290E+04  0.11478443290E+04  0.25500000000E-02 0. -1.
         -2   -1    0    0    0  501 -0.00000000000E+00 -0.00000000000E+00 -0.87887332369E+03  0.87887332369E+03  0.25500000000E-02 0.  1.
    8880023    1    1    2    0    0  0.53524219174E+03 -0.37819177728E+02 -0.56719849248E+03  0.10214885365E+04  0.65864270000E+03 0.  1.
    8880022    1    1    2    0    0 -0.53524219174E+03  0.37819177728E+02  0.83616949781E+03  0.10052291162E+04  0.15294330000E+03 0.  0.
<mgrwt>
<rscale>  0 0.76478225E+03</rscale>
<asrwt>0</asrwt>
<pdfrwt beam="1">  1        2 0.17659143E+00 0.84954382E+03</pdfrwt>
<pdfrwt beam="2">  1       -2 0.13521128E+00 0.84954382E+03</pdfrwt>
<totfact> 0.80609884E+00</totfact>
</mgrwt>
</event>
<event>
 4    1  0.1998832E-007  0.7084944E+03  0.7818608E-02  0.9963635E-01
          2   -1    0    0  501    0  0.00000000000E+00  0.00000000000E+00  0.16615189990E+04  0.16615189990E+04  0.25500000000E-02 0. -1.
         -2   -1    0    0    0  501 -0.00000000000E+00 -0.00000000000E+00 -0.37946089986E+03  0.37946089987E+03  0.25500000000E-02 0.  1.
    8880023    1    1    2    0    0  0.22797152090E+03  0.12721303762E+03 -0.15448319839E+02  0.70866284517E+03  0.65864270000E+03 0.  0.
    8880022    1    1    2    0    0 -0.22797152090E+03 -0.12721303762E+03  0.12975064189E+04  0.13323170537E+04  0.15294330000E+03 0.  0.
<mgrwt>
<rscale>  0 0.57273952E+03</rscale>
<asrwt>0</asrwt>
<pdfrwt beam="1">  1        2 0.25561831E+00 0.70849444E+03</pdfrwt>
<pdfrwt beam="2">  1       -2 0.58378600E-01 0.70849444E+03</pdfrwt>
<totfact> 0.29162870E+01</totfact>
</mgrwt>
</event>
<event>
 4    1  0.1998832E-007  0.1339491E+04  0.7818608E-02  0.9032186E-01
          2   -1    0    0  501    0  0.00000000000E+00  0.00000000000E+00  0.33653265302E+04  0.33653265302E+04  0.25500000000E-02 0. -1.
         -2   -1    0    0    0  501 -0.00000000000E+00 -0.00000000000E+00 -0.54121913846E+03  0.54121913847E+03  0.25500000000E-02 0.  1.
    8880023    1    1    2    0    0  0.11293406978E+04  0.29157520580E+03  0.78532857303E+03  0.15527323292E+04  0.65864270000E+03 0.  0.
    8880022    1    1    2    0    0 -0.11293406978E+04 -0.29157520580E+03  0.20387788187E+04  0.23538133394E+04  0.15294330000E+03 0.  0.
<mgrwt>
<rscale>  0 0.12967008E+04</rscale>
<asrwt>0</asrwt>
<pdfrwt beam="1">  1        2 0.51774254E+00 0.13394912E+04</pdfrwt>
<pdfrwt beam="2">  1       -2 0.83264483E-01 0.13394912E+04</pdfrwt>
<totfact> 0.12483224E+00</totfact>
</mgrwt>
</event>
<event>
 4    1  0.1998832E-007  0.8395162E+03  0.7818608E-02  0.9631093E-01
          2   -1    0    0  501    0  0.00000000000E+00  0.00000000000E+00  0.26474724171E+04  0.26474724171E+04  0.25500000000E-02 0. -1.
         -2   -1    0    0    0  501 -0.00000000000E+00 -0.00000000000E+00 -0.63244591433E+03  0.63244591433E+03  0.25500000000E-02 0.  1.
    8880023    1    1    2    0    0 -0.43580927893E+03 -0.28468856879E+03 -0.30810754809E+03  0.89426940921E+03  0.65864270000E+03 0.  0.
    8880022    1    1    2    0    0  0.43580927893E+03  0.28468856879E+03  0.23231340509E+04  0.23856489222E+04  0.15294330000E+03 0.  0.
<mgrwt>
<rscale>  0 0.75271978E+03</rscale>
<asrwt>0</asrwt>
<pdfrwt beam="1">  1        2 0.40730344E+00 0.83951624E+03</pdfrwt>
<pdfrwt beam="2">  1       -2 0.97299373E-01 0.83951624E+03</pdfrwt>
<totfact> 0.26092184E+00</totfact>
</mgrwt>
</event>
<event>
 4    1  0.1998832E-007  0.7884272E+03  0.7818608E-02  0.9736401E-01
          2   -1    0    0  501    0  0.00000000000E+00  0.00000000000E+00  0.35112936278E+04  0.35112936278E+04  0.25500000000E-02 0. -1.
         -2   -1    0    0    0  501 -0.00000000000E+00 -0.00000000000E+00 -0.69509720703E+03  0.69509720703E+03  0.25500000000E-02 0.  1.
    8880023    1    1    2    0    0  0.42443449864E+03 -0.87536214374E+02 -0.45014314229E+03  0.90788010622E+03  0.65864270000E+03 0.  0.
    8880022    1    1    2    0    0 -0.42443449864E+03  0.87536214374E+02  0.32663395631E+04  0.32985107287E+04  0.15294330000E+03 0.  0.
<mgrwt>
<rscale>  0 0.68890232E+03</rscale>
<asrwt>0</asrwt>
<pdfrwt beam="1">  1        2 0.54019902E+00 0.78842719E+03</pdfrwt>
<pdfrwt beam="2">  1       -2 0.10693803E+00 0.78842719E+03</pdfrwt>
<totfact> 0.60616166E-01</totfact>
</mgrwt>
</event>
<event>
 4    1  0.1998832E-007  0.1112962E+04  0.7818608E-02  0.9246760E-01
         -2   -1    0    0    0  501 -0.00000000000E+00  0.00000000000E+00  0.10392653402E+04  0.10392653402E+04  0.25500000000E-02 0.  1.
          2   -1    0    0  501    0  0.00000000000E+00 -0.00000000000E+00 -0.10583791695E+04  0.10583791695E+04  0.25500000000E-02 0. -1.
    8880023    1    1    2    0    0 -0.18048099465E+03  0.87880648048E+03  0.26530356448E+03  0.11441461476E+04  0.65864270000E+03 0.  0.
    8880022    1    1    2    0    0  0.18048099465E+03 -0.87880648048E+03 -0.28441739383E+03  0.95349836208E+03  0.15294330000E+03 0.  0.
<mgrwt>
<rscale>  0 0.10583553E+04</rscale>
<asrwt>0</asrwt>
<pdfrwt beam="1">  1        2 0.16282756E+00 0.11129620E+04</pdfrwt>
<pdfrwt beam="2">  1       -2 0.15988698E+00 0.11129620E+04</pdfrwt>
<totfact> 0.57235173E+00</totfact>
</mgrwt>
</event>
<event>
 4    1  0.1998832E-007  0.8445511E+03  0.7818608E-02  0.9621658E-01
         -2   -1    0    0    0  501 -0.00000000000E+00  0.00000000000E+00  0.76289095600E+03  0.76289095600E+03  0.25500000000E-02 0.  1.
          2   -1    0    0  501    0  0.00000000000E+00 -0.00000000000E+00 -0.11702936837E+04  0.11702936837E+04  0.25500000000E-02 0. -1.
    8880023    1    1    2    0    0  0.45309839546E+03 -0.27232001483E+03  0.41707064210E+03  0.94192062999E+03  0.65864270000E+03 0.  1.
    8880022    1    1    2    0    0 -0.45309839546E+03  0.27232001483E+03 -0.82447336984E+03  0.99126400976E+03  0.15294330000E+03 0.  0.
<mgrwt>
<rscale>  0 0.75879164E+03</rscale>
<asrwt>0</asrwt>
<pdfrwt beam="1">  1        2 0.18004518E+00 0.84455110E+03</pdfrwt>
<pdfrwt beam="2">  1       -2 0.11736784E+00 0.84455110E+03</pdfrwt>
<totfact> 0.11161663E+01</totfact>
</mgrwt>
</event>
<event>
 4    1  0.1998832E-007  0.1356847E+04  0.7818608E-02  0.9017961E-01
          2   -1    0    0  501    0  0.00000000000E+00  0.00000000000E+00  0.15485862428E+04  0.15485862428E+04  0.25500000000E-02 0. -1.
         -2   -1    0    0    0  501 -0.00000000000E+00 -0.00000000000E+00 -0.13193838813E+04  0.13193838813E+04  0.25500000000E-02 0.  1.
    8880023    1    1    2    0    0  0.10958182255E+04 -0.45431875637E+03 -0.52397277225E+03  0.14545036226E+04  0.65864270000E+03 0.  0.
    8880022    1    1    2    0    0 -0.10958182255E+04  0.45431875637E+03  0.75317513374E+03  0.14134665015E+04  0.15294330000E+03 0.  0.
<mgrwt>
<rscale>  0 0.13147357E+04</rscale>
<asrwt>0</asrwt>
<pdfrwt beam="1">  1        2 0.23824404E+00 0.13568468E+04</pdfrwt>
<pdfrwt beam="2">  1       -2 0.20298214E+00 0.13568468E+04</pdfrwt>
<totfact> 0.14461344E+00</totfact>
</mgrwt>
</event>
<event>
 4    1  0.1998832E-007  0.8013780E+03  0.7818608E-02  0.9707825E-01
          2   -1    0    0  501    0  0.00000000000E+00  0.00000000000E+00  0.10376338939E+04  0.10376338939E+04  0.25500000000E-02 0. -1.
         -2   -1    0    0    0  501 -0.00000000000E+00 -0.00000000000E+00 -0.11426600652E+04  0.11426600652E+04  0.25500000000E-02 0.  1.
    8880023    1    1    2    0    0 -0.35517367788E+02 -0.45512080714E+03 -0.92843941909E+03  0.12264609222E+04  0.65864270000E+03 0.  0.
    8880022    1    1    2    0    0  0.35517367788E+02  0.45512080714E+03  0.82341324781E+03  0.95383303685E+03  0.15294330000E+03 0.  0.
<mgrwt>
<rscale>  0 0.70552829E+03</rscale>
<asrwt>0</asrwt>
<pdfrwt beam="1">  1        2 0.15963598E+00 0.80137796E+03</pdfrwt>
<pdfrwt beam="2">  1       -2 0.17579386E+00 0.80137796E+03</pdfrwt>
<totfact> 0.46892198E+00</totfact>
</mgrwt>
</event>
<event>
 4    1  0.1998832E-007  0.8649317E+03  0.7818608E-02  0.9584850E-01
          2   -1    0    0  501    0  0.00000000000E+00  0.00000000000E+00  0.33987431479E+04  0.33987431479E+04  0.25500000000E-02 0. -1.
         -2   -1    0    0    0  501 -0.00000000000E+00 -0.00000000000E+00 -0.28746220848E+03  0.28746220849E+03  0.25500000000E-02 0.  1.
    8880023    1    1    2    0    0  0.24805132654E+03 -0.50275954251E+03  0.47528439001E+03  0.98691543500E+03  0.65864270000E+03 0.  1.
    8880022    1    1    2    0    0 -0.24805132654E+03  0.50275954251E+03  0.26359965494E+04  0.26992899214E+04  0.15294330000E+03 0.  0.
<mgrwt>
<rscale>  0 0.78307048E+03</rscale>
<asrwt>0</asrwt>
<pdfrwt beam="1">  1        2 0.52288351E+00 0.86493169E+03</pdfrwt>
<pdfrwt beam="2">  1       -2 0.44224960E-01 0.86493169E+03</pdfrwt>
<totfact> 0.48952288E+00</totfact>
</mgrwt>
</event>
<event>
 4    1  0.1998832E-007  0.1098946E+04  0.7818608E-02  0.9262230E-01
          2   -1    0    0  501    0  0.00000000000E+00  0.00000000000E+00  0.24820235081E+04  0.24820235081E+04  0.25500000000E-02 0. -1.
         -2   -1    0    0    0  501 -0.00000000000E+00 -0.00000000000E+00 -0.88835810838E+03  0.88835810838E+03  0.25500000000E-02 0.  1.
    8880023    1    1    2    0    0 -0.11374214275E+03 -0.87231607842E+03 -0.41303006860E+03  0.11740002809E+04  0.65864270000E+03 0.  1.
    8880022    1    1    2    0    0  0.11374214275E+03  0.87231607842E+03  0.20066954683E+04  0.21963813356E+04  0.15294330000E+03 0.  0.
<mgrwt>
<rscale>  0 0.10433562E+04</rscale>
<asrwt>0</asrwt>
<pdfrwt beam="1">  1        2 0.38184977E+00 0.10989462E+04</pdfrwt>
<pdfrwt beam="2">  1       -2 0.13667048E+00 0.10989462E+04</pdfrwt>
<totfact> 0.13517395E+00</totfact>
</mgrwt>
</event>
<event>
 4    1  0.1998832E-007  0.1684083E+04  0.7818608E-02  0.8789522E-01
         -2   -1    0    0    0  501 -0.00000000000E+00  0.00000000000E+00  0.27311040904E+04  0.27311040904E+04  0.25500000000E-02 0.  1.
          2   -1    0    0  501    0  0.00000000000E+00 -0.00000000000E+00 -0.21826047946E+04  0.21826047946E+04  0.25500000000E-02 0. -1.
    8880023    1    1    2    0    0  0.15390837171E+04 -0.18315797581E+03  0.21157608353E+04  0.27041781840E+04  0.65864270000E+03 0.  0.
    8880022    1    1    2    0    0 -0.15390837171E+04  0.18315797581E+03 -0.15672615396E+04  0.22095307010E+04  0.15294330000E+03 0.  0.
<mgrwt>
<rscale>  0 0.16514965E+04</rscale>
<asrwt>0</asrwt>
<pdfrwt beam="1">  1        2 0.33578535E+00 0.16840831E+04</pdfrwt>
<pdfrwt beam="2">  1       -2 0.42016986E+00 0.16840831E+04</pdfrwt>
<totfact> 0.26459066E-02</totfact>
</mgrwt>
</event>
<event>
 4    1  0.1998832E-007  0.1126331E+04  0.7818608E-02  0.9232291E-01
         -2   -1    0    0    0  501 -0.00000000000E+00  0.00000000000E+00  0.41357889552E+03  0.41357889553E+03  0.25500000000E-02 0.  1.
          2   -1    0    0  501    0  0.00000000000E+00 -0.00000000000E+00 -0.29277183901E+04  0.29277183901E+04  0.25500000000E-02 0. -1.
    8880023    1    1    2    0    0 -0.75171465588E+03 -0.51936182951E+03 -0.76369440372E+03  0.13608273154E+04  0.65864270000E+03 0.  0.
    8880022    1    1    2    0    0  0.75171465588E+03  0.51936182951E+03 -0.17504450909E+04  0.19804699702E+04  0.15294330000E+03 0.  0.
<mgrwt>
<rscale>  0 0.10726261E+04</rscale>
<asrwt>0</asrwt>
<pdfrwt beam="1">  1        2 0.45041820E+00 0.11263311E+04</pdfrwt>
<pdfrwt beam="2">  1       -2 0.63627524E-01 0.11263311E+04</pdfrwt>
<totfact> 0.44308009E+00</totfact>
</mgrwt>
</event>
<event>
 4    1  0.1998832E-007  0.7811626E+03  0.7818608E-02  0.9753113E-01
         -2   -1    0    0    0  501 -0.00000000000E+00  0.00000000000E+00  0.35123470108E+03  0.35123470109E+03  0.25500000000E-02 0.  1.
          2   -1    0    0  501    0  0.00000000000E+00 -0.00000000000E+00 -0.18102715183E+04  0.18102715183E+04  0.25500000000E-02 0. -1.
    8880023    1    1    2    0    0  0.40824688669E+03 -0.98687664120E+02 -0.17311747540E+03  0.80011539298E+03  0.65864270000E+03 0.  1.
    8880022    1    1    2    0    0 -0.40824688669E+03  0.98687664120E+02 -0.12859193418E+04  0.13613908264E+04  0.15294330000E+03 0.  0.
<mgrwt>
<rscale>  0 0.67940625E+03</rscale>
<asrwt>0</asrwt>
<pdfrwt beam="1">  1        2 0.27850331E+00 0.78116258E+03</pdfrwt>
<pdfrwt beam="2">  1       -2 0.54036109E-01 0.78116258E+03</pdfrwt>
<totfact> 0.28156993E+01</totfact>
</mgrwt>
</event>
<event>
 4    1  0.1998832E-007  0.1118375E+04  0.7818608E-02  0.9240869E-01
          2   -1    0    0  501    0  0.00000000000E+00  0.00000000000E+00  0.50465460111E+03  0.50465460112E+03  0.25500000000E-02 0. -1.
         -2   -1    0    0    0  501 -0.00000000000E+00 -0.00000000000E+00 -0.27753032110E+04  0.27753032110E+04  0.25500000000E-02 0.  1.
    8880023    1    1    2    0    0 -0.69466588387E+03 -0.57826590896E+03 -0.20528694543E+04  0.23377415072E+04  0.65864270000E+03 0.  1.
    8880022    1    1    2    0    0  0.69466588387E+03  0.57826590896E+03 -0.21777915557E+03  0.94221630494E+03  0.15294330000E+03 0.  0.
<mgrwt>
<rscale>  0 0.10641373E+04</rscale>
<asrwt>0</asrwt>
<pdfrwt beam="1">  1        2 0.77639171E-01 0.11183749E+04</pdfrwt>
<pdfrwt beam="2">  1       -2 0.42696972E+00 0.11183749E+04</pdfrwt>
<totfact> 0.30175444E-01</totfact>
</mgrwt>
</event>
<event>
 4    1  0.1998832E-007  0.8022865E+03  0.7818608E-02  0.9705874E-01
          2   -1    0    0  501    0  0.00000000000E+00  0.00000000000E+00  0.30714647506E+04  0.30714647506E+04  0.25500000000E-02 0. -1.
         -2   -1    0    0    0  501 -0.00000000000E+00 -0.00000000000E+00 -0.77521906876E+03  0.77521906877E+03  0.25500000000E-02 0.  1.
    8880023    1    1    2    0    0  0.45768206787E+03 -0.19508040366E+02 -0.54163326158E+03  0.96800322066E+03  0.65864270000E+03 0.  1.
    8880022    1    1    2    0    0 -0.45768206787E+03  0.19508040366E+02  0.28378789434E+04  0.28786805987E+04  0.15294330000E+03 0.  0.
<mgrwt>
<rscale>  0 0.70668143E+03</rscale>
<asrwt>0</asrwt>
<pdfrwt beam="1">  1        2 0.47253302E+00 0.80228651E+03</pdfrwt>
<pdfrwt beam="2">  1       -2 0.11926448E+00 0.80228651E+03</pdfrwt>
<totfact> 0.89584902E-01</totfact>
</mgrwt>
</event>
<event>
 4    1  0.1998832E-007  0.8558601E+03  0.7818608E-02  0.9600970E-01
         -2   -1    0    0    0  501 -0.00000000000E+00  0.00000000000E+00  0.90997017874E+03  0.90997017874E+03  0.25500000000E-02 0.  1.
          2   -1    0    0  501    0  0.00000000000E+00 -0.00000000000E+00 -0.27380378903E+04  0.27380378903E+04  0.25500000000E-02 0. -1.
    8880023    1    1    2    0    0 -0.28076299048E+02 -0.54580036312E+03  0.66960117068E+03  0.10866748589E+04  0.65864270000E+03 0.  1.
    8880022    1    1    2    0    0  0.28076299048E+02  0.54580036312E+03 -0.24976688823E+04  0.25613332102E+04  0.15294330000E+03 0.  0.
<mgrwt>
<rscale>  0 0.77231988E+03</rscale>
<asrwt>0</asrwt>
<pdfrwt beam="1">  1        2 0.42123660E+00 0.85586011E+03</pdfrwt>
<pdfrwt beam="2">  1       -2 0.13999541E+00 0.85586011E+03</pdfrwt>
<totfact> 0.93852370E-01</totfact>
</mgrwt>
</event>
<event>
 4    1  0.1998832E-007  0.6889236E+03  0.7818608E-02  0.1004668E+00
          2   -1    0    0  501    0  0.00000000000E+00  0.00000000000E+00  0.60373860494E+03  0.60373860494E+03  0.25500000000E-02 0. -1.
         -2   -1    0    0    0  501 -0.00000000000E+00 -0.00000000000E+00 -0.16326922658E+04  0.16326922658E+04  0.25500000000E-02 0.  1.
    8880023    1    1    2    0    0  0.66457725513E+02  0.19075860919E+03 -0.15283449596E+04  0.16764408722E+04  0.65864270000E+03 0.  1.
    8880022    1    1    2    0    0 -0.66457725513E+02 -0.19075860919E+03  0.49939129870E+03  0.55998999856E+03  0.15294330000E+03 0.  0.
<mgrwt>
<rscale>  0 0.53649754E+03</rscale>
<asrwt>0</asrwt>
<pdfrwt beam="1">  1        2 0.92882863E-01 0.68892357E+03</pdfrwt>
<pdfrwt beam="2">  1       -2 0.25118342E+00 0.68892357E+03</pdfrwt>
<totfact> 0.32341181E+00</totfact>
</mgrwt>
</event>
<event>
 4    1  0.1998832E-007  0.7993037E+03  0.7818608E-02  0.9712304E-01
         -2   -1    0    0    0  501 -0.00000000000E+00  0.00000000000E+00  0.48360961742E+03  0.48360961743E+03  0.25500000000E-02 0.  1.
          2   -1    0    0  501    0  0.00000000000E+00 -0.00000000000E+00 -0.11377931090E+04  0.11377931090E+04  0.25500000000E-02 0. -1.
    8880023    1    1    2    0    0  0.56330040700E+02  0.44933632829E+03  0.14518367728E+02  0.79943555004E+03  0.65864270000E+03 0. -1.
    8880022    1    1    2    0    0 -0.56330040700E+02 -0.44933632829E+03 -0.66870185929E+03  0.82196717638E+03  0.15294330000E+03 0.  0.
<mgrwt>
<rscale>  0 0.70288943E+03</rscale>
<asrwt>0</asrwt>
<pdfrwt beam="1">  1        2 0.17504509E+00 0.79930371E+03</pdfrwt>
<pdfrwt beam="2">  1       -2 0.74401480E-01 0.79930371E+03</pdfrwt>
<totfact> 0.34001413E+01</totfact>
</mgrwt>
</event>
<event>
 4    1  0.1998832E-007  0.8828800E+03  0.7818608E-02  0.9554093E-01
         -2   -1    0    0    0  501 -0.00000000000E+00  0.00000000000E+00  0.68865123787E+03  0.68865123788E+03  0.25500000000E-02 0.  1.
          2   -1    0    0  501    0  0.00000000000E+00 -0.00000000000E+00 -0.10566206303E+04  0.10566206303E+04  0.25500000000E-02 0. -1.
    8880023    1    1    2    0    0 -0.51437529834E+03  0.28475428795E+03 -0.62903643634E+03  0.10840498128E+04  0.65864270000E+03 0.  0.
    8880022    1    1    2    0    0  0.51437529834E+03 -0.28475428795E+03  0.26106704395E+03  0.66122205537E+03  0.15294330000E+03 0.  0.
<mgrwt>
<rscale>  0 0.80410579E+03</rscale>
<asrwt>0</asrwt>
<pdfrwt beam="1">  1        2 0.16255702E+00 0.88288004E+03</pdfrwt>
<pdfrwt beam="2">  1       -2 0.10594634E+00 0.88288004E+03</pdfrwt>
<totfact> 0.16741968E+01</totfact>
</mgrwt>
</event>
<event>
 4    1  0.1998832E-007  0.7824787E+03  0.7818608E-02  0.9750046E-01
         -2   -1    0    0    0  501 -0.00000000000E+00  0.00000000000E+00  0.13631516891E+04  0.13631516891E+04  0.25500000000E-02 0.  1.
          2   -1    0    0  501    0  0.00000000000E+00 -0.00000000000E+00 -0.57177554061E+03  0.57177554061E+03  0.25500000000E-02 0. -1.
    8880023    1    1    2    0    0  0.16783952730E+03  0.38767595083E+03  0.11284917571E+04  0.13732321734E+04  0.65864270000E+03 0.  0.
    8880022    1    1    2    0    0 -0.16783952730E+03 -0.38767595083E+03 -0.33711560862E+03  0.56169505638E+03  0.15294330000E+03 0.  0.
<mgrwt>
<rscale>  0 0.68113655E+03</rscale>
<asrwt>0</asrwt>
<pdfrwt beam="1">  1        2 0.87965469E-01 0.78247873E+03</pdfrwt>
<pdfrwt beam="2">  1       -2 0.20971564E+00 0.78247873E+03</pdfrwt>
<totfact> 0.61505893E+00</totfact>
</mgrwt>
</event>
<event>
 4    1  0.1998832E-007  0.9780370E+03  0.7818608E-02  0.9410873E-01
          2   -1    0    0  501    0  0.00000000000E+00  0.00000000000E+00  0.97552620569E+03  0.97552620570E+03  0.25500000000E-02 0. -1.
         -2   -1    0    0    0  501 -0.00000000000E+00 -0.00000000000E+00 -0.95904084377E+03  0.95904084377E+03  0.25500000000E-02 0.  1.
    8880023    1    1    2    0    0  0.25128458735E+03  0.67793974172E+03  0.45128830842E+03  0.10771339661E+04  0.65864270000E+03 0.  0.
    8880022    1    1    2    0    0 -0.25128458735E+03 -0.67793974172E+03 -0.43480294650E+03  0.85743308342E+03  0.15294330000E+03 0.  0.
<mgrwt>
<rscale>  0 0.91186231E+03</rscale>
<asrwt>0</asrwt>
<pdfrwt beam="1">  1        2 0.15008095E+00 0.97803704E+03</pdfrwt>
<pdfrwt beam="2">  1       -2 0.14754475E+00 0.97803704E+03</pdfrwt>
<totfact> 0.81230678E+00</totfact>
</mgrwt>
</event>
<event>
 4    1  0.1998832E-007  0.1076446E+04  0.7818608E-02  0.9287745E-01
          2   -1    0    0  501    0  0.00000000000E+00  0.00000000000E+00  0.29188491642E+04  0.29188491642E+04  0.25500000000E-02 0. -1.
         -2   -1    0    0    0  501 -0.00000000000E+00 -0.00000000000E+00 -0.45542440169E+03  0.45542440169E+03  0.25500000000E-02 0.  1.
    8880023    1    1    2    0    0  0.72026588409E+03  0.45402921725E+03  0.42034782718E+03  0.11556071893E+04  0.65864270000E+03 0.  1.
    8880022    1    1    2    0    0 -0.72026588409E+03 -0.45402921725E+03  0.20430769354E+04  0.22186663766E+04  0.15294330000E+03 0.  0.
<mgrwt>
<rscale>  0 0.10191893E+04</rscale>
<asrwt>0</asrwt>
<pdfrwt beam="1">  1        2 0.44905374E+00 0.10764459E+04</pdfrwt>
<pdfrwt beam="2">  1       -2 0.70065289E-01 0.10764459E+04</pdfrwt>
<totfact> 0.36621949E+00</totfact>
</mgrwt>
</event>
<event>
 4    1  0.1998832E-007  0.9468736E+03  0.7818608E-02  0.9454627E-01
          2   -1    0    0  501    0  0.00000000000E+00  0.00000000000E+00  0.87414498131E+03  0.87414498132E+03  0.25500000000E-02 0. -1.
         -2   -1    0    0    0  501 -0.00000000000E+00 -0.00000000000E+00 -0.17343581609E+04  0.17343581609E+04  0.25500000000E-02 0.  1.
    8880023    1    1    2    0    0  0.59171082656E+03 -0.33561536209E+03 -0.14252087520E+04  0.17110784805E+04  0.65864270000E+03 0.  1.
    8880022    1    1    2    0    0 -0.59171082656E+03  0.33561536209E+03  0.56499557241E+03  0.89742466168E+03  0.15294330000E+03 0.  0.
<mgrwt>
<rscale>  0 0.87713290E+03</rscale>
<asrwt>0</asrwt>
<pdfrwt beam="1">  1        2 0.13448384E+00 0.94687358E+03</pdfrwt>
<pdfrwt beam="2">  1       -2 0.26682433E+00 0.94687358E+03</pdfrwt>
<totfact> 0.15574434E+00</totfact>
</mgrwt>
</event>
<event>
 4    1  0.1998832E-007  0.1061355E+04  0.7818608E-02  0.9305355E-01
          2   -1    0    0  501    0  0.00000000000E+00  0.00000000000E+00  0.31026366753E+04  0.31026366753E+04  0.25500000000E-02 0. -1.
         -2   -1    0    0    0  501 -0.00000000000E+00 -0.00000000000E+00 -0.13990156109E+04  0.13990156109E+04  0.25500000000E-02 0.  1.
    8880023    1    1    2    0    0  0.32582311938E+03  0.76583459276E+03 -0.11265002094E+04  0.15477326180E+04  0.65864270000E+03 0.  0.
    8880022    1    1    2    0    0 -0.32582311938E+03 -0.76583459276E+03  0.28301212738E+04  0.29539196682E+04  0.15294330000E+03 0.  0.
<mgrwt>
<rscale>  0 0.10029139E+04</rscale>
<asrwt>0</asrwt>
<pdfrwt beam="1">  1        2 0.47732872E+00 0.10613546E+04</pdfrwt>
<pdfrwt beam="2">  1       -2 0.21523317E+00 0.10613546E+04</pdfrwt>
<totfact> 0.16032691E-01</totfact>
</mgrwt>
</event>
<event>
 4    1  0.1998832E-007  0.6949215E+03  0.7818608E-02  0.1001896E+00
         -2   -1    0    0    0  501 -0.00000000000E+00  0.00000000000E+00  0.67580279508E+03  0.67580279509E+03  0.25500000000E-02 0.  1.
          2   -1    0    0  501    0  0.00000000000E+00 -0.00000000000E+00 -0.83749220268E+03  0.83749220268E+03  0.25500000000E-02 0. -1.
    8880023    1    1    2    0    0 -0.21717630325E+03 -0.44046442021E+02  0.46165055941E+03  0.83428836802E+03  0.65864270000E+03 0.  1.
    8880022    1    1    2    0    0  0.21717630325E+03  0.44046442021E+02 -0.62333996701E+03  0.67900662974E+03  0.15294330000E+03 0.  0.
<mgrwt>
<rscale>  0 0.54826688E+03</rscale>
<asrwt>0</asrwt>
<pdfrwt beam="1">  1        2 0.12884495E+00 0.69492146E+03</pdfrwt>
<pdfrwt beam="2">  1       -2 0.10396966E+00 0.69492146E+03</pdfrwt>
<totfact> 0.24868951E+01</totfact>
</mgrwt>
</event>
<event>
 4    1  0.1998832E-007  0.6844729E+03  0.7818608E-02  0.1006899E+00
         -2   -1    0    0    0  501 -0.00000000000E+00  0.00000000000E+00  0.35890227239E+03  0.35890227239E+03  0.25500000000E-02 0.  1.
          2   -1    0    0  501    0  0.00000000000E+00 -0.00000000000E+00 -0.87745048920E+03  0.87745048920E+03  0.25500000000E-02 0. -1.
    8880023    1    1    2    0    0  0.16281600149E+03  0.90464513255E+02 -0.22484166194E+02  0.68484204200E+03  0.65864270000E+03 0.  1.
    8880022    1    1    2    0    0 -0.16281600149E+03 -0.90464513255E+02 -0.49606405062E+03  0.55151071960E+03  0.15294330000E+03 0. -1.
<mgrwt>
<rscale>  0 0.52725989E+03</rscale>
<asrwt>0</asrwt>
<pdfrwt beam="1">  1        2 0.13499238E+00 0.68447285E+03</pdfrwt>
<pdfrwt beam="2">  1       -2 0.55215735E-01 0.68447285E+03</pdfrwt>
<totfact> 0.95345178E+01</totfact>
</mgrwt>
</event>
<event>
 4    1  0.1998832E-007  0.9612654E+03  0.7818608E-02  0.9434088E-01
         -2   -1    0    0    0  501 -0.00000000000E+00  0.00000000000E+00  0.72539464173E+03  0.72539464174E+03  0.25500000000E-02 0.  1.
          2   -1    0    0  501    0  0.00000000000E+00 -0.00000000000E+00 -0.14533203972E+04  0.14533203972E+04  0.25500000000E-02 0. -1.
    8880023    1    1    2    0    0  0.28224199268E+03  0.64074991437E+03  0.22414859239E+03  0.98705308516E+03  0.65864270000E+03 0.  1.
    8880022    1    1    2    0    0 -0.28224199268E+03 -0.64074991437E+03 -0.95207434784E+03  0.11916619538E+04  0.15294330000E+03 0.  0.
<mgrwt>
<rscale>  0 0.89322723E+03</rscale>
<asrwt>0</asrwt>
<pdfrwt beam="1">  1        2 0.22358775E+00 0.96126542E+03</pdfrwt>
<pdfrwt beam="2">  1       -2 0.11159918E+00 0.96126542E+03</pdfrwt>
<totfact> 0.85445918E+00</totfact>
</mgrwt>
</event>
<event>
 4    1  0.1998832E-007  0.1028198E+04  0.7818608E-02  0.9345562E-01
         -2   -1    0    0    0  501 -0.00000000000E+00  0.00000000000E+00  0.53916533945E+03  0.53916533946E+03  0.25500000000E-02 0.  1.
          2   -1    0    0  501    0  0.00000000000E+00 -0.00000000000E+00 -0.23990414205E+04  0.23990414205E+04  0.25500000000E-02 0. -1.
    8880023    1    1    2    0    0  0.53921669346E+03 -0.57673740649E+03 -0.13753371420E+03  0.10373554875E+04  0.65864270000E+03 0.  0.
    8880022    1    1    2    0    0 -0.53921669346E+03  0.57673740649E+03 -0.17223423669E+04  0.19008512726E+04  0.15294330000E+03 0.  0.
<mgrwt>
<rscale>  0 0.96694430E+03</rscale>
<asrwt>0</asrwt>
<pdfrwt beam="1">  1        2 0.36908329E+00 0.10281979E+04</pdfrwt>
<pdfrwt beam="2">  1       -2 0.82948515E-01 0.10281979E+04</pdfrwt>
<totfact> 0.50928643E+00</totfact>
</mgrwt>
</event>
<event>
 4    1  0.1998832E-007  0.1937664E+04  0.7818608E-02  0.8649980E-01
          2   -1    0    0  501    0  0.00000000000E+00  0.00000000000E+00  0.29210817881E+04  0.29210817881E+04  0.25500000000E-02 0. -1.
         -2   -1    0    0    0  501 -0.00000000000E+00 -0.00000000000E+00 -0.15491706399E+04  0.15491706399E+04  0.25500000000E-02 0.  1.
    8880023    1    1    2    0    0 -0.15401713679E+04  0.97396258428E+03  0.17407232942E+04  0.26047377510E+04  0.65864270000E+03 0.  0.
    8880022    1    1    2    0    0  0.15401713679E+04 -0.97396258428E+03 -0.36881214597E+03  0.18655146770E+04  0.15294330000E+03 0.  0.
<mgrwt>
<rscale>  0 0.19098273E+04</rscale>
<asrwt>0</asrwt>
<pdfrwt beam="1">  1        2 0.44939719E+00 0.19376638E+04</pdfrwt>
<pdfrwt beam="2">  1       -2 0.23833395E+00 0.19376638E+04</pdfrwt>
<totfact> 0.13234894E-01</totfact>
</mgrwt>
</event>
<event>
 4    1  0.1998832E-007  0.1196322E+04  0.7818608E-02  0.9160705E-01
         -2   -1    0    0    0  501 -0.00000000000E+00  0.00000000000E+00  0.52161835933E+03  0.52161835934E+03  0.25500000000E-02 0.  1.
          2   -1    0    0  501    0  0.00000000000E+00 -0.00000000000E+00 -0.28480334221E+04  0.28480334221E+04  0.25500000000E-02 0. -1.
    8880023    1    1    2    0    0 -0.81506809345E+03 -0.57709731296E+03 -0.52968596744E+03  0.13083404511E+04  0.65864270000E+03 0.  0.
    8880022    1    1    2    0    0  0.81506809345E+03  0.57709731296E+03 -0.17967290953E+04  0.20613113303E+04  0.15294330000E+03 0.  0.
<mgrwt>
<rscale>  0 0.11468382E+04</rscale>
<asrwt>0</asrwt>
<pdfrwt beam="1">  1        2 0.43815898E+00 0.11963225E+04</pdfrwt>
<pdfrwt beam="2">  1       -2 0.80248980E-01 0.11963225E+04</pdfrwt>
<totfact> 0.29423149E+00</totfact>
</mgrwt>
</event>
<event>
 4    1  0.1998832E-007  0.8146769E+03  0.7818608E-02  0.9679916E-01
         -2   -1    0    0    0  501 -0.00000000000E+00  0.00000000000E+00  0.11178041086E+04  0.11178041086E+04  0.25500000000E-02 0.  1.
          2   -1    0    0  501    0  0.00000000000E+00 -0.00000000000E+00 -0.11907226850E+04  0.11907226850E+04  0.25500000000E-02 0. -1.
    8880023    1    1    2    0    0  0.46346031267E+03 -0.12285269128E+03  0.89950296769E+03  0.12135913811E+04  0.65864270000E+03 0.  1.
    8880022    1    1    2    0    0 -0.46346031267E+03  0.12285269128E+03 -0.97242154412E+03  0.10949354125E+04  0.15294330000E+03 0.  0.
<mgrwt>
<rscale>  0 0.72225265E+03</rscale>
<asrwt>0</asrwt>
<pdfrwt beam="1">  1        2 0.18318810E+00 0.81467690E+03</pdfrwt>
<pdfrwt beam="2">  1       -2 0.17196986E+00 0.81467690E+03</pdfrwt>
<totfact> 0.40142632E+00</totfact>
</mgrwt>
</event>
<event>
 4    1  0.1998832E-007  0.8348029E+03  0.7818608E-02  0.9640059E-01
         -2   -1    0    0    0  501 -0.00000000000E+00  0.00000000000E+00  0.44620700531E+03  0.44620700532E+03  0.25500000000E-02 0.  1.
          2   -1    0    0  501    0  0.00000000000E+00 -0.00000000000E+00 -0.33115405209E+04  0.33115405209E+04  0.25500000000E-02 0. -1.
    8880023    1    1    2    0    0 -0.37163290468E+03  0.35351751390E+03  0.81479333563E+01  0.83484264599E+03  0.65864270000E+03 0.  0.
    8880022    1    1    2    0    0  0.37163290468E+03 -0.35351751390E+03 -0.28734814489E+04  0.29229048802E+04  0.15294330000E+03 0.  0.
<mgrwt>
<rscale>  0 0.74700625E+03</rscale>
<asrwt>0</asrwt>
<pdfrwt beam="1">  1        2 0.50946776E+00 0.83480288E+03</pdfrwt>
<pdfrwt beam="2">  1       -2 0.68647234E-01 0.83480288E+03</pdfrwt>
<totfact> 0.22516083E+00</totfact>
</mgrwt>
</event>
<event>
 4    1  0.1998832E-007  0.3245051E+04  0.7818608E-02  0.8181209E-01
         -2   -1    0    0    0  501 -0.00000000000E+00  0.00000000000E+00  0.31141795358E+04  0.31141795358E+04  0.25500000000E-02 0.  1.
          2   -1    0    0  501    0  0.00000000000E+00 -0.00000000000E+00 -0.36421019796E+04  0.36421019796E+04  0.25500000000E-02 0. -1.
    8880023    1    1    2    0    0  0.13828066497E+04 -0.28608381036E+04 -0.12783723564E+04  0.34877779421E+04  0.65864270000E+03 0.  0.
    8880022    1    1    2    0    0 -0.13828066497E+04  0.28608381036E+04  0.75044991256E+03  0.32685035734E+04  0.15294330000E+03 0.  0.
<mgrwt>
<rscale>  0 0.32289657E+04</rscale>
<asrwt>0</asrwt>
<pdfrwt beam="1">  1        2 0.56032339E+00 0.32450515E+04</pdfrwt>
<pdfrwt beam="2">  1       -2 0.47910454E+00 0.32450515E+04</pdfrwt>
<totfact> 0.11076020E-03</totfact>
</mgrwt>
</event>
<event>
 4    1  0.1998832E-007  0.1146550E+04  0.7818608E-02  0.9210916E-01
         -2   -1    0    0    0  501 -0.00000000000E+00  0.00000000000E+00  0.20547718586E+04  0.20547718586E+04  0.25500000000E-02 0.  1.
          2   -1    0    0  501    0  0.00000000000E+00 -0.00000000000E+00 -0.67893880240E+03  0.67893880240E+03  0.25500000000E-02 0. -1.
    8880023    1    1    2    0    0  0.92206545172E+03  0.17482018917E+03  0.13651821624E+04  0.17827785445E+04  0.65864270000E+03 0.  0.
    8880022    1    1    2    0    0 -0.92206545172E+03 -0.17482018917E+03  0.10650893838E+02  0.95093211658E+03  0.15294330000E+03 0.  0.
<mgrwt>
<rscale>  0 0.10941461E+04</rscale>
<asrwt>0</asrwt>
<pdfrwt beam="1">  1        2 0.10445212E+00 0.11465500E+04</pdfrwt>
<pdfrwt beam="2">  1       -2 0.31611875E+00 0.11465500E+04</pdfrwt>
<totfact> 0.10666275E+00</totfact>
</mgrwt>
</event>
<event>
 4    1  0.1998832E-007  0.8517722E+03  0.7818608E-02  0.9608370E-01
         -2   -1    0    0    0  501 -0.00000000000E+00  0.00000000000E+00  0.90101597985E+03  0.90101597986E+03  0.25500000000E-02 0.  1.
          2   -1    0    0  501    0  0.00000000000E+00 -0.00000000000E+00 -0.20766986775E+04  0.20766986775E+04  0.25500000000E-02 0. -1.
    8880023    1    1    2    0    0 -0.53877295684E+03  0.37805998573E+02  0.64758579419E+03  0.10699921307E+04  0.65864270000E+03 0.  1.
    8880022    1    1    2    0    0  0.53877295684E+03 -0.37805998573E+02 -0.18232684918E+04  0.19077225267E+04  0.15294330000E+03 0.  0.
<mgrwt>
<rscale>  0 0.76744658E+03</rscale>
<asrwt>0</asrwt>
<pdfrwt beam="1">  1        2 0.31949210E+00 0.85177215E+03</pdfrwt>
<pdfrwt beam="2">  1       -2 0.13861784E+00 0.85177215E+03</pdfrwt>
<totfact> 0.22786789E+00</totfact>
</mgrwt>
</event>
<event>
 4    1  0.1998832E-007  0.7220515E+03  0.7818608E-02  0.9915704E-01
          2   -1    0    0  501    0  0.00000000000E+00  0.00000000000E+00  0.12127470054E+04  0.12127470054E+04  0.25500000000E-02 0. -1.
         -2   -1    0    0    0  501 -0.00000000000E+00 -0.00000000000E+00 -0.46701125671E+03  0.46701125671E+03  0.25500000000E-02 0.  1.
    8880023    1    1    2    0    0 -0.15461400037E+03  0.25227511197E+03 -0.13819382083E+03  0.73515709859E+03  0.65864270000E+03 0.  0.
    8880022    1    1    2    0    0  0.15461400037E+03 -0.25227511197E+03  0.88392956949E+03  0.94460116349E+03  0.15294330000E+03 0.  0.
<mgrwt>
<rscale>  0 0.59506185E+03</rscale>
<asrwt>0</asrwt>
<pdfrwt beam="1">  1        2 0.18657646E+00 0.72205154E+03</pdfrwt>
<pdfrwt beam="2">  1       -2 0.71847886E-01 0.72205154E+03</pdfrwt>
<totfact> 0.33384073E+01</totfact>
</mgrwt>
</event>
<event>
 4    1  0.1998832E-007  0.9530378E+03  0.7818608E-02  0.9445757E-01
         -2   -1    0    0    0  501 -0.00000000000E+00  0.00000000000E+00  0.67002180280E+03  0.67002180280E+03  0.25500000000E-02 0.  1.
          2   -1    0    0  501    0  0.00000000000E+00 -0.00000000000E+00 -0.20393325222E+04  0.20393325222E+04  0.25500000000E-02 0. -1.
    8880023    1    1    2    0    0 -0.64323391400E+03 -0.24641624920E+03  0.21326544754E+03  0.97660800394E+03  0.65864270000E+03 0.  0.
    8880022    1    1    2    0    0  0.64323391400E+03  0.24641624920E+03 -0.15825761669E+04  0.17327463211E+04  0.15294330000E+03 0.  0.
<mgrwt>
<rscale>  0 0.88403868E+03</rscale>
<asrwt>0</asrwt>
<pdfrwt beam="1">  1        2 0.31374346E+00 0.95303780E+03</pdfrwt>
<pdfrwt beam="2">  1       -2 0.10308028E+00 0.95303780E+03</pdfrwt>
<totfact> 0.49138680E+00</totfact>
</mgrwt>
</event>
<event>
 4    1  0.1998832E-007  0.8113242E+03  0.7818608E-02  0.9686825E-01
          2   -1    0    0  501    0  0.00000000000E+00  0.00000000000E+00  0.17829853122E+04  0.17829853122E+04  0.25500000000E-02 0. -1.
         -2   -1    0    0    0  501 -0.00000000000E+00 -0.00000000000E+00 -0.42156731086E+03  0.42156731087E+03  0.25500000000E-02 0.  1.
    8880023    1    1    2    0    0  0.29888099701E+03  0.36756900500E+03  0.62761531972E+02  0.81374814284E+03  0.65864270000E+03 0.  0.
    8880022    1    1    2    0    0 -0.29888099701E+03 -0.36756900500E+03  0.12986564694E+04  0.13908044803E+04  0.15294330000E+03 0.  0.
<mgrwt>
<rscale>  0 0.71806662E+03</rscale>
<asrwt>0</asrwt>
<pdfrwt beam="1">  1        2 0.27430543E+00 0.81132424E+03</pdfrwt>
<pdfrwt beam="2">  1       -2 0.64856510E-01 0.81132424E+03</pdfrwt>
<totfact> 0.19759671E+01</totfact>
</mgrwt>
</event>
<event>
 4    1  0.1998832E-007  0.1023140E+04  0.7818608E-02  0.9351890E-01
          2   -1    0    0  501    0  0.00000000000E+00  0.00000000000E+00  0.96115251954E+03  0.96115251954E+03  0.25500000000E-02 0. -1.
         -2   -1    0    0    0  501 -0.00000000000E+00 -0.00000000000E+00 -0.98602486978E+03  0.98602486978E+03  0.25500000000E-02 0.  1.
    8880023    1    1    2    0    0  0.72096761981E+03  0.30530594809E+03 -0.35618718199E+03  0.10833676872E+04  0.65864270000E+03 0.  0.
    8880022    1    1    2    0    0 -0.72096761981E+03 -0.30530594809E+03  0.33131483176E+03  0.86380970214E+03  0.15294330000E+03 0.  0.
<mgrwt>
<rscale>  0 0.96142961E+03</rscale>
<asrwt>0</asrwt>
<pdfrwt beam="1">  1        2 0.14786962E+00 0.10231404E+04</pdfrwt>
<pdfrwt beam="2">  1       -2 0.15169613E+00 0.10231404E+04</pdfrwt>
<totfact> 0.76792694E+00</totfact>
</mgrwt>
</event>
<event>
 4    1  0.1998832E-007  0.6815606E+03  0.7818608E-02  0.1008454E+00
          2   -1    0    0  501    0  0.00000000000E+00  0.00000000000E+00  0.11036765943E+04  0.11036765943E+04  0.25500000000E-02 0. -1.
         -2   -1    0    0    0  501 -0.00000000000E+00 -0.00000000000E+00 -0.24609800352E+03  0.24609800353E+03  0.25500000000E-02 0.  1.
    8880023    1    1    2    0    0  0.90775558455E+02 -0.14991459302E+03  0.29816233773E+03  0.74392578468E+03  0.65864270000E+03 0.  0.
    8880022    1    1    2    0    0 -0.90775558455E+02  0.14991459302E+03  0.55941625305E+03  0.60584881315E+03  0.15294330000E+03 0.  0.
<mgrwt>
<rscale>  0 0.52093586E+03</rscale>
<asrwt>0</asrwt>
<pdfrwt beam="1">  1        2 0.16979640E+00 0.68156056E+03</pdfrwt>
<pdfrwt beam="2">  1       -2 0.37861232E-01 0.68156056E+03</pdfrwt>
<totfact> 0.14518106E+02</totfact>
</mgrwt>
</event>
<event>
 4    1  0.2941304E-007  0.7509358E+03  0.7818608E-02  0.9829166E-01
         -2   -1    0    0    0  501 -0.00000000000E+00  0.00000000000E+00  0.15856829221E+04  0.15856829221E+04  0.25500000000E-02 0.  1.
          2   -1    0    0  501    0  0.00000000000E+00 -0.00000000000E+00 -0.27077851140E+04  0.27077851140E+04  0.25500000000E-02 0. -1.
    8880023    1    1    2    0    0  0.22223721051E+03  0.28408611460E+03  0.14812913625E+04  0.16607614534E+04  0.65864270000E+03 0.  1.
    8880022    1    1    2    0    0 -0.22223721051E+03 -0.28408611460E+03 -0.26033935544E+04  0.26327065827E+04  0.15294330000E+03 0.  0.
<mgrwt>
<rscale>  0 0.63820568E+03</rscale>
<asrwt>0</asrwt>
<pdfrwt beam="1">  1        2 0.41658232E+00 0.75093575E+03</pdfrwt>
<pdfrwt beam="2">  1       -2 0.24395122E+00 0.75093575E+03</pdfrwt>
<totfact> 0.19754445E-01</totfact>
</mgrwt>
</event>
<event>
 4    1  0.1998832E-007  0.1158513E+04  0.7818608E-02  0.9198545E-01
         -2   -1    0    0    0  501 -0.00000000000E+00  0.00000000000E+00  0.97171427609E+03  0.97171427609E+03  0.25500000000E-02 0.  1.
          2   -1    0    0  501    0  0.00000000000E+00 -0.00000000000E+00 -0.20081735267E+04  0.20081735267E+04  0.25500000000E-02 0. -1.
    8880023    1    1    2    0    0  0.17455354310E+03 -0.93694887300E+03  0.42026099904E+03  0.12323845356E+04  0.65864270000E+03 0.  0.
    8880022    1    1    2    0    0 -0.17455354310E+03  0.93694887300E+03 -0.14567202496E+04  0.17475032672E+04  0.15294330000E+03 0.  0.
<mgrwt>
<rscale>  0 0.11068459E+04</rscale>
<asrwt>0</asrwt>
<pdfrwt beam="1">  1        2 0.30894977E+00 0.11585130E+04</pdfrwt>
<pdfrwt beam="2">  1       -2 0.14949450E+00 0.11585130E+04</pdfrwt>
<totfact> 0.19549859E+00</totfact>
</mgrwt>
</event>
<event>
 4    1  0.1998832E-007  0.8013730E+03  0.7818608E-02  0.9707835E-01
          2   -1    0    0  501    0  0.00000000000E+00  0.00000000000E+00  0.23406178646E+04  0.23406178646E+04  0.25500000000E-02 0. -1.
         -2   -1    0    0    0  501 -0.00000000000E+00 -0.00000000000E+00 -0.24864332849E+03  0.24864332850E+03  0.25500000000E-02 0.  1.
    8880023    1    1    2    0    0 -0.43078520104E+03  0.15103848673E+03  0.54508122904E+03  0.96918123507E+03  0.65864270000E+03 0.  1.
    8880022    1    1    2    0    0  0.43078520104E+03 -0.15103848673E+03  0.15468933071E+04  0.16200799580E+04  0.15294330000E+03 0.  0.
<mgrwt>
<rscale>  0 0.70552202E+03</rscale>
<asrwt>0</asrwt>
<pdfrwt beam="1">  1        2 0.36009505E+00 0.80137302E+03</pdfrwt>
<pdfrwt beam="2">  1       -2 0.38252820E-01 0.80137302E+03</pdfrwt>
<totfact> 0.28649337E+01</totfact>
</mgrwt>
</event>
<event>
 4    1  0.1998832E-007  0.9451714E+03  0.7818608E-02  0.9457096E-01
          2   -1    0    0  501    0  0.00000000000E+00  0.00000000000E+00  0.22812752295E+04  0.22812752295E+04  0.25500000000E-02 0. -1.
         -2   -1    0    0    0  501 -0.00000000000E+00 -0.00000000000E+00 -0.38031936329E+03  0.38031936330E+03  0.25500000000E-02 0.  1.
    8880023    1    1    2    0    0 -0.14676944960E+03 -0.66181374792E+03  0.43748604185E+03  0.10415099382E+04  0.65864270000E+03 0.  1.
    8880022    1    1    2    0    0  0.14676944960E+03  0.66181374792E+03  0.14634698244E+04  0.16200846546E+04  0.15294330000E+03 0.  0.
<mgrwt>
<rscale>  0 0.87522252E+03</rscale>
<asrwt>0</asrwt>
<pdfrwt beam="1">  1        2 0.35096542E+00 0.94517137E+03</pdfrwt>
<pdfrwt beam="2">  1       -2 0.58510671E-01 0.94517137E+03</pdfrwt>
<totfact> 0.12872076E+01</totfact>
</mgrwt>
</event>
<event>
 4    1  0.1998832E-007  0.9059678E+03  0.7818608E-02  0.9516518E-01
          2   -1    0    0  501    0  0.00000000000E+00  0.00000000000E+00  0.18484470017E+04  0.18484470017E+04  0.25500000000E-02 0. -1.
         -2   -1    0    0    0  501 -0.00000000000E+00 -0.00000000000E+00 -0.56773499282E+03  0.56773499283E+03  0.25500000000E-02 0.  1.
    8880023    1    1    2    0    0 -0.51901653971E+03  0.34291299880E+03 -0.82744117126E+02  0.90973858246E+03  0.65864270000E+03 0.  0.
    8880022    1    1    2    0    0  0.51901653971E+03 -0.34291299880E+03  0.13634561260E+04  0.15064434121E+04  0.15294330000E+03 0.  0.
<mgrwt>
<rscale>  0 0.83076864E+03</rscale>
<asrwt>0</asrwt>
<pdfrwt beam="1">  1        2 0.28437646E+00 0.90596782E+03</pdfrwt>
<pdfrwt beam="2">  1       -2 0.87343846E-01 0.90596782E+03</pdfrwt>
<totfact> 0.92803956E+00</totfact>
</mgrwt>
</event>
<event>
 4    1  0.1998832E-007  0.6652413E+03  0.7818608E-02  0.1019332E+00
         -2   -1    0    0    0  501 -0.00000000000E+00  0.00000000000E+00  0.29144288284E+03  0.29144288285E+03  0.25500000000E-02 0.  1.
          2   -1    0    0  501    0  0.00000000000E+00 -0.00000000000E+00 -0.63782385244E+03  0.63782385245E+03  0.25500000000E-02 0. -1.
    8880023    1    1    2    0    0  0.32627531944E+01 -0.93408648439E+02 -0.19117307877E+03  0.69216556796E+03  0.65864270000E+03 0.  1.
    8880022    1    1    2    0    0 -0.32627531944E+01  0.93408648439E+02 -0.15520789084E+03  0.23710116734E+03  0.15294330000E+03 0. -1.
<mgrwt>
<rscale>  0 0.47928517E+03</rscale>
<asrwt>0</asrwt>
<pdfrwt beam="1">  1        2 0.98126746E-01 0.66524133E+03</pdfrwt>
<pdfrwt beam="2">  1       -2 0.44837367E-01 0.66524133E+03</pdfrwt>
<totfact> 0.21993766E+02</totfact>
</mgrwt>
</event>
<event>
 4    1  0.1998832E-007  0.1112190E+04  0.7818608E-02  0.9247603E-01
         -2   -1    0    0    0  501 -0.00000000000E+00  0.00000000000E+00  0.11480408038E+04  0.11480408038E+04  0.25500000000E-02 0.  1.
          2   -1    0    0  501    0  0.00000000000E+00 -0.00000000000E+00 -0.20140356189E+04  0.20140356189E+04  0.25500000000E-02 0. -1.
    8880023    1    1    2    0    0 -0.23666167667E+02  0.89587797067E+03  0.72642489685E+03  0.13284053458E+04  0.65864270000E+03 0.  1.
    8880022    1    1    2    0    0  0.23666167667E+02 -0.89587797067E+03 -0.15924197120E+04  0.18336710768E+04  0.15294330000E+03 0.  0.
<mgrwt>
<rscale>  0 0.10575306E+04</rscale>
<asrwt>0</asrwt>
<pdfrwt beam="1">  1        2 0.30985163E+00 0.11121905E+04</pdfrwt>
<pdfrwt beam="2">  1       -2 0.17662166E+00 0.11121905E+04</pdfrwt>
<totfact> 0.12341887E+00</totfact>
</mgrwt>
</event>
<event>
 4    1  0.1998832E-007  0.1172171E+04  0.7818608E-02  0.9184660E-01
          2   -1    0    0  501    0  0.00000000000E+00  0.00000000000E+00  0.32058227729E+04  0.32058227729E+04  0.25500000000E-02 0. -1.
         -2   -1    0    0    0  501 -0.00000000000E+00 -0.00000000000E+00 -0.46518838660E+03  0.46518838660E+03  0.25500000000E-02 0.  1.
    8880023    1    1    2    0    0 -0.83934597314E+03  0.48546214416E+03  0.60169478165E+03  0.13175818656E+04  0.65864270000E+03 0.  0.
    8880022    1    1    2    0    0  0.83934597314E+03 -0.48546214416E+03  0.21389396047E+04  0.23534292939E+04  0.15294330000E+03 0.  0.
<mgrwt>
<rscale>  0 0.11213173E+04</rscale>
<asrwt>0</asrwt>
<pdfrwt beam="1">  1        2 0.49320351E+00 0.11721712E+04</pdfrwt>
<pdfrwt beam="2">  1       -2 0.71567442E-01 0.11721712E+04</pdfrwt>
<totfact> 0.22813830E+00</totfact>
</mgrwt>
</event>
<event>
 4    1  0.1998832E-007  0.1156185E+04  0.7818608E-02  0.9200937E-01
          2   -1    0    0  501    0  0.00000000000E+00  0.00000000000E+00  0.56280617654E+04  0.56280617654E+04  0.25500000000E-02 0. -1.
         -2   -1    0    0    0  501 -0.00000000000E+00 -0.00000000000E+00 -0.50590543075E+03  0.50590543075E+03  0.25500000000E-02 0.  1.
    8880023    1    1    2    0    0  0.87090711673E+03 -0.38009828950E+03  0.27002398422E+03  0.11872982245E+04  0.65864270000E+03 0.  1.
    8880022    1    1    2    0    0 -0.87090711673E+03  0.38009828950E+03  0.48521323504E+04  0.49466689716E+04  0.15294330000E+03 0.  0.
<mgrwt>
<rscale>  0 0.11043765E+04</rscale>
<asrwt>0</asrwt>
<pdfrwt beam="1">  1        2 0.86585571E+00 0.11561852E+04</pdfrwt>
<pdfrwt beam="2">  1       -2 0.77831600E-01 0.11561852E+04</pdfrwt>
<totfact> 0.54774440E-03</totfact>
</mgrwt>
</event>
<event>
 4    1  0.1998832E-007  0.6614481E+03  0.7818608E-02  0.1022720E+00
          2   -1    0    0  501    0  0.00000000000E+00  0.00000000000E+00  0.18914545729E+04  0.18914545729E+04  0.25500000000E-02 0. -1.
         -2   -1    0    0    0  501 -0.00000000000E+00 -0.00000000000E+00 -0.14657303080E+03  0.14657303082E+03  0.25500000000E-02 0.  1.
    8880023    1    1    2    0    0 -0.21808502130E+02 -0.56813576041E+02  0.63808315400E+03  0.91905588017E+03  0.65864270000E+03 0.  1.
    8880022    1    1    2    0    0  0.21808502130E+02  0.56813576041E+02  0.11067983881E+04  0.11189717235E+04  0.15294330000E+03 0.  0.
<mgrwt>
<rscale>  0 0.46717874E+03</rscale>
<asrwt>0</asrwt>
<pdfrwt beam="1">  1        2 0.29099300E+00 0.66144811E+03</pdfrwt>
<pdfrwt beam="2">  1       -2 0.22549698E-01 0.66144811E+03</pdfrwt>
<totfact> 0.13672182E+02</totfact>
</mgrwt>
</event>
<event>
 4    1  0.1998832E-007  0.7937269E+03  0.7818608E-02  0.9724528E-01
          2   -1    0    0  501    0  0.00000000000E+00  0.00000000000E+00  0.12377755039E+04  0.12377755039E+04  0.25500000000E-02 0. -1.
         -2   -1    0    0    0  501 -0.00000000000E+00 -0.00000000000E+00 -0.86934421142E+03  0.86934421142E+03  0.25500000000E-02 0.  1.
    8880023    1    1    2    0    0  0.42726998813E+03  0.11675825655E+03 -0.62398569123E+03  0.10096338358E+04  0.65864270000E+03 0.  1.
    8880022    1    1    2    0    0 -0.42726998813E+03 -0.11675825655E+03  0.99241698371E+03  0.10974858795E+04  0.15294330000E+03 0.  0.
<mgrwt>
<rscale>  0 0.69575021E+03</rscale>
<asrwt>0</asrwt>
<pdfrwt beam="1">  1        2 0.19042700E+00 0.79372687E+03</pdfrwt>
<pdfrwt beam="2">  1       -2 0.13374526E+00 0.79372687E+03</pdfrwt>
<totfact> 0.73766909E+00</totfact>
</mgrwt>
</event>
<event>
 4    1  0.1998832E-007  0.1074523E+04  0.7818608E-02  0.9289966E-01
         -2   -1    0    0    0  501 -0.00000000000E+00  0.00000000000E+00  0.16203342052E+04  0.16203342052E+04  0.25500000000E-02 0.  1.
          2   -1    0    0  501    0  0.00000000000E+00 -0.00000000000E+00 -0.11849649440E+04  0.11849649440E+04  0.25500000000E-02 0. -1.
    8880023    1    1    2    0    0 -0.76461228747E+03 -0.36899471711E+03  0.12294290760E+04  0.16328181499E+04  0.65864270000E+03 0.  0.
    8880022    1    1    2    0    0  0.76461228747E+03  0.36899471711E+03 -0.79405981479E+03  0.11724809994E+04  0.15294330000E+03 0.  0.
<mgrwt>
<rscale>  0 0.10171184E+04</rscale>
<asrwt>0</asrwt>
<pdfrwt beam="1">  1        2 0.18230230E+00 0.10745228E+04</pdfrwt>
<pdfrwt beam="2">  1       -2 0.24928219E+00 0.10745228E+04</pdfrwt>
<totfact> 0.12393394E+00</totfact>
</mgrwt>
</event>
<event>
 4    1  0.1998832E-007  0.1290867E+04  0.7818608E-02  0.9073487E-01
          2   -1    0    0  501    0  0.00000000000E+00  0.00000000000E+00  0.27230487870E+04  0.27230487870E+04  0.25500000000E-02 0. -1.
         -2   -1    0    0    0  501 -0.00000000000E+00 -0.00000000000E+00 -0.65770521549E+03  0.65770521549E+03  0.25500000000E-02 0.  1.
    8880023    1    1    2    0    0 -0.10827033161E+04 -0.24552289576E+03  0.35998029244E+03  0.13401208827E+04  0.65864270000E+03 0.  1.
    8880022    1    1    2    0    0  0.10827033161E+04  0.24552289576E+03  0.17053632791E+04  0.20406331198E+04  0.15294330000E+03 0.  0.
<mgrwt>
<rscale>  0 0.12460383E+04</rscale>
<asrwt>0</asrwt>
<pdfrwt beam="1">  1        2 0.41893059E+00 0.12908672E+04</pdfrwt>
<pdfrwt beam="2">  1       -2 0.10118542E+00 0.12908672E+04</pdfrwt>
<totfact> 0.20157132E+00</totfact>
</mgrwt>
</event>
<event>
 4    1  0.1998832E-007  0.1158222E+04  0.7818608E-02  0.9198843E-01
          2   -1    0    0  501    0  0.00000000000E+00  0.00000000000E+00  0.17330168014E+04  0.17330168014E+04  0.25500000000E-02 0. -1.
         -2   -1    0    0    0  501 -0.00000000000E+00 -0.00000000000E+00 -0.12055258431E+04  0.12055258431E+04  0.25500000000E-02 0.  1.
    8880023    1    1    2    0    0  0.27892313309E+03  0.91097256977E+03 -0.71821949736E+03  0.13628347624E+04  0.65864270000E+03 0.  0.
    8880022    1    1    2    0    0 -0.27892313309E+03 -0.91097256977E+03  0.12457104557E+04  0.15757078821E+04  0.15294330000E+03 0.  0.
<mgrwt>
<rscale>  0 0.11065378E+04</rscale>
<asrwt>0</asrwt>
<pdfrwt beam="1">  1        2 0.26661797E+00 0.11582225E+04</pdfrwt>
<pdfrwt beam="2">  1       -2 0.18546552E+00 0.11582225E+04</pdfrwt>
<totfact> 0.15247968E+00</totfact>
</mgrwt>
</event>
<event>
 4    1  0.1998832E-007  0.9531513E+03  0.7818608E-02  0.9445594E-01
          2   -1    0    0  501    0  0.00000000000E+00  0.00000000000E+00  0.67958658934E+03  0.67958658935E+03  0.25500000000E-02 0. -1.
         -2   -1    0    0    0  501 -0.00000000000E+00 -0.00000000000E+00 -0.23132323756E+04  0.23132323756E+04  0.25500000000E-02 0.  1.
    8880023    1    1    2    0    0  0.10371594698E+03  0.68112426196E+03 -0.19868296095E+04  0.22036309494E+04  0.65864270000E+03 0.  1.
    8880022    1    1    2    0    0 -0.10371594698E+03 -0.68112426196E+03  0.35318382320E+03  0.78918801554E+03  0.15294330000E+03 0.  0.
<mgrwt>
<rscale>  0 0.88416570E+03</rscale>
<asrwt>0</asrwt>
<pdfrwt beam="1">  1        2 0.10455178E+00 0.95315133E+03</pdfrwt>
<pdfrwt beam="2">  1       -2 0.35588190E+00 0.95315133E+03</pdfrwt>
<totfact> 0.62004191E-01</totfact>
</mgrwt>
</event>
<event>
 4    1  0.1998832E-007  0.1216682E+04  0.7818608E-02  0.9141074E-01
         -2   -1    0    0    0  501 -0.00000000000E+00  0.00000000000E+00  0.15695819361E+04  0.15695819361E+04  0.25500000000E-02 0.  1.
          2   -1    0    0  501    0  0.00000000000E+00 -0.00000000000E+00 -0.20782622950E+04  0.20782622950E+04  0.25500000000E-02 0. -1.
    8880023    1    1    2    0    0 -0.10166498547E+04  0.11370137706E+03  0.11622967289E+04  0.16826315172E+04  0.65864270000E+03 0.  0.
    8880022    1    1    2    0    0  0.10166498547E+04 -0.11370137706E+03 -0.16709770878E+04  0.19652127140E+04  0.15294330000E+03 0.  0.
<mgrwt>
<rscale>  0 0.11682897E+04</rscale>
<asrwt>0</asrwt>
<pdfrwt beam="1">  1        2 0.31973266E+00 0.12166820E+04</pdfrwt>
<pdfrwt beam="2">  1       -2 0.24147414E+00 0.12166820E+04</pdfrwt>
<totfact> 0.42547346E-01</totfact>
</mgrwt>
</event>
<event>
 4    1  0.1998832E-007  0.7270641E+03  0.7818608E-02  0.9899370E-01
         -2   -1    0    0    0  501 -0.00000000000E+00  0.00000000000E+00  0.50964622698E+03  0.50964622699E+03  0.25500000000E-02 0.  1.
          2   -1    0    0  501    0  0.00000000000E+00 -0.00000000000E+00 -0.19073672894E+04  0.19073672894E+04  0.25500000000E-02 0. -1.
    8880023    1    1    2    0    0 -0.12034891094E+03  0.28342219003E+03  0.22279021513E+03  0.76043256400E+03  0.65864270000E+03 0.  1.
    8880022    1    1    2    0    0  0.12034891094E+03 -0.28342219003E+03 -0.16205112776E+04  0.16565809524E+04  0.15294330000E+03 0.  0.
<mgrwt>
<rscale>  0 0.60291819E+03</rscale>
<asrwt>0</asrwt>
<pdfrwt beam="1">  1        2 0.29344112E+00 0.72706410E+03</pdfrwt>
<pdfrwt beam="2">  1       -2 0.78407113E-01 0.72706410E+03</pdfrwt>
<totfact> 0.11276340E+01</totfact>
</mgrwt>
</event>
<event>
 4    1  0.1998832E-007  0.8943306E+03  0.7818608E-02  0.9535195E-01
          2   -1    0    0  501    0  0.00000000000E+00  0.00000000000E+00  0.24148235809E+04  0.24148235809E+04  0.25500000000E-02 0. -1.
         -2   -1    0    0    0  501 -0.00000000000E+00 -0.00000000000E+00 -0.35648791299E+03  0.35648791300E+03  0.25500000000E-02 0.  1.
    8880023    1    1    2    0    0 -0.99736750034E+02  0.59671565035E+03  0.36374134116E+03  0.96547136478E+03  0.65864270000E+03 0.  1.
    8880022    1    1    2    0    0  0.99736750034E+02 -0.59671565035E+03  0.16945943267E+04  0.18058401291E+04  0.15294330000E+03 0.  0.
<mgrwt>
<rscale>  0 0.81738048E+03</rscale>
<asrwt>0</asrwt>
<pdfrwt beam="1">  1        2 0.37151131E+00 0.89433058E+03</pdfrwt>
<pdfrwt beam="2">  1       -2 0.54844295E-01 0.89433058E+03</pdfrwt>
<totfact> 0.12481992E+01</totfact>
</mgrwt>
</event>
<event>
 4    1  0.1998832E-007  0.6798726E+03  0.7818608E-02  0.1009396E+00
         -2   -1    0    0    0  501 -0.00000000000E+00  0.00000000000E+00  0.31465355396E+03  0.31465355397E+03  0.25500000000E-02 0.  1.
          2   -1    0    0  501    0  0.00000000000E+00 -0.00000000000E+00 -0.98343109720E+03  0.98343109720E+03  0.25500000000E-02 0. -1.
    8880023    1    1    2    0    0  0.45826773198E+00  0.16857161191E+03 -0.10221935670E+03  0.68751407367E+03  0.65864270000E+03 0.  1.
    8880022    1    1    2    0    0 -0.45826773198E+00 -0.16857161191E+03 -0.56655818654E+03  0.61057057749E+03  0.15294330000E+03 0.  0.
<mgrwt>
<rscale>  0 0.51715478E+03</rscale>
<asrwt>0</asrwt>
<pdfrwt beam="1">  1        2 0.15129709E+00 0.67987264E+03</pdfrwt>
<pdfrwt beam="2">  1       -2 0.48408239E-01 0.67987264E+03</pdfrwt>
<totfact> 0.10628919E+02</totfact>
</mgrwt>
</event>
<event>
 4    1  0.1998832E-007  0.6837940E+03  0.7818608E-02  0.1007254E+00
          2   -1    0    0  501    0  0.00000000000E+00  0.00000000000E+00  0.14442388503E+04  0.14442388503E+04  0.25500000000E-02 0. -1.
         -2   -1    0    0    0  501 -0.00000000000E+00 -0.00000000000E+00 -0.39750496784E+03  0.39750496785E+03  0.25500000000E-02 0.  1.
    8880023    1    1    2    0    0  0.17536720179E+03 -0.54866369339E+02 -0.81340065631E+02  0.68861483174E+03  0.65864270000E+03 0.  1.
    8880022    1    1    2    0    0 -0.17536720179E+03  0.54866369339E+02  0.11280739481E+04  0.11531289864E+04  0.15294330000E+03 0.  0.
<mgrwt>
<rscale>  0 0.52580695E+03</rscale>
<asrwt>0</asrwt>
<pdfrwt beam="1">  1        2 0.22219059E+00 0.68379396E+03</pdfrwt>
<pdfrwt beam="2">  1       -2 0.61154610E-01 0.68379396E+03</pdfrwt>
<totfact> 0.34972180E+01</totfact>
</mgrwt>
</event>
<event>
 4    1  0.1998832E-007  0.7171308E+03  0.7818608E-02  0.9932417E-01
         -2   -1    0    0    0  501 -0.00000000000E+00  0.00000000000E+00  0.19687953867E+03  0.19687953869E+03  0.25500000000E-02 0.  1.
          2   -1    0    0  501    0  0.00000000000E+00 -0.00000000000E+00 -0.14338965311E+04  0.14338965311E+04  0.25500000000E-02 0. -1.
    8880023    1    1    2    0    0 -0.23261620562E+03  0.16234554537E+03 -0.68583282149E+03  0.99229191295E+03  0.65864270000E+03 0.  0.
    8880022    1    1    2    0    0  0.23261620562E+03 -0.16234554537E+03 -0.55118417095E+03  0.63848415685E+03  0.15294330000E+03 0.  0.
<mgrwt>
<rscale>  0 0.58715639E+03</rscale>
<asrwt>0</asrwt>
<pdfrwt beam="1">  1        2 0.22059946E+00 0.71713080E+03</pdfrwt>
<pdfrwt beam="2">  1       -2 0.30289161E-01 0.71713080E+03</pdfrwt>
<totfact> 0.14190666E+02</totfact>
</mgrwt>
</event>
<event>
 4    1  0.1998832E-007  0.1035565E+04  0.7818608E-02  0.9336439E-01
         -2   -1    0    0    0  501 -0.00000000000E+00  0.00000000000E+00  0.56934843413E+03  0.56934843414E+03  0.25500000000E-02 0.  1.
          2   -1    0    0  501    0  0.00000000000E+00 -0.00000000000E+00 -0.17198087073E+04  0.17198087073E+04  0.25500000000E-02 0. -1.
    8880023    1    1    2    0    0  0.74666752698E+02 -0.79561855472E+03 -0.23027429975E+03  0.10608583638E+04  0.65864270000E+03 0.  1.
    8880022    1    1    2    0    0 -0.74666752698E+02  0.79561855472E+03 -0.92018597344E+03  0.12282987777E+04  0.15294330000E+03 0.  0.
<mgrwt>
<rscale>  0 0.97496309E+03</rscale>
<asrwt>0</asrwt>
<pdfrwt beam="1">  1        2 0.26458595E+00 0.10355647E+04</pdfrwt>
<pdfrwt beam="2">  1       -2 0.87592068E-01 0.10355647E+04</pdfrwt>
<totfact> 0.10697668E+01</totfact>
</mgrwt>
</event>
<event>
 4    1  0.1998832E-007  0.1036548E+04  0.7818608E-02  0.9335230E-01
          2   -1    0    0  501    0  0.00000000000E+00  0.00000000000E+00  0.21119643814E+04  0.21119643814E+04  0.25500000000E-02 0. -1.
         -2   -1    0    0    0  501 -0.00000000000E+00 -0.00000000000E+00 -0.87690369389E+03  0.87690369389E+03  0.25500000000E-02 0.  1.
    8880023    1    1    2    0    0  0.70540985102E+03  0.37817808705E+03 -0.44003700072E+03  0.11260836966E+04  0.65864270000E+03 0.  1.
    8880022    1    1    2    0    0 -0.70540985102E+03 -0.37817808705E+03  0.16750976882E+04  0.18627843787E+04  0.15294330000E+03 0.  0.
<mgrwt>
<rscale>  0 0.97603231E+03</rscale>
<asrwt>0</asrwt>
<pdfrwt beam="1">  1        2 0.32491759E+00 0.10365481E+04</pdfrwt>
<pdfrwt beam="2">  1       -2 0.13490826E+00 0.10365481E+04</pdfrwt>
<totfact> 0.22749034E+00</totfact>
</mgrwt>
</event>
<event>
 4    1  0.1998832E-007  0.6636182E+03  0.7818608E-02  0.1020722E+00
         -2   -1    0    0    0  501 -0.00000000000E+00  0.00000000000E+00  0.17929998713E+03  0.17929998714E+03  0.25500000000E-02 0.  1.
          2   -1    0    0  501    0  0.00000000000E+00 -0.00000000000E+00 -0.18840269476E+04  0.18840269476E+04  0.25500000000E-02 0. -1.
    8880023    1    1    2    0    0 -0.63186097909E+02  0.50856458474E+02 -0.46199976195E+03  0.80859931279E+03  0.65864270000E+03 0.  1.
    8880022    1    1    2    0    0  0.63186097909E+02 -0.50856458474E+02 -0.12427271985E+04  0.12547276220E+04  0.15294330000E+03 0.  0.
<mgrwt>
<rscale>  0 0.47426980E+03</rscale>
<asrwt>0</asrwt>
<pdfrwt beam="1">  1        2 0.28985029E+00 0.66361816E+03</pdfrwt>
<pdfrwt beam="2">  1       -2 0.27584615E-01 0.66361816E+03</pdfrwt>
<totfact> 0.95982020E+01</totfact>
</mgrwt>
</event>
<event>
 4    1  0.1998832E-007  0.8200772E+03  0.7818608E-02  0.9668957E-01
         -2   -1    0    0    0  501 -0.00000000000E+00  0.00000000000E+00  0.89780561466E+03  0.89780561466E+03  0.25500000000E-02 0.  1.
          2   -1    0    0  501    0  0.00000000000E+00 -0.00000000000E+00 -0.17141555879E+04  0.17141555879E+04  0.25500000000E-02 0. -1.
    8880023    1    1    2    0    0 -0.48491932994E+03  0.59746702715E+02  0.65789046902E+03  0.10513546027E+04  0.65864270000E+03 0.  0.
    8880022    1    1    2    0    0  0.48491932994E+03 -0.59746702715E+02 -0.14742404423E+04  0.15606065999E+04  0.15294330000E+03 0.  0.
<mgrwt>
<rscale>  0 0.72895565E+03</rscale>
<asrwt>0</asrwt>
<pdfrwt beam="1">  1        2 0.26371624E+00 0.82007721E+03</pdfrwt>
<pdfrwt beam="2">  1       -2 0.13812394E+00 0.82007721E+03</pdfrwt>
<totfact> 0.36507402E+00</totfact>
</mgrwt>
</event>
<event>
 4    1  0.1998832E-007  0.1024991E+04  0.7818608E-02  0.9349569E-01
         -2   -1    0    0    0  501 -0.00000000000E+00  0.00000000000E+00  0.35057046630E+03  0.35057046631E+03  0.25500000000E-02 0.  1.
          2   -1    0    0  501    0  0.00000000000E+00 -0.00000000000E+00 -0.36341913853E+04  0.36341913853E+04  0.25500000000E-02 0. -1.
    8880023    1    1    2    0    0  0.17193061206E+03 -0.76631283710E+03 -0.29407767113E+04  0.31142853709E+04  0.65864270000E+03 0.  0.
    8880022    1    1    2    0    0 -0.17193061206E+03  0.76631283710E+03 -0.34284420774E+03  0.87047648071E+03  0.15294330000E+03 0.  0.
<mgrwt>
<rscale>  0 0.96344800E+03</rscale>
<asrwt>0</asrwt>
<pdfrwt beam="1">  1        2 0.55910634E+00 0.10249906E+04</pdfrwt>
<pdfrwt beam="2">  1       -2 0.53933920E-01 0.10249906E+04</pdfrwt>
<totfact> 0.21902282E+00</totfact>
</mgrwt>
</event>
<event>
 4    1  0.1998832E-007  0.1209191E+04  0.7818608E-02  0.9148239E-01
         -2   -1    0    0    0  501 -0.00000000000E+00  0.00000000000E+00  0.11277072737E+04  0.11277072737E+04  0.25500000000E-02 0.  1.
          2   -1    0    0  501    0  0.00000000000E+00 -0.00000000000E+00 -0.19004060541E+04  0.19004060541E+04  0.25500000000E-02 0. -1.
    8880023    1    1    2    0    0 -0.61491969022E+03 -0.80635417496E+03  0.57144396213E+03  0.13374197879E+04  0.65864270000E+03 0.  0.
    8880022    1    1    2    0    0  0.61491969022E+03  0.80635417496E+03 -0.13441427425E+04  0.16906935400E+04  0.15294330000E+03 0.  0.
<mgrwt>
<rscale>  0 0.11604035E+04</rscale>
<asrwt>0</asrwt>
<pdfrwt beam="1">  1        2 0.29237016E+00 0.12091913E+04</pdfrwt>
<pdfrwt beam="2">  1       -2 0.17349343E+00 0.12091913E+04</pdfrwt>
<totfact> 0.14828181E+00</totfact>
</mgrwt>
</event>
<event>
 4    1  0.1998832E-007  0.1042942E+04  0.7818608E-02  0.9327415E-01
          2   -1    0    0  501    0  0.00000000000E+00  0.00000000000E+00  0.20554548227E+04  0.20554548227E+04  0.25500000000E-02 0. -1.
         -2   -1    0    0    0  501 -0.00000000000E+00 -0.00000000000E+00 -0.67405898745E+03  0.67405898745E+03  0.25500000000E-02 0.  1.
    8880023    1    1    2    0    0  0.47466941386E+03 -0.65468037243E+03 -0.86634265765E+02  0.10465338718E+04  0.65864270000E+03 0.  1.
    8880022    1    1    2    0    0 -0.47466941386E+03  0.65468037243E+03  0.14680301010E+04  0.16829799384E+04  0.15294330000E+03 0.  0.
<mgrwt>
<rscale>  0 0.98297716E+03</rscale>
<asrwt>0</asrwt>
<pdfrwt beam="1">  1        2 0.31622382E+00 0.10429418E+04</pdfrwt>
<pdfrwt beam="2">  1       -2 0.10370138E+00 0.10429418E+04</pdfrwt>
<totfact> 0.46925394E+00</totfact>
</mgrwt>
</event>
<event>
 4    1  0.1998832E-007  0.1992254E+04  0.7818608E-02  0.8623039E-01
          2   -1    0    0  501    0  0.00000000000E+00  0.00000000000E+00  0.43711890896E+04  0.43711890896E+04  0.25500000000E-02 0. -1.
         -2   -1    0    0    0  501 -0.00000000000E+00 -0.00000000000E+00 -0.15464720368E+04  0.15464720368E+04  0.25500000000E-02 0.  1.
    8880023    1    1    2    0    0  0.14983044549E+04  0.11359360227E+04 -0.53652485665E+03  0.20632343578E+04  0.65864270000E+03 0.  0.
    8880022    1    1    2    0    0 -0.14983044549E+04 -0.11359360227E+04  0.33612419095E+04  0.38544267686E+04  0.15294330000E+03 0.  0.
<mgrwt>
<rscale>  0 0.19652571E+04</rscale>
<asrwt>0</asrwt>
<pdfrwt beam="1">  1        2 0.67249063E+00 0.19922543E+04</pdfrwt>
<pdfrwt beam="2">  1       -2 0.23791877E+00 0.19922543E+04</pdfrwt>
<totfact> 0.11153056E-02</totfact>
</mgrwt>
</event>
<event>
 4    1  0.1998832E-007  0.6808811E+03  0.7818608E-02  0.1008830E+00
          2   -1    0    0  501    0  0.00000000000E+00  0.00000000000E+00  0.18532340678E+04  0.18532340678E+04  0.25500000000E-02 0. -1.
         -2   -1    0    0    0  501 -0.00000000000E+00 -0.00000000000E+00 -0.11696865031E+03  0.11696865034E+03  0.25500000000E-02 0.  1.
    8880023    1    1    2    0    0 -0.11114998400E+03  0.13204001246E+03  0.11027012632E+04  0.12959742150E+04  0.65864270000E+03 0.  1.
    8880022    1    1    2    0    0  0.11114998400E+03 -0.13204001246E+03  0.63356415426E+03  0.67422850311E+03  0.15294330000E+03 0. -1.
<mgrwt>
<rscale>  0 0.51942465E+03</rscale>
<asrwt>0</asrwt>
<pdfrwt beam="1">  1        2 0.28511290E+00 0.68088111E+03</pdfrwt>
<pdfrwt beam="2">  1       -2 0.17995179E-01 0.68088111E+03</pdfrwt>
<totfact> 0.21236892E+02</totfact>
</mgrwt>
</event>
<event>
 4    1  0.1998832E-007  0.1253988E+04  0.7818608E-02  0.9106349E-01
         -2   -1    0    0    0  501 -0.00000000000E+00  0.00000000000E+00  0.11934713035E+04  0.11934713035E+04  0.25500000000E-02 0.  1.
          2   -1    0    0  501    0  0.00000000000E+00 -0.00000000000E+00 -0.22621732088E+04  0.22621732088E+04  0.25500000000E-02 0. -1.
    8880023    1    1    2    0    0 -0.58335617796E+01  0.10670710484E+04  0.66099157617E+03  0.14175312070E+04  0.65864270000E+03 0.  0.
    8880022    1    1    2    0    0  0.58335617796E+01 -0.10670710484E+04 -0.17296934814E+04  0.20381133053E+04  0.15294330000E+03 0.  0.
<mgrwt>
<rscale>  0 0.12074629E+04</rscale>
<asrwt>0</asrwt>
<pdfrwt beam="1">  1        2 0.34802665E+00 0.12539876E+04</pdfrwt>
<pdfrwt beam="2">  1       -2 0.18361097E+00 0.12539876E+04</pdfrwt>
<totfact> 0.78863538E-01</totfact>
</mgrwt>
</event>
<event>
 4    1  0.1998832E-007  0.1018907E+04  0.7818608E-02  0.9357229E-01
         -2   -1    0    0    0  501 -0.00000000000E+00  0.00000000000E+00  0.95546636081E+03  0.95546636081E+03  0.25500000000E-02 0.  1.
          2   -1    0    0  501    0  0.00000000000E+00 -0.00000000000E+00 -0.16318250076E+04  0.16318250076E+04  0.25500000000E-02 0. -1.
    8880023    1    1    2    0    0 -0.20994495761E+02  0.77712278658E+03  0.52653067420E+03  0.11469112221E+04  0.65864270000E+03 0.  1.
    8880022    1    1    2    0    0  0.20994495761E+02 -0.77712278658E+03 -0.12028893209E+04  0.14403801463E+04  0.15294330000E+03 0.  0.
<mgrwt>
<rscale>  0 0.95680699E+03</rscale>
<asrwt>0</asrwt>
<pdfrwt beam="1">  1        2 0.25105000E+00 0.10189067E+04</pdfrwt>
<pdfrwt beam="2">  1       -2 0.14699482E+00 0.10189067E+04</pdfrwt>
<totfact> 0.33549127E+00</totfact>
</mgrwt>
</event>
<event>
 4    1  0.1998832E-007  0.8827087E+03  0.7818608E-02  0.9554380E-01
          2   -1    0    0  501    0  0.00000000000E+00  0.00000000000E+00  0.10143333909E+04  0.10143333909E+04  0.25500000000E-02 0. -1.
         -2   -1    0    0    0  501 -0.00000000000E+00 -0.00000000000E+00 -0.13389515040E+04  0.13389515040E+04  0.25500000000E-02 0.  1.
    8880023    1    1    2    0    0 -0.58614230462E+03 -0.42445215103E+02 -0.10730647018E+04  0.13894756054E+04  0.65864270000E+03 0.  0.
    8880022    1    1    2    0    0  0.58614230462E+03  0.42445215103E+02  0.74844658862E+03  0.96380928953E+03  0.15294330000E+03 0.  0.
<mgrwt>
<rscale>  0 0.80390631E+03</rscale>
<asrwt>0</asrwt>
<pdfrwt beam="1">  1        2 0.15605129E+00 0.88270867E+03</pdfrwt>
<pdfrwt beam="2">  1       -2 0.20599254E+00 0.88270867E+03</pdfrwt>
<totfact> 0.30170373E+00</totfact>
</mgrwt>
</event>
<event>
 4    1  0.1998832E-007  0.6716993E+03  0.7818608E-02  0.1014473E+00
         -2   -1    0    0    0  501 -0.00000000000E+00  0.00000000000E+00  0.49483893904E+03  0.49483893905E+03  0.25500000000E-02 0.  1.
          2   -1    0    0  501    0  0.00000000000E+00 -0.00000000000E+00 -0.74127370441E+03  0.74127370441E+03  0.25500000000E-02 0. -1.
    8880023    1    1    2    0    0 -0.78693999342E+02  0.10572146406E+03  0.23694335710E+03  0.71226549420E+03  0.65864270000E+03 0.  0.
    8880022    1    1    2    0    0  0.78693999342E+02 -0.10572146406E+03 -0.48337812246E+03  0.52384714926E+03  0.15294330000E+03 0.  0.
<mgrwt>
<rscale>  0 0.49735027E+03</rscale>
<asrwt>0</asrwt>
<pdfrwt beam="1">  1        2 0.11404211E+00 0.67169932E+03</pdfrwt>
<pdfrwt beam="2">  1       -2 0.76129067E-01 0.67169932E+03</pdfrwt>
<totfact> 0.59936956E+01</totfact>
</mgrwt>
</event>
<event>
 4    1  0.1998832E-007  0.6790739E+03  0.7818608E-02  0.1009852E+00
         -2   -1    0    0    0  501 -0.00000000000E+00  0.00000000000E+00  0.10045459790E+04  0.10045459790E+04  0.25500000000E-02 0.  1.
          2   -1    0    0  501    0  0.00000000000E+00 -0.00000000000E+00 -0.40280819010E+03  0.40280819011E+03  0.25500000000E-02 0. -1.
    8880023    1    1    2    0    0  0.16198079098E+03  0.33067131797E+02  0.83955902385E+03  0.10798151567E+04  0.65864270000E+03 0.  1.
    8880022    1    1    2    0    0 -0.16198079098E+03 -0.33067131797E+02 -0.23782123494E+03  0.32753901242E+03  0.15294330000E+03 0.  0.
<mgrwt>
<rscale>  0 0.51533338E+03</rscale>
<asrwt>0</asrwt>
<pdfrwt beam="1">  1        2 0.61970492E-01 0.67907394E+03</pdfrwt>
<pdfrwt beam="2">  1       -2 0.15454553E+00 0.67907394E+03</pdfrwt>
<totfact> 0.22252114E+01</totfact>
</mgrwt>
</event>
<event>
 4    1  0.1998832E-007  0.9932053E+03  0.7818608E-02  0.9390502E-01
          2   -1    0    0  501    0  0.00000000000E+00  0.00000000000E+00  0.11709899580E+04  0.11709899580E+04  0.25500000000E-02 0. -1.
         -2   -1    0    0    0  501 -0.00000000000E+00 -0.00000000000E+00 -0.67245359919E+03  0.67245359920E+03  0.25500000000E-02 0.  1.
    8880023    1    1    2    0    0 -0.72907677588E+03  0.14523609205E+03  0.13648329045E+03  0.10025389580E+04  0.65864270000E+03 0.  1.
    8880022    1    1    2    0    0  0.72907677588E+03 -0.14523609205E+03  0.36205306837E+03  0.84090459916E+03  0.15294330000E+03 0.  0.
<mgrwt>
<rscale>  0 0.92861492E+03</rscale>
<asrwt>0</asrwt>
<pdfrwt beam="1">  1        2 0.18015230E+00 0.99320525E+03</pdfrwt>
<pdfrwt beam="2">  1       -2 0.10345440E+00 0.99320525E+03</pdfrwt>
<totfact> 0.14934519E+01</totfact>
</mgrwt>
</event>
<event>
 4    1  0.1998832E-007  0.9937328E+03  0.7818608E-02  0.9389803E-01
          2   -1    0    0  501    0  0.00000000000E+00  0.00000000000E+00  0.17200073164E+04  0.17200073164E+04  0.25500000000E-02 0. -1.
         -2   -1    0    0    0  501 -0.00000000000E+00 -0.00000000000E+00 -0.13880157457E+04  0.13880157457E+04  0.25500000000E-02 0.  1.
    8880023    1    1    2    0    0  0.51852332236E+02  0.74229777037E+03 -0.11028355694E+04  0.14845036691E+04  0.65864270000E+03 0.  1.
    8880022    1    1    2    0    0 -0.51852332236E+02 -0.74229777037E+03  0.14348271401E+04  0.16235193929E+04  0.15294330000E+03 0.  0.
<mgrwt>
<rscale>  0 0.92919595E+03</rscale>
<asrwt>0</asrwt>
<pdfrwt beam="1">  1        2 0.26461651E+00 0.99373279E+03</pdfrwt>
<pdfrwt beam="2">  1       -2 0.21354089E+00 0.99373279E+03</pdfrwt>
<totfact> 0.10358238E+00</totfact>
</mgrwt>
</event>
<event>
 4    1  0.1998832E-007  0.7190597E+03  0.7818608E-02  0.9925780E-01
          2   -1    0    0  501    0  0.00000000000E+00  0.00000000000E+00  0.24225790832E+03  0.24225790834E+03  0.25500000000E-02 0. -1.
         -2   -1    0    0    0  501 -0.00000000000E+00 -0.00000000000E+00 -0.11789862715E+04  0.11789862715E+04  0.25500000000E-02 0.  1.
    8880023    1    1    2    0    0  0.10836023628E+03 -0.26738502259E+03 -0.77377691006E+03  0.10563037461E+04  0.65864270000E+03 0.  1.
    8880022    1    1    2    0    0 -0.10836023628E+03  0.26738502259E+03 -0.16295145308E+03  0.36494043375E+03  0.15294330000E+03 0.  0.
<mgrwt>
<rscale>  0 0.59027965E+03</rscale>
<asrwt>0</asrwt>
<pdfrwt beam="1">  1        2 0.37270448E-01 0.71905973E+03</pdfrwt>
<pdfrwt beam="2">  1       -2 0.18138250E+00 0.71905973E+03</pdfrwt>
<totfact> 0.25136398E+01</totfact>
</mgrwt>
</event>
<event>
 4    1  0.1998832E-007  0.1650758E+04  0.7818608E-02  0.8809920E-01
          2   -1    0    0  501    0  0.00000000000E+00  0.00000000000E+00  0.18744517758E+04  0.18744517758E+04  0.25500000000E-02 0. -1.
         -2   -1    0    0    0  501 -0.00000000000E+00 -0.00000000000E+00 -0.15077383953E+04  0.15077383953E+04  0.25500000000E-02 0.  1.
    8880023    1    1    2    0    0  0.10777052936E+04  0.10628933157E+04 -0.37016974533E+03  0.16917525667E+04  0.65864270000E+03 0.  0.
    8880022    1    1    2    0    0 -0.10777052936E+04 -0.10628933157E+04  0.73688312580E+03  0.16904376044E+04  0.15294330000E+03 0.  0.
<mgrwt>
<rscale>  0 0.16174155E+04</rscale>
<asrwt>0</asrwt>
<pdfrwt beam="1">  1        2 0.28837719E+00 0.16507577E+04</pdfrwt>
<pdfrwt beam="2">  1       -2 0.23195975E+00 0.16507577E+04</pdfrwt>
<totfact> 0.60296401E-01</totfact>
</mgrwt>
</event>
<event>
 4    1  0.1998832E-007  0.8817317E+03  0.7818608E-02  0.9556018E-01
          2   -1    0    0  501    0  0.00000000000E+00  0.00000000000E+00  0.21016896679E+04  0.21016896679E+04  0.25500000000E-02 0. -1.
         -2   -1    0    0    0  501 -0.00000000000E+00 -0.00000000000E+00 -0.59695674202E+03  0.59695674203E+03  0.25500000000E-02 0.  1.
    8880023    1    1    2    0    0  0.37054154040E+03  0.45424607701E+03 -0.18731621337E+03  0.90140895364E+03  0.65864270000E+03 0.  1.
    8880022    1    1    2    0    0 -0.37054154040E+03 -0.45424607701E+03  0.16920491392E+04  0.17972374563E+04  0.15294330000E+03 0.  0.
<mgrwt>
<rscale>  0 0.80276855E+03</rscale>
<asrwt>0</asrwt>
<pdfrwt beam="1">  1        2 0.32333687E+00 0.88173167E+03</pdfrwt>
<pdfrwt beam="2">  1       -2 0.91839499E-01 0.88173167E+03</pdfrwt>
<totfact> 0.60192040E+00</totfact>
</mgrwt>
</event>
<event>
 4    1  0.1998832E-007  0.1407064E+04  0.7818608E-02  0.8978213E-01
          2   -1    0    0  501    0  0.00000000000E+00  0.00000000000E+00  0.11163059569E+04  0.11163059569E+04  0.25500000000E-02 0. -1.
         -2   -1    0    0    0  501 -0.00000000000E+00 -0.00000000000E+00 -0.21833801955E+04  0.21833801955E+04  0.25500000000E-02 0.  1.
    8880023    1    1    2    0    0 -0.12415289998E+04  0.68008765549E+02  0.30709131921E+03  0.14401856596E+04  0.65864270000E+03 0.  0.
    8880022    1    1    2    0    0  0.12415289998E+04 -0.68008765549E+02 -0.13741655578E+04  0.18595004928E+04  0.15294330000E+03 0.  0.
<mgrwt>
<rscale>  0 0.13667923E+04</rscale>
<asrwt>0</asrwt>
<pdfrwt beam="1">  1        2 0.17173938E+00 0.14070642E+04</pdfrwt>
<pdfrwt beam="2">  1       -2 0.33590465E+00 0.14070642E+04</pdfrwt>
<totfact> 0.38829558E-01</totfact>
</mgrwt>
</event>
<event>
 4    1  0.1998832E-007  0.9368105E+03  0.7818608E-02  0.9469350E-01
         -2   -1    0    0    0  501 -0.00000000000E+00  0.00000000000E+00  0.28386844865E+03  0.28386844866E+03  0.25500000000E-02 0.  1.
          2   -1    0    0  501    0  0.00000000000E+00 -0.00000000000E+00 -0.27369847720E+04  0.27369847720E+04  0.25500000000E-02 0. -1.
    8880023    1    1    2    0    0  0.26292628869E+03  0.61210576486E+03 -0.79968269322E+03  0.12317086980E+04  0.65864270000E+03 0.  0.
    8880022    1    1    2    0    0 -0.26292628869E+03 -0.61210576486E+03 -0.16534336301E+04  0.17891445226E+04  0.15294330000E+03 0.  0.
<mgrwt>
<rscale>  0 0.86581703E+03</rscale>
<asrwt>0</asrwt>
<pdfrwt beam="1">  1        2 0.42107456E+00 0.93681050E+03</pdfrwt>
<pdfrwt beam="2">  1       -2 0.43672071E-01 0.93681050E+03</pdfrwt>
<totfact> 0.12864919E+01</totfact>
</mgrwt>
</event>
<event>
 4    1  0.1998832E-007  0.8845826E+03  0.7818608E-02  0.9551249E-01
          2   -1    0    0  501    0  0.00000000000E+00  0.00000000000E+00  0.19674377608E+04  0.19674377608E+04  0.25500000000E-02 0. -1.
         -2   -1    0    0    0  501 -0.00000000000E+00 -0.00000000000E+00 -0.82914425223E+03  0.82914425223E+03  0.25500000000E-02 0.  1.
    8880023    1    1    2    0    0  0.74377404778E+02 -0.58578503075E+03 -0.52246141270E+03  0.10273520500E+04  0.65864270000E+03 0.  0.
    8880022    1    1    2    0    0 -0.74377404778E+02  0.58578503075E+03  0.16607549213E+04  0.17692299630E+04  0.15294330000E+03 0.  0.
<mgrwt>
<rscale>  0 0.80608629E+03</rscale>
<asrwt>0</asrwt>
<pdfrwt beam="1">  1        2 0.30268273E+00 0.88458256E+03</pdfrwt>
<pdfrwt beam="2">  1       -2 0.12756065E+00 0.88458256E+03</pdfrwt>
<totfact> 0.32181120E+00</totfact>
</mgrwt>
</event>
<event>
 4    1  0.1998832E-007  0.1328696E+04  0.7818608E-02  0.9041167E-01
         -2   -1    0    0    0  501 -0.00000000000E+00  0.00000000000E+00  0.10003949367E+04  0.10003949367E+04  0.25500000000E-02 0.  1.
          2   -1    0    0  501    0  0.00000000000E+00 -0.00000000000E+00 -0.18046234943E+04  0.18046234943E+04  0.25500000000E-02 0. -1.
    8880023    1    1    2    0    0 -0.10707166483E+04  0.43033547067E+03  0.97927598940E+02  0.13322998083E+04  0.65864270000E+03 0.  0.
    8880022    1    1    2    0    0  0.10707166483E+04 -0.43033547067E+03 -0.90215615654E+03  0.14727186228E+04  0.15294330000E+03 0.  0.
<mgrwt>
<rscale>  0 0.12854708E+04</rscale>
<asrwt>0</asrwt>
<pdfrwt beam="1">  1        2 0.27763438E+00 0.13286960E+04</pdfrwt>
<pdfrwt beam="2">  1       -2 0.15390691E+00 0.13286960E+04</pdfrwt>
<totfact> 0.23027942E+00</totfact>
</mgrwt>
</event>
<event>
 4    1  0.1998832E-007  0.9858905E+03  0.7818608E-02  0.9400254E-01
         -2   -1    0    0    0  501 -0.00000000000E+00  0.00000000000E+00  0.19554126005E+04  0.19554126005E+04  0.25500000000E-02 0.  1.
          2   -1    0    0  501    0  0.00000000000E+00 -0.00000000000E+00 -0.13945482778E+04  0.13945482778E+04  0.25500000000E-02 0. -1.
    8880023    1    1    2    0    0  0.14038098192E+03  0.72004375082E+03  0.17124787334E+04  0.19759968223E+04  0.65864270000E+03 0.  1.
    8880022    1    1    2    0    0 -0.14038098192E+03 -0.72004375082E+03 -0.11516144107E+04  0.13739640560E+04  0.15294330000E+03 0.  0.
<mgrwt>
<rscale>  0 0.92054742E+03</rscale>
<asrwt>0</asrwt>
<pdfrwt beam="1">  1        2 0.21454589E+00 0.98589048E+03</pdfrwt>
<pdfrwt beam="2">  1       -2 0.30083271E+00 0.98589048E+03</pdfrwt>
<totfact> 0.46110711E-01</totfact>
</mgrwt>
</event>
<event>
 4    1  0.1998832E-007  0.1115440E+04  0.7818608E-02  0.9244057E-01
          2   -1    0    0  501    0  0.00000000000E+00  0.00000000000E+00  0.15069577270E+04  0.15069577270E+04  0.25500000000E-02 0. -1.
         -2   -1    0    0    0  501 -0.00000000000E+00 -0.00000000000E+00 -0.17792418986E+04  0.17792418986E+04  0.25500000000E-02 0.  1.
    8880023    1    1    2    0    0 -0.60943736170E+03  0.66255776229E+03 -0.14288109051E+04  0.18126520612E+04  0.65864270000E+03 0.  0.
    8880022    1    1    2    0    0  0.60943736170E+03 -0.66255776229E+03  0.11565267335E+04  0.14735475644E+04  0.15294330000E+03 0.  0.
<mgrwt>
<rscale>  0 0.10610032E+04</rscale>
<asrwt>0</asrwt>
<pdfrwt beam="1">  1        2 0.23183965E+00 0.11154402E+04</pdfrwt>
<pdfrwt beam="2">  1       -2 0.27372952E+00 0.11154402E+04</pdfrwt>
<totfact> 0.56956959E-01</totfact>
</mgrwt>
</event>
<event>
 4    1  0.1998832E-007  0.8334312E+03  0.7818608E-02  0.9642693E-01
         -2   -1    0    0    0  501 -0.00000000000E+00  0.00000000000E+00  0.36170110108E+03  0.36170110109E+03  0.25500000000E-02 0.  1.
          2   -1    0    0  501    0  0.00000000000E+00 -0.00000000000E+00 -0.14377835938E+04  0.14377835938E+04  0.25500000000E-02 0. -1.
    8880023    1    1    2    0    0 -0.43255153626E+03  0.27147108000E+03 -0.36272929465E+03  0.90894451220E+03  0.65864270000E+03 0.  0.
    8880022    1    1    2    0    0  0.43255153626E+03 -0.27147108000E+03 -0.71335319810E+03  0.89054018273E+03  0.15294330000E+03 0.  0.
<mgrwt>
<rscale>  0 0.74533795E+03</rscale>
<asrwt>0</asrwt>
<pdfrwt beam="1">  1        2 0.22119747E+00 0.83343121E+03</pdfrwt>
<pdfrwt beam="2">  1       -2 0.55646324E-01 0.83343121E+03</pdfrwt>
<totfact> 0.42314927E+01</totfact>
</mgrwt>
</event>
<event>
 4    1  0.1998832E-007  0.1061153E+04  0.7818608E-02  0.9305593E-01
         -2   -1    0    0    0  501 -0.00000000000E+00  0.00000000000E+00  0.11948709722E+04  0.11948709722E+04  0.25500000000E-02 0.  1.
          2   -1    0    0  501    0  0.00000000000E+00 -0.00000000000E+00 -0.39724205195E+04  0.39724205195E+04  0.25500000000E-02 0. -1.
    8880023    1    1    2    0    0  0.32177294355E+03 -0.76726633586E+03  0.90140641916E+03  0.13923286954E+04  0.65864270000E+03 0.  0.
    8880022    1    1    2    0    0 -0.32177294355E+03  0.76726633586E+03 -0.36789559664E+04  0.37749627963E+04  0.15294330000E+03 0.  0.
<mgrwt>
<rscale>  0 0.10026962E+04</rscale>
<asrwt>0</asrwt>
<pdfrwt beam="1">  1        2 0.61114161E+00 0.10611530E+04</pdfrwt>
<pdfrwt beam="2">  1       -2 0.18382631E+00 0.10611530E+04</pdfrwt>
<totfact> 0.63501815E-02</totfact>
</mgrwt>
</event>
<event>
 4    1  0.1998832E-007  0.6635488E+03  0.7818608E-02  0.1020783E+00
         -2   -1    0    0    0  501 -0.00000000000E+00  0.00000000000E+00  0.11158842109E+03  0.11158842112E+03  0.25500000000E-02 0.  1.
          2   -1    0    0  501    0  0.00000000000E+00 -0.00000000000E+00 -0.15860628326E+04  0.15860628326E+04  0.25500000000E-02 0. -1.
    8880023    1    1    2    0    0 -0.73328474497E+02  0.33313388110E+02 -0.10896386465E+04  0.12757779718E+04  0.65864270000E+03 0.  0.
    8880022    1    1    2    0    0  0.73328474497E+02 -0.33313388110E+02 -0.38483576500E+03  0.42187328197E+03  0.15294330000E+03 0.  0.
<mgrwt>
<rscale>  0 0.47405040E+03</rscale>
<asrwt>0</asrwt>
<pdfrwt beam="1">  1        2 0.24400965E+00 0.66354883E+03</pdfrwt>
<pdfrwt beam="2">  1       -2 0.17167451E-01 0.66354883E+03</pdfrwt>
<totfact> 0.32252565E+02</totfact>
</mgrwt>
</event>
<event>
 4    1  0.1998832E-007  0.9123216E+03  0.7818608E-02  0.9506534E-01
          2   -1    0    0  501    0  0.00000000000E+00  0.00000000000E+00  0.13151069978E+04  0.13151069978E+04  0.25500000000E-02 0. -1.
         -2   -1    0    0    0  501 -0.00000000000E+00 -0.00000000000E+00 -0.14835579467E+04  0.14835579467E+04  0.25500000000E-02 0.  1.
    8880023    1    1    2    0    0 -0.26636990271E+03  0.57233516604E+03 -0.12437069708E+04  0.15424453646E+04  0.65864270000E+03 0.  1.
    8880022    1    1    2    0    0  0.26636990271E+03 -0.57233516604E+03  0.10752560218E+04  0.12562195799E+04  0.15294330000E+03 0.  0.
<mgrwt>
<rscale>  0 0.83803800E+03</rscale>
<asrwt>0</asrwt>
<pdfrwt beam="1">  1        2 0.20232415E+00 0.91232158E+03</pdfrwt>
<pdfrwt beam="2">  1       -2 0.22823968E+00 0.91232158E+03</pdfrwt>
<totfact> 0.14308316E+00</totfact>
</mgrwt>
</event>
<event>
 4    1  0.1998832E-007  0.9287291E+03  0.7818608E-02  0.9481402E-01
         -2   -1    0    0    0  501 -0.00000000000E+00  0.00000000000E+00  0.69183849827E+03  0.69183849828E+03  0.25500000000E-02 0.  1.
          2   -1    0    0  501    0  0.00000000000E+00 -0.00000000000E+00 -0.11931326434E+04  0.11931326434E+04  0.25500000000E-02 0. -1.
    8880023    1    1    2    0    0 -0.50815438058E+03  0.41292457088E+03 -0.72299074666E+03  0.11769678848E+04  0.65864270000E+03 0.  0.
    8880022    1    1    2    0    0  0.50815438058E+03 -0.41292457088E+03  0.22169660149E+03  0.70800325696E+03  0.15294330000E+03 0.  0.
<mgrwt>
<rscale>  0 0.85668945E+03</rscale>
<asrwt>0</asrwt>
<pdfrwt beam="1">  1        2 0.18355887E+00 0.92872912E+03</pdfrwt>
<pdfrwt beam="2">  1       -2 0.10643669E+00 0.92872912E+03</pdfrwt>
<totfact> 0.13605927E+01</totfact>
</mgrwt>
</event>
<event>
 4    1  0.1998832E-007  0.1626800E+04  0.7818608E-02  0.8824927E-01
          2   -1    0    0  501    0  0.00000000000E+00  0.00000000000E+00  0.30493359441E+04  0.30493359441E+04  0.25500000000E-02 0. -1.
         -2   -1    0    0    0  501 -0.00000000000E+00 -0.00000000000E+00 -0.15823403591E+04  0.15823403591E+04  0.25500000000E-02 0.  1.
    8880023    1    1    2    0    0  0.12180235006E+04 -0.85386638587E+03 -0.87941575796E+03  0.18492840059E+04  0.65864270000E+03 0.  0.
    8880022    1    1    2    0    0 -0.12180235006E+04  0.85386638587E+03  0.23464113430E+04  0.27823922973E+04  0.15294330000E+03 0.  0.
<mgrwt>
<rscale>  0 0.15928913E+04</rscale>
<asrwt>0</asrwt>
<pdfrwt beam="1">  1        2 0.46912860E+00 0.16268003E+04</pdfrwt>
<pdfrwt beam="2">  1       -2 0.24343698E+00 0.16268003E+04</pdfrwt>
<totfact> 0.10586958E-01</totfact>
</mgrwt>
</event>
<event>
 4    1  0.1998832E-007  0.1960986E+04  0.7818608E-02  0.8638351E-01
         -2   -1    0    0    0  501 -0.00000000000E+00  0.00000000000E+00  0.19638188433E+04  0.19638188433E+04  0.25500000000E-02 0.  1.
          2   -1    0    0  501    0  0.00000000000E+00 -0.00000000000E+00 -0.29716312106E+04  0.29716312106E+04  0.25500000000E-02 0. -1.
    8880023    1    1    2    0    0 -0.17110548503E+04  0.69566376437E+03 -0.20269980268E+04  0.28203170001E+04  0.65864270000E+03 0.  0.
    8880022    1    1    2    0    0  0.17110548503E+04 -0.69566376437E+03  0.10191856596E+04  0.21151330539E+04  0.15294330000E+03 0.  0.
<mgrwt>
<rscale>  0 0.19335149E+04</rscale>
<asrwt>0</asrwt>
<pdfrwt beam="1">  1        2 0.45717403E+00 0.19609862E+04</pdfrwt>
<pdfrwt beam="2">  1       -2 0.30212598E+00 0.19609862E+04</pdfrwt>
<totfact> 0.49695069E-02</totfact>
</mgrwt>
</event>
<event>
 4    1  0.1998832E-007  0.7928990E+03  0.7818608E-02  0.9726365E-01
          2   -1    0    0  501    0  0.00000000000E+00  0.00000000000E+00  0.20497824938E+04  0.20497824938E+04  0.25500000000E-02 0. -1.
         -2   -1    0    0    0  501 -0.00000000000E+00 -0.00000000000E+00 -0.40465352595E+03  0.40465352595E+03  0.25500000000E-02 0.  1.
    8880023    1    1    2    0    0 -0.34191101773E+03  0.27924099537E+03  0.52432123022E+02  0.79463073898E+03  0.65864270000E+03 0.  0.
    8880022    1    1    2    0    0  0.34191101773E+03 -0.27924099537E+03  0.15926968448E+04  0.16598052808E+04  0.15294330000E+03 0.  0.
<mgrwt>
<rscale>  0 0.69468474E+03</rscale>
<asrwt>0</asrwt>
<pdfrwt beam="1">  1        2 0.31535115E+00 0.79289904E+03</pdfrwt>
<pdfrwt beam="2">  1       -2 0.62254389E-01 0.79289904E+03</pdfrwt>
<totfact> 0.15453912E+01</totfact>
</mgrwt>
</event>
<event>
 4    1  0.1998832E-007  0.1650880E+04  0.7818608E-02  0.8809844E-01
         -2   -1    0    0    0  501 -0.00000000000E+00  0.00000000000E+00  0.17923187279E+04  0.17923187279E+04  0.25500000000E-02 0.  1.
          2   -1    0    0  501    0  0.00000000000E+00 -0.00000000000E+00 -0.20182490472E+04  0.20182490472E+04  0.25500000000E-02 0. -1.
    8880023    1    1    2    0    0  0.16089122447E+03  0.15052271389E+04  0.93451659268E+03  0.18970308891E+04  0.65864270000E+03 0.  0.
    8880022    1    1    2    0    0 -0.16089122447E+03 -0.15052271389E+04 -0.11604469120E+04  0.19135368861E+04  0.15294330000E+03 0.  0.
<mgrwt>
<rscale>  0 0.16175406E+04</rscale>
<asrwt>0</asrwt>
<pdfrwt beam="1">  1        2 0.31049985E+00 0.16508800E+04</pdfrwt>
<pdfrwt beam="2">  1       -2 0.27574134E+00 0.16508800E+04</pdfrwt>
<totfact> 0.26909313E-01</totfact>
</mgrwt>
</event>
<event>
 4    1  0.1998832E-007  0.1276067E+04  0.7818608E-02  0.9086508E-01
         -2   -1    0    0    0  501 -0.00000000000E+00  0.00000000000E+00  0.53507828920E+03  0.53507828921E+03  0.25500000000E-02 0.  1.
          2   -1    0    0  501    0  0.00000000000E+00 -0.00000000000E+00 -0.27499681087E+04  0.27499681087E+04  0.25500000000E-02 0. -1.
    8880023    1    1    2    0    0  0.54922147049E+03  0.94492967766E+03 -0.15035649052E+04  0.19720684445E+04  0.65864270000E+03 0.  0.
    8880022    1    1    2    0    0 -0.54922147049E+03 -0.94492967766E+03 -0.71132491423E+03  0.13129779534E+04  0.15294330000E+03 0.  0.
<mgrwt>
<rscale>  0 0.12305741E+04</rscale>
<asrwt>0</asrwt>
<pdfrwt beam="1">  1        2 0.42307201E+00 0.12760668E+04</pdfrwt>
<pdfrwt beam="2">  1       -2 0.82319738E-01 0.12760668E+04</pdfrwt>
<totfact> 0.31499826E+00</totfact>
</mgrwt>
</event>
<event>
 4    1  0.1998832E-007  0.7000605E+03  0.7818608E-02  0.9996950E-01
          2   -1    0    0  501    0  0.00000000000E+00  0.00000000000E+00  0.32850953865E+04  0.32850953865E+04  0.25500000000E-02 0. -1.
         -2   -1    0    0    0  501 -0.00000000000E+00 -0.00000000000E+00 -0.58286591803E+03  0.58286591804E+03  0.25500000000E-02 0.  1.
    8880023    1    1    2    0    0 -0.15469746468E+03  0.17984195624E+03 -0.36381507254E+03  0.78895250052E+03  0.65864270000E+03 0.  1.
    8880022    1    1    2    0    0  0.15469746468E+03 -0.17984195624E+03  0.30660445410E+04  0.30790088040E+04  0.15294330000E+03 0.  0.
<mgrwt>
<rscale>  0 0.55784153E+03</rscale>
<asrwt>0</asrwt>
<pdfrwt beam="1">  1        2 0.50539928E+00 0.70006046E+03</pdfrwt>
<pdfrwt beam="2">  1       -2 0.89671681E-01 0.70006046E+03</pdfrwt>
<totfact> 0.13260233E+00</totfact>
</mgrwt>
</event>
<event>
 4    1  0.1998832E-007  0.1237730E+04  0.7818608E-02  0.9121291E-01
          2   -1    0    0  501    0  0.00000000000E+00  0.00000000000E+00  0.31668949562E+04  0.31668949562E+04  0.25500000000E-02 0. -1.
         -2   -1    0    0    0  501 -0.00000000000E+00 -0.00000000000E+00 -0.78977167805E+03  0.78977167806E+03  0.25500000000E-02 0.  1.
    8880023    1    1    2    0    0  0.90127690137E+03 -0.53466320813E+03 -0.12070859238E+03  0.12436018533E+04  0.65864270000E+03 0.  0.
    8880022    1    1    2    0    0 -0.90127690137E+03  0.53466320813E+03  0.24978318705E+04  0.27130647809E+04  0.15294330000E+03 0.  0.
<mgrwt>
<rscale>  0 0.11904112E+04</rscale>
<asrwt>0</asrwt>
<pdfrwt beam="1">  1        2 0.48721461E+00 0.12377298E+04</pdfrwt>
<pdfrwt beam="2">  1       -2 0.12150334E+00 0.12377298E+04</pdfrwt>
<totfact> 0.69130041E-01</totfact>
</mgrwt>
</event>
<event>
 4    1  0.1998832E-007  0.1062450E+04  0.7818608E-02  0.9304063E-01
          2   -1    0    0  501    0  0.00000000000E+00  0.00000000000E+00  0.10888880311E+04  0.10888880311E+04  0.25500000000E-02 0. -1.
         -2   -1    0    0    0  501 -0.00000000000E+00 -0.00000000000E+00 -0.24003034679E+04  0.24003034679E+04  0.25500000000E-02 0.  1.
    8880023    1    1    2    0    0 -0.76928466822E+03 -0.32123283513E+03 -0.20860064667E+04  0.23409875311E+04  0.65864270000E+03 0.  0.
    8880022    1    1    2    0    0  0.76928466822E+03  0.32123283513E+03  0.77459103000E+03  0.11482039679E+04  0.15294330000E+03 0.  0.
<mgrwt>
<rscale>  0 0.10040970E+04</rscale>
<asrwt>0</asrwt>
<pdfrwt beam="1">  1        2 0.16752124E+00 0.10624498E+04</pdfrwt>
<pdfrwt beam="2">  1       -2 0.36927746E+00 0.10624498E+04</pdfrwt>
<totfact> 0.26065062E-01</totfact>
</mgrwt>
</event>
<event>
 4    1  0.1998832E-007  0.7229214E+03  0.7818608E-02  0.9912822E-01
         -2   -1    0    0    0  501 -0.00000000000E+00  0.00000000000E+00  0.77580543431E+03  0.77580543432E+03  0.25500000000E-02 0.  1.
          2   -1    0    0  501    0  0.00000000000E+00 -0.00000000000E+00 -0.21277226646E+04  0.21277226646E+04  0.25500000000E-02 0. -1.
    8880023    1    1    2    0    0 -0.30067215031E+02 -0.29648112535E+03  0.58988452395E+03  0.93304825865E+03  0.65864270000E+03 0.  1.
    8880022    1    1    2    0    0  0.30067215031E+02  0.29648112535E+03 -0.19418017542E+04  0.19704798402E+04  0.15294330000E+03 0.  0.
<mgrwt>
<rscale>  0 0.59643872E+03</rscale>
<asrwt>0</asrwt>
<pdfrwt beam="1">  1        2 0.32734195E+00 0.72292137E+03</pdfrwt>
<pdfrwt beam="2">  1       -2 0.11935468E+00 0.72292137E+03</pdfrwt>
<totfact> 0.31881943E+00</totfact>
</mgrwt>
</event>
<event>
 4    1  0.1998832E-007  0.1423972E+04  0.7818608E-02  0.8965277E-01
          2   -1    0    0  501    0  0.00000000000E+00  0.00000000000E+00  0.13277199680E+04  0.13277199680E+04  0.25500000000E-02 0. -1.
         -2   -1    0    0    0  501 -0.00000000000E+00 -0.00000000000E+00 -0.26310605951E+04  0.26310605951E+04  0.25500000000E-02 0.  1.
    8880023    1    1    2    0    0 -0.11920519777E+04 -0.41580884295E+03 -0.20409659234E+04  0.24886215097E+04  0.65864270000E+03 0.  0.
    8880022    1    1    2    0    0  0.11920519777E+04  0.41580884295E+03  0.73762529632E+03  0.14701590534E+04  0.15294330000E+03 0.  0.
<mgrwt>
<rscale>  0 0.13842803E+04</rscale>
<asrwt>0</asrwt>
<pdfrwt beam="1">  1        2 0.20426461E+00 0.14239716E+04</pdfrwt>
<pdfrwt beam="2">  1       -2 0.40477855E+00 0.14239716E+04</pdfrwt>
<totfact> 0.10489916E-01</totfact>
</mgrwt>
</event>
<event>
 4    1  0.1998832E-007  0.6661875E+03  0.7818608E-02  0.1018557E+00
          2   -1    0    0  501    0  0.00000000000E+00  0.00000000000E+00  0.25408961614E+04  0.25408961614E+04  0.25500000000E-02 0. -1.
         -2   -1    0    0    0  501 -0.00000000000E+00 -0.00000000000E+00 -0.32289699952E+03  0.32289699953E+03  0.25500000000E-02 0.  1.
    8880023    1    1    2    0    0 -0.69383990195E+02 -0.71982660284E+02  0.28619617147E+02  0.66680201726E+03  0.65864270000E+03 0.  1.
    8880022    1    1    2    0    0  0.69383990195E+02  0.71982660284E+02  0.21893795447E+04  0.21969911437E+04  0.15294330000E+03 0.  0.
<mgrwt>
<rscale>  0 0.48210877E+03</rscale>
<asrwt>0</asrwt>
<pdfrwt beam="1">  1        2 0.39090711E+00 0.66618755E+03</pdfrwt>
<pdfrwt beam="2">  1       -2 0.49676461E-01 0.66618755E+03</pdfrwt>
<totfact> 0.13446466E+01</totfact>
</mgrwt>
</event>
<event>
 4    1  0.1998832E-007  0.7618460E+03  0.7818608E-02  0.9800352E-01
         -2   -1    0    0    0  501 -0.00000000000E+00  0.00000000000E+00  0.50206303832E+03  0.50206303833E+03  0.25500000000E-02 0.  1.
          2   -1    0    0  501    0  0.00000000000E+00 -0.00000000000E+00 -0.73643656326E+03  0.73643656327E+03  0.25500000000E-02 0. -1.
    8880023    1    1    2    0    0  0.37468177990E+03  0.78820150632E+02  0.47785348137E+01  0.76186094072E+03  0.65864270000E+03 0.  0.
    8880022    1    1    2    0    0 -0.37468177990E+03 -0.78820150632E+02 -0.23915205975E+03  0.47663866087E+03  0.15294330000E+03 0.  1.
<mgrwt>
<rscale>  0 0.65343670E+03</rscale>
<asrwt>0</asrwt>
<pdfrwt beam="1">  1        2 0.11329793E+00 0.76184595E+03</pdfrwt>
<pdfrwt beam="2">  1       -2 0.77240467E-01 0.76184595E+03</pdfrwt>
<totfact> 0.58119416E+01</totfact>
</mgrwt>
</event>
<event>
 4    1  0.1998832E-007  0.8090254E+03  0.7818608E-02  0.9691611E-01
         -2   -1    0    0    0  501 -0.00000000000E+00  0.00000000000E+00  0.46887655296E+03  0.46887655297E+03  0.25500000000E-02 0.  1.
          2   -1    0    0  501    0  0.00000000000E+00 -0.00000000000E+00 -0.21094826171E+04  0.21094826171E+04  0.25500000000E-02 0. -1.
    8880023    1    1    2    0    0 -0.33317952032E+03 -0.33121479606E+03  0.56307843840E+02  0.81098249884E+03  0.65864270000E+03 0.  1.
    8880022    1    1    2    0    0  0.33317952032E+03  0.33121479606E+03 -0.16969139080E+04  0.17673766713E+04  0.15294330000E+03 0.  0.
<mgrwt>
<rscale>  0 0.71518492E+03</rscale>
<asrwt>0</asrwt>
<pdfrwt beam="1">  1        2 0.32453578E+00 0.80902536E+03</pdfrwt>
<pdfrwt beam="2">  1       -2 0.72134855E-01 0.80902536E+03</pdfrwt>
<totfact> 0.10395093E+01</totfact>
</mgrwt>
</event>
<event>
 4    1  0.1998832E-007  0.8639541E+03  0.7818608E-02  0.9586568E-01
          2   -1    0    0  501    0  0.00000000000E+00  0.00000000000E+00  0.13629824874E+04  0.13629824874E+04  0.25500000000E-02 0. -1.
         -2   -1    0    0    0  501 -0.00000000000E+00 -0.00000000000E+00 -0.17973753540E+04  0.17973753540E+04  0.25500000000E-02 0.  1.
    8880023    1    1    2    0    0  0.45930123906E+03 -0.31882430283E+03 -0.16226157068E+04  0.18382868391E+04  0.65864270000E+03 0.  1.
    8880022    1    1    2    0    0 -0.45930123906E+03  0.31882430283E+03  0.11882228403E+04  0.13220710024E+04  0.15294330000E+03 0.  0.
<mgrwt>
<rscale>  0 0.78191608E+03</rscale>
<asrwt>0</asrwt>
<pdfrwt beam="1">  1        2 0.20968961E+00 0.86395415E+03</pdfrwt>
<pdfrwt beam="2">  1       -2 0.27651929E+00 0.86395415E+03</pdfrwt>
<totfact> 0.68789119E-01</totfact>
</mgrwt>
</event>
<event>
 4    1  0.1998832E-007  0.8255607E+03  0.7818608E-02  0.9658032E-01
         -2   -1    0    0    0  501 -0.00000000000E+00  0.00000000000E+00  0.49163602016E+03  0.49163602017E+03  0.25500000000E-02 0.  1.
          2   -1    0    0  501    0  0.00000000000E+00 -0.00000000000E+00 -0.12190674826E+04  0.12190674826E+04  0.25500000000E-02 0. -1.
    8880023    1    1    2    0    0 -0.86390695293E+02 -0.49018041786E+03 -0.84021398124E+03  0.11779261160E+04  0.65864270000E+03 0.  0.
    8880022    1    1    2    0    0  0.86390695293E+02  0.49018041786E+03  0.11278251878E+03  0.53277738677E+03  0.15294330000E+03 0.  0.
<mgrwt>
<rscale>  0 0.73571449E+03</rscale>
<asrwt>0</asrwt>
<pdfrwt beam="1">  1        2 0.18754884E+00 0.82556066E+03</pdfrwt>
<pdfrwt beam="2">  1       -2 0.75636311E-01 0.82556066E+03</pdfrwt>
<totfact> 0.29241130E+01</totfact>
</mgrwt>
</event>
<event>
 4    1  0.1998832E-007  0.8132327E+03  0.7818608E-02  0.9682882E-01
         -2   -1    0    0    0  501 -0.00000000000E+00  0.00000000000E+00  0.11873809397E+04  0.11873809397E+04  0.25500000000E-02 0.  1.
          2   -1    0    0  501    0  0.00000000000E+00 -0.00000000000E+00 -0.74699833115E+03  0.74699833115E+03  0.25500000000E-02 0. -1.
    8880023    1    1    2    0    0  0.31701206621E+03 -0.35642751519E+03  0.92896525507E+03  0.12346351182E+04  0.65864270000E+03 0.  1.
    8880022    1    1    2    0    0 -0.31701206621E+03  0.35642751519E+03 -0.48858264650E+03  0.69974415266E+03  0.15294330000E+03 0.  0.
<mgrwt>
<rscale>  0 0.72045184E+03</rscale>
<asrwt>0</asrwt>
<pdfrwt beam="1">  1        2 0.11492282E+00 0.81323270E+03</pdfrwt>
<pdfrwt beam="2">  1       -2 0.18267399E+00 0.81323270E+03</pdfrwt>
<totfact> 0.66260597E+00</totfact>
</mgrwt>
</event>
<event>
 4    1  0.1998832E-007  0.6726566E+03  0.7818608E-02  0.1013826E+00
         -2   -1    0    0    0  501 -0.00000000000E+00  0.00000000000E+00  0.43332821160E+03  0.43332821161E+03  0.25500000000E-02 0.  1.
          2   -1    0    0  501    0  0.00000000000E+00 -0.00000000000E+00 -0.92865626423E+03  0.92865626423E+03  0.25500000000E-02 0. -1.
    8880023    1    1    2    0    0  0.13685019470E+02  0.13590199993E+03  0.14630300440E+03  0.68838318450E+03  0.65864270000E+03 0.  1.
    8880022    1    1    2    0    0 -0.13685019470E+02 -0.13590199993E+03 -0.64163105703E+03  0.67360129134E+03  0.15294330000E+03 0.  0.
<mgrwt>
<rscale>  0 0.49981993E+03</rscale>
<asrwt>0</asrwt>
<pdfrwt beam="1">  1        2 0.14287019E+00 0.67265655E+03</pdfrwt>
<pdfrwt beam="2">  1       -2 0.66665879E-01 0.67265655E+03</pdfrwt>
<totfact> 0.59211793E+01</totfact>
</mgrwt>
</event>
<event>
 4    1  0.1998832E-007  0.1629748E+04  0.7818608E-02  0.8823065E-01
          2   -1    0    0  501    0  0.00000000000E+00  0.00000000000E+00  0.15240538473E+04  0.15240538473E+04  0.25500000000E-02 0. -1.
         -2   -1    0    0    0  501 -0.00000000000E+00 -0.00000000000E+00 -0.20660991330E+04  0.20660991330E+04  0.25500000000E-02 0.  1.
    8880023    1    1    2    0    0 -0.55686441642E+01  0.14907173733E+04 -0.11270133426E+04  0.19814738397E+04  0.65864270000E+03 0.  1.
    8880022    1    1    2    0    0  0.55686441642E+01 -0.14907173733E+04  0.58496805677E+03  0.16086791406E+04  0.15294330000E+03 0.  0.
<mgrwt>
<rscale>  0 0.15959101E+04</rscale>
<asrwt>0</asrwt>
<pdfrwt beam="1">  1        2 0.23446982E+00 0.16297483E+04</pdfrwt>
<pdfrwt beam="2">  1       -2 0.31786141E+00 0.16297483E+04</pdfrwt>
<totfact> 0.28189140E-01</totfact>
</mgrwt>
</event>
<event>
 4    1  0.1998832E-007  0.1399870E+04  0.7818608E-02  0.8983784E-01
          2   -1    0    0  501    0  0.00000000000E+00  0.00000000000E+00  0.17073723011E+04  0.17073723011E+04  0.25500000000E-02 0. -1.
         -2   -1    0    0    0  501 -0.00000000000E+00 -0.00000000000E+00 -0.15244020835E+04  0.15244020835E+04  0.25500000000E-02 0.  1.
    8880023    1    1    2    0    0 -0.75409091072E+03  0.97835159882E+03 -0.82961466707E+03  0.16272355867E+04  0.65864270000E+03 0.  0.
    8880022    1    1    2    0    0  0.75409091072E+03 -0.97835159882E+03  0.10125848847E+04  0.16045387980E+04  0.15294330000E+03 0.  0.
<mgrwt>
<rscale>  0 0.13593451E+04</rscale>
<asrwt>0</asrwt>
<pdfrwt beam="1">  1        2 0.26267266E+00 0.13998697E+04</pdfrwt>
<pdfrwt beam="2">  1       -2 0.23452340E+00 0.13998697E+04</pdfrwt>
<totfact> 0.73846263E-01</totfact>
</mgrwt>
</event>
<event>
 4    1  0.1998832E-007  0.1662534E+04  0.7818608E-02  0.8802650E-01
          2   -1    0    0  501    0  0.00000000000E+00  0.00000000000E+00  0.21269059142E+04  0.21269059142E+04  0.25500000000E-02 0. -1.
         -2   -1    0    0    0  501 -0.00000000000E+00 -0.00000000000E+00 -0.12688735692E+04  0.12688735692E+04  0.25500000000E-02 0.  1.
    8880023    1    1    2    0    0 -0.10326957023E+02  0.15264667734E+04  0.53307924140E+02  0.16633879275E+04  0.65864270000E+03 0.  0.
    8880022    1    1    2    0    0  0.10326957023E+02 -0.15264667734E+04  0.80472442084E+03  0.17323915559E+04  0.15294330000E+03 0.  0.
<mgrwt>
<rscale>  0 0.16294625E+04</rscale>
<asrwt>0</asrwt>
<pdfrwt beam="1">  1        2 0.32721629E+00 0.16625335E+04</pdfrwt>
<pdfrwt beam="2">  1       -2 0.19521132E+00 0.16625335E+04</pdfrwt>
<totfact> 0.75106418E-01</totfact>
</mgrwt>
</event>
<event>
 4    1  0.1998832E-007  0.8557490E+03  0.7818608E-02  0.9601170E-01
         -2   -1    0    0    0  501 -0.00000000000E+00  0.00000000000E+00  0.38930426488E+03  0.38930426489E+03  0.25500000000E-02 0.  1.
          2   -1    0    0  501    0  0.00000000000E+00 -0.00000000000E+00 -0.29584076193E+04  0.29584076193E+04  0.25500000000E-02 0. -1.
    8880023    1    1    2    0    0 -0.52891364780E+03 -0.13691795117E+03 -0.15731356604E+03  0.87008846476E+03  0.65864270000E+03 0.  0.
    8880022    1    1    2    0    0  0.52891364780E+03  0.13691795117E+03 -0.24117897884E+04  0.24776234194E+04  0.15294330000E+03 0.  0.
<mgrwt>
<rscale>  0 0.77218769E+03</rscale>
<asrwt>0</asrwt>
<pdfrwt beam="1">  1        2 0.45513962E+00 0.85574902E+03</pdfrwt>
<pdfrwt beam="2">  1       -2 0.59892966E-01 0.85574902E+03</pdfrwt>
<totfact> 0.50197984E+00</totfact>
</mgrwt>
</event>
<event>
 4    1  0.1998832E-007  0.1052497E+04  0.7818608E-02  0.9315886E-01
         -2   -1    0    0    0  501 -0.00000000000E+00  0.00000000000E+00  0.15844894806E+04  0.15844894806E+04  0.25500000000E-02 0.  1.
          2   -1    0    0  501    0  0.00000000000E+00 -0.00000000000E+00 -0.11442313805E+04  0.11442313805E+04  0.25500000000E-02 0. -1.
    8880023    1    1    2    0    0  0.69681892432E+03 -0.43403111449E+03  0.12025242003E+04  0.15980657934E+04  0.65864270000E+03 0.  0.
    8880022    1    1    2    0    0 -0.69681892432E+03  0.43403111449E+03 -0.76226610014E+03  0.11306550677E+04  0.15294330000E+03 0.  0.
<mgrwt>
<rscale>  0 0.99333452E+03</rscale>
<asrwt>0</asrwt>
<pdfrwt beam="1">  1        2 0.17603560E+00 0.10524969E+04</pdfrwt>
<pdfrwt beam="2">  1       -2 0.24376761E+00 0.10524969E+04</pdfrwt>
<totfact> 0.14216515E+00</totfact>
</mgrwt>
</event>
<event>
 4    1  0.1998832E-007  0.1163267E+04  0.7818608E-02  0.9193683E-01
          2   -1    0    0  501    0  0.00000000000E+00  0.00000000000E+00  0.12212108321E+04  0.12212108321E+04  0.25500000000E-02 0. -1.
         -2   -1    0    0    0  501 -0.00000000000E+00 -0.00000000000E+00 -0.97991496778E+03  0.97991496779E+03  0.25500000000E-02 0.  1.
    8880023    1    1    2    0    0 -0.92906286425E+03 -0.23711241734E+03 -0.11025135589E+03  0.11684800691E+04  0.65864270000E+03 0.  1.
    8880022    1    1    2    0    0  0.92906286425E+03  0.23711241734E+03  0.35154722017E+03  0.10326457307E+04  0.15294330000E+03 0.  0.
<mgrwt>
<rscale>  0 0.11118864E+04</rscale>
<asrwt>0</asrwt>
<pdfrwt beam="1">  1        2 0.18787859E+00 0.11632671E+04</pdfrwt>
<pdfrwt beam="2">  1       -2 0.15075615E+00 0.11632671E+04</pdfrwt>
<totfact> 0.53083225E+00</totfact>
</mgrwt>
</event>
<event>
 4    1  0.1998832E-007  0.7823185E+03  0.7818608E-02  0.9750419E-01
          2   -1    0    0  501    0  0.00000000000E+00  0.00000000000E+00  0.10458341108E+04  0.10458341108E+04  0.25500000000E-02 0. -1.
         -2   -1    0    0    0  501 -0.00000000000E+00 -0.00000000000E+00 -0.14624223714E+04  0.14624223714E+04  0.25500000000E-02 0.  1.
    8880023    1    1    2    0    0  0.42205048274E+03  0.92420863008E+01 -0.13000260924E+04  0.15172640091E+04  0.65864270000E+03 0.  1.
    8880022    1    1    2    0    0 -0.42205048274E+03 -0.92420863008E+01  0.88343783182E+03  0.99099247315E+03  0.15294330000E+03 0.  0.
<mgrwt>
<rscale>  0 0.68092614E+03</rscale>
<asrwt>0</asrwt>
<pdfrwt beam="1">  1        2 0.16089755E+00 0.78231850E+03</pdfrwt>
<pdfrwt beam="2">  1       -2 0.22498806E+00 0.78231850E+03</pdfrwt>
<totfact> 0.22167355E+00</totfact>
</mgrwt>
</event>
<event>
 4    1  0.1998832E-007  0.7883947E+03  0.7818608E-02  0.9736475E-01
         -2   -1    0    0    0  501 -0.00000000000E+00  0.00000000000E+00  0.93714833858E+03  0.93714833859E+03  0.25500000000E-02 0.  1.
          2   -1    0    0  501    0  0.00000000000E+00 -0.00000000000E+00 -0.83687915029E+03  0.83687915029E+03  0.25500000000E-02 0. -1.
    8880023    1    1    2    0    0  0.19228888805E+03  0.38830522048E+03  0.67521481034E+03  0.10380179223E+04  0.65864270000E+03 0.  1.
    8880022    1    1    2    0    0 -0.19228888805E+03 -0.38830522048E+03 -0.57494562204E+03  0.73600956654E+03  0.15294330000E+03 0.  0.
<mgrwt>
<rscale>  0 0.68886011E+03</rscale>
<asrwt>0</asrwt>
<pdfrwt beam="1">  1        2 0.12875064E+00 0.78839468E+03</pdfrwt>
<pdfrwt beam="2">  1       -2 0.14417667E+00 0.78839468E+03</pdfrwt>
<totfact> 0.10911457E+01</totfact>
</mgrwt>
</event>
<event>
 4    1  0.1998832E-007  0.1309894E+04  0.7818608E-02  0.9057062E-01
          2   -1    0    0  501    0  0.00000000000E+00  0.00000000000E+00  0.17150957890E+04  0.17150957890E+04  0.25500000000E-02 0. -1.
         -2   -1    0    0    0  501 -0.00000000000E+00 -0.00000000000E+00 -0.16131378366E+04  0.16131378366E+04  0.25500000000E-02 0.  1.
    8880023    1    1    2    0    0 -0.10172236182E+04  0.49726146052E+03 -0.10701000439E+04  0.16914305069E+04  0.65864270000E+03 0.  0.
    8880022    1    1    2    0    0  0.10172236182E+04 -0.49726146052E+03  0.11720579963E+04  0.16368031187E+04  0.15294330000E+03 0.  0.
<mgrwt>
<rscale>  0 0.12658881E+04</rscale>
<asrwt>0</asrwt>
<pdfrwt beam="1">  1        2 0.26386089E+00 0.13098943E+04</pdfrwt>
<pdfrwt beam="2">  1       -2 0.24817505E+00 0.13098943E+04</pdfrwt>
<totfact> 0.60807991E-01</totfact>
</mgrwt>
</event>
<event>
 4    1  0.1998832E-007  0.7567798E+03  0.7818608E-02  0.9813517E-01
          2   -1    0    0  501    0  0.00000000000E+00  0.00000000000E+00  0.65213341238E+03  0.65213341238E+03  0.25500000000E-02 0. -1.
         -2   -1    0    0    0  501 -0.00000000000E+00 -0.00000000000E+00 -0.56378415580E+03  0.56378415581E+03  0.25500000000E-02 0.  1.
    8880023    1    1    2    0    0  0.15327833385E+03  0.33972215365E+03 -0.11362428852E+03  0.76526209531E+03  0.65864270000E+03 0.  1.
    8880022    1    1    2    0    0 -0.15327833385E+03 -0.33972215365E+03  0.20197354510E+03  0.45065547288E+03  0.15294330000E+03 0.  0.
<mgrwt>
<rscale>  0 0.64642174E+03</rscale>
<asrwt>0</asrwt>
<pdfrwt beam="1">  1        2 0.10032822E+00 0.75677975E+03</pdfrwt>
<pdfrwt beam="2">  1       -2 0.86736024E-01 0.75677975E+03</pdfrwt>
<totfact> 0.52142173E+01</totfact>
</mgrwt>
</event>
<event>
 4    1  0.1998832E-007  0.9979124E+03  0.7818608E-02  0.9384294E-01
          2   -1    0    0  501    0  0.00000000000E+00  0.00000000000E+00  0.21568478505E+04  0.21568478505E+04  0.25500000000E-02 0. -1.
         -2   -1    0    0    0  501 -0.00000000000E+00 -0.00000000000E+00 -0.57005347502E+03  0.57005347503E+03  0.25500000000E-02 0.  1.
    8880023    1    1    2    0    0  0.34313784260E+03  0.66653979198E+03  0.37081090868E+02  0.99860106493E+03  0.65864270000E+03 0.  0.
    8880022    1    1    2    0    0 -0.34313784260E+03 -0.66653979198E+03  0.15497132846E+04  0.17283002606E+04  0.15294330000E+03 0.  0.
<mgrwt>
<rscale>  0 0.93379570E+03</rscale>
<asrwt>0</asrwt>
<pdfrwt beam="1">  1        2 0.33182275E+00 0.99791236E+03</pdfrwt>
<pdfrwt beam="2">  1       -2 0.87700534E-01 0.99791236E+03</pdfrwt>
<totfact> 0.61494685E+00</totfact>
</mgrwt>
</event>
<event>
 4    1  0.1998832E-007  0.6708662E+03  0.7818608E-02  0.1015049E+00
          2   -1    0    0  501    0  0.00000000000E+00  0.00000000000E+00  0.55504962611E+03  0.55504962611E+03  0.25500000000E-02 0. -1.
         -2   -1    0    0    0  501 -0.00000000000E+00 -0.00000000000E+00 -0.17134872497E+04  0.17134872497E+04  0.25500000000E-02 0.  1.
    8880023    1    1    2    0    0 -0.12334236905E+03  0.32217357581E+02 -0.16267520413E+04  0.17596544287E+04  0.65864270000E+03 0.  1.
    8880022    1    1    2    0    0  0.12334236905E+03 -0.32217357581E+02  0.46831441774E+03  0.50888244714E+03  0.15294330000E+03 0.  0.
<mgrwt>
<rscale>  0 0.49516244E+03</rscale>
<asrwt>0</asrwt>
<pdfrwt beam="1">  1        2 0.85392251E-01 0.67086623E+03</pdfrwt>
<pdfrwt beam="2">  1       -2 0.26361342E+00 0.67086623E+03</pdfrwt>
<totfact> 0.30187012E+00</totfact>
</mgrwt>
</event>
<event>
 4    1  0.1998832E-007  0.7899637E+03  0.7818608E-02  0.9732932E-01
         -2   -1    0    0    0  501 -0.00000000000E+00  0.00000000000E+00  0.18317473946E+04  0.18317473946E+04  0.25500000000E-02 0.  1.
          2   -1    0    0  501    0  0.00000000000E+00 -0.00000000000E+00 -0.13156919359E+04  0.13156919359E+04  0.25500000000E-02 0. -1.
    8880023    1    1    2    0    0 -0.21435177730E+03 -0.37984968248E+03  0.17010321450E+04  0.18755140710E+04  0.65864270000E+03 0.  1.
    8880022    1    1    2    0    0  0.21435177730E+03  0.37984968248E+03 -0.11849766863E+04  0.12719252595E+04  0.15294330000E+03 0.  0.
<mgrwt>
<rscale>  0 0.69089435E+03</rscale>
<asrwt>0</asrwt>
<pdfrwt beam="1">  1        2 0.20241414E+00 0.78996372E+03</pdfrwt>
<pdfrwt beam="2">  1       -2 0.28180729E+00 0.78996372E+03</pdfrwt>
<totfact> 0.69004647E-01</totfact>
</mgrwt>
</event>
<event>
 4    1  0.1998832E-007  0.1385032E+04  0.7818608E-02  0.8995401E-01
         -2   -1    0    0    0  501 -0.00000000000E+00  0.00000000000E+00  0.14995494883E+04  0.14995494883E+04  0.25500000000E-02 0.  1.
          2   -1    0    0  501    0  0.00000000000E+00 -0.00000000000E+00 -0.25676185295E+04  0.25676185295E+04  0.25500000000E-02 0. -1.
    8880023    1    1    2    0    0 -0.62296962611E+03  0.10470977244E+04  0.96778290887E+03  0.16896504859E+04  0.65864270000E+03 0.  0.
    8880022    1    1    2    0    0  0.62296962611E+03 -0.10470977244E+04 -0.20358519500E+04  0.23775175320E+04  0.15294330000E+03 0.  0.
<mgrwt>
<rscale>  0 0.13439757E+04</rscale>
<asrwt>0</asrwt>
<pdfrwt beam="1">  1        2 0.39501823E+00 0.13850325E+04</pdfrwt>
<pdfrwt beam="2">  1       -2 0.23069992E+00 0.13850325E+04</pdfrwt>
<totfact> 0.25620565E-01</totfact>
</mgrwt>
</event>
<event>
 4    1  0.1998832E-007  0.7234446E+03  0.7818608E-02  0.9911098E-01
          2   -1    0    0  501    0  0.00000000000E+00  0.00000000000E+00  0.14189203070E+04  0.14189203070E+04  0.25500000000E-02 0. -1.
         -2   -1    0    0    0  501 -0.00000000000E+00 -0.00000000000E+00 -0.34602311888E+03  0.34602311889E+03  0.25500000000E-02 0.  1.
    8880023    1    1    2    0    0  0.29896372738E+03  0.13513757422E+02  0.93470506770E+02  0.72945793150E+03  0.65864270000E+03 0.  1.
    8880022    1    1    2    0    0 -0.29896372738E+03 -0.13513757422E+02  0.97942668130E+03  0.10354854943E+04  0.15294330000E+03 0.  0.
<mgrwt>
<rscale>  0 0.59726419E+03</rscale>
<asrwt>0</asrwt>
<pdfrwt beam="1">  1        2 0.21829543E+00 0.72344463E+03</pdfrwt>
<pdfrwt beam="2">  1       -2 0.53234327E-01 0.72344463E+03</pdfrwt>
<totfact> 0.48059859E+01</totfact>
</mgrwt>
</event>
<event>
 4    1  0.1998832E-007  0.9092304E+03  0.7818608E-02  0.9511373E-01
          2   -1    0    0  501    0  0.00000000000E+00  0.00000000000E+00  0.20779352324E+04  0.20779352324E+04  0.25500000000E-02 0. -1.
         -2   -1    0    0    0  501 -0.00000000000E+00 -0.00000000000E+00 -0.11417829467E+04  0.11417829467E+04  0.25500000000E-02 0.  1.
    8880023    1    1    2    0    0  0.44365562154E+03  0.44278605456E+03 -0.89645932901E+03  0.12768474206E+04  0.65864270000E+03 0.  0.
    8880022    1    1    2    0    0 -0.44365562154E+03 -0.44278605456E+03  0.18326116147E+04  0.19428707584E+04  0.15294330000E+03 0.  0.
<mgrwt>
<rscale>  0 0.83450484E+03</rscale>
<asrwt>0</asrwt>
<pdfrwt beam="1">  1        2 0.31968234E+00 0.90923045E+03</pdfrwt>
<pdfrwt beam="2">  1       -2 0.17565891E+00 0.90923045E+03</pdfrwt>
<totfact> 0.11903398E+00</totfact>
</mgrwt>
</event>
<event>
 4    1  0.1998832E-007  0.1025399E+04  0.7818608E-02  0.9349057E-01
         -2   -1    0    0    0  501 -0.00000000000E+00  0.00000000000E+00  0.11150755354E+04  0.11150755354E+04  0.25500000000E-02 0.  1.
          2   -1    0    0  501    0  0.00000000000E+00 -0.00000000000E+00 -0.17379386745E+04  0.17379386745E+04  0.25500000000E-02 0. -1.
    8880023    1    1    2    0    0  0.78003585790E+03  0.95797357202E+02  0.74541107680E+03  0.12677069665E+04  0.65864270000E+03 0.  0.
    8880022    1    1    2    0    0 -0.78003585790E+03 -0.95797357202E+02 -0.13682742159E+04  0.15853072434E+04  0.15294330000E+03 0.  0.
<mgrwt>
<rscale>  0 0.96389348E+03</rscale>
<asrwt>0</asrwt>
<pdfrwt beam="1">  1        2 0.26737518E+00 0.10253991E+04</pdfrwt>
<pdfrwt beam="2">  1       -2 0.17155008E+00 0.10253991E+04</pdfrwt>
<totfact> 0.19242342E+00</totfact>
</mgrwt>
</event>
<event>
 4    1  0.1998832E-007  0.1033827E+04  0.7818608E-02  0.9338581E-01
          2   -1    0    0  501    0  0.00000000000E+00  0.00000000000E+00  0.78554789988E+03  0.78554789988E+03  0.25500000000E-02 0. -1.
         -2   -1    0    0    0  501 -0.00000000000E+00 -0.00000000000E+00 -0.13783974376E+04  0.13783974376E+04  0.25500000000E-02 0.  1.
    8880023    1    1    2    0    0  0.52539161142E+03  0.59912576821E+03  0.17298852815E+03  0.10482000137E+04  0.65864270000E+03 0.  0.
    8880022    1    1    2    0    0 -0.52539161142E+03 -0.59912576821E+03 -0.76583806583E+03  0.11157453238E+04  0.15294330000E+03 0.  0.
<mgrwt>
<rscale>  0 0.97307306E+03</rscale>
<asrwt>0</asrwt>
<pdfrwt beam="1">  1        2 0.12085352E+00 0.10338270E+04</pdfrwt>
<pdfrwt beam="2">  1       -2 0.21206114E+00 0.10338270E+04</pdfrwt>
<totfact> 0.38816415E+00</totfact>
</mgrwt>
</event>
<event>
 4    1  0.1998832E-007  0.1253677E+04  0.7818608E-02  0.9106632E-01
          2   -1    0    0  501    0  0.00000000000E+00  0.00000000000E+00  0.10618754143E+04  0.10618754143E+04  0.25500000000E-02 0. -1.
         -2   -1    0    0    0  501 -0.00000000000E+00 -0.00000000000E+00 -0.16682690904E+04  0.16682690904E+04  0.25500000000E-02 0.  1.
    8880023    1    1    2    0    0  0.45205806221E+03  0.96619802901E+03 -0.97822712227E+03  0.15901677999E+04  0.65864270000E+03 0.  0.
    8880022    1    1    2    0    0 -0.45205806221E+03 -0.96619802901E+03  0.37183344617E+03  0.11399767048E+04  0.15294330000E+03 0.  0.
<mgrwt>
<rscale>  0 0.12071371E+04</rscale>
<asrwt>0</asrwt>
<pdfrwt beam="1">  1        2 0.16336545E+00 0.12536767E+04</pdfrwt>
<pdfrwt beam="2">  1       -2 0.25665678E+00 0.12536767E+04</pdfrwt>
<totfact> 0.13033963E+00</totfact>
</mgrwt>
</event>
<event>
 4    1  0.1998832E-007  0.1165929E+04  0.7818608E-02  0.9190975E-01
          2   -1    0    0  501    0  0.00000000000E+00  0.00000000000E+00  0.31088447510E+04  0.31088447510E+04  0.25500000000E-02 0. -1.
         -2   -1    0    0    0  501 -0.00000000000E+00 -0.00000000000E+00 -0.48889762359E+03  0.48889762359E+03  0.25500000000E-02 0.  1.
    8880023    1    1    2    0    0  0.27221833526E+03 -0.92275497083E+03  0.50768082773E+03  0.12716641016E+04  0.65864270000E+03 0.  0.
    8880022    1    1    2    0    0 -0.27221833526E+03  0.92275497083E+03  0.21122662997E+04  0.23260782730E+04  0.15294330000E+03 0.  0.
<mgrwt>
<rscale>  0 0.11147067E+04</rscale>
<asrwt>0</asrwt>
<pdfrwt beam="1">  1        2 0.47828381E+00 0.11659287E+04</pdfrwt>
<pdfrwt beam="2">  1       -2 0.75215018E-01 0.11659287E+04</pdfrwt>
<totfact> 0.23581666E+00</totfact>
</mgrwt>
</event>
<event>
 4    1  0.1998832E-007  0.7149487E+03  0.7818608E-02  0.9940064E-01
          2   -1    0    0  501    0  0.00000000000E+00  0.00000000000E+00  0.16618527629E+04  0.16618527629E+04  0.25500000000E-02 0. -1.
         -2   -1    0    0    0  501 -0.00000000000E+00 -0.00000000000E+00 -0.64195425178E+03  0.64195425178E+03  0.25500000000E-02 0.  1.
    8880023    1    1    2    0    0 -0.25275463922E+03  0.11600229509E+03 -0.42010571127E+03  0.82924089082E+03  0.65864270000E+03 0.  1.
    8880022    1    1    2    0    0  0.25275463922E+03 -0.11600229509E+03  0.14400042224E+04  0.14745661238E+04  0.15294330000E+03 0.  0.
<mgrwt>
<rscale>  0 0.58358307E+03</rscale>
<asrwt>0</asrwt>
<pdfrwt beam="1">  1        2 0.25566965E+00 0.71494870E+03</pdfrwt>
<pdfrwt beam="2">  1       -2 0.98762193E-01 0.71494870E+03</pdfrwt>
<totfact> 0.90520352E+00</totfact>
</mgrwt>
</event>
<event>
 4    1  0.1998832E-007  0.6973415E+03  0.7818608E-02  0.1000841E+00
         -2   -1    0    0    0  501 -0.00000000000E+00  0.00000000000E+00  0.12206908822E+04  0.12206908822E+04  0.25500000000E-02 0.  1.
          2   -1    0    0  501    0  0.00000000000E+00 -0.00000000000E+00 -0.12445961865E+04  0.12445961865E+04  0.25500000000E-02 0. -1.
    8880023    1    1    2    0    0 -0.22249607465E+03 -0.54501874919E+02  0.11031423911E+04  0.13050702276E+04  0.65864270000E+03 0.  1.
    8880022    1    1    2    0    0  0.22249607465E+03  0.54501874919E+02 -0.11270476954E+04  0.11602168411E+04  0.15294330000E+03 0.  0.
<mgrwt>
<rscale>  0 0.55282856E+03</rscale>
<asrwt>0</asrwt>
<pdfrwt beam="1">  1        2 0.19147634E+00 0.69734150E+03</pdfrwt>
<pdfrwt beam="2">  1       -2 0.18779860E+00 0.69734150E+03</pdfrwt>
<totfact> 0.29574228E+00</totfact>
</mgrwt>
</event>
<event>
 4    1  0.1998832E-007  0.1034540E+04  0.7818608E-02  0.9337701E-01
         -2   -1    0    0    0  501 -0.00000000000E+00  0.00000000000E+00  0.31910300405E+03  0.31910300406E+03  0.25500000000E-02 0.  1.
          2   -1    0    0  501    0  0.00000000000E+00 -0.00000000000E+00 -0.33574118462E+04  0.33574118462E+04  0.25500000000E-02 0. -1.
    8880023    1    1    2    0    0  0.79768536148E+03 -0.12720165729E+02 -0.83900951526E+03  0.13319950869E+04  0.65864270000E+03 0.  1.
    8880022    1    1    2    0    0 -0.79768536148E+03  0.12720165729E+02 -0.21992993269E+04  0.23445197634E+04  0.15294330000E+03 0.  0.
<mgrwt>
<rscale>  0 0.97384918E+03</rscale>
<asrwt>0</asrwt>
<pdfrwt beam="1">  1        2 0.51652487E+00 0.10345405E+04</pdfrwt>
<pdfrwt beam="2">  1       -2 0.49092772E-01 0.10345405E+04</pdfrwt>
<totfact> 0.41134959E+00</totfact>
</mgrwt>
</event>
<event>
 4    1  0.1998832E-007  0.1349479E+04  0.7818608E-02  0.9023967E-01
          2   -1    0    0  501    0  0.00000000000E+00  0.00000000000E+00  0.26556241212E+04  0.26556241212E+04  0.25500000000E-02 0. -1.
         -2   -1    0    0    0  501 -0.00000000000E+00 -0.00000000000E+00 -0.72036839817E+03  0.72036839817E+03  0.25500000000E-02 0.  1.
    8880023    1    1    2    0    0  0.11610860223E+04  0.19789713122E+03  0.16909215103E+04  0.21634023634E+04  0.65864270000E+03 0.  0.
    8880022    1    1    2    0    0 -0.11610860223E+04 -0.19789713122E+03  0.24433421274E+03  0.12125901560E+04  0.15294330000E+03 0.  0.
<mgrwt>
<rscale>  0 0.13070827E+04</rscale>
<asrwt>0</asrwt>
<pdfrwt beam="1">  1        2 0.40855756E+00 0.13494792E+04</pdfrwt>
<pdfrwt beam="2">  1       -2 0.11082591E+00 0.13494792E+04</pdfrwt>
<totfact> 0.17605471E+00</totfact>
</mgrwt>
</event>
<event>
 4    1  0.1998832E-007  0.1326293E+04  0.7818608E-02  0.9043180E-01
         -2   -1    0    0    0  501 -0.00000000000E+00  0.00000000000E+00  0.17184398672E+04  0.17184398672E+04  0.25500000000E-02 0.  1.
          2   -1    0    0  501    0  0.00000000000E+00 -0.00000000000E+00 -0.14241037178E+04  0.14241037178E+04  0.25500000000E-02 0. -1.
    8880023    1    1    2    0    0  0.96242659678E+03  0.63164803456E+03  0.11049885445E+04  0.17262833150E+04  0.65864270000E+03 0.  1.
    8880022    1    1    2    0    0 -0.96242659678E+03 -0.63164803456E+03 -0.81065239508E+03  0.14162602700E+04  0.15294330000E+03 0. -1.
<mgrwt>
<rscale>  0 0.12829702E+04</rscale>
<asrwt>0</asrwt>
<pdfrwt beam="1">  1        2 0.21909288E+00 0.13262935E+04</pdfrwt>
<pdfrwt beam="2">  1       -2 0.26437536E+00 0.13262935E+04</pdfrwt>
<totfact> 0.70482790E-01</totfact>
</mgrwt>
</event>
<event>
 4    1  0.1998832E-007  0.1016214E+04  0.7818608E-02  0.9360645E-01
         -2   -1    0    0    0  501 -0.00000000000E+00  0.00000000000E+00  0.14620419476E+04  0.14620419476E+04  0.25500000000E-02 0.  1.
          2   -1    0    0  501    0  0.00000000000E+00 -0.00000000000E+00 -0.97551088642E+03  0.97551088643E+03  0.25500000000E-02 0. -1.
    8880023    1    1    2    0    0  0.31623073982E+03  0.70631405359E+03  0.10553019854E+04  0.14650439958E+04  0.65864270000E+03 0.  0.
    8880022    1    1    2    0    0 -0.31623073982E+03 -0.70631405359E+03 -0.56877092421E+03  0.97250883819E+03  0.15294330000E+03 0.  0.
<mgrwt>
<rscale>  0 0.95386436E+03</rscale>
<asrwt>0</asrwt>
<pdfrwt beam="1">  1        2 0.15007860E+00 0.10162144E+04</pdfrwt>
<pdfrwt beam="2">  1       -2 0.22492953E+00 0.10162144E+04</pdfrwt>
<totfact> 0.23848286E+00</totfact>
</mgrwt>
</event>
<event>
 4    1  0.1998832E-007  0.8021871E+03  0.7818608E-02  0.9706087E-01
          2   -1    0    0  501    0  0.00000000000E+00  0.00000000000E+00  0.16651036718E+04  0.16651036718E+04  0.25500000000E-02 0. -1.
         -2   -1    0    0    0  501 -0.00000000000E+00 -0.00000000000E+00 -0.55073899520E+03  0.55073899521E+03  0.25500000000E-02 0.  1.
    8880023    1    1    2    0    0  0.45687308944E+03 -0.30998602396E+02 -0.19052671480E+03  0.82450261887E+03  0.65864270000E+03 0.  0.
    8880022    1    1    2    0    0 -0.45687308944E+03  0.30998602396E+02  0.13048913914E+04  0.13913400481E+04  0.15294330000E+03 0.  0.
<mgrwt>
<rscale>  0 0.70655534E+03</rscale>
<asrwt>0</asrwt>
<pdfrwt beam="1">  1        2 0.25616979E+00 0.80218710E+03</pdfrwt>
<pdfrwt beam="2">  1       -2 0.84729077E-01 0.80218710E+03</pdfrwt>
<totfact> 0.12704403E+01</totfact>
</mgrwt>
</event>
<event>
 4    1  0.1998832E-007  0.1312156E+04  0.7818608E-02  0.9055133E-01
         -2   -1    0    0    0  501 -0.00000000000E+00  0.00000000000E+00  0.12587410120E+04  0.12587410120E+04  0.25500000000E-02 0.  1.
          2   -1    0    0  501    0  0.00000000000E+00 -0.00000000000E+00 -0.29907066651E+04  0.29907066651E+04  0.25500000000E-02 0. -1.
    8880023    1    1    2    0    0 -0.11343042628E+04 -0.36004564500E+02  0.75332413683E+03  0.15130267515E+04  0.65864270000E+03 0.  0.
    8880022    1    1    2    0    0  0.11343042628E+04  0.36004564500E+02 -0.24852897899E+04  0.27364209256E+04  0.15294330000E+03 0.  0.
<mgrwt>
<rscale>  0 0.12682452E+04</rscale>
<asrwt>0</asrwt>
<pdfrwt beam="1">  1        2 0.46010872E+00 0.13121557E+04</pdfrwt>
<pdfrwt beam="2">  1       -2 0.19365246E+00 0.13121557E+04</pdfrwt>
<totfact> 0.24990622E-01</totfact>
</mgrwt>
</event>
<event>
 4    1  0.1998832E-007  0.1882779E+04  0.7818608E-02  0.8678077E-01
          2   -1    0    0  501    0  0.00000000000E+00  0.00000000000E+00  0.21246693888E+04  0.21246693888E+04  0.25500000000E-02 0. -1.
         -2   -1    0    0    0  501 -0.00000000000E+00 -0.00000000000E+00 -0.19321557344E+04  0.19321557344E+04  0.25500000000E-02 0.  1.
    8880023    1    1    2    0    0  0.69937998608E+02  0.17624288275E+04 -0.77874410026E+03  0.20374737484E+04  0.65864270000E+03 0.  0.
    8880022    1    1    2    0    0 -0.69937998608E+02 -0.17624288275E+04  0.97125775464E+03  0.20193513747E+04  0.15294330000E+03 0.  0.
<mgrwt>
<rscale>  0 0.18540416E+04</rscale>
<asrwt>0</asrwt>
<pdfrwt beam="1">  1        2 0.32687221E+00 0.18827790E+04</pdfrwt>
<pdfrwt beam="2">  1       -2 0.29725473E+00 0.18827790E+04</pdfrwt>
<totfact> 0.16915726E-01</totfact>
</mgrwt>
</event>
<event>
 4    1  0.1998832E-007  0.8236109E+03  0.7818608E-02  0.9661894E-01
          2   -1    0    0  501    0  0.00000000000E+00  0.00000000000E+00  0.52454569813E+03  0.52454569814E+03  0.25500000000E-02 0. -1.
         -2   -1    0    0    0  501 -0.00000000000E+00 -0.00000000000E+00 -0.16309760337E+04  0.16309760337E+04  0.25500000000E-02 0.  1.
    8880023    1    1    2    0    0 -0.49355159490E+03 -0.30522319422E+02 -0.13516143957E+04  0.15827812450E+04  0.65864270000E+03 0.  1.
    8880022    1    1    2    0    0  0.49355159490E+03  0.30522319422E+02  0.24518406014E+03  0.57274048676E+03  0.15294330000E+03 0.  0.
<mgrwt>
<rscale>  0 0.73331658E+03</rscale>
<asrwt>0</asrwt>
<pdfrwt beam="1">  1        2 0.80699338E-01 0.82361095E+03</pdfrwt>
<pdfrwt beam="2">  1       -2 0.25091939E+00 0.82361095E+03</pdfrwt>
<totfact> 0.37660417E+00</totfact>
</mgrwt>
</event>
<event>
 4    1  0.1998832E-007  0.7371529E+03  0.7818608E-02  0.9868319E-01
          2   -1    0    0  501    0  0.00000000000E+00  0.00000000000E+00  0.22204354794E+04  0.22204354794E+04  0.25500000000E-02 0. -1.
         -2   -1    0    0    0  501 -0.00000000000E+00 -0.00000000000E+00 -0.19321014621E+03  0.19321014623E+03  0.25500000000E-02 0.  1.
    8880023    1    1    2    0    0  0.11175136560E+03  0.31160195686E+03  0.63021802129E+03  0.96982942204E+03  0.65864270000E+03 0.  1.
    8880022    1    1    2    0    0 -0.11175136560E+03 -0.31160195686E+03  0.13970073119E+04  0.14438162036E+04  0.15294330000E+03 0.  0.
<mgrwt>
<rscale>  0 0.61821530E+03</rscale>
<asrwt>0</asrwt>
<pdfrwt beam="1">  1        2 0.34160544E+00 0.73715287E+03</pdfrwt>
<pdfrwt beam="2">  1       -2 0.29724639E-01 0.73715287E+03</pdfrwt>
<totfact> 0.54306186E+01</totfact>
</mgrwt>
</event>
<event>
 4    1  0.1998832E-007  0.1131438E+04  0.7818608E-02  0.9226836E-01
         -2   -1    0    0    0  501 -0.00000000000E+00  0.00000000000E+00  0.62100756220E+03  0.62100756220E+03  0.25500000000E-02 0.  1.
          2   -1    0    0  501    0  0.00000000000E+00 -0.00000000000E+00 -0.34033902029E+04  0.34033902029E+04  0.25500000000E-02 0. -1.
    8880023    1    1    2    0    0 -0.64421319667E+03 -0.65675726403E+03 -0.44800257379E+02  0.11323241656E+04  0.65864270000E+03 0.  0.
    8880022    1    1    2    0    0  0.64421319667E+03  0.65675726403E+03 -0.27375823833E+04  0.28920735995E+04  0.15294330000E+03 0.  0.
<mgrwt>
<rscale>  0 0.10780680E+04</rscale>
<asrwt>0</asrwt>
<pdfrwt beam="1">  1        2 0.52359848E+00 0.11314376E+04</pdfrwt>
<pdfrwt beam="2">  1       -2 0.95539627E-01 0.11314376E+04</pdfrwt>
<totfact> 0.88019948E-01</totfact>
</mgrwt>
</event>
<event>
 4    1  0.1998832E-007  0.9223120E+03  0.7818608E-02  0.9491123E-01
         -2   -1    0    0    0  501 -0.00000000000E+00  0.00000000000E+00  0.44490885416E+03  0.44490885417E+03  0.25500000000E-02 0.  1.
          2   -1    0    0  501    0  0.00000000000E+00 -0.00000000000E+00 -0.32065002763E+04  0.32065002763E+04  0.25500000000E-02 0. -1.
    8880023    1    1    2    0    0 -0.41305292107E+03  0.49622214760E+03 -0.12276669715E+03  0.93044666885E+03  0.65864270000E+03 0.  1.
    8880022    1    1    2    0    0  0.41305292107E+03 -0.49622214760E+03 -0.26388247249E+04  0.27209624616E+04  0.15294330000E+03 0.  0.
<mgrwt>
<rscale>  0 0.84941449E+03</rscale>
<asrwt>0</asrwt>
<pdfrwt beam="1">  1        2 0.49330772E+00 0.92231195E+03</pdfrwt>
<pdfrwt beam="2">  1       -2 0.68447518E-01 0.92231195E+03</pdfrwt>
<totfact> 0.26085644E+00</totfact>
</mgrwt>
</event>
<event>
 4    1  0.1998832E-007  0.8253076E+03  0.7818608E-02  0.9658532E-01
         -2   -1    0    0    0  501 -0.00000000000E+00  0.00000000000E+00  0.91740293950E+03  0.91740293950E+03  0.25500000000E-02 0.  1.
          2   -1    0    0  501    0  0.00000000000E+00 -0.00000000000E+00 -0.80278665405E+03  0.80278665405E+03  0.25500000000E-02 0. -1.
    8880023    1    1    2    0    0 -0.18292402154E+03  0.46245141179E+03  0.59072126327E+03  0.10149306987E+04  0.65864270000E+03 0.  1.
    8880022    1    1    2    0    0  0.18292402154E+03 -0.46245141179E+03 -0.47610497782E+03  0.70525889491E+03  0.15294330000E+03 0.  0.
<mgrwt>
<rscale>  0 0.73540364E+03</rscale>
<asrwt>0</asrwt>
<pdfrwt beam="1">  1        2 0.12350564E+00 0.82530765E+03</pdfrwt>
<pdfrwt beam="2">  1       -2 0.14113891E+00 0.82530765E+03</pdfrwt>
<totfact> 0.12150949E+01</totfact>
</mgrwt>
</event>
<event>
 4    1  0.1998832E-007  0.7207768E+03  0.7818608E-02  0.9919966E-01
          2   -1    0    0  501    0  0.00000000000E+00  0.00000000000E+00  0.18219820075E+04  0.18219820075E+04  0.25500000000E-02 0. -1.
         -2   -1    0    0    0  501 -0.00000000000E+00 -0.00000000000E+00 -0.64634487791E+03  0.64634487791E+03  0.25500000000E-02 0.  1.
    8880023    1    1    2    0    0 -0.28783476000E+03 -0.53480431402E+02 -0.42312870949E+03  0.83579729401E+03  0.65864270000E+03 0.  1.
    8880022    1    1    2    0    0  0.28783476000E+03  0.53480431402E+02  0.15987658391E+04  0.16325295915E+04  0.15294330000E+03 0.  0.
<mgrwt>
<rscale>  0 0.59303323E+03</rscale>
<asrwt>0</asrwt>
<pdfrwt beam="1">  1        2 0.28030492E+00 0.72077681E+03</pdfrwt>
<pdfrwt beam="2">  1       -2 0.99437675E-01 0.72077681E+03</pdfrwt>
<totfact> 0.72774962E+00</totfact>
</mgrwt>
</event>
<event>
 4    1  0.1998832E-007  0.7415194E+03  0.7818608E-02  0.9855543E-01
          2   -1    0    0  501    0  0.00000000000E+00  0.00000000000E+00  0.55817238261E+03  0.55817238262E+03  0.25500000000E-02 0. -1.
         -2   -1    0    0    0  501 -0.00000000000E+00 -0.00000000000E+00 -0.67301038167E+03  0.67301038167E+03  0.25500000000E-02 0.  1.
    8880023    1    1    2    0    0  0.11623431606E+03  0.32020361215E+03 -0.31714546194E+03  0.80649378160E+03  0.65864270000E+03 0.  1.
    8880022    1    1    2    0    0 -0.11623431606E+03 -0.32020361215E+03  0.20230746289E+03  0.42468898269E+03  0.15294330000E+03 0.  0.
<mgrwt>
<rscale>  0 0.62465087E+03</rscale>
<asrwt>0</asrwt>
<pdfrwt beam="1">  1        2 0.85872674E-01 0.74151937E+03</pdfrwt>
<pdfrwt beam="2">  1       -2 0.10354006E+00 0.74151937E+03</pdfrwt>
<totfact> 0.41650679E+01</totfact>
</mgrwt>
</event>
<event>
 4    1  0.1998832E-007  0.8976978E+03  0.7818608E-02  0.9529738E-01
          2   -1    0    0  501    0  0.00000000000E+00  0.00000000000E+00  0.11151345704E+04  0.11151345704E+04  0.25500000000E-02 0. -1.
         -2   -1    0    0    0  501 -0.00000000000E+00 -0.00000000000E+00 -0.69219020989E+03  0.69219020990E+03  0.25500000000E-02 0.  1.
    8880023    1    1    2    0    0 -0.60688086985E+03  0.61210356780E+02 -0.20266511099E+03  0.92029041691E+03  0.65864270000E+03 0.  1.
    8880022    1    1    2    0    0  0.60688086985E+03 -0.61210356780E+02  0.62560947145E+03  0.88703436335E+03  0.15294330000E+03 0.  0.
<mgrwt>
<rscale>  0 0.82126453E+03</rscale>
<asrwt>0</asrwt>
<pdfrwt beam="1">  1        2 0.17155916E+00 0.89769778E+03</pdfrwt>
<pdfrwt beam="2">  1       -2 0.10649080E+00 0.89769778E+03</pdfrwt>
<totfact> 0.15192347E+01</totfact>
</mgrwt>
</event>
<event>
 4    1  0.1998832E-007  0.8190009E+03  0.7818608E-02  0.9671125E-01
          2   -1    0    0  501    0  0.00000000000E+00  0.00000000000E+00  0.13700007463E+04  0.13700007463E+04  0.25500000000E-02 0. -1.
         -2   -1    0    0    0  501 -0.00000000000E+00 -0.00000000000E+00 -0.60572187567E+03  0.60572187567E+03  0.25500000000E-02 0.  1.
    8880023    1    1    2    0    0  0.20538334945E+03  0.44132751738E+03 -0.23642676657E+03  0.85244361693E+03  0.65864270000E+03 0.  0.
    8880022    1    1    2    0    0 -0.20538334945E+03 -0.44132751738E+03  0.10007056372E+04  0.11232790051E+04  0.15294330000E+03 0.  0.
<mgrwt>
<rscale>  0 0.72762352E+03</rscale>
<asrwt>0</asrwt>
<pdfrwt beam="1">  1        2 0.21076935E+00 0.81900092E+03</pdfrwt>
<pdfrwt beam="2">  1       -2 0.93187981E-01 0.81900092E+03</pdfrwt>
<totfact> 0.14879489E+01</totfact>
</mgrwt>
</event>
<event>
 4    1  0.1998832E-007  0.9320134E+03  0.7818608E-02  0.9476479E-01
         -2   -1    0    0    0  501 -0.00000000000E+00  0.00000000000E+00  0.69579228038E+03  0.69579228038E+03  0.25500000000E-02 0.  1.
          2   -1    0    0  501    0  0.00000000000E+00 -0.00000000000E+00 -0.99353253302E+03  0.99353253302E+03  0.25500000000E-02 0. -1.
    8880023    1    1    2    0    0  0.19395439184E+02 -0.65913775521E+03  0.39895882780E+02  0.93286689894E+03  0.65864270000E+03 0.  1.
    8880022    1    1    2    0    0 -0.19395439184E+02  0.65913775521E+03 -0.33763613542E+03  0.75645791447E+03  0.15294330000E+03 0.  0.
<mgrwt>
<rscale>  0 0.86040337E+03</rscale>
<asrwt>0</asrwt>
<pdfrwt beam="1">  1        2 0.15285116E+00 0.93201340E+03</pdfrwt>
<pdfrwt beam="2">  1       -2 0.10704497E+00 0.93201340E+03</pdfrwt>
<totfact> 0.17830247E+01</totfact>
</mgrwt>
</event>
<event>
 4    1  0.1998832E-007  0.1013468E+04  0.7818608E-02  0.9364146E-01
          2   -1    0    0  501    0  0.00000000000E+00  0.00000000000E+00  0.12414156907E+04  0.12414156907E+04  0.25500000000E-02 0. -1.
         -2   -1    0    0    0  501 -0.00000000000E+00 -0.00000000000E+00 -0.15741264544E+04  0.15741264544E+04  0.25500000000E-02 0.  1.
    8880023    1    1    2    0    0  0.76906239479E+03  0.43009564605E+02 -0.12492109546E+04  0.16086158662E+04  0.65864270000E+03 0.  0.
    8880022    1    1    2    0    0 -0.76906239479E+03 -0.43009564605E+02  0.91650019093E+03  0.12069262789E+04  0.15294330000E+03 0.  0.
<mgrwt>
<rscale>  0 0.95085999E+03</rscale>
<asrwt>0</asrwt>
<pdfrwt beam="1">  1        2 0.19098703E+00 0.10134678E+04</pdfrwt>
<pdfrwt beam="2">  1       -2 0.24217330E+00 0.10134678E+04</pdfrwt>
<totfact> 0.12778546E+00</totfact>
</mgrwt>
</event>
<event>
 4    1  0.1998832E-007  0.1188862E+04  0.7818608E-02  0.9168026E-01
         -2   -1    0    0    0  501 -0.00000000000E+00  0.00000000000E+00  0.89605229399E+03  0.89605229399E+03  0.25500000000E-02 0.  1.
          2   -1    0    0  501    0  0.00000000000E+00 -0.00000000000E+00 -0.27597043559E+04  0.27597043559E+04  0.25500000000E-02 0. -1.
    8880023    1    1    2    0    0 -0.65053888701E+03 -0.74591054477E+03  0.33888838887E+03  0.12362196126E+04  0.65864270000E+03 0.  1.
    8880022    1    1    2    0    0  0.65053888701E+03  0.74591054477E+03 -0.22025404508E+04  0.24195370373E+04  0.15294330000E+03 0.  0.
<mgrwt>
<rscale>  0 0.11389638E+04</rscale>
<asrwt>0</asrwt>
<pdfrwt beam="1">  1        2 0.42456990E+00 0.11888623E+04</pdfrwt>
<pdfrwt beam="2">  1       -2 0.13785420E+00 0.11888623E+04</pdfrwt>
<totfact> 0.89937590E-01</totfact>
</mgrwt>
</event>
<event>
 4    1  0.1998832E-007  0.7552952E+03  0.7818608E-02  0.9817444E-01
          2   -1    0    0  501    0  0.00000000000E+00  0.00000000000E+00  0.12151893811E+04  0.12151893811E+04  0.25500000000E-02 0. -1.
         -2   -1    0    0    0  501 -0.00000000000E+00 -0.00000000000E+00 -0.10089417950E+04  0.10089417950E+04  0.25500000000E-02 0.  1.
    8880023    1    1    2    0    0  0.12565731536E+03  0.34766478088E+03 -0.82468688034E+03  0.11182929928E+04  0.65864270000E+03 0.  0.
    8880022    1    1    2    0    0 -0.12565731536E+03 -0.34766478088E+03  0.10309344664E+04  0.11058381834E+04  0.15294330000E+03 0.  0.
<mgrwt>
<rscale>  0 0.64434763E+03</rscale>
<asrwt>0</asrwt>
<pdfrwt beam="1">  1        2 0.18695221E+00 0.75529515E+03</pdfrwt>
<pdfrwt beam="2">  1       -2 0.15522182E+00 0.75529515E+03</pdfrwt>
<totfact> 0.51800888E+00</totfact>
</mgrwt>
</event>
<event>
 4    1  0.1998832E-007  0.7876340E+03  0.7818608E-02  0.9738201E-01
         -2   -1    0    0    0  501 -0.00000000000E+00  0.00000000000E+00  0.10243855462E+04  0.10243855462E+04  0.25500000000E-02 0.  1.
          2   -1    0    0  501    0  0.00000000000E+00 -0.00000000000E+00 -0.97253936415E+03  0.97253936415E+03  0.25500000000E-02 0. -1.
    8880023    1    1    2    0    0 -0.27084157718E+03 -0.33645492513E+03  0.79804963691E+03  0.11212718251E+04  0.65864270000E+03 0.  1.
    8880022    1    1    2    0    0  0.27084157718E+03  0.33645492513E+03 -0.74620345487E+03  0.87565308522E+03  0.15294330000E+03 0.  0.
<mgrwt>
<rscale>  0 0.68787177E+03</rscale>
<asrwt>0</asrwt>
<pdfrwt beam="1">  1        2 0.14962144E+00 0.78763398E+03</pdfrwt>
<pdfrwt beam="2">  1       -2 0.15759778E+00 0.78763398E+03</pdfrwt>
<totfact> 0.69836558E+00</totfact>
</mgrwt>
</event>
<event>
 4    1  0.1998832E-007  0.8797572E+03  0.7818608E-02  0.9559342E-01
          2   -1    0    0  501    0  0.00000000000E+00  0.00000000000E+00  0.12287599206E+04  0.12287599206E+04  0.25500000000E-02 0. -1.
         -2   -1    0    0    0  501 -0.00000000000E+00 -0.00000000000E+00 -0.45128196043E+03  0.45128196043E+03  0.25500000000E-02 0.  1.
    8880023    1    1    2    0    0 -0.50498497909E+03  0.29180931299E+03  0.53832611928E+03  0.10313911582E+04  0.65864270000E+03 0. -1.
    8880022    1    1    2    0    0  0.50498497909E+03 -0.29180931299E+03  0.23915184093E+03  0.64865072287E+03  0.15294330000E+03 0.  1.
<mgrwt>
<rscale>  0 0.80046668E+03</rscale>
<asrwt>0</asrwt>
<pdfrwt beam="1">  1        2 0.18903999E+00 0.87975719E+03</pdfrwt>
<pdfrwt beam="2">  1       -2 0.69427995E-01 0.87975719E+03</pdfrwt>
<totfact> 0.34681494E+01</totfact>
</mgrwt>
</event>
<event>
 4    1  0.1998832E-007  0.8682687E+03  0.7818608E-02  0.9579021E-01
         -2   -1    0    0    0  501 -0.00000000000E+00  0.00000000000E+00  0.36732067489E+03  0.36732067490E+03  0.25500000000E-02 0.  1.
          2   -1    0    0  501    0  0.00000000000E+00 -0.00000000000E+00 -0.36020824613E+04  0.36020824613E+04  0.25500000000E-02 0. -1.
    8880023    1    1    2    0    0 -0.16523854867E+03 -0.54108829793E+03 -0.21661448183E+03  0.89488120112E+03  0.65864270000E+03 0.  1.
    8880022    1    1    2    0    0  0.16523854867E+03  0.54108829793E+03 -0.30181473045E+04  0.30745219350E+04  0.15294330000E+03 0.  0.
<mgrwt>
<rscale>  0 0.78700415E+03</rscale>
<asrwt>0</asrwt>
<pdfrwt beam="1">  1        2 0.55416651E+00 0.86826870E+03</pdfrwt>
<pdfrwt beam="2">  1       -2 0.56510876E-01 0.86826870E+03</pdfrwt>
<totfact> 0.21524587E+00</totfact>
</mgrwt>
</event>
<event>
 4    1  0.1998832E-007  0.9898378E+03  0.7818608E-02  0.9394975E-01
          2   -1    0    0  501    0  0.00000000000E+00  0.00000000000E+00  0.13363262540E+04  0.13363262540E+04  0.25500000000E-02 0. -1.
         -2   -1    0    0    0  501 -0.00000000000E+00 -0.00000000000E+00 -0.14627169183E+04  0.14627169183E+04  0.25500000000E-02 0.  1.
    8880023    1    1    2    0    0 -0.68247682720E+03 -0.28318559473E+03 -0.11564233335E+04  0.15222003263E+04  0.65864270000E+03 0.  1.
    8880022    1    1    2    0    0  0.68247682720E+03  0.28318559473E+03  0.10300326693E+04  0.12768428460E+04  0.15294330000E+03 0.  0.
<mgrwt>
<rscale>  0 0.92490353E+03</rscale>
<asrwt>0</asrwt>
<pdfrwt beam="1">  1        2 0.20558865E+00 0.98983782E+03</pdfrwt>
<pdfrwt beam="2">  1       -2 0.22503337E+00 0.98983782E+03</pdfrwt>
<totfact> 0.14406492E+00</totfact>
</mgrwt>
</event>
<event>
 4    1  0.1998832E-007  0.8096937E+03  0.7818608E-02  0.9690215E-01
          2   -1    0    0  501    0  0.00000000000E+00  0.00000000000E+00  0.23682433590E+04  0.23682433590E+04  0.25500000000E-02 0. -1.
         -2   -1    0    0    0  501 -0.00000000000E+00 -0.00000000000E+00 -0.61200171951E+03  0.61200171951E+03  0.25500000000E-02 0.  1.
    8880023    1    1    2    0    0  0.46317958099E+03 -0.85196224444E+02 -0.30131799970E+03  0.86394239629E+03  0.65864270000E+03 0.  1.
    8880022    1    1    2    0    0 -0.46317958099E+03  0.85196224444E+02  0.20575596392E+04  0.21163026822E+04  0.15294330000E+03 0.  0.
<mgrwt>
<rscale>  0 0.71602370E+03</rscale>
<asrwt>0</asrwt>
<pdfrwt beam="1">  1        2 0.36434514E+00 0.80969372E+03</pdfrwt>
<pdfrwt beam="2">  1       -2 0.94154108E-01 0.80969372E+03</pdfrwt>
<totfact> 0.40849764E+00</totfact>
</mgrwt>
</event>
<event>
 4    1  0.1998832E-007  0.6645205E+03  0.7818608E-02  0.1019939E+00
         -2   -1    0    0    0  501 -0.00000000000E+00  0.00000000000E+00  0.74773295114E+03  0.74773295114E+03  0.25500000000E-02 0.  1.
          2   -1    0    0  501    0  0.00000000000E+00 -0.00000000000E+00 -0.16898279712E+04  0.16898279712E+04  0.25500000000E-02 0. -1.
    8880023    1    1    2    0    0  0.42405239780E+02 -0.77324845260E+02  0.59402967303E+03  0.89132418051E+03  0.65864270000E+03 0.  1.
    8880022    1    1    2    0    0 -0.42405239780E+02  0.77324845260E+02 -0.15361246931E+04  0.15462367418E+04  0.15294330000E+03 0.  0.
<mgrwt>
<rscale>  0 0.47708597E+03</rscale>
<asrwt>0</asrwt>
<pdfrwt beam="1">  1        2 0.25997353E+00 0.66452054E+03</pdfrwt>
<pdfrwt beam="2">  1       -2 0.11503584E+00 0.66452054E+03</pdfrwt>
<totfact> 0.61074262E+00</totfact>
</mgrwt>
</event>
<event>
 4    1  0.1998832E-007  0.1400398E+04  0.7818608E-02  0.8983374E-01
          2   -1    0    0  501    0  0.00000000000E+00  0.00000000000E+00  0.21600121796E+04  0.21600121797E+04  0.25500000000E-02 0. -1.
         -2   -1    0    0    0  501 -0.00000000000E+00 -0.00000000000E+00 -0.10575795620E+04  0.10575795620E+04  0.25500000000E-02 0.  1.
    8880023    1    1    2    0    0 -0.58788768622E+03 -0.10870565751E+04  0.13531444061E+04  0.19473350814E+04  0.65864270000E+03 0.  0.
    8880022    1    1    2    0    0  0.58788768622E+03  0.10870565751E+04 -0.25071178847E+03  0.12702566603E+04  0.15294330000E+03 0.  0.
<mgrwt>
<rscale>  0 0.13598919E+04</rscale>
<asrwt>0</asrwt>
<pdfrwt beam="1">  1        2 0.33230956E+00 0.14003978E+04</pdfrwt>
<pdfrwt beam="2">  1       -2 0.16270455E+00 0.14003978E+04</pdfrwt>
<totfact> 0.12457920E+00</totfact>
</mgrwt>
</event>
<event>
 4    1  0.1998832E-007  0.1164620E+04  0.7818608E-02  0.9192305E-01
          2   -1    0    0  501    0  0.00000000000E+00  0.00000000000E+00  0.58016737461E+03  0.58016737462E+03  0.25500000000E-02 0. -1.
         -2   -1    0    0    0  501 -0.00000000000E+00 -0.00000000000E+00 -0.32669523929E+04  0.32669523929E+04  0.25500000000E-02 0.  1.
    8880023    1    1    2    0    0 -0.95334024639E+03 -0.11692788425E+03 -0.26259649863E+04  0.28726350396E+04  0.65864270000E+03 0.  0.
    8880022    1    1    2    0    0  0.95334024639E+03  0.11692788425E+03 -0.60820031974E+02  0.97448472785E+03  0.15294330000E+03 0.  0.
<mgrwt>
<rscale>  0 0.11133202E+04</rscale>
<asrwt>0</asrwt>
<pdfrwt beam="1">  1        2 0.89256521E-01 0.11646201E+04</pdfrwt>
<pdfrwt beam="2">  1       -2 0.50260805E+00 0.11646201E+04</pdfrwt>
<totfact> 0.81091706E-02</totfact>
</mgrwt>
</event>
<event>
 4    1  0.1998832E-007  0.7004909E+03  0.7818608E-02  0.9995171E-01
          2   -1    0    0  501    0  0.00000000000E+00  0.00000000000E+00  0.50290378530E+03  0.50290378531E+03  0.25500000000E-02 0. -1.
         -2   -1    0    0    0  501 -0.00000000000E+00 -0.00000000000E+00 -0.65397242566E+03  0.65397242566E+03  0.25500000000E-02 0.  1.
    8880023    1    1    2    0    0 -0.45988175867E+02  0.23401356924E+03 -0.37609321653E+03  0.79506828430E+03  0.65864270000E+03 0.  1.
    8880022    1    1    2    0    0  0.45988175867E+02 -0.23401356924E+03  0.22502457617E+03  0.36180792668E+03  0.15294330000E+03 0.  0.
<mgrwt>
<rscale>  0 0.55862490E+03</rscale>
<asrwt>0</asrwt>
<pdfrwt beam="1">  1        2 0.77369813E-01 0.70049088E+03</pdfrwt>
<pdfrwt beam="2">  1       -2 0.10061114E+00 0.70049088E+03</pdfrwt>
<totfact> 0.50552957E+01</totfact>
</mgrwt>
</event>
<event>
 4    1  0.1998832E-007  0.1401636E+04  0.7818608E-02  0.8982412E-01
          2   -1    0    0  501    0  0.00000000000E+00  0.00000000000E+00  0.10957689497E+04  0.10957689497E+04  0.25500000000E-02 0. -1.
         -2   -1    0    0    0  501 -0.00000000000E+00 -0.00000000000E+00 -0.21110801831E+04  0.21110801831E+04  0.25500000000E-02 0.  1.
    8880023    1    1    2    0    0 -0.12348041838E+04 -0.77672464937E+02  0.25763777178E+03  0.14251181747E+04  0.65864270000E+03 0.  0.
    8880022    1    1    2    0    0  0.12348041838E+04  0.77672464937E+02 -0.12729490052E+04  0.17817309581E+04  0.15294330000E+03 0.  0.
<mgrwt>
<rscale>  0 0.13611742E+04</rscale>
<asrwt>0</asrwt>
<pdfrwt beam="1">  1        2 0.16857984E+00 0.14016364E+04</pdfrwt>
<pdfrwt beam="2">  1       -2 0.32478157E+00 0.14016364E+04</pdfrwt>
<totfact> 0.46899957E-01</totfact>
</mgrwt>
</event>
<event>
 4    1  0.1998832E-007  0.1077540E+04  0.7818608E-02  0.9286484E-01
         -2   -1    0    0    0  501 -0.00000000000E+00  0.00000000000E+00  0.67319642290E+03  0.67319642291E+03  0.25500000000E-02 0.  1.
          2   -1    0    0  501    0  0.00000000000E+00 -0.00000000000E+00 -0.16296378722E+04  0.16296378722E+04  0.25500000000E-02 0. -1.
    8880023    1    1    2    0    0  0.82494337841E+03  0.21621936424E+03 -0.96085354798E+02  0.10818156002E+04  0.65864270000E+03 0.  0.
    8880022    1    1    2    0    0 -0.82494337841E+03 -0.21621936424E+03 -0.86035609447E+03  0.12210186949E+04  0.15294330000E+03 0.  0.
<mgrwt>
<rscale>  0 0.10203672E+04</rscale>
<asrwt>0</asrwt>
<pdfrwt beam="1">  1        2 0.25071352E+00 0.10775401E+04</pdfrwt>
<pdfrwt beam="2">  1       -2 0.10356868E+00 0.10775401E+04</pdfrwt>
<totfact> 0.80594266E+00</totfact>
</mgrwt>
</event>
<event>
 4    1  0.1998832E-007  0.1550614E+04  0.7818608E-02  0.8874698E-01
          2   -1    0    0  501    0  0.00000000000E+00  0.00000000000E+00  0.50436162853E+04  0.50436162853E+04  0.25500000000E-02 0. -1.
         -2   -1    0    0    0  501 -0.00000000000E+00 -0.00000000000E+00 -0.65802617484E+03  0.65802617485E+03  0.25500000000E-02 0.  1.
    8880023    1    1    2    0    0 -0.40646283483E+03 -0.13436451985E+04  0.60241296986E+03  0.16635221814E+04  0.65864270000E+03 0.  0.
    8880022    1    1    2    0    0  0.40646283483E+03  0.13436451985E+04  0.37831771405E+04  0.40381202787E+04  0.15294330000E+03 0.  0.
<mgrwt>
<rscale>  0 0.15147575E+04</rscale>
<asrwt>0</asrwt>
<pdfrwt beam="1">  1        2 0.77594095E+00 0.15506143E+04</pdfrwt>
<pdfrwt beam="2">  1       -2 0.10123480E+00 0.15506143E+04</pdfrwt>
<totfact> 0.23925586E-02</totfact>
</mgrwt>
</event>
<event>
 4    1  0.1998832E-007  0.1218904E+04  0.7818608E-02  0.9138962E-01
          2   -1    0    0  501    0  0.00000000000E+00  0.00000000000E+00  0.26740296973E+04  0.26740296973E+04  0.25500000000E-02 0. -1.
         -2   -1    0    0    0  501 -0.00000000000E+00 -0.00000000000E+00 -0.11749282057E+04  0.11749282057E+04  0.25500000000E-02 0.  1.
    8880023    1    1    2    0    0 -0.10068391482E+04  0.19542689561E+03 -0.70855770636E+03  0.14098868648E+04  0.65864270000E+03 0.  1.
    8880022    1    1    2    0    0  0.10068391482E+04 -0.19542689561E+03  0.22076591980E+04  0.24390710382E+04  0.15294330000E+03 0.  0.
<mgrwt>
<rscale>  0 0.11706276E+04</rscale>
<asrwt>0</asrwt>
<pdfrwt beam="1">  1        2 0.41138918E+00 0.12189040E+04</pdfrwt>
<pdfrwt beam="2">  1       -2 0.18075819E+00 0.12189040E+04</pdfrwt>
<totfact> 0.48098139E-01</totfact>
</mgrwt>
</event>
<event>
 4    1  0.1998832E-007  0.1101905E+04  0.7818608E-02  0.9258938E-01
         -2   -1    0    0    0  501 -0.00000000000E+00  0.00000000000E+00  0.75608621630E+03  0.75608621630E+03  0.25500000000E-02 0.  1.
          2   -1    0    0  501    0  0.00000000000E+00 -0.00000000000E+00 -0.26247106757E+04  0.26247106757E+04  0.25500000000E-02 0. -1.
    8880023    1    1    2    0    0 -0.81146556815E+03 -0.34915474159E+03 -0.21710081009E+04  0.24346399698E+04  0.65864270000E+03 0.  0.
    8880022    1    1    2    0    0  0.81146556815E+03  0.34915474159E+03  0.30238364150E+03  0.94615692226E+03  0.15294330000E+03 0.  0.
<mgrwt>
<rscale>  0 0.10465264E+04</rscale>
<asrwt>0</asrwt>
<pdfrwt beam="1">  1        2 0.40380164E+00 0.11019054E+04</pdfrwt>
<pdfrwt beam="2">  1       -2 0.11632096E+00 0.11019054E+04</pdfrwt>
<totfact> 0.16795595E+00</totfact>
</mgrwt>
</event>
<event>
 4    1  0.1998832E-007  0.1008856E+04  0.7818608E-02  0.9370062E-01
          2   -1    0    0  501    0  0.00000000000E+00  0.00000000000E+00  0.12896411506E+04  0.12896411506E+04  0.25500000000E-02 0. -1.
         -2   -1    0    0    0  501 -0.00000000000E+00 -0.00000000000E+00 -0.89817341077E+03  0.89817341077E+03  0.25500000000E-02 0.  1.
    8880023    1    1    2    0    0 -0.18200540232E+03 -0.74219588752E+03 -0.39237368807E+03  0.10824731033E+04  0.65864270000E+03 0.  0.
    8880022    1    1    2    0    0  0.18200540232E+03  0.74219588752E+03  0.78384142793E+03  0.11053414581E+04  0.15294330000E+03 0.  0.
<mgrwt>
<rscale>  0 0.94580987E+03</rscale>
<asrwt>0</asrwt>
<pdfrwt beam="1">  1        2 0.19840633E+00 0.10088562E+04</pdfrwt>
<pdfrwt beam="2">  1       -2 0.13818053E+00 0.10088562E+04</pdfrwt>
<totfact> 0.61732703E+00</totfact>
</mgrwt>
</event>
<event>
 4    1  0.1998832E-007  0.1185621E+04  0.7818608E-02  0.9171228E-01
         -2   -1    0    0    0  501 -0.00000000000E+00  0.00000000000E+00  0.22736975414E+04  0.22736975414E+04  0.25500000000E-02 0.  1.
          2   -1    0    0  501    0  0.00000000000E+00 -0.00000000000E+00 -0.85402899141E+03  0.85402899141E+03  0.25500000000E-02 0. -1.
    8880023    1    1    2    0    0  0.89449184684E+03 -0.41445258341E+03  0.17171373183E+04  0.20866857416E+04  0.65864270000E+03 0.  0.
    8880022    1    1    2    0    0 -0.89449184684E+03  0.41445258341E+03 -0.29746876828E+03  0.10410407913E+04  0.15294330000E+03 0.  0.
<mgrwt>
<rscale>  0 0.11355400E+04</rscale>
<asrwt>0</asrwt>
<pdfrwt beam="1">  1        2 0.13138908E+00 0.11856209E+04</pdfrwt>
<pdfrwt beam="2">  1       -2 0.34979962E+00 0.11856209E+04</pdfrwt>
<totfact> 0.48526120E-01</totfact>
</mgrwt>
</event>
<event>
 4    1  0.1998832E-007  0.1132236E+04  0.7818608E-02  0.9225986E-01
          2   -1    0    0  501    0  0.00000000000E+00  0.00000000000E+00  0.17445101960E+04  0.17445101960E+04  0.25500000000E-02 0. -1.
         -2   -1    0    0    0  501 -0.00000000000E+00 -0.00000000000E+00 -0.11107287898E+04  0.11107287898E+04  0.25500000000E-02 0.  1.
    8880023    1    1    2    0    0  0.80209524174E+03 -0.45253904780E+03 -0.62092886586E+03  0.12913215050E+04  0.65864270000E+03 0.  1.
    8880022    1    1    2    0    0 -0.80209524174E+03  0.45253904780E+03  0.12547102721E+04  0.15639174807E+04  0.15294330000E+03 0.  0.
<mgrwt>
<rscale>  0 0.10789186E+04</rscale>
<asrwt>0</asrwt>
<pdfrwt beam="1">  1        2 0.26838618E+00 0.11322361E+04</pdfrwt>
<pdfrwt beam="2">  1       -2 0.17088135E+00 0.11322361E+04</pdfrwt>
<totfact> 0.19041277E+00</totfact>
</mgrwt>
</event>
<event>
 4    1  0.1998832E-007  0.6589330E+03  0.7818608E-02  0.1025277E+00
         -2   -1    0    0    0  501 -0.00000000000E+00  0.00000000000E+00  0.32223166355E+03  0.32223166356E+03  0.25500000000E-02 0.  1.
          2   -1    0    0  501    0  0.00000000000E+00 -0.00000000000E+00 -0.24193926659E+04  0.24193926659E+04  0.25500000000E-02 0. -1.
    8880023    1    1    2    0    0  0.40694364467E+01  0.19129352349E+02 -0.20504909141E+02  0.65925196245E+03  0.65864270000E+03 0.  1.
    8880022    1    1    2    0    0 -0.40694364467E+01 -0.19129352349E+02 -0.20766560932E+04  0.20823723670E+04  0.15294330000E+03 0.  0.
<mgrwt>
<rscale>  0 0.45829388E+03</rscale>
<asrwt>0</asrwt>
<pdfrwt beam="1">  1        2 0.37221424E+00 0.65893300E+03</pdfrwt>
<pdfrwt beam="2">  1       -2 0.49574104E-01 0.65893300E+03</pdfrwt>
<totfact> 0.15829567E+01</totfact>
</mgrwt>
</event>
<event>
 4    1  0.1998832E-007  0.9100296E+03  0.7818608E-02  0.9510119E-01
         -2   -1    0    0    0  501 -0.00000000000E+00  0.00000000000E+00  0.66478003268E+03  0.66478003269E+03  0.25500000000E-02 0.  1.
          2   -1    0    0  501    0  0.00000000000E+00 -0.00000000000E+00 -0.97358932070E+03  0.97358932070E+03  0.25500000000E-02 0. -1.
    8880023    1    1    2    0    0  0.62725868633E+03 -0.29837296500E+02  0.26148043722E+02  0.91040521214E+03  0.65864270000E+03 0. -1.
    8880022    1    1    2    0    0 -0.62725868633E+03  0.29837296500E+02 -0.33495733174E+03  0.72796414125E+03  0.15294330000E+03 0.  0.
<mgrwt>
<rscale>  0 0.83541892E+03</rscale>
<asrwt>0</asrwt>
<pdfrwt beam="1">  1        2 0.14978297E+00 0.91002963E+03</pdfrwt>
<pdfrwt beam="2">  1       -2 0.10227385E+00 0.91002963E+03</pdfrwt>
<totfact> 0.20536228E+01</totfact>
</mgrwt>
</event>
<event>
 4    1  0.1998832E-007  0.7484064E+03  0.7818608E-02  0.9836103E-01
          2   -1    0    0  501    0  0.00000000000E+00  0.00000000000E+00  0.14711149239E+04  0.14711149239E+04  0.25500000000E-02 0. -1.
         -2   -1    0    0    0  501 -0.00000000000E+00 -0.00000000000E+00 -0.23922603840E+03  0.23922603841E+03  0.25500000000E-02 0.  1.
    8880023    1    1    2    0    0  0.18511757482E+03 -0.30337000614E+03  0.55891538652E+03  0.93407627777E+03  0.65864270000E+03 0.  1.
    8880022    1    1    2    0    0 -0.18511757482E+03  0.30337000614E+03  0.67297349894E+03  0.77626468451E+03  0.15294330000E+03 0.  0.
<mgrwt>
<rscale>  0 0.63460499E+03</rscale>
<asrwt>0</asrwt>
<pdfrwt beam="1">  1        2 0.22632538E+00 0.74840636E+03</pdfrwt>
<pdfrwt beam="2">  1       -2 0.36804004E-01 0.74840636E+03</pdfrwt>
<totfact> 0.93359694E+01</totfact>
</mgrwt>
</event>
<event>
 4    1  0.1998832E-007  0.7247583E+03  0.7818608E-02  0.9906803E-01
         -2   -1    0    0    0  501 -0.00000000000E+00  0.00000000000E+00  0.13405089893E+03  0.13405089895E+03  0.25500000000E-02 0.  1.
          2   -1    0    0  501    0  0.00000000000E+00 -0.00000000000E+00 -0.23180987963E+04  0.23180987963E+04  0.25500000000E-02 0. -1.
    8880023    1    1    2    0    0  0.29443487237E+03  0.69082871014E+02 -0.11079295780E+04  0.13239269214E+04  0.65864270000E+03 0.  0.
    8880022    1    1    2    0    0 -0.29443487237E+03 -0.69082871014E+02 -0.10761183194E+04  0.11282227739E+04  0.15294330000E+03 0.  0.
<mgrwt>
<rscale>  0 0.59932734E+03</rscale>
<asrwt>0</asrwt>
<pdfrwt beam="1">  1        2 0.35663055E+00 0.72475827E+03</pdfrwt>
<pdfrwt beam="2">  1       -2 0.20623217E-01 0.72475827E+03</pdfrwt>
<totfact> 0.92801884E+01</totfact>
</mgrwt>
</event>
<event>
 4    1  0.1998832E-007  0.7486439E+03  0.7818608E-02  0.9835448E-01
          2   -1    0    0  501    0  0.00000000000E+00  0.00000000000E+00  0.14205910507E+04  0.14205910508E+04  0.25500000000E-02 0. -1.
         -2   -1    0    0    0  501 -0.00000000000E+00 -0.00000000000E+00 -0.41426407114E+03  0.41426407114E+03  0.25500000000E-02 0.  1.
    8880023    1    1    2    0    0  0.25275071963E+03 -0.25054838768E+03 -0.84158827051E+01  0.74869116075E+03  0.65864270000E+03 0.  0.
    8880022    1    1    2    0    0 -0.25275071963E+03  0.25054838768E+03  0.10147428623E+04  0.10861639611E+04  0.15294330000E+03 0. -1.
<mgrwt>
<rscale>  0 0.63494428E+03</rscale>
<asrwt>0</asrwt>
<pdfrwt beam="1">  1        2 0.21855247E+00 0.74864386E+03</pdfrwt>
<pdfrwt beam="2">  1       -2 0.63732935E-01 0.74864386E+03</pdfrwt>
<totfact> 0.32777754E+01</totfact>
</mgrwt>
</event>
<event>
 4    1  0.1998832E-007  0.1008623E+04  0.7818608E-02  0.9370362E-01
          2   -1    0    0  501    0  0.00000000000E+00  0.00000000000E+00  0.28378923325E+04  0.28378923325E+04  0.25500000000E-02 0. -1.
         -2   -1    0    0    0  501 -0.00000000000E+00 -0.00000000000E+00 -0.60364575096E+03  0.60364575097E+03  0.25500000000E-02 0.  1.
    8880023    1    1    2    0    0 -0.71381721471E+03 -0.27198492068E+03 -0.68141259317E+02  0.10109224751E+04  0.65864270000E+03 0.  1.
    8880022    1    1    2    0    0  0.71381721471E+03  0.27198492068E+03  0.23023878408E+04  0.24306156084E+04  0.15294330000E+03 0.  0.
<mgrwt>
<rscale>  0 0.94555462E+03</rscale>
<asrwt>0</asrwt>
<pdfrwt beam="1">  1        2 0.43659881E+00 0.10086233E+04</pdfrwt>
<pdfrwt beam="2">  1       -2 0.92868578E-01 0.10086233E+04</pdfrwt>
<totfact> 0.21872816E+00</totfact>
</mgrwt>
</event>
<event>
 4    1  0.1998832E-007  0.1465026E+04  0.7818608E-02  0.8934735E-01
         -2   -1    0    0    0  501 -0.00000000000E+00  0.00000000000E+00  0.10632083349E+04  0.10632083349E+04  0.25500000000E-02 0.  1.
          2   -1    0    0  501    0  0.00000000000E+00 -0.00000000000E+00 -0.31321071231E+04  0.31321071231E+04  0.25500000000E-02 0. -1.
    8880023    1    1    2    0    0  0.36518183631E+03  0.12566358906E+04  0.28996086017E+03  0.14934453595E+04  0.65864270000E+03 0.  0.
    8880022    1    1    2    0    0 -0.36518183631E+03 -0.12566358906E+04 -0.23588596484E+04  0.27018700985E+04  0.15294330000E+03 0.  0.
<mgrwt>
<rscale>  0 0.14266719E+04</rscale>
<asrwt>0</asrwt>
<pdfrwt beam="1">  1        2 0.48186263E+00 0.14650262E+04</pdfrwt>
<pdfrwt beam="2">  1       -2 0.16357051E+00 0.14650262E+04</pdfrwt>
<totfact> 0.32371237E-01</totfact>
</mgrwt>
</event>
<event>
 4    1  0.1998832E-007  0.9435744E+03  0.7818608E-02  0.9459420E-01
         -2   -1    0    0    0  501 -0.00000000000E+00  0.00000000000E+00  0.10655713683E+04  0.10655713683E+04  0.25500000000E-02 0.  1.
          2   -1    0    0  501    0  0.00000000000E+00 -0.00000000000E+00 -0.36300326991E+04  0.36300326991E+04  0.25500000000E-02 0. -1.
    8880023    1    1    2    0    0 -0.27587488360E+03  0.61677825793E+03  0.81441823657E+03  0.12464387836E+04  0.65864270000E+03 0.  1.
    8880022    1    1    2    0    0  0.27587488360E+03 -0.61677825793E+03 -0.33788795674E+04  0.34491652838E+04  0.15294330000E+03 0.  0.
<mgrwt>
<rscale>  0 0.87342884E+03</rscale>
<asrwt>0</asrwt>
<pdfrwt beam="1">  1        2 0.55846656E+00 0.94357436E+03</pdfrwt>
<pdfrwt beam="2">  1       -2 0.16393406E+00 0.94357436E+03</pdfrwt>
<totfact> 0.16209003E-01</totfact>
</mgrwt>
</event>
<event>
 4    1  0.1998832E-007  0.9479487E+03  0.7818608E-02  0.9453072E-01
         -2   -1    0    0    0  501 -0.00000000000E+00  0.00000000000E+00  0.34768659540E+03  0.34768659541E+03  0.25500000000E-02 0.  1.
          2   -1    0    0  501    0  0.00000000000E+00 -0.00000000000E+00 -0.38195172805E+04  0.38195172805E+04  0.25500000000E-02 0. -1.
    8880023    1    1    2    0    0 -0.23324752025E+03 -0.64061853566E+03 -0.42072612916E+03  0.10371196633E+04  0.65864270000E+03 0.  1.
    8880022    1    1    2    0    0  0.23324752025E+03  0.64061853566E+03 -0.30511045559E+04  0.31300842126E+04  0.15294330000E+03 0.  0.
<mgrwt>
<rscale>  0 0.87833872E+03</rscale>
<asrwt>0</asrwt>
<pdfrwt beam="1">  1        2 0.58761801E+00 0.94794869E+03</pdfrwt>
<pdfrwt beam="2">  1       -2 0.53490248E-01 0.94794869E+03</pdfrwt>
<totfact> 0.16533401E+00</totfact>
</mgrwt>
</event>
<event>
 4    1  0.1998832E-007  0.1341865E+04  0.7818608E-02  0.9030224E-01
         -2   -1    0    0    0  501 -0.00000000000E+00  0.00000000000E+00  0.11706934611E+04  0.11706934611E+04  0.25500000000E-02 0.  1.
          2   -1    0    0  501    0  0.00000000000E+00 -0.00000000000E+00 -0.38992974518E+04  0.38992974518E+04  0.25500000000E-02 0. -1.
    8880023    1    1    2    0    0  0.48804782914E+03  0.10623568266E+04  0.65040228093E+03  0.14911827668E+04  0.65864270000E+03 0.  0.
    8880022    1    1    2    0    0 -0.48804782914E+03 -0.10623568266E+04 -0.33790062716E+04  0.35788081462E+04  0.15294330000E+03 0.  0.
<mgrwt>
<rscale>  0 0.12991694E+04</rscale>
<asrwt>0</asrwt>
<pdfrwt beam="1">  1        2 0.59989191E+00 0.13418655E+04</pdfrwt>
<pdfrwt beam="2">  1       -2 0.18010669E+00 0.13418655E+04</pdfrwt>
<totfact> 0.72947037E-02</totfact>
</mgrwt>
</event>
<event>
 4    1  0.1998832E-007  0.7385802E+03  0.7818608E-02  0.9864102E-01
          2   -1    0    0  501    0  0.00000000000E+00  0.00000000000E+00  0.98699145619E+03  0.98699145619E+03  0.25500000000E-02 0. -1.
         -2   -1    0    0    0  501 -0.00000000000E+00 -0.00000000000E+00 -0.61829045786E+03  0.61829045786E+03  0.25500000000E-02 0.  1.
    8880023    1    1    2    0    0 -0.14416411534E+03 -0.30150834578E+03 -0.33529153830E+03  0.81112341641E+03  0.65864270000E+03 0.  0.
    8880022    1    1    2    0    0  0.14416411534E+03  0.30150834578E+03  0.70399253663E+03  0.79415849764E+03  0.15294330000E+03 0.  0.
<mgrwt>
<rscale>  0 0.62033037E+03</rscale>
<asrwt>0</asrwt>
<pdfrwt beam="1">  1        2 0.15184484E+00 0.73858025E+03</pdfrwt>
<pdfrwt beam="2">  1       -2 0.95121610E-01 0.73858025E+03</pdfrwt>
<totfact> 0.24277012E+01</totfact>
</mgrwt>
</event>
<event>
 4    1  0.1998832E-007  0.8620870E+03  0.7818608E-02  0.9589862E-01
         -2   -1    0    0    0  501 -0.00000000000E+00  0.00000000000E+00  0.12542678788E+04  0.12542678788E+04  0.25500000000E-02 0.  1.
          2   -1    0    0  501    0  0.00000000000E+00 -0.00000000000E+00 -0.11269638680E+04  0.11269638680E+04  0.25500000000E-02 0. -1.
    8880023    1    1    2    0    0 -0.24770165922E+03 -0.49802379371E+03  0.10092870777E+04  0.13273486439E+04  0.65864270000E+03 0.  1.
    8880022    1    1    2    0    0  0.24770165922E+03  0.49802379371E+03 -0.88198306694E+03  0.10538831029E+04  0.15294330000E+03 0.  0.
<mgrwt>
<rscale>  0 0.77970845E+03</rscale>
<asrwt>0</asrwt>
<pdfrwt beam="1">  1        2 0.17337906E+00 0.86208701E+03</pdfrwt>
<pdfrwt beam="2">  1       -2 0.19296429E+00 0.86208701E+03</pdfrwt>
<totfact> 0.31319263E+00</totfact>
</mgrwt>
</event>
<event>
 4    1  0.1998832E-007  0.7416943E+03  0.7818608E-02  0.9855039E-01
          2   -1    0    0  501    0  0.00000000000E+00  0.00000000000E+00  0.10563390299E+04  0.10563390300E+04  0.25500000000E-02 0. -1.
         -2   -1    0    0    0  501 -0.00000000000E+00 -0.00000000000E+00 -0.36539150763E+03  0.36539150764E+03  0.25500000000E-02 0.  1.
    8880023    1    1    2    0    0 -0.30581488499E+03 -0.15092206036E+03  0.13816691673E+03  0.75445378608E+03  0.65864270000E+03 0.  1.
    8880022    1    1    2    0    0  0.30581488499E+03  0.15092206036E+03  0.55278060559E+03  0.66727675152E+03  0.15294330000E+03 0.  0.
<mgrwt>
<rscale>  0 0.62490657E+03</rscale>
<asrwt>0</asrwt>
<pdfrwt beam="1">  1        2 0.16251370E+00 0.74169429E+03</pdfrwt>
<pdfrwt beam="2">  1       -2 0.56214078E-01 0.74169429E+03</pdfrwt>
<totfact> 0.69997466E+01</totfact>
</mgrwt>
</event>
<event>
 4    1  0.1998832E-007  0.1092304E+04  0.7818608E-02  0.9269674E-01
          2   -1    0    0  501    0  0.00000000000E+00  0.00000000000E+00  0.11337300553E+04  0.11337300553E+04  0.25500000000E-02 0. -1.
         -2   -1    0    0    0  501 -0.00000000000E+00 -0.00000000000E+00 -0.87636768014E+03  0.87636768015E+03  0.25500000000E-02 0.  1.
    8880023    1    1    2    0    0 -0.87136946023E+03  0.56883875554E+01  0.13467260248E+02  0.10923866840E+04  0.65864270000E+03 0.  0.
    8880022    1    1    2    0    0  0.87136946023E+03 -0.56883875554E+01  0.24389511495E+03  0.91771105152E+03  0.15294330000E+03 0.  0.
<mgrwt>
<rscale>  0 0.10362334E+04</rscale>
<asrwt>0</asrwt>
<pdfrwt beam="1">  1        2 0.17442001E+00 0.10923037E+04</pdfrwt>
<pdfrwt beam="2">  1       -2 0.13482580E+00 0.10923037E+04</pdfrwt>
<totfact> 0.80859857E+00</totfact>
</mgrwt>
</event>
<event>
 4    1  0.1998832E-007  0.9955825E+03  0.7818608E-02  0.9387360E-01
         -2   -1    0    0    0  501 -0.00000000000E+00  0.00000000000E+00  0.67320759254E+03  0.67320759255E+03  0.25500000000E-02 0.  1.
          2   -1    0    0  501    0  0.00000000000E+00 -0.00000000000E+00 -0.51758806478E+04  0.51758806478E+04  0.25500000000E-02 0. -1.
    8880023    1    1    2    0    0  0.63377564547E+03 -0.39459180504E+03  0.25746352700E+03  0.10283345445E+04  0.65864270000E+03 0.  0.
    8880022    1    1    2    0    0 -0.63377564547E+03  0.39459180504E+03 -0.47601365822E+04  0.48207536959E+04  0.15294330000E+03 0.  0.
<mgrwt>
<rscale>  0 0.93123239E+03</rscale>
<asrwt>0</asrwt>
<pdfrwt beam="1">  1        2 0.79628931E+00 0.99558248E+03</pdfrwt>
<pdfrwt beam="2">  1       -2 0.10357040E+00 0.99558248E+03</pdfrwt>
<totfact> 0.16911630E-02</totfact>
</mgrwt>
</event>
<event>
 4    1  0.1998832E-007  0.1136974E+04  0.7818608E-02  0.9220965E-01
          2   -1    0    0  501    0  0.00000000000E+00  0.00000000000E+00  0.17212744094E+04  0.17212744094E+04  0.25500000000E-02 0. -1.
         -2   -1    0    0    0  501 -0.00000000000E+00 -0.00000000000E+00 -0.10769871099E+04  0.10769871099E+04  0.25500000000E-02 0.  1.
    8880023    1    1    2    0    0 -0.53797872392E+03 -0.75463784777E+03 -0.56290181228E+03  0.12686875286E+04  0.65864270000E+03 0.  0.
    8880022    1    1    2    0    0  0.53797872392E+03  0.75463784777E+03  0.12071891117E+04  0.15295739907E+04  0.15294330000E+03 0.  0.
<mgrwt>
<rscale>  0 0.10839627E+04</rscale>
<asrwt>0</asrwt>
<pdfrwt beam="1">  1        2 0.26481145E+00 0.11369739E+04</pdfrwt>
<pdfrwt beam="2">  1       -2 0.16569032E+00 0.11369739E+04</pdfrwt>
<totfact> 0.21360187E+00</totfact>
</mgrwt>
</event>
<event>
 4    1  0.1998832E-007  0.9189083E+03  0.7818608E-02  0.9496335E-01
          2   -1    0    0  501    0  0.00000000000E+00  0.00000000000E+00  0.10237206766E+04  0.10237206766E+04  0.25500000000E-02 0. -1.
         -2   -1    0    0    0  501 -0.00000000000E+00 -0.00000000000E+00 -0.70624024503E+03  0.70624024503E+03  0.25500000000E-02 0.  1.
    8880023    1    1    2    0    0  0.40297092309E+03  0.49819347105E+03  0.50032814584E+03  0.10462890419E+04  0.65864270000E+03 0.  0.
    8880022    1    1    2    0    0 -0.40297092309E+03 -0.49819347105E+03 -0.18284771428E+03  0.68367187970E+03  0.15294330000E+03 0.  0.
<mgrwt>
<rscale>  0 0.84554572E+03</rscale>
<asrwt>0</asrwt>
<pdfrwt beam="1">  1        2 0.15749549E+00 0.91890832E+03</pdfrwt>
<pdfrwt beam="2">  1       -2 0.10865235E+00 0.91890832E+03</pdfrwt>
<totfact> 0.16468842E+01</totfact>
</mgrwt>
</event>
<event>
 4    1  0.1998832E-007  0.1543681E+04  0.7818608E-02  0.8879392E-01
          2   -1    0    0  501    0  0.00000000000E+00  0.00000000000E+00  0.20338937032E+04  0.20338937032E+04  0.25500000000E-02 0. -1.
         -2   -1    0    0    0  501 -0.00000000000E+00 -0.00000000000E+00 -0.22310408701E+04  0.22310408701E+04  0.25500000000E-02 0.  1.
    8880023    1    1    2    0    0  0.11935455398E+04  0.72428568675E+03 -0.16394177203E+04  0.22518084686E+04  0.65864270000E+03 0.  0.
    8880022    1    1    2    0    0 -0.11935455398E+04 -0.72428568675E+03  0.14422705534E+04  0.20131261047E+04  0.15294330000E+03 0.  0.
<mgrwt>
<rscale>  0 0.15076349E+04</rscale>
<asrwt>0</asrwt>
<pdfrwt beam="1">  1        2 0.31290672E+00 0.15436810E+04</pdfrwt>
<pdfrwt beam="2">  1       -2 0.34323706E+00 0.15436810E+04</pdfrwt>
<totfact> 0.10250492E-01</totfact>
</mgrwt>
</event>
<event>
 4    1  0.1998832E-007  0.1038861E+04  0.7818608E-02  0.9332394E-01
          2   -1    0    0  501    0  0.00000000000E+00  0.00000000000E+00  0.24103262779E+04  0.24103262779E+04  0.25500000000E-02 0. -1.
         -2   -1    0    0    0  501 -0.00000000000E+00 -0.00000000000E+00 -0.74040451965E+03  0.74040451965E+03  0.25500000000E-02 0.  1.
    8880023    1    1    2    0    0 -0.80166064050E+03  0.52551599357E+02 -0.24598074912E+03  0.10675852136E+04  0.65864270000E+03 0.  1.
    8880022    1    1    2    0    0  0.80166064050E+03 -0.52551599357E+02  0.19159025074E+04  0.20831455840E+04  0.15294330000E+03 0.  0.
<mgrwt>
<rscale>  0 0.97854567E+03</rscale>
<asrwt>0</asrwt>
<pdfrwt beam="1">  1        2 0.37081942E+00 0.10388608E+04</pdfrwt>
<pdfrwt beam="2">  1       -2 0.11390839E+00 0.10388608E+04</pdfrwt>
<totfact> 0.23679355E+00</totfact>
</mgrwt>
</event>
<event>
 4    1  0.1998832E-007  0.1317468E+04  0.7818608E-02  0.9050620E-01
          2   -1    0    0  501    0  0.00000000000E+00  0.00000000000E+00  0.20491535277E+04  0.20491535277E+04  0.25500000000E-02 0. -1.
         -2   -1    0    0    0  501 -0.00000000000E+00 -0.00000000000E+00 -0.18882074868E+04  0.18882074868E+04  0.25500000000E-02 0.  1.
    8880023    1    1    2    0    0  0.88175709962E+03  0.72416598107E+03 -0.14488478118E+04  0.19582855101E+04  0.65864270000E+03 0.  0.
    8880022    1    1    2    0    0 -0.88175709962E+03 -0.72416598107E+03  0.16097938527E+04  0.19790755044E+04  0.15294330000E+03 0.  0.
<mgrwt>
<rscale>  0 0.12737802E+04</rscale>
<asrwt>0</asrwt>
<pdfrwt beam="1">  1        2 0.31525439E+00 0.13174681E+04</pdfrwt>
<pdfrwt beam="2">  1       -2 0.29049346E+00 0.13174681E+04</pdfrwt>
<totfact> 0.21880401E-01</totfact>
</mgrwt>
</event>
<event>
 4    1  0.2313494E-007  0.8769036E+03  0.7818608E-02  0.9564175E-01
          2   -1    0    0  501    0  0.00000000000E+00  0.00000000000E+00  0.18948390812E+04  0.18948390812E+04  0.25500000000E-02 0. -1.
         -2   -1    0    0    0  501 -0.00000000000E+00 -0.00000000000E+00 -0.15897045006E+04  0.15897045006E+04  0.25500000000E-02 0.  1.
    8880023    1    1    2    0    0  0.56137556501E+03  0.14144675567E+03 -0.14141538061E+04  0.16639684202E+04  0.65864270000E+03 0.  1.
    8880022    1    1    2    0    0 -0.56137556501E+03 -0.14144675567E+03  0.17192883867E+04  0.18205751616E+04  0.15294330000E+03 0.  0.
<mgrwt>
<rscale>  0 0.79713393E+03</rscale>
<asrwt>0</asrwt>
<pdfrwt beam="1">  1        2 0.29151370E+00 0.87690360E+03</pdfrwt>
<pdfrwt beam="2">  1       -2 0.24456992E+00 0.87690360E+03</pdfrwt>
<totfact> 0.54278006E-01</totfact>
</mgrwt>
</event>
<event>
 4    1  0.1998832E-007  0.7084273E+03  0.7818608E-02  0.9963888E-01
          2   -1    0    0  501    0  0.00000000000E+00  0.00000000000E+00  0.91595486480E+03  0.91595486480E+03  0.25500000000E-02 0. -1.
         -2   -1    0    0    0  501 -0.00000000000E+00 -0.00000000000E+00 -0.59925501050E+03  0.59925501051E+03  0.25500000000E-02 0.  1.
    8880023    1    1    2    0    0  0.22610052435E+03  0.13014461712E+03 -0.34478706745E+03  0.78787524179E+03  0.65864270000E+03 0.  1.
    8880022    1    1    2    0    0 -0.22610052435E+03 -0.13014461712E+03  0.66148692174E+03  0.72733463353E+03  0.15294330000E+03 0.  0.
<mgrwt>
<rscale>  0 0.57262443E+03</rscale>
<asrwt>0</asrwt>
<pdfrwt beam="1">  1        2 0.14091613E+00 0.70842732E+03</pdfrwt>
<pdfrwt beam="2">  1       -2 0.92193078E-01 0.70842732E+03</pdfrwt>
<totfact> 0.29142804E+01</totfact>
</mgrwt>
</event>
<event>
 4    1  0.1998832E-007  0.2074713E+04  0.7818608E-02  0.8584099E-01
          2   -1    0    0  501    0  0.00000000000E+00  0.00000000000E+00  0.16913858714E+04  0.16913858714E+04  0.25500000000E-02 0. -1.
         -2   -1    0    0    0  501 -0.00000000000E+00 -0.00000000000E+00 -0.27108340874E+04  0.27108340874E+04  0.25500000000E-02 0.  1.
    8880023    1    1    2    0    0 -0.19149926148E+03  0.19580476999E+04  0.19706137830E+03  0.20840504205E+04  0.65864270000E+03 0.  1.
    8880022    1    1    2    0    0  0.19149926148E+03 -0.19580476999E+04 -0.12165095943E+04  0.23181695383E+04  0.15294330000E+03 0.  0.
<mgrwt>
<rscale>  0 0.20488878E+04</rscale>
<asrwt>0</asrwt>
<pdfrwt beam="1">  1        2 0.26021321E+00 0.20747127E+04</pdfrwt>
<pdfrwt beam="2">  1       -2 0.41705140E+00 0.20747127E+04</pdfrwt>
<totfact> 0.50219940E-02</totfact>
</mgrwt>
</event>
<event>
 4    1  0.1998832E-007  0.1092451E+04  0.7818608E-02  0.9269508E-01
         -2   -1    0    0    0  501 -0.00000000000E+00  0.00000000000E+00  0.59046965400E+03  0.59046965400E+03  0.25500000000E-02 0.  1.
          2   -1    0    0  501    0  0.00000000000E+00 -0.00000000000E+00 -0.18774937166E+04  0.18774937166E+04  0.25500000000E-02 0. -1.
    8880023    1    1    2    0    0  0.30508828255E+03 -0.81643160444E+03 -0.28073627658E+03  0.11279461371E+04  0.65864270000E+03 0.  0.
    8880022    1    1    2    0    0 -0.30508828255E+03  0.81643160444E+03 -0.10062877861E+04  0.13400172336E+04  0.15294330000E+03 0.  0.
<mgrwt>
<rscale>  0 0.10363917E+04</rscale>
<asrwt>0</asrwt>
<pdfrwt beam="1">  1        2 0.28884518E+00 0.10924512E+04</pdfrwt>
<pdfrwt beam="2">  1       -2 0.90841486E-01 0.10924512E+04</pdfrwt>
<totfact> 0.80015053E+00</totfact>
</mgrwt>
</event>
<event>
 4    1  0.1998832E-007  0.9899214E+03  0.7818608E-02  0.9394864E-01
          2   -1    0    0  501    0  0.00000000000E+00  0.00000000000E+00  0.12021299447E+04  0.12021299447E+04  0.25500000000E-02 0. -1.
         -2   -1    0    0    0  501 -0.00000000000E+00 -0.00000000000E+00 -0.13209770801E+04  0.13209770801E+04  0.25500000000E-02 0.  1.
    8880023    1    1    2    0    0 -0.30644219232E+02  0.73837322599E+03 -0.96974191496E+03  0.13857646542E+04  0.65864270000E+03 0.  0.
    8880022    1    1    2    0    0  0.30644219232E+02 -0.73837322599E+03  0.85089477953E+03  0.11373423706E+04  0.15294330000E+03 0.  0.
<mgrwt>
<rscale>  0 0.92499565E+03</rscale>
<asrwt>0</asrwt>
<pdfrwt beam="1">  1        2 0.18494307E+00 0.98992136E+03</pdfrwt>
<pdfrwt beam="2">  1       -2 0.20322724E+00 0.98992136E+03</pdfrwt>
<totfact> 0.23773567E+00</totfact>
</mgrwt>
</event>
<event>
 4    1  0.1998832E-007  0.7660945E+03  0.7818608E-02  0.9789577E-01
          2   -1    0    0  501    0  0.00000000000E+00  0.00000000000E+00  0.16380240930E+04  0.16380240930E+04  0.25500000000E-02 0. -1.
         -2   -1    0    0    0  501 -0.00000000000E+00 -0.00000000000E+00 -0.26137708829E+04  0.26137708829E+04  0.25500000000E-02 0.  1.
    8880023    1    1    2    0    0  0.37840020600E+03  0.99518467820E+02 -0.25291279657E+04  0.26426102843E+04  0.65864270000E+03 0.  1.
    8880022    1    1    2    0    0 -0.37840020600E+03 -0.99518467820E+02  0.15533811758E+04  0.16091846916E+04  0.15294330000E+03 0.  0.
<mgrwt>
<rscale>  0 0.65924891E+03</rscale>
<asrwt>0</asrwt>
<pdfrwt beam="1">  1        2 0.25200371E+00 0.76609454E+03</pdfrwt>
<pdfrwt beam="2">  1       -2 0.40211860E+00 0.76609454E+03</pdfrwt>
<totfact> 0.82143134E-02</totfact>
</mgrwt>
</event>
<event>
 4    1  0.1998832E-007  0.7178051E+03  0.7818608E-02  0.9930084E-01
          2   -1    0    0  501    0  0.00000000000E+00  0.00000000000E+00  0.14339993476E+04  0.14339993476E+04  0.25500000000E-02 0. -1.
         -2   -1    0    0    0  501 -0.00000000000E+00 -0.00000000000E+00 -0.11476746460E+04  0.11476746460E+04  0.25500000000E-02 0.  1.
    8880023    1    1    2    0    0  0.58030187391E+02 -0.27940376529E+03 -0.10136054960E+04  0.12420307059E+04  0.65864270000E+03 0.  1.
    8880022    1    1    2    0    0 -0.58030187391E+02  0.27940376529E+03  0.12999301976E+04  0.13396432877E+04  0.15294330000E+03 0.  0.
<mgrwt>
<rscale>  0 0.58825190E+03</rscale>
<asrwt>0</asrwt>
<pdfrwt beam="1">  1        2 0.22061528E+00 0.71780511E+03</pdfrwt>
<pdfrwt beam="2">  1       -2 0.17656533E+00 0.71780511E+03</pdfrwt>
<totfact> 0.27394897E+00</totfact>
</mgrwt>
</event>
<event>
 4    1  0.1998832E-007  0.7000326E+03  0.7818608E-02  0.9997066E-01
          2   -1    0    0  501    0  0.00000000000E+00  0.00000000000E+00  0.35347707050E+04  0.35347707050E+04  0.25500000000E-02 0. -1.
         -2   -1    0    0    0  501 -0.00000000000E+00 -0.00000000000E+00 -0.65224849771E+03  0.65224849772E+03  0.25500000000E-02 0.  1.
    8880023    1    1    2    0    0 -0.21321751852E+03 -0.10379666684E+03 -0.45673886242E+03  0.83585647868E+03  0.65864270000E+03 0.  1.
    8880022    1    1    2    0    0  0.21321751852E+03  0.10379666684E+03  0.33392610697E+04  0.33511627241E+04  0.15294330000E+03 0.  0.
<mgrwt>
<rscale>  0 0.55779077E+03</rscale>
<asrwt>0</asrwt>
<pdfrwt beam="1">  1        2 0.54381089E+00 0.70003262E+03</pdfrwt>
<pdfrwt beam="2">  1       -2 0.10034592E+00 0.70003262E+03</pdfrwt>
<totfact> 0.69525143E-01</totfact>
</mgrwt>
</event>
<event>
 4    1  0.1998832E-007  0.8277707E+03  0.7818608E-02  0.9653686E-01
          2   -1    0    0  501    0  0.00000000000E+00  0.00000000000E+00  0.12584739295E+04  0.12584739295E+04  0.25500000000E-02 0. -1.
         -2   -1    0    0    0  501 -0.00000000000E+00 -0.00000000000E+00 -0.37998439570E+03  0.37998439571E+03  0.25500000000E-02 0.  1.
    8880023    1    1    2    0    0  0.31193621444E+03  0.39254279305E+03  0.36503004739E+03  0.90468292126E+03  0.65864270000E+03 0.  0.
    8880022    1    1    2    0    0 -0.31193621444E+03 -0.39254279305E+03  0.51345948641E+03  0.73377540396E+03  0.15294330000E+03 0.  0.
<mgrwt>
<rscale>  0 0.73842567E+03</rscale>
<asrwt>0</asrwt>
<pdfrwt beam="1">  1        2 0.19361137E+00 0.82777065E+03</pdfrwt>
<pdfrwt beam="2">  1       -2 0.58459139E-01 0.82777065E+03</pdfrwt>
<totfact> 0.48380826E+01</totfact>
</mgrwt>
</event>
<event>
 4    1  0.1998832E-007  0.1170202E+04  0.7818608E-02  0.9186646E-01
          2   -1    0    0  501    0  0.00000000000E+00  0.00000000000E+00  0.11458024148E+04  0.11458024148E+04  0.25500000000E-02 0. -1.
         -2   -1    0    0    0  501 -0.00000000000E+00 -0.00000000000E+00 -0.13122717699E+04  0.13122717699E+04  0.25500000000E-02 0.  1.
    8880023    1    1    2    0    0  0.96713602711E+03  0.14545652616E+02 -0.67886155154E+03  0.13528587818E+04  0.65864270000E+03 0. -1.
    8880022    1    1    2    0    0 -0.96713602711E+03 -0.14545652616E+02  0.51239219643E+03  0.11052154030E+04  0.15294330000E+03 0.  0.
<mgrwt>
<rscale>  0 0.11192331E+04</rscale>
<asrwt>0</asrwt>
<pdfrwt beam="1">  1        2 0.17627729E+00 0.11702025E+04</pdfrwt>
<pdfrwt beam="2">  1       -2 0.20188796E+00 0.11702025E+04</pdfrwt>
<totfact> 0.25718799E+00</totfact>
</mgrwt>
</event>
<event>
 4    1  0.1998832E-007  0.1042359E+04  0.7818608E-02  0.9328123E-01
          2   -1    0    0  501    0  0.00000000000E+00  0.00000000000E+00  0.29930600601E+04  0.29930600601E+04  0.25500000000E-02 0. -1.
         -2   -1    0    0    0  501 -0.00000000000E+00 -0.00000000000E+00 -0.30593970893E+03  0.30593970894E+03  0.25500000000E-02 0.  1.
    8880023    1    1    2    0    0 -0.28756038724E+03 -0.75499123244E+03  0.18633671449E+04  0.21350995434E+04  0.65864270000E+03 0.  0.
    8880022    1    1    2    0    0  0.28756038724E+03  0.75499123244E+03  0.82375320635E+03  0.11639002257E+04  0.15294330000E+03 0.  0.
<mgrwt>
<rscale>  0 0.98234492E+03</rscale>
<asrwt>0</asrwt>
<pdfrwt beam="1">  1        2 0.46047077E+00 0.10423593E+04</pdfrwt>
<pdfrwt beam="2">  1       -2 0.47067648E-01 0.10423593E+04</pdfrwt>
<totfact> 0.76540868E+00</totfact>
</mgrwt>
</event>
<event>
 4    1  0.1998832E-007  0.6663693E+03  0.7818608E-02  0.1018411E+00
         -2   -1    0    0    0  501 -0.00000000000E+00  0.00000000000E+00  0.79445813564E+03  0.79445813565E+03  0.25500000000E-02 0.  1.
          2   -1    0    0  501    0  0.00000000000E+00 -0.00000000000E+00 -0.33218280718E+03  0.33218280719E+03  0.25500000000E-02 0. -1.
    8880023    1    1    2    0    0  0.51071878337E+02  0.87346955119E+02  0.60048178711E+03  0.89700970465E+03  0.65864270000E+03 0.  1.
    8880022    1    1    2    0    0 -0.51071878337E+02 -0.87346955119E+02 -0.13820645864E+03  0.22963123819E+03  0.15294330000E+03 0.  0.
<mgrwt>
<rscale>  0 0.48264327E+03</rscale>
<asrwt>0</asrwt>
<pdfrwt beam="1">  1        2 0.51105048E-01 0.66636929E+03</pdfrwt>
<pdfrwt beam="2">  1       -2 0.12222433E+00 0.66636929E+03</pdfrwt>
<totfact> 0.50497628E+01</totfact>
</mgrwt>
</event>
<event>
 4    1  0.1998832E-007  0.1042243E+04  0.7818608E-02  0.9328265E-01
         -2   -1    0    0    0  501 -0.00000000000E+00  0.00000000000E+00  0.13362112168E+04  0.13362112168E+04  0.25500000000E-02 0.  1.
          2   -1    0    0  501    0  0.00000000000E+00 -0.00000000000E+00 -0.86184126386E+03  0.86184126386E+03  0.25500000000E-02 0. -1.
    8880023    1    1    2    0    0  0.70902268048E+03 -0.38697143721E+03  0.79993132446E+03  0.13138342303E+04  0.65864270000E+03 0.  0.
    8880022    1    1    2    0    0 -0.70902268048E+03  0.38697143721E+03 -0.32556137150E+03  0.88421825036E+03  0.15294330000E+03 0.  0.
<mgrwt>
<rscale>  0 0.98221856E+03</rscale>
<asrwt>0</asrwt>
<pdfrwt beam="1">  1        2 0.13259096E+00 0.10422429E+04</pdfrwt>
<pdfrwt beam="2">  1       -2 0.20557096E+00 0.10422429E+04</pdfrwt>
<totfact> 0.37655708E+00</totfact>
</mgrwt>
</event>
<event>
 4    1  0.1998832E-007  0.7749261E+03  0.7818608E-02  0.9767893E-01
         -2   -1    0    0    0  501 -0.00000000000E+00  0.00000000000E+00  0.29515379240E+03  0.29515379241E+03  0.25500000000E-02 0.  1.
          2   -1    0    0  501    0  0.00000000000E+00 -0.00000000000E+00 -0.31342623729E+04  0.31342623729E+04  0.25500000000E-02 0. -1.
    8880023    1    1    2    0    0 -0.16595539486E+03 -0.37304032369E+03 -0.26551288339E+03  0.81915051956E+03  0.65864270000E+03 0.  0.
    8880022    1    1    2    0    0  0.16595539486E+03  0.37304032369E+03 -0.25735956971E+04  0.26102656457E+04  0.15294330000E+03 0.  0.
<mgrwt>
<rscale>  0 0.67114395E+03</rscale>
<asrwt>0</asrwt>
<pdfrwt beam="1">  1        2 0.48219419E+00 0.77492611E+03</pdfrwt>
<pdfrwt beam="2">  1       -2 0.45408278E-01 0.77492611E+03</pdfrwt>
<totfact> 0.70023744E+00</totfact>
</mgrwt>
</event>
<event>
 4    1  0.1998832E-007  0.8590614E+03  0.7818608E-02  0.9595235E-01
          2   -1    0    0  501    0  0.00000000000E+00  0.00000000000E+00  0.35406155279E+04  0.35406155280E+04  0.25500000000E-02 0. -1.
         -2   -1    0    0    0  501 -0.00000000000E+00 -0.00000000000E+00 -0.15239715247E+03  0.15239715249E+03  0.25500000000E-02 0.  1.
    8880023    1    1    2    0    0 -0.48990738489E+03 -0.25331206089E+03  0.24240223925E+04  0.25717447407E+04  0.65864270000E+03 0. -1.
    8880022    1    1    2    0    0  0.48990738489E+03  0.25331206089E+03  0.96419598301E+03  0.11212679397E+04  0.15294330000E+03 0.  1.
<mgrwt>
<rscale>  0 0.77612346E+03</rscale>
<asrwt>0</asrwt>
<pdfrwt beam="1">  1        2 0.54470998E+00 0.85906138E+03</pdfrwt>
<pdfrwt beam="2">  1       -2 0.23445720E-01 0.85906138E+03</pdfrwt>
<totfact> 0.12981063E+01</totfact>
</mgrwt>
</event>
<event>
 4    1  0.1998832E-007  0.1220125E+04  0.7818608E-02  0.9137804E-01
          2   -1    0    0  501    0  0.00000000000E+00  0.00000000000E+00  0.99619076887E+03  0.99619076888E+03  0.25500000000E-02 0. -1.
         -2   -1    0    0    0  501 -0.00000000000E+00 -0.00000000000E+00 -0.14698767001E+04  0.14698767001E+04  0.25500000000E-02 0.  1.
    8880023    1    1    2    0    0  0.91000834019E+03  0.47621279376E+03 -0.69522349618E+03  0.14042933170E+04  0.65864270000E+03 0.  0.
    8880022    1    1    2    0    0 -0.91000834019E+03 -0.47621279376E+03  0.22153756497E+03  0.10617741520E+04  0.15294330000E+03 0.  0.
<mgrwt>
<rscale>  0 0.11719116E+04</rscale>
<asrwt>0</asrwt>
<pdfrwt beam="1">  1        2 0.15326012E+00 0.12201246E+04</pdfrwt>
<pdfrwt beam="2">  1       -2 0.22613488E+00 0.12201246E+04</pdfrwt>
<totfact> 0.22241679E+00</totfact>
</mgrwt>
</event>
<event>
 4    1  0.1998832E-007  0.7591681E+03  0.7818608E-02  0.9807266E-01
          2   -1    0    0  501    0  0.00000000000E+00  0.00000000000E+00  0.48785989681E+03  0.48785989681E+03  0.25500000000E-02 0. -1.
         -2   -1    0    0    0  501 -0.00000000000E+00 -0.00000000000E+00 -0.10054890375E+04  0.10054890375E+04  0.25500000000E-02 0.  1.
    8880023    1    1    2    0    0 -0.19645773425E+03  0.32238238355E+03 -0.71308654614E+03  0.10415510891E+04  0.65864270000E+03 0.  1.
    8880022    1    1    2    0    0  0.19645773425E+03 -0.32238238355E+03  0.19545740549E+03  0.45179784522E+03  0.15294330000E+03 0.  0.
<mgrwt>
<rscale>  0 0.64974069E+03</rscale>
<asrwt>0</asrwt>
<pdfrwt beam="1">  1        2 0.75055369E-01 0.75916813E+03</pdfrwt>
<pdfrwt beam="2">  1       -2 0.15469062E+00 0.75916813E+03</pdfrwt>
<totfact> 0.17717682E+01</totfact>
</mgrwt>
</event>
<event>
 4    1  0.1998832E-007  0.1041682E+04  0.7818608E-02  0.9328949E-01
          2   -1    0    0  501    0  0.00000000000E+00  0.00000000000E+00  0.32809283960E+04  0.32809283960E+04  0.25500000000E-02 0. -1.
         -2   -1    0    0    0  501 -0.00000000000E+00 -0.00000000000E+00 -0.10606583795E+04  0.10606583795E+04  0.25500000000E-02 0.  1.
    8880023    1    1    2    0    0  0.24393398146E+03 -0.76927668557E+03 -0.73461587327E+03  0.12746611682E+04  0.65864270000E+03 0.  1.
    8880022    1    1    2    0    0 -0.24393398146E+03  0.76927668557E+03  0.29548858898E+04  0.30669256073E+04  0.15294330000E+03 0.  0.
<mgrwt>
<rscale>  0 0.98160926E+03</rscale>
<asrwt>0</asrwt>
<pdfrwt beam="1">  1        2 0.50475821E+00 0.10416816E+04</pdfrwt>
<pdfrwt beam="2">  1       -2 0.16317821E+00 0.10416816E+04</pdfrwt>
<totfact> 0.27813528E-01</totfact>
</mgrwt>
</event>
<event>
 4    1  0.1998832E-007  0.6749846E+03  0.7818608E-02  0.1012316E+00
          2   -1    0    0  501    0  0.00000000000E+00  0.00000000000E+00  0.22414983969E+04  0.22414983969E+04  0.25500000000E-02 0. -1.
         -2   -1    0    0    0  501 -0.00000000000E+00 -0.00000000000E+00 -0.23108269724E+03  0.23108269726E+03  0.25500000000E-02 0.  1.
    8880023    1    1    2    0    0  0.39767399172E+01 -0.14757426790E+03  0.28262887678E+03  0.73176722204E+03  0.65864270000E+03 0.  1.
    8880022    1    1    2    0    0 -0.39767399172E+01  0.14757426790E+03  0.17277868229E+04  0.17408138721E+04  0.15294330000E+03 0.  0.
<mgrwt>
<rscale>  0 0.50564467E+03</rscale>
<asrwt>0</asrwt>
<pdfrwt beam="1">  1        2 0.34484592E+00 0.67498458E+03</pdfrwt>
<pdfrwt beam="2">  1       -2 0.35551183E-01 0.67498458E+03</pdfrwt>
<totfact> 0.38094152E+01</totfact>
</mgrwt>
</event>
<event>
 4    1  0.1998832E-007  0.7874481E+03  0.7818608E-02  0.9738623E-01
          2   -1    0    0  501    0  0.00000000000E+00  0.00000000000E+00  0.40210072460E+04  0.40210072460E+04  0.25500000000E-02 0. -1.
         -2   -1    0    0    0  501 -0.00000000000E+00 -0.00000000000E+00 -0.49480183630E+03  0.49480183631E+03  0.25500000000E-02 0.  1.
    8880023    1    1    2    0    0 -0.14765172773E+03 -0.40554064416E+03 -0.15809797384E+03  0.80316213952E+03  0.65864270000E+03 0.  1.
    8880022    1    1    2    0    0  0.14765172773E+03  0.40554064416E+03  0.36843033835E+04  0.37126469428E+04  0.15294330000E+03 0.  0.
<mgrwt>
<rscale>  0 0.68763002E+03</rscale>
<asrwt>0</asrwt>
<pdfrwt beam="1">  1        2 0.61861648E+00 0.78744806E+03</pdfrwt>
<pdfrwt beam="2">  1       -2 0.76123362E-01 0.78744806E+03</pdfrwt>
<totfact> 0.56112801E-01</totfact>
</mgrwt>
</event>
<event>
 4    1  0.1998832E-007  0.8012055E+03  0.7818608E-02  0.9708196E-01
         -2   -1    0    0    0  501 -0.00000000000E+00  0.00000000000E+00  0.99804644306E+03  0.99804644307E+03  0.25500000000E-02 0.  1.
          2   -1    0    0  501    0  0.00000000000E+00 -0.00000000000E+00 -0.21734094759E+04  0.21734094759E+04  0.25500000000E-02 0. -1.
    8880023    1    1    2    0    0  0.18072286900E+03  0.41887866782E+03  0.80364129276E+03  0.11347993776E+04  0.65864270000E+03 0.  0.
    8880022    1    1    2    0    0 -0.18072286900E+03 -0.41887866782E+03 -0.19790043256E+04  0.20366565414E+04  0.15294330000E+03 0.  0.
<mgrwt>
<rscale>  0 0.70530925E+03</rscale>
<asrwt>0</asrwt>
<pdfrwt beam="1">  1        2 0.33437069E+00 0.80120553E+03</pdfrwt>
<pdfrwt beam="2">  1       -2 0.15354561E+00 0.80120553E+03</pdfrwt>
<totfact> 0.15542477E+00</totfact>
</mgrwt>
</event>
<event>
 4    1  0.1998832E-007  0.1088491E+04  0.7818608E-02  0.9273980E-01
         -2   -1    0    0    0  501 -0.00000000000E+00  0.00000000000E+00  0.55961773490E+03  0.55961773491E+03  0.25500000000E-02 0.  1.
          2   -1    0    0  501    0  0.00000000000E+00 -0.00000000000E+00 -0.30243908618E+04  0.30243908618E+04  0.25500000000E-02 0. -1.
    8880023    1    1    2    0    0 -0.84923036455E+03  0.17265377769E+03 -0.13901057239E+03  0.10973311645E+04  0.65864270000E+03 0.  0.
    8880022    1    1    2    0    0  0.84923036455E+03 -0.17265377769E+03 -0.23257625545E+04  0.24866774323E+04  0.15294330000E+03 0.  0.
<mgrwt>
<rscale>  0 0.10321402E+04</rscale>
<asrwt>0</asrwt>
<pdfrwt beam="1">  1        2 0.46529089E+00 0.10884906E+04</pdfrwt>
<pdfrwt beam="2">  1       -2 0.86095038E-01 0.10884906E+04</pdfrwt>
<totfact> 0.19825380E+00</totfact>
</mgrwt>
</event>
<event>
 4    1  0.1998832E-007  0.7411013E+03  0.7818608E-02  0.9856751E-01
          2   -1    0    0  501    0  0.00000000000E+00  0.00000000000E+00  0.25575266941E+04  0.25575266941E+04  0.25500000000E-02 0. -1.
         -2   -1    0    0    0  501 -0.00000000000E+00 -0.00000000000E+00 -0.15695495597E+03  0.15695495599E+03  0.25500000000E-02 0.  1.
    8880023    1    1    2    0    0  0.32272545652E+03  0.10615625817E+03  0.88762100555E+03  0.11563313224E+04  0.65864270000E+03 0.  1.
    8880022    1    1    2    0    0 -0.32272545652E+03 -0.10615625817E+03  0.15129507326E+04  0.15581503277E+04  0.15294330000E+03 0.  0.
<mgrwt>
<rscale>  0 0.62403902E+03</rscale>
<asrwt>0</asrwt>
<pdfrwt beam="1">  1        2 0.39346563E+00 0.74110126E+03</pdfrwt>
<pdfrwt beam="2">  1       -2 0.24146917E-01 0.74110126E+03</pdfrwt>
<totfact> 0.51320345E+01</totfact>
</mgrwt>
</event>
<event>
 4    1  0.1998832E-007  0.9006745E+03  0.7818608E-02  0.9524950E-01
          2   -1    0    0  501    0  0.00000000000E+00  0.00000000000E+00  0.26618347998E+04  0.26618347998E+04  0.25500000000E-02 0. -1.
         -2   -1    0    0    0  501 -0.00000000000E+00 -0.00000000000E+00 -0.42732808511E+03  0.42732808511E+03  0.25500000000E-02 0.  1.
    8880023    1    1    2    0    0 -0.65860191958E+02 -0.61079197402E+03  0.15308558869E+03  0.91359170538E+03  0.65864270000E+03 0.  0.
    8880022    1    1    2    0    0  0.65860191958E+02  0.61079197402E+03  0.20814211260E+04  0.21755711795E+04  0.15294330000E+03 0.  0.
<mgrwt>
<rscale>  0 0.82469116E+03</rscale>
<asrwt>0</asrwt>
<pdfrwt beam="1">  1        2 0.40951304E+00 0.90067453E+03</pdfrwt>
<pdfrwt beam="2">  1       -2 0.65742783E-01 0.90067453E+03</pdfrwt>
<totfact> 0.61325278E+00</totfact>
</mgrwt>
</event>
<event>
 4    1  0.1998832E-007  0.6718067E+03  0.7818608E-02  0.1014399E+00
          2   -1    0    0  501    0  0.00000000000E+00  0.00000000000E+00  0.10884555306E+04  0.10884555306E+04  0.25500000000E-02 0. -1.
         -2   -1    0    0    0  501 -0.00000000000E+00 -0.00000000000E+00 -0.18244239499E+03  0.18244239501E+03  0.25500000000E-02 0.  1.
    8880023    1    1    2    0    0  0.10997003755E+03 -0.73625349822E+02  0.58150754756E+03  0.88852424583E+03  0.65864270000E+03 0.  1.
    8880022    1    1    2    0    0 -0.10997003755E+03  0.73625349822E+02  0.32450558801E+03  0.38237367974E+03  0.15294330000E+03 0.  0.
<mgrwt>
<rscale>  0 0.49762973E+03</rscale>
<asrwt>0</asrwt>
<pdfrwt beam="1">  1        2 0.16745470E+00 0.67180675E+03</pdfrwt>
<pdfrwt beam="2">  1       -2 0.28068061E-01 0.67180675E+03</pdfrwt>
<totfact> 0.26047480E+02</totfact>
</mgrwt>
</event>
<event>
 4    1  0.1998832E-007  0.7164907E+03  0.7818608E-02  0.9934644E-01
          2   -1    0    0  501    0  0.00000000000E+00  0.00000000000E+00  0.72101557582E+03  0.72101557582E+03  0.25500000000E-02 0. -1.
         -2   -1    0    0    0  501 -0.00000000000E+00 -0.00000000000E+00 -0.44738722228E+03  0.44738722229E+03  0.25500000000E-02 0.  1.
    8880023    1    1    2    0    0 -0.19928320377E+03 -0.19958695087E+03 -0.42806536025E+02  0.71776831363E+03  0.65864270000E+03 0.  1.
    8880022    1    1    2    0    0  0.19928320377E+03  0.19958695087E+03  0.31643488956E+03  0.45063448448E+03  0.15294330000E+03 0.  0.
<mgrwt>
<rscale>  0 0.58611274E+03</rscale>
<asrwt>0</asrwt>
<pdfrwt beam="1">  1        2 0.11092547E+00 0.71649072E+03</pdfrwt>
<pdfrwt beam="2">  1       -2 0.68828804E-01 0.71649072E+03</pdfrwt>
<totfact> 0.77227622E+01</totfact>
</mgrwt>
</event>
<event>
 4    1  0.1998832E-007  0.9943248E+03  0.7818608E-02  0.9389021E-01
         -2   -1    0    0    0  501 -0.00000000000E+00  0.00000000000E+00  0.41469463035E+03  0.41469463036E+03  0.25500000000E-02 0.  1.
          2   -1    0    0  501    0  0.00000000000E+00 -0.00000000000E+00 -0.23438838426E+04  0.23438838426E+04  0.25500000000E-02 0. -1.
    8880023    1    1    2    0    0 -0.68612894564E+03 -0.28999759409E+03 -0.44176867975E+03  0.10880447175E+04  0.65864270000E+03 0.  0.
    8880022    1    1    2    0    0  0.68612894564E+03  0.28999759409E+03 -0.14874205325E+04  0.16705337555E+04  0.15294330000E+03 0.  0.
<mgrwt>
<rscale>  0 0.92984784E+03</rscale>
<asrwt>0</asrwt>
<pdfrwt beam="1">  1        2 0.36059750E+00 0.99432477E+03</pdfrwt>
<pdfrwt beam="2">  1       -2 0.63799176E-01 0.99432477E+03</pdfrwt>
<totfact> 0.98176224E+00</totfact>
</mgrwt>
</event>
<event>
 4    1  0.1998832E-007  0.6755854E+03  0.7818608E-02  0.1011940E+00
          2   -1    0    0  501    0  0.00000000000E+00  0.00000000000E+00  0.15913659138E+04  0.15913659138E+04  0.25500000000E-02 0. -1.
         -2   -1    0    0    0  501 -0.00000000000E+00 -0.00000000000E+00 -0.37449189436E+03  0.37449189437E+03  0.25500000000E-02 0.  1.
    8880023    1    1    2    0    0  0.24048184548E+02 -0.14841531896E+03 -0.53318558658E+02  0.67768613461E+03  0.65864270000E+03 0.  0.
    8880022    1    1    2    0    0 -0.24048184548E+02  0.14841531896E+03  0.12701925781E+04  0.12881716736E+04  0.15294330000E+03 0. -1.
<mgrwt>
<rscale>  0 0.50710917E+03</rscale>
<asrwt>0</asrwt>
<pdfrwt beam="1">  1        2 0.24482552E+00 0.67558540E+03</pdfrwt>
<pdfrwt beam="2">  1       -2 0.57614138E-01 0.67558540E+03</pdfrwt>
<totfact> 0.32895914E+01</totfact>
</mgrwt>
</event>
<event>
 4    1  0.1998832E-007  0.6720542E+03  0.7818608E-02  0.1014231E+00
         -2   -1    0    0    0  501 -0.00000000000E+00  0.00000000000E+00  0.17338334018E+03  0.17338334020E+03  0.25500000000E-02 0.  1.
          2   -1    0    0  501    0  0.00000000000E+00 -0.00000000000E+00 -0.15174236430E+04  0.15174236430E+04  0.25500000000E-02 0. -1.
    8880023    1    1    2    0    0 -0.71477182415E+02  0.11286097875E+03 -0.54176555337E+03  0.86323039173E+03  0.65864270000E+03 0.  1.
    8880022    1    1    2    0    0  0.71477182415E+02 -0.11286097875E+03 -0.80227474941E+03  0.82757659143E+03  0.15294330000E+03 0.  0.
<mgrwt>
<rscale>  0 0.49827113E+03</rscale>
<asrwt>0</asrwt>
<pdfrwt beam="1">  1        2 0.23344978E+00 0.67205416E+03</pdfrwt>
<pdfrwt beam="2">  1       -2 0.26674361E-01 0.67205416E+03</pdfrwt>
<totfact> 0.16166309E+02</totfact>
</mgrwt>
</event>
<event>
 4    1  0.1998832E-007  0.6617113E+03  0.7818608E-02  0.1022468E+00
          2   -1    0    0  501    0  0.00000000000E+00  0.00000000000E+00  0.72540685111E+03  0.72540685112E+03  0.25500000000E-02 0. -1.
         -2   -1    0    0    0  501 -0.00000000000E+00 -0.00000000000E+00 -0.55905771539E+03  0.55905771539E+03  0.25500000000E-02 0.  1.
    8880023    1    1    2    0    0 -0.58628591706E+02 -0.24784472863E+02 -0.34549663209E+03  0.74647820525E+03  0.65864270000E+03 0.  1.
    8880022    1    1    2    0    0  0.58628591706E+02  0.24784472863E+02  0.51184576781E+03  0.53798636126E+03  0.15294330000E+03 0.  0.
<mgrwt>
<rscale>  0 0.46806461E+03</rscale>
<asrwt>0</asrwt>
<pdfrwt beam="1">  1        2 0.11160105E+00 0.66171126E+03</pdfrwt>
<pdfrwt beam="2">  1       -2 0.86008879E-01 0.66171126E+03</pdfrwt>
<totfact> 0.46863666E+01</totfact>
</mgrwt>
</event>
<event>
 4    1  0.1998832E-007  0.1058417E+04  0.7818608E-02  0.9308831E-01
         -2   -1    0    0    0  501 -0.00000000000E+00  0.00000000000E+00  0.66235553139E+03  0.66235553140E+03  0.25500000000E-02 0.  1.
          2   -1    0    0  501    0  0.00000000000E+00 -0.00000000000E+00 -0.33689729593E+04  0.33689729593E+04  0.25500000000E-02 0. -1.
    8880023    1    1    2    0    0 -0.81741514893E+03  0.13516192968E+03  0.13541563117E+03  0.10670444566E+04  0.65864270000E+03 0.  1.
    8880022    1    1    2    0    0  0.81741514893E+03 -0.13516192968E+03 -0.28420330591E+04  0.29642840341E+04  0.15294330000E+03 0.  0.
<mgrwt>
<rscale>  0 0.99973922E+03</rscale>
<asrwt>0</asrwt>
<pdfrwt beam="1">  1        2 0.51830352E+00 0.10584170E+04</pdfrwt>
<pdfrwt beam="2">  1       -2 0.10190085E+00 0.10584170E+04</pdfrwt>
<totfact> 0.80566635E-01</totfact>
</mgrwt>
</event>
<event>
 4    1  0.1998832E-007  0.1488403E+04  0.7818608E-02  0.8917869E-01
          2   -1    0    0  501    0  0.00000000000E+00  0.00000000000E+00  0.14910663104E+04  0.14910663104E+04  0.25500000000E-02 0. -1.
         -2   -1    0    0    0  501 -0.00000000000E+00 -0.00000000000E+00 -0.19260242513E+04  0.19260242513E+04  0.25500000000E-02 0.  1.
    8880023    1    1    2    0    0 -0.54111058008E+02  0.13336438003E+04 -0.11631258662E+04  0.18889695020E+04  0.65864270000E+03 0.  0.
    8880022    1    1    2    0    0  0.54111058008E+02 -0.13336438003E+04  0.72816792535E+03  0.15281210597E+04  0.15294330000E+03 0.  0.
<mgrwt>
<rscale>  0 0.14507676E+04</rscale>
<asrwt>0</asrwt>
<pdfrwt beam="1">  1        2 0.22939482E+00 0.14884032E+04</pdfrwt>
<pdfrwt beam="2">  1       -2 0.29631143E+00 0.14884032E+04</pdfrwt>
<totfact> 0.40505371E-01</totfact>
</mgrwt>
</event>
<event>
 4    1  0.1998832E-007  0.9594249E+03  0.7818608E-02  0.9436681E-01
         -2   -1    0    0    0  501 -0.00000000000E+00  0.00000000000E+00  0.13349529214E+04  0.13349529214E+04  0.25500000000E-02 0.  1.
          2   -1    0    0  501    0  0.00000000000E+00 -0.00000000000E+00 -0.65512441108E+03  0.65512441109E+03  0.25500000000E-02 0. -1.
    8880023    1    1    2    0    0  0.69622028325E+03  0.44307918757E+02  0.82018395419E+03  0.12622193943E+04  0.65864270000E+03 0.  1.
    8880022    1    1    2    0    0 -0.69622028325E+03 -0.44307918757E+02 -0.14035544387E+03  0.72785793814E+03  0.15294330000E+03 0. -1.
<mgrwt>
<rscale>  0 0.89117450E+03</rscale>
<asrwt>0</asrwt>
<pdfrwt beam="1">  1        2 0.10078837E+00 0.95942487E+03</pdfrwt>
<pdfrwt beam="2">  1       -2 0.20537737E+00 0.95942487E+03</pdfrwt>
<totfact> 0.54513166E+00</totfact>
</mgrwt>
</event>
<event>
 4    1  0.1998832E-007  0.8707341E+03  0.7818608E-02  0.9574747E-01
          2   -1    0    0  501    0  0.00000000000E+00  0.00000000000E+00  0.72068406331E+03  0.72068406332E+03  0.25500000000E-02 0. -1.
         -2   -1    0    0    0  501 -0.00000000000E+00 -0.00000000000E+00 -0.89410876238E+03  0.89410876238E+03  0.25500000000E-02 0.  1.
    8880023    1    1    2    0    0 -0.56563227546E+03 -0.66542243757E+02 -0.43066587452E+03  0.97141702836E+03  0.65864270000E+03 0.  0.
    8880022    1    1    2    0    0  0.56563227546E+03  0.66542243757E+02  0.25724117546E+03  0.64337579734E+03  0.15294330000E+03 0.  0.
<mgrwt>
<rscale>  0 0.78990350E+03</rscale>
<asrwt>0</asrwt>
<pdfrwt beam="1">  1        2 0.11087447E+00 0.87073414E+03</pdfrwt>
<pdfrwt beam="2">  1       -2 0.13755519E+00 0.87073414E+03</pdfrwt>
<totfact> 0.14891012E+01</totfact>
</mgrwt>
</event>
<event>
 4    1  0.1998832E-007  0.1063858E+04  0.7818608E-02  0.9302405E-01
          2   -1    0    0  501    0  0.00000000000E+00  0.00000000000E+00  0.15298874457E+04  0.15298874457E+04  0.25500000000E-02 0. -1.
         -2   -1    0    0    0  501 -0.00000000000E+00 -0.00000000000E+00 -0.85807830887E+03  0.85807830887E+03  0.25500000000E-02 0.  1.
    8880023    1    1    2    0    0 -0.51144974015E+03 -0.66060736254E+03 -0.29211978290E+03  0.11032348336E+04  0.65864270000E+03 0.  1.
    8880022    1    1    2    0    0  0.51144974015E+03  0.66060736254E+03  0.96392891976E+03  0.12847309210E+04  0.15294330000E+03 0.  1.
<mgrwt>
<rscale>  0 0.10056173E+04</rscale>
<asrwt>0</asrwt>
<pdfrwt beam="1">  1        2 0.23536730E+00 0.10638577E+04</pdfrwt>
<pdfrwt beam="2">  1       -2 0.13201205E+00 0.10638577E+04</pdfrwt>
<totfact> 0.50323528E+00</totfact>
</mgrwt>
</event>
<event>
 4    1  0.1998832E-007  0.9273237E+03  0.7818608E-02  0.9483520E-01
         -2   -1    0    0    0  501 -0.00000000000E+00  0.00000000000E+00  0.37239739456E+03  0.37239739457E+03  0.25500000000E-02 0.  1.
          2   -1    0    0  501    0  0.00000000000E+00 -0.00000000000E+00 -0.21749894977E+04  0.21749894977E+04  0.25500000000E-02 0. -1.
    8880023    1    1    2    0    0 -0.65208106648E+03 -0.30156382207E+02 -0.43498022192E+03  0.10242739499E+04  0.65864270000E+03 0.  0.
    8880022    1    1    2    0    0  0.65208106648E+03  0.30156382207E+02 -0.13676118812E+04  0.15231129424E+04  0.15294330000E+03 0.  0.
<mgrwt>
<rscale>  0 0.85509831E+03</rscale>
<asrwt>0</asrwt>
<pdfrwt beam="1">  1        2 0.33461376E+00 0.92732375E+03</pdfrwt>
<pdfrwt beam="2">  1       -2 0.57291908E-01 0.92732375E+03</pdfrwt>
<totfact> 0.15449655E+01</totfact>
</mgrwt>
</event>
<event>
 4    1  0.1998832E-007  0.9702794E+03  0.7818608E-02  0.9421518E-01
          2   -1    0    0  501    0  0.00000000000E+00  0.00000000000E+00  0.14522784897E+04  0.14522784897E+04  0.25500000000E-02 0. -1.
         -2   -1    0    0    0  501 -0.00000000000E+00 -0.00000000000E+00 -0.81834932523E+03  0.81834932523E+03  0.25500000000E-02 0.  1.
    8880023    1    1    2    0    0 -0.59320539544E+03 -0.39463808792E+03 -0.36283062310E+03  0.10358996713E+04  0.65864270000E+03 0.  1.
    8880022    1    1    2    0    0  0.59320539544E+03  0.39463808792E+03  0.99675978757E+03  0.12347281437E+04  0.15294330000E+03 0.  0.
<mgrwt>
<rscale>  0 0.90325801E+03</rscale>
<asrwt>0</asrwt>
<pdfrwt beam="1">  1        2 0.22342746E+00 0.97027938E+03</pdfrwt>
<pdfrwt beam="2">  1       -2 0.12589990E+00 0.97027938E+03</pdfrwt>
<totfact> 0.63400800E+00</totfact>
</mgrwt>
</event>
<event>
 4    1  0.1998832E-007  0.7144577E+03  0.7818608E-02  0.9941806E-01
          2   -1    0    0  501    0  0.00000000000E+00  0.00000000000E+00  0.93343057665E+03  0.93343057665E+03  0.25500000000E-02 0. -1.
         -2   -1    0    0    0  501 -0.00000000000E+00 -0.00000000000E+00 -0.73367307890E+03  0.73367307890E+03  0.25500000000E-02 0.  1.
    8880023    1    1    2    0    0 -0.20581361547E+03 -0.18514953627E+03 -0.51818018606E+03  0.88258739317E+03  0.65864270000E+03 0.  0.
    8880022    1    1    2    0    0  0.20581361547E+03  0.18514953627E+03  0.71793768381E+03  0.78451626238E+03  0.15294330000E+03 0.  0.
<mgrwt>
<rscale>  0 0.58277290E+03</rscale>
<asrwt>0</asrwt>
<pdfrwt beam="1">  1        2 0.14360470E+00 0.71445770E+03</pdfrwt>
<pdfrwt beam="2">  1       -2 0.11287278E+00 0.71445770E+03</pdfrwt>
<totfact> 0.17524548E+01</totfact>
</mgrwt>
</event>
<event>
 4    1  0.1998832E-007  0.1827143E+04  0.7818608E-02  0.8707669E-01
          2   -1    0    0  501    0  0.00000000000E+00  0.00000000000E+00  0.27823735510E+04  0.27823735510E+04  0.25500000000E-02 0. -1.
         -2   -1    0    0    0  501 -0.00000000000E+00 -0.00000000000E+00 -0.12568063551E+04  0.12568063551E+04  0.25500000000E-02 0.  1.
    8880023    1    1    2    0    0 -0.16774581796E+04 -0.30128803449E+03  0.13118955160E+03  0.18318464261E+04  0.65864270000E+03 0.  0.
    8880022    1    1    2    0    0  0.16774581796E+04  0.30128803449E+03  0.13943776443E+04  0.22073334800E+04  0.15294330000E+03 0.  0.
<mgrwt>
<rscale>  0 0.17974273E+04</rscale>
<asrwt>0</asrwt>
<pdfrwt beam="1">  1        2 0.42805747E+00 0.18271428E+04</pdfrwt>
<pdfrwt beam="2">  1       -2 0.19335482E+00 0.18271428E+04</pdfrwt>
<totfact> 0.31725936E-01</totfact>
</mgrwt>
</event>
<event>
 4    1  0.1998832E-007  0.1113705E+04  0.7818608E-02  0.9245949E-01
         -2   -1    0    0    0  501 -0.00000000000E+00  0.00000000000E+00  0.86298663732E+03  0.86298663732E+03  0.25500000000E-02 0.  1.
          2   -1    0    0  501    0  0.00000000000E+00 -0.00000000000E+00 -0.12704236839E+04  0.12704236839E+04  0.25500000000E-02 0. -1.
    8880023    1    1    2    0    0 -0.89473663891E+03  0.77297042897E+02  0.48348790167E+02  0.11147539180E+04  0.65864270000E+03 0.  0.
    8880022    1    1    2    0    0  0.89473663891E+03 -0.77297042897E+02 -0.45578583671E+03  0.10186564032E+04  0.15294330000E+03 0.  0.
<mgrwt>
<rscale>  0 0.10591492E+04</rscale>
<asrwt>0</asrwt>
<pdfrwt beam="1">  1        2 0.19544980E+00 0.11137049E+04</pdfrwt>
<pdfrwt beam="2">  1       -2 0.13276717E+00 0.11137049E+04</pdfrwt>
<totfact> 0.69516056E+00</totfact>
</mgrwt>
</event>
<event>
 4    1  0.1998832E-007  0.7045014E+03  0.7818608E-02  0.9979016E-01
         -2   -1    0    0    0  501 -0.00000000000E+00  0.00000000000E+00  0.17928091592E+03  0.17928091594E+03  0.25500000000E-02 0.  1.
          2   -1    0    0  501    0  0.00000000000E+00 -0.00000000000E+00 -0.35238009173E+04  0.35238009173E+04  0.25500000000E-02 0. -1.
    8880023    1    1    2    0    0  0.10086883240E+03 -0.22877402677E+03 -0.55141213879E+03  0.89463826754E+03  0.65864270000E+03 0.  1.
    8880022    1    1    2    0    0 -0.10086883240E+03  0.22877402677E+03 -0.27931078626E+04  0.28084435657E+04  0.15294330000E+03 0.  0.
<mgrwt>
<rscale>  0 0.56579997E+03</rscale>
<asrwt>0</asrwt>
<pdfrwt beam="1">  1        2 0.54212317E+00 0.70450144E+03</pdfrwt>
<pdfrwt beam="2">  1       -2 0.27581682E-01 0.70450144E+03</pdfrwt>
<totfact> 0.10218128E+01</totfact>
</mgrwt>
</event>
<event>
 4    1  0.1998832E-007  0.9110671E+03  0.7818608E-02  0.9508494E-01
          2   -1    0    0  501    0  0.00000000000E+00  0.00000000000E+00  0.50288305787E+04  0.50288305787E+04  0.25500000000E-02 0. -1.
         -2   -1    0    0    0  501 -0.00000000000E+00 -0.00000000000E+00 -0.25298871196E+03  0.25298871198E+03  0.25500000000E-02 0.  1.
    8880023    1    1    2    0    0  0.20164258809E+03  0.59629966898E+03  0.68460661553E+03  0.11396181171E+04  0.65864270000E+03 0.  1.
    8880022    1    1    2    0    0 -0.20164258809E+03 -0.59629966898E+03  0.40912352512E+04  0.41422011735E+04  0.15294330000E+03 0.  0.
<mgrwt>
<rscale>  0 0.83660488E+03</rscale>
<asrwt>0</asrwt>
<pdfrwt beam="1">  1        2 0.77366625E+00 0.91106709E+03</pdfrwt>
<pdfrwt beam="2">  1       -2 0.38921340E-01 0.91106709E+03</pdfrwt>
<totfact> 0.22249434E-01</totfact>
</mgrwt>
</event>
<event>
 4    1  0.1998832E-007  0.9050536E+03  0.7818608E-02  0.9517967E-01
         -2   -1    0    0    0  501 -0.00000000000E+00  0.00000000000E+00  0.59532619666E+03  0.59532619666E+03  0.25500000000E-02 0.  1.
          2   -1    0    0  501    0  0.00000000000E+00 -0.00000000000E+00 -0.15081370683E+04  0.15081370683E+04  0.25500000000E-02 0. -1.
    8880023    1    1    2    0    0 -0.61700682095E+03 -0.67929693602E+02  0.94958746046E+02  0.91002155473E+03  0.65864270000E+03 0.  1.
    8880022    1    1    2    0    0  0.61700682095E+03  0.67929693602E+02 -0.10077696177E+04  0.11934417102E+04  0.15294330000E+03 0.  0.
<mgrwt>
<rscale>  0 0.82972042E+03</rscale>
<asrwt>0</asrwt>
<pdfrwt beam="1">  1        2 0.23202109E+00 0.90505363E+03</pdfrwt>
<pdfrwt beam="2">  1       -2 0.91588646E-01 0.90505363E+03</pdfrwt>
<totfact> 0.12822421E+01</totfact>
</mgrwt>
</event>
<event>
 4    1  0.1998832E-007  0.8221929E+03  0.7818608E-02  0.9664718E-01
         -2   -1    0    0    0  501 -0.00000000000E+00  0.00000000000E+00  0.75591031098E+03  0.75591031098E+03  0.25500000000E-02 0.  1.
          2   -1    0    0  501    0  0.00000000000E+00 -0.00000000000E+00 -0.24510428325E+04  0.24510428325E+04  0.25500000000E-02 0. -1.
    8880023    1    1    2    0    0  0.35473939906E+03  0.34110246025E+03  0.49318925789E+03  0.95876836618E+03  0.65864270000E+03 0.  0.
    8880022    1    1    2    0    0 -0.35473939906E+03 -0.34110246025E+03 -0.21883217794E+04  0.22481847773E+04  0.15294330000E+03 0.  0.
<mgrwt>
<rscale>  0 0.73156890E+03</rscale>
<asrwt>0</asrwt>
<pdfrwt beam="1">  1        2 0.37708351E+00 0.82219288E+03</pdfrwt>
<pdfrwt beam="2">  1       -2 0.11629389E+00 0.82219288E+03</pdfrwt>
<totfact> 0.22069812E+00</totfact>
</mgrwt>
</event>
<event>
 4    1  0.1998832E-007  0.7725264E+03  0.7818608E-02  0.9773695E-01
         -2   -1    0    0    0  501 -0.00000000000E+00  0.00000000000E+00  0.10205918752E+04  0.10205918752E+04  0.25500000000E-02 0.  1.
          2   -1    0    0  501    0  0.00000000000E+00 -0.00000000000E+00 -0.42976445061E+03  0.42976445062E+03  0.25500000000E-02 0. -1.
    8880023    1    1    2    0    0  0.32940161462E+03 -0.23341266194E+03  0.65634275314E+03  0.10136976425E+04  0.65864270000E+03 0.  0.
    8880022    1    1    2    0    0 -0.32940161462E+03  0.23341266194E+03 -0.65515328554E+02  0.43665868336E+03  0.15294330000E+03 0.  0.
<mgrwt>
<rscale>  0 0.66793547E+03</rscale>
<asrwt>0</asrwt>
<pdfrwt beam="1">  1        2 0.66117608E-01 0.77252644E+03</pdfrwt>
<pdfrwt beam="2">  1       -2 0.15701413E+00 0.77252644E+03</pdfrwt>
<totfact> 0.19661800E+01</totfact>
</mgrwt>
</event>
<event>
 4    1  0.1998832E-007  0.9457349E+03  0.7818608E-02  0.9456277E-01
          2   -1    0    0  501    0  0.00000000000E+00  0.00000000000E+00  0.23800880672E+04  0.23800880672E+04  0.25500000000E-02 0. -1.
         -2   -1    0    0    0  501 -0.00000000000E+00 -0.00000000000E+00 -0.52199785482E+03  0.52199785483E+03  0.25500000000E-02 0.  1.
    8880023    1    1    2    0    0  0.41052766650E+03 -0.54043624969E+03  0.30130680392E+02  0.94621475845E+03  0.65864270000E+03 0.  1.
    8880022    1    1    2    0    0 -0.41052766650E+03  0.54043624969E+03  0.18279595319E+04  0.19558711635E+04  0.15294330000E+03 0.  0.
<mgrwt>
<rscale>  0 0.87585514E+03</rscale>
<asrwt>0</asrwt>
<pdfrwt beam="1">  1        2 0.36616739E+00 0.94573491E+03</pdfrwt>
<pdfrwt beam="2">  1       -2 0.80307363E-01 0.94573491E+03</pdfrwt>
<totfact> 0.56785212E+00</totfact>
</mgrwt>
</event>
<event>
 4    1  0.1998832E-007  0.7402225E+03  0.7818608E-02  0.9859299E-01
          2   -1    0    0  501    0  0.00000000000E+00  0.00000000000E+00  0.29042701833E+04  0.29042701833E+04  0.25500000000E-02 0. -1.
         -2   -1    0    0    0  501 -0.00000000000E+00 -0.00000000000E+00 -0.18832591046E+03  0.18832591048E+03  0.25500000000E-02 0.  1.
    8880023    1    1    2    0    0  0.33733561906E+03 -0.17994868931E+02  0.62431181496E+03  0.96834631396E+03  0.65864270000E+03 0.  1.
    8880022    1    1    2    0    0 -0.33733561906E+03  0.17994868931E+02  0.20916324579E+04  0.21242497798E+04  0.15294330000E+03 0.  0.
<mgrwt>
<rscale>  0 0.62275010E+03</rscale>
<asrwt>0</asrwt>
<pdfrwt beam="1">  1        2 0.44681073E+00 0.74022249E+03</pdfrwt>
<pdfrwt beam="2">  1       -2 0.28973221E-01 0.74022249E+03</pdfrwt>
<totfact> 0.23093754E+01</totfact>
</mgrwt>
</event>
<event>
 4    1  0.1998832E-007  0.1205104E+04  0.7818608E-02  0.9152177E-01
          2   -1    0    0  501    0  0.00000000000E+00  0.00000000000E+00  0.35688386386E+04  0.35688386386E+04  0.25500000000E-02 0. -1.
         -2   -1    0    0    0  501 -0.00000000000E+00 -0.00000000000E+00 -0.71636264843E+03  0.71636264843E+03  0.25500000000E-02 0.  1.
    8880023    1    1    2    0    0 -0.93212779930E+03 -0.38678633406E+03 -0.52370848431E+02  0.12062416070E+04  0.65864270000E+03 0.  0.
    8880022    1    1    2    0    0  0.93212779930E+03  0.38678633406E+03  0.29048468386E+04  0.30789596800E+04  0.15294330000E+03 0.  0.
<mgrwt>
<rscale>  0 0.11560976E+04</rscale>
<asrwt>0</asrwt>
<pdfrwt beam="1">  1        2 0.54905210E+00 0.12051042E+04</pdfrwt>
<pdfrwt beam="2">  1       -2 0.11020964E+00 0.12051042E+04</pdfrwt>
<totfact> 0.47528163E-01</totfact>
</mgrwt>
</event>
<event>
 4    1  0.1998832E-007  0.7399301E+03  0.7818608E-02  0.9860151E-01
          2   -1    0    0  501    0  0.00000000000E+00  0.00000000000E+00  0.35951306442E+03  0.35951306443E+03  0.25500000000E-02 0. -1.
         -2   -1    0    0    0  501 -0.00000000000E+00 -0.00000000000E+00 -0.99639541755E+03  0.99639541755E+03  0.25500000000E-02 0.  1.
    8880023    1    1    2    0    0  0.17344480304E+03  0.28914238710E+03 -0.65079168221E+03  0.98540673817E+03  0.65864270000E+03 0.  1.
    8880022    1    1    2    0    0 -0.17344480304E+03 -0.28914238710E+03  0.13909329092E+02  0.37050174382E+03  0.15294330000E+03 0.  0.
<mgrwt>
<rscale>  0 0.62232041E+03</rscale>
<asrwt>0</asrwt>
<pdfrwt beam="1">  1        2 0.55309703E-01 0.73993015E+03</pdfrwt>
<pdfrwt beam="2">  1       -2 0.15329160E+00 0.73993015E+03</pdfrwt>
<totfact> 0.25700315E+01</totfact>
</mgrwt>
</event>
<event>
 4    1  0.1998832E-007  0.7967570E+03  0.7818608E-02  0.9717852E-01
         -2   -1    0    0    0  501 -0.00000000000E+00  0.00000000000E+00  0.74506833977E+03  0.74506833977E+03  0.25500000000E-02 0.  1.
          2   -1    0    0  501    0  0.00000000000E+00 -0.00000000000E+00 -0.12759397865E+04  0.12759397865E+04  0.25500000000E-02 0. -1.
    8880023    1    1    2    0    0  0.42290915824E+03  0.14886044472E+03  0.46193244641E+03  0.92097957601E+03  0.65864270000E+03 0.  1.
    8880022    1    1    2    0    0 -0.42290915824E+03 -0.14886044472E+03 -0.99280389316E+03  0.11000285503E+04  0.15294330000E+03 0.  0.
<mgrwt>
<rscale>  0 0.69963750E+03</rscale>
<asrwt>0</asrwt>
<pdfrwt beam="1">  1        2 0.19629843E+00 0.79675705E+03</pdfrwt>
<pdfrwt beam="2">  1       -2 0.11462590E+00 0.79675705E+03</pdfrwt>
<totfact> 0.10301825E+01</totfact>
</mgrwt>
</event>
<event>
 4    1  0.4196315E-007  0.1470693E+04  0.7818608E-02  0.8930613E-01
         -2   -1    0    0    0  501 -0.00000000000E+00  0.00000000000E+00  0.21599348786E+04  0.21599348786E+04  0.25500000000E-02 0.  1.
          2   -1    0    0  501    0  0.00000000000E+00 -0.00000000000E+00 -0.37554465325E+04  0.37554465325E+04  0.25500000000E-02 0. -1.
    8880023    1    1    2    0    0  0.68319354432E+03 -0.11235537134E+04  0.17685861932E+04  0.23001812309E+04  0.65864270000E+03 0.  1.
    8880022    1    1    2    0    0 -0.68319354432E+03  0.11235537134E+04 -0.33640978470E+04  0.36152001802E+04  0.15294330000E+03 0.  0.
<mgrwt>
<rscale>  0 0.14325152E+04</rscale>
<asrwt>0</asrwt>
<pdfrwt beam="1">  1        2 0.57776100E+00 0.14706925E+04</pdfrwt>
<pdfrwt beam="2">  1       -2 0.33229767E+00 0.14706925E+04</pdfrwt>
<totfact> 0.10190326E-02</totfact>
</mgrwt>
</event>
<event>
 4    1  0.1998832E-007  0.1366633E+04  0.7818608E-02  0.9010053E-01
         -2   -1    0    0    0  501 -0.00000000000E+00  0.00000000000E+00  0.27423402869E+04  0.27423402869E+04  0.25500000000E-02 0.  1.
          2   -1    0    0  501    0  0.00000000000E+00 -0.00000000000E+00 -0.88077781492E+03  0.88077781492E+03  0.25500000000E-02 0. -1.
    8880023    1    1    2    0    0 -0.10086985296E+04 -0.64529370225E+03  0.19846637496E+04  0.24096840230E+04  0.65864270000E+03 0.  0.
    8880022    1    1    2    0    0  0.10086985296E+04  0.64529370225E+03 -0.12310127763E+03  0.12134340787E+04  0.15294330000E+03 0.  0.
<mgrwt>
<rscale>  0 0.13248950E+04</rscale>
<asrwt>0</asrwt>
<pdfrwt beam="1">  1        2 0.13550428E+00 0.13666334E+04</pdfrwt>
<pdfrwt beam="2">  1       -2 0.42189850E+00 0.13666334E+04</pdfrwt>
<totfact> 0.15559586E-01</totfact>
</mgrwt>
</event>
<event>
 4    1  0.1998832E-007  0.7664586E+03  0.7818608E-02  0.9788665E-01
         -2   -1    0    0    0  501 -0.00000000000E+00  0.00000000000E+00  0.32075539762E+03  0.32075539763E+03  0.25500000000E-02 0.  1.
          2   -1    0    0  501    0  0.00000000000E+00 -0.00000000000E+00 -0.15804495651E+04  0.15804495651E+04  0.25500000000E-02 0. -1.
    8880023    1    1    2    0    0  0.32925880019E+03  0.21269042475E+03 -0.24813067043E+03  0.80562249854E+03  0.65864270000E+03 0.  0.
    8880022    1    1    2    0    0 -0.32925880019E+03 -0.21269042475E+03 -0.10115634971E+04  0.10955824642E+04  0.15294330000E+03 0. -1.
<mgrwt>
<rscale>  0 0.65974411E+03</rscale>
<asrwt>0</asrwt>
<pdfrwt beam="1">  1        2 0.24314608E+00 0.76645860E+03</pdfrwt>
<pdfrwt beam="2">  1       -2 0.49346985E-01 0.76645860E+03</pdfrwt>
<totfact> 0.45411695E+01</totfact>
</mgrwt>
</event>
<event>
 4    1  0.1998832E-007  0.1344172E+04  0.7818608E-02  0.9028323E-01
         -2   -1    0    0    0  501 -0.00000000000E+00  0.00000000000E+00  0.89381024609E+03  0.89381024609E+03  0.25500000000E-02 0.  1.
          2   -1    0    0  501    0  0.00000000000E+00 -0.00000000000E+00 -0.34379324505E+04  0.34379324505E+04  0.25500000000E-02 0. -1.
    8880023    1    1    2    0    0  0.10721808150E+03  0.11668305683E+04  0.18588258854E+03  0.13569641982E+04  0.65864270000E+03 0.  0.
    8880022    1    1    2    0    0 -0.10721808150E+03 -0.11668305683E+04 -0.27300047930E+04  0.29747784984E+04  0.15294330000E+03 0.  0.
<mgrwt>
<rscale>  0 0.13015676E+04</rscale>
<asrwt>0</asrwt>
<pdfrwt beam="1">  1        2 0.52891268E+00 0.13441724E+04</pdfrwt>
<pdfrwt beam="2">  1       -2 0.13750927E+00 0.13441724E+04</pdfrwt>
<totfact> 0.32899981E-01</totfact>
</mgrwt>
</event>
<event>
 4    1  0.1998832E-007  0.1013828E+04  0.7818608E-02  0.9363686E-01
          2   -1    0    0  501    0  0.00000000000E+00  0.00000000000E+00  0.16763122912E+04  0.16763122912E+04  0.25500000000E-02 0. -1.
         -2   -1    0    0    0  501 -0.00000000000E+00 -0.00000000000E+00 -0.10504809855E+04  0.10504809855E+04  0.25500000000E-02 0.  1.
    8880023    1    1    2    0    0 -0.34781308198E+03  0.68779560033E+03 -0.66724090976E+03  0.12136957468E+04  0.65864270000E+03 0.  0.
    8880022    1    1    2    0    0  0.34781308198E+03 -0.68779560033E+03  0.12930722154E+04  0.15130975300E+04  0.15294330000E+03 0.  0.
<mgrwt>
<rscale>  0 0.95125399E+03</rscale>
<asrwt>0</asrwt>
<pdfrwt beam="1">  1        2 0.25789420E+00 0.10138279E+04</pdfrwt>
<pdfrwt beam="2">  1       -2 0.16161246E+00 0.10138279E+04</pdfrwt>
<totfact> 0.24584193E+00</totfact>
</mgrwt>
</event>
<event>
 4    1  0.1998832E-007  0.1105796E+04  0.7818608E-02  0.9254630E-01
         -2   -1    0    0    0  501 -0.00000000000E+00  0.00000000000E+00  0.80825467274E+03  0.80825467275E+03  0.25500000000E-02 0.  1.
          2   -1    0    0  501    0  0.00000000000E+00 -0.00000000000E+00 -0.31035094687E+04  0.31035094687E+04  0.25500000000E-02 0. -1.
    8880023    1    1    2    0    0 -0.78194524917E+03 -0.42135053893E+03  0.31540415221E+03  0.11498976628E+04  0.65864270000E+03 0.  1.
    8880022    1    1    2    0    0  0.78194524917E+03  0.42135053893E+03 -0.26106589482E+04  0.27618664787E+04  0.15294330000E+03 0.  0.
<mgrwt>
<rscale>  0 0.10506916E+04</rscale>
<asrwt>0</asrwt>
<pdfrwt beam="1">  1        2 0.47746299E+00 0.11057960E+04</pdfrwt>
<pdfrwt beam="2">  1       -2 0.12434687E+00 0.11057960E+04</pdfrwt>
<totfact> 0.72954740E-01</totfact>
</mgrwt>
</event>
<event>
 4    1  0.1998832E-007  0.1164149E+04  0.7818608E-02  0.9192785E-01
          2   -1    0    0  501    0  0.00000000000E+00  0.00000000000E+00  0.11714517439E+04  0.11714517439E+04  0.25500000000E-02 0. -1.
         -2   -1    0    0    0  501 -0.00000000000E+00 -0.00000000000E+00 -0.21857371641E+04  0.21857371641E+04  0.25500000000E-02 0.  1.
    8880023    1    1    2    0    0 -0.92999447528E+03  0.23778977703E+03 -0.17751235115E+04  0.21228064889E+04  0.65864270000E+03 0.  0.
    8880022    1    1    2    0    0  0.92999447528E+03 -0.23778977703E+03  0.76083809129E+03  0.12343824190E+04  0.15294330000E+03 0.  0.
<mgrwt>
<rscale>  0 0.11128215E+04</rscale>
<asrwt>0</asrwt>
<pdfrwt beam="1">  1        2 0.18022335E+00 0.11641494E+04</pdfrwt>
<pdfrwt beam="2">  1       -2 0.33626726E+00 0.11641494E+04</pdfrwt>
<totfact> 0.36824121E-01</totfact>
</mgrwt>
</event>
<event>
 4    1  0.1998832E-007  0.2375740E+04  0.7818608E-02  0.8457149E-01
         -2   -1    0    0    0  501 -0.00000000000E+00  0.00000000000E+00  0.22471598202E+04  0.22471598202E+04  0.25500000000E-02 0.  1.
          2   -1    0    0  501    0  0.00000000000E+00 -0.00000000000E+00 -0.29700903260E+04  0.29700903260E+04  0.25500000000E-02 0. -1.
    8880023    1    1    2    0    0  0.15202928255E+04  0.17026565608E+04 -0.14900219310E+04  0.28043368558E+04  0.65864270000E+03 0.  0.
    8880022    1    1    2    0    0 -0.15202928255E+04 -0.17026565608E+04  0.76709142521E+03  0.24129132904E+04  0.15294330000E+03 0.  0.
<mgrwt>
<rscale>  0 0.23534257E+04</rscale>
<asrwt>0</asrwt>
<pdfrwt beam="1">  1        2 0.45693698E+00 0.23757399E+04</pdfrwt>
<pdfrwt beam="2">  1       -2 0.34571689E+00 0.23757399E+04</pdfrwt>
<totfact> 0.25554460E-02</totfact>
</mgrwt>
</event>
<event>
 4    1  0.1998832E-007  0.9669249E+03  0.7818608E-02  0.9426170E-01
         -2   -1    0    0    0  501 -0.00000000000E+00  0.00000000000E+00  0.83238549607E+03  0.83238549607E+03  0.25500000000E-02 0.  1.
          2   -1    0    0  501    0  0.00000000000E+00 -0.00000000000E+00 -0.22798070823E+04  0.22798070823E+04  0.25500000000E-02 0. -1.
    8880023    1    1    2    0    0  0.44327966572E+03  0.55193896398E+03  0.46083163484E+03  0.10711253353E+04  0.65864270000E+03 0.  1.
    8880022    1    1    2    0    0 -0.44327966572E+03 -0.55193896398E+03 -0.19082532211E+04  0.20410672431E+04  0.15294330000E+03 0.  0.
<mgrwt>
<rscale>  0 0.89952934E+03</rscale>
<asrwt>0</asrwt>
<pdfrwt beam="1">  1        2 0.35073955E+00 0.96692486E+03</pdfrwt>
<pdfrwt beam="2">  1       -2 0.12805931E+00 0.96692486E+03</pdfrwt>
<totfact> 0.21157563E+00</totfact>
</mgrwt>
</event>
<event>
 4    1  0.1998832E-007  0.7885073E+03  0.7818608E-02  0.9736220E-01
          2   -1    0    0  501    0  0.00000000000E+00  0.00000000000E+00  0.10404513558E+04  0.10404513558E+04  0.25500000000E-02 0. -1.
         -2   -1    0    0    0  501 -0.00000000000E+00 -0.00000000000E+00 -0.47942849349E+03  0.47942849349E+03  0.25500000000E-02 0.  1.
    8880023    1    1    2    0    0 -0.19713655501E+03 -0.38609686302E+03 -0.77692872962E+01  0.78854560873E+03  0.65864270000E+03 0.  1.
    8880022    1    1    2    0    0  0.19713655501E+03  0.38609686302E+03  0.56879214963E+03  0.73133424059E+03  0.15294330000E+03 0.  0.
<mgrwt>
<rscale>  0 0.68900636E+03</rscale>
<asrwt>0</asrwt>
<pdfrwt beam="1">  1        2 0.16006944E+00 0.78850733E+03</pdfrwt>
<pdfrwt beam="2">  1       -2 0.73758230E-01 0.78850733E+03</pdfrwt>
<totfact> 0.39830170E+01</totfact>
</mgrwt>
</event>
<event>
 4    1  0.1998832E-007  0.1235531E+04  0.7818608E-02  0.9123335E-01
          2   -1    0    0  501    0  0.00000000000E+00  0.00000000000E+00  0.31157573233E+04  0.31157573233E+04  0.25500000000E-02 0. -1.
         -2   -1    0    0    0  501 -0.00000000000E+00 -0.00000000000E+00 -0.12889940380E+04  0.12889940380E+04  0.25500000000E-02 0.  1.
    8880023    1    1    2    0    0 -0.10373361781E+04  0.12907281754E+03 -0.86822782651E+03  0.15100847339E+04  0.65864270000E+03 0.  1.
    8880022    1    1    2    0    0  0.10373361781E+04 -0.12907281754E+03  0.26949911118E+04  0.28946666274E+04  0.15294330000E+03 0.  0.
<mgrwt>
<rscale>  0 0.11881026E+04</rscale>
<asrwt>0</asrwt>
<pdfrwt beam="1">  1        2 0.47934728E+00 0.12355308E+04</pdfrwt>
<pdfrwt beam="2">  1       -2 0.19830678E+00 0.12355308E+04</pdfrwt>
<totfact> 0.19649427E-01</totfact>
</mgrwt>
</event>
<event>
 4    1  0.1998832E-007  0.1042413E+04  0.7818608E-02  0.9328058E-01
         -2   -1    0    0    0  501 -0.00000000000E+00  0.00000000000E+00  0.18940221514E+04  0.18940221514E+04  0.25500000000E-02 0.  1.
          2   -1    0    0  501    0  0.00000000000E+00 -0.00000000000E+00 -0.63050615717E+03  0.63050615717E+03  0.25500000000E-02 0. -1.
    8880023    1    1    2    0    0  0.66038454027E+03  0.46551777354E+03  0.13410761333E+04  0.16985611381E+04  0.65864270000E+03 0.  0.
    8880022    1    1    2    0    0 -0.66038454027E+03 -0.46551777354E+03 -0.77560139009E+02  0.82596717046E+03  0.15294330000E+03 0.  0.
<mgrwt>
<rscale>  0 0.98240313E+03</rscale>
<asrwt>0</asrwt>
<pdfrwt beam="1">  1        2 0.97000948E-01 0.10424129E+04</pdfrwt>
<pdfrwt beam="2">  1       -2 0.29138802E+00 0.10424129E+04</pdfrwt>
<totfact> 0.16741091E+00</totfact>
</mgrwt>
</event>
<event>
 4    1  0.1998832E-007  0.8094049E+03  0.7818608E-02  0.9690818E-01
         -2   -1    0    0    0  501 -0.00000000000E+00  0.00000000000E+00  0.13245575305E+03  0.13245575308E+03  0.25500000000E-02 0.  1.
          2   -1    0    0  501    0  0.00000000000E+00 -0.00000000000E+00 -0.40050402753E+04  0.40050402753E+04  0.25500000000E-02 0. -1.
    8880023    1    1    2    0    0 -0.33997405774E+03 -0.32518271947E+03 -0.14107744958E+04  0.16264750368E+04  0.65864270000E+03 0.  0.
    8880022    1    1    2    0    0  0.33997405774E+03  0.32518271947E+03 -0.24618100264E+04  0.25110209916E+04  0.15294330000E+03 0. -1.
<mgrwt>
<rscale>  0 0.71566139E+03</rscale>
<asrwt>0</asrwt>
<pdfrwt beam="1">  1        2 0.61615995E+00 0.80940495E+03</pdfrwt>
<pdfrwt beam="2">  1       -2 0.20377811E-01 0.80940495E+03</pdfrwt>
<totfact> 0.76262980E+00</totfact>
</mgrwt>
</event>
<event>
 4    1  0.1998832E-007  0.8872236E+03  0.7818608E-02  0.9546861E-01
         -2   -1    0    0    0  501 -0.00000000000E+00  0.00000000000E+00  0.23627341710E+03  0.23627341711E+03  0.25500000000E-02 0.  1.
          2   -1    0    0  501    0  0.00000000000E+00 -0.00000000000E+00 -0.26385553529E+04  0.26385553529E+04  0.25500000000E-02 0. -1.
    8880023    1    1    2    0    0  0.40143476239E+03  0.43841257312E+03 -0.95906844218E+03  0.13065136569E+04  0.65864270000E+03 0.  1.
    8880022    1    1    2    0    0 -0.40143476239E+03 -0.43841257312E+03 -0.14432134936E+04  0.15683151131E+04  0.15294330000E+03 0.  0.
<mgrwt>
<rscale>  0 0.80915373E+03</rscale>
<asrwt>0</asrwt>
<pdfrwt beam="1">  1        2 0.40593157E+00 0.88722357E+03</pdfrwt>
<pdfrwt beam="2">  1       -2 0.36349758E-01 0.88722357E+03</pdfrwt>
<totfact> 0.21162011E+01</totfact>
</mgrwt>
</event>
<event>
 4    1  0.1998832E-007  0.7202358E+03  0.7818608E-02  0.9921789E-01
          2   -1    0    0  501    0  0.00000000000E+00  0.00000000000E+00  0.29422640045E+04  0.29422640045E+04  0.25500000000E-02 0. -1.
         -2   -1    0    0    0  501 -0.00000000000E+00 -0.00000000000E+00 -0.26789536005E+03  0.26789536006E+03  0.25500000000E-02 0.  1.
    8880023    1    1    2    0    0  0.22948245704E+03  0.17963069693E+03  0.24825014015E+03  0.76181869478E+03  0.65864270000E+03 0.  1.
    8880022    1    1    2    0    0 -0.22948245704E+03 -0.17963069693E+03  0.24261185043E+04  0.24483406698E+04  0.15294330000E+03 0.  0.
<mgrwt>
<rscale>  0 0.59216826E+03</rscale>
<asrwt>0</asrwt>
<pdfrwt beam="1">  1        2 0.45265597E+00 0.72023579E+03</pdfrwt>
<pdfrwt beam="2">  1       -2 0.41214674E-01 0.72023579E+03</pdfrwt>
<totfact> 0.11250657E+01</totfact>
</mgrwt>
</event>
<event>
 4    1  0.3068621E-007  0.8463941E+03  0.7818608E-02  0.9618239E-01
          2   -1    0    0  501    0  0.00000000000E+00  0.00000000000E+00  0.22516501131E+04  0.22516501131E+04  0.25500000000E-02 0. -1.
         -2   -1    0    0    0  501 -0.00000000000E+00 -0.00000000000E+00 -0.11740086287E+04  0.11740086287E+04  0.25500000000E-02 0.  1.
    8880023    1    1    2    0    0  0.48191062159E+03 -0.22435461662E+03 -0.98003430404E+03  0.12949325405E+04  0.65864270000E+03 0.  1.
    8880022    1    1    2    0    0 -0.48191062159E+03  0.22435461662E+03  0.20576757885E+04  0.21307262013E+04  0.15294330000E+03 0.  0.
<mgrwt>
<rscale>  0 0.76100650E+03</rscale>
<asrwt>0</asrwt>
<pdfrwt beam="1">  1        2 0.34640771E+00 0.84639414E+03</pdfrwt>
<pdfrwt beam="2">  1       -2 0.18061671E+00 0.84639414E+03</pdfrwt>
<totfact> 0.89134284E-01</totfact>
</mgrwt>
</event>
<event>
 4    1  0.1998832E-007  0.6655482E+03  0.7818608E-02  0.1019078E+00
          2   -1    0    0  501    0  0.00000000000E+00  0.00000000000E+00  0.11666357846E+04  0.11666357846E+04  0.25500000000E-02 0. -1.
         -2   -1    0    0    0  501 -0.00000000000E+00 -0.00000000000E+00 -0.27119505468E+03  0.27119505470E+03  0.25500000000E-02 0.  1.
    8880023    1    1    2    0    0  0.78721889442E+02  0.54286929070E+02  0.16533977299E+03  0.68577813711E+03  0.65864270000E+03 0.  1.
    8880022    1    1    2    0    0 -0.78721889442E+02 -0.54286929070E+02  0.73010095691E+03  0.75205270217E+03  0.15294330000E+03 0.  0.
<mgrwt>
<rscale>  0 0.48020859E+03</rscale>
<asrwt>0</asrwt>
<pdfrwt beam="1">  1        2 0.17948243E+00 0.66554820E+03</pdfrwt>
<pdfrwt beam="2">  1       -2 0.41722316E-01 0.66554820E+03</pdfrwt>
<totfact> 0.11029404E+02</totfact>
</mgrwt>
</event>
<event>
 4    1  0.1998832E-007  0.7004130E+03  0.7818608E-02  0.9995492E-01
         -2   -1    0    0    0  501 -0.00000000000E+00  0.00000000000E+00  0.57310704415E+03  0.57310704415E+03  0.25500000000E-02 0.  1.
          2   -1    0    0  501    0  0.00000000000E+00 -0.00000000000E+00 -0.44996309132E+03  0.44996309133E+03  0.25500000000E-02 0. -1.
    8880023    1    1    2    0    0 -0.23817386379E+03 -0.64338141314E+01  0.20238223599E+03  0.72906581257E+03  0.65864270000E+03 0.  0.
    8880022    1    1    2    0    0  0.23817386379E+03  0.64338141314E+01 -0.79238283169E+02  0.29400432291E+03  0.15294330000E+03 0.  1.
<mgrwt>
<rscale>  0 0.55848339E+03</rscale>
<asrwt>0</asrwt>
<pdfrwt beam="1">  1        2 0.69225091E-01 0.70041301E+03</pdfrwt>
<pdfrwt beam="2">  1       -2 0.88170314E-01 0.70041301E+03</pdfrwt>
<totfact> 0.78142987E+01</totfact>
</mgrwt>
</event>
<event>
 4    1  0.1998832E-007  0.9457769E+03  0.7818608E-02  0.9456216E-01
         -2   -1    0    0    0  501 -0.00000000000E+00  0.00000000000E+00  0.83837389831E+03  0.83837389831E+03  0.25500000000E-02 0.  1.
          2   -1    0    0  501    0  0.00000000000E+00 -0.00000000000E+00 -0.12919674420E+04  0.12919674420E+04  0.25500000000E-02 0. -1.
    8880023    1    1    2    0    0  0.34737891718E+03  0.58310522189E+03  0.40191315057E+03  0.10276323266E+04  0.65864270000E+03 0.  1.
    8880022    1    1    2    0    0 -0.34737891718E+03 -0.58310522189E+03 -0.85550669427E+03  0.11027090137E+04  0.15294330000E+03 0.  0.
<mgrwt>
<rscale>  0 0.87590231E+03</rscale>
<asrwt>0</asrwt>
<pdfrwt beam="1">  1        2 0.19876422E+00 0.94577694E+03</pdfrwt>
<pdfrwt beam="2">  1       -2 0.12898060E+00 0.94577694E+03</pdfrwt>
<totfact> 0.73890786E+00</totfact>
</mgrwt>
</event>
<event>
 4    1  0.1998832E-007  0.1070139E+04  0.7818608E-02  0.9295054E-01
         -2   -1    0    0    0  501 -0.00000000000E+00  0.00000000000E+00  0.32261775680E+03  0.32261775681E+03  0.25500000000E-02 0.  1.
          2   -1    0    0  501    0  0.00000000000E+00 -0.00000000000E+00 -0.35866977636E+04  0.35866977636E+04  0.25500000000E-02 0. -1.
    8880023    1    1    2    0    0 -0.51476876891E+03 -0.66813192554E+03 -0.91245202555E+03  0.14063307081E+04  0.65864270000E+03 0.  1.
    8880022    1    1    2    0    0  0.51476876891E+03  0.66813192554E+03 -0.23516279813E+04  0.25029848123E+04  0.15294330000E+03 0.  0.
<mgrwt>
<rscale>  0 0.10123943E+04</rscale>
<asrwt>0</asrwt>
<pdfrwt beam="1">  1        2 0.55179963E+00 0.10701389E+04</pdfrwt>
<pdfrwt beam="2">  1       -2 0.49633503E-01 0.10701389E+04</pdfrwt>
<totfact> 0.27886939E+00</totfact>
</mgrwt>
</event>
<event>
 4    1  0.1998832E-007  0.1298045E+04  0.7818608E-02  0.9067250E-01
         -2   -1    0    0    0  501 -0.00000000000E+00  0.00000000000E+00  0.19800475433E+04  0.19800475433E+04  0.25500000000E-02 0.  1.
          2   -1    0    0  501    0  0.00000000000E+00 -0.00000000000E+00 -0.21224472783E+04  0.21224472783E+04  0.25500000000E-02 0. -1.
    8880023    1    1    2    0    0 -0.92869435431E+03  0.62340826624E+03  0.15789174515E+04  0.20439915839E+04  0.65864270000E+03 0.  0.
    8880022    1    1    2    0    0  0.92869435431E+03 -0.62340826624E+03 -0.17213171865E+04  0.20585032377E+04  0.15294330000E+03 0.  0.
<mgrwt>
<rscale>  0 0.12535306E+04</rscale>
<asrwt>0</asrwt>
<pdfrwt beam="1">  1        2 0.32653035E+00 0.12980452E+04</pdfrwt>
<pdfrwt beam="2">  1       -2 0.30462270E+00 0.12980452E+04</pdfrwt>
<totfact> 0.16380304E-01</totfact>
</mgrwt>
</event>
<event>
 4    1  0.1998832E-007  0.7152171E+03  0.7818608E-02  0.9939115E-01
          2   -1    0    0  501    0  0.00000000000E+00  0.00000000000E+00  0.51826488985E+03  0.51826488986E+03  0.25500000000E-02 0. -1.
         -2   -1    0    0    0  501 -0.00000000000E+00 -0.00000000000E+00 -0.57224982650E+03  0.57224982650E+03  0.25500000000E-02 0.  1.
    8880023    1    1    2    0    0  0.22937239833E+03 -0.15847278042E+03  0.12432839956E+03  0.72594288787E+03  0.65864270000E+03 0. -1.
    8880022    1    1    2    0    0 -0.22937239833E+03  0.15847278042E+03 -0.17831333620E+03  0.36457182849E+03  0.15294330000E+03 0.  1.
<mgrwt>
<rscale>  0 0.58402499E+03</rscale>
<asrwt>0</asrwt>
<pdfrwt beam="1">  1        2 0.79733060E-01 0.71521712E+03</pdfrwt>
<pdfrwt beam="2">  1       -2 0.88038435E-01 0.71521712E+03</pdfrwt>
<totfact> 0.66560654E+01</totfact>
</mgrwt>
</event>
<event>
 4    1  0.1998832E-007  0.9905543E+03  0.7818608E-02  0.9394021E-01
         -2   -1    0    0    0  501 -0.00000000000E+00  0.00000000000E+00  0.13474562234E+04  0.13474562234E+04  0.25500000000E-02 0.  1.
          2   -1    0    0  501    0  0.00000000000E+00 -0.00000000000E+00 -0.13266816176E+04  0.13266816176E+04  0.25500000000E-02 0. -1.
    8880023    1    1    2    0    0 -0.55840398097E+03  0.48535820052E+03  0.10197488073E+04  0.14216488403E+04  0.65864270000E+03 0.  0.
    8880022    1    1    2    0    0  0.55840398097E+03 -0.48535820052E+03 -0.99897420144E+03  0.12524890007E+04  0.15294330000E+03 0.  0.
<mgrwt>
<rscale>  0 0.92569354E+03</rscale>
<asrwt>0</asrwt>
<pdfrwt beam="1">  1        2 0.20410486E+00 0.99055429E+03</pdfrwt>
<pdfrwt beam="2">  1       -2 0.20730096E+00 0.99055429E+03</pdfrwt>
<totfact> 0.18904366E+00</totfact>
</mgrwt>
</event>
<event>
 4    1  0.1998832E-007  0.9444530E+03  0.7818608E-02  0.9458140E-01
          2   -1    0    0  501    0  0.00000000000E+00  0.00000000000E+00  0.26809621005E+04  0.26809621005E+04  0.25500000000E-02 0. -1.
         -2   -1    0    0    0  501 -0.00000000000E+00 -0.00000000000E+00 -0.75761534694E+03  0.75761534694E+03  0.25500000000E-02 0.  1.
    8880023    1    1    2    0    0  0.65049411338E+03 -0.18718632929E+03  0.24116843940E+04  0.25900218408E+04  0.65864270000E+03 0.  0.
    8880022    1    1    2    0    0 -0.65049411338E+03  0.18718632929E+03 -0.48833764045E+03  0.84855560661E+03  0.15294330000E+03 0.  0.
<mgrwt>
<rscale>  0 0.87441588E+03</rscale>
<asrwt>0</asrwt>
<pdfrwt beam="1">  1        2 0.41245571E+00 0.94445303E+03</pdfrwt>
<pdfrwt beam="2">  1       -2 0.11655621E+00 0.94445303E+03</pdfrwt>
<totfact> 0.15861205E+00</totfact>
</mgrwt>
</event>
<event>
 4    1  0.1998832E-007  0.1568610E+04  0.7818608E-02  0.8862648E-01
          2   -1    0    0  501    0  0.00000000000E+00  0.00000000000E+00  0.25843254146E+04  0.25843254146E+04  0.25500000000E-02 0. -1.
         -2   -1    0    0    0  501 -0.00000000000E+00 -0.00000000000E+00 -0.11503372822E+04  0.11503372822E+04  0.25500000000E-02 0.  1.
    8880023    1    1    2    0    0 -0.77951222317E+03 -0.11912541600E+04 -0.17790636900E+03  0.15786661022E+04  0.65864270000E+03 0.  0.
    8880022    1    1    2    0    0  0.77951222317E+03  0.11912541600E+04  0.16118945014E+04  0.21559965947E+04  0.15294330000E+03 0.  0.
<mgrwt>
<rscale>  0 0.15332342E+04</rscale>
<asrwt>0</asrwt>
<pdfrwt beam="1">  1        2 0.39758852E+00 0.15686096E+04</pdfrwt>
<pdfrwt beam="2">  1       -2 0.17697497E+00 0.15686096E+04</pdfrwt>
<totfact> 0.55318785E-01</totfact>
</mgrwt>
</event>
<event>
 4    1  0.1998832E-007  0.8931970E+03  0.7818608E-02  0.9537042E-01
         -2   -1    0    0    0  501 -0.00000000000E+00  0.00000000000E+00  0.79530762926E+03  0.79530762927E+03  0.25500000000E-02 0.  1.
          2   -1    0    0  501    0  0.00000000000E+00 -0.00000000000E+00 -0.12200530314E+04  0.12200530314E+04  0.25500000000E-02 0. -1.
    8880023    1    1    2    0    0 -0.34533062162E+03 -0.49470952351E+03  0.40285146819E+03  0.97984195796E+03  0.65864270000E+03 0.  0.
    8880022    1    1    2    0    0  0.34533062162E+03  0.49470952351E+03 -0.82759687033E+03  0.10355187027E+04  0.15294330000E+03 0.  0.
<mgrwt>
<rscale>  0 0.81607100E+03</rscale>
<asrwt>0</asrwt>
<pdfrwt beam="1">  1        2 0.18770047E+00 0.89319704E+03</pdfrwt>
<pdfrwt beam="2">  1       -2 0.12235502E+00 0.89319704E+03</pdfrwt>
<totfact> 0.93520204E+00</totfact>
</mgrwt>
</event>
<event>
 4    1  0.1998832E-007  0.1077089E+04  0.7818608E-02  0.9287004E-01
          2   -1    0    0  501    0  0.00000000000E+00  0.00000000000E+00  0.33857761424E+04  0.33857761424E+04  0.25500000000E-02 0. -1.
         -2   -1    0    0    0  501 -0.00000000000E+00 -0.00000000000E+00 -0.61765015807E+03  0.61765015807E+03  0.25500000000E-02 0.  1.
    8880023    1    1    2    0    0  0.85094861320E+03 -0.46871594196E+02 -0.26832373415E+02  0.10774231625E+04  0.65864270000E+03 0.  1.
    8880022    1    1    2    0    0 -0.85094861320E+03  0.46871594196E+02  0.27949583578E+04  0.29260031380E+04  0.15294330000E+03 0.  0.
<mgrwt>
<rscale>  0 0.10198817E+04</rscale>
<asrwt>0</asrwt>
<pdfrwt beam="1">  1        2 0.52088863E+00 0.10770890E+04</pdfrwt>
<pdfrwt beam="2">  1       -2 0.95023102E-01 0.10770890E+04</pdfrwt>
<totfact> 0.92385207E-01</totfact>
</mgrwt>
</event>
<event>
 4    1  0.1998832E-007  0.1938547E+04  0.7818608E-02  0.8649536E-01
          2   -1    0    0  501    0  0.00000000000E+00  0.00000000000E+00  0.22968887265E+04  0.22968887265E+04  0.25500000000E-02 0. -1.
         -2   -1    0    0    0  501 -0.00000000000E+00 -0.00000000000E+00 -0.21352881196E+04  0.21352881196E+04  0.25500000000E-02 0.  1.
    8880023    1    1    2    0    0  0.18357958160E+02 -0.18231339738E+04 -0.10818600315E+04  0.22199968097E+04  0.65864270000E+03 0.  0.
    8880022    1    1    2    0    0 -0.18357958160E+02  0.18231339738E+04  0.12434606384E+04  0.22121800364E+04  0.15294330000E+03 0.  0.
<mgrwt>
<rscale>  0 0.19107245E+04</rscale>
<asrwt>0</asrwt>
<pdfrwt beam="1">  1        2 0.35336750E+00 0.19385471E+04</pdfrwt>
<pdfrwt beam="2">  1       -2 0.32850587E+00 0.19385471E+04</pdfrwt>
<totfact> 0.86115076E-02</totfact>
</mgrwt>
</event>
<event>
 4    1  0.1998832E-007  0.1108963E+04  0.7818608E-02  0.9251142E-01
          2   -1    0    0  501    0  0.00000000000E+00  0.00000000000E+00  0.21752666760E+04  0.21752666760E+04  0.25500000000E-02 0. -1.
         -2   -1    0    0    0  501 -0.00000000000E+00 -0.00000000000E+00 -0.10901783201E+04  0.10901783201E+04  0.25500000000E-02 0.  1.
    8880023    1    1    2    0    0 -0.82953432162E+03  0.32842412648E+03 -0.66646080435E+03  0.12938198513E+04  0.65864270000E+03 0.  1.
    8880022    1    1    2    0    0  0.82953432162E+03 -0.32842412648E+03  0.17515491603E+04  0.19716251448E+04  0.15294330000E+03 0.  0.
<mgrwt>
<rscale>  0 0.10540802E+04</rscale>
<asrwt>0</asrwt>
<pdfrwt beam="1">  1        2 0.33465641E+00 0.11089634E+04</pdfrwt>
<pdfrwt beam="2">  1       -2 0.16771974E+00 0.11089634E+04</pdfrwt>
<totfact> 0.11619969E+00</totfact>
</mgrwt>
</event>
<event>
 4    1  0.1998832E-007  0.8932892E+03  0.7818608E-02  0.9536892E-01
          2   -1    0    0  501    0  0.00000000000E+00  0.00000000000E+00  0.10923856981E+04  0.10923856981E+04  0.25500000000E-02 0. -1.
         -2   -1    0    0    0  501 -0.00000000000E+00 -0.00000000000E+00 -0.16124479926E+04  0.16124479926E+04  0.25500000000E-02 0.  1.
    8880023    1    1    2    0    0 -0.60202033640E+03  0.41555707139E+02 -0.13795907676E+04  0.16435438098E+04  0.65864270000E+03 0.  1.
    8880022    1    1    2    0    0  0.60202033640E+03 -0.41555707139E+02  0.85952847317E+03  0.10612898810E+04  0.15294330000E+03 0.  0.
<mgrwt>
<rscale>  0 0.81617748E+03</rscale>
<asrwt>0</asrwt>
<pdfrwt beam="1">  1        2 0.16805934E+00 0.89328919E+03</pdfrwt>
<pdfrwt beam="2">  1       -2 0.24806892E+00 0.89328919E+03</pdfrwt>
<totfact> 0.14710531E+00</totfact>
</mgrwt>
</event>
<event>
 4    1  0.1998832E-007  0.1182852E+04  0.7818608E-02  0.9173975E-01
         -2   -1    0    0    0  501 -0.00000000000E+00  0.00000000000E+00  0.57588507745E+03  0.57588507745E+03  0.25500000000E-02 0.  1.
          2   -1    0    0  501    0  0.00000000000E+00 -0.00000000000E+00 -0.26776304582E+04  0.26776304582E+04  0.25500000000E-02 0. -1.
    8880023    1    1    2    0    0  0.98040859727E+03  0.64237888981E+02 -0.34036285950E+03  0.12308471093E+04  0.65864270000E+03 0.  1.
    8880022    1    1    2    0    0 -0.98040859727E+03 -0.64237888981E+02 -0.17613825213E+04  0.20226684264E+04  0.15294330000E+03 0.  0.
<mgrwt>
<rscale>  0 0.11326137E+04</rscale>
<asrwt>0</asrwt>
<pdfrwt beam="1">  1        2 0.41194314E+00 0.11828515E+04</pdfrwt>
<pdfrwt beam="2">  1       -2 0.88597705E-01 0.11828515E+04</pdfrwt>
<totfact> 0.29682681E+00</totfact>
</mgrwt>
</event>
<event>
 4    1  0.1998832E-007  0.1000776E+04  0.7818608E-02  0.9380543E-01
         -2   -1    0    0    0  501 -0.00000000000E+00  0.00000000000E+00  0.60018168518E+03  0.60018168519E+03  0.25500000000E-02 0.  1.
          2   -1    0    0  501    0  0.00000000000E+00 -0.00000000000E+00 -0.17353119244E+04  0.17353119244E+04  0.25500000000E-02 0. -1.
    8880023    1    1    2    0    0 -0.67553336569E+03 -0.33376214204E+03 -0.45361936297E+02  0.10018035771E+04  0.65864270000E+03 0.  1.
    8880022    1    1    2    0    0  0.67553336569E+03  0.33376214204E+03 -0.10897683030E+04  0.13336900325E+04  0.15294330000E+03 0.  0.
<mgrwt>
<rscale>  0 0.93694357E+03</rscale>
<asrwt>0</asrwt>
<pdfrwt beam="1">  1        2 0.26697106E+00 0.10007760E+04</pdfrwt>
<pdfrwt beam="2">  1       -2 0.92335645E-01 0.10007760E+04</pdfrwt>
<totfact> 0.93159824E+00</totfact>
</mgrwt>
</event>
<event>
 4    1  0.1998832E-007  0.7070132E+03  0.7818608E-02  0.9969264E-01
          2   -1    0    0  501    0  0.00000000000E+00  0.00000000000E+00  0.44650968684E+03  0.44650968684E+03  0.25500000000E-02 0. -1.
         -2   -1    0    0    0  501 -0.00000000000E+00 -0.00000000000E+00 -0.92489504161E+03  0.92489504162E+03  0.25500000000E-02 0.  1.
    8880023    1    1    2    0    0  0.80476917852E+02  0.24409216248E+03 -0.70325841562E+03  0.99721618694E+03  0.65864270000E+03 0.  1.
    8880022    1    1    2    0    0 -0.80476917852E+02 -0.24409216248E+03  0.22487306085E+03  0.37418854152E+03  0.15294330000E+03 0.  0.
<mgrwt>
<rscale>  0 0.57018751E+03</rscale>
<asrwt>0</asrwt>
<pdfrwt beam="1">  1        2 0.68693798E-01 0.70701324E+03</pdfrwt>
<pdfrwt beam="2">  1       -2 0.14229155E+00 0.70701324E+03</pdfrwt>
<totfact> 0.24553119E+01</totfact>
</mgrwt>
</event>
<event>
 4    1  0.1998832E-007  0.1116736E+04  0.7818608E-02  0.9242647E-01
         -2   -1    0    0    0  501 -0.00000000000E+00  0.00000000000E+00  0.24984994325E+04  0.24984994325E+04  0.25500000000E-02 0.  1.
          2   -1    0    0  501    0  0.00000000000E+00 -0.00000000000E+00 -0.81504232640E+03  0.81504232641E+03  0.25500000000E-02 0. -1.
    8880023    1    1    2    0    0 -0.72579524215E+03  0.53526715300E+03  0.20449448437E+04  0.23299998452E+04  0.65864270000E+03 0.  0.
    8880022    1    1    2    0    0  0.72579524215E+03 -0.53526715300E+03 -0.36148773758E+03  0.98354191372E+03  0.15294330000E+03 0.  0.
<mgrwt>
<rscale>  0 0.10623875E+04</rscale>
<asrwt>0</asrwt>
<pdfrwt beam="1">  1        2 0.12539113E+00 0.11167363E+04</pdfrwt>
<pdfrwt beam="2">  1       -2 0.38438452E+00 0.11167363E+04</pdfrwt>
<totfact> 0.31471636E-01</totfact>
</mgrwt>
</event>
<event>
 4    1  0.1998832E-007  0.2199851E+04  0.7818608E-02  0.8528646E-01
          2   -1    0    0  501    0  0.00000000000E+00  0.00000000000E+00  0.25019751429E+04  0.25019751429E+04  0.25500000000E-02 0. -1.
         -2   -1    0    0    0  501 -0.00000000000E+00 -0.00000000000E+00 -0.29680674292E+04  0.29680674292E+04  0.25500000000E-02 0.  1.
    8880023    1    1    2    0    0 -0.19598076002E+04 -0.75145772296E+03 -0.19136873865E+04  0.29157407564E+04  0.65864270000E+03 0.  0.
    8880022    1    1    2    0    0  0.19598076002E+04  0.75145772296E+03  0.14475951002E+04  0.25543018158E+04  0.15294330000E+03 0.  0.
<mgrwt>
<rscale>  0 0.21756161E+04</rscale>
<asrwt>0</asrwt>
<pdfrwt beam="1">  1        2 0.38491925E+00 0.21998511E+04</pdfrwt>
<pdfrwt beam="2">  1       -2 0.45662576E+00 0.21998511E+04</pdfrwt>
<totfact> 0.93566347E-03</totfact>
</mgrwt>
</event>
<event>
 4    1  0.1998832E-007  0.1627054E+04  0.7818608E-02  0.8824767E-01
          2   -1    0    0  501    0  0.00000000000E+00  0.00000000000E+00  0.36340559756E+04  0.36340559756E+04  0.25500000000E-02 0. -1.
         -2   -1    0    0    0  501 -0.00000000000E+00 -0.00000000000E+00 -0.91847595192E+03  0.91847595192E+03  0.25500000000E-02 0.  1.
    8880023    1    1    2    0    0 -0.10806183919E+04  0.10226233735E+04  0.21829118705E+03  0.16416320908E+04  0.65864270000E+03 0.  0.
    8880022    1    1    2    0    0  0.10806183919E+04 -0.10226233735E+04  0.24972888366E+04  0.29108998367E+04  0.15294330000E+03 0.  0.
<mgrwt>
<rscale>  0 0.15931511E+04</rscale>
<asrwt>0</asrwt>
<pdfrwt beam="1">  1        2 0.55908553E+00 0.16270540E+04</pdfrwt>
<pdfrwt beam="2">  1       -2 0.14130399E+00 0.16270540E+04</pdfrwt>
<totfact> 0.21534273E-01</totfact>
</mgrwt>
</event>
<event>
 4    1  0.1998832E-007  0.2304684E+04  0.7818608E-02  0.8485198E-01
          2   -1    0    0  501    0  0.00000000000E+00  0.00000000000E+00  0.44493478799E+04  0.44493478799E+04  0.25500000000E-02 0. -1.
         -2   -1    0    0    0  501 -0.00000000000E+00 -0.00000000000E+00 -0.12230085768E+04  0.12230085768E+04  0.25500000000E-02 0.  1.
    8880023    1    1    2    0    0 -0.21104057706E+04 -0.65111255928E+03  0.93760866331E+03  0.24881077737E+04  0.65864270000E+03 0.  0.
    8880022    1    1    2    0    0  0.21104057706E+04  0.65111255928E+03  0.22887306398E+04  0.31842486831E+04  0.15294330000E+03 0.  0.
<mgrwt>
<rscale>  0 0.22816334E+04</rscale>
<asrwt>0</asrwt>
<pdfrwt beam="1">  1        2 0.68451506E+00 0.23046844E+04</pdfrwt>
<pdfrwt beam="2">  1       -2 0.18815517E+00 0.23046844E+04</pdfrwt>
<totfact> 0.19155945E-02</totfact>
</mgrwt>
</event>
<event>
 4    1  0.1998832E-007  0.1147493E+04  0.7818608E-02  0.9209934E-01
         -2   -1    0    0    0  501 -0.00000000000E+00  0.00000000000E+00  0.48883209378E+03  0.48883209379E+03  0.25500000000E-02 0.  1.
          2   -1    0    0  501    0  0.00000000000E+00 -0.00000000000E+00 -0.33021077280E+04  0.33021077280E+04  0.25500000000E-02 0. -1.
    8880023    1    1    2    0    0 -0.93963919216E+03  0.26744964816E+01 -0.43148546687E+03  0.12259359195E+04  0.65864270000E+03 0.  0.
    8880022    1    1    2    0    0  0.93963919216E+03 -0.26744964816E+01 -0.23817901673E+04  0.25650039022E+04  0.15294330000E+03 0.  0.
<mgrwt>
<rscale>  0 0.10951476E+04</rscale>
<asrwt>0</asrwt>
<pdfrwt beam="1">  1        2 0.50801656E+00 0.11474926E+04</pdfrwt>
<pdfrwt beam="2">  1       -2 0.75204940E-01 0.11474926E+04</pdfrwt>
<totfact> 0.17747316E+00</totfact>
</mgrwt>
</event>
<event>
 4    1  0.1998832E-007  0.7216570E+03  0.7818608E-02  0.9917018E-01
         -2   -1    0    0    0  501 -0.00000000000E+00  0.00000000000E+00  0.32255832533E+03  0.32255832534E+03  0.25500000000E-02 0.  1.
          2   -1    0    0  501    0  0.00000000000E+00 -0.00000000000E+00 -0.31000696060E+04  0.31000696060E+04  0.25500000000E-02 0. -1.
    8880023    1    1    2    0    0 -0.94149446064E+02 -0.27948983887E+03 -0.10465718200E+03  0.72920643184E+03  0.65864270000E+03 0.  1.
    8880022    1    1    2    0    0  0.94149446064E+02  0.27948983887E+03 -0.26728540986E+04  0.26934214995E+04  0.15294330000E+03 0.  0.
<mgrwt>
<rscale>  0 0.59443544E+03</rscale>
<asrwt>0</asrwt>
<pdfrwt beam="1">  1        2 0.47693377E+00 0.72165705E+03</pdfrwt>
<pdfrwt beam="2">  1       -2 0.49624360E-01 0.72165705E+03</pdfrwt>
<totfact> 0.62135769E+00</totfact>
</mgrwt>
</event>
<event>
 4    1  0.1998832E-007  0.9648866E+03  0.7818608E-02  0.9429011E-01
         -2   -1    0    0    0  501 -0.00000000000E+00  0.00000000000E+00  0.39077366841E+03  0.39077366842E+03  0.25500000000E-02 0.  1.
          2   -1    0    0  501    0  0.00000000000E+00 -0.00000000000E+00 -0.20059901154E+04  0.20059901154E+04  0.25500000000E-02 0. -1.
    8880023    1    1    2    0    0  0.68877114600E+03 -0.15096438240E+03 -0.55133635204E+03  0.11112956023E+04  0.65864270000E+03 0.  0.
    8880022    1    1    2    0    0 -0.68877114600E+03  0.15096438240E+03 -0.10638800950E+04  0.12854681816E+04  0.15294330000E+03 0.  0.
<mgrwt>
<rscale>  0 0.89726129E+03</rscale>
<asrwt>0</asrwt>
<pdfrwt beam="1">  1        2 0.30861386E+00 0.96488660E+03</pdfrwt>
<pdfrwt beam="2">  1       -2 0.60119027E-01 0.96488660E+03</pdfrwt>
<totfact> 0.17227543E+01</totfact>
</mgrwt>
</event>
<event>
 4    1  0.1998832E-007  0.9076647E+03  0.7818608E-02  0.9513838E-01
         -2   -1    0    0    0  501 -0.00000000000E+00  0.00000000000E+00  0.60482595874E+03  0.60482595874E+03  0.25500000000E-02 0.  1.
          2   -1    0    0  501    0  0.00000000000E+00 -0.00000000000E+00 -0.25748405577E+04  0.25748405577E+04  0.25500000000E-02 0. -1.
    8880023    1    1    2    0    0  0.22269241139E+03  0.58348360265E+03  0.18883288176E+03  0.92709928711E+03  0.65864270000E+03 0.  1.
    8880022    1    1    2    0    0 -0.22269241139E+03 -0.58348360265E+03 -0.21588474807E+04  0.22525672293E+04  0.15294330000E+03 0.  0.
<mgrwt>
<rscale>  0 0.83271275E+03</rscale>
<asrwt>0</asrwt>
<pdfrwt beam="1">  1        2 0.39612931E+00 0.90766471E+03</pdfrwt>
<pdfrwt beam="2">  1       -2 0.93050149E-01 0.90766471E+03</pdfrwt>
<totfact> 0.31553170E+00</totfact>
</mgrwt>
</event>
<event>
 4    1  0.1998832E-007  0.6856549E+03  0.7818608E-02  0.1006290E+00
         -2   -1    0    0    0  501 -0.00000000000E+00  0.00000000000E+00  0.10130888815E+04  0.10130888815E+04  0.25500000000E-02 0.  1.
          2   -1    0    0  501    0  0.00000000000E+00 -0.00000000000E+00 -0.20079143296E+04  0.20079143296E+04  0.25500000000E-02 0. -1.
    8880023    1    1    2    0    0 -0.14155291983E+03 -0.12757424716E+03  0.88827249380E+03  0.11221188204E+04  0.65864270000E+03 0.  1.
    8880022    1    1    2    0    0  0.14155291983E+03  0.12757424716E+03 -0.18830979418E+04  0.18988843907E+04  0.15294330000E+03 0.  0.
<mgrwt>
<rscale>  0 0.52976062E+03</rscale>
<asrwt>0</asrwt>
<pdfrwt beam="1">  1        2 0.30890990E+00 0.68565489E+03</pdfrwt>
<pdfrwt beam="2">  1       -2 0.15585983E+00 0.68565489E+03</pdfrwt>
<totfact> 0.18815786E+00</totfact>
</mgrwt>
</event>
<event>
 4    1  0.1998832E-007  0.7311456E+03  0.7818608E-02  0.9886533E-01
          2   -1    0    0  501    0  0.00000000000E+00  0.00000000000E+00  0.31868102664E+04  0.31868102664E+04  0.25500000000E-02 0. -1.
         -2   -1    0    0    0  501 -0.00000000000E+00 -0.00000000000E+00 -0.24331155894E+03  0.24331155895E+03  0.25500000000E-02 0.  1.
    8880023    1    1    2    0    0 -0.16165360560E+02  0.31702110131E+03  0.34608673496E+03  0.80891898972E+03  0.65864270000E+03 0.  1.
    8880022    1    1    2    0    0  0.16165360560E+02 -0.31702110131E+03  0.25974119725E+04  0.26212028356E+04  0.15294330000E+03 0.  0.
<mgrwt>
<rscale>  0 0.60918414E+03</rscale>
<asrwt>0</asrwt>
<pdfrwt beam="1">  1        2 0.49027844E+00 0.73114561E+03</pdfrwt>
<pdfrwt beam="2">  1       -2 0.37432552E-01 0.73114561E+03</pdfrwt>
<totfact> 0.95530868E+00</totfact>
</mgrwt>
</event>
<event>
 4    1  0.1998832E-007  0.6944578E+03  0.7818608E-02  0.1002102E+00
          2   -1    0    0  501    0  0.00000000000E+00  0.00000000000E+00  0.18600960614E+04  0.18600960614E+04  0.25500000000E-02 0. -1.
         -2   -1    0    0    0  501 -0.00000000000E+00 -0.00000000000E+00 -0.12431236596E+04  0.12431236596E+04  0.25500000000E-02 0.  1.
    8880023    1    1    2    0    0  0.69158288590E+01 -0.22003091553E+03 -0.11351409169E+04  0.13307203087E+04  0.65864270000E+03 0.  0.
    8880022    1    1    2    0    0 -0.69158288590E+01  0.22003091553E+03  0.17521133186E+04  0.17724994124E+04  0.15294330000E+03 0. -1.
<mgrwt>
<rscale>  0 0.54738145E+03</rscale>
<asrwt>0</asrwt>
<pdfrwt beam="1">  1        2 0.28616862E+00 0.69445780E+03</pdfrwt>
<pdfrwt beam="2">  1       -2 0.19124979E+00 0.69445780E+03</pdfrwt>
<totfact> 0.12765958E+00</totfact>
</mgrwt>
</event>
<event>
 4    1  0.1998832E-007  0.2205535E+04  0.7818608E-02  0.8526224E-01
          2   -1    0    0  501    0  0.00000000000E+00  0.00000000000E+00  0.25374003863E+04  0.25374003863E+04  0.25500000000E-02 0. -1.
         -2   -1    0    0    0  501 -0.00000000000E+00 -0.00000000000E+00 -0.20518697534E+04  0.20518697534E+04  0.25500000000E-02 0.  1.
    8880023    1    1    2    0    0 -0.55114229563E+03  0.20314564865E+04 -0.49775602430E+03  0.22610052085E+04  0.65864270000E+03 0.  0.
    8880022    1    1    2    0    0  0.55114229563E+03 -0.20314564865E+04  0.98328665727E+03  0.23282649312E+04  0.15294330000E+03 0.  0.
<mgrwt>
<rscale>  0 0.21813672E+04</rscale>
<asrwt>0</asrwt>
<pdfrwt beam="1">  1        2 0.39036929E+00 0.22055347E+04</pdfrwt>
<pdfrwt beam="2">  1       -2 0.31567227E+00 0.22055347E+04</pdfrwt>
<totfact> 0.73201681E-02</totfact>
</mgrwt>
</event>
<event>
 4    1  0.1998832E-007  0.1055032E+04  0.7818608E-02  0.9312856E-01
          2   -1    0    0  501    0  0.00000000000E+00  0.00000000000E+00  0.18809433693E+04  0.18809433693E+04  0.25500000000E-02 0. -1.
         -2   -1    0    0    0  501 -0.00000000000E+00 -0.00000000000E+00 -0.19327311613E+04  0.19327311613E+04  0.25500000000E-02 0.  1.
    8880023    1    1    2    0    0  0.78764307854E+03  0.24269540161E+03 -0.16791602818E+04  0.19830966026E+04  0.65864270000E+03 0.  0.
    8880022    1    1    2    0    0 -0.78764307854E+03 -0.24269540161E+03  0.16273724897E+04  0.18305779280E+04  0.15294330000E+03 0.  0.
<mgrwt>
<rscale>  0 0.99607844E+03</rscale>
<asrwt>0</asrwt>
<pdfrwt beam="1">  1        2 0.28937590E+00 0.10550322E+04</pdfrwt>
<pdfrwt beam="2">  1       -2 0.29734325E+00 0.10550322E+04</pdfrwt>
<totfact> 0.25640670E-01</totfact>
</mgrwt>
</event>
<event>
 4    1  0.1998832E-007  0.8136930E+03  0.7818608E-02  0.9681935E-01
         -2   -1    0    0    0  501 -0.00000000000E+00  0.00000000000E+00  0.63947613979E+03  0.63947613979E+03  0.25500000000E-02 0.  1.
          2   -1    0    0  501    0  0.00000000000E+00 -0.00000000000E+00 -0.96826142274E+03  0.96826142275E+03  0.25500000000E-02 0. -1.
    8880023    1    1    2    0    0  0.34570728893E+02 -0.47654054216E+03  0.24094107573E+03  0.84861583290E+03  0.65864270000E+03 0.  1.
    8880022    1    1    2    0    0 -0.34570728893E+02  0.47654054216E+03 -0.56972635868E+03  0.75912172964E+03  0.15294330000E+03 0.  0.
<mgrwt>
<rscale>  0 0.72102613E+03</rscale>
<asrwt>0</asrwt>
<pdfrwt beam="1">  1        2 0.14896330E+00 0.81369296E+03</pdfrwt>
<pdfrwt beam="2">  1       -2 0.98380945E-01 0.81369296E+03</pdfrwt>
<totfact> 0.22896155E+01</totfact>
</mgrwt>
</event>
<event>
 4    1  0.1998832E-007  0.8066557E+03  0.7818608E-02  0.9696586E-01
          2   -1    0    0  501    0  0.00000000000E+00  0.00000000000E+00  0.97399553080E+03  0.97399553081E+03  0.25500000000E-02 0. -1.
         -2   -1    0    0    0  501 -0.00000000000E+00 -0.00000000000E+00 -0.63327814636E+03  0.63327814636E+03  0.25500000000E-02 0.  1.
    8880023    1    1    2    0    0 -0.30527242599E+03  0.35169865430E+03 -0.24544025664E+03  0.84316921395E+03  0.65864270000E+03 0.  0.
    8880022    1    1    2    0    0  0.30527242599E+03 -0.35169865430E+03  0.58615764108E+03  0.76410446323E+03  0.15294330000E+03 0.  0.
<mgrwt>
<rscale>  0 0.71220446E+03</rscale>
<asrwt>0</asrwt>
<pdfrwt beam="1">  1        2 0.14984547E+00 0.80665569E+03</pdfrwt>
<pdfrwt beam="2">  1       -2 0.97427408E-01 0.80665569E+03</pdfrwt>
<totfact> 0.23243181E+01</totfact>
</mgrwt>
</event>
<event>
 4    1  0.1998832E-007  0.1283631E+04  0.7818608E-02  0.9079826E-01
         -2   -1    0    0    0  501 -0.00000000000E+00  0.00000000000E+00  0.13013763786E+04  0.13013763786E+04  0.25500000000E-02 0.  1.
          2   -1    0    0  501    0  0.00000000000E+00 -0.00000000000E+00 -0.16243797684E+04  0.16243797684E+04  0.25500000000E-02 0. -1.
    8880023    1    1    2    0    0  0.32673506471E+03  0.10522079769E+04  0.65816000051E+03  0.14425263331E+04  0.65864270000E+03 0.  0.
    8880022    1    1    2    0    0 -0.32673506471E+03 -0.10522079769E+04 -0.98116339037E+03  0.14832298139E+04  0.15294330000E+03 0.  0.
<mgrwt>
<rscale>  0 0.12384799E+04</rscale>
<asrwt>0</asrwt>
<pdfrwt beam="1">  1        2 0.24990458E+00 0.12836306E+04</pdfrwt>
<pdfrwt beam="2">  1       -2 0.20021175E+00 0.12836306E+04</pdfrwt>
<totfact> 0.13771859E+00</totfact>
</mgrwt>
</event>
<event>
 4    1  0.1998832E-007  0.1497425E+04  0.7818608E-02  0.8911456E-01
          2   -1    0    0  501    0  0.00000000000E+00  0.00000000000E+00  0.33812799866E+04  0.33812799867E+04  0.25500000000E-02 0. -1.
         -2   -1    0    0    0  501 -0.00000000000E+00 -0.00000000000E+00 -0.91652894966E+03  0.91652894966E+03  0.25500000000E-02 0.  1.
    8880023    1    1    2    0    0 -0.36178628032E+03  0.12952151167E+04  0.13229146057E+02  0.14974834649E+04  0.65864270000E+03 0.  0.
    8880022    1    1    2    0    0  0.36178628032E+03 -0.12952151167E+04  0.24515218909E+04  0.28003254714E+04  0.15294330000E+03 0.  0.
<mgrwt>
<rscale>  0 0.14600591E+04</rscale>
<asrwt>0</asrwt>
<pdfrwt beam="1">  1        2 0.52019694E+00 0.14974250E+04</pdfrwt>
<pdfrwt beam="2">  1       -2 0.14100445E+00 0.14974250E+04</pdfrwt>
<totfact> 0.32995433E-01</totfact>
</mgrwt>
</event>
<event>
 4    1  0.1998832E-007  0.8417437E+03  0.7818608E-02  0.9626901E-01
          2   -1    0    0  501    0  0.00000000000E+00  0.00000000000E+00  0.27903891404E+04  0.27903891404E+04  0.25500000000E-02 0. -1.
         -2   -1    0    0    0  501 -0.00000000000E+00 -0.00000000000E+00 -0.73421441705E+03  0.73421441705E+03  0.25500000000E-02 0.  1.
    8880023    1    1    2    0    0  0.52387142940E+03 -0.16760254914E+02 -0.45356013148E+03  0.95616378295E+03  0.65864270000E+03 0.  0.
    8880022    1    1    2    0    0 -0.52387142940E+03  0.16760254914E+02  0.25097348548E+04  0.25684397745E+04  0.15294330000E+03 0.  0.
<mgrwt>
<rscale>  0 0.75540987E+03</rscale>
<asrwt>0</asrwt>
<pdfrwt beam="1">  1        2 0.42929063E+00 0.84174366E+03</pdfrwt>
<pdfrwt beam="2">  1       -2 0.11295607E+00 0.84174366E+03</pdfrwt>
<totfact> 0.15032786E+00</totfact>
</mgrwt>
</event>
<event>
 4    1  0.1998832E-007  0.9818686E+03  0.7818608E-02  0.9405673E-01
         -2   -1    0    0    0  501 -0.00000000000E+00  0.00000000000E+00  0.52072224144E+03  0.52072224145E+03  0.25500000000E-02 0.  1.
          2   -1    0    0  501    0  0.00000000000E+00 -0.00000000000E+00 -0.23463663636E+04  0.23463663636E+04  0.25500000000E-02 0. -1.
    8880023    1    1    2    0    0 -0.67272047245E+03  0.27875250742E+03 -0.98882614281E+02  0.98683523048E+03  0.65864270000E+03 0.  0.
    8880022    1    1    2    0    0  0.67272047245E+03 -0.27875250742E+03 -0.17267615078E+04  0.18802533745E+04  0.15294330000E+03 0.  0.
<mgrwt>
<rscale>  0 0.91610278E+03</rscale>
<asrwt>0</asrwt>
<pdfrwt beam="1">  1        2 0.36097943E+00 0.98186863E+03</pdfrwt>
<pdfrwt beam="2">  1       -2 0.80111115E-01 0.98186863E+03</pdfrwt>
<totfact> 0.59366682E+00</totfact>
</mgrwt>
</event>
<event>
 4    1  0.1998832E-007  0.1985547E+04  0.7818608E-02  0.8626297E-01
          2   -1    0    0  501    0  0.00000000000E+00  0.00000000000E+00  0.18687746242E+04  0.18687746242E+04  0.25500000000E-02 0. -1.
         -2   -1    0    0    0  501 -0.00000000000E+00 -0.00000000000E+00 -0.22112132757E+04  0.22112132757E+04  0.25500000000E-02 0.  1.
    8880023    1    1    2    0    0 -0.16161427455E+04  0.94692691381E+03  0.45733172169E+03  0.20375353896E+04  0.65864270000E+03 0.  0.
    8880022    1    1    2    0    0  0.16161427455E+04 -0.94692691381E+03 -0.79977037320E+03  0.20424525103E+04  0.15294330000E+03 0.  0.
<mgrwt>
<rscale>  0 0.19584498E+04</rscale>
<asrwt>0</asrwt>
<pdfrwt beam="1">  1        2 0.28750379E+00 0.19855473E+04</pdfrwt>
<pdfrwt beam="2">  1       -2 0.34018666E+00 0.19855473E+04</pdfrwt>
<totfact> 0.12640008E-01</totfact>
</mgrwt>
</event>
<event>
 4    1  0.1998832E-007  0.9080969E+03  0.7818608E-02  0.9513156E-01
         -2   -1    0    0    0  501 -0.00000000000E+00  0.00000000000E+00  0.70985653904E+03  0.70985653904E+03  0.25500000000E-02 0.  1.
          2   -1    0    0  501    0  0.00000000000E+00 -0.00000000000E+00 -0.10293640650E+04  0.10293640650E+04  0.25500000000E-02 0. -1.
    8880023    1    1    2    0    0  0.55669924482E+03 -0.28445700794E+03  0.17846213187E+03  0.92546678888E+03  0.65864270000E+03 0.  0.
    8880022    1    1    2    0    0 -0.55669924482E+03  0.28445700794E+03 -0.49796965781E+03  0.81375381514E+03  0.15294330000E+03 0.  0.
<mgrwt>
<rscale>  0 0.83320763E+03</rscale>
<asrwt>0</asrwt>
<pdfrwt beam="1">  1        2 0.15836370E+00 0.90809694E+03</pdfrwt>
<pdfrwt beam="2">  1       -2 0.10920870E+00 0.90809694E+03</pdfrwt>
<totfact> 0.16148170E+01</totfact>
</mgrwt>
</event>
<event>
 4    1  0.1998832E-007  0.8311209E+03  0.7818608E-02  0.9647155E-01
          2   -1    0    0  501    0  0.00000000000E+00  0.00000000000E+00  0.17553078608E+04  0.17553078608E+04  0.25500000000E-02 0. -1.
         -2   -1    0    0    0  501 -0.00000000000E+00 -0.00000000000E+00 -0.35797303494E+03  0.35797303495E+03  0.25500000000E-02 0.  1.
    8880023    1    1    2    0    0 -0.50492938859E+03 -0.44700169394E+02  0.28030223823E+03  0.87711535366E+03  0.65864270000E+03 0.  1.
    8880022    1    1    2    0    0  0.50492938859E+03  0.44700169394E+02  0.11170325876E+04  0.12361655421E+04  0.15294330000E+03 0.  0.
<mgrwt>
<rscale>  0 0.74252224E+03</rscale>
<asrwt>0</asrwt>
<pdfrwt beam="1">  1        2 0.27004736E+00 0.83112093E+03</pdfrwt>
<pdfrwt beam="2">  1       -2 0.55072776E-01 0.83112093E+03</pdfrwt>
<totfact> 0.28841422E+01</totfact>
</mgrwt>
</event>
<event>
 4    1  0.1998832E-007  0.1048905E+04  0.7818608E-02  0.9320198E-01
         -2   -1    0    0    0  501 -0.00000000000E+00  0.00000000000E+00  0.42336524967E+03  0.42336524968E+03  0.25500000000E-02 0.  1.
          2   -1    0    0  501    0  0.00000000000E+00 -0.00000000000E+00 -0.37015252277E+04  0.37015252277E+04  0.25500000000E-02 0. -1.
    8880023    1    1    2    0    0 -0.83012803855E+02 -0.81209681390E+03 -0.38898352390E+03  0.11187094122E+04  0.65864270000E+03 0.  0.
    8880022    1    1    2    0    0  0.83012803855E+02  0.81209681390E+03 -0.28891764541E+04  0.30061810652E+04  0.15294330000E+03 0.  0.
<mgrwt>
<rscale>  0 0.98944438E+03</rscale>
<asrwt>0</asrwt>
<pdfrwt beam="1">  1        2 0.56946540E+00 0.10489054E+04</pdfrwt>
<pdfrwt beam="2">  1       -2 0.65133118E-01 0.10489054E+04</pdfrwt>
<totfact> 0.13088198E+00</totfact>
</mgrwt>
</event>
<event>
 4    1  0.1998832E-007  0.7563524E+03  0.7818608E-02  0.9814644E-01
         -2   -1    0    0    0  501 -0.00000000000E+00  0.00000000000E+00  0.37746526418E+03  0.37746526418E+03  0.25500000000E-02 0.  1.
          2   -1    0    0  501    0  0.00000000000E+00 -0.00000000000E+00 -0.11771863658E+04  0.11771863658E+04  0.25500000000E-02 0. -1.
    8880023    1    1    2    0    0  0.18280530668E+03  0.32379164434E+03 -0.12126545557E+03  0.76601196209E+03  0.65864270000E+03 0.  0.
    8880022    1    1    2    0    0 -0.18280530668E+03 -0.32379164434E+03 -0.67845564602E+03  0.78863966786E+03  0.15294330000E+03 0.  0.
<mgrwt>
<rscale>  0 0.64582563E+03</rscale>
<asrwt>0</asrwt>
<pdfrwt beam="1">  1        2 0.18110559E+00 0.75635244E+03</pdfrwt>
<pdfrwt beam="2">  1       -2 0.58071580E-01 0.75635244E+03</pdfrwt>
<totfact> 0.55140830E+01</totfact>
</mgrwt>
</event>
<event>
 4    1  0.2295057E-007  0.9813182E+03  0.7818608E-02  0.9406418E-01
          2   -1    0    0  501    0  0.00000000000E+00  0.00000000000E+00  0.22206617492E+04  0.22206617492E+04  0.25500000000E-02 0. -1.
         -2   -1    0    0    0  501 -0.00000000000E+00 -0.00000000000E+00 -0.15143892310E+04  0.15143892310E+04  0.25500000000E-02 0.  1.
    8880023    1    1    2    0    0  0.71739848125E+03  0.12047687138E+03 -0.12807845113E+04  0.16135037738E+04  0.65864270000E+03 0.  0.
    8880022    1    1    2    0    0 -0.71739848125E+03 -0.12047687138E+03  0.19870570295E+04  0.21215472063E+04  0.15294330000E+03 0.  0.
<mgrwt>
<rscale>  0 0.91549401E+03</rscale>
<asrwt>0</asrwt>
<pdfrwt beam="1">  1        2 0.34164027E+00 0.98131823E+03</pdfrwt>
<pdfrwt beam="2">  1       -2 0.23298296E+00 0.98131823E+03</pdfrwt>
<totfact> 0.41498762E-01</totfact>
</mgrwt>
</event>
<event>
 4    1  0.1998832E-007  0.7648328E+03  0.7818608E-02  0.9792753E-01
          2   -1    0    0  501    0  0.00000000000E+00  0.00000000000E+00  0.17870557265E+04  0.17870557265E+04  0.25500000000E-02 0. -1.
         -2   -1    0    0    0  501 -0.00000000000E+00 -0.00000000000E+00 -0.47771508124E+03  0.47771508125E+03  0.25500000000E-02 0.  1.
    8880023    1    1    2    0    0  0.31073071695E+03 -0.23367813752E+03 -0.12128367723E+03  0.77438942854E+03  0.65864270000E+03 0.  1.
    8880022    1    1    2    0    0 -0.31073071695E+03  0.23367813752E+03  0.14306243225E+04  0.14903813792E+04  0.15294330000E+03 0.  0.
<mgrwt>
<rscale>  0 0.65752927E+03</rscale>
<asrwt>0</asrwt>
<pdfrwt beam="1">  1        2 0.27493165E+00 0.76483283E+03</pdfrwt>
<pdfrwt beam="2">  1       -2 0.73494627E-01 0.76483283E+03</pdfrwt>
<totfact> 0.15061130E+01</totfact>
</mgrwt>
</event>
<event>
 4    1  0.1998832E-007  0.1289505E+04  0.7818608E-02  0.9074676E-01
         -2   -1    0    0    0  501 -0.00000000000E+00  0.00000000000E+00  0.48867416382E+03  0.48867416383E+03  0.25500000000E-02 0.  1.
          2   -1    0    0  501    0  0.00000000000E+00 -0.00000000000E+00 -0.40718399151E+04  0.40718399151E+04  0.25500000000E-02 0. -1.
    8880023    1    1    2    0    0  0.31291430682E+03  0.10635308713E+04 -0.69885326507E+03  0.14667035727E+04  0.65864270000E+03 0.  0.
    8880022    1    1    2    0    0 -0.31291430682E+03 -0.10635308713E+04 -0.28843124862E+04  0.30938105063E+04  0.15294330000E+03 0.  0.
<mgrwt>
<rscale>  0 0.12446161E+04</rscale>
<asrwt>0</asrwt>
<pdfrwt beam="1">  1        2 0.62643689E+00 0.12895051E+04</pdfrwt>
<pdfrwt beam="2">  1       -2 0.75180643E-01 0.12895051E+04</pdfrwt>
<totfact> 0.47705626E-01</totfact>
</mgrwt>
</event>
<event>
 4    1  0.1998832E-007  0.1094642E+04  0.7818608E-02  0.9267045E-01
          2   -1    0    0  501    0  0.00000000000E+00  0.00000000000E+00  0.21246569065E+04  0.21246569065E+04  0.25500000000E-02 0. -1.
         -2   -1    0    0    0  501 -0.00000000000E+00 -0.00000000000E+00 -0.70402734243E+03  0.70402734244E+03  0.25500000000E-02 0.  1.
    8880023    1    1    2    0    0  0.86910014785E+03  0.95372376660E+02 -0.66666619767E+02  0.10966702338E+04  0.65864270000E+03 0.  0.
    8880022    1    1    2    0    0 -0.86910014785E+03 -0.95372376660E+02  0.14872961839E+04  0.17320140152E+04  0.15294330000E+03 0.  0.
<mgrwt>
<rscale>  0 0.10387419E+04</rscale>
<asrwt>0</asrwt>
<pdfrwt beam="1">  1        2 0.32687029E+00 0.10946420E+04</pdfrwt>
<pdfrwt beam="2">  1       -2 0.10831190E+00 0.10946420E+04</pdfrwt>
<totfact> 0.38441076E+00</totfact>
</mgrwt>
</event>
<event>
 4    1  0.1998832E-007  0.8701816E+03  0.7818608E-02  0.9575703E-01
          2   -1    0    0  501    0  0.00000000000E+00  0.00000000000E+00  0.57477905353E+03  0.57477905354E+03  0.25500000000E-02 0. -1.
         -2   -1    0    0    0  501 -0.00000000000E+00 -0.00000000000E+00 -0.16890357700E+04  0.16890357700E+04  0.25500000000E-02 0.  1.
    8880023    1    1    2    0    0  0.40137912739E+03  0.40286543805E+03 -0.13690249135E+04  0.16221729825E+04  0.65864270000E+03 0.  0.
    8880022    1    1    2    0    0 -0.40137912739E+03 -0.40286543805E+03  0.25476819695E+03  0.64164184112E+03  0.15294330000E+03 0.  0.
<mgrwt>
<rscale>  0 0.78925419E+03</rscale>
<asrwt>0</asrwt>
<pdfrwt beam="1">  1        2 0.88427548E-01 0.87018157E+03</pdfrwt>
<pdfrwt beam="2">  1       -2 0.25985165E+00 0.87018157E+03</pdfrwt>
<totfact> 0.29656576E+00</totfact>
</mgrwt>
</event>
<event>
 4    1  0.1998832E-007  0.7874652E+03  0.7818608E-02  0.9738585E-01
         -2   -1    0    0    0  501 -0.00000000000E+00  0.00000000000E+00  0.26006672646E+03  0.26006672647E+03  0.25500000000E-02 0.  1.
          2   -1    0    0  501    0  0.00000000000E+00 -0.00000000000E+00 -0.28392449043E+04  0.28392449043E+04  0.25500000000E-02 0. -1.
    8880023    1    1    2    0    0  0.21040708211E+03 -0.37685555250E+03 -0.42070566806E+03  0.89280160901E+03  0.65864270000E+03 0.  1.
    8880022    1    1    2    0    0 -0.21040708211E+03  0.37685555250E+03 -0.21584725098E+04  0.22065100218E+04  0.15294330000E+03 0.  0.
<mgrwt>
<rscale>  0 0.68765231E+03</rscale>
<asrwt>0</asrwt>
<pdfrwt beam="1">  1        2 0.43680689E+00 0.78746521E+03</pdfrwt>
<pdfrwt beam="2">  1       -2 0.40010268E-01 0.78746521E+03</pdfrwt>
<totfact> 0.13590121E+01</totfact>
</mgrwt>
</event>
<event>
 4    1  0.1998832E-007  0.9361453E+03  0.7818608E-02  0.9470335E-01
         -2   -1    0    0    0  501 -0.00000000000E+00  0.00000000000E+00  0.25843406724E+04  0.25843406724E+04  0.25500000000E-02 0.  1.
          2   -1    0    0  501    0  0.00000000000E+00 -0.00000000000E+00 -0.13379900622E+04  0.13379900622E+04  0.25500000000E-02 0. -1.
    8880023    1    1    2    0    0 -0.66512721558E+03  0.12792097520E+02  0.24032059028E+04  0.25791019112E+04  0.65864270000E+03 0.  1.
    8880022    1    1    2    0    0  0.66512721558E+03 -0.12792097520E+02 -0.11568552927E+04  0.13432288234E+04  0.15294330000E+03 0.  0.
<mgrwt>
<rscale>  0 0.86506713E+03</rscale>
<asrwt>0</asrwt>
<pdfrwt beam="1">  1        2 0.20584463E+00 0.93614532E+03</pdfrwt>
<pdfrwt beam="2">  1       -2 0.39759087E+00 0.93614532E+03</pdfrwt>
<totfact> 0.12454121E-01</totfact>
</mgrwt>
</event>
<event>
 4    1  0.1998832E-007  0.7662683E+03  0.7818608E-02  0.9789142E-01
          2   -1    0    0  501    0  0.00000000000E+00  0.00000000000E+00  0.45390915871E+04  0.45390915871E+04  0.25500000000E-02 0. -1.
         -2   -1    0    0    0  501 -0.00000000000E+00 -0.00000000000E+00 -0.12695804081E+03  0.12695804083E+03  0.25500000000E-02 0.  1.
    8880023    1    1    2    0    0 -0.38513477281E+03 -0.70909226721E+02  0.11818494603E+04  0.14085223693E+04  0.65864270000E+03 0.  1.
    8880022    1    1    2    0    0  0.38513477281E+03  0.70909226721E+02  0.32302840860E+04  0.32575272587E+04  0.15294330000E+03 0.  0.
<mgrwt>
<rscale>  0 0.65948532E+03</rscale>
<asrwt>0</asrwt>
<pdfrwt beam="1">  1        2 0.69832166E+00 0.76626831E+03</pdfrwt>
<pdfrwt beam="2">  1       -2 0.19532010E-01 0.76626831E+03</pdfrwt>
<totfact> 0.28331633E+00</totfact>
</mgrwt>
</event>
<event>
 4    1  0.1998832E-007  0.8538132E+03  0.7818608E-02  0.9604665E-01
         -2   -1    0    0    0  501 -0.00000000000E+00  0.00000000000E+00  0.90957543694E+03  0.90957543695E+03  0.25500000000E-02 0.  1.
          2   -1    0    0  501    0  0.00000000000E+00 -0.00000000000E+00 -0.17687929424E+04  0.17687929424E+04  0.25500000000E-02 0. -1.
    8880023    1    1    2    0    0 -0.12944615357E+03 -0.52766510341E+03  0.64609450561E+03  0.10707170889E+04  0.65864270000E+03 0.  0.
    8880022    1    1    2    0    0  0.12944615357E+03  0.52766510341E+03 -0.15053120111E+04  0.16076512905E+04  0.15294330000E+03 0.  0.
<mgrwt>
<rscale>  0 0.76988205E+03</rscale>
<asrwt>0</asrwt>
<pdfrwt beam="1">  1        2 0.27212199E+00 0.85381320E+03</pdfrwt>
<pdfrwt beam="2">  1       -2 0.13993468E+00 0.85381320E+03</pdfrwt>
<totfact> 0.32777527E+00</totfact>
</mgrwt>
</event>
<event>
 4    1  0.1998832E-007  0.6613217E+03  0.7818608E-02  0.1022841E+00
          2   -1    0    0  501    0  0.00000000000E+00  0.00000000000E+00  0.57061443093E+03  0.57061443094E+03  0.25500000000E-02 0. -1.
         -2   -1    0    0    0  501 -0.00000000000E+00 -0.00000000000E+00 -0.90758216054E+03  0.90758216055E+03  0.25500000000E-02 0.  1.
    8880023    1    1    2    0    0 -0.12011801182E+01 -0.59453509600E+02 -0.77006155293E+03  0.10150572221E+04  0.65864270000E+03 0.  1.
    8880022    1    1    2    0    0  0.12011801182E+01  0.59453509600E+02  0.43309382332E+03  0.46313936936E+03  0.15294330000E+03 0.  0.
<mgrwt>
<rscale>  0 0.46675041E+03</rscale>
<asrwt>0</asrwt>
<pdfrwt beam="1">  1        2 0.87786836E-01 0.66132168E+03</pdfrwt>
<pdfrwt beam="2">  1       -2 0.13962802E+00 0.66132168E+03</pdfrwt>
<totfact> 0.19477710E+01</totfact>
</mgrwt>
</event>
<event>
 4    1  0.1998832E-007  0.6918779E+03  0.7818608E-02  0.1003273E+00
         -2   -1    0    0    0  501 -0.00000000000E+00  0.00000000000E+00  0.24822405053E+03  0.24822405054E+03  0.25500000000E-02 0.  1.
          2   -1    0    0  501    0  0.00000000000E+00 -0.00000000000E+00 -0.91883589987E+03  0.91883589988E+03  0.25500000000E-02 0. -1.
    8880023    1    1    2    0    0 -0.15456214998E+03 -0.14489757918E+03 -0.51961197696E+03  0.86526965711E+03  0.65864270000E+03 0. -1.
    8880022    1    1    2    0    0  0.15456214998E+03  0.14489757918E+03 -0.15099987239E+03  0.30179029331E+03  0.15294330000E+03 0. -1.
<mgrwt>
<rscale>  0 0.54238281E+03</rscale>
<asrwt>0</asrwt>
<pdfrwt beam="1">  1        2 0.14135937E+00 0.69187786E+03</pdfrwt>
<pdfrwt beam="2">  1       -2 0.38188316E-01 0.69187786E+03</pdfrwt>
<totfact> 0.18689379E+02</totfact>
</mgrwt>
</event>
<event>
 4    1  0.1998832E-007  0.1034974E+04  0.7818608E-02  0.9337167E-01
          2   -1    0    0  501    0  0.00000000000E+00  0.00000000000E+00  0.24639590332E+04  0.24639590332E+04  0.25500000000E-02 0. -1.
         -2   -1    0    0    0  501 -0.00000000000E+00 -0.00000000000E+00 -0.83576233586E+03  0.83576233587E+03  0.25500000000E-02 0.  1.
    8880023    1    1    2    0    0 -0.44208057886E+03 -0.66477456625E+03 -0.40396399110E+03  0.11110164600E+04  0.65864270000E+03 0.  0.
    8880022    1    1    2    0    0  0.44208057886E+03  0.66477456625E+03  0.20321606885E+04  0.21887049090E+04  0.15294330000E+03 0.  0.
<mgrwt>
<rscale>  0 0.97432046E+03</rscale>
<asrwt>0</asrwt>
<pdfrwt beam="1">  1        2 0.37907061E+00 0.10349738E+04</pdfrwt>
<pdfrwt beam="2">  1       -2 0.12857882E+00 0.10349738E+04</pdfrwt>
<totfact> 0.16323389E+00</totfact>
</mgrwt>
</event>
<event>
 4    1  0.1998832E-007  0.1324861E+04  0.7818608E-02  0.9044383E-01
          2   -1    0    0  501    0  0.00000000000E+00  0.00000000000E+00  0.15335970854E+04  0.15335970854E+04  0.25500000000E-02 0. -1.
         -2   -1    0    0    0  501 -0.00000000000E+00 -0.00000000000E+00 -0.10596056603E+04  0.10596056603E+04  0.25500000000E-02 0.  1.
    8880023    1    1    2    0    0 -0.48510796711E+03 -0.10421689191E+04  0.54222678311E+03  0.14315257197E+04  0.65864270000E+03 0.  0.
    8880022    1    1    2    0    0  0.48510796711E+03  0.10421689191E+04 -0.68235358008E+02  0.11616770260E+04  0.15294330000E+03 0.  0.
<mgrwt>
<rscale>  0 0.12814787E+04</rscale>
<asrwt>0</asrwt>
<pdfrwt beam="1">  1        2 0.23593801E+00 0.13248607E+04</pdfrwt>
<pdfrwt beam="2">  1       -2 0.16301625E+00 0.13248607E+04</pdfrwt>
<totfact> 0.27911670E+00</totfact>
</mgrwt>
</event>
<event>
 4    1  0.1998832E-007  0.7288665E+03  0.7818608E-02  0.9893653E-01
          2   -1    0    0  501    0  0.00000000000E+00  0.00000000000E+00  0.70009899376E+03  0.70009899376E+03  0.25500000000E-02 0. -1.
         -2   -1    0    0    0  501 -0.00000000000E+00 -0.00000000000E+00 -0.10923089229E+04  0.10923089229E+04  0.25500000000E-02 0.  1.
    8880023    1    1    2    0    0 -0.28193033802E+03  0.13398297591E+03 -0.91176964588E+03  0.11672918430E+04  0.65864270000E+03 0.  1.
    8880022    1    1    2    0    0  0.28193033802E+03 -0.13398297591E+03  0.51955971672E+03  0.62511607369E+03  0.15294330000E+03 0.  0.
<mgrwt>
<rscale>  0 0.60569899E+03</rscale>
<asrwt>0</asrwt>
<pdfrwt beam="1">  1        2 0.10770754E+00 0.72886649E+03</pdfrwt>
<pdfrwt beam="2">  1       -2 0.16804753E+00 0.72886649E+03</pdfrwt>
<totfact> 0.91899778E+00</totfact>
</mgrwt>
</event>
<event>
 4    1  0.1998832E-007  0.7793954E+03  0.7818608E-02  0.9757259E-01
          2   -1    0    0  501    0  0.00000000000E+00  0.00000000000E+00  0.12841051772E+04  0.12841051772E+04  0.25500000000E-02 0. -1.
         -2   -1    0    0    0  501 -0.00000000000E+00 -0.00000000000E+00 -0.63719945949E+03  0.63719945949E+03  0.25500000000E-02 0.  1.
    8880023    1    1    2    0    0  0.37165050405E+03 -0.18847496795E+03 -0.33146060350E+03  0.84694937785E+03  0.65864270000E+03 0.  0.
    8880022    1    1    2    0    0 -0.37165050405E+03  0.18847496795E+03  0.97836632121E+03  0.10743552588E+04  0.15294330000E+03 0.  0.
<mgrwt>
<rscale>  0 0.67707576E+03</rscale>
<asrwt>0</asrwt>
<pdfrwt beam="1">  1        2 0.19755464E+00 0.77939535E+03</pdfrwt>
<pdfrwt beam="2">  1       -2 0.98030688E-01 0.77939535E+03</pdfrwt>
<totfact> 0.14871990E+01</totfact>
</mgrwt>
</event>
<event>
 4    1  0.1998832E-007  0.6816740E+03  0.7818608E-02  0.1008392E+00
         -2   -1    0    0    0  501 -0.00000000000E+00  0.00000000000E+00  0.15669252786E+04  0.15669252786E+04  0.25500000000E-02 0.  1.
          2   -1    0    0  501    0  0.00000000000E+00 -0.00000000000E+00 -0.25548083492E+03  0.25548083493E+03  0.25500000000E-02 0. -1.
    8880023    1    1    2    0    0  0.33624569887E+02 -0.17244870955E+03  0.14125803606E+04  0.15684586862E+04  0.65864270000E+03 0.  1.
    8880022    1    1    2    0    0 -0.33624569887E+02  0.17244870955E+03 -0.10113591689E+03  0.25394742729E+03  0.15294330000E+03 0.  0.
<mgrwt>
<rscale>  0 0.52118669E+03</rscale>
<asrwt>0</asrwt>
<pdfrwt beam="1">  1        2 0.39304744E-01 0.68167395E+03</pdfrwt>
<pdfrwt beam="2">  1       -2 0.24106543E+00 0.68167395E+03</pdfrwt>
<totfact> 0.98928576E+00</totfact>
</mgrwt>
</event>
<event>
 4    1  0.1998832E-007  0.7036038E+03  0.7818608E-02  0.9982567E-01
         -2   -1    0    0    0  501 -0.00000000000E+00  0.00000000000E+00  0.83169732864E+03  0.83169732864E+03  0.25500000000E-02 0.  1.
          2   -1    0    0  501    0  0.00000000000E+00 -0.00000000000E+00 -0.39387565329E+03  0.39387565330E+03  0.25500000000E-02 0. -1.
    8880023    1    1    2    0    0 -0.68061879597E+02 -0.23794052462E+03  0.44658660360E+01  0.70361798082E+03  0.65864270000E+03 0. -1.
    8880022    1    1    2    0    0  0.68061879597E+02  0.23794052462E+03  0.43335580932E+03  0.52195500112E+03  0.15294330000E+03 0.  0.
<mgrwt>
<rscale>  0 0.56421281E+03</rscale>
<asrwt>0</asrwt>
<pdfrwt beam="1">  1        2 0.60596254E-01 0.70360381E+03</pdfrwt>
<pdfrwt beam="2">  1       -2 0.12795344E+00 0.70360381E+03</pdfrwt>
<totfact> 0.37128454E+01</totfact>
</mgrwt>
</event>
<event>
 4    1  0.1998832E-007  0.8424700E+03  0.7818608E-02  0.9625540E-01
          2   -1    0    0  501    0  0.00000000000E+00  0.00000000000E+00  0.19546630966E+04  0.19546630966E+04  0.25500000000E-02 0. -1.
         -2   -1    0    0    0  501 -0.00000000000E+00 -0.00000000000E+00 -0.99948550307E+03  0.99948550307E+03  0.25500000000E-02 0.  1.
    8880023    1    1    2    0    0 -0.42980691638E+03  0.30201243721E+03 -0.77181426288E+03  0.11425642040E+04  0.65864270000E+03 0.  0.
    8880022    1    1    2    0    0  0.42980691638E+03 -0.30201243721E+03  0.17269918564E+04  0.18115843957E+04  0.15294330000E+03 0.  0.
<mgrwt>
<rscale>  0 0.75628574E+03</rscale>
<asrwt>0</asrwt>
<pdfrwt beam="1">  1        2 0.30071740E+00 0.84247000E+03</pdfrwt>
<pdfrwt beam="2">  1       -2 0.15376700E+00 0.84247000E+03</pdfrwt>
<totfact> 0.20268298E+00</totfact>
</mgrwt>
</event>
<event>
 4    1  0.1998832E-007  0.7993741E+03  0.7818608E-02  0.9712151E-01
          2   -1    0    0  501    0  0.00000000000E+00  0.00000000000E+00  0.12387599989E+04  0.12387599989E+04  0.25500000000E-02 0. -1.
         -2   -1    0    0    0  501 -0.00000000000E+00 -0.00000000000E+00 -0.14378039179E+04  0.14378039179E+04  0.25500000000E-02 0.  1.
    8880023    1    1    2    0    0 -0.31580364537E+03  0.32474118727E+03 -0.12717629128E+04  0.15021251259E+04  0.65864270000E+03 0.  1.
    8880022    1    1    2    0    0  0.31580364537E+03 -0.32474118727E+03  0.10727189938E+04  0.11744387910E+04  0.15294330000E+03 0.  0.
<mgrwt>
<rscale>  0 0.70297915E+03</rscale>
<asrwt>0</asrwt>
<pdfrwt beam="1">  1        2 0.19057846E+00 0.79937412E+03</pdfrwt>
<pdfrwt beam="2">  1       -2 0.22120060E+00 0.79937412E+03</pdfrwt>
<totfact> 0.17843924E+00</totfact>
</mgrwt>
</event>
<event>
 4    1  0.1998832E-007  0.9430724E+03  0.7818608E-02  0.9460152E-01
         -2   -1    0    0    0  501 -0.00000000000E+00  0.00000000000E+00  0.57824155574E+03  0.57824155574E+03  0.25500000000E-02 0.  1.
          2   -1    0    0  501    0  0.00000000000E+00 -0.00000000000E+00 -0.15993299793E+04  0.15993299793E+04  0.25500000000E-02 0. -1.
    8880023    1    1    2    0    0 -0.12352299916E+03  0.66356412993E+03 -0.11355496832E+04  0.14760957202E+04  0.65864270000E+03 0. -1.
    8880022    1    1    2    0    0  0.12352299916E+03 -0.66356412993E+03  0.11446125965E+03  0.70147581486E+03  0.15294330000E+03 0.  0.
<mgrwt>
<rscale>  0 0.87286475E+03</rscale>
<asrwt>0</asrwt>
<pdfrwt beam="1">  1        2 0.24605076E+00 0.94307237E+03</pdfrwt>
<pdfrwt beam="2">  1       -2 0.88960240E-01 0.94307237E+03</pdfrwt>
<totfact> 0.12152251E+01</totfact>
</mgrwt>
</event>
<event>
 4    1  0.1998832E-007  0.8189494E+03  0.7818608E-02  0.9671228E-01
         -2   -1    0    0    0  501 -0.00000000000E+00  0.00000000000E+00  0.96962766532E+03  0.96962766533E+03  0.25500000000E-02 0.  1.
          2   -1    0    0  501    0  0.00000000000E+00 -0.00000000000E+00 -0.86480201713E+03  0.86480201713E+03  0.25500000000E-02 0. -1.
    8880023    1    1    2    0    0  0.40949034380E+03 -0.26303163445E+03  0.68082714512E+03  0.10649900423E+04  0.65864270000E+03 0.  1.
    8880022    1    1    2    0    0 -0.40949034380E+03  0.26303163445E+03 -0.57600149692E+03  0.76943964017E+03  0.15294330000E+03 0.  0.
<mgrwt>
<rscale>  0 0.72755976E+03</rscale>
<asrwt>0</asrwt>
<pdfrwt beam="1">  1        2 0.13304646E+00 0.81894944E+03</pdfrwt>
<pdfrwt beam="2">  1       -2 0.14917349E+00 0.81894944E+03</pdfrwt>
<totfact> 0.95089195E+00</totfact>
</mgrwt>
</event>
<event>
 4    1  0.1998832E-007  0.2060900E+04  0.7818608E-02  0.8590482E-01
         -2   -1    0    0    0  501 -0.00000000000E+00  0.00000000000E+00  0.22936288621E+04  0.22936288621E+04  0.25500000000E-02 0.  1.
          2   -1    0    0  501    0  0.00000000000E+00 -0.00000000000E+00 -0.20412970344E+04  0.20412970344E+04  0.25500000000E-02 0. -1.
    8880023    1    1    2    0    0 -0.18205554212E+04 -0.70645440707E+03  0.93161921072E+03  0.22616861920E+04  0.65864270000E+03 0.  0.
    8880022    1    1    2    0    0  0.18205554212E+04  0.70645440707E+03 -0.67928738302E+03  0.20732397046E+04  0.15294330000E+03 0.  0.
<mgrwt>
<rscale>  0 0.20348864E+04</rscale>
<asrwt>0</asrwt>
<pdfrwt beam="1">  1        2 0.31404570E+00 0.20609003E+04</pdfrwt>
<pdfrwt beam="2">  1       -2 0.35286598E+00 0.20609003E+04</pdfrwt>
<totfact> 0.83488370E-02</totfact>
</mgrwt>
</event>
<event>
 4    1  0.1998832E-007  0.7928065E+03  0.7818608E-02  0.9726571E-01
          2   -1    0    0  501    0  0.00000000000E+00  0.00000000000E+00  0.12715461987E+04  0.12715461987E+04  0.25500000000E-02 0. -1.
         -2   -1    0    0    0  501 -0.00000000000E+00 -0.00000000000E+00 -0.16207687775E+04  0.16207687775E+04  0.25500000000E-02 0.  1.
    8880023    1    1    2    0    0  0.17241992976E+03 -0.40620598847E+03 -0.14744125412E+04  0.16740473366E+04  0.65864270000E+03 0.  1.
    8880022    1    1    2    0    0 -0.17241992976E+03  0.40620598847E+03  0.11251899624E+04  0.12182676396E+04  0.15294330000E+03 0.  0.
<mgrwt>
<rscale>  0 0.69456554E+03</rscale>
<asrwt>0</asrwt>
<pdfrwt beam="1">  1        2 0.19562249E+00 0.79280650E+03</pdfrwt>
<pdfrwt beam="2">  1       -2 0.24934904E+00 0.79280650E+03</pdfrwt>
<totfact> 0.11474502E+00</totfact>
</mgrwt>
</event>
<event>
 4    1  0.1998832E-007  0.1046120E+04  0.7818608E-02  0.9323561E-01
         -2   -1    0    0    0  501 -0.00000000000E+00  0.00000000000E+00  0.39081990642E+03  0.39081990642E+03  0.25500000000E-02 0.  1.
          2   -1    0    0  501    0  0.00000000000E+00 -0.00000000000E+00 -0.30068312585E+04  0.30068312585E+04  0.25500000000E-02 0. -1.
    8880023    1    1    2    0    0  0.71910063139E+03  0.37874851985E+03 -0.57114024384E+03  0.11918756411E+04  0.65864270000E+03 0.  0.
    8880022    1    1    2    0    0 -0.71910063139E+03 -0.37874851985E+03 -0.20448711082E+04  0.22057755238E+04  0.15294330000E+03 0.  0.
<mgrwt>
<rscale>  0 0.98642461E+03</rscale>
<asrwt>0</asrwt>
<pdfrwt beam="1">  1        2 0.46258941E+00 0.10461197E+04</pdfrwt>
<pdfrwt beam="2">  1       -2 0.60126142E-01 0.10461197E+04</pdfrwt>
<totfact> 0.45175411E+00</totfact>
</mgrwt>
</event>
<event>
 4    1  0.1998832E-007  0.7473513E+03  0.7818608E-02  0.9839029E-01
         -2   -1    0    0    0  501 -0.00000000000E+00  0.00000000000E+00  0.21045216024E+03  0.21045216025E+03  0.25500000000E-02 0.  1.
          2   -1    0    0  501    0  0.00000000000E+00 -0.00000000000E+00 -0.32777534279E+04  0.32777534279E+04  0.25500000000E-02 0. -1.
    8880023    1    1    2    0    0  0.45779173695E+02  0.35018275297E+03 -0.51633115485E+03  0.90836763535E+03  0.65864270000E+03 0.  1.
    8880022    1    1    2    0    0 -0.45779173695E+02 -0.35018275297E+03 -0.25509701128E+04  0.25798379528E+04  0.15294330000E+03 0.  0.
<mgrwt>
<rscale>  0 0.63309456E+03</rscale>
<asrwt>0</asrwt>
<pdfrwt beam="1">  1        2 0.50426972E+00 0.74735126E+03</pdfrwt>
<pdfrwt beam="2">  1       -2 0.32377258E-01 0.74735126E+03</pdfrwt>
<totfact> 0.10975860E+01</totfact>
</mgrwt>
</event>
<event>
 4    1  0.1998832E-007  0.1020085E+04  0.7818608E-02  0.9355739E-01
          2   -1    0    0  501    0  0.00000000000E+00  0.00000000000E+00  0.33257272552E+04  0.33257272552E+04  0.25500000000E-02 0. -1.
         -2   -1    0    0    0  501 -0.00000000000E+00 -0.00000000000E+00 -0.50722369246E+03  0.50722369247E+03  0.25500000000E-02 0.  1.
    8880023    1    1    2    0    0  0.77098007926E+03 -0.11114399973E+03  0.12836055358E+03  0.10281293252E+04  0.65864270000E+03 0.  1.
    8880022    1    1    2    0    0 -0.77098007926E+03  0.11114399973E+03  0.26901430092E+04  0.28048216225E+04  0.15294330000E+03 0.  0.
<mgrwt>
<rscale>  0 0.95809417E+03</rscale>
<asrwt>0</asrwt>
<pdfrwt beam="1">  1        2 0.51165036E+00 0.10200850E+04</pdfrwt>
<pdfrwt beam="2">  1       -2 0.78034412E-01 0.10200850E+04</pdfrwt>
<totfact> 0.16066432E+00</totfact>
</mgrwt>
</event>
<event>
 4    1  0.1998832E-007  0.1320535E+04  0.7818608E-02  0.9048026E-01
         -2   -1    0    0    0  501 -0.00000000000E+00  0.00000000000E+00  0.72342267004E+03  0.72342267005E+03  0.25500000000E-02 0.  1.
          2   -1    0    0  501    0  0.00000000000E+00 -0.00000000000E+00 -0.29511367513E+04  0.29511367513E+04  0.25500000000E-02 0. -1.
    8880023    1    1    2    0    0 -0.88858595760E+03  0.72140013788E+03 -0.21424030587E+04  0.25166851680E+04  0.65864270000E+03 0.  0.
    8880022    1    1    2    0    0  0.88858595760E+03 -0.72140013788E+03 -0.85311022636E+02  0.11578742534E+04  0.15294330000E+03 0.  1.
<mgrwt>
<rscale>  0 0.12769749E+04</rscale>
<asrwt>0</asrwt>
<pdfrwt beam="1">  1        2 0.45402103E+00 0.13205353E+04</pdfrwt>
<pdfrwt beam="2">  1       -2 0.11129580E+00 0.13205353E+04</pdfrwt>
<totfact> 0.11610003E+00</totfact>
</mgrwt>
</event>
<event>
 4    1  0.1998832E-007  0.7119189E+03  0.7818608E-02  0.9950943E-01
          2   -1    0    0  501    0  0.00000000000E+00  0.00000000000E+00  0.11869369147E+04  0.11869369147E+04  0.25500000000E-02 0. -1.
         -2   -1    0    0    0  501 -0.00000000000E+00 -0.00000000000E+00 -0.39339788490E+03  0.39339788491E+03  0.25500000000E-02 0.  1.
    8880023    1    1    2    0    0 -0.25049779132E+03  0.10133681697E+03 -0.17246708558E+02  0.71212776182E+03  0.65864270000E+03 0.  1.
    8880022    1    1    2    0    0  0.25049779132E+03 -0.10133681697E+03  0.81078573834E+03  0.86820703778E+03  0.15294330000E+03 0.  0.
<mgrwt>
<rscale>  0 0.57854629E+03</rscale>
<asrwt>0</asrwt>
<pdfrwt beam="1">  1        2 0.18260568E+00 0.71191889E+03</pdfrwt>
<pdfrwt beam="2">  1       -2 0.60522752E-01 0.71191889E+03</pdfrwt>
<totfact> 0.50082675E+01</totfact>
</mgrwt>
</event>
<event>
 4    1  0.1998832E-007  0.8328226E+03  0.7818608E-02  0.9643865E-01
          2   -1    0    0  501    0  0.00000000000E+00  0.00000000000E+00  0.17514661326E+04  0.17514661326E+04  0.25500000000E-02 0. -1.
         -2   -1    0    0    0  501 -0.00000000000E+00 -0.00000000000E+00 -0.48280989900E+03  0.48280989900E+03  0.25500000000E-02 0.  1.
    8880023    1    1    2    0    0  0.32508440766E+03  0.39256015583E+03 -0.27352320971E+02  0.83327168665E+03  0.65864270000E+03 0.  0.
    8880022    1    1    2    0    0 -0.32508440766E+03 -0.39256015583E+03  0.12960085546E+04  0.14010043450E+04  0.15294330000E+03 0.  0.
<mgrwt>
<rscale>  0 0.74459696E+03</rscale>
<asrwt>0</asrwt>
<pdfrwt beam="1">  1        2 0.26945633E+00 0.83282264E+03</pdfrwt>
<pdfrwt beam="2">  1       -2 0.74278447E-01 0.83282264E+03</pdfrwt>
<totfact> 0.15253134E+01</totfact>
</mgrwt>
</event>
<event>
 4    1  0.1998832E-007  0.6849077E+03  0.7818608E-02  0.1006673E+00
         -2   -1    0    0    0  501 -0.00000000000E+00  0.00000000000E+00  0.15562969671E+03  0.15562969674E+03  0.25500000000E-02 0.  1.
          2   -1    0    0  501    0  0.00000000000E+00 -0.00000000000E+00 -0.15292204029E+04  0.15292204029E+04  0.25500000000E-02 0. -1.
    8880023    1    1    2    0    0  0.18563668560E+03  0.28763082921E+02 -0.74904420770E+03  0.10149708002E+04  0.65864270000E+03 0.  1.
    8880022    1    1    2    0    0 -0.18563668560E+03 -0.28763082921E+02 -0.62454649844E+03  0.66987929936E+03  0.15294330000E+03 0. -1.
<mgrwt>
<rscale>  0 0.52818399E+03</rscale>
<asrwt>0</asrwt>
<pdfrwt beam="1">  1        2 0.23526467E+00 0.68490766E+03</pdfrwt>
<pdfrwt beam="2">  1       -2 0.23943031E-01 0.68490766E+03</pdfrwt>
<totfact> 0.19330271E+02</totfact>
</mgrwt>
</event>
<event>
 4    1  0.1998832E-007  0.1594324E+04  0.7818608E-02  0.8845751E-01
         -2   -1    0    0    0  501 -0.00000000000E+00  0.00000000000E+00  0.10087815514E+04  0.10087815514E+04  0.25500000000E-02 0.  1.
          2   -1    0    0  501    0  0.00000000000E+00 -0.00000000000E+00 -0.29700387214E+04  0.29700387214E+04  0.25500000000E-02 0. -1.
    8880023    1    1    2    0    0  0.13029456336E+04  0.64061870873E+03 -0.78390045641E+02  0.15962502497E+04  0.65864270000E+03 0.  0.
    8880022    1    1    2    0    0 -0.13029456336E+04 -0.64061870873E+03 -0.18828671243E+04  0.23825700231E+04  0.15294330000E+03 0.  0.
<mgrwt>
<rscale>  0 0.15596133E+04</rscale>
<asrwt>0</asrwt>
<pdfrwt beam="1">  1        2 0.45692903E+00 0.15943243E+04</pdfrwt>
<pdfrwt beam="2">  1       -2 0.15519716E+00 0.15943243E+04</pdfrwt>
<totfact> 0.46604871E-01</totfact>
</mgrwt>
</event>
<event>
 4    1  0.1998832E-007  0.1465458E+04  0.7818608E-02  0.8934420E-01
          2   -1    0    0  501    0  0.00000000000E+00  0.00000000000E+00  0.25599500395E+04  0.25599500395E+04  0.25500000000E-02 0. -1.
         -2   -1    0    0    0  501 -0.00000000000E+00 -0.00000000000E+00 -0.13086238001E+04  0.13086238001E+04  0.25500000000E-02 0.  1.
    8880023    1    1    2    0    0  0.10431811984E+04 -0.79090510293E+03  0.19000746246E+04  0.23995523915E+04  0.65864270000E+03 0.  0.
    8880022    1    1    2    0    0 -0.10431811984E+04  0.79090510293E+03 -0.64874838521E+03  0.14690214480E+04  0.15294330000E+03 0.  0.
<mgrwt>
<rscale>  0 0.14271176E+04</rscale>
<asrwt>0</asrwt>
<pdfrwt beam="1">  1        2 0.39383846E+00 0.14654583E+04</pdfrwt>
<pdfrwt beam="2">  1       -2 0.20132674E+00 0.14654583E+04</pdfrwt>
<totfact> 0.39511783E-01</totfact>
</mgrwt>
</event>
<event>
 4    1  0.1998832E-007  0.1237818E+04  0.7818608E-02  0.9121209E-01
          2   -1    0    0  501    0  0.00000000000E+00  0.00000000000E+00  0.10585073213E+04  0.10585073213E+04  0.25500000000E-02 0. -1.
         -2   -1    0    0    0  501 -0.00000000000E+00 -0.00000000000E+00 -0.14763977406E+04  0.14763977406E+04  0.25500000000E-02 0.  1.
    8880023    1    1    2    0    0  0.10374602427E+04 -0.14852534972E+03 -0.72196834451E+03  0.14329801225E+04  0.65864270000E+03 0.  0.
    8880022    1    1    2    0    0 -0.10374602427E+04  0.14852534972E+03  0.30407792519E+03  0.11019249395E+04  0.15294330000E+03 0.  0.
<mgrwt>
<rscale>  0 0.11905040E+04</rscale>
<asrwt>0</asrwt>
<pdfrwt beam="1">  1        2 0.16284728E+00 0.12378181E+04</pdfrwt>
<pdfrwt beam="2">  1       -2 0.22713811E+00 0.12378181E+04</pdfrwt>
<totfact> 0.19962477E+00</totfact>
</mgrwt>
</event>
<event>
 4    1  0.1998832E-007  0.6727370E+03  0.7818608E-02  0.1013772E+00
          2   -1    0    0  501    0  0.00000000000E+00  0.00000000000E+00  0.11302503242E+04  0.11302503242E+04  0.25500000000E-02 0. -1.
         -2   -1    0    0    0  501 -0.00000000000E+00 -0.00000000000E+00 -0.24803272663E+03  0.24803272664E+03  0.25500000000E-02 0.  1.
    8880023    1    1    2    0    0 -0.12134017306E+03  0.63572336655E+02  0.25689989832E+03  0.72011988141E+03  0.65864270000E+03 0.  1.
    8880022    1    1    2    0    0  0.12134017306E+03 -0.63572336655E+02  0.62531769924E+03  0.65816316942E+03  0.15294330000E+03 0.  0.
<mgrwt>
<rscale>  0 0.50002544E+03</rscale>
<asrwt>0</asrwt>
<pdfrwt beam="1">  1        2 0.17388467E+00 0.67273701E+03</pdfrwt>
<pdfrwt beam="2">  1       -2 0.38158881E-01 0.67273701E+03</pdfrwt>
<totfact> 0.13789370E+02</totfact>
</mgrwt>
</event>
<event>
 4    1  0.1998832E-007  0.1666873E+04  0.7818608E-02  0.8799988E-01
         -2   -1    0    0    0  501 -0.00000000000E+00  0.00000000000E+00  0.11418055241E+04  0.11418055241E+04  0.25500000000E-02 0.  1.
          2   -1    0    0  501    0  0.00000000000E+00 -0.00000000000E+00 -0.27539290517E+04  0.27539290517E+04  0.25500000000E-02 0. -1.
    8880023    1    1    2    0    0  0.12429333424E+04  0.89429912704E+03  0.25965338462E+00  0.16668726694E+04  0.65864270000E+03 0.  0.
    8880022    1    1    2    0    0 -0.12429333424E+04 -0.89429912704E+03 -0.16123831810E+04  0.22288619064E+04  0.15294330000E+03 0.  0.
<mgrwt>
<rscale>  0 0.16339004E+04</rscale>
<asrwt>0</asrwt>
<pdfrwt beam="1">  1        2 0.42368139E+00 0.16668726E+04</pdfrwt>
<pdfrwt beam="2">  1       -2 0.17566239E+00 0.16668726E+04</pdfrwt>
<totfact> 0.44391184E-01</totfact>
</mgrwt>
</event>
<event>
 4    1  0.1998832E-007  0.9385211E+03  0.7818608E-02  0.9466826E-01
          2   -1    0    0  501    0  0.00000000000E+00  0.00000000000E+00  0.18208665788E+04  0.18208665788E+04  0.25500000000E-02 0. -1.
         -2   -1    0    0    0  501 -0.00000000000E+00 -0.00000000000E+00 -0.92712760896E+03  0.92712760897E+03  0.25500000000E-02 0.  1.
    8880023    1    1    2    0    0  0.65171157247E+03  0.14927693783E+03 -0.59335604254E+03  0.11103572296E+04  0.65864270000E+03 0.  0.
    8880022    1    1    2    0    0 -0.65171157247E+03 -0.14927693783E+03  0.14870950123E+04  0.16376369581E+04  0.15294330000E+03 0.  0.
<mgrwt>
<rscale>  0 0.86774437E+03</rscale>
<asrwt>0</asrwt>
<pdfrwt beam="1">  1        2 0.28013332E+00 0.93852106E+03</pdfrwt>
<pdfrwt beam="2">  1       -2 0.14263502E+00 0.93852106E+03</pdfrwt>
<totfact> 0.28853450E+00</totfact>
</mgrwt>
</event>
<event>
 4    1  0.1998832E-007  0.8211752E+03  0.7818608E-02  0.9666753E-01
          2   -1    0    0  501    0  0.00000000000E+00  0.00000000000E+00  0.20004984360E+04  0.20004984360E+04  0.25500000000E-02 0. -1.
         -2   -1    0    0    0  501 -0.00000000000E+00 -0.00000000000E+00 -0.75164797077E+03  0.75164797077E+03  0.25500000000E-02 0.  1.
    8880023    1    1    2    0    0 -0.31628063749E+03  0.37481339304E+03 -0.47823082323E+03  0.95028072053E+03  0.65864270000E+03 0.  1.
    8880022    1    1    2    0    0  0.31628063749E+03 -0.37481339304E+03  0.17270812884E+04  0.18018656862E+04  0.15294330000E+03 0.  0.
<mgrwt>
<rscale>  0 0.73031276E+03</rscale>
<asrwt>0</asrwt>
<pdfrwt beam="1">  1        2 0.30776898E+00 0.82117521E+03</pdfrwt>
<pdfrwt beam="2">  1       -2 0.11563815E+00 0.82117521E+03</pdfrwt>
<totfact> 0.39792420E+00</totfact>
</mgrwt>
</event>
<event>
 4    1  0.1998832E-007  0.7336862E+03  0.7818608E-02  0.9878736E-01
         -2   -1    0    0    0  501 -0.00000000000E+00  0.00000000000E+00  0.85829569166E+02  0.85829569204E+02  0.25500000000E-02 0.  1.
          2   -1    0    0  501    0  0.00000000000E+00 -0.00000000000E+00 -0.42270945189E+04  0.42270945189E+04  0.25500000000E-02 0. -1.
    8880023    1    1    2    0    0 -0.79671530299E+02 -0.31326924474E+03 -0.17885138689E+04  0.19331521508E+04  0.65864270000E+03 0.  0.
    8880022    1    1    2    0    0  0.79671530299E+02  0.31326924474E+03 -0.23527510808E+04  0.23797719373E+04  0.15294330000E+03 0.  0.
<mgrwt>
<rscale>  0 0.61303000E+03</rscale>
<asrwt>0</asrwt>
<pdfrwt beam="1">  1        2 0.65032207E+00 0.73368616E+03</pdfrwt>
<pdfrwt beam="2">  1       -2 0.13204552E-01 0.73368616E+03</pdfrwt>
<totfact> 0.10685948E+01</totfact>
</mgrwt>
</event>
<event>
 4    1  0.1998832E-007  0.1571134E+04  0.7818608E-02  0.8860973E-01
          2   -1    0    0  501    0  0.00000000000E+00  0.00000000000E+00  0.39700659836E+04  0.39700659836E+04  0.25500000000E-02 0. -1.
         -2   -1    0    0    0  501 -0.00000000000E+00 -0.00000000000E+00 -0.85165167612E+03  0.85165167613E+03  0.25500000000E-02 0.  1.
    8880023    1    1    2    0    0  0.74048495747E+03 -0.12191531119E+04  0.21836309010E+03  0.15862360883E+04  0.65864270000E+03 0.  0.
    8880022    1    1    2    0    0 -0.74048495747E+03  0.12191531119E+04  0.29000512174E+04  0.32354815714E+04  0.15294330000E+03 0.  0.
<mgrwt>
<rscale>  0 0.15358252E+04</rscale>
<asrwt>0</asrwt>
<pdfrwt beam="1">  1        2 0.61077938E+00 0.15711341E+04</pdfrwt>
<pdfrwt beam="2">  1       -2 0.13102333E+00 0.15711341E+04</pdfrwt>
<totfact> 0.14697976E-01</totfact>
</mgrwt>
</event>
<event>
 4    1  0.1998832E-007  0.8111217E+03  0.7818608E-02  0.9687245E-01
          2   -1    0    0  501    0  0.00000000000E+00  0.00000000000E+00  0.23899956250E+04  0.23899956250E+04  0.25500000000E-02 0. -1.
         -2   -1    0    0    0  501 -0.00000000000E+00 -0.00000000000E+00 -0.22289328821E+03  0.22289328823E+03  0.25500000000E-02 0.  1.
    8880023    1    1    2    0    0 -0.47260498947E+03 -0.27437214217E+02  0.72687459193E+03  0.10891580030E+04  0.65864270000E+03 0.  0.
    8880022    1    1    2    0    0  0.47260498947E+03  0.27437214217E+02  0.14402277449E+04  0.15237309103E+04  0.15294330000E+03 0.  0.
<mgrwt>
<rscale>  0 0.71781316E+03</rscale>
<asrwt>0</asrwt>
<pdfrwt beam="1">  1        2 0.36769164E+00 0.81112174E+03</pdfrwt>
<pdfrwt beam="2">  1       -2 0.34291274E-01 0.81112174E+03</pdfrwt>
<totfact> 0.33111173E+01</totfact>
</mgrwt>
</event>
<event>
 4    1  0.1998832E-007  0.1221249E+04  0.7818608E-02  0.9136739E-01
         -2   -1    0    0    0  501 -0.00000000000E+00  0.00000000000E+00  0.55192999307E+03  0.55192999307E+03  0.25500000000E-02 0.  1.
          2   -1    0    0  501    0  0.00000000000E+00 -0.00000000000E+00 -0.24659816349E+04  0.24659816349E+04  0.25500000000E-02 0. -1.
    8880023    1    1    2    0    0 -0.98623518924E+03  0.29151190505E+03 -0.14007788472E+04  0.18583946363E+04  0.65864270000E+03 0.  0.
    8880022    1    1    2    0    0  0.98623518924E+03 -0.29151190505E+03 -0.51327279470E+03  0.11595169917E+04  0.15294330000E+03 0.  0.
<mgrwt>
<rscale>  0 0.11730943E+04</rscale>
<asrwt>0</asrwt>
<pdfrwt beam="1">  1        2 0.37938178E+00 0.12212491E+04</pdfrwt>
<pdfrwt beam="2">  1       -2 0.84912308E-01 0.12212491E+04</pdfrwt>
<totfact> 0.43240254E+00</totfact>
</mgrwt>
</event>
<event>
 4    1  0.1998832E-007  0.1582894E+04  0.7818608E-02  0.8853216E-01
         -2   -1    0    0    0  501 -0.00000000000E+00  0.00000000000E+00  0.11124549423E+04  0.11124549423E+04  0.25500000000E-02 0.  1.
          2   -1    0    0  501    0  0.00000000000E+00 -0.00000000000E+00 -0.26232801753E+04  0.26232801753E+04  0.25500000000E-02 0. -1.
    8880023    1    1    2    0    0  0.18560049614E+03 -0.14273390484E+04  0.80049346010E+02  0.15849171610E+04  0.65864270000E+03 0.  0.
    8880022    1    1    2    0    0 -0.18560049614E+03  0.14273390484E+04 -0.15908745791E+04  0.21508179566E+04  0.15294330000E+03 0.  0.
<mgrwt>
<rscale>  0 0.15478913E+04</rscale>
<asrwt>0</asrwt>
<pdfrwt beam="1">  1        2 0.40358156E+00 0.15828943E+04</pdfrwt>
<pdfrwt beam="2">  1       -2 0.17114691E+00 0.15828943E+04</pdfrwt>
<totfact> 0.57639247E-01</totfact>
</mgrwt>
</event>
<event>
 4    1  0.1998832E-007  0.1406425E+04  0.7818608E-02  0.8978706E-01
          2   -1    0    0  501    0  0.00000000000E+00  0.00000000000E+00  0.30328902000E+04  0.30328902000E+04  0.25500000000E-02 0. -1.
         -2   -1    0    0    0  501 -0.00000000000E+00 -0.00000000000E+00 -0.12896962240E+04  0.12896962240E+04  0.25500000000E-02 0.  1.
    8880023    1    1    2    0    0  0.69405018919E+03  0.10307843907E+04 -0.70468545475E+03  0.15730905637E+04  0.65864270000E+03 0.  0.
    8880022    1    1    2    0    0 -0.69405018919E+03 -0.10307843907E+04  0.24478794307E+04  0.27494958603E+04  0.15294330000E+03 0.  0.
<mgrwt>
<rscale>  0 0.13661312E+04</rscale>
<asrwt>0</asrwt>
<pdfrwt beam="1">  1        2 0.46659848E+00 0.14064254E+04</pdfrwt>
<pdfrwt beam="2">  1       -2 0.19841481E+00 0.14064254E+04</pdfrwt>
<totfact> 0.21586836E-01</totfact>
</mgrwt>
</event>
<event>
 4    1  0.1998832E-007  0.9277997E+03  0.7818608E-02  0.9482802E-01
         -2   -1    0    0    0  501 -0.00000000000E+00  0.00000000000E+00  0.33459164133E+03  0.33459164134E+03  0.25500000000E-02 0.  1.
          2   -1    0    0  501    0  0.00000000000E+00 -0.00000000000E+00 -0.21178057081E+04  0.21178057081E+04  0.25500000000E-02 0. -1.
    8880023    1    1    2    0    0 -0.25728857924E+03 -0.60067013933E+03 -0.14001556716E+04  0.16796571496E+04  0.65864270000E+03 0.  0.
    8880022    1    1    2    0    0  0.25728857924E+03  0.60067013933E+03 -0.38305839516E+03  0.77274019981E+03  0.15294330000E+03 0.  0.
<mgrwt>
<rscale>  0 0.85563728E+03</rscale>
<asrwt>0</asrwt>
<pdfrwt beam="1">  1        2 0.32581626E+00 0.92779967E+03</pdfrwt>
<pdfrwt beam="2">  1       -2 0.51475638E-01 0.92779967E+03</pdfrwt>
<totfact> 0.20751647E+01</totfact>
</mgrwt>
</event>
<event>
 4    1  0.1998832E-007  0.8444076E+03  0.7818608E-02  0.9621925E-01
          2   -1    0    0  501    0  0.00000000000E+00  0.00000000000E+00  0.19424725211E+04  0.19424725211E+04  0.25500000000E-02 0. -1.
         -2   -1    0    0    0  501 -0.00000000000E+00 -0.00000000000E+00 -0.38203072795E+03  0.38203072796E+03  0.25500000000E-02 0.  1.
    8880023    1    1    2    0    0  0.50412345026E+03 -0.15834605687E+03  0.21558916970E+03  0.87149459160E+03  0.65864270000E+03 0.  1.
    8880022    1    1    2    0    0 -0.50412345026E+03  0.15834605687E+03  0.13448526234E+04  0.14530086574E+04  0.15294330000E+03 0.  0.
<mgrwt>
<rscale>  0 0.75861898E+03</rscale>
<asrwt>0</asrwt>
<pdfrwt beam="1">  1        2 0.29884192E+00 0.84440756E+03</pdfrwt>
<pdfrwt beam="2">  1       -2 0.58773959E-01 0.84440756E+03</pdfrwt>
<totfact> 0.19852544E+01</totfact>
</mgrwt>
</event>
<event>
 4    1  0.1998832E-007  0.6761140E+03  0.7818608E-02  0.1011613E+00
         -2   -1    0    0    0  501 -0.00000000000E+00  0.00000000000E+00  0.13123466441E+04  0.13123466441E+04  0.25500000000E-02 0.  1.
          2   -1    0    0  501    0  0.00000000000E+00 -0.00000000000E+00 -0.14546991256E+04  0.14546991256E+04  0.25500000000E-02 0. -1.
    8880023    1    1    2    0    0  0.12595079138E+03  0.86350297380E+02  0.12161510549E+04  0.13914573548E+04  0.65864270000E+03 0.  1.
    8880022    1    1    2    0    0 -0.12595079138E+03 -0.86350297380E+02 -0.13585035364E+04  0.13755884149E+04  0.15294330000E+03 0.  0.
<mgrwt>
<rscale>  0 0.50838542E+03</rscale>
<asrwt>0</asrwt>
<pdfrwt beam="1">  1        2 0.22379987E+00 0.67611403E+03</pdfrwt>
<pdfrwt beam="2">  1       -2 0.20189948E+00 0.67611403E+03</pdfrwt>
<totfact> 0.18208286E+00</totfact>
</mgrwt>
</event>
<event>
 4    1  0.1998832E-007  0.1065990E+04  0.7818608E-02  0.9299902E-01
          2   -1    0    0  501    0  0.00000000000E+00  0.00000000000E+00  0.15574132004E+04  0.15574132004E+04  0.25500000000E-02 0. -1.
         -2   -1    0    0    0  501 -0.00000000000E+00 -0.00000000000E+00 -0.18156164543E+04  0.18156164543E+04  0.25500000000E-02 0.  1.
    8880023    1    1    2    0    0  0.50669421853E+03  0.66767149753E+03 -0.15163431717E+04  0.18535455431E+04  0.65864270000E+03 0.  0.
    8880022    1    1    2    0    0 -0.50669421853E+03 -0.66767149753E+03  0.12581399178E+04  0.15194841116E+04  0.15294330000E+03 0.  0.
<mgrwt>
<rscale>  0 0.10079189E+04</rscale>
<asrwt>0</asrwt>
<pdfrwt beam="1">  1        2 0.23960203E+00 0.10659899E+04</pdfrwt>
<pdfrwt beam="2">  1       -2 0.27932561E+00 0.10659899E+04</pdfrwt>
<totfact> 0.49707578E-01</totfact>
</mgrwt>
</event>
<event>
 4    1  0.1998832E-007  0.8146858E+03  0.7818608E-02  0.9679898E-01
         -2   -1    0    0    0  501 -0.00000000000E+00  0.00000000000E+00  0.82958649978E+03  0.82958649978E+03  0.25500000000E-02 0.  1.
          2   -1    0    0  501    0  0.00000000000E+00 -0.00000000000E+00 -0.11499290670E+04  0.11499290670E+04  0.25500000000E-02 0. -1.
    8880023    1    1    2    0    0 -0.33875590481E+03  0.33933350361E+03  0.54379397402E+03  0.97950236455E+03  0.65864270000E+03 0.  1.
    8880022    1    1    2    0    0  0.33875590481E+03 -0.33933350361E+03 -0.86413654119E+03  0.10000132022E+04  0.15294330000E+03 0.  0.
<mgrwt>
<rscale>  0 0.72226377E+03</rscale>
<asrwt>0</asrwt>
<pdfrwt beam="1">  1        2 0.17691216E+00 0.81468583E+03</pdfrwt>
<pdfrwt beam="2">  1       -2 0.12762869E+00 0.81468583E+03</pdfrwt>
<totfact> 0.93439428E+00</totfact>
</mgrwt>
</event>
<event>
 4    1  0.1998832E-007  0.1042620E+04  0.7818608E-02  0.9327806E-01
          2   -1    0    0  501    0  0.00000000000E+00  0.00000000000E+00  0.27506422525E+04  0.27506422525E+04  0.25500000000E-02 0. -1.
         -2   -1    0    0    0  501 -0.00000000000E+00 -0.00000000000E+00 -0.89329382032E+03  0.89329382032E+03  0.25500000000E-02 0.  1.
    8880023    1    1    2    0    0  0.79558424810E+03  0.14245165738E+03 -0.49336318217E+03  0.11534575009E+04  0.65864270000E+03 0.  0.
    8880022    1    1    2    0    0 -0.79558424810E+03 -0.14245165738E+03  0.23507116143E+04  0.24904785720E+04  0.15294330000E+03 0.  0.
<mgrwt>
<rscale>  0 0.98262814E+03</rscale>
<asrwt>0</asrwt>
<pdfrwt beam="1">  1        2 0.42317572E+00 0.10426202E+04</pdfrwt>
<pdfrwt beam="2">  1       -2 0.13742982E+00 0.10426202E+04</pdfrwt>
<totfact> 0.93741173E-01</totfact>
</mgrwt>
</event>
<event>
 4    1  0.1998832E-007  0.1294982E+04  0.7818608E-02  0.9069905E-01
          2   -1    0    0  501    0  0.00000000000E+00  0.00000000000E+00  0.15253111659E+04  0.15253111659E+04  0.25500000000E-02 0. -1.
         -2   -1    0    0    0  501 -0.00000000000E+00 -0.00000000000E+00 -0.10185925081E+04  0.10185925081E+04  0.25500000000E-02 0.  1.
    8880023    1    1    2    0    0 -0.18401120708E+03  0.10996852953E+04  0.57396871055E+03  0.14164809070E+04  0.65864270000E+03 0.  0.
    8880022    1    1    2    0    0  0.18401120708E+03 -0.10996852953E+04 -0.67250052769E+02  0.11274227670E+04  0.15294330000E+03 0.  0.
<mgrwt>
<rscale>  0 0.12503338E+04</rscale>
<asrwt>0</asrwt>
<pdfrwt beam="1">  1        2 0.23466326E+00 0.12949819E+04</pdfrwt>
<pdfrwt beam="2">  1       -2 0.15670654E+00 0.12949819E+04</pdfrwt>
<totfact> 0.31520976E+00</totfact>
</mgrwt>
</event>
<event>
 4    1  0.1998832E-007  0.1165949E+04  0.7818608E-02  0.9190955E-01
          2   -1    0    0  501    0  0.00000000000E+00  0.00000000000E+00  0.11204261278E+04  0.11204261278E+04  0.25500000000E-02 0. -1.
         -2   -1    0    0    0  501 -0.00000000000E+00 -0.00000000000E+00 -0.14020647237E+04  0.14020647237E+04  0.25500000000E-02 0.  1.
    8880023    1    1    2    0    0  0.84960323117E+03 -0.45144243664E+03  0.50475724787E+03  0.12705180084E+04  0.65864270000E+03 0.  0.
    8880022    1    1    2    0    0 -0.84960323117E+03  0.45144243664E+03 -0.78639584371E+03  0.12519728432E+04  0.15294330000E+03 0.  0.
<mgrwt>
<rscale>  0 0.11147278E+04</rscale>
<asrwt>0</asrwt>
<pdfrwt beam="1">  1        2 0.17237325E+00 0.11659486E+04</pdfrwt>
<pdfrwt beam="2">  1       -2 0.21570227E+00 0.11659486E+04</pdfrwt>
<totfact> 0.21722798E+00</totfact>
</mgrwt>
</event>
<event>
 4    1  0.1998832E-007  0.9590778E+03  0.7818608E-02  0.9437172E-01
          2   -1    0    0  501    0  0.00000000000E+00  0.00000000000E+00  0.25753553299E+04  0.25753553299E+04  0.25500000000E-02 0. -1.
         -2   -1    0    0    0  501 -0.00000000000E+00 -0.00000000000E+00 -0.14539282851E+04  0.14539282851E+04  0.25500000000E-02 0.  1.
    8880023    1    1    2    0    0  0.31145669773E+03  0.62371046929E+03 -0.12369866421E+04  0.15652367818E+04  0.65864270000E+03 0.  1.
    8880022    1    1    2    0    0 -0.31145669773E+03 -0.62371046929E+03  0.23584136869E+04  0.24640468331E+04  0.15294330000E+03 0.  0.
<mgrwt>
<rscale>  0 0.89078725E+03</rscale>
<asrwt>0</asrwt>
<pdfrwt beam="1">  1        2 0.39620851E+00 0.95907780E+03</pdfrwt>
<pdfrwt beam="2">  1       -2 0.22368128E+00 0.95907780E+03</pdfrwt>
<totfact> 0.29998184E-01</totfact>
</mgrwt>
</event>
<event>
 4    1  0.1998832E-007  0.6848787E+03  0.7818608E-02  0.1006688E+00
         -2   -1    0    0    0  501 -0.00000000000E+00  0.00000000000E+00  0.28471161121E+03  0.28471161122E+03  0.25500000000E-02 0.  1.
          2   -1    0    0  501    0  0.00000000000E+00 -0.00000000000E+00 -0.15815971628E+04  0.15815971628E+04  0.25500000000E-02 0. -1.
    8880023    1    1    2    0    0  0.15031688076E+03 -0.11248773138E+03 -0.15920184282E+03  0.70313873978E+03  0.65864270000E+03 0.  0.
    8880022    1    1    2    0    0 -0.15031688076E+03  0.11248773138E+03 -0.11376837088E+04  0.11631700343E+04  0.15294330000E+03 0. -1.
<mgrwt>
<rscale>  0 0.52812264E+03</rscale>
<asrwt>0</asrwt>
<pdfrwt beam="1">  1        2 0.24332264E+00 0.68487872E+03</pdfrwt>
<pdfrwt beam="2">  1       -2 0.43801787E-01 0.68487872E+03</pdfrwt>
<totfact> 0.58113235E+01</totfact>
</mgrwt>
</event>
<event>
 4    1  0.1998832E-007  0.1343086E+04  0.7818608E-02  0.9029218E-01
         -2   -1    0    0    0  501 -0.00000000000E+00  0.00000000000E+00  0.10775392743E+04  0.10775392743E+04  0.25500000000E-02 0.  1.
          2   -1    0    0  501    0  0.00000000000E+00 -0.00000000000E+00 -0.20265478559E+04  0.20265478559E+04  0.25500000000E-02 0. -1.
    8880023    1    1    2    0    0 -0.51783213668E+01  0.11704881617E+04  0.30983035866E+03  0.13783593179E+04  0.65864270000E+03 0.  0.
    8880022    1    1    2    0    0  0.51783213668E+01 -0.11704881617E+04 -0.12588389402E+04  0.17257278123E+04  0.15294330000E+03 0.  0.
<mgrwt>
<rscale>  0 0.13004381E+04</rscale>
<asrwt>0</asrwt>
<pdfrwt beam="1">  1        2 0.31177659E+00 0.13430858E+04</pdfrwt>
<pdfrwt beam="2">  1       -2 0.16577527E+00 0.13430858E+04</pdfrwt>
<totfact> 0.14126863E+00</totfact>
</mgrwt>
</event>
<event>
 4    1  0.1998832E-007  0.8018202E+03  0.7818608E-02  0.9706874E-01
         -2   -1    0    0    0  501 -0.00000000000E+00  0.00000000000E+00  0.47579123128E+03  0.47579123129E+03  0.25500000000E-02 0.  1.
          2   -1    0    0  501    0  0.00000000000E+00 -0.00000000000E+00 -0.12554151253E+04  0.12554151253E+04  0.25500000000E-02 0. -1.
    8880023    1    1    2    0    0 -0.27790148938E+03  0.36314768203E+03  0.14737319642E+02  0.80195565439E+03  0.65864270000E+03 0.  1.
    8880022    1    1    2    0    0  0.27790148938E+03 -0.36314768203E+03 -0.79436121371E+03  0.92925070224E+03  0.15294330000E+03 0.  0.
<mgrwt>
<rscale>  0 0.70608983E+03</rscale>
<asrwt>0</asrwt>
<pdfrwt beam="1">  1        2 0.19314079E+00 0.80182023E+03</pdfrwt>
<pdfrwt beam="2">  1       -2 0.73198652E-01 0.80182023E+03</pdfrwt>
<totfact> 0.30002898E+01</totfact>
</mgrwt>
</event>
<event>
 4    1  0.1998832E-007  0.7758626E+03  0.7818608E-02  0.9765647E-01
          2   -1    0    0  501    0  0.00000000000E+00  0.00000000000E+00  0.50259779764E+03  0.50259779765E+03  0.25500000000E-02 0. -1.
         -2   -1    0    0    0  501 -0.00000000000E+00 -0.00000000000E+00 -0.85321633662E+03  0.85321633662E+03  0.25500000000E-02 0.  1.
    8880023    1    1    2    0    0 -0.40721031866E+03  0.48294574354E+02 -0.46358699737E+03  0.90381177240E+03  0.65864270000E+03 0.  1.
    8880022    1    1    2    0    0  0.40721031866E+03 -0.48294574354E+02  0.11296845839E+03  0.45200236187E+03  0.15294330000E+03 0.  0.
<mgrwt>
<rscale>  0 0.67239158E+03</rscale>
<asrwt>0</asrwt>
<pdfrwt beam="1">  1        2 0.77322738E-01 0.77586263E+03</pdfrwt>
<pdfrwt beam="2">  1       -2 0.13126405E+00 0.77586263E+03</pdfrwt>
<totfact> 0.26211904E+01</totfact>
</mgrwt>
</event>
<event>
 4    1  0.1998832E-007  0.9852033E+03  0.7818608E-02  0.9401177E-01
         -2   -1    0    0    0  501 -0.00000000000E+00  0.00000000000E+00  0.73531359844E+03  0.73531359845E+03  0.25500000000E-02 0.  1.
          2   -1    0    0  501    0  0.00000000000E+00 -0.00000000000E+00 -0.17066576702E+04  0.17066576702E+04  0.25500000000E-02 0. -1.
    8880023    1    1    2    0    0 -0.60702941750E+03  0.41028126553E+03 -0.12944633028E+04  0.16267331924E+04  0.65864270000E+03 0. -1.
    8880022    1    1    2    0    0  0.60702941750E+03 -0.41028126553E+03  0.32311923105E+03  0.81523807630E+03  0.15294330000E+03 0.  0.
<mgrwt>
<rscale>  0 0.91978852E+03</rscale>
<asrwt>0</asrwt>
<pdfrwt beam="1">  1        2 0.26256272E+00 0.98520335E+03</pdfrwt>
<pdfrwt beam="2">  1       -2 0.11312517E+00 0.98520335E+03</pdfrwt>
<totfact> 0.59553626E+00</totfact>
</mgrwt>
</event>
<event>
 4    1  0.1998832E-007  0.7055077E+03  0.7818608E-02  0.9975077E-01
         -2   -1    0    0    0  501 -0.00000000000E+00  0.00000000000E+00  0.99777849666E+02  0.99777849699E+02  0.25500000000E-02 0.  1.
          2   -1    0    0  501    0  0.00000000000E+00 -0.00000000000E+00 -0.28684120695E+04  0.28684120695E+04  0.25500000000E-02 0. -1.
    8880023    1    1    2    0    0  0.25172404272E+03 -0.23787715347E+02 -0.13964679344E+04  0.15645650345E+04  0.65864270000E+03 0.  0.
    8880022    1    1    2    0    0 -0.25172404272E+03  0.23787715347E+02 -0.13721662854E+04  0.14036248846E+04  0.15294330000E+03 0.  0.
<mgrwt>
<rscale>  0 0.56756691E+03</rscale>
<asrwt>0</asrwt>
<pdfrwt beam="1">  1        2 0.44129410E+00 0.70550766E+03</pdfrwt>
<pdfrwt beam="2">  1       -2 0.15350441E-01 0.70550766E+03</pdfrwt>
<totfact> 0.74794419E+01</totfact>
</mgrwt>
</event>
<event>
 4    1  0.1998832E-007  0.7491197E+03  0.7818608E-02  0.9834136E-01
         -2   -1    0    0    0  501 -0.00000000000E+00  0.00000000000E+00  0.26737552954E+03  0.26737552955E+03  0.25500000000E-02 0.  1.
          2   -1    0    0  501    0  0.00000000000E+00 -0.00000000000E+00 -0.19045880149E+04  0.19045880149E+04  0.25500000000E-02 0. -1.
    8880023    1    1    2    0    0 -0.20441752978E+02  0.35630369949E+03 -0.34885027691E+03  0.82636366903E+03  0.65864270000E+03 0.  1.
    8880022    1    1    2    0    0  0.20441752978E+02 -0.35630369949E+03 -0.12883622084E+04  0.13455998754E+04  0.15294330000E+03 0.  0.
<mgrwt>
<rscale>  0 0.63562338E+03</rscale>
<asrwt>0</asrwt>
<pdfrwt beam="1">  1        2 0.29301353E+00 0.74911975E+03</pdfrwt>
<pdfrwt beam="2">  1       -2 0.41134698E-01 0.74911975E+03</pdfrwt>
<totfact> 0.43485948E+01</totfact>
</mgrwt>
</event>
<event>
 4    1  0.1998832E-007  0.1197319E+04  0.7818608E-02  0.9159733E-01
          2   -1    0    0  501    0  0.00000000000E+00  0.00000000000E+00  0.10392959538E+04  0.10392959538E+04  0.25500000000E-02 0. -1.
         -2   -1    0    0    0  501 -0.00000000000E+00 -0.00000000000E+00 -0.15798765421E+04  0.15798765421E+04  0.25500000000E-02 0.  1.
    8880023    1    1    2    0    0  0.20704273384E+03  0.97821027103E+03 -0.94952160009E+03  0.15281241780E+04  0.65864270000E+03 0.  0.
    8880022    1    1    2    0    0 -0.20704273384E+03 -0.97821027103E+03  0.40894101172E+03  0.10910483179E+04  0.15294330000E+03 0.  0.
<mgrwt>
<rscale>  0 0.11478892E+04</rscale>
<asrwt>0</asrwt>
<pdfrwt beam="1">  1        2 0.15989169E+00 0.11973188E+04</pdfrwt>
<pdfrwt beam="2">  1       -2 0.24305793E+00 0.11973188E+04</pdfrwt>
<totfact> 0.16418245E+00</totfact>
</mgrwt>
</event>
<event>
 4    1  0.1998832E-007  0.9854776E+03  0.7818608E-02  0.9400809E-01
         -2   -1    0    0    0  501 -0.00000000000E+00  0.00000000000E+00  0.83250589556E+03  0.83250589556E+03  0.25500000000E-02 0.  1.
          2   -1    0    0  501    0  0.00000000000E+00 -0.00000000000E+00 -0.16515383183E+04  0.16515383184E+04  0.25500000000E-02 0. -1.
    8880023    1    1    2    0    0  0.36585920010E+03  0.63521882781E+03  0.39168420394E+03  0.10604634060E+04  0.65864270000E+03 0.  1.
    8880022    1    1    2    0    0 -0.36585920010E+03 -0.63521882781E+03 -0.12107166267E+04  0.14235808080E+04  0.15294330000E+03 0.  0.
<mgrwt>
<rscale>  0 0.92009145E+03</rscale>
<asrwt>0</asrwt>
<pdfrwt beam="1">  1        2 0.25408282E+00 0.98547761E+03</pdfrwt>
<pdfrwt beam="2">  1       -2 0.12807783E+00 0.98547761E+03</pdfrwt>
<totfact> 0.46896816E+00</totfact>
</mgrwt>
</event>
<event>
 4    1  0.1998832E-007  0.9317346E+03  0.7818608E-02  0.9476896E-01
         -2   -1    0    0    0  501 -0.00000000000E+00  0.00000000000E+00  0.12748468039E+04  0.12748468039E+04  0.25500000000E-02 0.  1.
          2   -1    0    0  501    0  0.00000000000E+00 -0.00000000000E+00 -0.79237237342E+03  0.79237237343E+03  0.25500000000E-02 0. -1.
    8880023    1    1    2    0    0  0.62733194748E+03 -0.20192524106E+03  0.88076881698E+03  0.12821400433E+04  0.65864270000E+03 0. -1.
    8880022    1    1    2    0    0 -0.62733194748E+03  0.20192524106E+03 -0.39829438655E+03  0.78507913402E+03  0.15294330000E+03 0.  0.
<mgrwt>
<rscale>  0 0.86008836E+03</rscale>
<asrwt>0</asrwt>
<pdfrwt beam="1">  1        2 0.12190344E+00 0.93173461E+03</pdfrwt>
<pdfrwt beam="2">  1       -2 0.19613028E+00 0.93173461E+03</pdfrwt>
<totfact> 0.49193683E+00</totfact>
</mgrwt>
</event>
<event>
 4    1  0.1998832E-007  0.7143908E+03  0.7818608E-02  0.9942044E-01
         -2   -1    0    0    0  501 -0.00000000000E+00  0.00000000000E+00  0.46804188213E+03  0.46804188214E+03  0.25500000000E-02 0.  1.
          2   -1    0    0  501    0  0.00000000000E+00 -0.00000000000E+00 -0.21318448000E+04  0.21318448000E+04  0.25500000000E-02 0. -1.
    8880023    1    1    2    0    0  0.38350434346E+02 -0.27399491741E+03  0.17385066261E+03  0.73524025307E+03  0.65864270000E+03 0.  1.
    8880022    1    1    2    0    0 -0.38350434346E+02  0.27399491741E+03 -0.18376535805E+04  0.18646464291E+04  0.15294330000E+03 0.  0.
<mgrwt>
<rscale>  0 0.58266230E+03</rscale>
<asrwt>0</asrwt>
<pdfrwt beam="1">  1        2 0.32797612E+00 0.71439077E+03</pdfrwt>
<pdfrwt beam="2">  1       -2 0.72006445E-01 0.71439077E+03</pdfrwt>
<totfact> 0.10291946E+01</totfact>
</mgrwt>
</event>
<event>
 4    1  0.1998832E-007  0.7351810E+03  0.7818608E-02  0.9874213E-01
         -2   -1    0    0    0  501 -0.00000000000E+00  0.00000000000E+00  0.11830257862E+04  0.11830257862E+04  0.25500000000E-02 0.  1.
          2   -1    0    0  501    0  0.00000000000E+00 -0.00000000000E+00 -0.12464289936E+04  0.12464289936E+04  0.25500000000E-02 0. -1.
    8880023    1    1    2    0    0 -0.43323629375E+02 -0.32373450460E+03  0.10371651617E+04  0.12712996284E+04  0.65864270000E+03 0.  0.
    8880022    1    1    2    0    0  0.43323629375E+02  0.32373450460E+03 -0.11005683692E+04  0.11581551513E+04  0.15294330000E+03 0.  0.
<mgrwt>
<rscale>  0 0.61527457E+03</rscale>
<asrwt>0</asrwt>
<pdfrwt beam="1">  1        2 0.19175831E+00 0.73518105E+03</pdfrwt>
<pdfrwt beam="2">  1       -2 0.18200397E+00 0.73518105E+03</pdfrwt>
<totfact> 0.32081754E+00</totfact>
</mgrwt>
</event>
<event>
 4    1  0.1998832E-007  0.1167700E+04  0.7818608E-02  0.9189178E-01
          2   -1    0    0  501    0  0.00000000000E+00  0.00000000000E+00  0.13233990980E+04  0.13233990980E+04  0.25500000000E-02 0. -1.
         -2   -1    0    0    0  501 -0.00000000000E+00 -0.00000000000E+00 -0.12866418420E+04  0.12866418420E+04  0.25500000000E-02 0.  1.
    8880023    1    1    2    0    0 -0.22669963808E+03  0.93718787197E+03 -0.72261761470E+03  0.13732080165E+04  0.65864270000E+03 0.  1.
    8880022    1    1    2    0    0  0.22669963808E+03 -0.93718787197E+03  0.75937487073E+03  0.12368329235E+04  0.15294330000E+03 0.  0.
<mgrwt>
<rscale>  0 0.11165834E+04</rscale>
<asrwt>0</asrwt>
<pdfrwt beam="1">  1        2 0.20359986E+00 0.11677003E+04</pdfrwt>
<pdfrwt beam="2">  1       -2 0.19794490E+00 0.11677003E+04</pdfrwt>
<totfact> 0.21405407E+00</totfact>
</mgrwt>
</event>
<event>
 4    1  0.1998832E-007  0.7024710E+03  0.7818608E-02  0.9987101E-01
         -2   -1    0    0    0  501 -0.00000000000E+00  0.00000000000E+00  0.12070195991E+03  0.12070195994E+03  0.25500000000E-02 0.  1.
          2   -1    0    0  501    0  0.00000000000E+00 -0.00000000000E+00 -0.20365469627E+04  0.20365469627E+04  0.25500000000E-02 0. -1.
    8880023    1    1    2    0    0  0.31409181031E+02 -0.24221647070E+03 -0.13149850022E+04  0.14908558340E+04  0.65864270000E+03 0. -1.
    8880022    1    1    2    0    0 -0.31409181031E+02  0.24221647070E+03 -0.60086000057E+03  0.66639308868E+03  0.15294330000E+03 0.  1.
<mgrwt>
<rscale>  0 0.56219479E+03</rscale>
<asrwt>0</asrwt>
<pdfrwt beam="1">  1        2 0.31331489E+00 0.70247104E+03</pdfrwt>
<pdfrwt beam="2">  1       -2 0.18569534E-01 0.70247104E+03</pdfrwt>
<totfact> 0.15955088E+02</totfact>
</mgrwt>
</event>
<event>
 4    1  0.1998832E-007  0.1534092E+04  0.7818608E-02  0.8885930E-01
         -2   -1    0    0    0  501 -0.00000000000E+00  0.00000000000E+00  0.16983533807E+04  0.16983533807E+04  0.25500000000E-02 0.  1.
          2   -1    0    0  501    0  0.00000000000E+00 -0.00000000000E+00 -0.15178794538E+04  0.15178794538E+04  0.25500000000E-02 0. -1.
    8880023    1    1    2    0    0  0.86549048507E+03 -0.10819217241E+04  0.75346502875E+03  0.17091366688E+04  0.65864270000E+03 0.  0.
    8880022    1    1    2    0    0 -0.86549048507E+03  0.10819217241E+04 -0.57299110188E+03  0.15070961657E+04  0.15294330000E+03 0.  0.
<mgrwt>
<rscale>  0 0.14977807E+04</rscale>
<asrwt>0</asrwt>
<pdfrwt beam="1">  1        2 0.23351992E+00 0.15340921E+04</pdfrwt>
<pdfrwt beam="2">  1       -2 0.26128514E+00 0.15340921E+04</pdfrwt>
<totfact> 0.63676964E-01</totfact>
</mgrwt>
</event>
<event>
 4    1  0.2235701E-007  0.1244312E+04  0.7818608E-02  0.9115207E-01
          2   -1    0    0  501    0  0.00000000000E+00  0.00000000000E+00  0.23492218269E+04  0.23492218269E+04  0.25500000000E-02 0. -1.
         -2   -1    0    0    0  501 -0.00000000000E+00 -0.00000000000E+00 -0.16619808389E+04  0.16619808389E+04  0.25500000000E-02 0.  1.
    8880023    1    1    2    0    0  0.98453401936E+03 -0.38104422623E+03 -0.12726166634E+04  0.17798498015E+04  0.65864270000E+03 0.  0.
    8880022    1    1    2    0    0 -0.98453401936E+03  0.38104422623E+03  0.19598576515E+04  0.22313528643E+04  0.15294330000E+03 0.  0.
<mgrwt>
<rscale>  0 0.11973184E+04</rscale>
<asrwt>0</asrwt>
<pdfrwt beam="1">  1        2 0.36141874E+00 0.12443119E+04</pdfrwt>
<pdfrwt beam="2">  1       -2 0.25568936E+00 0.12443119E+04</pdfrwt>
<totfact> 0.24436303E-01</totfact>
</mgrwt>
</event>
<event>
 4    1  0.1998832E-007  0.8059495E+03  0.7818608E-02  0.9698077E-01
          2   -1    0    0  501    0  0.00000000000E+00  0.00000000000E+00  0.87958619588E+03  0.87958619589E+03  0.25500000000E-02 0. -1.
         -2   -1    0    0    0  501 -0.00000000000E+00 -0.00000000000E+00 -0.76399159096E+03  0.76399159097E+03  0.25500000000E-02 0.  1.
    8880023    1    1    2    0    0 -0.45395054834E+03  0.98352641078E+02 -0.42787460605E+03  0.91248628872E+03  0.65864270000E+03 0.  1.
    8880022    1    1    2    0    0  0.45395054834E+03 -0.98352641078E+02  0.54346921097E+03  0.73109149813E+03  0.15294330000E+03 0.  0.
<mgrwt>
<rscale>  0 0.71131420E+03</rscale>
<asrwt>0</asrwt>
<pdfrwt beam="1">  1        2 0.13532095E+00 0.80594947E+03</pdfrwt>
<pdfrwt beam="2">  1       -2 0.11753717E+00 0.80594947E+03</pdfrwt>
<totfact> 0.17088978E+01</totfact>
</mgrwt>
</event>
<event>
 4    1  0.1998832E-007  0.7447992E+03  0.7818608E-02  0.9846182E-01
          2   -1    0    0  501    0  0.00000000000E+00  0.00000000000E+00  0.46571963364E+03  0.46571963365E+03  0.25500000000E-02 0. -1.
         -2   -1    0    0    0  501 -0.00000000000E+00 -0.00000000000E+00 -0.89947220120E+03  0.89947220121E+03  0.25500000000E-02 0.  1.
    8880023    1    1    2    0    0  0.23337573501E+03 -0.25778173932E+03 -0.59423423772E+03  0.95280648316E+03  0.65864270000E+03 0.  1.
    8880022    1    1    2    0    0 -0.23337573501E+03  0.25778173932E+03  0.16048167016E+03  0.41238535169E+03  0.15294330000E+03 0.  0.
<mgrwt>
<rscale>  0 0.62941987E+03</rscale>
<asrwt>0</asrwt>
<pdfrwt beam="1">  1        2 0.71649175E-01 0.74479921E+03</pdfrwt>
<pdfrwt beam="2">  1       -2 0.13838034E+00 0.74479921E+03</pdfrwt>
<totfact> 0.25073768E+01</totfact>
</mgrwt>
</event>
<event>
 4    1  0.1998832E-007  0.9699061E+03  0.7818608E-02  0.9422034E-01
          2   -1    0    0  501    0  0.00000000000E+00  0.00000000000E+00  0.17525673572E+04  0.17525673572E+04  0.25500000000E-02 0. -1.
         -2   -1    0    0    0  501 -0.00000000000E+00 -0.00000000000E+00 -0.49540615607E+03  0.49540615608E+03  0.25500000000E-02 0.  1.
    8880023    1    1    2    0    0 -0.64483419546E+03  0.30182208507E+03  0.24377004523E+03  0.10000708734E+04  0.65864270000E+03 0.  1.
    8880022    1    1    2    0    0  0.64483419546E+03 -0.30182208507E+03  0.10133911559E+04  0.12479026399E+04  0.15294330000E+03 0.  0.
<mgrwt>
<rscale>  0 0.90284338E+03</rscale>
<asrwt>0</asrwt>
<pdfrwt beam="1">  1        2 0.26962575E+00 0.96990614E+03</pdfrwt>
<pdfrwt beam="2">  1       -2 0.76216331E-01 0.96990614E+03</pdfrwt>
<totfact> 0.14163717E+01</totfact>
</mgrwt>
</event>
<event>
 4    1  0.1998832E-007  0.8430285E+03  0.7818608E-02  0.9624496E-01
         -2   -1    0    0    0  501 -0.00000000000E+00  0.00000000000E+00  0.38242939805E+03  0.38242939805E+03  0.25500000000E-02 0.  1.
          2   -1    0    0  501    0  0.00000000000E+00 -0.00000000000E+00 -0.45605379659E+04  0.45605379659E+04  0.25500000000E-02 0. -1.
    8880023    1    1    2    0    0 -0.49451723458E+03 -0.17983198591E+03 -0.12412613035E+03  0.85211756287E+03  0.65864270000E+03 0. -1.
    8880022    1    1    2    0    0  0.49451723458E+03  0.17983198591E+03 -0.40539824375E+04  0.40908498011E+04  0.15294330000E+03 0. -1.
<mgrwt>
<rscale>  0 0.75695876E+03</rscale>
<asrwt>0</asrwt>
<pdfrwt beam="1">  1        2 0.70162119E+00 0.84302850E+03</pdfrwt>
<pdfrwt beam="2">  1       -2 0.58835295E-01 0.84302850E+03</pdfrwt>
<totfact> 0.32373804E-01</totfact>
</mgrwt>
</event>
<event>
 4    1  0.1998832E-007  0.8393156E+03  0.7818608E-02  0.9631472E-01
         -2   -1    0    0    0  501 -0.00000000000E+00  0.00000000000E+00  0.44963629482E+03  0.44963629483E+03  0.25500000000E-02 0.  1.
          2   -1    0    0  501    0  0.00000000000E+00 -0.00000000000E+00 -0.27563810771E+04  0.27563810771E+04  0.25500000000E-02 0. -1.
    8880023    1    1    2    0    0 -0.49023903059E+03  0.17408688311E+03 -0.30044767620E+01  0.83932102507E+03  0.65864270000E+03 0.  0.
    8880022    1    1    2    0    0  0.49023903059E+03 -0.17408688311E+03 -0.23037403055E+04  0.23666963469E+04  0.15294330000E+03 0. -1.
<mgrwt>
<rscale>  0 0.75247721E+03</rscale>
<asrwt>0</asrwt>
<pdfrwt beam="1">  1        2 0.42405861E+00 0.83931565E+03</pdfrwt>
<pdfrwt beam="2">  1       -2 0.69174817E-01 0.83931565E+03</pdfrwt>
<totfact> 0.48809972E+00</totfact>
</mgrwt>
</event>
<event>
 4    1  0.1998832E-007  0.9388244E+03  0.7818608E-02  0.9466379E-01
          2   -1    0    0  501    0  0.00000000000E+00  0.00000000000E+00  0.37003079127E+04  0.37003079127E+04  0.25500000000E-02 0. -1.
         -2   -1    0    0    0  501 -0.00000000000E+00 -0.00000000000E+00 -0.42787024239E+03  0.42787024240E+03  0.25500000000E-02 0.  1.
    8880023    1    1    2    0    0  0.51745029112E+03 -0.42405925152E+03  0.17420642866E+03  0.95485032263E+03  0.65864270000E+03 0.  1.
    8880022    1    1    2    0    0 -0.51745029112E+03  0.42405925152E+03  0.30982312416E+04  0.31733278324E+04  0.15294330000E+03 0.  0.
<mgrwt>
<rscale>  0 0.86808598E+03</rscale>
<asrwt>0</asrwt>
<pdfrwt beam="1">  1        2 0.56927814E+00 0.93882440E+03</pdfrwt>
<pdfrwt beam="2">  1       -2 0.65826191E-01 0.93882440E+03</pdfrwt>
<totfact> 0.13070518E+00</totfact>
</mgrwt>
</event>
<event>
 4    1  0.1998832E-007  0.1109931E+04  0.7818608E-02  0.9250079E-01
          2   -1    0    0  501    0  0.00000000000E+00  0.00000000000E+00  0.52648645123E+04  0.52648645123E+04  0.25500000000E-02 0. -1.
         -2   -1    0    0    0  501 -0.00000000000E+00 -0.00000000000E+00 -0.26577703059E+03  0.26577703060E+03  0.25500000000E-02 0.  1.
    8880023    1    1    2    0    0  0.56972519596E+03 -0.68814981042E+03  0.12416325889E+04  0.16654124572E+04  0.65864270000E+03 0.  0.
    8880022    1    1    2    0    0 -0.56972519596E+03  0.68814981042E+03  0.37574548928E+04  0.38652290857E+04  0.15294330000E+03 0.  0.
<mgrwt>
<rscale>  0 0.10551152E+04</rscale>
<asrwt>0</asrwt>
<pdfrwt beam="1">  1        2 0.80997911E+00 0.11099312E+04</pdfrwt>
<pdfrwt beam="2">  1       -2 0.40888776E-01 0.11099312E+04</pdfrwt>
<totfact> 0.91791668E-02</totfact>
</mgrwt>
</event>
<event>
 4    1  0.1998832E-007  0.1012159E+04  0.7818608E-02  0.9365820E-01
          2   -1    0    0  501    0  0.00000000000E+00  0.00000000000E+00  0.27669831159E+04  0.27669831159E+04  0.25500000000E-02 0. -1.
         -2   -1    0    0    0  501 -0.00000000000E+00 -0.00000000000E+00 -0.60499228759E+03  0.60499228760E+03  0.25500000000E-02 0.  1.
    8880023    1    1    2    0    0  0.73777356139E+03  0.21528093478E+03 -0.61915656727E+02  0.10140510163E+04  0.65864270000E+03 0.  1.
    8880022    1    1    2    0    0 -0.73777356139E+03 -0.21528093478E+03  0.22239064850E+04  0.23579243872E+04  0.15294330000E+03 0.  0.
<mgrwt>
<rscale>  0 0.94942749E+03</rscale>
<asrwt>0</asrwt>
<pdfrwt beam="1">  1        2 0.42568972E+00 0.10121590E+04</pdfrwt>
<pdfrwt beam="2">  1       -2 0.93075735E-01 0.10121590E+04</pdfrwt>
<totfact> 0.23972289E+00</totfact>
</mgrwt>
</event>
<event>
 4    1  0.1998832E-007  0.1036435E+04  0.7818608E-02  0.9335368E-01
          2   -1    0    0  501    0  0.00000000000E+00  0.00000000000E+00  0.13863213675E+04  0.13863213675E+04  0.25500000000E-02 0. -1.
         -2   -1    0    0    0  501 -0.00000000000E+00 -0.00000000000E+00 -0.15745466337E+04  0.15745466337E+04  0.25500000000E-02 0.  1.
    8880023    1    1    2    0    0 -0.88580969578E+02 -0.79532473748E+03 -0.12491937870E+04  0.16231707704E+04  0.65864270000E+03 0.  0.
    8880022    1    1    2    0    0  0.88580969578E+02  0.79532473748E+03  0.10609685208E+04  0.13376972308E+04  0.15294330000E+03 0.  0.
<mgrwt>
<rscale>  0 0.97590975E+03</rscale>
<asrwt>0</asrwt>
<pdfrwt beam="1">  1        2 0.21328021E+00 0.10364353E+04</pdfrwt>
<pdfrwt beam="2">  1       -2 0.24223794E+00 0.10364353E+04</pdfrwt>
<totfact> 0.10483253E+00</totfact>
</mgrwt>
</event>
<event>
 4    1  0.1998832E-007  0.7337961E+03  0.7818608E-02  0.9878402E-01
          2   -1    0    0  501    0  0.00000000000E+00  0.00000000000E+00  0.18957112576E+04  0.18957112576E+04  0.25500000000E-02 0. -1.
         -2   -1    0    0    0  501 -0.00000000000E+00 -0.00000000000E+00 -0.53223574490E+03  0.53223574490E+03  0.25500000000E-02 0.  1.
    8880023    1    1    2    0    0  0.21905471700E+02  0.32274855231E+03 -0.25004312744E+03  0.77522786944E+03  0.65864270000E+03 0.  1.
    8880022    1    1    2    0    0 -0.21905471700E+02 -0.32274855231E+03  0.16135186401E+04  0.16527191330E+04  0.15294330000E+03 0.  0.
<mgrwt>
<rscale>  0 0.61319549E+03</rscale>
<asrwt>0</asrwt>
<pdfrwt beam="1">  1        2 0.29164789E+00 0.73379608E+03</pdfrwt>
<pdfrwt beam="2">  1       -2 0.81882421E-01 0.73379608E+03</pdfrwt>
<totfact> 0.10368669E+01</totfact>
</mgrwt>
</event>
<event>
 4    1  0.1998832E-007  0.6730201E+03  0.7818608E-02  0.1013584E+00
          2   -1    0    0  501    0  0.00000000000E+00  0.00000000000E+00  0.20194026249E+04  0.20194026249E+04  0.25500000000E-02 0. -1.
         -2   -1    0    0    0  501 -0.00000000000E+00 -0.00000000000E+00 -0.23895162377E+03  0.23895162378E+03  0.25500000000E-02 0.  1.
    8880023    1    1    2    0    0  0.13767791122E+03  0.13804908791E+02  0.25607725613E+03  0.72009134845E+03  0.65864270000E+03 0.  0.
    8880022    1    1    2    0    0 -0.13767791122E+03 -0.13804908791E+02  0.15243737450E+04  0.15382629002E+04  0.15294330000E+03 0. -1.
<mgrwt>
<rscale>  0 0.50074592E+03</rscale>
<asrwt>0</asrwt>
<pdfrwt beam="1">  1        2 0.31067733E+00 0.67302005E+03</pdfrwt>
<pdfrwt beam="2">  1       -2 0.36761788E-01 0.67302005E+03</pdfrwt>
<totfact> 0.47282445E+01</totfact>
</mgrwt>
</event>
<event>
 4    1  0.1998832E-007  0.6631006E+03  0.7818608E-02  0.1021183E+00
          2   -1    0    0  501    0  0.00000000000E+00  0.00000000000E+00  0.16398404083E+04  0.16398404083E+04  0.25500000000E-02 0. -1.
         -2   -1    0    0    0  501 -0.00000000000E+00 -0.00000000000E+00 -0.10167692615E+04  0.10167692615E+04  0.25500000000E-02 0.  1.
    8880023    1    1    2    0    0 -0.41702607049E+02  0.64444619080E+02 -0.90336470325E+03  0.11206115338E+04  0.65864270000E+03 0.  1.
    8880022    1    1    2    0    0  0.41702607049E+02 -0.64444619080E+02  0.15264358500E+04  0.15359981360E+04  0.15294330000E+03 0.  0.
<mgrwt>
<rscale>  0 0.47262112E+03</rscale>
<asrwt>0</asrwt>
<pdfrwt beam="1">  1        2 0.25228314E+00 0.66310061E+03</pdfrwt>
<pdfrwt beam="2">  1       -2 0.15642604E+00 0.66310061E+03</pdfrwt>
<totfact> 0.29682011E+00</totfact>
</mgrwt>
</event>
<event>
 4    1  0.1998832E-007  0.9604638E+03  0.7818608E-02  0.9435216E-01
          2   -1    0    0  501    0  0.00000000000E+00  0.00000000000E+00  0.16121444676E+04  0.16121444676E+04  0.25500000000E-02 0. -1.
         -2   -1    0    0    0  501 -0.00000000000E+00 -0.00000000000E+00 -0.10627551025E+04  0.10627551025E+04  0.25500000000E-02 0.  1.
    8880023    1    1    2    0    0 -0.43995513249E+03 -0.54324950347E+03 -0.73175041461E+03  0.12074557620E+04  0.65864270000E+03 0.  1.
    8880022    1    1    2    0    0  0.43995513249E+03  0.54324950347E+03  0.12811397798E+04  0.14674438081E+04  0.15294330000E+03 0.  0.
<mgrwt>
<rscale>  0 0.89233342E+03</rscale>
<asrwt>0</asrwt>
<pdfrwt beam="1">  1        2 0.24802223E+00 0.96046382E+03</pdfrwt>
<pdfrwt beam="2">  1       -2 0.16350079E+00 0.96046382E+03</pdfrwt>
<totfact> 0.26023559E+00</totfact>
</mgrwt>
</event>
<event>
 4    1  0.1998832E-007  0.7824353E+03  0.7818608E-02  0.9750147E-01
         -2   -1    0    0    0  501 -0.00000000000E+00  0.00000000000E+00  0.55281884255E+03  0.55281884256E+03  0.25500000000E-02 0.  1.
          2   -1    0    0  501    0  0.00000000000E+00 -0.00000000000E+00 -0.17127898554E+04  0.17127898554E+04  0.25500000000E-02 0. -1.
    8880023    1    1    2    0    0  0.39864358496E+03  0.13956381871E+03  0.22130040329E+03  0.81312904393E+03  0.65864270000E+03 0.  1.
    8880022    1    1    2    0    0 -0.39864358496E+03 -0.13956381871E+03 -0.13812714161E+04  0.14524796540E+04  0.15294330000E+03 0.  0.
<mgrwt>
<rscale>  0 0.68107951E+03</rscale>
<asrwt>0</asrwt>
<pdfrwt beam="1">  1        2 0.26350613E+00 0.78243528E+03</pdfrwt>
<pdfrwt beam="2">  1       -2 0.85049054E-01 0.78243528E+03</pdfrwt>
<totfact> 0.11889808E+01</totfact>
</mgrwt>
</event>
<event>
 4    1  0.1998832E-007  0.1483903E+04  0.7818608E-02  0.8921087E-01
          2   -1    0    0  501    0  0.00000000000E+00  0.00000000000E+00  0.37064363399E+04  0.37064363399E+04  0.25500000000E-02 0. -1.
         -2   -1    0    0    0  501 -0.00000000000E+00 -0.00000000000E+00 -0.63444989766E+03  0.63444989767E+03  0.25500000000E-02 0.  1.
    8880023    1    1    2    0    0  0.63381588319E+03  0.11689466588E+04  0.75465502680E+03  0.16647742431E+04  0.65864270000E+03 0.  1.
    8880022    1    1    2    0    0 -0.63381588319E+03 -0.11689466588E+04  0.23173314155E+04  0.26761119945E+04  0.15294330000E+03 0.  0.
<mgrwt>
<rscale>  0 0.14461317E+04</rscale>
<asrwt>0</asrwt>
<pdfrwt beam="1">  1        2 0.57022097E+00 0.14839033E+04</pdfrwt>
<pdfrwt beam="2">  1       -2 0.97607677E-01 0.14839033E+04</pdfrwt>
<totfact> 0.48848012E-01</totfact>
</mgrwt>
</event>
<event>
 4    1  0.1998832E-007  0.9942654E+03  0.7818608E-02  0.9389099E-01
          2   -1    0    0  501    0  0.00000000000E+00  0.00000000000E+00  0.20792008227E+04  0.20792008227E+04  0.25500000000E-02 0. -1.
         -2   -1    0    0    0  501 -0.00000000000E+00 -0.00000000000E+00 -0.82371810354E+03  0.82371810355E+03  0.25500000000E-02 0.  1.
    8880023    1    1    2    0    0  0.67022872875E+03 -0.32487982493E+03  0.17380574869E+04  0.20023504897E+04  0.65864270000E+03 0. -1.
    8880022    1    1    2    0    0 -0.67022872875E+03  0.32487982493E+03 -0.48257476774E+03  0.90056843658E+03  0.15294330000E+03 0.  0.
<mgrwt>
<rscale>  0 0.92978245E+03</rscale>
<asrwt>0</asrwt>
<pdfrwt beam="1">  1        2 0.31987704E+00 0.99426538E+03</pdfrwt>
<pdfrwt beam="2">  1       -2 0.12672586E+00 0.99426538E+03</pdfrwt>
<totfact> 0.27970430E+00</totfact>
</mgrwt>
</event>
<event>
 4    1  0.1998832E-007  0.1152974E+04  0.7818608E-02  0.9204248E-01
          2   -1    0    0  501    0  0.00000000000E+00  0.00000000000E+00  0.14082346145E+04  0.14082346145E+04  0.25500000000E-02 0. -1.
         -2   -1    0    0    0  501 -0.00000000000E+00 -0.00000000000E+00 -0.85770063956E+03  0.85770063956E+03  0.25500000000E-02 0.  1.
    8880023    1    1    2    0    0 -0.56915815673E+03 -0.75604088574E+03  0.61204788756E+03  0.13053549905E+04  0.65864270000E+03 0. -1.
    8880022    1    1    2    0    0  0.56915815673E+03  0.75604088574E+03 -0.61513912626E+02  0.96058026356E+03  0.15294330000E+03 0.  1.
<mgrwt>
<rscale>  0 0.11009687E+04</rscale>
<asrwt>0</asrwt>
<pdfrwt beam="1">  1        2 0.21665148E+00 0.11529740E+04</pdfrwt>
<pdfrwt beam="2">  1       -2 0.13195395E+00 0.11529740E+04</pdfrwt>
<totfact> 0.58537170E+00</totfact>
</mgrwt>
</event>
<event>
 4    1  0.1998832E-007  0.1438989E+04  0.7818608E-02  0.8953964E-01
          2   -1    0    0  501    0  0.00000000000E+00  0.00000000000E+00  0.25347178348E+04  0.25347178348E+04  0.25500000000E-02 0. -1.
         -2   -1    0    0    0  501 -0.00000000000E+00 -0.00000000000E+00 -0.13769143220E+04  0.13769143220E+04  0.25500000000E-02 0.  1.
    8880023    1    1    2    0    0  0.38007659006E+03 -0.12216471760E+04 -0.73971142172E+03  0.16179812207E+04  0.65864270000E+03 0.  1.
    8880022    1    1    2    0    0 -0.38007659006E+03  0.12216471760E+04  0.18975149345E+04  0.22936509361E+04  0.15294330000E+03 0.  0.
<mgrwt>
<rscale>  0 0.13997987E+04</rscale>
<asrwt>0</asrwt>
<pdfrwt beam="1">  1        2 0.38995659E+00 0.14389893E+04</pdfrwt>
<pdfrwt beam="2">  1       -2 0.21183297E+00 0.14389893E+04</pdfrwt>
<totfact> 0.35028426E-01</totfact>
</mgrwt>
</event>
<event>
 4    1  0.1998832E-007  0.1383134E+04  0.7818608E-02  0.8996900E-01
         -2   -1    0    0    0  501 -0.00000000000E+00  0.00000000000E+00  0.12877954183E+04  0.12877954183E+04  0.25500000000E-02 0.  1.
          2   -1    0    0  501    0  0.00000000000E+00 -0.00000000000E+00 -0.16841204629E+04  0.16841204629E+04  0.25500000000E-02 0. -1.
    8880023    1    1    2    0    0  0.76841079777E+03  0.94275870626E+03  0.48111384203E+03  0.14644213422E+04  0.65864270000E+03 0.  1.
    8880022    1    1    2    0    0 -0.76841079777E+03 -0.94275870626E+03 -0.87743888660E+03  0.15074945390E+04  0.15294330000E+03 0.  0.
<mgrwt>
<rscale>  0 0.13420079E+04</rscale>
<asrwt>0</asrwt>
<pdfrwt beam="1">  1        2 0.25909546E+00 0.13831339E+04</pdfrwt>
<pdfrwt beam="2">  1       -2 0.19812237E+00 0.13831339E+04</pdfrwt>
<totfact> 0.13031293E+00</totfact>
</mgrwt>
</event>
<event>
 4    1  0.1998832E-007  0.9338998E+03  0.7818608E-02  0.9473667E-01
          2   -1    0    0  501    0  0.00000000000E+00  0.00000000000E+00  0.29268309655E+04  0.29268309655E+04  0.25500000000E-02 0. -1.
         -2   -1    0    0    0  501 -0.00000000000E+00 -0.00000000000E+00 -0.62481479271E+03  0.62481479271E+03  0.25500000000E-02 0.  1.
    8880023    1    1    2    0    0 -0.25011668759E+03  0.61302547774E+03 -0.20333309085E+03  0.95577881640E+03  0.65864270000E+03 0.  1.
    8880022    1    1    2    0    0  0.25011668759E+03 -0.61302547774E+03  0.25053492636E+04  0.25958669418E+04  0.15294330000E+03 0.  0.
<mgrwt>
<rscale>  0 0.86253375E+03</rscale>
<asrwt>0</asrwt>
<pdfrwt beam="1">  1        2 0.45028169E+00 0.93389978E+03</pdfrwt>
<pdfrwt beam="2">  1       -2 0.96125352E-01 0.93389978E+03</pdfrwt>
<totfact> 0.18041642E+00</totfact>
</mgrwt>
</event>
<event>
 4    1  0.1998832E-007  0.1183316E+04  0.7818608E-02  0.9173513E-01
          2   -1    0    0  501    0  0.00000000000E+00  0.00000000000E+00  0.15292152997E+04  0.15292152997E+04  0.25500000000E-02 0. -1.
         -2   -1    0    0    0  501 -0.00000000000E+00 -0.00000000000E+00 -0.15882888105E+04  0.15882888105E+04  0.25500000000E-02 0.  1.
    8880023    1    1    2    0    0  0.66569230334E+03  0.72338097077E+03 -0.11437029996E+04  0.16456892262E+04  0.65864270000E+03 0.  0.
    8880022    1    1    2    0    0 -0.66569230334E+03 -0.72338097077E+03  0.10846294888E+04  0.14718148839E+04  0.15294330000E+03 0.  0.
<mgrwt>
<rscale>  0 0.11331044E+04</rscale>
<asrwt>0</asrwt>
<pdfrwt beam="1">  1        2 0.23526389E+00 0.11833159E+04</pdfrwt>
<pdfrwt beam="2">  1       -2 0.24435212E+00 0.11833159E+04</pdfrwt>
<totfact> 0.82819893E-01</totfact>
</mgrwt>
</event>
<event>
 4    1  0.1998832E-007  0.8616589E+03  0.7818608E-02  0.9590619E-01
          2   -1    0    0  501    0  0.00000000000E+00  0.00000000000E+00  0.45660708369E+03  0.45660708370E+03  0.25500000000E-02 0. -1.
         -2   -1    0    0    0  501 -0.00000000000E+00 -0.00000000000E+00 -0.17329538203E+04  0.17329538203E+04  0.25500000000E-02 0.  1.
    8880023    1    1    2    0    0 -0.48178058113E+03  0.27664651565E+03 -0.13572685025E+04  0.16076796376E+04  0.65864270000E+03 0.  1.
    8880022    1    1    2    0    0  0.48178058113E+03 -0.27664651565E+03  0.80921765899E+02  0.58188126640E+03  0.15294330000E+03 0.  0.
<mgrwt>
<rscale>  0 0.77920174E+03</rscale>
<asrwt>0</asrwt>
<pdfrwt beam="1">  1        2 0.70247245E-01 0.86165888E+03</pdfrwt>
<pdfrwt beam="2">  1       -2 0.26660828E+00 0.86165888E+03</pdfrwt>
<totfact> 0.35398294E+00</totfact>
</mgrwt>
</event>
<event>
 4    1  0.1998832E-007  0.6864042E+03  0.7818608E-02  0.1005911E+00
          2   -1    0    0  501    0  0.00000000000E+00  0.00000000000E+00  0.61627607587E+03  0.61627607587E+03  0.25500000000E-02 0. -1.
         -2   -1    0    0    0  501 -0.00000000000E+00 -0.00000000000E+00 -0.86403580364E+03  0.86403580364E+03  0.25500000000E-02 0.  1.
    8880023    1    1    2    0    0  0.24795493635E+02  0.19163963366E+03 -0.69048929671E+03  0.97361503729E+03  0.65864270000E+03 0.  0.
    8880022    1    1    2    0    0 -0.24795493635E+02 -0.19163963366E+03  0.44272956894E+03  0.50669684223E+03  0.15294330000E+03 0. -1.
<mgrwt>
<rscale>  0 0.53132758E+03</rscale>
<asrwt>0</asrwt>
<pdfrwt beam="1">  1        2 0.94811704E-01 0.68640423E+03</pdfrwt>
<pdfrwt beam="2">  1       -2 0.13292858E+00 0.68640423E+03</pdfrwt>
<totfact> 0.20090122E+01</totfact>
</mgrwt>
</event>
<event>
 4    1  0.1998832E-007  0.7796876E+03  0.7818608E-02  0.9756571E-01
         -2   -1    0    0    0  501 -0.00000000000E+00  0.00000000000E+00  0.77070183207E+03  0.77070183208E+03  0.25500000000E-02 0.  1.
          2   -1    0    0  501    0  0.00000000000E+00 -0.00000000000E+00 -0.94931856979E+03  0.94931856979E+03  0.25500000000E-02 0. -1.
    8880023    1    1    2    0    0  0.35434858245E+03 -0.22031711707E+03  0.48729361453E+03  0.91943886310E+03  0.65864270000E+03 0.  0.
    8880022    1    1    2    0    0 -0.35434858245E+03  0.22031711707E+03 -0.66591035225E+03  0.80058153876E+03  0.15294330000E+03 0.  0.
<mgrwt>
<rscale>  0 0.67746173E+03</rscale>
<asrwt>0</asrwt>
<pdfrwt beam="1">  1        2 0.14604901E+00 0.77968760E+03</pdfrwt>
<pdfrwt beam="2">  1       -2 0.11856951E+00 0.77968760E+03</pdfrwt>
<totfact> 0.15062129E+01</totfact>
</mgrwt>
</event>
<event>
 4    1  0.1998832E-007  0.7171089E+03  0.7818608E-02  0.9932493E-01
         -2   -1    0    0    0  501 -0.00000000000E+00  0.00000000000E+00  0.27301424702E+03  0.27301424703E+03  0.25500000000E-02 0.  1.
          2   -1    0    0  501    0  0.00000000000E+00 -0.00000000000E+00 -0.20266985278E+04  0.20266985278E+04  0.25500000000E-02 0. -1.
    8880023    1    1    2    0    0 -0.24217217462E+03 -0.14760636998E+03 -0.24622902203E+03  0.75820441846E+03  0.65864270000E+03 0.  1.
    8880022    1    1    2    0    0  0.24217217462E+03  0.14760636998E+03 -0.15074552587E+04  0.15415083563E+04  0.15294330000E+03 0.  0.
<mgrwt>
<rscale>  0 0.58712078E+03</rscale>
<asrwt>0</asrwt>
<pdfrwt beam="1">  1        2 0.31179976E+00 0.71710892E+03</pdfrwt>
<pdfrwt beam="2">  1       -2 0.42002193E-01 0.71710892E+03</pdfrwt>
<totfact> 0.35953722E+01</totfact>
</mgrwt>
</event>
<event>
 4    1  0.1998832E-007  0.1388106E+04  0.7818608E-02  0.8992980E-01
         -2   -1    0    0    0  501 -0.00000000000E+00  0.00000000000E+00  0.77927446089E+03  0.77927446089E+03  0.25500000000E-02 0.  1.
          2   -1    0    0  501    0  0.00000000000E+00 -0.00000000000E+00 -0.24446554303E+04  0.24446554303E+04  0.25500000000E-02 0. -1.
    8880023    1    1    2    0    0  0.77285788883E+03  0.94642423047E+03 -0.13852070820E+04  0.19610295782E+04  0.65864270000E+03 0.  0.
    8880022    1    1    2    0    0 -0.77285788883E+03 -0.94642423047E+03 -0.28017388743E+03  0.12629003130E+04  0.15294330000E+03 0.  0.
<mgrwt>
<rscale>  0 0.13471607E+04</rscale>
<asrwt>0</asrwt>
<pdfrwt beam="1">  1        2 0.37610083E+00 0.13881060E+04</pdfrwt>
<pdfrwt beam="2">  1       -2 0.11988838E+00 0.13881060E+04</pdfrwt>
<totfact> 0.19148252E+00</totfact>
</mgrwt>
</event>
<event>
 4    1  0.1998832E-007  0.7471641E+03  0.7818608E-02  0.9839549E-01
         -2   -1    0    0    0  501 -0.00000000000E+00  0.00000000000E+00  0.21835204658E+03  0.21835204659E+03  0.25500000000E-02 0.  1.
          2   -1    0    0  501    0  0.00000000000E+00 -0.00000000000E+00 -0.46333861292E+04  0.46333861292E+04  0.25500000000E-02 0. -1.
    8880023    1    1    2    0    0 -0.19226773845E+03 -0.29576524364E+03 -0.45863200740E+03  0.87669691859E+03  0.65864270000E+03 0.  0.
    8880022    1    1    2    0    0  0.19226773845E+03  0.29576524364E+03 -0.39564020752E+04  0.39750412572E+04  0.15294330000E+03 0. -1.
<mgrwt>
<rscale>  0 0.63282609E+03</rscale>
<asrwt>0</asrwt>
<pdfrwt beam="1">  1        2 0.71282856E+00 0.74716408E+03</pdfrwt>
<pdfrwt beam="2">  1       -2 0.33592626E-01 0.74716408E+03</pdfrwt>
<totfact> 0.85858324E-01</totfact>
</mgrwt>
</event>
<event>
 4    1  0.1998832E-007  0.8728625E+03  0.7818608E-02  0.9571081E-01
         -2   -1    0    0    0  501 -0.00000000000E+00  0.00000000000E+00  0.13404658121E+04  0.13404658121E+04  0.25500000000E-02 0.  1.
          2   -1    0    0  501    0  0.00000000000E+00 -0.00000000000E+00 -0.90327722992E+03  0.90327722993E+03  0.25500000000E-02 0. -1.
    8880023    1    1    2    0    0  0.34532004017E+03  0.45698226973E+03  0.10671693353E+04  0.13786730292E+04  0.65864270000E+03 0.  0.
    8880022    1    1    2    0    0 -0.34532004017E+03 -0.45698226973E+03 -0.62998075304E+03  0.86507001290E+03  0.15294330000E+03 0.  0.
<mgrwt>
<rscale>  0 0.79240182E+03</rscale>
<asrwt>0</asrwt>
<pdfrwt beam="1">  1        2 0.13896573E+00 0.87286249E+03</pdfrwt>
<pdfrwt beam="2">  1       -2 0.20622551E+00 0.87286249E+03</pdfrwt>
<totfact> 0.35593903E+00</totfact>
</mgrwt>
</event>
<event>
 4    1  0.1998832E-007  0.7450793E+03  0.7818608E-02  0.9845391E-01
          2   -1    0    0  501    0  0.00000000000E+00  0.00000000000E+00  0.60244701128E+03  0.60244701128E+03  0.25500000000E-02 0. -1.
         -2   -1    0    0    0  501 -0.00000000000E+00 -0.00000000000E+00 -0.14369713957E+04  0.14369713957E+04  0.25500000000E-02 0.  1.
    8880023    1    1    2    0    0  0.27558286663E+03 -0.21304217811E+03 -0.12630221219E+04  0.14664133022E+04  0.65864270000E+03 0.  1.
    8880022    1    1    2    0    0 -0.27558286663E+03  0.21304217811E+03  0.42849773753E+03  0.57300510479E+03  0.15294330000E+03 0.  0.
<mgrwt>
<rscale>  0 0.62982461E+03</rscale>
<asrwt>0</asrwt>
<pdfrwt beam="1">  1        2 0.92684156E-01 0.74507925E+03</pdfrwt>
<pdfrwt beam="2">  1       -2 0.22107252E+00 0.74507925E+03</pdfrwt>
<totfact> 0.49196986E+00</totfact>
</mgrwt>
</event>
<event>
 4    1  0.1998832E-007  0.1596245E+04  0.7818608E-02  0.8844503E-01
          2   -1    0    0  501    0  0.00000000000E+00  0.00000000000E+00  0.19673829869E+04  0.19673829869E+04  0.25500000000E-02 0. -1.
         -2   -1    0    0    0  501 -0.00000000000E+00 -0.00000000000E+00 -0.18991780120E+04  0.18991780120E+04  0.25500000000E-02 0.  1.
    8880023    1    1    2    0    0 -0.14537170510E+04 -0.29917471794E+02 -0.11468550681E+04  0.19655215778E+04  0.65864270000E+03 0.  0.
    8880022    1    1    2    0    0  0.14537170510E+04  0.29917471794E+02  0.12150600431E+04  0.19010394211E+04  0.15294330000E+03 0.  0.
<mgrwt>
<rscale>  0 0.15615827E+04</rscale>
<asrwt>0</asrwt>
<pdfrwt beam="1">  1        2 0.30267430E+00 0.15962451E+04</pdfrwt>
<pdfrwt beam="2">  1       -2 0.29218123E+00 0.15962451E+04</pdfrwt>
<totfact> 0.22932323E-01</totfact>
</mgrwt>
</event>
<event>
 4    1  0.1998832E-007  0.8284702E+03  0.7818608E-02  0.9652316E-01
         -2   -1    0    0    0  501 -0.00000000000E+00  0.00000000000E+00  0.73502152687E+03  0.73502152687E+03  0.25500000000E-02 0.  1.
          2   -1    0    0  501    0  0.00000000000E+00 -0.00000000000E+00 -0.71245296367E+03  0.71245296368E+03  0.25500000000E-02 0. -1.
    8880023    1    1    2    0    0  0.89888786400E+02  0.49444170966E+03  0.26376260598E+03  0.86944437243E+03  0.65864270000E+03 0.  1.
    8880022    1    1    2    0    0 -0.89888786400E+02 -0.49444170966E+03 -0.24119404278E+03  0.57803011812E+03  0.15294330000E+03 0. -1.
<mgrwt>
<rscale>  0 0.73928232E+03</rscale>
<asrwt>0</asrwt>
<pdfrwt beam="1">  1        2 0.10960815E+00 0.82847016E+03</pdfrwt>
<pdfrwt beam="2">  1       -2 0.11308023E+00 0.82847016E+03</pdfrwt>
<totfact> 0.24785136E+01</totfact>
</mgrwt>
</event>
<event>
 4    1  0.1998832E-007  0.7540945E+03  0.7818608E-02  0.9820643E-01
         -2   -1    0    0    0  501 -0.00000000000E+00  0.00000000000E+00  0.86064051449E+03  0.86064051450E+03  0.25500000000E-02 0.  1.
          2   -1    0    0  501    0  0.00000000000E+00 -0.00000000000E+00 -0.20217589313E+04  0.20217589313E+04  0.25500000000E-02 0. -1.
    8880023    1    1    2    0    0  0.36159705523E+03  0.63998757403E+02  0.66989615640E+03  0.10086720666E+04  0.65864270000E+03 0.  1.
    8880022    1    1    2    0    0 -0.36159705523E+03 -0.63998757403E+02 -0.18310145732E+04  0.18737273792E+04  0.15294330000E+03 0.  0.
<mgrwt>
<rscale>  0 0.64266379E+03</rscale>
<asrwt>0</asrwt>
<pdfrwt beam="1">  1        2 0.31103983E+00 0.75409448E+03</pdfrwt>
<pdfrwt beam="2">  1       -2 0.13240623E+00 0.75409448E+03</pdfrwt>
<totfact> 0.27923651E+00</totfact>
</mgrwt>
</event>
<event>
 4    1  0.1998832E-007  0.7008409E+03  0.7818608E-02  0.9993730E-01
          2   -1    0    0  501    0  0.00000000000E+00  0.00000000000E+00  0.25897576032E+04  0.25897576032E+04  0.25500000000E-02 0. -1.
         -2   -1    0    0    0  501 -0.00000000000E+00 -0.00000000000E+00 -0.39152216142E+03  0.39152216143E+03  0.25500000000E-02 0.  1.
    8880023    1    1    2    0    0 -0.11675583302E+03 -0.20913126562E+03 -0.61695478035E+02  0.70355124126E+03  0.65864270000E+03 0.  1.
    8880022    1    1    2    0    0  0.11675583302E+03  0.20913126562E+03  0.22599309198E+04  0.22777285234E+04  0.15294330000E+03 0.  0.
<mgrwt>
<rscale>  0 0.55926002E+03</rscale>
<asrwt>0</asrwt>
<pdfrwt beam="1">  1        2 0.39842423E+00 0.70084094E+03</pdfrwt>
<pdfrwt beam="2">  1       -2 0.60234181E-01 0.70084094E+03</pdfrwt>
<totfact> 0.84085587E+00</totfact>
</mgrwt>
</event>
<event>
 4    1  0.1998832E-007  0.1179645E+04  0.7818608E-02  0.9177167E-01
         -2   -1    0    0    0  501 -0.00000000000E+00  0.00000000000E+00  0.15150251888E+04  0.15150251888E+04  0.25500000000E-02 0.  1.
          2   -1    0    0  501    0  0.00000000000E+00 -0.00000000000E+00 -0.12096818473E+04  0.12096818473E+04  0.25500000000E-02 0. -1.
    8880023    1    1    2    0    0  0.16932508174E+03  0.96388892403E+03 -0.65142012762E+03  0.13475575053E+04  0.65864270000E+03 0. -1.
    8880022    1    1    2    0    0 -0.16932508174E+03 -0.96388892403E+03  0.95676346913E+03  0.13771495308E+04  0.15294330000E+03 0.  0.
<mgrwt>
<rscale>  0 0.11292243E+04</rscale>
<asrwt>0</asrwt>
<pdfrwt beam="1">  1        2 0.18610490E+00 0.11796453E+04</pdfrwt>
<pdfrwt beam="2">  1       -2 0.23308080E+00 0.11796453E+04</pdfrwt>
<totfact> 0.14887647E+00</totfact>
</mgrwt>
</event>
<event>
 4    1  0.1998832E-007  0.8584104E+03  0.7818608E-02  0.9596397E-01
         -2   -1    0    0    0  501 -0.00000000000E+00  0.00000000000E+00  0.18441784004E+04  0.18441784004E+04  0.25500000000E-02 0.  1.
          2   -1    0    0  501    0  0.00000000000E+00 -0.00000000000E+00 -0.79677204468E+03  0.79677204469E+03  0.25500000000E-02 0. -1.
    8880023    1    1    2    0    0 -0.26329872914E+02 -0.54987728213E+03  0.16191690237E+04  0.18326420330E+04  0.65864270000E+03 0.  1.
    8880022    1    1    2    0    0  0.26329872914E+02  0.54987728213E+03 -0.57176266794E+03  0.80830841210E+03  0.15294330000E+03 0.  0.
<mgrwt>
<rscale>  0 0.77535094E+03</rscale>
<asrwt>0</asrwt>
<pdfrwt beam="1">  1        2 0.12258032E+00 0.85841045E+03</pdfrwt>
<pdfrwt beam="2">  1       -2 0.28371975E+00 0.85841045E+03</pdfrwt>
<totfact> 0.14144870E+00</totfact>
</mgrwt>
</event>
<event>
 4    1  0.1998832E-007  0.7507884E+03  0.7818608E-02  0.9829567E-01
          2   -1    0    0  501    0  0.00000000000E+00  0.00000000000E+00  0.24714480551E+04  0.24714480551E+04  0.25500000000E-02 0. -1.
         -2   -1    0    0    0  501 -0.00000000000E+00 -0.00000000000E+00 -0.25500635291E+03  0.25500635292E+03  0.25500000000E-02 0.  1.
    8880023    1    1    2    0    0 -0.35876843634E+03  0.34033583563E+02  0.36636116519E+03  0.83540635941E+03  0.65864270000E+03 0.  1.
    8880022    1    1    2    0    0  0.35876843634E+03 -0.34033583563E+02  0.18500805370E+04  0.18910480486E+04  0.15294330000E+03 0.  0.
<mgrwt>
<rscale>  0 0.63799674E+03</rscale>
<asrwt>0</asrwt>
<pdfrwt beam="1">  1        2 0.38022279E+00 0.75078844E+03</pdfrwt>
<pdfrwt beam="2">  1       -2 0.39231745E-01 0.75078844E+03</pdfrwt>
<totfact> 0.23194822E+01</totfact>
</mgrwt>
</event>
<event>
 4    1  0.1998832E-007  0.9772703E+03  0.7818608E-02  0.9411918E-01
          2   -1    0    0  501    0  0.00000000000E+00  0.00000000000E+00  0.32322614329E+04  0.32322614329E+04  0.25500000000E-02 0. -1.
         -2   -1    0    0    0  501 -0.00000000000E+00 -0.00000000000E+00 -0.24232804482E+03  0.24232804484E+03  0.25500000000E-02 0.  1.
    8880023    1    1    2    0    0 -0.34695823623E+03  0.63314058669E+03  0.12658668529E+04  0.15992110917E+04  0.65864270000E+03 0.  0.
    8880022    1    1    2    0    0  0.34695823623E+03 -0.63314058669E+03  0.17240665352E+04  0.18753783860E+04  0.15294330000E+03 0.  0.
<mgrwt>
<rscale>  0 0.91101302E+03</rscale>
<asrwt>0</asrwt>
<pdfrwt beam="1">  1        2 0.49727099E+00 0.97727029E+03</pdfrwt>
<pdfrwt beam="2">  1       -2 0.37281238E-01 0.97727029E+03</pdfrwt>
<totfact> 0.86493466E+00</totfact>
</mgrwt>
</event>
<event>
 4    1  0.1998832E-007  0.7708866E+03  0.7818608E-02  0.9777697E-01
          2   -1    0    0  501    0  0.00000000000E+00  0.00000000000E+00  0.17729594503E+04  0.17729594503E+04  0.25500000000E-02 0. -1.
         -2   -1    0    0    0  501 -0.00000000000E+00 -0.00000000000E+00 -0.54307947006E+03  0.54307947006E+03  0.25500000000E-02 0.  1.
    8880023    1    1    2    0    0  0.27751280997E+03  0.28886423173E+03 -0.22196192861E+03  0.80220521569E+03  0.65864270000E+03 0.  1.
    8880022    1    1    2    0    0 -0.27751280997E+03 -0.28886423173E+03  0.14518419089E+04  0.15138337047E+04  0.15294330000E+03 0.  0.
<mgrwt>
<rscale>  0 0.66573301E+03</rscale>
<asrwt>0</asrwt>
<pdfrwt beam="1">  1        2 0.27276299E+00 0.77088657E+03</pdfrwt>
<pdfrwt beam="2">  1       -2 0.83550688E-01 0.77088657E+03</pdfrwt>
<totfact> 0.11494679E+01</totfact>
</mgrwt>
</event>
<event>
 4    1  0.1998832E-007  0.1312663E+04  0.7818608E-02  0.9054701E-01
          2   -1    0    0  501    0  0.00000000000E+00  0.00000000000E+00  0.12278992539E+04  0.12278992539E+04  0.25500000000E-02 0. -1.
         -2   -1    0    0    0  501 -0.00000000000E+00 -0.00000000000E+00 -0.14812141890E+04  0.14812141890E+04  0.25500000000E-02 0.  1.
    8880023    1    1    2    0    0 -0.38995123186E+03  0.10664011726E+04 -0.69004089038E+03  0.14829834998E+04  0.65864270000E+03 0.  1.
    8880022    1    1    2    0    0  0.38995123186E+03 -0.10664011726E+04  0.43672595533E+03  0.12261299430E+04  0.15294330000E+03 0.  0.
<mgrwt>
<rscale>  0 0.12687736E+04</rscale>
<asrwt>0</asrwt>
<pdfrwt beam="1">  1        2 0.18890758E+00 0.13126628E+04</pdfrwt>
<pdfrwt beam="2">  1       -2 0.22787911E+00 0.13126628E+04</pdfrwt>
<totfact> 0.15432577E+00</totfact>
</mgrwt>
</event>
<event>
 4    1  0.1998832E-007  0.1584547E+04  0.7818608E-02  0.8852132E-01
          2   -1    0    0  501    0  0.00000000000E+00  0.00000000000E+00  0.22489992833E+04  0.22489992833E+04  0.25500000000E-02 0. -1.
         -2   -1    0    0    0  501 -0.00000000000E+00 -0.00000000000E+00 -0.25631339682E+04  0.25631339682E+04  0.25500000000E-02 0.  1.
    8880023    1    1    2    0    0  0.12452066006E+04  0.72556172266E+03 -0.20241439778E+04  0.25705929940E+04  0.65864270000E+03 0.  1.
    8880022    1    1    2    0    0 -0.12452066006E+04 -0.72556172266E+03  0.17100092929E+04  0.22415402576E+04  0.15294330000E+03 0.  0.
<mgrwt>
<rscale>  0 0.15495866E+04</rscale>
<asrwt>0</asrwt>
<pdfrwt beam="1">  1        2 0.34599989E+00 0.15845471E+04</pdfrwt>
<pdfrwt beam="2">  1       -2 0.39432830E+00 0.15845471E+04</pdfrwt>
<totfact> 0.36372772E-02</totfact>
</mgrwt>
</event>
<event>
 4    1  0.1998832E-007  0.6602881E+03  0.7818608E-02  0.1023863E+00
          2   -1    0    0  501    0  0.00000000000E+00  0.00000000000E+00  0.15046399412E+04  0.15046399412E+04  0.25500000000E-02 0. -1.
         -2   -1    0    0    0  501 -0.00000000000E+00 -0.00000000000E+00 -0.46005607356E+03  0.46005607357E+03  0.25500000000E-02 0.  1.
    8880023    1    1    2    0    0  0.35349912529E+02  0.30341307065E+02 -0.21545748234E+03  0.69455190173E+03  0.65864270000E+03 0.  1.
    8880022    1    1    2    0    0 -0.35349912529E+02 -0.30341307065E+02  0.12600413500E+04  0.12701441130E+04  0.15294330000E+03 0.  0.
<mgrwt>
<rscale>  0 0.46317934E+03</rscale>
<asrwt>0</asrwt>
<pdfrwt beam="1">  1        2 0.23148307E+00 0.66028813E+03</pdfrwt>
<pdfrwt beam="2">  1       -2 0.70777858E-01 0.66028813E+03</pdfrwt>
<totfact> 0.23709226E+01</totfact>
</mgrwt>
</event>
<event>
 4    1  0.1998832E-007  0.7182934E+03  0.7818608E-02  0.9928403E-01
         -2   -1    0    0    0  501 -0.00000000000E+00  0.00000000000E+00  0.40881193866E+03  0.40881193866E+03  0.25500000000E-02 0.  1.
          2   -1    0    0  501    0  0.00000000000E+00 -0.00000000000E+00 -0.28277639014E+04  0.28277639014E+04  0.25500000000E-02 0. -1.
    8880023    1    1    2    0    0 -0.17755975206E+03 -0.22496176036E+03  0.74413681376E+02  0.72213770253E+03  0.65864270000E+03 0.  1.
    8880022    1    1    2    0    0  0.17755975206E+03  0.22496176036E+03 -0.24933656441E+04  0.25144381375E+04  0.15294330000E+03 0.  0.
<mgrwt>
<rscale>  0 0.58904277E+03</rscale>
<asrwt>0</asrwt>
<pdfrwt beam="1">  1        2 0.43504059E+00 0.71829344E+03</pdfrwt>
<pdfrwt beam="2">  1       -2 0.62894146E-01 0.71829344E+03</pdfrwt>
<totfact> 0.55576451E+00</totfact>
</mgrwt>
</event>
<event>
 4    1  0.1998832E-007  0.7942449E+03  0.7818608E-02  0.9723381E-01
          2   -1    0    0  501    0  0.00000000000E+00  0.00000000000E+00  0.99861359839E+03  0.99861359839E+03  0.25500000000E-02 0. -1.
         -2   -1    0    0    0  501 -0.00000000000E+00 -0.00000000000E+00 -0.77230212364E+03  0.77230212364E+03  0.25500000000E-02 0.  1.
    8880023    1    1    2    0    0  0.17244060836E+03  0.40899745620E+03 -0.47613343633E+03  0.92602804388E+03  0.65864270000E+03 0.  1.
    8880022    1    1    2    0    0 -0.17244060836E+03 -0.40899745620E+03  0.70244491107E+03  0.84488767816E+03  0.15294330000E+03 0.  0.
<mgrwt>
<rscale>  0 0.69641612E+03</rscale>
<asrwt>0</asrwt>
<pdfrwt beam="1">  1        2 0.15363286E+00 0.79424485E+03</pdfrwt>
<pdfrwt beam="2">  1       -2 0.11881571E+00 0.79424485E+03</pdfrwt>
<totfact> 0.13901953E+01</totfact>
</mgrwt>
</event>
<event>
 4    1  0.1998832E-007  0.7110767E+03  0.7818608E-02  0.9954024E-01
          2   -1    0    0  501    0  0.00000000000E+00  0.00000000000E+00  0.86225660426E+03  0.86225660426E+03  0.25500000000E-02 0. -1.
         -2   -1    0    0    0  501 -0.00000000000E+00 -0.00000000000E+00 -0.16190694403E+04  0.16190694403E+04  0.25500000000E-02 0.  1.
    8880023    1    1    2    0    0 -0.24973534013E+02  0.26682625395E+03 -0.15090889393E+04  0.16682264715E+04  0.65864270000E+03 0.  1.
    8880022    1    1    2    0    0  0.24973534013E+02 -0.26682625395E+03  0.75227610326E+03  0.81309957308E+03  0.15294330000E+03 0.  0.
<mgrwt>
<rscale>  0 0.57712990E+03</rscale>
<asrwt>0</asrwt>
<pdfrwt beam="1">  1        2 0.13265486E+00 0.71107674E+03</pdfrwt>
<pdfrwt beam="2">  1       -2 0.24908761E+00 0.71107674E+03</pdfrwt>
<totfact> 0.21046092E+00</totfact>
</mgrwt>
</event>
<event>
 4    1  0.1998832E-007  0.1496924E+04  0.7818608E-02  0.8911811E-01
         -2   -1    0    0    0  501 -0.00000000000E+00  0.00000000000E+00  0.23409277329E+04  0.23409277329E+04  0.25500000000E-02 0.  1.
          2   -1    0    0  501    0  0.00000000000E+00 -0.00000000000E+00 -0.13780401287E+04  0.13780401287E+04  0.25500000000E-02 0. -1.
    8880023    1    1    2    0    0 -0.13043298601E+04 -0.32510785220E+03  0.16278383498E+04  0.22114790071E+04  0.65864270000E+03 0.  1.
    8880022    1    1    2    0    0  0.13043298601E+04  0.32510785220E+03 -0.66495074561E+03  0.15074888545E+04  0.15294330000E+03 0.  0.
<mgrwt>
<rscale>  0 0.14595433E+04</rscale>
<asrwt>0</asrwt>
<pdfrwt beam="1">  1        2 0.21200617E+00 0.14969241E+04</pdfrwt>
<pdfrwt beam="2">  1       -2 0.36014273E+00 0.14969241E+04</pdfrwt>
<totfact> 0.18872296E-01</totfact>
</mgrwt>
</event>
<event>
 4    1  0.1998832E-007  0.8272490E+03  0.7818608E-02  0.9654709E-01
          2   -1    0    0  501    0  0.00000000000E+00  0.00000000000E+00  0.99597057904E+03  0.99597057904E+03  0.25500000000E-02 0. -1.
         -2   -1    0    0    0  501 -0.00000000000E+00 -0.00000000000E+00 -0.62275758258E+03  0.62275758258E+03  0.25500000000E-02 0.  1.
    8880023    1    1    2    0    0  0.13326694277E+03 -0.48246303203E+03 -0.19113824810E+03  0.84904339787E+03  0.65864270000E+03 0.  1.
    8880022    1    1    2    0    0 -0.13326694277E+03  0.48246303203E+03  0.56435124456E+03  0.76968476376E+03  0.15294330000E+03 0.  0.
<mgrwt>
<rscale>  0 0.73778633E+03</rscale>
<asrwt>0</asrwt>
<pdfrwt beam="1">  1        2 0.15322624E+00 0.82724897E+03</pdfrwt>
<pdfrwt beam="2">  1       -2 0.95808861E-01 0.82724897E+03</pdfrwt>
<totfact> 0.23355815E+01</totfact>
</mgrwt>
</event>
<event>
 4    1  0.1998832E-007  0.7969555E+03  0.7818608E-02  0.9717418E-01
         -2   -1    0    0    0  501 -0.00000000000E+00  0.00000000000E+00  0.19691672645E+03  0.19691672647E+03  0.25500000000E-02 0.  1.
          2   -1    0    0  501    0  0.00000000000E+00 -0.00000000000E+00 -0.20532347657E+04  0.20532347658E+04  0.25500000000E-02 0. -1.
    8880023    1    1    2    0    0 -0.17966946297E+03 -0.41115285756E+03 -0.12002144900E+04  0.14407126072E+04  0.65864270000E+03 0.  1.
    8880022    1    1    2    0    0  0.17966946297E+03  0.41115285756E+03 -0.65610354931E+03  0.80943888505E+03  0.15294330000E+03 0. -1.
<mgrwt>
<rscale>  0 0.69989133E+03</rscale>
<asrwt>0</asrwt>
<pdfrwt beam="1">  1        2 0.31588226E+00 0.79695545E+03</pdfrwt>
<pdfrwt beam="2">  1       -2 0.30294882E-01 0.79695545E+03</pdfrwt>
<totfact> 0.64324440E+01</totfact>
</mgrwt>
</event>
<event>
 4    1  0.1998832E-007  0.7510749E+03  0.7818608E-02  0.9828787E-01
          2   -1    0    0  501    0  0.00000000000E+00  0.00000000000E+00  0.90931850964E+03  0.90931850964E+03  0.25500000000E-02 0. -1.
         -2   -1    0    0    0  501 -0.00000000000E+00 -0.00000000000E+00 -0.58912593725E+03  0.58912593726E+03  0.25500000000E-02 0.  1.
    8880023    1    1    2    0    0  0.34718405356E+03 -0.98825914172E+02 -0.26294726197E+03  0.79577308147E+03  0.65864270000E+03 0.  1.
    8880022    1    1    2    0    0 -0.34718405356E+03  0.98825914172E+02  0.58313983435E+03  0.70267136542E+03  0.15294330000E+03 0.  0.
<mgrwt>
<rscale>  0 0.63840298E+03</rscale>
<asrwt>0</asrwt>
<pdfrwt beam="1">  1        2 0.13989515E+00 0.75107492E+03</pdfrwt>
<pdfrwt beam="2">  1       -2 0.90634760E-01 0.75107492E+03</pdfrwt>
<totfact> 0.30501395E+01</totfact>
</mgrwt>
</event>
<event>
 4    1  0.1998832E-007  0.6820052E+03  0.7818608E-02  0.1008211E+00
         -2   -1    0    0    0  501 -0.00000000000E+00  0.00000000000E+00  0.38883611753E+03  0.38883611754E+03  0.25500000000E-02 0.  1.
          2   -1    0    0  501    0  0.00000000000E+00 -0.00000000000E+00 -0.13004057020E+04  0.13004057020E+04  0.25500000000E-02 0. -1.
    8880023    1    1    2    0    0 -0.11319711051E+03  0.13604177299E+03  0.64957369203E+02  0.68509168430E+03  0.65864270000E+03 0.  1.
    8880022    1    1    2    0    0  0.11319711051E+03 -0.13604177299E+03 -0.97652695369E+03  0.10041501353E+04  0.15294330000E+03 0.  0.
<mgrwt>
<rscale>  0 0.52191732E+03</rscale>
<asrwt>0</asrwt>
<pdfrwt beam="1">  1        2 0.20006241E+00 0.68200525E+03</pdfrwt>
<pdfrwt beam="2">  1       -2 0.59820942E-01 0.68200525E+03</pdfrwt>
<totfact> 0.44211427E+01</totfact>
</mgrwt>
</event>
<event>
 4    1  0.1998832E-007  0.8785661E+03  0.7818608E-02  0.9561355E-01
          2   -1    0    0  501    0  0.00000000000E+00  0.00000000000E+00  0.22912312171E+04  0.22912312171E+04  0.25500000000E-02 0. -1.
         -2   -1    0    0    0  501 -0.00000000000E+00 -0.00000000000E+00 -0.42434488658E+03  0.42434488658E+03  0.25500000000E-02 0.  1.
    8880023    1    1    2    0    0  0.12110962009E+03 -0.56868324235E+03  0.14334337791E+03  0.89018295898E+03  0.65864270000E+03 0.  1.
    8880022    1    1    2    0    0 -0.12110962009E+03  0.56868324235E+03  0.17235429526E+04  0.18253931447E+04  0.15294330000E+03 0.  0.
<mgrwt>
<rscale>  0 0.79907645E+03</rscale>
<asrwt>0</asrwt>
<pdfrwt beam="1">  1        2 0.35249711E+00 0.87856609E+03</pdfrwt>
<pdfrwt beam="2">  1       -2 0.65283829E-01 0.87856609E+03</pdfrwt>
<totfact> 0.10148310E+01</totfact>
</mgrwt>
</event>
<event>
 4    1  0.1998832E-007  0.1358477E+04  0.7818608E-02  0.9016638E-01
          2   -1    0    0  501    0  0.00000000000E+00  0.00000000000E+00  0.19679162277E+04  0.19679162277E+04  0.25500000000E-02 0. -1.
         -2   -1    0    0    0  501 -0.00000000000E+00 -0.00000000000E+00 -0.10355582755E+04  0.10355582755E+04  0.25500000000E-02 0.  1.
    8880023    1    1    2    0    0  0.38083091839E+03  0.11254404367E+04 -0.17800565112E+03  0.13700892609E+04  0.65864270000E+03 0.  1.
    8880022    1    1    2    0    0 -0.38083091839E+03 -0.11254404367E+04  0.11103636034E+04  0.16333852423E+04  0.15294330000E+03 0.  0.
<mgrwt>
<rscale>  0 0.13164280E+04</rscale>
<asrwt>0</asrwt>
<pdfrwt beam="1">  1        2 0.30275634E+00 0.13584766E+04</pdfrwt>
<pdfrwt beam="2">  1       -2 0.15931666E+00 0.13584766E+04</pdfrwt>
<totfact> 0.16964538E+00</totfact>
</mgrwt>
</event>
<event>
 4    1  0.1998832E-007  0.8003302E+03  0.7818608E-02  0.9710082E-01
          2   -1    0    0  501    0  0.00000000000E+00  0.00000000000E+00  0.13622253409E+04  0.13622253409E+04  0.25500000000E-02 0. -1.
         -2   -1    0    0    0  501 -0.00000000000E+00 -0.00000000000E+00 -0.43486791630E+03  0.43486791631E+03  0.25500000000E-02 0.  1.
    8880023    1    1    2    0    0 -0.34340613863E+03  0.29797733395E+03  0.55834339818E+02  0.80227548097E+03  0.65864270000E+03 0.  1.
    8880022    1    1    2    0    0  0.34340613863E+03 -0.29797733395E+03  0.87152308477E+03  0.99481777623E+03  0.15294330000E+03 0.  0.
<mgrwt>
<rscale>  0 0.70419645E+03</rscale>
<asrwt>0</asrwt>
<pdfrwt beam="1">  1        2 0.20957313E+00 0.80033023E+03</pdfrwt>
<pdfrwt beam="2">  1       -2 0.66902756E-01 0.80033023E+03</pdfrwt>
<totfact> 0.31691271E+01</totfact>
</mgrwt>
</event>
<event>
 4    1  0.1998832E-007  0.7419199E+03  0.7818608E-02  0.9854389E-01
         -2   -1    0    0    0  501 -0.00000000000E+00  0.00000000000E+00  0.21071697712E+03  0.21071697714E+03  0.25500000000E-02 0.  1.
          2   -1    0    0  501    0  0.00000000000E+00 -0.00000000000E+00 -0.18673594395E+04  0.18673594395E+04  0.25500000000E-02 0. -1.
    8880023    1    1    2    0    0  0.61174529182E+02 -0.33599504992E+03 -0.59067644954E+03  0.94833742460E+03  0.65864270000E+03 0.  0.
    8880022    1    1    2    0    0 -0.61174529182E+02  0.33599504992E+03 -0.10659660129E+04  0.11297389921E+04  0.15294330000E+03 0.  0.
<mgrwt>
<rscale>  0 0.62523621E+03</rscale>
<asrwt>0</asrwt>
<pdfrwt beam="1">  1        2 0.28728606E+00 0.74191994E+03</pdfrwt>
<pdfrwt beam="2">  1       -2 0.32417998E-01 0.74191994E+03</pdfrwt>
<totfact> 0.72018243E+01</totfact>
</mgrwt>
</event>
<event>
 4    1  0.1998832E-007  0.1746642E+04  0.7818608E-02  0.8752641E-01
         -2   -1    0    0    0  501 -0.00000000000E+00  0.00000000000E+00  0.14700605945E+04  0.14700605945E+04  0.25500000000E-02 0.  1.
          2   -1    0    0  501    0  0.00000000000E+00 -0.00000000000E+00 -0.24097998591E+04  0.24097998591E+04  0.25500000000E-02 0. -1.
    8880023    1    1    2    0    0  0.11993919199E+04  0.10855449729E+04  0.37884217981E+03  0.17872550095E+04  0.65864270000E+03 0.  0.
    8880022    1    1    2    0    0 -0.11993919199E+04 -0.10855449729E+04 -0.13185814444E+04  0.20926054440E+04  0.15294330000E+03 0.  0.
<mgrwt>
<rscale>  0 0.17153805E+04</rscale>
<asrwt>0</asrwt>
<pdfrwt beam="1">  1        2 0.37073844E+00 0.17466422E+04</pdfrwt>
<pdfrwt beam="2">  1       -2 0.22616317E+00 0.17466422E+04</pdfrwt>
<totfact> 0.32411525E-01</totfact>
</mgrwt>
</event>
<event>
 4    1  0.1998832E-007  0.1165094E+04  0.7818608E-02  0.9191823E-01
          2   -1    0    0  501    0  0.00000000000E+00  0.00000000000E+00  0.27504760215E+04  0.27504760215E+04  0.25500000000E-02 0. -1.
         -2   -1    0    0    0  501 -0.00000000000E+00 -0.00000000000E+00 -0.84622324119E+03  0.84622324120E+03  0.25500000000E-02 0.  1.
    8880023    1    1    2    0    0  0.72532135208E+03  0.63051018438E+03 -0.28626280898E+03  0.11997461225E+04  0.65864270000E+03 0.  0.
    8880022    1    1    2    0    0 -0.72532135208E+03 -0.63051018438E+03  0.21905155893E+04  0.23969531402E+04  0.15294330000E+03 0.  0.
<mgrwt>
<rscale>  0 0.11138225E+04</rscale>
<asrwt>0</asrwt>
<pdfrwt beam="1">  1        2 0.42315016E+00 0.11650941E+04</pdfrwt>
<pdfrwt beam="2">  1       -2 0.13018819E+00 0.11650941E+04</pdfrwt>
<totfact> 0.10584216E+00</totfact>
</mgrwt>
</event>
<event>
 4    1  0.1998832E-007  0.1434084E+04  0.7818608E-02  0.8957641E-01
          2   -1    0    0  501    0  0.00000000000E+00  0.00000000000E+00  0.30415222236E+04  0.30415222236E+04  0.25500000000E-02 0. -1.
         -2   -1    0    0    0  501 -0.00000000000E+00 -0.00000000000E+00 -0.10428067715E+04  0.10428067715E+04  0.25500000000E-02 0.  1.
    8880023    1    1    2    0    0 -0.38304722126E+03  0.12149328608E+04 -0.28757228803E+03  0.14626329194E+04  0.65864270000E+03 0.  0.
    8880022    1    1    2    0    0  0.38304722126E+03 -0.12149328608E+04  0.22862877401E+04  0.26216960757E+04  0.15294330000E+03 0.  0.
<mgrwt>
<rscale>  0 0.13947314E+04</rscale>
<asrwt>0</asrwt>
<pdfrwt beam="1">  1        2 0.46792650E+00 0.14340841E+04</pdfrwt>
<pdfrwt beam="2">  1       -2 0.16043181E+00 0.14340841E+04</pdfrwt>
<totfact> 0.39119346E-01</totfact>
</mgrwt>
</event>
<event>
 4    1  0.1998832E-007  0.1845112E+04  0.7818608E-02  0.8697984E-01
         -2   -1    0    0    0  501 -0.00000000000E+00  0.00000000000E+00  0.11047675677E+04  0.11047675677E+04  0.25500000000E-02 0.  1.
          2   -1    0    0  501    0  0.00000000000E+00 -0.00000000000E+00 -0.39657382692E+04  0.39657382692E+04  0.25500000000E-02 0. -1.
    8880023    1    1    2    0    0 -0.12320366770E+04  0.12052857681E+04 -0.14581533686E+03  0.18508647912E+04  0.65864270000E+03 0.  0.
    8880022    1    1    2    0    0  0.12320366770E+04 -0.12052857681E+04 -0.27151553646E+04  0.32196410457E+04  0.15294330000E+03 0.  0.
<mgrwt>
<rscale>  0 0.18157200E+04</rscale>
<asrwt>0</asrwt>
<pdfrwt beam="1">  1        2 0.61011357E+00 0.18451120E+04</pdfrwt>
<pdfrwt beam="2">  1       -2 0.16996424E+00 0.18451120E+04</pdfrwt>
<totfact> 0.71249321E-02</totfact>
</mgrwt>
</event>
<event>
 4    1  0.1998832E-007  0.1156314E+04  0.7818608E-02  0.9200804E-01
          2   -1    0    0  501    0  0.00000000000E+00  0.00000000000E+00  0.16720723612E+04  0.16720723612E+04  0.25500000000E-02 0. -1.
         -2   -1    0    0    0  501 -0.00000000000E+00 -0.00000000000E+00 -0.15036228762E+04  0.15036228762E+04  0.25500000000E-02 0.  1.
    8880023    1    1    2    0    0  0.86675978893E+03  0.38984550723E+03 -0.10914956133E+04  0.15901021764E+04  0.65864270000E+03 0.  0.
    8880022    1    1    2    0    0 -0.86675978893E+03 -0.38984550723E+03  0.12599450983E+04  0.15855930609E+04  0.15294330000E+03 0.  0.
<mgrwt>
<rscale>  0 0.11045133E+04</rscale>
<asrwt>0</asrwt>
<pdfrwt beam="1">  1        2 0.25724190E+00 0.11563141E+04</pdfrwt>
<pdfrwt beam="2">  1       -2 0.23132660E+00 0.11563141E+04</pdfrwt>
<totfact> 0.83227963E-01</totfact>
</mgrwt>
</event>
<event>
 4    1  0.1998832E-007  0.8780909E+03  0.7818608E-02  0.9562160E-01
          2   -1    0    0  501    0  0.00000000000E+00  0.00000000000E+00  0.15613023104E+04  0.15613023104E+04  0.25500000000E-02 0. -1.
         -2   -1    0    0    0  501 -0.00000000000E+00 -0.00000000000E+00 -0.91161466074E+03  0.91161466075E+03  0.25500000000E-02 0.  1.
    8880023    1    1    2    0    0  0.29252616539E+03 -0.50165903166E+03 -0.61557957517E+03  0.10723720255E+04  0.65864270000E+03 0.  1.
    8880022    1    1    2    0    0 -0.29252616539E+03  0.50165903166E+03  0.12652672248E+04  0.14005449456E+04  0.15294330000E+03 0.  0.
<mgrwt>
<rscale>  0 0.79852142E+03</rscale>
<asrwt>0</asrwt>
<pdfrwt beam="1">  1        2 0.24020035E+00 0.87809085E+03</pdfrwt>
<pdfrwt beam="2">  1       -2 0.14024841E+00 0.87809085E+03</pdfrwt>
<totfact> 0.42266715E+00</totfact>
</mgrwt>
</event>
<event>
 4    1  0.1998832E-007  0.7169978E+03  0.7818608E-02  0.9932879E-01
          2   -1    0    0  501    0  0.00000000000E+00  0.00000000000E+00  0.21460921362E+04  0.21460921362E+04  0.25500000000E-02 0. -1.
         -2   -1    0    0    0  501 -0.00000000000E+00 -0.00000000000E+00 -0.63080446953E+03  0.63080446953E+03  0.25500000000E-02 0.  1.
    8880023    1    1    2    0    0 -0.32918213500E+02  0.28141066602E+03 -0.40927594000E+03  0.82558619965E+03  0.65864270000E+03 0.  1.
    8880022    1    1    2    0    0  0.32918213500E+02 -0.28141066602E+03  0.19245636067E+04  0.19513104061E+04  0.15294330000E+03 0.  0.
<mgrwt>
<rscale>  0 0.58693976E+03</rscale>
<asrwt>0</asrwt>
<pdfrwt beam="1">  1        2 0.33016802E+00 0.71699775E+03</pdfrwt>
<pdfrwt beam="2">  1       -2 0.97046842E-01 0.71699775E+03</pdfrwt>
<totfact> 0.51330251E+00</totfact>
</mgrwt>
</event>
<event>
 4    1  0.1998832E-007  0.9292809E+03  0.7818608E-02  0.9480573E-01
         -2   -1    0    0    0  501 -0.00000000000E+00  0.00000000000E+00  0.14656075309E+04  0.14656075309E+04  0.25500000000E-02 0.  1.
          2   -1    0    0  501    0  0.00000000000E+00 -0.00000000000E+00 -0.10953123324E+04  0.10953123325E+04  0.25500000000E-02 0. -1.
    8880023    1    1    2    0    0 -0.45033339068E+03  0.47639544421E+03  0.11838267895E+04  0.15049946365E+04  0.65864270000E+03 0.  1.
    8880022    1    1    2    0    0  0.45033339068E+03 -0.47639544421E+03 -0.81353159107E+03  0.10559252269E+04  0.15294330000E+03 0.  0.
<mgrwt>
<rscale>  0 0.85731385E+03</rscale>
<asrwt>0</asrwt>
<pdfrwt beam="1">  1        2 0.16850959E+00 0.92928090E+03</pdfrwt>
<pdfrwt beam="2">  1       -2 0.22547808E+00 0.92928090E+03</pdfrwt>
<totfact> 0.20079674E+00</totfact>
</mgrwt>
</event>
<event>
 4    1  0.1998832E-007  0.8501193E+03  0.7818608E-02  0.9611387E-01
         -2   -1    0    0    0  501 -0.00000000000E+00  0.00000000000E+00  0.22903719264E+04  0.22903719264E+04  0.25500000000E-02 0.  1.
          2   -1    0    0  501    0  0.00000000000E+00 -0.00000000000E+00 -0.69910982724E+03  0.69910982724E+03  0.25500000000E-02 0. -1.
    8880023    1    1    2    0    0 -0.42700869226E+03 -0.32642942741E+03  0.20800421666E+04  0.22470599048E+04  0.65864270000E+03 0.  1.
    8880022    1    1    2    0    0  0.42700869226E+03  0.32642942741E+03 -0.48878006746E+03  0.74242184889E+03  0.15294330000E+03 0.  0.
<mgrwt>
<rscale>  0 0.76547086E+03</rscale>
<asrwt>0</asrwt>
<pdfrwt beam="1">  1        2 0.10755536E+00 0.85011929E+03</pdfrwt>
<pdfrwt beam="2">  1       -2 0.35236490E+00 0.85011929E+03</pdfrwt>
<totfact> 0.63979590E-01</totfact>
</mgrwt>
</event>
<event>
 4    1  0.1998832E-007  0.1358371E+04  0.7818608E-02  0.9016724E-01
          2   -1    0    0  501    0  0.00000000000E+00  0.00000000000E+00  0.23444050774E+04  0.23444050774E+04  0.25500000000E-02 0. -1.
         -2   -1    0    0    0  501 -0.00000000000E+00 -0.00000000000E+00 -0.87246355718E+03  0.87246355718E+03  0.25500000000E-02 0.  1.
    8880023    1    1    2    0    0  0.97297095246E+03 -0.68168063753E+03  0.52248213438E+02  0.13593752418E+04  0.65864270000E+03 0.  0.
    8880022    1    1    2    0    0 -0.97297095246E+03  0.68168063753E+03  0.14196933068E+04  0.18574933928E+04  0.15294330000E+03 0. -1.
<mgrwt>
<rscale>  0 0.13163182E+04</rscale>
<asrwt>0</asrwt>
<pdfrwt beam="1">  1        2 0.36067770E+00 0.13583708E+04</pdfrwt>
<pdfrwt beam="2">  1       -2 0.13422516E+00 0.13583708E+04</pdfrwt>
<totfact> 0.16445938E+00</totfact>
</mgrwt>
</event>
<event>
 4    1  0.1998832E-007  0.8234071E+03  0.7818608E-02  0.9662299E-01
         -2   -1    0    0    0  501 -0.00000000000E+00  0.00000000000E+00  0.21441319936E+04  0.21441319936E+04  0.25500000000E-02 0.  1.
          2   -1    0    0  501    0  0.00000000000E+00 -0.00000000000E+00 -0.73996515416E+03  0.73996515417E+03  0.25500000000E-02 0. -1.
    8880023    1    1    2    0    0 -0.28287311789E+03 -0.40518116638E+03  0.19593141518E+04  0.21253025973E+04  0.65864270000E+03 0.  1.
    8880022    1    1    2    0    0  0.28287311789E+03  0.40518116638E+03 -0.55514731234E+03  0.75879455048E+03  0.15294330000E+03 0.  0.
<mgrwt>
<rscale>  0 0.73306549E+03</rscale>
<asrwt>0</asrwt>
<pdfrwt beam="1">  1        2 0.11384080E+00 0.82340706E+03</pdfrwt>
<pdfrwt beam="2">  1       -2 0.32986645E+00 0.82340706E+03</pdfrwt>
<totfact> 0.82334568E-01</totfact>
</mgrwt>
</event>
<event>
 4    1  0.1998832E-007  0.7600545E+03  0.7818608E-02  0.9804967E-01
         -2   -1    0    0    0  501 -0.00000000000E+00  0.00000000000E+00  0.19592305419E+04  0.19592305419E+04  0.25500000000E-02 0.  1.
          2   -1    0    0  501    0  0.00000000000E+00 -0.00000000000E+00 -0.13896187165E+04  0.13896187165E+04  0.25500000000E-02 0. -1.
    8880023    1    1    2    0    0 -0.35615067881E+03 -0.13049619976E+03  0.18524943529E+04  0.20023531402E+04  0.65864270000E+03 0.  1.
    8880022    1    1    2    0    0  0.35615067881E+03  0.13049619976E+03 -0.12828825274E+04  0.13464961182E+04  0.15294330000E+03 0.  0.
<mgrwt>
<rscale>  0 0.65096691E+03</rscale>
<asrwt>0</asrwt>
<pdfrwt beam="1">  1        2 0.21378750E+00 0.76005445E+03</pdfrwt>
<pdfrwt beam="2">  1       -2 0.30142008E+00 0.76005445E+03</pdfrwt>
<totfact> 0.48022358E-01</totfact>
</mgrwt>
</event>
<event>
 4    1  0.1998832E-007  0.1189950E+04  0.7818608E-02  0.9166954E-01
          2   -1    0    0  501    0  0.00000000000E+00  0.00000000000E+00  0.10230838067E+04  0.10230838067E+04  0.25500000000E-02 0. -1.
         -2   -1    0    0    0  501 -0.00000000000E+00 -0.00000000000E+00 -0.15592504574E+04  0.15592504574E+04  0.25500000000E-02 0.  1.
    8880023    1    1    2    0    0 -0.53679772250E+03 -0.83307865345E+03 -0.92461409505E+03  0.15069483298E+04  0.65864270000E+03 0.  1.
    8880022    1    1    2    0    0  0.53679772250E+03  0.83307865345E+03  0.38844744432E+03  0.10753859343E+04  0.15294330000E+03 0.  0.
<mgrwt>
<rscale>  0 0.11401129E+04</rscale>
<asrwt>0</asrwt>
<pdfrwt beam="1">  1        2 0.15739751E+00 0.11899504E+04</pdfrwt>
<pdfrwt beam="2">  1       -2 0.23988469E+00 0.11899504E+04</pdfrwt>
<totfact> 0.17602502E+00</totfact>
</mgrwt>
</event>
<event>
 4    1  0.1998832E-007  0.1532889E+04  0.7818608E-02  0.8886754E-01
         -2   -1    0    0    0  501 -0.00000000000E+00  0.00000000000E+00  0.15659615395E+04  0.15659615395E+04  0.25500000000E-02 0.  1.
          2   -1    0    0  501    0  0.00000000000E+00 -0.00000000000E+00 -0.21779503309E+04  0.21779503309E+04  0.25500000000E-02 0. -1.
    8880023    1    1    2    0    0 -0.13713646095E+04 -0.18787652561E+03  0.82671770239E+03  0.17416115660E+04  0.65864270000E+03 0.  1.
    8880022    1    1    2    0    0  0.13713646095E+04  0.18787652561E+03 -0.14387064938E+04  0.20023003045E+04  0.15294330000E+03 0.  0.
<mgrwt>
<rscale>  0 0.14965440E+04</rscale>
<asrwt>0</asrwt>
<pdfrwt beam="1">  1        2 0.33506928E+00 0.15328890E+04</pdfrwt>
<pdfrwt beam="2">  1       -2 0.24091716E+00 0.15328890E+04</pdfrwt>
<totfact> 0.36283768E-01</totfact>
</mgrwt>
</event>
<event>
 4    1  0.1998832E-007  0.2041543E+04  0.7818608E-02  0.8599520E-01
         -2   -1    0    0    0  501 -0.00000000000E+00  0.00000000000E+00  0.20756902184E+04  0.20756902184E+04  0.25500000000E-02 0.  1.
          2   -1    0    0  501    0  0.00000000000E+00 -0.00000000000E+00 -0.22618917236E+04  0.22618917236E+04  0.25500000000E-02 0. -1.
    8880023    1    1    2    0    0  0.40519699935E+03  0.18894183161E+04  0.76270949376E+03  0.21793627875E+04  0.65864270000E+03 0.  0.
    8880022    1    1    2    0    0 -0.40519699935E+03 -0.18894183161E+04 -0.94891099899E+03  0.21582191544E+04  0.15294330000E+03 0.  0.
<mgrwt>
<rscale>  0 0.20152591E+04</rscale>
<asrwt>0</asrwt>
<pdfrwt beam="1">  1        2 0.34798334E+00 0.20415426E+04</pdfrwt>
<pdfrwt beam="2">  1       -2 0.31933695E+00 0.20415426E+04</pdfrwt>
<totfact> 0.10179337E-01</totfact>
</mgrwt>
</event>
<event>
 4    1  0.1998832E-007  0.1191000E+04  0.7818608E-02  0.9165921E-01
         -2   -1    0    0    0  501 -0.00000000000E+00  0.00000000000E+00  0.62891080218E+03  0.62891080219E+03  0.25500000000E-02 0.  1.
          2   -1    0    0  501    0  0.00000000000E+00 -0.00000000000E+00 -0.19362893648E+04  0.19362893648E+04  0.25500000000E-02 0. -1.
    8880023    1    1    2    0    0  0.99165028275E+03  0.36053948469E+02 -0.84193567725E+03  0.14585390161E+04  0.65864270000E+03 0.  0.
    8880022    1    1    2    0    0 -0.99165028275E+03 -0.36053948469E+02 -0.46544288540E+03  0.11066611510E+04  0.15294330000E+03 0.  0.
<mgrwt>
<rscale>  0 0.11412207E+04</rscale>
<asrwt>0</asrwt>
<pdfrwt beam="1">  1        2 0.29789067E+00 0.11909997E+04</pdfrwt>
<pdfrwt beam="2">  1       -2 0.96755509E-01 0.11909997E+04</pdfrwt>
<totfact> 0.63421630E+00</totfact>
</mgrwt>
</event>
<event>
 4    1  0.1998832E-007  0.7650529E+03  0.7818608E-02  0.9792197E-01
          2   -1    0    0  501    0  0.00000000000E+00  0.00000000000E+00  0.92855562955E+03  0.92855562956E+03  0.25500000000E-02 0. -1.
         -2   -1    0    0    0  501 -0.00000000000E+00 -0.00000000000E+00 -0.86962127789E+03  0.86962127790E+03  0.25500000000E-02 0.  1.
    8880023    1    1    2    0    0 -0.28741595501E+03 -0.26246483539E+03 -0.63079626068E+03  0.99156938727E+03  0.65864270000E+03 0.  0.
    8880022    1    1    2    0    0  0.28741595501E+03  0.26246483539E+03  0.68973061234E+03  0.80660752019E+03  0.15294330000E+03 0.  0.
<mgrwt>
<rscale>  0 0.65782959E+03</rscale>
<asrwt>0</asrwt>
<pdfrwt beam="1">  1        2 0.14285471E+00 0.76505289E+03</pdfrwt>
<pdfrwt beam="2">  1       -2 0.13378789E+00 0.76505289E+03</pdfrwt>
<totfact> 0.11494110E+01</totfact>
</mgrwt>
</event>
<event>
 4    1  0.1998832E-007  0.6682912E+03  0.7818608E-02  0.1016919E+00
          2   -1    0    0  501    0  0.00000000000E+00  0.00000000000E+00  0.25795442430E+04  0.25795442430E+04  0.25500000000E-02 0. -1.
         -2   -1    0    0    0  501 -0.00000000000E+00 -0.00000000000E+00 -0.15041022072E+03  0.15041022074E+03  0.25500000000E-02 0.  1.
    8880023    1    1    2    0    0  0.86991134620E+02  0.72356477600E+02  0.62240550459E+03  0.91323695488E+03  0.65864270000E+03 0.  1.
    8880022    1    1    2    0    0 -0.86991134620E+02 -0.72356477600E+02  0.18067285177E+04  0.18167175088E+04  0.15294330000E+03 0.  0.
<mgrwt>
<rscale>  0 0.48815162E+03</rscale>
<asrwt>0</asrwt>
<pdfrwt beam="1">  1        2 0.39685291E+00 0.66829120E+03</pdfrwt>
<pdfrwt beam="2">  1       -2 0.23140037E-01 0.66829120E+03</pdfrwt>
<totfact> 0.54365759E+01</totfact>
</mgrwt>
</event>
<event>
 4    1  0.1998832E-007  0.8886779E+03  0.7818608E-02  0.9544457E-01
          2   -1    0    0  501    0  0.00000000000E+00  0.00000000000E+00  0.26680050711E+04  0.26680050711E+04  0.25500000000E-02 0. -1.
         -2   -1    0    0    0  501 -0.00000000000E+00 -0.00000000000E+00 -0.45036166192E+03  0.45036166192E+03  0.25500000000E-02 0.  1.
    8880023    1    1    2    0    0 -0.59563828868E+03  0.33959679623E+02  0.78286796605E+02  0.89211953211E+03  0.65864270000E+03 0.  1.
    8880022    1    1    2    0    0  0.59563828868E+03 -0.33959679623E+02  0.21393566126E+04  0.22262472009E+04  0.15294330000E+03 0.  0.
<mgrwt>
<rscale>  0 0.81084048E+03</rscale>
<asrwt>0</asrwt>
<pdfrwt beam="1">  1        2 0.41046232E+00 0.88867792E+03</pdfrwt>
<pdfrwt beam="2">  1       -2 0.69286410E-01 0.88867792E+03</pdfrwt>
<totfact> 0.54365021E+00</totfact>
</mgrwt>
</event>
<event>
 4    1  0.1998832E-007  0.9926034E+03  0.7818608E-02  0.9391299E-01
          2   -1    0    0  501    0  0.00000000000E+00  0.00000000000E+00  0.35885837089E+04  0.35885837089E+04  0.25500000000E-02 0. -1.
         -2   -1    0    0    0  501 -0.00000000000E+00 -0.00000000000E+00 -0.28431556061E+03  0.28431556062E+03  0.25500000000E-02 0.  1.
    8880023    1    1    2    0    0 -0.57531677050E+03 -0.46953375974E+03  0.85866465389E+03  0.13124658213E+04  0.65864270000E+03 0.  1.
    8880022    1    1    2    0    0  0.57531677050E+03  0.46953375974E+03  0.24456034944E+04  0.25604334482E+04  0.15294330000E+03 0.  0.
<mgrwt>
<rscale>  0 0.92795193E+03</rscale>
<asrwt>0</asrwt>
<pdfrwt beam="1">  1        2 0.55208979E+00 0.99260342E+03</pdfrwt>
<pdfrwt beam="2">  1       -2 0.43740857E-01 0.99260342E+03</pdfrwt>
<totfact> 0.36308370E+00</totfact>
</mgrwt>
</event>
<event>
 4    1  0.1998832E-007  0.8557345E+03  0.7818608E-02  0.9601196E-01
         -2   -1    0    0    0  501 -0.00000000000E+00  0.00000000000E+00  0.49008392364E+03  0.49008392365E+03  0.25500000000E-02 0.  1.
          2   -1    0    0  501    0  0.00000000000E+00 -0.00000000000E+00 -0.22639745304E+04  0.22639745304E+04  0.25500000000E-02 0. -1.
    8880023    1    1    2    0    0 -0.37369108167E+02 -0.54504581795E+03  0.36844389418E+02  0.85652735462E+03  0.65864270000E+03 0.  1.
    8880022    1    1    2    0    0  0.37369108167E+02  0.54504581795E+03 -0.18107349962E+04  0.18975310994E+04  0.15294330000E+03 0.  0.
<mgrwt>
<rscale>  0 0.77217046E+03</rscale>
<asrwt>0</asrwt>
<pdfrwt beam="1">  1        2 0.34830377E+00 0.85573454E+03</pdfrwt>
<pdfrwt beam="2">  1       -2 0.75397528E-01 0.85573454E+03</pdfrwt>
<totfact> 0.76920815E+00</totfact>
</mgrwt>
</event>
<event>
 4    1  0.1998832E-007  0.1381048E+04  0.7818608E-02  0.8998551E-01
         -2   -1    0    0    0  501 -0.00000000000E+00  0.00000000000E+00  0.10960584847E+04  0.10960584847E+04  0.25500000000E-02 0.  1.
          2   -1    0    0  501    0  0.00000000000E+00 -0.00000000000E+00 -0.26010973034E+04  0.26010973034E+04  0.25500000000E-02 0. -1.
    8880023    1    1    2    0    0  0.57798775271E+03  0.10674328097E+04  0.39576907884E+03  0.14366370507E+04  0.65864270000E+03 0.  1.
    8880022    1    1    2    0    0 -0.57798775271E+03 -0.10674328097E+04 -0.19008078975E+04  0.22605187373E+04  0.15294330000E+03 0.  0.
<mgrwt>
<rscale>  0 0.13398454E+04</rscale>
<asrwt>0</asrwt>
<pdfrwt beam="1">  1        2 0.40016882E+00 0.13810477E+04</pdfrwt>
<pdfrwt beam="2">  1       -2 0.16862438E+00 0.13810477E+04</pdfrwt>
<totfact> 0.63309468E-01</totfact>
</mgrwt>
</event>
<event>
 4    1  0.1998832E-007  0.6667153E+03  0.7818608E-02  0.1018136E+00
          2   -1    0    0  501    0  0.00000000000E+00  0.00000000000E+00  0.20032521837E+04  0.20032521837E+04  0.25500000000E-02 0. -1.
         -2   -1    0    0    0  501 -0.00000000000E+00 -0.00000000000E+00 -0.12990010239E+04  0.12990010239E+04  0.25500000000E-02 0.  1.
    8880023    1    1    2    0    0 -0.42359445804E+02  0.94365144472E+02 -0.12087140967E+04  0.13803981588E+04  0.65864270000E+03 0.  1.
    8880022    1    1    2    0    0  0.42359445804E+02 -0.94365144472E+02  0.19129652565E+04  0.19218550488E+04  0.15294330000E+03 0.  0.
<mgrwt>
<rscale>  0 0.48365413E+03</rscale>
<asrwt>0</asrwt>
<pdfrwt beam="1">  1        2 0.30819264E+00 0.66671531E+03</pdfrwt>
<pdfrwt beam="2">  1       -2 0.19984631E+00 0.66671531E+03</pdfrwt>
<totfact> 0.94307127E-01</totfact>
</mgrwt>
</event>
<event>
 4    1  0.1998832E-007  0.7467253E+03  0.7818608E-02  0.9840773E-01
          2   -1    0    0  501    0  0.00000000000E+00  0.00000000000E+00  0.23080918050E+04  0.23080918050E+04  0.25500000000E-02 0. -1.
         -2   -1    0    0    0  501 -0.00000000000E+00 -0.00000000000E+00 -0.26752908983E+03  0.26752908984E+03  0.25500000000E-02 0.  1.
    8880023    1    1    2    0    0  0.32608175449E+02  0.35032162648E+03  0.31930822343E+03  0.81213082868E+03  0.65864270000E+03 0.  1.
    8880022    1    1    2    0    0 -0.32608175449E+02 -0.35032162648E+03  0.17212544917E+04  0.17634900661E+04  0.15294330000E+03 0.  0.
<mgrwt>
<rscale>  0 0.63219614E+03</rscale>
<asrwt>0</asrwt>
<pdfrwt beam="1">  1        2 0.35509103E+00 0.74672535E+03</pdfrwt>
<pdfrwt beam="2">  1       -2 0.41158323E-01 0.74672535E+03</pdfrwt>
<totfact> 0.26093339E+01</totfact>
</mgrwt>
</event>
<event>
 4    1  0.1998832E-007  0.7009902E+03  0.7818608E-02  0.9993118E-01
          2   -1    0    0  501    0  0.00000000000E+00  0.00000000000E+00  0.16562823099E+04  0.16562823099E+04  0.25500000000E-02 0. -1.
         -2   -1    0    0    0  501 -0.00000000000E+00 -0.00000000000E+00 -0.86206635635E+03  0.86206635635E+03  0.25500000000E-02 0.  1.
    8880023    1    1    2    0    0 -0.23611922715E+03  0.42717279630E+02 -0.70392312935E+03  0.99342590751E+03  0.65864270000E+03 0.  1.
    8880022    1    1    2    0    0  0.23611922715E+03 -0.42717279630E+02  0.14981390829E+04  0.15249227588E+04  0.15294330000E+03 0.  0.
<mgrwt>
<rscale>  0 0.55953030E+03</rscale>
<asrwt>0</asrwt>
<pdfrwt beam="1">  1        2 0.25481266E+00 0.70099020E+03</pdfrwt>
<pdfrwt beam="2">  1       -2 0.13262560E+00 0.70099020E+03</pdfrwt>
<totfact> 0.44405296E+00</totfact>
</mgrwt>
</event>
<event>
 4    1  0.1998832E-007  0.8510009E+03  0.7818608E-02  0.9609776E-01
         -2   -1    0    0    0  501 -0.00000000000E+00  0.00000000000E+00  0.57522425417E+03  0.57522425417E+03  0.25500000000E-02 0.  1.
          2   -1    0    0  501    0  0.00000000000E+00 -0.00000000000E+00 -0.99625917252E+03  0.99625917253E+03  0.25500000000E-02 0. -1.
    8880023    1    1    2    0    0  0.18676569745E+03 -0.50548085716E+03  0.31169845529E+02  0.85157154029E+03  0.65864270000E+03 0.  1.
    8880022    1    1    2    0    0 -0.18676569745E+03  0.50548085716E+03 -0.45220476388E+03  0.71991188641E+03  0.15294330000E+03 0.  0.
<mgrwt>
<rscale>  0 0.76652506E+03</rscale>
<asrwt>0</asrwt>
<pdfrwt beam="1">  1        2 0.15327064E+00 0.85100090E+03</pdfrwt>
<pdfrwt beam="2">  1       -2 0.88496039E-01 0.85100090E+03</pdfrwt>
<totfact> 0.28016876E+01</totfact>
</mgrwt>
</event>
<event>
 4    1  0.1998832E-007  0.1605533E+04  0.7818608E-02  0.8838500E-01
          2   -1    0    0  501    0  0.00000000000E+00  0.00000000000E+00  0.15771629897E+04  0.15771629897E+04  0.25500000000E-02 0. -1.
         -2   -1    0    0    0  501 -0.00000000000E+00 -0.00000000000E+00 -0.27655359433E+04  0.27655359433E+04  0.25500000000E-02 0.  1.
    8880023    1    1    2    0    0 -0.12509999902E+04  0.76087101001E+03 -0.20754053918E+04  0.26239366257E+04  0.65864270000E+03 0.  0.
    8880022    1    1    2    0    0  0.12509999902E+04 -0.76087101001E+03  0.88703243820E+03  0.17187623073E+04  0.15294330000E+03 0.  0.
<mgrwt>
<rscale>  0 0.15711032E+04</rscale>
<asrwt>0</asrwt>
<pdfrwt beam="1">  1        2 0.24264046E+00 0.16055329E+04</pdfrwt>
<pdfrwt beam="2">  1       -2 0.42546707E+00 0.16055329E+04</pdfrwt>
<totfact> 0.53841157E-02</totfact>
</mgrwt>
</event>
<event>
 4    1  0.1998832E-007  0.1463557E+04  0.7818608E-02  0.8935808E-01
         -2   -1    0    0    0  501 -0.00000000000E+00  0.00000000000E+00  0.10572957337E+04  0.10572957337E+04  0.25500000000E-02 0.  1.
          2   -1    0    0  501    0  0.00000000000E+00 -0.00000000000E+00 -0.22375614902E+04  0.22375614902E+04  0.25500000000E-02 0. -1.
    8880023    1    1    2    0    0  0.12531897036E+04  0.37108370966E+03 -0.13208719838E+04  0.19714716728E+04  0.65864270000E+03 0.  0.
    8880022    1    1    2    0    0 -0.12531897036E+04 -0.37108370966E+03  0.14060622724E+03  0.13233855511E+04  0.15294330000E+03 0.  0.
<mgrwt>
<rscale>  0 0.14251561E+04</rscale>
<asrwt>0</asrwt>
<pdfrwt beam="1">  1        2 0.34424023E+00 0.14635565E+04</pdfrwt>
<pdfrwt beam="2">  1       -2 0.16266088E+00 0.14635565E+04</pdfrwt>
<totfact> 0.11204132E+00</totfact>
</mgrwt>
</event>
<event>
 4    1  0.1998832E-007  0.8032721E+03  0.7818608E-02  0.9703765E-01
          2   -1    0    0  501    0  0.00000000000E+00  0.00000000000E+00  0.22154797125E+04  0.22154797125E+04  0.25500000000E-02 0. -1.
         -2   -1    0    0    0  501 -0.00000000000E+00 -0.00000000000E+00 -0.35523585150E+03  0.35523585151E+03  0.25500000000E-02 0.  1.
    8880023    1    1    2    0    0  0.28327448219E+03  0.36220362285E+03  0.18162480665E+03  0.82354943587E+03  0.65864270000E+03 0.  1.
    8880022    1    1    2    0    0 -0.28327448219E+03 -0.36220362285E+03  0.16786190543E+04  0.17471661281E+04  0.15294330000E+03 0.  0.
<mgrwt>
<rscale>  0 0.70793055E+03</rscale>
<asrwt>0</asrwt>
<pdfrwt beam="1">  1        2 0.34084303E+00 0.80327212E+03</pdfrwt>
<pdfrwt beam="2">  1       -2 0.54651669E-01 0.80327212E+03</pdfrwt>
<totfact> 0.16449759E+01</totfact>
</mgrwt>
</event>
<event>
 4    1  0.1998832E-007  0.7780826E+03  0.7818608E-02  0.9760360E-01
         -2   -1    0    0    0  501 -0.00000000000E+00  0.00000000000E+00  0.12770910695E+04  0.12770910695E+04  0.25500000000E-02 0.  1.
          2   -1    0    0  501    0  0.00000000000E+00 -0.00000000000E+00 -0.64413245766E+03  0.64413245767E+03  0.25500000000E-02 0. -1.
    8880023    1    1    2    0    0  0.15357377257E+03  0.38473040673E+03  0.10546669262E+04  0.13106238671E+04  0.65864270000E+03 0.  0.
    8880022    1    1    2    0    0 -0.15357377257E+03 -0.38473040673E+03 -0.42170831437E+03  0.61059966009E+03  0.15294330000E+03 0.  0.
<mgrwt>
<rscale>  0 0.67533921E+03</rscale>
<asrwt>0</asrwt>
<pdfrwt beam="1">  1        2 0.99097302E-01 0.77808264E+03</pdfrwt>
<pdfrwt beam="2">  1       -2 0.19647555E+00 0.77808264E+03</pdfrwt>
<totfact> 0.64859151E+00</totfact>
</mgrwt>
</event>
<event>
 4    1  0.1998832E-007  0.1491669E+04  0.7818608E-02  0.8915541E-01
         -2   -1    0    0    0  501 -0.00000000000E+00  0.00000000000E+00  0.20107160322E+04  0.20107160322E+04  0.25500000000E-02 0.  1.
          2   -1    0    0  501    0  0.00000000000E+00 -0.00000000000E+00 -0.28252222456E+04  0.28252222456E+04  0.25500000000E-02 0. -1.
    8880023    1    1    2    0    0 -0.90376570733E+03 -0.98715511384E+03  0.15269474926E+04  0.21346303015E+04  0.65864270000E+03 0.  0.
    8880022    1    1    2    0    0  0.90376570733E+03  0.98715511384E+03 -0.23414537061E+04  0.27013079764E+04  0.15294330000E+03 0.  0.
<mgrwt>
<rscale>  0 0.14541320E+04</rscale>
<asrwt>0</asrwt>
<pdfrwt beam="1">  1        2 0.43464958E+00 0.14916695E+04</pdfrwt>
<pdfrwt beam="2">  1       -2 0.30934093E+00 0.14916695E+04</pdfrwt>
<totfact> 0.58523821E-02</totfact>
</mgrwt>
</event>
<event>
 4    1  0.1998832E-007  0.1612208E+04  0.7818608E-02  0.8834214E-01
          2   -1    0    0  501    0  0.00000000000E+00  0.00000000000E+00  0.27364491865E+04  0.27364491865E+04  0.25500000000E-02 0. -1.
         -2   -1    0    0    0  501 -0.00000000000E+00 -0.00000000000E+00 -0.15922761718E+04  0.15922761718E+04  0.25500000000E-02 0.  1.
    8880023    1    1    2    0    0 -0.13161952145E+04 -0.65805460371E+03 -0.86813870918E+03  0.18310873078E+04  0.65864270000E+03 0.  1.
    8880022    1    1    2    0    0  0.13161952145E+04  0.65805460371E+03  0.20123117240E+04  0.24976380505E+04  0.15294330000E+03 0.  0.
<mgrwt>
<rscale>  0 0.15779440E+04</rscale>
<asrwt>0</asrwt>
<pdfrwt beam="1">  1        2 0.42099219E+00 0.16122084E+04</pdfrwt>
<pdfrwt beam="2">  1       -2 0.24496556E+00 0.16122084E+04</pdfrwt>
<totfact> 0.16145042E-01</totfact>
</mgrwt>
</event>
<event>
 4    1  0.1998832E-007  0.1071263E+04  0.7818608E-02  0.9293746E-01
         -2   -1    0    0    0  501 -0.00000000000E+00  0.00000000000E+00  0.30080244678E+03  0.30080244679E+03  0.25500000000E-02 0.  1.
          2   -1    0    0  501    0  0.00000000000E+00 -0.00000000000E+00 -0.37669555180E+04  0.37669555180E+04  0.25500000000E-02 0. -1.
    8880023    1    1    2    0    0  0.80388426838E+03  0.25993179325E+03 -0.27445042879E+04  0.29461684349E+04  0.65864270000E+03 0.  0.
    8880022    1    1    2    0    0 -0.80388426838E+03 -0.25993179325E+03 -0.72164878327E+03  0.11215895299E+04  0.15294330000E+03 0.  0.
<mgrwt>
<rscale>  0 0.10136062E+04</rscale>
<asrwt>0</asrwt>
<pdfrwt beam="1">  1        2 0.57953158E+00 0.10712631E+04</pdfrwt>
<pdfrwt beam="2">  1       -2 0.46277302E-01 0.10712631E+04</pdfrwt>
<totfact> 0.23819202E+00</totfact>
</mgrwt>
</event>
<event>
 4    1  0.1998832E-007  0.8821410E+03  0.7818608E-02  0.9555332E-01
         -2   -1    0    0    0  501 -0.00000000000E+00  0.00000000000E+00  0.56169999867E+03  0.56169999867E+03  0.25500000000E-02 0.  1.
          2   -1    0    0  501    0  0.00000000000E+00 -0.00000000000E+00 -0.22175863441E+04  0.22175863441E+04  0.25500000000E-02 0. -1.
    8880023    1    1    2    0    0  0.48688109717E+03 -0.32758095484E+03  0.13144356549E+03  0.89188009391E+03  0.65864270000E+03 0.  1.
    8880022    1    1    2    0    0 -0.48688109717E+03  0.32758095484E+03 -0.17873299109E+04  0.18874062489E+04  0.15294330000E+03 0.  0.
<mgrwt>
<rscale>  0 0.80324530E+03</rscale>
<asrwt>0</asrwt>
<pdfrwt beam="1">  1        2 0.34116713E+00 0.88214097E+03</pdfrwt>
<pdfrwt beam="2">  1       -2 0.86415385E-01 0.88214097E+03</pdfrwt>
<totfact> 0.59767589E+00</totfact>
</mgrwt>
</event>
<event>
 4    1  0.1998832E-007  0.8297527E+03  0.7818608E-02  0.9649814E-01
         -2   -1    0    0    0  501 -0.00000000000E+00  0.00000000000E+00  0.50665084908E+03  0.50665084908E+03  0.25500000000E-02 0.  1.
          2   -1    0    0  501    0  0.00000000000E+00 -0.00000000000E+00 -0.15191229711E+04  0.15191229711E+04  0.25500000000E-02 0. -1.
    8880023    1    1    2    0    0 -0.27645562115E+03 -0.42219860089E+03  0.58712788845E+02  0.83182736604E+03  0.65864270000E+03 0.  1.
    8880022    1    1    2    0    0  0.27645562115E+03  0.42219860089E+03 -0.10711849109E+04  0.11939464541E+04  0.15294330000E+03 0.  0.
<mgrwt>
<rscale>  0 0.74085119E+03</rscale>
<asrwt>0</asrwt>
<pdfrwt beam="1">  1        2 0.23371122E+00 0.82975272E+03</pdfrwt>
<pdfrwt beam="2">  1       -2 0.77946285E-01 0.82975272E+03</pdfrwt>
<totfact> 0.18413490E+01</totfact>
</mgrwt>
</event>
<event>
 4    1  0.1998832E-007  0.6709570E+03  0.7818608E-02  0.1014986E+00
          2   -1    0    0  501    0  0.00000000000E+00  0.00000000000E+00  0.72808205568E+03  0.72808205569E+03  0.25500000000E-02 0. -1.
         -2   -1    0    0    0  501 -0.00000000000E+00 -0.00000000000E+00 -0.10846432827E+04  0.10846432827E+04  0.25500000000E-02 0.  1.
    8880023    1    1    2    0    0  0.12334060396E+03 -0.34061237523E+02 -0.96336752890E+03  0.11739933026E+04  0.65864270000E+03 0.  1.
    8880022    1    1    2    0    0 -0.12334060396E+03  0.34061237523E+02  0.60680630191E+03  0.63873203579E+03  0.15294330000E+03 0.  0.
<mgrwt>
<rscale>  0 0.49540257E+03</rscale>
<asrwt>0</asrwt>
<pdfrwt beam="1">  1        2 0.11201262E+00 0.67095699E+03</pdfrwt>
<pdfrwt beam="2">  1       -2 0.16686820E+00 0.67095699E+03</pdfrwt>
<totfact> 0.89787074E+00</totfact>
</mgrwt>
</event>
<event>
 4    1  0.1998832E-007  0.1066915E+04  0.7818608E-02  0.9298819E-01
          2   -1    0    0  501    0  0.00000000000E+00  0.00000000000E+00  0.25547361186E+04  0.25547361186E+04  0.25500000000E-02 0. -1.
         -2   -1    0    0    0  501 -0.00000000000E+00 -0.00000000000E+00 -0.69827021255E+03  0.69827021255E+03  0.25500000000E-02 0.  1.
    8880023    1    1    2    0    0  0.57521181315E+03  0.61125125947E+03 -0.14553498727E+03  0.10767949531E+04  0.65864270000E+03 0.  1.
    8880022    1    1    2    0    0 -0.57521181315E+03 -0.61125125947E+03  0.20020008933E+04  0.21762113780E+04  0.15294330000E+03 0.  0.
<mgrwt>
<rscale>  0 0.10089168E+04</rscale>
<asrwt>0</asrwt>
<pdfrwt beam="1">  1        2 0.39303633E+00 0.10669147E+04</pdfrwt>
<pdfrwt beam="2">  1       -2 0.10742619E+00 0.10669147E+04</pdfrwt>
<totfact> 0.22499118E+00</totfact>
</mgrwt>
</event>
<event>
 4    1  0.1998832E-007  0.1091522E+04  0.7818608E-02  0.9270555E-01
          2   -1    0    0  501    0  0.00000000000E+00  0.00000000000E+00  0.15165338626E+04  0.15165338626E+04  0.25500000000E-02 0. -1.
         -2   -1    0    0    0  501 -0.00000000000E+00 -0.00000000000E+00 -0.71931137009E+03  0.71931137009E+03  0.25500000000E-02 0.  1.
    8880023    1    1    2    0    0 -0.44874520488E+03  0.74581301515E+03  0.74234861362E+02  0.10940431131E+04  0.65864270000E+03 0.  0.
    8880022    1    1    2    0    0  0.44874520488E+03 -0.74581301515E+03  0.72298763117E+03  0.11418021196E+04  0.15294330000E+03 0.  0.
<mgrwt>
<rscale>  0 0.10353942E+04</rscale>
<asrwt>0</asrwt>
<pdfrwt beam="1">  1        2 0.23331290E+00 0.10915217E+04</pdfrwt>
<pdfrwt beam="2">  1       -2 0.11066329E+00 0.10915217E+04</pdfrwt>
<totfact> 0.79301725E+00</totfact>
</mgrwt>
</event>
<event>
 4    1  0.1998832E-007  0.1034119E+04  0.7818608E-02  0.9338220E-01
         -2   -1    0    0    0  501 -0.00000000000E+00  0.00000000000E+00  0.45695357830E+03  0.45695357831E+03  0.25500000000E-02 0.  1.
          2   -1    0    0  501    0  0.00000000000E+00 -0.00000000000E+00 -0.19177339610E+04  0.19177339610E+04  0.25500000000E-02 0. -1.
    8880023    1    1    2    0    0  0.71474018497E+03  0.35318457957E+03 -0.61886112681E+03  0.12051523471E+04  0.65864270000E+03 0.  0.
    8880022    1    1    2    0    0 -0.71474018497E+03 -0.35318457957E+03 -0.84191925584E+03  0.11695351921E+04  0.15294330000E+03 0.  0.
<mgrwt>
<rscale>  0 0.97339125E+03</rscale>
<asrwt>0</asrwt>
<pdfrwt beam="1">  1        2 0.29503599E+00 0.10341195E+04</pdfrwt>
<pdfrwt beam="2">  1       -2 0.70300552E-01 0.10341195E+04</pdfrwt>
<totfact> 0.13647498E+01</totfact>
</mgrwt>
</event>
<event>
 4    1  0.1998832E-007  0.8977865E+03  0.7818608E-02  0.9529594E-01
          2   -1    0    0  501    0  0.00000000000E+00  0.00000000000E+00  0.55357399670E+03  0.55357399670E+03  0.25500000000E-02 0. -1.
         -2   -1    0    0    0  501 -0.00000000000E+00 -0.00000000000E+00 -0.10878744750E+04  0.10878744750E+04  0.25500000000E-02 0.  1.
    8880023    1    1    2    0    0  0.60775693623E+03 -0.53309927711E+02 -0.45802053136E+03  0.10078707533E+04  0.65864270000E+03 0.  1.
    8880022    1    1    2    0    0 -0.60775693623E+03  0.53309927711E+02 -0.76279946919E+02  0.63357771839E+03  0.15294330000E+03 0.  0.
<mgrwt>
<rscale>  0 0.82136678E+03</rscale>
<asrwt>0</asrwt>
<pdfrwt beam="1">  1        2 0.85165230E-01 0.89778653E+03</pdfrwt>
<pdfrwt beam="2">  1       -2 0.16736530E+00 0.89778653E+03</pdfrwt>
<totfact> 0.12182727E+01</totfact>
</mgrwt>
</event>
<event>
 4    1  0.1998832E-007  0.6832733E+03  0.7818608E-02  0.1007530E+00
          2   -1    0    0  501    0  0.00000000000E+00  0.00000000000E+00  0.48381545241E+03  0.48381545241E+03  0.25500000000E-02 0. -1.
         -2   -1    0    0    0  501 -0.00000000000E+00 -0.00000000000E+00 -0.10311780155E+04  0.10311780155E+04  0.25500000000E-02 0.  1.
    8880023    1    1    2    0    0  0.16578940579E+03  0.74605770746E+02 -0.87506829064E+03  0.11102282953E+04  0.65864270000E+03 0.  1.
    8880022    1    1    2    0    0 -0.16578940579E+03 -0.74605770746E+02  0.32770572754E+03  0.40476517264E+03  0.15294330000E+03 0.  0.
<mgrwt>
<rscale>  0 0.52468404E+03</rscale>
<asrwt>0</asrwt>
<pdfrwt beam="1">  1        2 0.74433147E-01 0.68327326E+03</pdfrwt>
<pdfrwt beam="2">  1       -2 0.15864277E+00 0.68327326E+03</pdfrwt>
<totfact> 0.16834984E+01</totfact>
</mgrwt>
</event>
<event>
 4    1  0.1998832E-007  0.1019848E+04  0.7818608E-02  0.9356039E-01
         -2   -1    0    0    0  501 -0.00000000000E+00  0.00000000000E+00  0.43992637499E+03  0.43992637500E+03  0.25500000000E-02 0.  1.
          2   -1    0    0  501    0  0.00000000000E+00 -0.00000000000E+00 -0.24314170737E+04  0.24314170737E+04  0.25500000000E-02 0. -1.
    8880023    1    1    2    0    0  0.75799647355E+03 -0.17810497962E+03 -0.40471664606E+03  0.10972173019E+04  0.65864270000E+03 0.  1.
    8880022    1    1    2    0    0 -0.75799647355E+03  0.17810497962E+03 -0.15867740527E+04  0.17741261469E+04  0.15294330000E+03 0.  0.
<mgrwt>
<rscale>  0 0.95783545E+03</rscale>
<asrwt>0</asrwt>
<pdfrwt beam="1">  1        2 0.37406416E+00 0.10198481E+04</pdfrwt>
<pdfrwt beam="2">  1       -2 0.67680982E-01 0.10198481E+04</pdfrwt>
<totfact> 0.76863195E+00</totfact>
</mgrwt>
</event>
<event>
 4    1  0.1998832E-007  0.7171645E+03  0.7818608E-02  0.9932300E-01
          2   -1    0    0  501    0  0.00000000000E+00  0.00000000000E+00  0.10388871175E+04  0.10388871175E+04  0.25500000000E-02 0. -1.
         -2   -1    0    0    0  501 -0.00000000000E+00 -0.00000000000E+00 -0.11159829755E+04  0.11159829755E+04  0.25500000000E-02 0.  1.
    8880023    1    1    2    0    0  0.15964413614E+02 -0.28330174455E+03 -0.96956197299E+03  0.12059748616E+04  0.65864270000E+03 0.  1.
    8880022    1    1    2    0    0 -0.15964413614E+02  0.28330174455E+03  0.89246611499E+03  0.94889523152E+03  0.15294330000E+03 0.  0.
<mgrwt>
<rscale>  0 0.58721127E+03</rscale>
<asrwt>0</asrwt>
<pdfrwt beam="1">  1        2 0.15982879E+00 0.71716452E+03</pdfrwt>
<pdfrwt beam="2">  1       -2 0.17168969E+00 0.71716452E+03</pdfrwt>
<totfact> 0.50586403E+00</totfact>
</mgrwt>
</event>
<event>
 4    1  0.1998832E-007  0.1329173E+04  0.7818608E-02  0.9040768E-01
          2   -1    0    0  501    0  0.00000000000E+00  0.00000000000E+00  0.17938195783E+04  0.17938195783E+04  0.25500000000E-02 0. -1.
         -2   -1    0    0    0  501 -0.00000000000E+00 -0.00000000000E+00 -0.92217587590E+03  0.92217587590E+03  0.25500000000E-02 0.  1.
    8880023    1    1    2    0    0  0.10583959064E+04 -0.46118288119E+03  0.13048929127E+03  0.13355632542E+04  0.65864270000E+03 0.  0.
    8880022    1    1    2    0    0 -0.10583959064E+04  0.46118288119E+03  0.74115441117E+03  0.13804322000E+04  0.15294330000E+03 0.  0.
<mgrwt>
<rscale>  0 0.12859676E+04</rscale>
<asrwt>0</asrwt>
<pdfrwt beam="1">  1        2 0.27597224E+00 0.13291733E+04</pdfrwt>
<pdfrwt beam="2">  1       -2 0.14187321E+00 0.13291733E+04</pdfrwt>
<totfact> 0.28991333E+00</totfact>
</mgrwt>
</event>
<event>
 4    1  0.1998832E-007  0.8961058E+03  0.7818608E-02  0.9532312E-01
          2   -1    0    0  501    0  0.00000000000E+00  0.00000000000E+00  0.14872936270E+04  0.14872936270E+04  0.25500000000E-02 0. -1.
         -2   -1    0    0    0  501 -0.00000000000E+00 -0.00000000000E+00 -0.92738767026E+03  0.92738767026E+03  0.25500000000E-02 0.  1.
    8880023    1    1    2    0    0 -0.42326267624E+03 -0.43594056182E+03 -0.61244322582E+03  0.10853996396E+04  0.65864270000E+03 0.  1.
    8880022    1    1    2    0    0  0.42326267624E+03  0.43594056182E+03  0.11723491825E+04  0.13292816576E+04  0.15294330000E+03 0.  0.
<mgrwt>
<rscale>  0 0.81942929E+03</rscale>
<asrwt>0</asrwt>
<pdfrwt beam="1">  1        2 0.22881441E+00 0.89610584E+03</pdfrwt>
<pdfrwt beam="2">  1       -2 0.14267502E+00 0.89610584E+03</pdfrwt>
<totfact> 0.44350528E+00</totfact>
</mgrwt>
</event>
<event>
 4    1  0.1998832E-007  0.8896598E+03  0.7818608E-02  0.9542839E-01
         -2   -1    0    0    0  501 -0.00000000000E+00  0.00000000000E+00  0.13687128202E+04  0.13687128202E+04  0.25500000000E-02 0.  1.
          2   -1    0    0  501    0  0.00000000000E+00 -0.00000000000E+00 -0.54874495144E+03  0.54874495145E+03  0.25500000000E-02 0. -1.
    8880023    1    1    2    0    0 -0.59686264376E+03 -0.37939443814E+02 -0.17917181065E+01  0.88966163986E+03  0.65864270000E+03 0. -1.
    8880022    1    1    2    0    0  0.59686264376E+03  0.37939443814E+02  0.82175958686E+03  0.10277961318E+04  0.15294330000E+03 0.  0.
<mgrwt>
<rscale>  0 0.81197835E+03</rscale>
<asrwt>0</asrwt>
<pdfrwt beam="1">  1        2 0.84422301E-01 0.88965984E+03</pdfrwt>
<pdfrwt beam="2">  1       -2 0.21057120E+00 0.88965984E+03</pdfrwt>
<totfact> 0.63052475E+00</totfact>
</mgrwt>
</event>
<event>
 4    1  0.1998832E-007  0.1107316E+04  0.7818608E-02  0.9252954E-01
         -2   -1    0    0    0  501 -0.00000000000E+00  0.00000000000E+00  0.54030670455E+03  0.54030670456E+03  0.25500000000E-02 0.  1.
          2   -1    0    0  501    0  0.00000000000E+00 -0.00000000000E+00 -0.23730700434E+04  0.23730700434E+04  0.25500000000E-02 0. -1.
    8880023    1    1    2    0    0 -0.81167300276E+03 -0.36541123230E+03 -0.32192955007E+03  0.11531640272E+04  0.65864270000E+03 0.  0.
    8880022    1    1    2    0    0  0.81167300276E+03  0.36541123230E+03 -0.15108337888E+04  0.17602127208E+04  0.15294330000E+03 0.  0.
<mgrwt>
<rscale>  0 0.10523180E+04</rscale>
<asrwt>0</asrwt>
<pdfrwt beam="1">  1        2 0.36508769E+00 0.11073160E+04</pdfrwt>
<pdfrwt beam="2">  1       -2 0.83124110E-01 0.11073160E+04</pdfrwt>
<totfact> 0.51932969E+00</totfact>
</mgrwt>
</event>
<event>
 4    1  0.1998832E-007  0.8811715E+03  0.7818608E-02  0.9556960E-01
          2   -1    0    0  501    0  0.00000000000E+00  0.00000000000E+00  0.82608654063E+03  0.82608654063E+03  0.25500000000E-02 0. -1.
         -2   -1    0    0    0  501 -0.00000000000E+00 -0.00000000000E+00 -0.13327552472E+04  0.13327552472E+04  0.25500000000E-02 0.  1.
    8880023    1    1    2    0    0  0.15170403697E+03 -0.56536617856E+03 -0.10324007961E+04  0.13573189163E+04  0.65864270000E+03 0.  0.
    8880022    1    1    2    0    0 -0.15170403697E+03  0.56536617856E+03  0.52573208945E+03  0.80152287153E+03  0.15294330000E+03 0.  0.
<mgrwt>
<rscale>  0 0.80211585E+03</rscale>
<asrwt>0</asrwt>
<pdfrwt beam="1">  1        2 0.12709024E+00 0.88117151E+03</pdfrwt>
<pdfrwt beam="2">  1       -2 0.20503927E+00 0.88117151E+03</pdfrwt>
<totfact> 0.40923566E+00</totfact>
</mgrwt>
</event>
<event>
 4    1  0.1998832E-007  0.1282252E+04  0.7818608E-02  0.9081040E-01
         -2   -1    0    0    0  501 -0.00000000000E+00  0.00000000000E+00  0.12349776127E+04  0.12349776127E+04  0.25500000000E-02 0.  1.
          2   -1    0    0  501    0  0.00000000000E+00 -0.00000000000E+00 -0.28244479493E+04  0.28244479493E+04  0.25500000000E-02 0. -1.
    8880023    1    1    2    0    0 -0.11000839629E+04  0.13234315909E+02 -0.23749625512E+04  0.26990030008E+04  0.65864270000E+03 0. -1.
    8880022    1    1    2    0    0  0.11000839629E+04 -0.13234315909E+02  0.78549221463E+03  0.13604225611E+04  0.15294330000E+03 0.  0.
<mgrwt>
<rscale>  0 0.12370393E+04</rscale>
<asrwt>0</asrwt>
<pdfrwt beam="1">  1        2 0.43453045E+00 0.12822520E+04</pdfrwt>
<pdfrwt beam="2">  1       -2 0.18999656E+00 0.12822520E+04</pdfrwt>
<totfact> 0.33552618E-01</totfact>
</mgrwt>
</event>
<event>
 4    1  0.3091685E-007  0.1261033E+04  0.7818608E-02  0.9099962E-01
          2   -1    0    0  501    0  0.00000000000E+00  0.00000000000E+00  0.27682241137E+04  0.27682241137E+04  0.25500000000E-02 0. -1.
         -2   -1    0    0    0  501 -0.00000000000E+00 -0.00000000000E+00 -0.18840732672E+04  0.18840732672E+04  0.25500000000E-02 0.  1.
    8880023    1    1    2    0    0  0.10723939027E+04 -0.79787061078E+02 -0.15432611112E+04  0.19929525136E+04  0.65864270000E+03 0.  0.
    8880022    1    1    2    0    0 -0.10723939027E+04  0.79787061078E+02  0.24274119577E+04  0.26593448673E+04  0.15294330000E+03 0.  0.
<mgrwt>
<rscale>  0 0.12148435E+04</rscale>
<asrwt>0</asrwt>
<pdfrwt beam="1">  1        2 0.42588063E+00 0.12610333E+04</pdfrwt>
<pdfrwt beam="2">  1       -2 0.28985743E+00 0.12610333E+04</pdfrwt>
<totfact> 0.86280189E-02</totfact>
</mgrwt>
</event>
<event>
 4    1  0.1998832E-007  0.8645509E+03  0.7818608E-02  0.9585519E-01
         -2   -1    0    0    0  501 -0.00000000000E+00  0.00000000000E+00  0.12067226820E+04  0.12067226820E+04  0.25500000000E-02 0.  1.
          2   -1    0    0  501    0  0.00000000000E+00 -0.00000000000E+00 -0.15873675451E+04  0.15873675451E+04  0.25500000000E-02 0. -1.
    8880023    1    1    2    0    0  0.16644838052E+03  0.53472709033E+03  0.98474329099E+03  0.13104074481E+04  0.65864270000E+03 0.  0.
    8880022    1    1    2    0    0 -0.16644838052E+03 -0.53472709033E+03 -0.13653881541E+04  0.14836827791E+04  0.15294330000E+03 0. -1.
<mgrwt>
<rscale>  0 0.78262096E+03</rscale>
<asrwt>0</asrwt>
<pdfrwt beam="1">  1        2 0.24421039E+00 0.86455094E+03</pdfrwt>
<pdfrwt beam="2">  1       -2 0.18564964E+00 0.86455094E+03</pdfrwt>
<totfact> 0.19039470E+00</totfact>
</mgrwt>
</event>
<event>
 4    1  0.1998832E-007  0.1359169E+04  0.7818608E-02  0.9016077E-01
         -2   -1    0    0    0  501 -0.00000000000E+00  0.00000000000E+00  0.65281018850E+03  0.65281018850E+03  0.25500000000E-02 0.  1.
          2   -1    0    0  501    0  0.00000000000E+00 -0.00000000000E+00 -0.29908873585E+04  0.29908873585E+04  0.25500000000E-02 0. -1.
    8880023    1    1    2    0    0  0.32969115254E+03 -0.11422937034E+04 -0.19631026752E+04  0.23877004587E+04  0.65864270000E+03 0.  0.
    8880022    1    1    2    0    0 -0.32969115254E+03  0.11422937034E+04 -0.37497449481E+03  0.12559970883E+04  0.15294330000E+03 0.  0.
<mgrwt>
<rscale>  0 0.13171474E+04</rscale>
<asrwt>0</asrwt>
<pdfrwt beam="1">  1        2 0.46013651E+00 0.13591694E+04</pdfrwt>
<pdfrwt beam="2">  1       -2 0.10043234E+00 0.13591694E+04</pdfrwt>
<totfact> 0.14008981E+00</totfact>
</mgrwt>
</event>
<event>
 4    1  0.1998832E-007  0.1053863E+04  0.7818608E-02  0.9314252E-01
          2   -1    0    0  501    0  0.00000000000E+00  0.00000000000E+00  0.73229961820E+03  0.73229961820E+03  0.25500000000E-02 0. -1.
         -2   -1    0    0    0  501 -0.00000000000E+00 -0.00000000000E+00 -0.13742602310E+04  0.13742602310E+04  0.25500000000E-02 0.  1.
    8880023    1    1    2    0    0  0.81791320943E+02 -0.81861318521E+03 -0.70416140654E+03  0.12674663151E+04  0.65864270000E+03 0.  1.
    8880022    1    1    2    0    0 -0.81791320943E+02  0.81861318521E+03  0.62200793757E+02  0.83909353409E+03  0.15294330000E+03 0.  0.
<mgrwt>
<rscale>  0 0.99481341E+03</rscale>
<asrwt>0</asrwt>
<pdfrwt beam="1">  1        2 0.11266148E+00 0.10538632E+04</pdfrwt>
<pdfrwt beam="2">  1       -2 0.21142465E+00 0.10538632E+04</pdfrwt>
<totfact> 0.42878262E+00</totfact>
</mgrwt>
</event>
<event>
 4    1  0.1998832E-007  0.1108393E+04  0.7818608E-02  0.9251769E-01
          2   -1    0    0  501    0  0.00000000000E+00  0.00000000000E+00  0.25342144685E+04  0.25342144685E+04  0.25500000000E-02 0. -1.
         -2   -1    0    0    0  501 -0.00000000000E+00 -0.00000000000E+00 -0.57655498934E+03  0.57655498934E+03  0.25500000000E-02 0.  1.
    8880023    1    1    2    0    0 -0.40711402871E+03 -0.79308445721E+03  0.18920040501E+03  0.11244250923E+04  0.65864270000E+03 0.  1.
    8880022    1    1    2    0    0  0.40711402871E+03  0.79308445721E+03  0.17684590742E+04  0.19863443656E+04  0.15294330000E+03 0.  0.
<mgrwt>
<rscale>  0 0.10534701E+04</rscale>
<asrwt>0</asrwt>
<pdfrwt beam="1">  1        2 0.38987915E+00 0.11083930E+04</pdfrwt>
<pdfrwt beam="2">  1       -2 0.88700767E-01 0.11083930E+04</pdfrwt>
<totfact> 0.36198395E+00</totfact>
</mgrwt>
</event>
<event>
 4    1  0.1998832E-007  0.1379592E+04  0.7818608E-02  0.8999705E-01
         -2   -1    0    0    0  501 -0.00000000000E+00  0.00000000000E+00  0.17614949514E+04  0.17614949514E+04  0.25500000000E-02 0.  1.
          2   -1    0    0  501    0  0.00000000000E+00 -0.00000000000E+00 -0.12801935602E+04  0.12801935602E+04  0.25500000000E-02 0. -1.
    8880023    1    1    2    0    0  0.10003846125E+04 -0.68461166264E+03  0.10106020521E+04  0.17101430395E+04  0.65864270000E+03 0.  0.
    8880022    1    1    2    0    0 -0.10003846125E+04  0.68461166264E+03 -0.52930066088E+03  0.13315454721E+04  0.15294330000E+03 0.  0.
<mgrwt>
<rscale>  0 0.13383357E+04</rscale>
<asrwt>0</asrwt>
<pdfrwt beam="1">  1        2 0.19695286E+00 0.13795915E+04</pdfrwt>
<pdfrwt beam="2">  1       -2 0.27099922E+00 0.13795915E+04</pdfrwt>
<totfact> 0.77439132E-01</totfact>
</mgrwt>
</event>
<event>
 4    1  0.1998832E-007  0.7274671E+03  0.7818608E-02  0.9898085E-01
         -2   -1    0    0    0  501 -0.00000000000E+00  0.00000000000E+00  0.73610362305E+03  0.73610362306E+03  0.25500000000E-02 0.  1.
          2   -1    0    0  501    0  0.00000000000E+00 -0.00000000000E+00 -0.90014702492E+03  0.90014702492E+03  0.25500000000E-02 0. -1.
    8880023    1    1    2    0    0  0.85140042619E+02 -0.29689955944E+03  0.50368341307E+03  0.88481939520E+03  0.65864270000E+03 0.  1.
    8880022    1    1    2    0    0 -0.85140042619E+02  0.29689955944E+03 -0.66772681494E+03  0.75143125278E+03  0.15294330000E+03 0.  0.
<mgrwt>
<rscale>  0 0.60354190E+03</rscale>
<asrwt>0</asrwt>
<pdfrwt beam="1">  1        2 0.13848416E+00 0.72746710E+03</pdfrwt>
<pdfrwt beam="2">  1       -2 0.11324671E+00 0.72746710E+03</pdfrwt>
<totfact> 0.18268090E+01</totfact>
</mgrwt>
</event>
<event>
 4    1  0.1998832E-007  0.1197967E+04  0.7818608E-02  0.9159101E-01
         -2   -1    0    0    0  501 -0.00000000000E+00  0.00000000000E+00  0.32281369404E+03  0.32281369405E+03  0.25500000000E-02 0.  1.
          2   -1    0    0  501    0  0.00000000000E+00 -0.00000000000E+00 -0.45526886889E+04  0.45526886889E+04  0.25500000000E-02 0. -1.
    8880023    1    1    2    0    0  0.38846123026E+03 -0.92217783336E+03 -0.12633824069E+04  0.17410512331E+04  0.65864270000E+03 0.  0.
    8880022    1    1    2    0    0 -0.38846123026E+03  0.92217783336E+03 -0.29664925879E+04  0.31344511499E+04  0.15294330000E+03 0.  0.
<mgrwt>
<rscale>  0 0.11485726E+04</rscale>
<asrwt>0</asrwt>
<pdfrwt beam="1">  1        2 0.70041360E+00 0.11979667E+04</pdfrwt>
<pdfrwt beam="2">  1       -2 0.49663648E-01 0.11979667E+04</pdfrwt>
<totfact> 0.43544013E-01</totfact>
</mgrwt>
</event>
<event>
 4    1  0.1998832E-007  0.8186872E+03  0.7818608E-02  0.9671758E-01
          2   -1    0    0  501    0  0.00000000000E+00  0.00000000000E+00  0.54990030977E+03  0.54990030978E+03  0.25500000000E-02 0. -1.
         -2   -1    0    0    0  501 -0.00000000000E+00 -0.00000000000E+00 -0.10403236908E+04  0.10403236908E+04  0.25500000000E-02 0.  1.
    8880023    1    1    2    0    0  0.21280607313E+03  0.43720939187E+03 -0.66151140171E+03  0.10525426442E+04  0.65864270000E+03 0.  1.
    8880022    1    1    2    0    0 -0.21280607313E+03 -0.43720939187E+03  0.17108802069E+03  0.53768135633E+03  0.15294330000E+03 0.  0.
<mgrwt>
<rscale>  0 0.72723484E+03</rscale>
<asrwt>0</asrwt>
<pdfrwt beam="1">  1        2 0.84600048E-01 0.81868717E+03</pdfrwt>
<pdfrwt beam="2">  1       -2 0.16004980E+00 0.81868717E+03</pdfrwt>
<totfact> 0.13974533E+01</totfact>
</mgrwt>
</event>
<event>
 4    1  0.1998832E-007  0.7641869E+03  0.7818608E-02  0.9794386E-01
         -2   -1    0    0    0  501 -0.00000000000E+00  0.00000000000E+00  0.11626076600E+04  0.11626076600E+04  0.25500000000E-02 0.  1.
          2   -1    0    0  501    0  0.00000000000E+00 -0.00000000000E+00 -0.67901316864E+03  0.67901316865E+03  0.25500000000E-02 0. -1.
    8880023    1    1    2    0    0 -0.38671660655E+03  0.24933911529E+02  0.94805093505E+03  0.12176954527E+04  0.65864270000E+03 0.  1.
    8880022    1    1    2    0    0  0.38671660655E+03 -0.24933911529E+02 -0.46445644368E+03  0.62392537600E+03  0.15294330000E+03 0.  0.
<mgrwt>
<rscale>  0 0.65664685E+03</rscale>
<asrwt>0</asrwt>
<pdfrwt beam="1">  1        2 0.10446356E+00 0.76418691E+03</pdfrwt>
<pdfrwt beam="2">  1       -2 0.17886272E+00 0.76418691E+03</pdfrwt>
<totfact> 0.79892679E+00</totfact>
</mgrwt>
</event>
<event>
 4    1  0.1998832E-007  0.1179008E+04  0.7818608E-02  0.9177803E-01
          2   -1    0    0  501    0  0.00000000000E+00  0.00000000000E+00  0.18330200570E+04  0.18330200570E+04  0.25500000000E-02 0. -1.
         -2   -1    0    0    0  501 -0.00000000000E+00 -0.00000000000E+00 -0.76973398264E+03  0.76973398264E+03  0.25500000000E-02 0.  1.
    8880023    1    1    2    0    0  0.81109365768E+03 -0.54623852938E+03  0.40838495885E+02  0.11797149832E+04  0.65864270000E+03 0.  0.
    8880022    1    1    2    0    0 -0.81109365768E+03  0.54623852938E+03  0.10224475785E+04  0.14230390565E+04  0.15294330000E+03 0.  0.
<mgrwt>
<rscale>  0 0.11285503E+04</rscale>
<asrwt>0</asrwt>
<pdfrwt beam="1">  1        2 0.28200308E+00 0.11790079E+04</pdfrwt>
<pdfrwt beam="2">  1       -2 0.11842062E+00 0.11790079E+04</pdfrwt>
<totfact> 0.44384719E+00</totfact>
</mgrwt>
</event>
<event>
 4    1  0.1998832E-007  0.1177409E+04  0.7818608E-02  0.9179401E-01
          2   -1    0    0  501    0  0.00000000000E+00  0.00000000000E+00  0.18154112434E+04  0.18154112434E+04  0.25500000000E-02 0. -1.
         -2   -1    0    0    0  501 -0.00000000000E+00 -0.00000000000E+00 -0.16340938915E+04  0.16340938915E+04  0.25500000000E-02 0.  1.
    8880023    1    1    2    0    0  0.40405555813E+03 -0.88838126674E+03  0.14331877103E+04  0.18548097984E+04  0.65864270000E+03 0.  0.
    8880022    1    1    2    0    0 -0.40405555813E+03  0.88838126674E+03 -0.12518703583E+04  0.15946953365E+04  0.15294330000E+03 0.  0.
<mgrwt>
<rscale>  0 0.11268595E+04</rscale>
<asrwt>0</asrwt>
<pdfrwt beam="1">  1        2 0.27929404E+00 0.11774092E+04</pdfrwt>
<pdfrwt beam="2">  1       -2 0.25139906E+00 0.11774092E+04</pdfrwt>
<totfact> 0.51979046E-01</totfact>
</mgrwt>
</event>
<event>
 4    1  0.1998832E-007  0.7735639E+03  0.7818608E-02  0.9771179E-01
          2   -1    0    0  501    0  0.00000000000E+00  0.00000000000E+00  0.38747272533E+04  0.38747272533E+04  0.25500000000E-02 0. -1.
         -2   -1    0    0    0  501 -0.00000000000E+00 -0.00000000000E+00 -0.16156476365E+03  0.16156476367E+03  0.25500000000E-02 0.  1.
    8880023    1    1    2    0    0 -0.39317107471E+03  0.10003692195E+03  0.88643423292E+03  0.11765061561E+04  0.65864270000E+03 0.  0.
    8880022    1    1    2    0    0  0.39317107471E+03 -0.10003692195E+03  0.28267282567E+04  0.28597858609E+04  0.15294330000E+03 0.  0.
<mgrwt>
<rscale>  0 0.66932466E+03</rscale>
<asrwt>0</asrwt>
<pdfrwt beam="1">  1        2 0.59611188E+00 0.77356389E+03</pdfrwt>
<pdfrwt beam="2">  1       -2 0.24856118E-01 0.77356389E+03</pdfrwt>
<totfact> 0.68036340E+00</totfact>
</mgrwt>
</event>
<event>
 4    1  0.1998832E-007  0.8945326E+03  0.7818608E-02  0.9534866E-01
         -2   -1    0    0    0  501 -0.00000000000E+00  0.00000000000E+00  0.70900189946E+03  0.70900189946E+03  0.25500000000E-02 0.  1.
          2   -1    0    0  501    0  0.00000000000E+00 -0.00000000000E+00 -0.21759978916E+04  0.21759978916E+04  0.25500000000E-02 0. -1.
    8880023    1    1    2    0    0 -0.23168199162E+03  0.55919740881E+03  0.35241897199E+03  0.96145079195E+03  0.65864270000E+03 0.  1.
    8880022    1    1    2    0    0  0.23168199162E+03 -0.55919740881E+03 -0.18194149642E+04  0.19235489991E+04  0.15294330000E+03 0.  0.
<mgrwt>
<rscale>  0 0.81761369E+03</rscale>
<asrwt>0</asrwt>
<pdfrwt beam="1">  1        2 0.33476890E+00 0.89453256E+03</pdfrwt>
<pdfrwt beam="2">  1       -2 0.10907722E+00 0.89453256E+03</pdfrwt>
<totfact> 0.36327591E+00</totfact>
</mgrwt>
</event>
<event>
 4    1  0.1998832E-007  0.7885164E+03  0.7818608E-02  0.9736199E-01
          2   -1    0    0  501    0  0.00000000000E+00  0.00000000000E+00  0.12549930571E+04  0.12549930571E+04  0.25500000000E-02 0. -1.
         -2   -1    0    0    0  501 -0.00000000000E+00 -0.00000000000E+00 -0.13199302673E+04  0.13199302673E+04  0.25500000000E-02 0.  1.
    8880023    1    1    2    0    0 -0.29899999562E+03  0.31392184487E+03 -0.11512173915E+04  0.13953707790E+04  0.65864270000E+03 0.  1.
    8880022    1    1    2    0    0  0.29899999562E+03 -0.31392184487E+03  0.10862801813E+04  0.11795525454E+04  0.15294330000E+03 0.  0.
<mgrwt>
<rscale>  0 0.68901814E+03</rscale>
<asrwt>0</asrwt>
<pdfrwt beam="1">  1        2 0.19307586E+00 0.78851641E+03</pdfrwt>
<pdfrwt beam="2">  1       -2 0.20306619E+00 0.78851641E+03</pdfrwt>
<totfact> 0.22802594E+00</totfact>
</mgrwt>
</event>
<event>
 4    1  0.1998832E-007  0.1417366E+04  0.7818608E-02  0.8970305E-01
          2   -1    0    0  501    0  0.00000000000E+00  0.00000000000E+00  0.46821515791E+04  0.46821515791E+04  0.25500000000E-02 0. -1.
         -2   -1    0    0    0  501 -0.00000000000E+00 -0.00000000000E+00 -0.75717984952E+03  0.75717984953E+03  0.25500000000E-02 0.  1.
    8880023    1    1    2    0    0  0.10684076541E+04 -0.65849825150E+03  0.39270569392E+04  0.41750091344E+04  0.65864270000E+03 0.  0.
    8880022    1    1    2    0    0 -0.10684076541E+04  0.65849825150E+03 -0.20852096052E+01  0.12643222942E+04  0.15294330000E+03 0.  0.
<mgrwt>
<rscale>  0 0.13774496E+04</rscale>
<asrwt>0</asrwt>
<pdfrwt beam="1">  1        2 0.72033100E+00 0.14173655E+04</pdfrwt>
<pdfrwt beam="2">  1       -2 0.11648921E+00 0.14173655E+04</pdfrwt>
<totfact> 0.45590611E-02</totfact>
</mgrwt>
</event>
<event>
 4    1  0.1998832E-007  0.9780923E+03  0.7818608E-02  0.9410798E-01
         -2   -1    0    0    0  501 -0.00000000000E+00  0.00000000000E+00  0.87028140989E+03  0.87028140989E+03  0.25500000000E-02 0.  1.
          2   -1    0    0  501    0  0.00000000000E+00 -0.00000000000E+00 -0.19928603090E+04  0.19928603090E+04  0.25500000000E-02 0. -1.
    8880023    1    1    2    0    0 -0.46671778349E+03  0.55229424245E+03  0.48652720985E+03  0.10924162905E+04  0.65864270000E+03 0.  0.
    8880022    1    1    2    0    0  0.46671778349E+03 -0.55229424245E+03 -0.16091061089E+04  0.17707254283E+04  0.15294330000E+03 0.  0.
<mgrwt>
<rscale>  0 0.91192356E+03</rscale>
<asrwt>0</asrwt>
<pdfrwt beam="1">  1        2 0.30659389E+00 0.97809234E+03</pdfrwt>
<pdfrwt beam="2">  1       -2 0.13388945E+00 0.97809234E+03</pdfrwt>
<totfact> 0.27197814E+00</totfact>
</mgrwt>
</event>
<event>
 4    1  0.1998832E-007  0.7020181E+03  0.7818608E-02  0.9988930E-01
          2   -1    0    0  501    0  0.00000000000E+00  0.00000000000E+00  0.39916525904E+03  0.39916525905E+03  0.25500000000E-02 0. -1.
         -2   -1    0    0    0  501 -0.00000000000E+00 -0.00000000000E+00 -0.19029590877E+04  0.19029590877E+04  0.25500000000E-02 0.  1.
    8880023    1    1    2    0    0  0.19809071709E+03  0.14063904739E+03 -0.17740212737E+04  0.19078734129E+04  0.65864270000E+03 0.  1.
    8880022    1    1    2    0    0 -0.19809071709E+03 -0.14063904739E+03  0.27022744499E+03  0.39425093391E+03  0.15294330000E+03 0.  0.
<mgrwt>
<rscale>  0 0.56138313E+03</rscale>
<asrwt>0</asrwt>
<pdfrwt beam="1">  1        2 0.61410041E-01 0.70201815E+03</pdfrwt>
<pdfrwt beam="2">  1       -2 0.29276293E+00 0.70201815E+03</pdfrwt>
<totfact> 0.29350211E+00</totfact>
</mgrwt>
</event>
<event>
 4    1  0.1998832E-007  0.1687095E+04  0.7818608E-02  0.8787705E-01
          2   -1    0    0  501    0  0.00000000000E+00  0.00000000000E+00  0.43121991923E+04  0.43121991923E+04  0.25500000000E-02 0. -1.
         -2   -1    0    0    0  501 -0.00000000000E+00 -0.00000000000E+00 -0.65006711514E+03  0.65006711514E+03  0.25500000000E-02 0.  1.
    8880023    1    1    2    0    0 -0.87119717701E+03 -0.12858822676E+04  0.12945013491E+04  0.21265045677E+04  0.65864270000E+03 0.  0.
    8880022    1    1    2    0    0  0.87119717701E+03  0.12858822676E+04  0.23676307280E+04  0.28357617397E+04  0.15294330000E+03 0.  0.
<mgrwt>
<rscale>  0 0.16545744E+04</rscale>
<asrwt>0</asrwt>
<pdfrwt beam="1">  1        2 0.66341525E+00 0.16870945E+04</pdfrwt>
<pdfrwt beam="2">  1       -2 0.10001033E+00 0.16870945E+04</pdfrwt>
<totfact> 0.14549233E-01</totfact>
</mgrwt>
</event>
<event>
 4    1  0.1998832E-007  0.1147979E+04  0.7818608E-02  0.9209428E-01
          2   -1    0    0  501    0  0.00000000000E+00  0.00000000000E+00  0.16255815974E+04  0.16255815974E+04  0.25500000000E-02 0. -1.
         -2   -1    0    0    0  501 -0.00000000000E+00 -0.00000000000E+00 -0.11472677806E+04  0.11472677806E+04  0.25500000000E-02 0.  1.
    8880023    1    1    2    0    0 -0.36860478232E+03 -0.86497168649E+03 -0.63155307246E+03  0.13102347093E+04  0.65864270000E+03 0.  0.
    8880022    1    1    2    0    0  0.36860478232E+03  0.86497168649E+03  0.11098668892E+04  0.14626146686E+04  0.15294330000E+03 0.  0.
<mgrwt>
<rscale>  0 0.10956643E+04</rscale>
<asrwt>0</asrwt>
<pdfrwt beam="1">  1        2 0.25008948E+00 0.11479790E+04</pdfrwt>
<pdfrwt beam="2">  1       -2 0.17650274E+00 0.11479790E+04</pdfrwt>
<totfact> 0.20198136E+00</totfact>
</mgrwt>
</event>
<event>
 4    1  0.1998832E-007  0.1303814E+04  0.7818608E-02  0.9062273E-01
         -2   -1    0    0    0  501 -0.00000000000E+00  0.00000000000E+00  0.11395626890E+04  0.11395626890E+04  0.25500000000E-02 0.  1.
          2   -1    0    0  501    0  0.00000000000E+00 -0.00000000000E+00 -0.27105893150E+04  0.27105893150E+04  0.25500000000E-02 0. -1.
    8880023    1    1    2    0    0 -0.86969654199E+02  0.11218546179E+04  0.57284366012E+03  0.14241072886E+04  0.65864270000E+03 0.  1.
    8880022    1    1    2    0    0  0.86969654199E+02 -0.11218546179E+04 -0.21438702861E+04  0.24260447154E+04  0.15294330000E+03 0.  0.
<mgrwt>
<rscale>  0 0.12595489E+04</rscale>
<asrwt>0</asrwt>
<pdfrwt beam="1">  1        2 0.41701374E+00 0.13038143E+04</pdfrwt>
<pdfrwt beam="2">  1       -2 0.17531734E+00 0.13038143E+04</pdfrwt>
<totfact> 0.49380606E-01</totfact>
</mgrwt>
</event>
<event>
 4    1  0.1998832E-007  0.6977177E+03  0.7818608E-02  0.1000680E+00
         -2   -1    0    0    0  501 -0.00000000000E+00  0.00000000000E+00  0.11924842173E+04  0.11924842173E+04  0.25500000000E-02 0.  1.
          2   -1    0    0  501    0  0.00000000000E+00 -0.00000000000E+00 -0.67111206569E+03  0.67111206570E+03  0.25500000000E-02 0. -1.
    8880023    1    1    2    0    0 -0.14428542302E+03 -0.17939214664E+03  0.10537179516E+04  0.12637767023E+04  0.65864270000E+03 0.  1.
    8880022    1    1    2    0    0  0.14428542302E+03  0.17939214664E+03 -0.53234579999E+03  0.59981958067E+03  0.15294330000E+03 0.  0.
<mgrwt>
<rscale>  0 0.55352907E+03</rscale>
<asrwt>0</asrwt>
<pdfrwt beam="1">  1        2 0.10324801E+00 0.69771773E+03</pdfrwt>
<pdfrwt beam="2">  1       -2 0.18345911E+00 0.69771773E+03</pdfrwt>
<totfact> 0.76013426E+00</totfact>
</mgrwt>
</event>
<event>
 4    1  0.1998832E-007  0.8816252E+03  0.7818608E-02  0.9556197E-01
         -2   -1    0    0    0  501 -0.00000000000E+00  0.00000000000E+00  0.92731001799E+03  0.92731001799E+03  0.25500000000E-02 0.  1.
          2   -1    0    0  501    0  0.00000000000E+00 -0.00000000000E+00 -0.80368725552E+03  0.80368725552E+03  0.25500000000E-02 0. -1.
    8880023    1    1    2    0    0  0.15190263291E+03 -0.56601971560E+03  0.50425683243E+03  0.10156465368E+04  0.65864270000E+03 0.  0.
    8880022    1    1    2    0    0 -0.15190263291E+03  0.56601971560E+03 -0.38063406996E+03  0.71535073674E+03  0.15294330000E+03 0.  0.
<mgrwt>
<rscale>  0 0.80264447E+03</rscale>
<asrwt>0</asrwt>
<pdfrwt beam="1">  1        2 0.12364419E+00 0.88162517E+03</pdfrwt>
<pdfrwt beam="2">  1       -2 0.14266308E+00 0.88162517E+03</pdfrwt>
<totfact> 0.11734210E+01</totfact>
</mgrwt>
</event>
<event>
 4    1  0.1998832E-007  0.1234483E+04  0.7818608E-02  0.9124310E-01
         -2   -1    0    0    0  501 -0.00000000000E+00  0.00000000000E+00  0.40638110739E+03  0.40638110740E+03  0.25500000000E-02 0.  1.
          2   -1    0    0  501    0  0.00000000000E+00 -0.00000000000E+00 -0.37036747734E+04  0.37036747734E+04  0.25500000000E-02 0. -1.
    8880023    1    1    2    0    0  0.48842244851E+03  0.92281128323E+03 -0.10244603692E+04  0.16042027325E+04  0.65864270000E+03 0.  1.
    8880022    1    1    2    0    0 -0.48842244851E+03 -0.92281128323E+03 -0.22728332969E+04  0.25058531484E+04  0.15294330000E+03 0.  0.
<mgrwt>
<rscale>  0 0.11870019E+04</rscale>
<asrwt>0</asrwt>
<pdfrwt beam="1">  1        2 0.56979610E+00 0.12344826E+04</pdfrwt>
<pdfrwt beam="2">  1       -2 0.62520173E-01 0.12344826E+04</pdfrwt>
<totfact> 0.13849998E+00</totfact>
</mgrwt>
</event>
<event>
 4    1  0.1998832E-007  0.1405174E+04  0.7818608E-02  0.8979673E-01
          2   -1    0    0  501    0  0.00000000000E+00  0.00000000000E+00  0.11605989153E+04  0.11605989153E+04  0.25500000000E-02 0. -1.
         -2   -1    0    0    0  501 -0.00000000000E+00 -0.00000000000E+00 -0.20018995634E+04  0.20018995634E+04  0.25500000000E-02 0.  1.
    8880023    1    1    2    0    0 -0.12234326115E+04 -0.20956187227E+03 -0.12145805984E+04  0.18573421250E+04  0.65864270000E+03 0.  0.
    8880022    1    1    2    0    0  0.12234326115E+04  0.20956187227E+03  0.37327995033E+03  0.13051563536E+04  0.15294330000E+03 0.  0.
<mgrwt>
<rscale>  0 0.13648360E+04</rscale>
<asrwt>0</asrwt>
<pdfrwt beam="1">  1        2 0.17855368E+00 0.14051739E+04</pdfrwt>
<pdfrwt beam="2">  1       -2 0.30798455E+00 0.14051739E+04</pdfrwt>
<totfact> 0.54224560E-01</totfact>
</mgrwt>
</event>
<event>
 4    1  0.1998832E-007  0.1031133E+04  0.7818608E-02  0.9341914E-01
          2   -1    0    0  501    0  0.00000000000E+00  0.00000000000E+00  0.17530018083E+04  0.17530018083E+04  0.25500000000E-02 0. -1.
         -2   -1    0    0    0  501 -0.00000000000E+00 -0.00000000000E+00 -0.82925194619E+03  0.82925194619E+03  0.25500000000E-02 0.  1.
    8880023    1    1    2    0    0 -0.76260168318E+03  0.21877766626E+03 -0.33701237510E+03  0.10848099104E+04  0.65864270000E+03 0.  1.
    8880022    1    1    2    0    0  0.76260168318E+03 -0.21877766626E+03  0.12607622372E+04  0.14974438441E+04  0.15294330000E+03 0.  0.
<mgrwt>
<rscale>  0 0.97014111E+03</rscale>
<asrwt>0</asrwt>
<pdfrwt beam="1">  1        2 0.26969258E+00 0.10311330E+04</pdfrwt>
<pdfrwt beam="2">  1       -2 0.12757722E+00 0.10311330E+04</pdfrwt>
<totfact> 0.41404345E+00</totfact>
</mgrwt>
</event>
<event>
 4    1  0.1998832E-007  0.1154683E+04  0.7818608E-02  0.9202484E-01
          2   -1    0    0  501    0  0.00000000000E+00  0.00000000000E+00  0.23887924589E+04  0.23887924589E+04  0.25500000000E-02 0. -1.
         -2   -1    0    0    0  501 -0.00000000000E+00 -0.00000000000E+00 -0.19667096235E+04  0.19667096235E+04  0.25500000000E-02 0.  1.
    8880023    1    1    2    0    0 -0.44252764383E+03  0.83883950892E+03 -0.16833186513E+04  0.20412874186E+04  0.65864270000E+03 0.  1.
    8880022    1    1    2    0    0  0.44252764383E+03 -0.83883950892E+03  0.21054014867E+04  0.23142146639E+04  0.15294330000E+03 0.  0.
<mgrwt>
<rscale>  0 0.11027825E+04</rscale>
<asrwt>0</asrwt>
<pdfrwt beam="1">  1        2 0.36750653E+00 0.11546829E+04</pdfrwt>
<pdfrwt beam="2">  1       -2 0.30257071E+00 0.11546829E+04</pdfrwt>
<totfact> 0.12218293E-01</totfact>
</mgrwt>
</event>
<event>
 4    1  0.1998832E-007  0.7270637E+03  0.7818608E-02  0.9899371E-01
          2   -1    0    0  501    0  0.00000000000E+00  0.00000000000E+00  0.10620451985E+04  0.10620451985E+04  0.25500000000E-02 0. -1.
         -2   -1    0    0    0  501 -0.00000000000E+00 -0.00000000000E+00 -0.67763065126E+03  0.67763065127E+03  0.25500000000E-02 0.  1.
    8880023    1    1    2    0    0 -0.21578016211E+03 -0.21965967065E+03 -0.43764370626E+03  0.84861868301E+03  0.65864270000E+03 0.  0.
    8880022    1    1    2    0    0  0.21578016211E+03  0.21965967065E+03  0.82205825351E+03  0.89105716676E+03  0.15294330000E+03 0.  0.
<mgrwt>
<rscale>  0 0.60291761E+03</rscale>
<asrwt>0</asrwt>
<pdfrwt beam="1">  1        2 0.16339157E+00 0.72706372E+03</pdfrwt>
<pdfrwt beam="2">  1       -2 0.10425087E+00 0.72706372E+03</pdfrwt>
<totfact> 0.17546831E+01</totfact>
</mgrwt>
</event>
<event>
 4    1  0.1998832E-007  0.1092628E+04  0.7818608E-02  0.9269308E-01
         -2   -1    0    0    0  501 -0.00000000000E+00  0.00000000000E+00  0.75684400976E+03  0.75684400976E+03  0.25500000000E-02 0.  1.
          2   -1    0    0  501    0  0.00000000000E+00 -0.00000000000E+00 -0.18695181375E+04  0.18695181375E+04  0.25500000000E-02 0. -1.
    8880023    1    1    2    0    0 -0.15595201766E+02  0.87165554029E+03  0.13038711553E+03  0.11003806602E+04  0.65864270000E+03 0.  1.
    8880022    1    1    2    0    0  0.15595201766E+02 -0.87165554029E+03 -0.12430612433E+04  0.15259814871E+04  0.15294330000E+03 0.  0.
<mgrwt>
<rscale>  0 0.10365818E+04</rscale>
<asrwt>0</asrwt>
<pdfrwt beam="1">  1        2 0.28761817E+00 0.10926284E+04</pdfrwt>
<pdfrwt beam="2">  1       -2 0.11643754E+00 0.10926284E+04</pdfrwt>
<totfact> 0.44576905E+00</totfact>
</mgrwt>
</event>
<event>
 4    1  0.1998832E-007  0.8261447E+03  0.7818608E-02  0.9656881E-01
          2   -1    0    0  501    0  0.00000000000E+00  0.00000000000E+00  0.18313141935E+04  0.18313141935E+04  0.25500000000E-02 0. -1.
         -2   -1    0    0    0  501 -0.00000000000E+00 -0.00000000000E+00 -0.55636100891E+03  0.55636100892E+03  0.25500000000E-02 0.  1.
    8880023    1    1    2    0    0  0.45729053910E+03  0.19897303624E+03 -0.17697533702E+03  0.84488779284E+03  0.65864270000E+03 0.  0.
    8880022    1    1    2    0    0 -0.45729053910E+03 -0.19897303624E+03  0.14519285217E+04  0.15427874096E+04  0.15294330000E+03 0.  0.
<mgrwt>
<rscale>  0 0.73643171E+03</rscale>
<asrwt>0</asrwt>
<pdfrwt beam="1">  1        2 0.28174064E+00 0.82614473E+03</pdfrwt>
<pdfrwt beam="2">  1       -2 0.85594002E-01 0.82614473E+03</pdfrwt>
<totfact> 0.10034032E+01</totfact>
</mgrwt>
</event>
<event>
 4    1  0.1998832E-007  0.1021636E+04  0.7818608E-02  0.9353782E-01
         -2   -1    0    0    0  501 -0.00000000000E+00  0.00000000000E+00  0.74905103830E+03  0.74905103830E+03  0.25500000000E-02 0.  1.
          2   -1    0    0  501    0  0.00000000000E+00 -0.00000000000E+00 -0.14712236508E+04  0.14712236508E+04  0.25500000000E-02 0. -1.
    8880023    1    1    2    0    0  0.66426457796E+03 -0.41071046072E+03  0.15787727730E+03  0.10337630062E+04  0.65864270000E+03 0.  0.
    8880022    1    1    2    0    0 -0.66426457796E+03  0.41071046072E+03 -0.88004988982E+03  0.11865116829E+04  0.15294330000E+03 0.  0.
<mgrwt>
<rscale>  0 0.95978801E+03</rscale>
<asrwt>0</asrwt>
<pdfrwt beam="1">  1        2 0.22634210E+00 0.10216363E+04</pdfrwt>
<pdfrwt beam="2">  1       -2 0.11523862E+00 0.10216363E+04</pdfrwt>
<totfact> 0.76694918E+00</totfact>
</mgrwt>
</event>
<event>
 4    1  0.1998832E-007  0.7763832E+03  0.7818608E-02  0.9764403E-01
         -2   -1    0    0    0  501 -0.00000000000E+00  0.00000000000E+00  0.81804134868E+03  0.81804134868E+03  0.25500000000E-02 0.  1.
          2   -1    0    0  501    0  0.00000000000E+00 -0.00000000000E+00 -0.13527489455E+04  0.13527489455E+04  0.25500000000E-02 0. -1.
    8880023    1    1    2    0    0 -0.38893567601E+03 -0.13300262725E+03  0.58248254223E+03  0.97059609375E+03  0.65864270000E+03 0.  1.
    8880022    1    1    2    0    0  0.38893567601E+03  0.13300262725E+03 -0.11171901391E+04  0.12001942004E+04  0.15294330000E+03 0.  0.
<mgrwt>
<rscale>  0 0.67308401E+03</rscale>
<asrwt>0</asrwt>
<pdfrwt beam="1">  1        2 0.20811522E+00 0.77638319E+03</pdfrwt>
<pdfrwt beam="2">  1       -2 0.12585252E+00 0.77638319E+03</pdfrwt>
<totfact> 0.73989372E+00</totfact>
</mgrwt>
</event>
<event>
 4    1  0.1998832E-007  0.1113409E+04  0.7818608E-02  0.9246272E-01
         -2   -1    0    0    0  501 -0.00000000000E+00  0.00000000000E+00  0.92430843189E+03  0.92430843189E+03  0.25500000000E-02 0.  1.
          2   -1    0    0  501    0  0.00000000000E+00 -0.00000000000E+00 -0.12392072969E+04  0.12392072969E+04  0.25500000000E-02 0. -1.
    8880023    1    1    2    0    0 -0.63069940790E+03  0.63881739387E+03  0.17877574903E+03  0.11276703333E+04  0.65864270000E+03 0.  1.
    8880022    1    1    2    0    0  0.63069940790E+03 -0.63881739387E+03 -0.49367461402E+03  0.10358453955E+04  0.15294330000E+03 0.  0.
<mgrwt>
<rscale>  0 0.10588330E+04</rscale>
<asrwt>0</asrwt>
<pdfrwt beam="1">  1        2 0.19064728E+00 0.11134090E+04</pdfrwt>
<pdfrwt beam="2">  1       -2 0.14220130E+00 0.11134090E+04</pdfrwt>
<totfact> 0.60716490E+00</totfact>
</mgrwt>
</event>
<event>
 4    1  0.1998832E-007  0.8629917E+03  0.7818608E-02  0.9588264E-01
          2   -1    0    0  501    0  0.00000000000E+00  0.00000000000E+00  0.39543571298E+04  0.39543571298E+04  0.25500000000E-02 0. -1.
         -2   -1    0    0    0  501 -0.00000000000E+00 -0.00000000000E+00 -0.63572964645E+03  0.63572964645E+03  0.25500000000E-02 0.  1.
    8880023    1    1    2    0    0 -0.17475902777E+03  0.52953162990E+03 -0.30901713583E+03  0.91664947572E+03  0.65864270000E+03 0.  1.
    8880022    1    1    2    0    0  0.17475902777E+03 -0.52953162990E+03  0.36276446192E+04  0.36734373005E+04  0.15294330000E+03 0.  0.
<mgrwt>
<rscale>  0 0.78077855E+03</rscale>
<asrwt>0</asrwt>
<pdfrwt beam="1">  1        2 0.60836264E+00 0.86299170E+03</pdfrwt>
<pdfrwt beam="2">  1       -2 0.97804560E-01 0.86299170E+03</pdfrwt>
<totfact> 0.35021615E-01</totfact>
</mgrwt>
</event>
<event>
 4    1  0.1998832E-007  0.9184504E+03  0.7818608E-02  0.9497039E-01
          2   -1    0    0  501    0  0.00000000000E+00  0.00000000000E+00  0.44300748209E+04  0.44300748209E+04  0.25500000000E-02 0. -1.
         -2   -1    0    0    0  501 -0.00000000000E+00 -0.00000000000E+00 -0.55505402192E+03  0.55505402192E+03  0.25500000000E-02 0.  1.
    8880023    1    1    2    0    0 -0.28647494420E+03  0.57242726728E+03 -0.12892529861E+03  0.92745501717E+03  0.65864270000E+03 0.  1.
    8880022    1    1    2    0    0  0.28647494420E+03 -0.57242726728E+03  0.40039460975E+04  0.40576738256E+04  0.15294330000E+03 0.  0.
<mgrwt>
<rscale>  0 0.84502463E+03</rscale>
<asrwt>0</asrwt>
<pdfrwt beam="1">  1        2 0.68155000E+00 0.91845037E+03</pdfrwt>
<pdfrwt beam="2">  1       -2 0.85392924E-01 0.91845037E+03</pdfrwt>
<totfact> 0.18692686E-01</totfact>
</mgrwt>
</event>
<event>
 4    1  0.1998832E-007  0.6783955E+03  0.7818608E-02  0.1010246E+00
          2   -1    0    0  501    0  0.00000000000E+00  0.00000000000E+00  0.22466243776E+04  0.22466243776E+04  0.25500000000E-02 0. -1.
         -2   -1    0    0    0  501 -0.00000000000E+00 -0.00000000000E+00 -0.48092865494E+03  0.48092865494E+03  0.25500000000E-02 0.  1.
    8880023    1    1    2    0    0  0.84344810107E+02  0.13891066406E+03 -0.23235079238E+03  0.71708250332E+03  0.65864270000E+03 0.  1.
    8880022    1    1    2    0    0 -0.84344810107E+02 -0.13891066406E+03  0.19980465150E+04  0.20104705292E+04  0.15294330000E+03 0.  0.
<mgrwt>
<rscale>  0 0.51376903E+03</rscale>
<asrwt>0</asrwt>
<pdfrwt beam="1">  1        2 0.34563452E+00 0.67839548E+03</pdfrwt>
<pdfrwt beam="2">  1       -2 0.73989024E-01 0.67839548E+03</pdfrwt>
<totfact> 0.84365564E+00</totfact>
</mgrwt>
</event>
<event>
 4    1  0.1998832E-007  0.9820190E+03  0.7818608E-02  0.9405470E-01
          2   -1    0    0  501    0  0.00000000000E+00  0.00000000000E+00  0.10358570633E+04  0.10358570633E+04  0.25500000000E-02 0. -1.
         -2   -1    0    0    0  501 -0.00000000000E+00 -0.00000000000E+00 -0.79475776975E+03  0.79475776975E+03  0.25500000000E-02 0.  1.
    8880023    1    1    2    0    0  0.12768512365E+03 -0.71711057106E+03 -0.14415552956E+03  0.99254324082E+03  0.65864270000E+03 0.  0.
    8880022    1    1    2    0    0 -0.12768512365E+03  0.71711057106E+03  0.38525482308E+03  0.83807159220E+03  0.15294330000E+03 0.  0.
<mgrwt>
<rscale>  0 0.91626905E+03</rscale>
<asrwt>0</asrwt>
<pdfrwt beam="1">  1        2 0.15936263E+00 0.98201898E+03</pdfrwt>
<pdfrwt beam="2">  1       -2 0.12227043E+00 0.98201898E+03</pdfrwt>
<totfact> 0.12036055E+01</totfact>
</mgrwt>
</event>
<event>
 4    1  0.1998832E-007  0.7091013E+03  0.7818608E-02  0.9961353E-01
         -2   -1    0    0    0  501 -0.00000000000E+00  0.00000000000E+00  0.35181581874E+03  0.35181581875E+03  0.25500000000E-02 0.  1.
          2   -1    0    0  501    0  0.00000000000E+00 -0.00000000000E+00 -0.11411020320E+04  0.11411020320E+04  0.25500000000E-02 0. -1.
    8880023    1    1    2    0    0 -0.55392486269E+02  0.25679982403E+03 -0.70624413706E+02  0.71260963453E+03  0.65864270000E+03 0.  1.
    8880022    1    1    2    0    0  0.55392486269E+02 -0.25679982403E+03 -0.71866179955E+03  0.78030821622E+03  0.15294330000E+03 0.  0.
<mgrwt>
<rscale>  0 0.57377790E+03</rscale>
<asrwt>0</asrwt>
<pdfrwt beam="1">  1        2 0.17555416E+00 0.70910132E+03</pdfrwt>
<pdfrwt beam="2">  1       -2 0.54125511E-01 0.70910132E+03</pdfrwt>
<totfact> 0.67390118E+01</totfact>
</mgrwt>
</event>
<event>
 4    1  0.1998832E-007  0.9016461E+03  0.7818608E-02  0.9523394E-01
         -2   -1    0    0    0  501 -0.00000000000E+00  0.00000000000E+00  0.40749511541E+03  0.40749511542E+03  0.25500000000E-02 0.  1.
          2   -1    0    0  501    0  0.00000000000E+00 -0.00000000000E+00 -0.27284987441E+04  0.27284987441E+04  0.25500000000E-02 0. -1.
    8880023    1    1    2    0    0 -0.24803403694E+02  0.61525632310E+03 -0.20193635283E+03  0.92398271023E+03  0.65864270000E+03 0.  0.
    8880022    1    1    2    0    0  0.24803403694E+02 -0.61525632310E+03 -0.21190672758E+04  0.22120111493E+04  0.15294330000E+03 0.  0.
<mgrwt>
<rscale>  0 0.82580821E+03</rscale>
<asrwt>0</asrwt>
<pdfrwt beam="1">  1        2 0.41976903E+00 0.90164614E+03</pdfrwt>
<pdfrwt beam="2">  1       -2 0.62691558E-01 0.90164614E+03</pdfrwt>
<totfact> 0.62075400E+00</totfact>
</mgrwt>
</event>
<event>
 4    1  0.1998832E-007  0.9465533E+03  0.7818608E-02  0.9455091E-01
          2   -1    0    0  501    0  0.00000000000E+00  0.00000000000E+00  0.18400032288E+04  0.18400032288E+04  0.25500000000E-02 0. -1.
         -2   -1    0    0    0  501 -0.00000000000E+00 -0.00000000000E+00 -0.70594832013E+03  0.70594832013E+03  0.25500000000E-02 0.  1.
    8880023    1    1    2    0    0 -0.57106770846E+03  0.36882859735E+03 -0.26502166443E+03  0.98295450086E+03  0.65864270000E+03 0.  1.
    8880022    1    1    2    0    0  0.57106770846E+03 -0.36882859735E+03  0.13990765731E+04  0.15629970480E+04  0.15294330000E+03 0.  0.
<mgrwt>
<rscale>  0 0.87677351E+03</rscale>
<asrwt>0</asrwt>
<pdfrwt beam="1">  1        2 0.28307742E+00 0.94655326E+03</pdfrwt>
<pdfrwt beam="2">  1       -2 0.10860743E+00 0.94655326E+03</pdfrwt>
<totfact> 0.55795170E+00</totfact>
</mgrwt>
</event>
<event>
 4    1  0.1998832E-007  0.1598510E+04  0.7818608E-02  0.8843035E-01
          2   -1    0    0  501    0  0.00000000000E+00  0.00000000000E+00  0.16684251426E+04  0.16684251426E+04  0.25500000000E-02 0. -1.
         -2   -1    0    0    0  501 -0.00000000000E+00 -0.00000000000E+00 -0.20680085950E+04  0.20680085950E+04  0.25500000000E-02 0.  1.
    8880023    1    1    2    0    0 -0.13014972558E+04 -0.65385758700E+03 -0.12621930001E+04  0.20367538454E+04  0.65864270000E+03 0.  0.
    8880022    1    1    2    0    0  0.13014972558E+04  0.65385758700E+03  0.86260954774E+03  0.16996798922E+04  0.15294330000E+03 0.  0.
<mgrwt>
<rscale>  0 0.15639049E+04</rscale>
<asrwt>0</asrwt>
<pdfrwt beam="1">  1        2 0.25668079E+00 0.15985103E+04</pdfrwt>
<pdfrwt beam="2">  1       -2 0.31815517E+00 0.15985103E+04</pdfrwt>
<totfact> 0.23338773E-01</totfact>
</mgrwt>
</event>
<event>
 4    1  0.1998832E-007  0.9386859E+03  0.7818608E-02  0.9466583E-01
         -2   -1    0    0    0  501 -0.00000000000E+00  0.00000000000E+00  0.13175213569E+04  0.13175213569E+04  0.25500000000E-02 0.  1.
          2   -1    0    0  501    0  0.00000000000E+00 -0.00000000000E+00 -0.17014925579E+04  0.17014925579E+04  0.25500000000E-02 0. -1.
    8880023    1    1    2    0    0 -0.39035022603E+03 -0.54309096195E+03  0.10626944110E+04  0.14179036319E+04  0.65864270000E+03 0.  0.
    8880022    1    1    2    0    0  0.39035022603E+03  0.54309096195E+03 -0.14466656120E+04  0.16011102829E+04  0.15294330000E+03 0. -1.
<mgrwt>
<rscale>  0 0.86793006E+03</rscale>
<asrwt>0</asrwt>
<pdfrwt beam="1">  1        2 0.26176809E+00 0.93868594E+03</pdfrwt>
<pdfrwt beam="2">  1       -2 0.20269559E+00 0.93868594E+03</pdfrwt>
<totfact> 0.12554179E+00</totfact>
</mgrwt>
</event>
<event>
 4    1  0.1998832E-007  0.8541990E+03  0.7818608E-02  0.9603967E-01
          2   -1    0    0  501    0  0.00000000000E+00  0.00000000000E+00  0.32192705868E+04  0.32192705868E+04  0.25500000000E-02 0. -1.
         -2   -1    0    0    0  501 -0.00000000000E+00 -0.00000000000E+00 -0.11466529544E+04  0.11466529544E+04  0.25500000000E-02 0.  1.
    8880023    1    1    2    0    0 -0.50382648133E+03  0.20495014185E+03 -0.95775051144E+03  0.12833323546E+04  0.65864270000E+03 0.  0.
    8880022    1    1    2    0    0  0.50382648133E+03 -0.20495014185E+03  0.30303681438E+04  0.30825911866E+04  0.15294330000E+03 0.  0.
<mgrwt>
<rscale>  0 0.77034185E+03</rscale>
<asrwt>0</asrwt>
<pdfrwt beam="1">  1        2 0.49527238E+00 0.85419898E+03</pdfrwt>
<pdfrwt beam="2">  1       -2 0.17640815E+00 0.85419898E+03</pdfrwt>
<totfact> 0.25499983E-01</totfact>
</mgrwt>
</event>
<event>
 4    1  0.1998832E-007  0.7013847E+03  0.7818608E-02  0.9991505E-01
          2   -1    0    0  501    0  0.00000000000E+00  0.00000000000E+00  0.12027297527E+04  0.12027297527E+04  0.25500000000E-02 0. -1.
         -2   -1    0    0    0  501 -0.00000000000E+00 -0.00000000000E+00 -0.26665605304E+03  0.26665605305E+03  0.25500000000E-02 0.  1.
    8880023    1    1    2    0    0 -0.85424561731E+02  0.22546174742E+03  0.28244856165E+03  0.75612019649E+03  0.65864270000E+03 0.  1.
    8880022    1    1    2    0    0  0.85424561731E+02 -0.22546174742E+03  0.65362513798E+03  0.71326560923E+03  0.15294330000E+03 0.  0.
<mgrwt>
<rscale>  0 0.56024320E+03</rscale>
<asrwt>0</asrwt>
<pdfrwt beam="1">  1        2 0.18503534E+00 0.70138475E+03</pdfrwt>
<pdfrwt beam="2">  1       -2 0.41024009E-01 0.70138475E+03</pdfrwt>
<totfact> 0.10818988E+02</totfact>
</mgrwt>
</event>
<event>
 4    1  0.1998832E-007  0.7899544E+03  0.7818608E-02  0.9732953E-01
          2   -1    0    0  501    0  0.00000000000E+00  0.00000000000E+00  0.13105923903E+04  0.13105923903E+04  0.25500000000E-02 0. -1.
         -2   -1    0    0    0  501 -0.00000000000E+00 -0.00000000000E+00 -0.49732208488E+03  0.49732208489E+03  0.25500000000E-02 0.  1.
    8880023    1    1    2    0    0 -0.41802677278E+03  0.12438368668E+03 -0.88207553477E+02  0.79486380156E+03  0.65864270000E+03 0.  1.
    8880022    1    1    2    0    0  0.41802677278E+03 -0.12438368668E+03  0.90147785892E+03  0.10130506737E+04  0.15294330000E+03 0.  0.
<mgrwt>
<rscale>  0 0.69088224E+03</rscale>
<asrwt>0</asrwt>
<pdfrwt beam="1">  1        2 0.20162960E+00 0.78995436E+03</pdfrwt>
<pdfrwt beam="2">  1       -2 0.76511090E-01 0.78995436E+03</pdfrwt>
<totfact> 0.25296185E+01</totfact>
</mgrwt>
</event>
<event>
 4    1  0.1998832E-007  0.9172044E+03  0.7818608E-02  0.9498959E-01
         -2   -1    0    0    0  501 -0.00000000000E+00  0.00000000000E+00  0.39601458139E+03  0.39601458139E+03  0.25500000000E-02 0.  1.
          2   -1    0    0  501    0  0.00000000000E+00 -0.00000000000E+00 -0.27491921807E+04  0.27491921807E+04  0.25500000000E-02 0. -1.
    8880023    1    1    2    0    0  0.51922792646E+03  0.37128968969E+03 -0.26267324278E+03  0.95407605149E+03  0.65864270000E+03 0.  0.
    8880022    1    1    2    0    0 -0.51922792646E+03 -0.37128968969E+03 -0.20905043565E+04  0.21911307106E+04  0.15294330000E+03 0.  0.
<mgrwt>
<rscale>  0 0.84360620E+03</rscale>
<asrwt>0</asrwt>
<pdfrwt beam="1">  1        2 0.42295263E+00 0.91720438E+03</pdfrwt>
<pdfrwt beam="2">  1       -2 0.60925322E-01 0.91720438E+03</pdfrwt>
<totfact> 0.64001582E+00</totfact>
</mgrwt>
</event>
<event>
 4    1  0.1998832E-007  0.8126739E+03  0.7818608E-02  0.9684034E-01
          2   -1    0    0  501    0  0.00000000000E+00  0.00000000000E+00  0.14670109057E+04  0.14670109057E+04  0.25500000000E-02 0. -1.
         -2   -1    0    0    0  501 -0.00000000000E+00 -0.00000000000E+00 -0.34169977341E+03  0.34169977342E+03  0.25500000000E-02 0.  1.
    8880023    1    1    2    0    0  0.45797241980E+03  0.12996120540E+03  0.34707505427E+03  0.88368543712E+03  0.65864270000E+03 0.  0.
    8880022    1    1    2    0    0 -0.45797241980E+03 -0.12996120540E+03  0.77823607806E+03  0.92502524204E+03  0.15294330000E+03 0.  0.
<mgrwt>
<rscale>  0 0.71975409E+03</rscale>
<asrwt>0</asrwt>
<pdfrwt beam="1">  1        2 0.22569399E+00 0.81267389E+03</pdfrwt>
<pdfrwt beam="2">  1       -2 0.52569196E-01 0.81267389E+03</pdfrwt>
<totfact> 0.45928849E+01</totfact>
</mgrwt>
</event>
<event>
 4    1  0.1998832E-007  0.6719518E+03  0.7818608E-02  0.1014301E+00
         -2   -1    0    0    0  501 -0.00000000000E+00  0.00000000000E+00  0.43205305672E+03  0.43205305673E+03  0.25500000000E-02 0.  1.
          2   -1    0    0  501    0  0.00000000000E+00 -0.00000000000E+00 -0.17299220374E+04  0.17299220374E+04  0.25500000000E-02 0. -1.
    8880023    1    1    2    0    0 -0.72588959435E+02  0.11153390077E+03  0.15945924517E+03  0.69061307922E+03  0.65864270000E+03 0.  0.
    8880022    1    1    2    0    0  0.72588959435E+02 -0.11153390077E+03 -0.14573282258E+04  0.14713620149E+04  0.15294330000E+03 0. -1.
<mgrwt>
<rscale>  0 0.49800605E+03</rscale>
<asrwt>0</asrwt>
<pdfrwt beam="1">  1        2 0.26614185E+00 0.67195176E+03</pdfrwt>
<pdfrwt beam="2">  1       -2 0.66469702E-01 0.67195176E+03</pdfrwt>
<totfact> 0.20408106E+01</totfact>
</mgrwt>
</event>
<event>
 4    1  0.1998832E-007  0.7332940E+03  0.7818608E-02  0.9879930E-01
         -2   -1    0    0    0  501 -0.00000000000E+00  0.00000000000E+00  0.16397235901E+04  0.16397235901E+04  0.25500000000E-02 0.  1.
          2   -1    0    0  501    0  0.00000000000E+00 -0.00000000000E+00 -0.98743312119E+03  0.98743312120E+03  0.25500000000E-02 0. -1.
    8880023    1    1    2    0    0  0.18778431626E+03  0.26200546165E+03  0.15207220578E+04  0.16882877701E+04  0.65864270000E+03 0.  0.
    8880022    1    1    2    0    0 -0.18778431626E+03 -0.26200546165E+03 -0.86843158882E+03  0.93886894125E+03  0.15294330000E+03 0.  0.
<mgrwt>
<rscale>  0 0.61243888E+03</rscale>
<asrwt>0</asrwt>
<pdfrwt beam="1">  1        2 0.15191279E+00 0.73329395E+03</pdfrwt>
<pdfrwt beam="2">  1       -2 0.25226517E+00 0.73329395E+03</pdfrwt>
<totfact> 0.16567800E+00</totfact>
</mgrwt>
</event>
<event>
 4    1  0.1998832E-007  0.6729748E+03  0.7818608E-02  0.1013614E+00
         -2   -1    0    0    0  501 -0.00000000000E+00  0.00000000000E+00  0.34384638067E+03  0.34384638068E+03  0.25500000000E-02 0.  1.
          2   -1    0    0  501    0  0.00000000000E+00 -0.00000000000E+00 -0.71861056941E+03  0.71861056942E+03  0.25500000000E-02 0. -1.
    8880023    1    1    2    0    0 -0.13737754300E+03  0.14568744322E+02 -0.46143533816E+02  0.67455486775E+03  0.65864270000E+03 0.  1.
    8880022    1    1    2    0    0  0.13737754300E+03 -0.14568744322E+02 -0.32862065492E+03  0.38790208235E+03  0.15294330000E+03 0.  0.
<mgrwt>
<rscale>  0 0.50063092E+03</rscale>
<asrwt>0</asrwt>
<pdfrwt beam="1">  1        2 0.11055547E+00 0.67297477E+03</pdfrwt>
<pdfrwt beam="2">  1       -2 0.52899443E-01 0.67297477E+03</pdfrwt>
<totfact> 0.13565480E+02</totfact>
</mgrwt>
</event>
<event>
 4    1  0.1998832E-007  0.9291026E+03  0.7818608E-02  0.9480841E-01
          2   -1    0    0  501    0  0.00000000000E+00  0.00000000000E+00  0.25527568263E+04  0.25527568263E+04  0.25500000000E-02 0. -1.
         -2   -1    0    0    0  501 -0.00000000000E+00 -0.00000000000E+00 -0.25993621863E+03  0.25993621864E+03  0.25500000000E-02 0.  1.
    8880023    1    1    2    0    0 -0.41661230615E+03  0.50582170340E+03  0.15762203394E+04  0.18296726958E+04  0.65864270000E+03 0.  0.
    8880022    1    1    2    0    0  0.41661230615E+03 -0.50582170340E+03  0.71660026828E+03  0.98302034912E+03  0.15294330000E+03 0.  0.
<mgrwt>
<rscale>  0 0.85711209E+03</rscale>
<asrwt>0</asrwt>
<pdfrwt beam="1">  1        2 0.39273181E+00 0.92910259E+03</pdfrwt>
<pdfrwt beam="2">  1       -2 0.39990189E-01 0.92910259E+03</pdfrwt>
<totfact> 0.19607130E+01</totfact>
</mgrwt>
</event>
<event>
 4    1  0.1998832E-007  0.1391052E+04  0.7818608E-02  0.8990667E-01
         -2   -1    0    0    0  501 -0.00000000000E+00  0.00000000000E+00  0.13984711600E+04  0.13984711600E+04  0.25500000000E-02 0.  1.
          2   -1    0    0  501    0  0.00000000000E+00 -0.00000000000E+00 -0.28190856042E+04  0.28190856042E+04  0.25500000000E-02 0. -1.
    8880023    1    1    2    0    0 -0.62540080125E+03 -0.10536080570E+04  0.85195471841E+03  0.16312121715E+04  0.65864270000E+03 0.  0.
    8880022    1    1    2    0    0  0.62540080125E+03  0.10536080570E+04 -0.22725691626E+04  0.25863445927E+04  0.15294330000E+03 0.  0.
<mgrwt>
<rscale>  0 0.13502132E+04</rscale>
<asrwt>0</asrwt>
<pdfrwt beam="1">  1        2 0.43370547E+00 0.13910522E+04</pdfrwt>
<pdfrwt beam="2">  1       -2 0.21514941E+00 0.13910522E+04</pdfrwt>
<totfact> 0.22785040E-01</totfact>
</mgrwt>
</event>
<event>
 4    1  0.1998832E-007  0.8395012E+03  0.7818608E-02  0.9631122E-01
          2   -1    0    0  501    0  0.00000000000E+00  0.00000000000E+00  0.22467804263E+04  0.22467804263E+04  0.25500000000E-02 0. -1.
         -2   -1    0    0    0  501 -0.00000000000E+00 -0.00000000000E+00 -0.34450837397E+03  0.34450837398E+03  0.25500000000E-02 0.  1.
    8880023    1    1    2    0    0  0.50873614259E+03  0.11017951809E+03  0.28678527393E+03  0.88713470713E+03  0.65864270000E+03 0.  1.
    8880022    1    1    2    0    0 -0.50873614259E+03 -0.11017951809E+03  0.16154867784E+04  0.17041540932E+04  0.15294330000E+03 0.  0.
<mgrwt>
<rscale>  0 0.75270154E+03</rscale>
<asrwt>0</asrwt>
<pdfrwt beam="1">  1        2 0.34565853E+00 0.83950116E+03</pdfrwt>
<pdfrwt beam="2">  1       -2 0.53001288E-01 0.83950116E+03</pdfrwt>
<totfact> 0.16758327E+01</totfact>
</mgrwt>
</event>
<event>
 4    1  0.1998832E-007  0.1032511E+04  0.7818608E-02  0.9340207E-01
          2   -1    0    0  501    0  0.00000000000E+00  0.00000000000E+00  0.13058344019E+04  0.13058344019E+04  0.25500000000E-02 0. -1.
         -2   -1    0    0    0  501 -0.00000000000E+00 -0.00000000000E+00 -0.20347281807E+04  0.20347281807E+04  0.25500000000E-02 0.  1.
    8880023    1    1    2    0    0  0.65300458536E+03  0.45371189950E+03 -0.17533279717E+04  0.20347576413E+04  0.65864270000E+03 0.  0.
    8880022    1    1    2    0    0 -0.65300458536E+03 -0.45371189950E+03  0.10244341928E+04  0.13058049413E+04  0.15294330000E+03 0.  0.
<mgrwt>
<rscale>  0 0.97164150E+03</rscale>
<asrwt>0</asrwt>
<pdfrwt beam="1">  1        2 0.20089760E+00 0.10325113E+04</pdfrwt>
<pdfrwt beam="2">  1       -2 0.31303511E+00 0.10325113E+04</pdfrwt>
<totfact> 0.43403201E-01</totfact>
</mgrwt>
</event>
<event>
 4    1  0.1998832E-007  0.8073102E+03  0.7818608E-02  0.9695207E-01
          2   -1    0    0  501    0  0.00000000000E+00  0.00000000000E+00  0.23055196369E+04  0.23055196369E+04  0.25500000000E-02 0. -1.
         -2   -1    0    0    0  501 -0.00000000000E+00 -0.00000000000E+00 -0.29708660237E+03  0.29708660238E+03  0.25500000000E-02 0.  1.
    8880023    1    1    2    0    0 -0.41660257179E+03  0.21067007169E+03  0.36256460504E+03  0.88498750331E+03  0.65864270000E+03 0.  0.
    8880022    1    1    2    0    0  0.41660257179E+03 -0.21067007169E+03  0.16458684295E+04  0.17176187360E+04  0.15294330000E+03 0.  0.
<mgrwt>
<rscale>  0 0.71302873E+03</rscale>
<asrwt>0</asrwt>
<pdfrwt beam="1">  1        2 0.35469534E+00 0.80731022E+03</pdfrwt>
<pdfrwt beam="2">  1       -2 0.45705630E-01 0.80731022E+03</pdfrwt>
<totfact> 0.21093657E+01</totfact>
</mgrwt>
</event>
<event>
 4    1  0.1998832E-007  0.1164375E+04  0.7818608E-02  0.9192555E-01
         -2   -1    0    0    0  501 -0.00000000000E+00  0.00000000000E+00  0.13318467980E+04  0.13318467980E+04  0.25500000000E-02 0.  1.
          2   -1    0    0  501    0  0.00000000000E+00 -0.00000000000E+00 -0.24531857819E+04  0.24531857819E+04  0.25500000000E-02 0. -1.
    8880023    1    1    2    0    0 -0.64408504436E+03 -0.71211827577E+03  0.94615558586E+03  0.15003261585E+04  0.65864270000E+03 0.  0.
    8880022    1    1    2    0    0  0.64408504436E+03  0.71211827577E+03 -0.20674945698E+04  0.22847064214E+04  0.15294330000E+03 0.  0.
<mgrwt>
<rscale>  0 0.11130601E+04</rscale>
<asrwt>0</asrwt>
<pdfrwt beam="1">  1        2 0.37741320E+00 0.11643746E+04</pdfrwt>
<pdfrwt beam="2">  1       -2 0.20489951E+00 0.11643746E+04</pdfrwt>
<totfact> 0.44873477E-01</totfact>
</mgrwt>
</event>
<event>
 4    1  0.1998832E-007  0.9718872E+03  0.7818608E-02  0.9419299E-01
         -2   -1    0    0    0  501 -0.00000000000E+00  0.00000000000E+00  0.19233140107E+03  0.19233140109E+03  0.25500000000E-02 0.  1.
          2   -1    0    0  501    0  0.00000000000E+00 -0.00000000000E+00 -0.42250485509E+04  0.42250485509E+04  0.25500000000E-02 0. -1.
    8880023    1    1    2    0    0  0.68569296127E+03  0.20144413756E+03 -0.29903566258E+04  0.31443278350E+04  0.65864270000E+03 0.  0.
    8880022    1    1    2    0    0 -0.68569296127E+03 -0.20144413756E+03 -0.10423605240E+04  0.12730521170E+04  0.15294330000E+03 0.  0.
<mgrwt>
<rscale>  0 0.90504344E+03</rscale>
<asrwt>0</asrwt>
<pdfrwt beam="1">  1        2 0.65000740E+00 0.97188723E+03</pdfrwt>
<pdfrwt beam="2">  1       -2 0.29589449E-01 0.97188723E+03</pdfrwt>
<totfact> 0.24855289E+00</totfact>
</mgrwt>
</event>
<event>
 4    1  0.1998832E-007  0.7054946E+03  0.7818608E-02  0.9975128E-01
         -2   -1    0    0    0  501 -0.00000000000E+00  0.00000000000E+00  0.63851460333E+03  0.63851460334E+03  0.25500000000E-02 0.  1.
          2   -1    0    0  501    0  0.00000000000E+00 -0.00000000000E+00 -0.11045172790E+04  0.11045172790E+04  0.25500000000E-02 0. -1.
    8880023    1    1    2    0    0  0.22831269025E+03 -0.10856210410E+03  0.41176489167E+03  0.81686776607E+03  0.65864270000E+03 0.  1.
    8880022    1    1    2    0    0 -0.22831269025E+03  0.10856210410E+03 -0.87776756734E+03  0.92616411627E+03  0.15294330000E+03 0.  0.
<mgrwt>
<rscale>  0 0.56754405E+03</rscale>
<asrwt>0</asrwt>
<pdfrwt beam="1">  1        2 0.16992574E+00 0.70549459E+03</pdfrwt>
<pdfrwt beam="2">  1       -2 0.98233016E-01 0.70549459E+03</pdfrwt>
<totfact> 0.19078250E+01</totfact>
</mgrwt>
</event>
<event>
 4    1  0.1998832E-007  0.7753933E+03  0.7818608E-02  0.9766771E-01
         -2   -1    0    0    0  501 -0.00000000000E+00  0.00000000000E+00  0.56484706561E+03  0.56484706561E+03  0.25500000000E-02 0.  1.
          2   -1    0    0  501    0  0.00000000000E+00 -0.00000000000E+00 -0.83621508474E+03  0.83621508474E+03  0.25500000000E-02 0. -1.
    8880023    1    1    2    0    0  0.34111974645E+03 -0.22596892739E+03  0.15490364302E+03  0.79071485534E+03  0.65864270000E+03 0.  1.
    8880022    1    1    2    0    0 -0.34111974645E+03  0.22596892739E+03 -0.42627166215E+03  0.61034729502E+03  0.15294330000E+03 0.  0.
<mgrwt>
<rscale>  0 0.67176672E+03</rscale>
<asrwt>0</asrwt>
<pdfrwt beam="1">  1        2 0.12864848E+00 0.77539335E+03</pdfrwt>
<pdfrwt beam="2">  1       -2 0.86899548E-01 0.77539335E+03</pdfrwt>
<totfact> 0.37627663E+01</totfact>
</mgrwt>
</event>
<event>
 4    1  0.1998832E-007  0.1157588E+04  0.7818608E-02  0.9199495E-01
         -2   -1    0    0    0  501 -0.00000000000E+00  0.00000000000E+00  0.76295120778E+03  0.76295120779E+03  0.25500000000E-02 0.  1.
          2   -1    0    0  501    0  0.00000000000E+00 -0.00000000000E+00 -0.24607082233E+04  0.24607082233E+04  0.25500000000E-02 0. -1.
    8880023    1    1    2    0    0  0.87971748893E+03 -0.36372562402E+03 -0.19128126411E+04  0.22358134082E+04  0.65864270000E+03 0.  0.
    8880022    1    1    2    0    0 -0.87971748893E+03  0.36372562402E+03  0.21505562558E+03  0.98784602293E+03  0.15294330000E+03 0.  0.
<mgrwt>
<rscale>  0 0.11058645E+04</rscale>
<asrwt>0</asrwt>
<pdfrwt beam="1">  1        2 0.37857049E+00 0.11575877E+04</pdfrwt>
<pdfrwt beam="2">  1       -2 0.11737711E+00 0.11575877E+04</pdfrwt>
<totfact> 0.20278162E+00</totfact>
</mgrwt>
</event>
<event>
 4    1  0.1998832E-007  0.1672899E+04  0.7818608E-02  0.8796307E-01
         -2   -1    0    0    0  501 -0.00000000000E+00  0.00000000000E+00  0.15821542542E+04  0.15821542542E+04  0.25500000000E-02 0.  1.
          2   -1    0    0  501    0  0.00000000000E+00 -0.00000000000E+00 -0.27910712351E+04  0.27910712351E+04  0.25500000000E-02 0. -1.
    8880023    1    1    2    0    0 -0.14844346308E+04  0.40153850637E+03  0.78716428612E+03  0.18488421146E+04  0.65864270000E+03 0.  0.
    8880022    1    1    2    0    0  0.14844346308E+04 -0.40153850637E+03 -0.19960812670E+04  0.25243833748E+04  0.15294330000E+03 0.  0.
<mgrwt>
<rscale>  0 0.16400624E+04</rscale>
<asrwt>0</asrwt>
<pdfrwt beam="1">  1        2 0.42939557E+00 0.16728985E+04</pdfrwt>
<pdfrwt beam="2">  1       -2 0.24340835E+00 0.16728985E+04</pdfrwt>
<totfact> 0.15199165E-01</totfact>
</mgrwt>
</event>
<event>
 4    1  0.3326154E-007  0.9448660E+03  0.7818608E-02  0.9457540E-01
          2   -1    0    0  501    0  0.00000000000E+00  0.00000000000E+00  0.26366273452E+04  0.26366273452E+04  0.25500000000E-02 0. -1.
         -2   -1    0    0    0  501 -0.00000000000E+00 -0.00000000000E+00 -0.15828410309E+04  0.15828410309E+04  0.25500000000E-02 0.  1.
    8880023    1    1    2    0    0 -0.46765090245E+02  0.67585107218E+03 -0.13889786090E+04  0.16798908977E+04  0.65864270000E+03 0.  0.
    8880022    1    1    2    0    0  0.46765090245E+02 -0.67585107218E+03  0.24427649233E+04  0.25395774784E+04  0.15294330000E+03 0.  0.
<mgrwt>
<rscale>  0 0.87487970E+03</rscale>
<asrwt>0</asrwt>
<pdfrwt beam="1">  1        2 0.40563498E+00 0.94486605E+03</pdfrwt>
<pdfrwt beam="2">  1       -2 0.24351401E+00 0.94486605E+03</pdfrwt>
<totfact> 0.20902999E-01</totfact>
</mgrwt>
</event>
<event>
 4    1  0.1998832E-007  0.8478809E+03  0.7818608E-02  0.9615495E-01
         -2   -1    0    0    0  501 -0.00000000000E+00  0.00000000000E+00  0.22554735089E+04  0.22554735089E+04  0.25500000000E-02 0.  1.
          2   -1    0    0  501    0  0.00000000000E+00 -0.00000000000E+00 -0.10045254244E+04  0.10045254244E+04  0.25500000000E-02 0. -1.
    8880023    1    1    2    0    0  0.19409662059E+03 -0.49741158973E+03  0.20890537166E+04  0.22545614706E+04  0.65864270000E+03 0.  1.
    8880022    1    1    2    0    0 -0.19409662059E+03  0.49741158973E+03 -0.83810563209E+03  0.10054374626E+04  0.15294330000E+03 0.  0.
<mgrwt>
<rscale>  0 0.76279022E+03</rscale>
<asrwt>0</asrwt>
<pdfrwt beam="1">  1        2 0.15454237E+00 0.84788088E+03</pdfrwt>
<pdfrwt beam="2">  1       -2 0.34699592E+00 0.84788088E+03</pdfrwt>
<totfact> 0.42195729E-01</totfact>
</mgrwt>
</event>
<event>
 4    1  0.1998832E-007  0.7936753E+03  0.7818608E-02  0.9724642E-01
         -2   -1    0    0    0  501 -0.00000000000E+00  0.00000000000E+00  0.14782302000E+04  0.14782302000E+04  0.25500000000E-02 0.  1.
          2   -1    0    0  501    0  0.00000000000E+00 -0.00000000000E+00 -0.13337945931E+04  0.13337945931E+04  0.25500000000E-02 0. -1.
    8880023    1    1    2    0    0 -0.78332942886E+02 -0.43586034124E+03  0.13235295534E+04  0.15432598524E+04  0.65864270000E+03 0.  1.
    8880022    1    1    2    0    0  0.78332942886E+02  0.43586034124E+03 -0.11790939465E+04  0.12687649407E+04  0.15294330000E+03 0.  0.
<mgrwt>
<rscale>  0 0.69568389E+03</rscale>
<asrwt>0</asrwt>
<pdfrwt beam="1">  1        2 0.20519917E+00 0.79367531E+03</pdfrwt>
<pdfrwt beam="2">  1       -2 0.22742003E+00 0.79367531E+03</pdfrwt>
<totfact> 0.14390627E+00</totfact>
</mgrwt>
</event>
<event>
 4    1  0.1998832E-007  0.6822516E+03  0.7818608E-02  0.1008078E+00
          2   -1    0    0  501    0  0.00000000000E+00  0.00000000000E+00  0.25818189289E+04  0.25818189289E+04  0.25500000000E-02 0. -1.
         -2   -1    0    0    0  501 -0.00000000000E+00 -0.00000000000E+00 -0.30014159809E+03  0.30014159810E+03  0.25500000000E-02 0.  1.
    8880023    1    1    2    0    0  0.17754592372E+03 -0.11594104485E+02  0.10216815967E+03  0.68985905619E+03  0.65864270000E+03 0.  1.
    8880022    1    1    2    0    0 -0.17754592372E+03  0.11594104485E+02  0.21795091712E+04  0.21921014709E+04  0.15294330000E+03 0.  0.
<mgrwt>
<rscale>  0 0.52245840E+03</rscale>
<asrwt>0</asrwt>
<pdfrwt beam="1">  1        2 0.39720290E+00 0.68225156E+03</pdfrwt>
<pdfrwt beam="2">  1       -2 0.46175632E-01 0.68225156E+03</pdfrwt>
<totfact> 0.14722931E+01</totfact>
</mgrwt>
</event>
<event>
 4    1  0.1998832E-007  0.7126749E+03  0.7818608E-02  0.9948199E-01
         -2   -1    0    0    0  501 -0.00000000000E+00  0.00000000000E+00  0.43991923574E+03  0.43991923575E+03  0.25500000000E-02 0.  1.
          2   -1    0    0  501    0  0.00000000000E+00 -0.00000000000E+00 -0.17413608195E+04  0.17413608195E+04  0.25500000000E-02 0. -1.
    8880023    1    1    2    0    0 -0.27200956571E+03  0.10303002018E+02  0.12283366196E+03  0.72318301312E+03  0.65864270000E+03 0.  1.
    8880022    1    1    2    0    0  0.27200956571E+03 -0.10303002018E+02 -0.14242752457E+04  0.14580970421E+04  0.15294330000E+03 0.  0.
<mgrwt>
<rscale>  0 0.57981168E+03</rscale>
<asrwt>0</asrwt>
<pdfrwt beam="1">  1        2 0.26790166E+00 0.71267493E+03</pdfrwt>
<pdfrwt beam="2">  1       -2 0.67679883E-01 0.71267493E+03</pdfrwt>
<totfact> 0.19236245E+01</totfact>
</mgrwt>
</event>
<event>
 4    1  0.1998832E-007  0.8663378E+03  0.7818608E-02  0.9582388E-01
         -2   -1    0    0    0  501 -0.00000000000E+00  0.00000000000E+00  0.10881996885E+04  0.10881996885E+04  0.25500000000E-02 0.  1.
          2   -1    0    0  501    0  0.00000000000E+00 -0.00000000000E+00 -0.10208666599E+04  0.10208666599E+04  0.25500000000E-02 0. -1.
    8880023    1    1    2    0    0 -0.43972710575E+03 -0.35124216849E+03  0.79548427596E+03  0.11761532332E+04  0.65864270000E+03 0.  1.
    8880022    1    1    2    0    0  0.43972710575E+03  0.35124216849E+03 -0.72815124739E+03  0.93291311521E+03  0.15294330000E+03 0.  0.
<mgrwt>
<rscale>  0 0.78472934E+03</rscale>
<asrwt>0</asrwt>
<pdfrwt beam="1">  1        2 0.15705641E+00 0.86633781E+03</pdfrwt>
<pdfrwt beam="2">  1       -2 0.16741534E+00 0.86633781E+03</pdfrwt>
<totfact> 0.54619744E+00</totfact>
</mgrwt>
</event>
<event>
 4    1  0.1998832E-007  0.7273438E+03  0.7818608E-02  0.9898478E-01
         -2   -1    0    0    0  501 -0.00000000000E+00  0.00000000000E+00  0.25338302827E+03  0.25338302828E+03  0.25500000000E-02 0.  1.
          2   -1    0    0  501    0  0.00000000000E+00 -0.00000000000E+00 -0.13178911929E+04  0.13178911929E+04  0.25500000000E-02 0. -1.
    8880023    1    1    2    0    0 -0.67950386763E+02 -0.30100080773E+03 -0.41837496475E+03  0.83908674087E+03  0.65864270000E+03 0.  1.
    8880022    1    1    2    0    0  0.67950386763E+02  0.30100080773E+03 -0.64613319985E+03  0.73218748028E+03  0.15294330000E+03 0.  0.
<mgrwt>
<rscale>  0 0.60335113E+03</rscale>
<asrwt>0</asrwt>
<pdfrwt beam="1">  1        2 0.20275249E+00 0.72734376E+03</pdfrwt>
<pdfrwt beam="2">  1       -2 0.38982005E-01 0.72734376E+03</pdfrwt>
<totfact> 0.10220382E+02</totfact>
</mgrwt>
</event>
<event>
 4    1  0.1998832E-007  0.8147435E+03  0.7818608E-02  0.9679780E-01
          2   -1    0    0  501    0  0.00000000000E+00  0.00000000000E+00  0.10873498647E+04  0.10873498647E+04  0.25500000000E-02 0. -1.
         -2   -1    0    0    0  501 -0.00000000000E+00 -0.00000000000E+00 -0.98738066993E+03  0.98738066994E+03  0.25500000000E-02 0.  1.
    8880023    1    1    2    0    0 -0.45910597301E+03  0.13863053019E+03 -0.73662357743E+03  0.10983720770E+04  0.65864270000E+03 0.  0.
    8880022    1    1    2    0    0  0.45910597301E+03 -0.13863053019E+03  0.83659277217E+03  0.97635845765E+03  0.15294330000E+03 0. -1.
<mgrwt>
<rscale>  0 0.72233557E+03</rscale>
<asrwt>0</asrwt>
<pdfrwt beam="1">  1        2 0.16728459E+00 0.81474347E+03</pdfrwt>
<pdfrwt beam="2">  1       -2 0.15190472E+00 0.81474347E+03</pdfrwt>
<totfact> 0.65006057E+00</totfact>
</mgrwt>
</event>
<event>
 4    1  0.1998832E-007  0.1438852E+04  0.7818608E-02  0.8954067E-01
          2   -1    0    0  501    0  0.00000000000E+00  0.00000000000E+00  0.15970007529E+04  0.15970007529E+04  0.25500000000E-02 0. -1.
         -2   -1    0    0    0  501 -0.00000000000E+00 -0.00000000000E+00 -0.19776830990E+04  0.19776830990E+04  0.25500000000E-02 0.  1.
    8880023    1    1    2    0    0 -0.42380915409E+03 -0.12070085589E+04 -0.13417248740E+04  0.19673636431E+04  0.65864270000E+03 0.  0.
    8880022    1    1    2    0    0  0.42380915409E+03  0.12070085589E+04  0.96104252788E+03  0.16073202089E+04  0.15294330000E+03 0.  0.
<mgrwt>
<rscale>  0 0.13996565E+04</rscale>
<asrwt>0</asrwt>
<pdfrwt beam="1">  1        2 0.24569242E+00 0.14388516E+04</pdfrwt>
<pdfrwt beam="2">  1       -2 0.30425894E+00 0.14388516E+04</pdfrwt>
<totfact> 0.31722002E-01</totfact>
</mgrwt>
</event>
<event>
 4    1  0.1998832E-007  0.1499425E+04  0.7818608E-02  0.8910042E-01
          2   -1    0    0  501    0  0.00000000000E+00  0.00000000000E+00  0.13572792118E+04  0.13572792118E+04  0.25500000000E-02 0. -1.
         -2   -1    0    0    0  501 -0.00000000000E+00 -0.00000000000E+00 -0.15925097190E+04  0.15925097190E+04  0.25500000000E-02 0.  1.
    8880023    1    1    2    0    0  0.12136397637E+04 -0.58441795306E+03  0.22904185609E+03  0.15168177866E+04  0.65864270000E+03 0.  0.
    8880022    1    1    2    0    0 -0.12136397637E+04  0.58441795306E+03 -0.46427236321E+03  0.14329711442E+04  0.15294330000E+03 0.  0.
<mgrwt>
<rscale>  0 0.14621186E+04</rscale>
<asrwt>0</asrwt>
<pdfrwt beam="1">  1        2 0.20881219E+00 0.14994252E+04</pdfrwt>
<pdfrwt beam="2">  1       -2 0.24500150E+00 0.14994252E+04</pdfrwt>
<totfact> 0.99520749E-01</totfact>
</mgrwt>
</event>
<event>
 4    1  0.1998832E-007  0.1210688E+04  0.7818608E-02  0.9146802E-01
         -2   -1    0    0    0  501 -0.00000000000E+00  0.00000000000E+00  0.16815199368E+04  0.16815199368E+04  0.25500000000E-02 0.  1.
          2   -1    0    0  501    0  0.00000000000E+00 -0.00000000000E+00 -0.79212853620E+03  0.79212853621E+03  0.25500000000E-02 0. -1.
    8880023    1    1    2    0    0  0.10126715219E+04 -0.80321805216E+02  0.78078753804E+03  0.14406229866E+04  0.65864270000E+03 0.  0.
    8880022    1    1    2    0    0 -0.10126715219E+04  0.80321805216E+02  0.10860386254E+03  0.10330254864E+04  0.15294330000E+03 0.  0.
<mgrwt>
<rscale>  0 0.11619798E+04</rscale>
<asrwt>0</asrwt>
<pdfrwt beam="1">  1        2 0.12186593E+00 0.12106880E+04</pdfrwt>
<pdfrwt beam="2">  1       -2 0.25869537E+00 0.12106880E+04</pdfrwt>
<totfact> 0.19364445E+00</totfact>
</mgrwt>
</event>
<event>
 4    1  0.1998832E-007  0.1424875E+04  0.7818608E-02  0.8964592E-01
          2   -1    0    0  501    0  0.00000000000E+00  0.00000000000E+00  0.23532047008E+04  0.23532047008E+04  0.25500000000E-02 0. -1.
         -2   -1    0    0    0  501 -0.00000000000E+00 -0.00000000000E+00 -0.85692160778E+03  0.85692160779E+03  0.25500000000E-02 0.  1.
    8880023    1    1    2    0    0  0.98284823147E+03 -0.79401932321E+03  0.28494560935E+03  0.14530868998E+04  0.65864270000E+03 0.  0.
    8880022    1    1    2    0    0 -0.98284823147E+03  0.79401932321E+03  0.12113374836E+04  0.17570394088E+04  0.15294330000E+03 0.  0.
<mgrwt>
<rscale>  0 0.13852137E+04</rscale>
<asrwt>0</asrwt>
<pdfrwt beam="1">  1        2 0.36203149E+00 0.14248746E+04</pdfrwt>
<pdfrwt beam="2">  1       -2 0.13183409E+00 0.14248746E+04</pdfrwt>
<totfact> 0.16910732E+00</totfact>
</mgrwt>
</event>
<event>
 4    1  0.1998832E-007  0.1171534E+04  0.7818608E-02  0.9185303E-01
         -2   -1    0    0    0  501 -0.00000000000E+00  0.00000000000E+00  0.17230132442E+04  0.17230132442E+04  0.25500000000E-02 0.  1.
          2   -1    0    0  501    0  0.00000000000E+00 -0.00000000000E+00 -0.13930921842E+04  0.13930921842E+04  0.25500000000E-02 0. -1.
    8880023    1    1    2    0    0 -0.92359135570E+03 -0.29267778985E+03  0.12906935552E+04  0.17430953332E+04  0.65864270000E+03 0.  1.
    8880022    1    1    2    0    0  0.92359135570E+03  0.29267778985E+03 -0.96077249520E+03  0.13730100952E+04  0.15294330000E+03 0.  0.
<mgrwt>
<rscale>  0 0.11206426E+04</rscale>
<asrwt>0</asrwt>
<pdfrwt beam="1">  1        2 0.21432188E+00 0.11715338E+04</pdfrwt>
<pdfrwt beam="2">  1       -2 0.26507896E+00 0.11715338E+04</pdfrwt>
<totfact> 0.74059354E-01</totfact>
</mgrwt>
</event>
<event>
 4    1  0.1998832E-007  0.7352578E+03  0.7818608E-02  0.9873982E-01
         -2   -1    0    0    0  501 -0.00000000000E+00  0.00000000000E+00  0.23156373540E+04  0.23156373540E+04  0.25500000000E-02 0.  1.
          2   -1    0    0  501    0  0.00000000000E+00 -0.00000000000E+00 -0.14742635480E+04  0.14742635480E+04  0.25500000000E-02 0. -1.
    8880023    1    1    2    0    0  0.40405424805E+02  0.32428568811E+03  0.22336915794E+04  0.23515913939E+04  0.65864270000E+03 0.  1.
    8880022    1    1    2    0    0 -0.40405424805E+02 -0.32428568811E+03 -0.13923177734E+04  0.14383095081E+04  0.15294330000E+03 0.  0.
<mgrwt>
<rscale>  0 0.61538943E+03</rscale>
<asrwt>0</asrwt>
<pdfrwt beam="1">  1        2 0.22680978E+00 0.73525779E+03</pdfrwt>
<pdfrwt beam="2">  1       -2 0.35625190E+00 0.73525779E+03</pdfrwt>
<totfact> 0.19995548E-01</totfact>
</mgrwt>
</event>
<event>
 4    1  0.1998832E-007  0.1336269E+04  0.7818608E-02  0.9034855E-01
          2   -1    0    0  501    0  0.00000000000E+00  0.00000000000E+00  0.11057436162E+04  0.11057436162E+04  0.25500000000E-02 0. -1.
         -2   -1    0    0    0  501 -0.00000000000E+00 -0.00000000000E+00 -0.19682983568E+04  0.19682983568E+04  0.25500000000E-02 0.  1.
    8880023    1    1    2    0    0 -0.10076230580E+04 -0.58008674080E+03 -0.12592076988E+04  0.18360879851E+04  0.65864270000E+03 0.  0.
    8880022    1    1    2    0    0  0.10076230580E+04  0.58008674080E+03  0.39665295821E+03  0.12379539879E+04  0.15294330000E+03 0.  0.
<mgrwt>
<rscale>  0 0.12933499E+04</rscale>
<asrwt>0</asrwt>
<pdfrwt beam="1">  1        2 0.17011440E+00 0.13362691E+04</pdfrwt>
<pdfrwt beam="2">  1       -2 0.30281513E+00 0.13362691E+04</pdfrwt>
<totfact> 0.63513380E-01</totfact>
</mgrwt>
</event>
<event>
 4    1  0.2471870E-007  0.7885962E+03  0.7818608E-02  0.9736019E-01
          2   -1    0    0  501    0  0.00000000000E+00  0.00000000000E+00  0.25155576206E+04  0.25155576206E+04  0.25500000000E-02 0. -1.
         -2   -1    0    0    0  501 -0.00000000000E+00 -0.00000000000E+00 -0.13029647257E+04  0.13029647257E+04  0.25500000000E-02 0.  1.
    8880023    1    1    2    0    0 -0.37335632661E+03 -0.22063270654E+03 -0.11595056055E+04  0.14022614568E+04  0.65864270000E+03 0.  1.
    8880022    1    1    2    0    0  0.37335632661E+03  0.22063270654E+03  0.23720985004E+04  0.24162608895E+04  0.15294330000E+03 0.  0.
<mgrwt>
<rscale>  0 0.68912169E+03</rscale>
<asrwt>0</asrwt>
<pdfrwt beam="1">  1        2 0.38700886E+00 0.78859619E+03</pdfrwt>
<pdfrwt beam="2">  1       -2 0.20045612E+00 0.78859619E+03</pdfrwt>
<totfact> 0.47269157E-01</totfact>
</mgrwt>
</event>
<event>
 4    1  0.1998832E-007  0.1110056E+04  0.7818608E-02  0.9249941E-01
         -2   -1    0    0    0  501 -0.00000000000E+00  0.00000000000E+00  0.13065384164E+04  0.13065384164E+04  0.25500000000E-02 0.  1.
          2   -1    0    0  501    0  0.00000000000E+00 -0.00000000000E+00 -0.79841508271E+03  0.79841508272E+03  0.25500000000E-02 0. -1.
    8880023    1    1    2    0    0 -0.25019815286E+03 -0.85779717880E+03  0.44596259548E+03  0.11962892453E+04  0.65864270000E+03 0.  0.
    8880022    1    1    2    0    0  0.25019815286E+03  0.85779717880E+03  0.62160738156E+02  0.90866425375E+03  0.15294330000E+03 0.  0.
<mgrwt>
<rscale>  0 0.10552492E+04</rscale>
<asrwt>0</asrwt>
<pdfrwt beam="1">  1        2 0.12283309E+00 0.11100564E+04</pdfrwt>
<pdfrwt beam="2">  1       -2 0.20100591E+00 0.11100564E+04</pdfrwt>
<totfact> 0.44456314E+00</totfact>
</mgrwt>
</event>
<event>
 4    1  0.1998832E-007  0.6589007E+03  0.7818608E-02  0.1025312E+00
         -2   -1    0    0    0  501 -0.00000000000E+00  0.00000000000E+00  0.25626826885E+03  0.25626826887E+03  0.25500000000E-02 0.  1.
          2   -1    0    0  501    0  0.00000000000E+00 -0.00000000000E+00 -0.27136157793E+04  0.27136157793E+04  0.25500000000E-02 0. -1.
    8880023    1    1    2    0    0  0.33073533840E+01  0.18139649631E+02 -0.17419191956E+03  0.68153724519E+03  0.65864270000E+03 0.  1.
    8880022    1    1    2    0    0 -0.33073533840E+01 -0.18139649631E+02 -0.22831555909E+04  0.22883468029E+04  0.15294330000E+03 0.  0.
<mgrwt>
<rscale>  0 0.45817455E+03</rscale>
<asrwt>0</asrwt>
<pdfrwt beam="1">  1        2 0.41747933E+00 0.65890074E+03</pdfrwt>
<pdfrwt beam="2">  1       -2 0.39425889E-01 0.65890074E+03</pdfrwt>
<totfact> 0.16950879E+01</totfact>
</mgrwt>
</event>
<event>
 4    1  0.1998832E-007  0.1206476E+04  0.7818608E-02  0.9150853E-01
         -2   -1    0    0    0  501 -0.00000000000E+00  0.00000000000E+00  0.75572054508E+03  0.75572054509E+03  0.25500000000E-02 0.  1.
          2   -1    0    0  501    0  0.00000000000E+00 -0.00000000000E+00 -0.26946367952E+04  0.26946367952E+04  0.25500000000E-02 0. -1.
    8880023    1    1    2    0    0  0.68780695766E+03 -0.74074020749E+03  0.57027960533E+02  0.12078231909E+04  0.65864270000E+03 0.  1.
    8880022    1    1    2    0    0 -0.68780695766E+03  0.74074020749E+03 -0.19959442106E+04  0.22425341493E+04  0.15294330000E+03 0.  0.
<mgrwt>
<rscale>  0 0.11575432E+04</rscale>
<asrwt>0</asrwt>
<pdfrwt beam="1">  1        2 0.41455950E+00 0.12064761E+04</pdfrwt>
<pdfrwt beam="2">  1       -2 0.11626470E+00 0.12064761E+04</pdfrwt>
<totfact> 0.15094503E+00</totfact>
</mgrwt>
</event>
<event>
 4    1  0.1998832E-007  0.1126100E+04  0.7818608E-02  0.9232538E-01
         -2   -1    0    0    0  501 -0.00000000000E+00  0.00000000000E+00  0.45612296479E+03  0.45612296479E+03  0.25500000000E-02 0.  1.
          2   -1    0    0  501    0  0.00000000000E+00 -0.00000000000E+00 -0.26751363874E+04  0.26751363874E+04  0.25500000000E-02 0. -1.
    8880023    1    1    2    0    0  0.91051972025E+03 -0.72424937608E+02 -0.62546205651E+03  0.12881399470E+04  0.65864270000E+03 0.  0.
    8880022    1    1    2    0    0 -0.91051972025E+03  0.72424937608E+02 -0.15935513661E+04  0.18431194052E+04  0.15294330000E+03 0.  0.
<mgrwt>
<rscale>  0 0.10723799E+04</rscale>
<asrwt>0</asrwt>
<pdfrwt beam="1">  1        2 0.41155943E+00 0.11261002E+04</pdfrwt>
<pdfrwt beam="2">  1       -2 0.70172766E-01 0.11261002E+04</pdfrwt>
<totfact> 0.50724084E+00</totfact>
</mgrwt>
</event>
<event>
 4    1  0.1998832E-007  0.9047047E+03  0.7818608E-02  0.9518521E-01
          2   -1    0    0  501    0  0.00000000000E+00  0.00000000000E+00  0.13898703935E+04  0.13898703935E+04  0.25500000000E-02 0. -1.
         -2   -1    0    0    0  501 -0.00000000000E+00 -0.00000000000E+00 -0.68540234950E+03  0.68540234951E+03  0.25500000000E-02 0.  1.
    8880023    1    1    2    0    0 -0.57543764332E+02  0.61755084996E+03 -0.23913293507E+03  0.93577513538E+03  0.65864270000E+03 0.  1.
    8880022    1    1    2    0    0  0.57543764332E+02 -0.61755084996E+03  0.94360097908E+03  0.11394976076E+04  0.15294330000E+03 0.  0.
<mgrwt>
<rscale>  0 0.82932016E+03</rscale>
<asrwt>0</asrwt>
<pdfrwt beam="1">  1        2 0.21382622E+00 0.90470467E+03</pdfrwt>
<pdfrwt beam="2">  1       -2 0.10544651E+00 0.90470467E+03</pdfrwt>
<totfact> 0.10714996E+01</totfact>
</mgrwt>
</event>
<event>
 4    1  0.1998832E-007  0.1364485E+04  0.7818608E-02  0.9011782E-01
          2   -1    0    0  501    0  0.00000000000E+00  0.00000000000E+00  0.33055241803E+04  0.33055241803E+04  0.25500000000E-02 0. -1.
         -2   -1    0    0    0  501 -0.00000000000E+00 -0.00000000000E+00 -0.57219916561E+03  0.57219916562E+03  0.25500000000E-02 0.  1.
    8880023    1    1    2    0    0  0.55380607968E+03 -0.10589182650E+04  0.74961120165E+03  0.15568353239E+04  0.65864270000E+03 0.  1.
    8880022    1    1    2    0    0 -0.55380607968E+03  0.10589182650E+04  0.19837138130E+04  0.23208880220E+04  0.15294330000E+03 0.  0.
<mgrwt>
<rscale>  0 0.13226654E+04</rscale>
<asrwt>0</asrwt>
<pdfrwt beam="1">  1        2 0.50854219E+00 0.13644850E+04</pdfrwt>
<pdfrwt beam="2">  1       -2 0.88030640E-01 0.13644850E+04</pdfrwt>
<totfact> 0.12002007E+00</totfact>
</mgrwt>
</event>
<event>
 4    1  0.1998832E-007  0.7170181E+03  0.7818608E-02  0.9932808E-01
         -2   -1    0    0    0  501 -0.00000000000E+00  0.00000000000E+00  0.37937646336E+03  0.37937646337E+03  0.25500000000E-02 0.  1.
          2   -1    0    0  501    0  0.00000000000E+00 -0.00000000000E+00 -0.14480065687E+04  0.14480065687E+04  0.25500000000E-02 0. -1.
    8880023    1    1    2    0    0  0.25536244034E+03 -0.12286092781E+03 -0.60117225048E+01  0.71704332546E+03  0.65864270000E+03 0.  1.
    8880022    1    1    2    0    0 -0.25536244034E+03  0.12286092781E+03 -0.10626183828E+04  0.11103397066E+04  0.15294330000E+03 0.  0.
<mgrwt>
<rscale>  0 0.58697294E+03</rscale>
<asrwt>0</asrwt>
<pdfrwt beam="1">  1        2 0.22277024E+00 0.71701812E+03</pdfrwt>
<pdfrwt beam="2">  1       -2 0.58365610E-01 0.71701812E+03</pdfrwt>
<totfact> 0.38251523E+01</totfact>
</mgrwt>
</event>
<event>
 4    1  0.1998832E-007  0.7086576E+03  0.7818608E-02  0.9963020E-01
         -2   -1    0    0    0  501 -0.00000000000E+00  0.00000000000E+00  0.47504145345E+03  0.47504145346E+03  0.25500000000E-02 0.  1.
          2   -1    0    0  501    0  0.00000000000E+00 -0.00000000000E+00 -0.17955304330E+04  0.17955304330E+04  0.25500000000E-02 0. -1.
    8880023    1    1    2    0    0  0.42340798578E+02  0.25805557183E+03  0.18702319111E+03  0.73292107464E+03  0.65864270000E+03 0.  1.
    8880022    1    1    2    0    0 -0.42340798578E+02 -0.25805557183E+03 -0.15075121707E+04  0.15376508119E+04  0.15294330000E+03 0.  0.
<mgrwt>
<rscale>  0 0.57301913E+03</rscale>
<asrwt>0</asrwt>
<pdfrwt beam="1">  1        2 0.27623545E+00 0.70865762E+03</pdfrwt>
<pdfrwt beam="2">  1       -2 0.73083301E-01 0.70865762E+03</pdfrwt>
<totfact> 0.15205894E+01</totfact>
</mgrwt>
</event>
<event>
 4    1  0.1998832E-007  0.7559169E+03  0.7818608E-02  0.9815795E-01
         -2   -1    0    0    0  501 -0.00000000000E+00  0.00000000000E+00  0.14051545593E+04  0.14051545593E+04  0.25500000000E-02 0.  1.
          2   -1    0    0  501    0  0.00000000000E+00 -0.00000000000E+00 -0.25676340091E+03  0.25676340092E+03  0.25500000000E-02 0. -1.
    8880023    1    1    2    0    0  0.35575423838E+03  0.10506713876E+03  0.95077953384E+03  0.12146571986E+04  0.65864270000E+03 0.  1.
    8880022    1    1    2    0    0 -0.35575423838E+03 -0.10506713876E+03  0.19761162459E+03  0.44726076171E+03  0.15294330000E+03 0.  0.
<mgrwt>
<rscale>  0 0.64521734E+03</rscale>
<asrwt>0</asrwt>
<pdfrwt beam="1">  1        2 0.39502062E-01 0.75591692E+03</pdfrwt>
<pdfrwt beam="2">  1       -2 0.21617762E+00 0.75591692E+03</pdfrwt>
<totfact> 0.13913818E+01</totfact>
</mgrwt>
</event>
<event>
 4    1  0.1998832E-007  0.1341179E+04  0.7818608E-02  0.9030791E-01
         -2   -1    0    0    0  501 -0.00000000000E+00  0.00000000000E+00  0.10304148106E+04  0.10304148106E+04  0.25500000000E-02 0.  1.
          2   -1    0    0  501    0  0.00000000000E+00 -0.00000000000E+00 -0.18504522629E+04  0.18504522629E+04  0.25500000000E-02 0. -1.
    8880023    1    1    2    0    0 -0.10605446793E+04  0.49009846925E+03 -0.10209815657E+04  0.16855755961E+04  0.65864270000E+03 0.  0.
    8880022    1    1    2    0    0  0.10605446793E+04 -0.49009846925E+03  0.20094411337E+03  0.11952914775E+04  0.15294330000E+03 0.  0.
<mgrwt>
<rscale>  0 0.12984559E+04</rscale>
<asrwt>0</asrwt>
<pdfrwt beam="1">  1        2 0.28468496E+00 0.13411792E+04</pdfrwt>
<pdfrwt beam="2">  1       -2 0.15852536E+00 0.13411792E+04</pdfrwt>
<totfact> 0.20018041E+00</totfact>
</mgrwt>
</event>
<event>
 4    1  0.1998832E-007  0.1162615E+04  0.7818608E-02  0.9194348E-01
          2   -1    0    0  501    0  0.00000000000E+00  0.00000000000E+00  0.16485127815E+04  0.16485127815E+04  0.25500000000E-02 0. -1.
         -2   -1    0    0    0  501 -0.00000000000E+00 -0.00000000000E+00 -0.13324813285E+04  0.13324813285E+04  0.25500000000E-02 0.  1.
    8880023    1    1    2    0    0 -0.91899720640E+03  0.27075443646E+03 -0.86752729596E+03  0.14506128518E+04  0.65864270000E+03 0.  1.
    8880022    1    1    2    0    0  0.91899720640E+03 -0.27075443646E+03  0.11835587490E+04  0.15303812582E+04  0.15294330000E+03 0.  0.
<mgrwt>
<rscale>  0 0.11111954E+04</rscale>
<asrwt>0</asrwt>
<pdfrwt beam="1">  1        2 0.25361735E+00 0.11626152E+04</pdfrwt>
<pdfrwt beam="2">  1       -2 0.20499713E+00 0.11626152E+04</pdfrwt>
<totfact> 0.12593990E+00</totfact>
</mgrwt>
</event>
<event>
 4    1  0.1998832E-007  0.8564914E+03  0.7818608E-02  0.9599835E-01
          2   -1    0    0  501    0  0.00000000000E+00  0.00000000000E+00  0.20122224101E+04  0.20122224101E+04  0.25500000000E-02 0. -1.
         -2   -1    0    0    0  501 -0.00000000000E+00 -0.00000000000E+00 -0.47898660280E+03  0.47898660281E+03  0.25500000000E-02 0.  1.
    8880023    1    1    2    0    0 -0.38704970794E+02  0.54614036922E+03  0.16959122939E+04  0.18999200226E+04  0.65864270000E+03 0.  0.
    8880022    1    1    2    0    0  0.38704970794E+02 -0.54614036922E+03 -0.16267648662E+03  0.59128899023E+03  0.15294330000E+03 0.  0.
<mgrwt>
<rscale>  0 0.77307087E+03</rscale>
<asrwt>0</asrwt>
<pdfrwt beam="1">  1        2 0.30957267E+00 0.85649144E+03</pdfrwt>
<pdfrwt beam="2">  1       -2 0.73690249E-01 0.85649144E+03</pdfrwt>
<totfact> 0.11141672E+01</totfact>
</mgrwt>
</event>
<event>
 4    1  0.1998832E-007  0.9473779E+03  0.7818608E-02  0.9453897E-01
          2   -1    0    0  501    0  0.00000000000E+00  0.00000000000E+00  0.34357669403E+04  0.34357669403E+04  0.25500000000E-02 0. -1.
         -2   -1    0    0    0  501 -0.00000000000E+00 -0.00000000000E+00 -0.19716855477E+03  0.19716855478E+03  0.25500000000E-02 0.  1.
    8880023    1    1    2    0    0 -0.54062013866E+03 -0.41405868176E+03  0.19208434326E+04  0.21417666598E+04  0.65864270000E+03 0.  1.
    8880022    1    1    2    0    0  0.54062013866E+03  0.41405868176E+03  0.13177549529E+04  0.14911688352E+04  0.15294330000E+03 0. -1.
<mgrwt>
<rscale>  0 0.87769863E+03</rscale>
<asrwt>0</asrwt>
<pdfrwt beam="1">  1        2 0.52857949E+00 0.94737792E+03</pdfrwt>
<pdfrwt beam="2">  1       -2 0.30333626E-01 0.94737792E+03</pdfrwt>
<totfact> 0.94321577E+00</totfact>
</mgrwt>
</event>
<event>
 4    1  0.1998832E-007  0.1193305E+04  0.7818608E-02  0.9163658E-01
         -2   -1    0    0    0  501 -0.00000000000E+00  0.00000000000E+00  0.23548704946E+04  0.23548704946E+04  0.25500000000E-02 0.  1.
          2   -1    0    0  501    0  0.00000000000E+00 -0.00000000000E+00 -0.88559019054E+03  0.88559019054E+03  0.25500000000E-02 0. -1.
    8880023    1    1    2    0    0 -0.54601723786E+03  0.83188406475E+03  0.18183188558E+04  0.21749159958E+04  0.65864270000E+03 0.  0.
    8880022    1    1    2    0    0  0.54601723786E+03 -0.83188406475E+03 -0.34903855177E+03  0.10655446893E+04  0.15294330000E+03 0.  0.
<mgrwt>
<rscale>  0 0.11436538E+04</rscale>
<asrwt>0</asrwt>
<pdfrwt beam="1">  1        2 0.13624465E+00 0.11933047E+04</pdfrwt>
<pdfrwt beam="2">  1       -2 0.36228777E+00 0.11933047E+04</pdfrwt>
<totfact> 0.38451648E-01</totfact>
</mgrwt>
</event>
<event>
 4    1  0.1998832E-007  0.8138037E+03  0.7818608E-02  0.9681708E-01
         -2   -1    0    0    0  501 -0.00000000000E+00  0.00000000000E+00  0.10890442168E+04  0.10890442168E+04  0.25500000000E-02 0.  1.
          2   -1    0    0  501    0  0.00000000000E+00 -0.00000000000E+00 -0.15812441132E+04  0.15812441132E+04  0.25500000000E-02 0. -1.
    8880023    1    1    2    0    0  0.42506729997E+03  0.21859565840E+03  0.88631817110E+03  0.12032607274E+04  0.65864270000E+03 0.  1.
    8880022    1    1    2    0    0 -0.42506729997E+03 -0.21859565840E+03 -0.13785180676E+04  0.14670276027E+04  0.15294330000E+03 0.  0.
<mgrwt>
<rscale>  0 0.72116427E+03</rscale>
<asrwt>0</asrwt>
<pdfrwt beam="1">  1        2 0.24326833E+00 0.81380371E+03</pdfrwt>
<pdfrwt beam="2">  1       -2 0.16754526E+00 0.81380371E+03</pdfrwt>
<totfact> 0.25842423E+00</totfact>
</mgrwt>
</event>
<event>
 4    1  0.1998832E-007  0.1411308E+04  0.7818608E-02  0.8974946E-01
         -2   -1    0    0    0  501 -0.00000000000E+00  0.00000000000E+00  0.24723857387E+04  0.24723857387E+04  0.25500000000E-02 0.  1.
          2   -1    0    0  501    0  0.00000000000E+00 -0.00000000000E+00 -0.15835282964E+04  0.15835282964E+04  0.25500000000E-02 0. -1.
    8880023    1    1    2    0    0 -0.11620657921E+04 -0.45561240736E+03  0.19523115577E+04  0.24090060596E+04  0.65864270000E+03 0.  0.
    8880022    1    1    2    0    0  0.11620657921E+04  0.45561240736E+03 -0.10634541154E+04  0.16469079754E+04  0.15294330000E+03 0.  0.
<mgrwt>
<rscale>  0 0.13711834E+04</rscale>
<asrwt>0</asrwt>
<pdfrwt beam="1">  1        2 0.24361974E+00 0.14113078E+04</pdfrwt>
<pdfrwt beam="2">  1       -2 0.38036704E+00 0.14113078E+04</pdfrwt>
<totfact> 0.10808498E-01</totfact>
</mgrwt>
</event>
<event>
 4    1  0.1998832E-007  0.7202176E+03  0.7818608E-02  0.9921850E-01
         -2   -1    0    0    0  501 -0.00000000000E+00  0.00000000000E+00  0.36415946481E+04  0.36415946481E+04  0.25500000000E-02 0.  1.
          2   -1    0    0  501    0  0.00000000000E+00 -0.00000000000E+00 -0.13965278150E+04  0.13965278150E+04  0.25500000000E-02 0. -1.
    8880023    1    1    2    0    0  0.25027180999E+03  0.14922204491E+03  0.35858921141E+04  0.36575040202E+04  0.65864270000E+03 0.  1.
    8880022    1    1    2    0    0 -0.25027180999E+03 -0.14922204491E+03 -0.13408252810E+04  0.13806184429E+04  0.15294330000E+03 0.  0.
<mgrwt>
<rscale>  0 0.59213915E+03</rscale>
<asrwt>0</asrwt>
<pdfrwt beam="1">  1        2 0.21485044E+00 0.72021761E+03</pdfrwt>
<pdfrwt beam="2">  1       -2 0.56024533E+00 0.72021761E+03</pdfrwt>
<totfact> 0.11606501E-02</totfact>
</mgrwt>
</event>
<event>
 4    1  0.1998832E-007  0.1488183E+04  0.7818608E-02  0.8918026E-01
          2   -1    0    0  501    0  0.00000000000E+00  0.00000000000E+00  0.14468827438E+04  0.14468827438E+04  0.25500000000E-02 0. -1.
         -2   -1    0    0    0  501 -0.00000000000E+00 -0.00000000000E+00 -0.17262771889E+04  0.17262771889E+04  0.25500000000E-02 0.  1.
    8880023    1    1    2    0    0  0.64553729307E+03  0.11679721702E+04  0.55905327303E+03  0.15897258114E+04  0.65864270000E+03 0. -1.
    8880022    1    1    2    0    0 -0.64553729307E+03 -0.11679721702E+04 -0.83844771811E+03  0.15834341212E+04  0.15294330000E+03 0.  0.
<mgrwt>
<rscale>  0 0.14505404E+04</rscale>
<asrwt>0</asrwt>
<pdfrwt beam="1">  1        2 0.22259735E+00 0.14881826E+04</pdfrwt>
<pdfrwt beam="2">  1       -2 0.26558111E+00 0.14881826E+04</pdfrwt>
<totfact> 0.66107083E-01</totfact>
</mgrwt>
</event>
<event>
 4    1  0.1998832E-007  0.1412348E+04  0.7818608E-02  0.8974147E-01
          2   -1    0    0  501    0  0.00000000000E+00  0.00000000000E+00  0.20494855564E+04  0.20494855564E+04  0.25500000000E-02 0. -1.
         -2   -1    0    0    0  501 -0.00000000000E+00 -0.00000000000E+00 -0.13446453602E+04  0.13446453602E+04  0.25500000000E-02 0.  1.
    8880023    1    1    2    0    0  0.88558736520E+03  0.88127842536E+03 -0.64136275530E+03  0.15511521636E+04  0.65864270000E+03 0.  1.
    8880022    1    1    2    0    0 -0.88558736520E+03 -0.88127842536E+03  0.13462029515E+04  0.18429787530E+04  0.15294330000E+03 0.  0.
<mgrwt>
<rscale>  0 0.13722595E+04</rscale>
<asrwt>0</asrwt>
<pdfrwt beam="1">  1        2 0.31530547E+00 0.14123480E+04</pdfrwt>
<pdfrwt beam="2">  1       -2 0.20686852E+00 0.14123480E+04</pdfrwt>
<totfact> 0.71280115E-01</totfact>
</mgrwt>
</event>
<event>
 4    1  0.1998832E-007  0.1788786E+04  0.7818608E-02  0.8728765E-01
         -2   -1    0    0    0  501 -0.00000000000E+00  0.00000000000E+00  0.18731355980E+04  0.18731355980E+04  0.25500000000E-02 0.  1.
          2   -1    0    0  501    0  0.00000000000E+00 -0.00000000000E+00 -0.19515865692E+04  0.19515865692E+04  0.25500000000E-02 0. -1.
    8880023    1    1    2    0    0 -0.11252303653E+03 -0.16593021945E+04 -0.85531080644E+03  0.19827536378E+04  0.65864270000E+03 0.  0.
    8880022    1    1    2    0    0  0.11252303653E+03  0.16593021945E+04  0.77685983525E+03  0.18419685294E+04  0.15294330000E+03 0.  0.
<mgrwt>
<rscale>  0 0.17583544E+04</rscale>
<asrwt>0</asrwt>
<pdfrwt beam="1">  1        2 0.30024409E+00 0.17887860E+04</pdfrwt>
<pdfrwt beam="2">  1       -2 0.28817471E+00 0.17887860E+04</pdfrwt>
<totfact> 0.24274501E-01</totfact>
</mgrwt>
</event>
<event>
 4    1  0.1998832E-007  0.1320981E+04  0.7818608E-02  0.9047650E-01
         -2   -1    0    0    0  501 -0.00000000000E+00  0.00000000000E+00  0.12361599675E+04  0.12361599675E+04  0.25500000000E-02 0.  1.
          2   -1    0    0  501    0  0.00000000000E+00 -0.00000000000E+00 -0.12826457766E+04  0.12826457766E+04  0.25500000000E-02 0. -1.
    8880023    1    1    2    0    0 -0.11430363937E+04  0.68172258508E+02 -0.25372822276E+03  0.13451274554E+04  0.65864270000E+03 0.  0.
    8880022    1    1    2    0    0  0.11430363937E+04 -0.68172258508E+02  0.20724241363E+03  0.11736782886E+04  0.15294330000E+03 0.  0.
<mgrwt>
<rscale>  0 0.12774387E+04</rscale>
<asrwt>0</asrwt>
<pdfrwt beam="1">  1        2 0.19733012E+00 0.13209806E+04</pdfrwt>
<pdfrwt beam="2">  1       -2 0.19017846E+00 0.13209806E+04</pdfrwt>
<totfact> 0.25105595E+00</totfact>
</mgrwt>
</event>
<event>
 4    1  0.1998832E-007  0.9924830E+03  0.7818608E-02  0.9391459E-01
          2   -1    0    0  501    0  0.00000000000E+00  0.00000000000E+00  0.17948524535E+04  0.17948524535E+04  0.25500000000E-02 0. -1.
         -2   -1    0    0    0  501 -0.00000000000E+00 -0.00000000000E+00 -0.22812463622E+04  0.22812463623E+04  0.25500000000E-02 0.  1.
    8880023    1    1    2    0    0 -0.50342035067E+03 -0.54569252802E+03 -0.20837328782E+04  0.23080219450E+04  0.65864270000E+03 0.  0.
    8880022    1    1    2    0    0  0.50342035067E+03  0.54569252802E+03  0.15973389694E+04  0.17680768707E+04  0.15294330000E+03 0. -1.
<mgrwt>
<rscale>  0 0.92781931E+03</rscale>
<asrwt>0</asrwt>
<pdfrwt beam="1">  1        2 0.27613115E+00 0.99248304E+03</pdfrwt>
<pdfrwt beam="2">  1       -2 0.35096098E+00 0.99248304E+03</pdfrwt>
<totfact> 0.13553675E-01</totfact>
</mgrwt>
</event>
<event>
 4    1  0.1998832E-007  0.1948748E+04  0.7818608E-02  0.8644431E-01
         -2   -1    0    0    0  501 -0.00000000000E+00  0.00000000000E+00  0.14856165926E+04  0.14856165926E+04  0.25500000000E-02 0.  1.
          2   -1    0    0  501    0  0.00000000000E+00 -0.00000000000E+00 -0.27890397047E+04  0.27890397047E+04  0.25500000000E-02 0. -1.
    8880023    1    1    2    0    0 -0.11881964972E+04 -0.13971392954E+04  0.11337927048E+03  0.19520435937E+04  0.65864270000E+03 0.  0.
    8880022    1    1    2    0    0  0.11881964972E+04  0.13971392954E+04 -0.14168023826E+04  0.23226127036E+04  0.15294330000E+03 0.  0.
<mgrwt>
<rscale>  0 0.19210864E+04</rscale>
<asrwt>0</asrwt>
<pdfrwt beam="1">  1        2 0.42908303E+00 0.19487481E+04</pdfrwt>
<pdfrwt beam="2">  1       -2 0.22855640E+00 0.19487481E+04</pdfrwt>
<totfact> 0.18347382E-01</totfact>
</mgrwt>
</event>
<event>
 4    1  0.1998832E-007  0.6813090E+03  0.7818608E-02  0.1008593E+00
          2   -1    0    0  501    0  0.00000000000E+00  0.00000000000E+00  0.11661120033E+04  0.11661120033E+04  0.25500000000E-02 0. -1.
         -2   -1    0    0    0  501 -0.00000000000E+00 -0.00000000000E+00 -0.24495289331E+03  0.24495289332E+03  0.25500000000E-02 0.  1.
    8880023    1    1    2    0    0 -0.37243974570E+02 -0.17024861711E+03  0.29330053225E+03  0.74175947163E+03  0.65864270000E+03 0.  1.
    8880022    1    1    2    0    0  0.37243974570E+02  0.17024861711E+03  0.62785857771E+03  0.66930542497E+03  0.15294330000E+03 0.  0.
<mgrwt>
<rscale>  0 0.52037794E+03</rscale>
<asrwt>0</asrwt>
<pdfrwt beam="1">  1        2 0.17940184E+00 0.68130897E+03</pdfrwt>
<pdfrwt beam="2">  1       -2 0.37685061E-01 0.68130897E+03</pdfrwt>
<totfact> 0.13434200E+02</totfact>
</mgrwt>
</event>
<event>
 4    1  0.1998832E-007  0.1098675E+04  0.7818608E-02  0.9262533E-01
          2   -1    0    0  501    0  0.00000000000E+00  0.00000000000E+00  0.54298087486E+03  0.54298087487E+03  0.25500000000E-02 0. -1.
         -2   -1    0    0    0  501 -0.00000000000E+00 -0.00000000000E+00 -0.28020466560E+04  0.28020466560E+04  0.25500000000E-02 0.  1.
    8880023    1    1    2    0    0  0.65374602490E+03 -0.58812645532E+03 -0.21895792549E+04  0.24497640932E+04  0.65864270000E+03 0.  1.
    8880022    1    1    2    0    0 -0.65374602490E+03  0.58812645532E+03 -0.69486526236E+02  0.89526343769E+03  0.15294330000E+03 0.  0.
<mgrwt>
<rscale>  0 0.10430656E+04</rscale>
<asrwt>0</asrwt>
<pdfrwt beam="1">  1        2 0.83535521E-01 0.10986750E+04</pdfrwt>
<pdfrwt beam="2">  1       -2 0.43108409E+00 0.10986750E+04</pdfrwt>
<totfact> 0.26055184E-01</totfact>
</mgrwt>
</event>
<event>
 4    1  0.1998832E-007  0.1041612E+04  0.7818608E-02  0.9329034E-01
          2   -1    0    0  501    0  0.00000000000E+00  0.00000000000E+00  0.81288667704E+03  0.81288667704E+03  0.25500000000E-02 0. -1.
         -2   -1    0    0    0  501 -0.00000000000E+00 -0.00000000000E+00 -0.14273518165E+04  0.14273518165E+04  0.25500000000E-02 0.  1.
    8880023    1    1    2    0    0 -0.79690684881E+03  0.12682386520E+03 -0.89401127519E+03  0.13726657222E+04  0.65864270000E+03 0.  1.
    8880022    1    1    2    0    0  0.79690684881E+03 -0.12682386520E+03  0.27954613576E+03  0.86757277130E+03  0.15294330000E+03 0.  0.
<mgrwt>
<rscale>  0 0.98153340E+03</rscale>
<asrwt>0</asrwt>
<pdfrwt beam="1">  1        2 0.12505949E+00 0.10416117E+04</pdfrwt>
<pdfrwt beam="2">  1       -2 0.21959259E+00 0.10416117E+04</pdfrwt>
<totfact> 0.33184326E+00</totfact>
</mgrwt>
</event>
<event>
 4    1  0.1998832E-007  0.9411368E+03  0.7818608E-02  0.9462983E-01
          2   -1    0    0  501    0  0.00000000000E+00  0.00000000000E+00  0.32289956815E+04  0.32289956815E+04  0.25500000000E-02 0. -1.
         -2   -1    0    0    0  501 -0.00000000000E+00 -0.00000000000E+00 -0.30926354907E+03  0.30926354908E+03  0.25500000000E-02 0.  1.
    8880023    1    1    2    0    0  0.19932438049E+03  0.64202655934E+03  0.59499201414E+03  0.11134424164E+04  0.65864270000E+03 0.  1.
    8880022    1    1    2    0    0 -0.19932438049E+03 -0.64202655934E+03  0.23247401183E+04  0.24248168142E+04  0.15294330000E+03 0.  0.
<mgrwt>
<rscale>  0 0.87068855E+03</rscale>
<asrwt>0</asrwt>
<pdfrwt beam="1">  1        2 0.49676859E+00 0.94113682E+03</pdfrwt>
<pdfrwt beam="2">  1       -2 0.47579005E-01 0.94113682E+03</pdfrwt>
<totfact> 0.53953317E+00</totfact>
</mgrwt>
</event>
<event>
 4    1  0.1998832E-007  0.1061698E+04  0.7818608E-02  0.9304949E-01
         -2   -1    0    0    0  501 -0.00000000000E+00  0.00000000000E+00  0.72656517989E+03  0.72656517990E+03  0.25500000000E-02 0.  1.
          2   -1    0    0  501    0  0.00000000000E+00 -0.00000000000E+00 -0.18874190762E+04  0.18874190762E+04  0.25500000000E-02 0. -1.
    8880023    1    1    2    0    0  0.17592564573E+03 -0.81390622594E+03  0.13065860531E+03  0.10697079297E+04  0.65864270000E+03 0. -1.
    8880022    1    1    2    0    0 -0.17592564573E+03  0.81390622594E+03 -0.12915125016E+04  0.15442763264E+04  0.15294330000E+03 0.  1.
<mgrwt>
<rscale>  0 0.10032853E+04</rscale>
<asrwt>0</asrwt>
<pdfrwt beam="1">  1        2 0.29037216E+00 0.10616983E+04</pdfrwt>
<pdfrwt beam="2">  1       -2 0.11177926E+00 0.10616983E+04</pdfrwt>
<totfact> 0.48326797E+00</totfact>
</mgrwt>
</event>
<event>
 4    1  0.1998832E-007  0.1230426E+04  0.7818608E-02  0.9128099E-01
          2   -1    0    0  501    0  0.00000000000E+00  0.00000000000E+00  0.23623139266E+04  0.23623139266E+04  0.25500000000E-02 0. -1.
         -2   -1    0    0    0  501 -0.00000000000E+00 -0.00000000000E+00 -0.10651851139E+04  0.10651851139E+04  0.25500000000E-02 0.  1.
    8880023    1    1    2    0    0 -0.93951953641E+03  0.44434425558E+03  0.18642563741E+04  0.22336966696E+04  0.65864270000E+03 0.  0.
    8880022    1    1    2    0    0  0.93951953641E+03 -0.44434425558E+03 -0.56712756150E+03  0.11938023709E+04  0.15294330000E+03 0.  0.
<mgrwt>
<rscale>  0 0.11827413E+04</rscale>
<asrwt>0</asrwt>
<pdfrwt beam="1">  1        2 0.36343291E+00 0.12304263E+04</pdfrwt>
<pdfrwt beam="2">  1       -2 0.16387463E+00 0.12304263E+04</pdfrwt>
<totfact> 0.95763552E-01</totfact>
</mgrwt>
</event>
<event>
 4    1  0.1998832E-007  0.7019456E+03  0.7818608E-02  0.9989224E-01
          2   -1    0    0  501    0  0.00000000000E+00  0.00000000000E+00  0.10752144973E+04  0.10752144973E+04  0.25500000000E-02 0. -1.
         -2   -1    0    0    0  501 -0.00000000000E+00 -0.00000000000E+00 -0.64466217048E+03  0.64466217048E+03  0.25500000000E-02 0.  1.
    8880023    1    1    2    0    0 -0.90039744763E+02 -0.22541129099E+03 -0.42289895722E+03  0.81949444173E+03  0.65864270000E+03 0.  1.
    8880022    1    1    2    0    0  0.90039744763E+02  0.22541129099E+03  0.85345128401E+03  0.90038222602E+03  0.15294330000E+03 0.  0.
<mgrwt>
<rscale>  0 0.56125283E+03</rscale>
<asrwt>0</asrwt>
<pdfrwt beam="1">  1        2 0.16541761E+00 0.70194559E+03</pdfrwt>
<pdfrwt beam="2">  1       -2 0.99178796E-01 0.70194559E+03</pdfrwt>
<totfact> 0.19447907E+01</totfact>
</mgrwt>
</event>
<event>
 4    1  0.1998832E-007  0.7903116E+03  0.7818608E-02  0.9732150E-01
          2   -1    0    0  501    0  0.00000000000E+00  0.00000000000E+00  0.18559344818E+04  0.18559344818E+04  0.25500000000E-02 0. -1.
         -2   -1    0    0    0  501 -0.00000000000E+00 -0.00000000000E+00 -0.34947184605E+03  0.34947184605E+03  0.25500000000E-02 0.  1.
    8880023    1    1    2    0    0  0.25034755023E+03 -0.35792230817E+03  0.19404699655E+03  0.81378542486E+03  0.65864270000E+03 0.  0.
    8880022    1    1    2    0    0 -0.25034755023E+03  0.35792230817E+03  0.13124156392E+04  0.13916209030E+04  0.15294330000E+03 0.  0.
<mgrwt>
<rscale>  0 0.69134465E+03</rscale>
<asrwt>0</asrwt>
<pdfrwt beam="1">  1        2 0.28552839E+00 0.79031164E+03</pdfrwt>
<pdfrwt beam="2">  1       -2 0.53764899E-01 0.79031164E+03</pdfrwt>
<totfact> 0.26834692E+01</totfact>
</mgrwt>
</event>
<event>
 4    1  0.1998832E-007  0.1019977E+04  0.7818608E-02  0.9355875E-01
         -2   -1    0    0    0  501 -0.00000000000E+00  0.00000000000E+00  0.17454312673E+04  0.17454312673E+04  0.25500000000E-02 0.  1.
          2   -1    0    0  501    0  0.00000000000E+00 -0.00000000000E+00 -0.11745300665E+04  0.11745300665E+04  0.25500000000E-02 0. -1.
    8880023    1    1    2    0    0  0.49525803713E+03  0.60105172335E+03  0.14260341086E+04  0.17532618694E+04  0.65864270000E+03 0.  1.
    8880022    1    1    2    0    0 -0.49525803713E+03 -0.60105172335E+03 -0.85513290771E+03  0.11666994644E+04  0.15294330000E+03 0.  0.
<mgrwt>
<rscale>  0 0.95797662E+03</rscale>
<asrwt>0</asrwt>
<pdfrwt beam="1">  1        2 0.18069693E+00 0.10199774E+04</pdfrwt>
<pdfrwt beam="2">  1       -2 0.26852789E+00 0.10199774E+04</pdfrwt>
<totfact> 0.96742181E-01</totfact>
</mgrwt>
</event>
<event>
 4    1  0.1998832E-007  0.8370491E+03  0.7818608E-02  0.9635770E-01
         -2   -1    0    0    0  501 -0.00000000000E+00  0.00000000000E+00  0.31890548352E+03  0.31890548353E+03  0.25500000000E-02 0.  1.
          2   -1    0    0  501    0  0.00000000000E+00 -0.00000000000E+00 -0.33137516102E+04  0.33137516102E+04  0.25500000000E-02 0. -1.
    8880023    1    1    2    0    0 -0.89075494162E+02  0.50882857736E+03 -0.30734430723E+03  0.89169035783E+03  0.65864270000E+03 0.  1.
    8880022    1    1    2    0    0  0.89075494162E+02 -0.50882857736E+03 -0.26875018194E+04  0.27409667359E+04  0.15294330000E+03 0.  0.
<mgrwt>
<rscale>  0 0.74973273E+03</rscale>
<asrwt>0</asrwt>
<pdfrwt beam="1">  1        2 0.50980792E+00 0.83704909E+03</pdfrwt>
<pdfrwt beam="2">  1       -2 0.49062384E-01 0.83704909E+03</pdfrwt>
<totfact> 0.45445995E+00</totfact>
</mgrwt>
</event>
<event>
 4    1  0.1998832E-007  0.7155594E+03  0.7818608E-02  0.9937908E-01
         -2   -1    0    0    0  501 -0.00000000000E+00  0.00000000000E+00  0.20906589135E+03  0.20906589136E+03  0.25500000000E-02 0.  1.
          2   -1    0    0  501    0  0.00000000000E+00 -0.00000000000E+00 -0.19547210393E+04  0.19547210393E+04  0.25500000000E-02 0. -1.
    8880023    1    1    2    0    0 -0.13853914671E+03  0.24294433581E+03 -0.48740400150E+03  0.86578745222E+03  0.65864270000E+03 0.  1.
    8880022    1    1    2    0    0  0.13853914671E+03 -0.24294433581E+03 -0.12582511464E+04  0.12979994784E+04  0.15294330000E+03 0.  0.
<mgrwt>
<rscale>  0 0.58458755E+03</rscale>
<asrwt>0</asrwt>
<pdfrwt beam="1">  1        2 0.30072630E+00 0.71555940E+03</pdfrwt>
<pdfrwt beam="2">  1       -2 0.32163985E-01 0.71555940E+03</pdfrwt>
<totfact> 0.65703092E+01</totfact>
</mgrwt>
</event>
<event>
 4    1  0.1998832E-007  0.8322186E+03  0.7818608E-02  0.9645031E-01
          2   -1    0    0  501    0  0.00000000000E+00  0.00000000000E+00  0.21611288730E+04  0.21611288730E+04  0.25500000000E-02 0. -1.
         -2   -1    0    0    0  501 -0.00000000000E+00 -0.00000000000E+00 -0.63884243683E+03  0.63884243684E+03  0.25500000000E-02 0.  1.
    8880023    1    1    2    0    0 -0.31526967012E+03  0.39922744892E+03 -0.31317128128E+03  0.88919288040E+03  0.65864270000E+03 0.  1.
    8880022    1    1    2    0    0  0.31526967012E+03 -0.39922744892E+03  0.18354577174E+04  0.19107784294E+04  0.15294330000E+03 0.  0.
<mgrwt>
<rscale>  0 0.74386092E+03</rscale>
<asrwt>0</asrwt>
<pdfrwt beam="1">  1        2 0.33248135E+00 0.83221856E+03</pdfrwt>
<pdfrwt beam="2">  1       -2 0.98283455E-01 0.83221856E+03</pdfrwt>
<totfact> 0.47967554E+00</totfact>
</mgrwt>
</event>
<event>
 4    1  0.2016044E-007  0.1278652E+04  0.7818608E-02  0.9084218E-01
         -2   -1    0    0    0  501 -0.00000000000E+00  0.00000000000E+00  0.13292837896E+04  0.13292837896E+04  0.25500000000E-02 0.  1.
          2   -1    0    0  501    0  0.00000000000E+00 -0.00000000000E+00 -0.21846465628E+04  0.21846465628E+04  0.25500000000E-02 0. -1.
    8880023    1    1    2    0    0  0.10639417428E+04  0.26300066133E+03  0.81059702260E+03  0.15139415838E+04  0.65864270000E+03 0.  1.
    8880022    1    1    2    0    0 -0.10639417428E+04 -0.26300066133E+03 -0.16659597958E+04  0.19999887685E+04  0.15294330000E+03 0.  0.
<mgrwt>
<rscale>  0 0.12332770E+04</rscale>
<asrwt>0</asrwt>
<pdfrwt beam="1">  1        2 0.33609947E+00 0.12786523E+04</pdfrwt>
<pdfrwt beam="2">  1       -2 0.20450520E+00 0.12786523E+04</pdfrwt>
<totfact> 0.63031499E-01</totfact>
</mgrwt>
</event>
<event>
 4    1  0.1998832E-007  0.7671205E+03  0.7818608E-02  0.9787010E-01
          2   -1    0    0  501    0  0.00000000000E+00  0.00000000000E+00  0.23210277445E+04  0.23210277445E+04  0.25500000000E-02 0. -1.
         -2   -1    0    0    0  501 -0.00000000000E+00 -0.00000000000E+00 -0.57988647630E+03  0.57988647630E+03  0.25500000000E-02 0.  1.
    8880023    1    1    2    0    0  0.37168735487E+03 -0.12849969197E+03 -0.29471710721E+03  0.82178588461E+03  0.65864270000E+03 0.  1.
    8880022    1    1    2    0    0 -0.37168735487E+03  0.12849969197E+03  0.20358583754E+04  0.20791283362E+04  0.15294330000E+03 0.  0.
<mgrwt>
<rscale>  0 0.66064334E+03</rscale>
<asrwt>0</asrwt>
<pdfrwt beam="1">  1        2 0.35708119E+00 0.76712050E+03</pdfrwt>
<pdfrwt beam="2">  1       -2 0.89213305E-01 0.76712050E+03</pdfrwt>
<totfact> 0.49540438E+00</totfact>
</mgrwt>
</event>
<event>
 4    1  0.1998832E-007  0.1511944E+04  0.7818608E-02  0.8901248E-01
          2   -1    0    0  501    0  0.00000000000E+00  0.00000000000E+00  0.12666227603E+04  0.12666227603E+04  0.25500000000E-02 0. -1.
         -2   -1    0    0    0  501 -0.00000000000E+00 -0.00000000000E+00 -0.24840187679E+04  0.24840187679E+04  0.25500000000E-02 0.  1.
    8880023    1    1    2    0    0  0.13605931629E+04  0.30837542056E+02  0.46450674556E+03  0.15816894234E+04  0.65864270000E+03 0.  0.
    8880022    1    1    2    0    0 -0.13605931629E+04 -0.30837542056E+02 -0.16819027532E+04  0.21689521049E+04  0.15294330000E+03 0.  0.
<mgrwt>
<rscale>  0 0.14750035E+04</rscale>
<asrwt>0</asrwt>
<pdfrwt beam="1">  1        2 0.19486504E+00 0.15119441E+04</pdfrwt>
<pdfrwt beam="2">  1       -2 0.38215673E+00 0.15119441E+04</pdfrwt>
<totfact> 0.15830360E-01</totfact>
</mgrwt>
</event>
<event>
 4    1  0.1998832E-007  0.1169134E+04  0.7818608E-02  0.9187726E-01
          2   -1    0    0  501    0  0.00000000000E+00  0.00000000000E+00  0.16591521291E+04  0.16591521291E+04  0.25500000000E-02 0. -1.
         -2   -1    0    0    0  501 -0.00000000000E+00 -0.00000000000E+00 -0.73769985681E+03  0.73769985682E+03  0.25500000000E-02 0.  1.
    8880023    1    1    2    0    0  0.52238151323E+03  0.81251559934E+03  0.78777136286E+03  0.14097723117E+04  0.65864270000E+03 0. -1.
    8880022    1    1    2    0    0 -0.52238151323E+03 -0.81251559934E+03  0.13368090938E+03  0.98707967413E+03  0.15294330000E+03 0.  0.
<mgrwt>
<rscale>  0 0.11181017E+04</rscale>
<asrwt>0</asrwt>
<pdfrwt beam="1">  1        2 0.25525417E+00 0.11691340E+04</pdfrwt>
<pdfrwt beam="2">  1       -2 0.11349229E+00 0.11691340E+04</pdfrwt>
<totfact> 0.61590901E+00</totfact>
</mgrwt>
</event>
<event>
 4    1  0.1998832E-007  0.9205703E+03  0.7818608E-02  0.9493785E-01
         -2   -1    0    0    0  501 -0.00000000000E+00  0.00000000000E+00  0.45879657168E+03  0.45879657169E+03  0.25500000000E-02 0.  1.
          2   -1    0    0  501    0  0.00000000000E+00 -0.00000000000E+00 -0.17541286950E+04  0.17541286950E+04  0.25500000000E-02 0. -1.
    8880023    1    1    2    0    0  0.28611497723E+03 -0.57600140364E+03 -0.21335324854E+03  0.94497048214E+03  0.65864270000E+03 0.  0.
    8880022    1    1    2    0    0 -0.28611497723E+03  0.57600140364E+03 -0.10819788748E+04  0.12679547846E+04  0.15294330000E+03 0.  0.
<mgrwt>
<rscale>  0 0.84743567E+03</rscale>
<asrwt>0</asrwt>
<pdfrwt beam="1">  1        2 0.26986595E+00 0.92057026E+03</pdfrwt>
<pdfrwt beam="2">  1       -2 0.70584089E-01 0.92057026E+03</pdfrwt>
<totfact> 0.16841187E+01</totfact>
</mgrwt>
</event>
<event>
 4    1  0.1998832E-007  0.1303092E+04  0.7818608E-02  0.9062894E-01
         -2   -1    0    0    0  501 -0.00000000000E+00  0.00000000000E+00  0.14573073789E+04  0.14573073789E+04  0.25500000000E-02 0.  1.
          2   -1    0    0  501    0  0.00000000000E+00 -0.00000000000E+00 -0.15150686496E+04  0.15150686496E+04  0.25500000000E-02 0. -1.
    8880023    1    1    2    0    0  0.37535788533E+03  0.10598803078E+04  0.81837613983E+03  0.15387623343E+04  0.65864270000E+03 0.  0.
    8880022    1    1    2    0    0 -0.37535788533E+03 -0.10598803078E+04 -0.87613741048E+03  0.14336136942E+04  0.15294330000E+03 0.  0.
<mgrwt>
<rscale>  0 0.12587961E+04</rscale>
<asrwt>0</asrwt>
<pdfrwt beam="1">  1        2 0.23308748E+00 0.13030925E+04</pdfrwt>
<pdfrwt beam="2">  1       -2 0.22420114E+00 0.13030925E+04</pdfrwt>
<totfact> 0.11102947E+00</totfact>
</mgrwt>
</event>
<event>
 4    1  0.1998832E-007  0.7357112E+03  0.7818608E-02  0.9872621E-01
          2   -1    0    0  501    0  0.00000000000E+00  0.00000000000E+00  0.96806615254E+03  0.96806615255E+03  0.25500000000E-02 0. -1.
         -2   -1    0    0    0  501 -0.00000000000E+00 -0.00000000000E+00 -0.54346854849E+03  0.54346854850E+03  0.25500000000E-02 0.  1.
    8880023    1    1    2    0    0  0.28410092878E+03 -0.16354658709E+03 -0.22385162310E+03  0.76901273026E+03  0.65864270000E+03 0.  1.
    8880022    1    1    2    0    0 -0.28410092878E+03  0.16354658709E+03  0.64844922715E+03  0.74252197078E+03  0.15294330000E+03 0.  0.
<mgrwt>
<rscale>  0 0.61606748E+03</rscale>
<asrwt>0</asrwt>
<pdfrwt beam="1">  1        2 0.14893325E+00 0.73571124E+03</pdfrwt>
<pdfrwt beam="2">  1       -2 0.83610546E-01 0.73571124E+03</pdfrwt>
<totfact> 0.33611293E+01</totfact>
</mgrwt>
</event>
<event>
 4    1  0.1998832E-007  0.7065229E+03  0.7818608E-02  0.9971147E-01
          2   -1    0    0  501    0  0.00000000000E+00  0.00000000000E+00  0.37142918321E+03  0.37142918322E+03  0.25500000000E-02 0. -1.
         -2   -1    0    0    0  501 -0.00000000000E+00 -0.00000000000E+00 -0.13733179718E+04  0.13733179718E+04  0.25500000000E-02 0.  1.
    8880023    1    1    2    0    0  0.13182674712E+03 -0.21905716292E+03 -0.11960518351E+04  0.13891416524E+04  0.65864270000E+03 0.  0.
    8880022    1    1    2    0    0 -0.13182674712E+03  0.21905716292E+03  0.19416304648E+03  0.35560550265E+03  0.15294330000E+03 0.  0.
<mgrwt>
<rscale>  0 0.56933694E+03</rscale>
<asrwt>0</asrwt>
<pdfrwt beam="1">  1        2 0.57142952E-01 0.70652285E+03</pdfrwt>
<pdfrwt beam="2">  1       -2 0.21127969E+00 0.70652285E+03</pdfrwt>
<totfact> 0.99545289E+00</totfact>
</mgrwt>
</event>
<event>
 4    1  0.1998832E-007  0.7359990E+03  0.7818608E-02  0.9871759E-01
         -2   -1    0    0    0  501 -0.00000000000E+00  0.00000000000E+00  0.10282306156E+04  0.10282306156E+04  0.25500000000E-02 0.  1.
          2   -1    0    0  501    0  0.00000000000E+00 -0.00000000000E+00 -0.97118240139E+03  0.97118240139E+03  0.25500000000E-02 0. -1.
    8880023    1    1    2    0    0 -0.32400456322E+03 -0.53901425134E+02  0.85194547965E+03  0.11258355240E+04  0.65864270000E+03 0.  0.
    8880022    1    1    2    0    0  0.32400456322E+03  0.53901425134E+02 -0.79489726543E+03  0.87357749297E+03  0.15294330000E+03 0.  0.
<mgrwt>
<rscale>  0 0.61649715E+03</rscale>
<asrwt>0</asrwt>
<pdfrwt beam="1">  1        2 0.14941268E+00 0.73599900E+03</pdfrwt>
<pdfrwt beam="2">  1       -2 0.15818933E+00 0.73599900E+03</pdfrwt>
<totfact> 0.69722243E+00</totfact>
</mgrwt>
</event>
<event>
 4    1  0.1998832E-007  0.1168287E+04  0.7818608E-02  0.9188583E-01
          2   -1    0    0  501    0  0.00000000000E+00  0.00000000000E+00  0.14897747830E+04  0.14897747830E+04  0.25500000000E-02 0. -1.
         -2   -1    0    0    0  501 -0.00000000000E+00 -0.00000000000E+00 -0.85990709554E+03  0.85990709554E+03  0.25500000000E-02 0.  1.
    8880023    1    1    2    0    0 -0.79938978112E+03  0.54042655303E+03 -0.33518414914E+02  0.11687679718E+04  0.65864270000E+03 0.  0.
    8880022    1    1    2    0    0  0.79938978112E+03 -0.54042655303E+03  0.66338610235E+03  0.11809139068E+04  0.15294330000E+03 0.  0.
<mgrwt>
<rscale>  0 0.11172050E+04</rscale>
<asrwt>0</asrwt>
<pdfrwt beam="1">  1        2 0.22919612E+00 0.11682872E+04</pdfrwt>
<pdfrwt beam="2">  1       -2 0.13229340E+00 0.11682872E+04</pdfrwt>
<totfact> 0.52186083E+00</totfact>
</mgrwt>
</event>
<event>
 4    1  0.1998832E-007  0.8456259E+03  0.7818608E-02  0.9619662E-01
         -2   -1    0    0    0  501 -0.00000000000E+00  0.00000000000E+00  0.31490027617E+03  0.31490027618E+03  0.25500000000E-02 0.  1.
          2   -1    0    0  501    0  0.00000000000E+00 -0.00000000000E+00 -0.16541420950E+04  0.16541420950E+04  0.25500000000E-02 0. -1.
    8880023    1    1    2    0    0  0.20112051469E+03 -0.49073771902E+03 -0.56046722577E+03  0.10144982443E+04  0.65864270000E+03 0.  0.
    8880022    1    1    2    0    0 -0.20112051469E+03  0.49073771902E+03 -0.77877459304E+03  0.95454412683E+03  0.15294330000E+03 0.  0.
<mgrwt>
<rscale>  0 0.76008378E+03</rscale>
<asrwt>0</asrwt>
<pdfrwt beam="1">  1        2 0.25448339E+00 0.84562591E+03</pdfrwt>
<pdfrwt beam="2">  1       -2 0.48446197E-01 0.84562591E+03</pdfrwt>
<totfact> 0.42579130E+01</totfact>
</mgrwt>
</event>
<event>
 4    1  0.1998832E-007  0.6646881E+03  0.7818608E-02  0.1019797E+00
         -2   -1    0    0    0  501 -0.00000000000E+00  0.00000000000E+00  0.45963296072E+03  0.45963296072E+03  0.25500000000E-02 0.  1.
          2   -1    0    0  501    0  0.00000000000E+00 -0.00000000000E+00 -0.89657936798E+03  0.89657936799E+03  0.25500000000E-02 0. -1.
    8880023    1    1    2    0    0  0.89121835830E+02  0.75739890429E+01  0.20076440321E+03  0.69434618080E+03  0.65864270000E+03 0.  1.
    8880022    1    1    2    0    0 -0.89121835830E+02 -0.75739890429E+01 -0.63771081048E+03  0.66186614791E+03  0.15294330000E+03 0.  0.
<mgrwt>
<rscale>  0 0.47760110E+03</rscale>
<asrwt>0</asrwt>
<pdfrwt beam="1">  1        2 0.13793529E+00 0.66468810E+03</pdfrwt>
<pdfrwt beam="2">  1       -2 0.70712764E-01 0.66468810E+03</pdfrwt>
<totfact> 0.54767463E+01</totfact>
</mgrwt>
</event>
<event>
 4    1  0.1998832E-007  0.8322914E+03  0.7818608E-02  0.9644890E-01
          2   -1    0    0  501    0  0.00000000000E+00  0.00000000000E+00  0.81896111970E+03  0.81896111970E+03  0.25500000000E-02 0. -1.
         -2   -1    0    0    0  501 -0.00000000000E+00 -0.00000000000E+00 -0.11178692189E+04  0.11178692189E+04  0.25500000000E-02 0.  1.
    8880023    1    1    2    0    0  0.49086769731E+03 -0.13396864282E+03 -0.83718429662E+03  0.11805026244E+04  0.65864270000E+03 0.  1.
    8880022    1    1    2    0    0 -0.49086769731E+03  0.13396864282E+03  0.53827619741E+03  0.75632771418E+03  0.15294330000E+03 0.  0.
<mgrwt>
<rscale>  0 0.74394965E+03</rscale>
<asrwt>0</asrwt>
<pdfrwt beam="1">  1        2 0.12599402E+00 0.83229136E+03</pdfrwt>
<pdfrwt beam="2">  1       -2 0.17197988E+00 0.83229136E+03</pdfrwt>
<totfact> 0.69477534E+00</totfact>
</mgrwt>
</event>
<event>
 4    1  0.1998832E-007  0.9648036E+03  0.7818608E-02  0.9429127E-01
          2   -1    0    0  501    0  0.00000000000E+00  0.00000000000E+00  0.25913552296E+04  0.25913552296E+04  0.25500000000E-02 0. -1.
         -2   -1    0    0    0  501 -0.00000000000E+00 -0.00000000000E+00 -0.42136542695E+03  0.42136542695E+03  0.25500000000E-02 0.  1.
    8880023    1    1    2    0    0 -0.33653765059E+03  0.61949831289E+03  0.30309853986E+03  0.10112935682E+04  0.65864270000E+03 0.  0.
    8880022    1    1    2    0    0  0.33653765059E+03 -0.61949831289E+03  0.18668912628E+04  0.20014270884E+04  0.15294330000E+03 0. -1.
<mgrwt>
<rscale>  0 0.89716888E+03</rscale>
<asrwt>0</asrwt>
<pdfrwt beam="1">  1        2 0.39867004E+00 0.96480358E+03</pdfrwt>
<pdfrwt beam="2">  1       -2 0.64825449E-01 0.96480358E+03</pdfrwt>
<totfact> 0.68826351E+00</totfact>
</mgrwt>
</event>
<event>
 4    1  0.1998832E-007  0.1247208E+04  0.7818608E-02  0.9112545E-01
         -2   -1    0    0    0  501 -0.00000000000E+00  0.00000000000E+00  0.42618697748E+03  0.42618697748E+03  0.25500000000E-02 0.  1.
          2   -1    0    0  501    0  0.00000000000E+00 -0.00000000000E+00 -0.50279303811E+04  0.50279303811E+04  0.25500000000E-02 0. -1.
    8880023    1    1    2    0    0  0.81244476541E+03 -0.67944883509E+03 -0.74745090981E+03  0.14540324223E+04  0.65864270000E+03 0.  1.
    8880022    1    1    2    0    0 -0.81244476541E+03  0.67944883509E+03 -0.38542924938E+04  0.40000849362E+04  0.15294330000E+03 0.  0.
<mgrwt>
<rscale>  0 0.12003557E+04</rscale>
<asrwt>0</asrwt>
<pdfrwt beam="1">  1        2 0.77352771E+00 0.12472079E+04</pdfrwt>
<pdfrwt beam="2">  1       -2 0.65567231E-01 0.12472079E+04</pdfrwt>
<totfact> 0.71075260E-02</totfact>
</mgrwt>
</event>
<event>
 4    1  0.1998832E-007  0.7818356E+03  0.7818608E-02  0.9751543E-01
         -2   -1    0    0    0  501 -0.00000000000E+00  0.00000000000E+00  0.24630502992E+04  0.24630502993E+04  0.25500000000E-02 0.  1.
          2   -1    0    0  501    0  0.00000000000E+00 -0.00000000000E+00 -0.22131581933E+03  0.22131581935E+03  0.25500000000E-02 0. -1.
    8880023    1    1    2    0    0 -0.10597508969E+02  0.42112286213E+03  0.60840602421E+03  0.99066889966E+03  0.65864270000E+03 0.  0.
    8880022    1    1    2    0    0  0.10597508969E+02 -0.42112286213E+03  0.16333284557E+04  0.16936972189E+04  0.15294330000E+03 0.  0.
<mgrwt>
<rscale>  0 0.68029167E+03</rscale>
<asrwt>0</asrwt>
<pdfrwt beam="1">  1        2 0.34048584E-01 0.78183565E+03</pdfrwt>
<pdfrwt beam="2">  1       -2 0.37893086E+00 0.78183565E+03</pdfrwt>
<totfact> 0.16513709E+00</totfact>
</mgrwt>
</event>
<event>
 4    1  0.1998832E-007  0.1310503E+04  0.7818608E-02  0.9056542E-01
         -2   -1    0    0    0  501 -0.00000000000E+00  0.00000000000E+00  0.12811975532E+04  0.12811975532E+04  0.25500000000E-02 0.  1.
          2   -1    0    0  501    0  0.00000000000E+00 -0.00000000000E+00 -0.25273382906E+04  0.25273382906E+04  0.25500000000E-02 0. -1.
    8880023    1    1    2    0    0  0.23227120563E+03 -0.11088999151E+04  0.74871900304E+03  0.15093042392E+04  0.65864270000E+03 0.  1.
    8880022    1    1    2    0    0 -0.23227120563E+03  0.11088999151E+04 -0.19948597405E+04  0.22992316046E+04  0.15294330000E+03 0.  0.
<mgrwt>
<rscale>  0 0.12665230E+04</rscale>
<asrwt>0</asrwt>
<pdfrwt beam="1">  1        2 0.38882127E+00 0.13105034E+04</pdfrwt>
<pdfrwt beam="2">  1       -2 0.19710732E+00 0.13105034E+04</pdfrwt>
<totfact> 0.44850139E-01</totfact>
</mgrwt>
</event>
<event>
 4    1  0.1998832E-007  0.1064961E+04  0.7818608E-02  0.9301109E-01
         -2   -1    0    0    0  501 -0.00000000000E+00  0.00000000000E+00  0.12340878176E+04  0.12340878176E+04  0.25500000000E-02 0.  1.
          2   -1    0    0  501    0  0.00000000000E+00 -0.00000000000E+00 -0.98567836275E+03  0.98567836275E+03  0.25500000000E-02 0. -1.
    8880023    1    1    2    0    0  0.83185324608E+03 -0.91388621934E+02 -0.41294199610E+03  0.11422184562E+04  0.65864270000E+03 0. -1.
    8880022    1    1    2    0    0 -0.83185324608E+03  0.91388621934E+02  0.66135145099E+03  0.10775477242E+04  0.15294330000E+03 0.  0.
<mgrwt>
<rscale>  0 0.10068084E+04</rscale>
<asrwt>0</asrwt>
<pdfrwt beam="1">  1        2 0.15164283E+00 0.10649610E+04</pdfrwt>
<pdfrwt beam="2">  1       -2 0.18985966E+00 0.10649610E+04</pdfrwt>
<totfact> 0.39374654E+00</totfact>
</mgrwt>
</event>
<event>
 4    1  0.1998832E-007  0.8018701E+03  0.7818608E-02  0.9706767E-01
          2   -1    0    0  501    0  0.00000000000E+00  0.00000000000E+00  0.15343490095E+04  0.15343490095E+04  0.25500000000E-02 0. -1.
         -2   -1    0    0    0  501 -0.00000000000E+00 -0.00000000000E+00 -0.53264147548E+03  0.53264147548E+03  0.25500000000E-02 0.  1.
    8880023    1    1    2    0    0  0.42618869721E+03  0.16597789058E+03 -0.15235523392E+03  0.81621552874E+03  0.65864270000E+03 0.  0.
    8880022    1    1    2    0    0 -0.42618869721E+03 -0.16597789058E+03  0.11540627679E+04  0.12507749562E+04  0.15294330000E+03 0.  0.
<mgrwt>
<rscale>  0 0.70615314E+03</rscale>
<asrwt>0</asrwt>
<pdfrwt beam="1">  1        2 0.23605369E+00 0.80187011E+03</pdfrwt>
<pdfrwt beam="2">  1       -2 0.81944843E-01 0.80187011E+03</pdfrwt>
<totfact> 0.16186662E+01</totfact>
</mgrwt>
</event>
<event>
 4    1  0.1998832E-007  0.7269403E+03  0.7818608E-02  0.9899766E-01
         -2   -1    0    0    0  501 -0.00000000000E+00  0.00000000000E+00  0.68395555588E+03  0.68395555588E+03  0.25500000000E-02 0.  1.
          2   -1    0    0  501    0  0.00000000000E+00 -0.00000000000E+00 -0.28787877463E+04  0.28787877463E+04  0.25500000000E-02 0. -1.
    8880023    1    1    2    0    0  0.28588560633E+03 -0.11358466996E+03  0.47664222128E+03  0.86926984908E+03  0.65864270000E+03 0.  1.
    8880022    1    1    2    0    0 -0.28588560633E+03  0.11358466996E+03 -0.26714744117E+04  0.26934734531E+04  0.15294330000E+03 0.  0.
<mgrwt>
<rscale>  0 0.60272643E+03</rscale>
<asrwt>0</asrwt>
<pdfrwt beam="1">  1        2 0.44289041E+00 0.72694034E+03</pdfrwt>
<pdfrwt beam="2">  1       -2 0.10522393E+00 0.72694034E+03</pdfrwt>
<totfact> 0.16180225E+00</totfact>
</mgrwt>
</event>
<event>
 4    1  0.1998832E-007  0.8474521E+03  0.7818608E-02  0.9616286E-01
          2   -1    0    0  501    0  0.00000000000E+00  0.00000000000E+00  0.11694368389E+04  0.11694368389E+04  0.25500000000E-02 0. -1.
         -2   -1    0    0    0  501 -0.00000000000E+00 -0.00000000000E+00 -0.49233630204E+03  0.49233630205E+03  0.25500000000E-02 0.  1.
    8880023    1    1    2    0    0  0.52210416361E+03 -0.10849913653E+03  0.87089211211E+02  0.85191522891E+03  0.65864270000E+03 0.  0.
    8880022    1    1    2    0    0 -0.52210416361E+03  0.10849913653E+03  0.59001132564E+03  0.80985791203E+03  0.15294330000E+03 0.  0.
<mgrwt>
<rscale>  0 0.76227603E+03</rscale>
<asrwt>0</asrwt>
<pdfrwt beam="1">  1        2 0.17991336E+00 0.84745208E+03</pdfrwt>
<pdfrwt beam="2">  1       -2 0.75744046E-01 0.84745208E+03</pdfrwt>
<totfact> 0.31136717E+01</totfact>
</mgrwt>
</event>
<event>
 4    1  0.1998832E-007  0.1145163E+04  0.7818608E-02  0.9212363E-01
          2   -1    0    0  501    0  0.00000000000E+00  0.00000000000E+00  0.10078416326E+04  0.10078416326E+04  0.25500000000E-02 0. -1.
         -2   -1    0    0    0  501 -0.00000000000E+00 -0.00000000000E+00 -0.16545095660E+04  0.16545095660E+04  0.25500000000E-02 0.  1.
    8880023    1    1    2    0    0 -0.51276596057E+03 -0.78400248512E+03 -0.11198853417E+04  0.16017310048E+04  0.65864270000E+03 0.  0.
    8880022    1    1    2    0    0  0.51276596057E+03  0.78400248512E+03  0.47321740832E+03  0.10606201938E+04  0.15294330000E+03 0.  0.
<mgrwt>
<rscale>  0 0.10926725E+04</rscale>
<asrwt>0</asrwt>
<pdfrwt beam="1">  1        2 0.15505256E+00 0.11451633E+04</pdfrwt>
<pdfrwt beam="2">  1       -2 0.25453993E+00 0.11451633E+04</pdfrwt>
<totfact> 0.14708078E+00</totfact>
</mgrwt>
</event>
<event>
 4    1  0.1998832E-007  0.1280289E+04  0.7818608E-02  0.9082771E-01
          2   -1    0    0  501    0  0.00000000000E+00  0.00000000000E+00  0.18249622370E+04  0.18249622370E+04  0.25500000000E-02 0. -1.
         -2   -1    0    0    0  501 -0.00000000000E+00 -0.00000000000E+00 -0.12645479367E+04  0.12645479367E+04  0.25500000000E-02 0.  1.
    8880023    1    1    2    0    0  0.66091531581E+03  0.87665341010E+03 -0.66036551635E+03  0.14405634584E+04  0.65864270000E+03 0.  0.
    8880022    1    1    2    0    0 -0.66091531581E+03 -0.87665341010E+03  0.12207798167E+04  0.16489467153E+04  0.15294330000E+03 0.  0.
<mgrwt>
<rscale>  0 0.12349881E+04</rscale>
<asrwt>0</asrwt>
<pdfrwt beam="1">  1        2 0.28076342E+00 0.12802892E+04</pdfrwt>
<pdfrwt beam="2">  1       -2 0.19454584E+00 0.12802892E+04</pdfrwt>
<totfact> 0.11615541E+00</totfact>
</mgrwt>
</event>
<event>
 4    1  0.6078981E-007  0.1171066E+04  0.7818608E-02  0.9185775E-01
          2   -1    0    0  501    0  0.00000000000E+00  0.00000000000E+00  0.39617776979E+04  0.39617776979E+04  0.25500000000E-02 0. -1.
         -2   -1    0    0    0  501 -0.00000000000E+00 -0.00000000000E+00 -0.14778551717E+04  0.14778551717E+04  0.25500000000E-02 0.  1.
    8880023    1    1    2    0    0 -0.41828653399E+02  0.96738546831E+03 -0.11706649925E+04  0.16558535598E+04  0.65864270000E+03 0.  1.
    8880022    1    1    2    0    0  0.41828653399E+02 -0.96738546831E+03  0.36545875187E+04  0.37837793098E+04  0.15294330000E+03 0.  0.
<mgrwt>
<rscale>  0 0.11201469E+04</rscale>
<asrwt>0</asrwt>
<pdfrwt beam="1">  1        2 0.60950426E+00 0.11710655E+04</pdfrwt>
<pdfrwt beam="2">  1       -2 0.22736233E+00 0.11710655E+04</pdfrwt>
<totfact> 0.32978770E-02</totfact>
</mgrwt>
</event>
<event>
 4    1  0.1998832E-007  0.9559012E+03  0.7818608E-02  0.9441674E-01
         -2   -1    0    0    0  501 -0.00000000000E+00  0.00000000000E+00  0.39249489597E+03  0.39249489598E+03  0.25500000000E-02 0.  1.
          2   -1    0    0  501    0  0.00000000000E+00 -0.00000000000E+00 -0.23777172635E+04  0.23777172635E+04  0.25500000000E-02 0. -1.
    8880023    1    1    2    0    0 -0.64583709642E+03  0.25066189920E+03 -0.17982540930E+04  0.20365325758E+04  0.65864270000E+03 0.  0.
    8880022    1    1    2    0    0  0.64583709642E+03 -0.25066189920E+03 -0.18696827447E+03  0.73367958368E+03  0.15294330000E+03 0.  0.
<mgrwt>
<rscale>  0 0.88724021E+03</rscale>
<asrwt>0</asrwt>
<pdfrwt beam="1">  1        2 0.36580265E+00 0.95590122E+03</pdfrwt>
<pdfrwt beam="2">  1       -2 0.60383831E-01 0.95590122E+03</pdfrwt>
<totfact> 0.10617439E+01</totfact>
</mgrwt>
</event>
<event>
 4    1  0.1998832E-007  0.9082261E+03  0.7818608E-02  0.9512953E-01
          2   -1    0    0  501    0  0.00000000000E+00  0.00000000000E+00  0.20599451002E+04  0.20599451002E+04  0.25500000000E-02 0. -1.
         -2   -1    0    0    0  501 -0.00000000000E+00 -0.00000000000E+00 -0.59592401376E+03  0.59592401377E+03  0.25500000000E-02 0.  1.
    8880023    1    1    2    0    0 -0.62158429709E+03  0.68537026512E+02 -0.14785706189E+03  0.92018274240E+03  0.65864270000E+03 0.  1.
    8880022    1    1    2    0    0  0.62158429709E+03 -0.68537026512E+02  0.16118781484E+04  0.17356863716E+04  0.15294330000E+03 0.  0.
<mgrwt>
<rscale>  0 0.83335544E+03</rscale>
<asrwt>0</asrwt>
<pdfrwt beam="1">  1        2 0.31691463E+00 0.90822606E+03</pdfrwt>
<pdfrwt beam="2">  1       -2 0.91680618E-01 0.90822606E+03</pdfrwt>
<totfact> 0.63492994E+00</totfact>
</mgrwt>
</event>
<event>
 4    1  0.1998832E-007  0.9604174E+03  0.7818608E-02  0.9435281E-01
          2   -1    0    0  501    0  0.00000000000E+00  0.00000000000E+00  0.12574090445E+04  0.12574090445E+04  0.25500000000E-02 0. -1.
         -2   -1    0    0    0  501 -0.00000000000E+00 -0.00000000000E+00 -0.97112104708E+03  0.97112104708E+03  0.25500000000E-02 0.  1.
    8880023    1    1    2    0    0 -0.48328772206E+03  0.50499944086E+03 -0.56671851856E+03  0.11151553897E+04  0.65864270000E+03 0.  1.
    8880022    1    1    2    0    0  0.48328772206E+03 -0.50499944086E+03  0.85300651596E+03  0.11133747019E+04  0.15294330000E+03 0.  0.
<mgrwt>
<rscale>  0 0.89228169E+03</rscale>
<asrwt>0</asrwt>
<pdfrwt beam="1">  1        2 0.19344755E+00 0.96041744E+03</pdfrwt>
<pdfrwt beam="2">  1       -2 0.14940324E+00 0.96041744E+03</pdfrwt>
<totfact> 0.52798581E+00</totfact>
</mgrwt>
</event>
<event>
 4    1  0.1998832E-007  0.1092372E+04  0.7818608E-02  0.9269597E-01
          2   -1    0    0  501    0  0.00000000000E+00  0.00000000000E+00  0.21301264704E+04  0.21301264704E+04  0.25500000000E-02 0. -1.
         -2   -1    0    0    0  501 -0.00000000000E+00 -0.00000000000E+00 -0.52976761344E+03  0.52976761345E+03  0.25500000000E-02 0.  1.
    8880023    1    1    2    0    0  0.83659823653E+03 -0.24407023436E+03  0.13573837638E+04  0.17423454816E+04  0.65864270000E+03 0.  0.
    8880022    1    1    2    0    0 -0.83659823653E+03  0.24407023436E+03  0.24297509316E+03  0.91754860229E+03  0.15294330000E+03 0.  0.
<mgrwt>
<rscale>  0 0.10363069E+04</rscale>
<asrwt>0</asrwt>
<pdfrwt beam="1">  1        2 0.32771176E+00 0.10923722E+04</pdfrwt>
<pdfrwt beam="2">  1       -2 0.81502711E-01 0.10923722E+04</pdfrwt>
<totfact> 0.74423333E+00</totfact>
</mgrwt>
</event>
<event>
 4    1  0.1998832E-007  0.8196319E+03  0.7818608E-02  0.9669853E-01
         -2   -1    0    0    0  501 -0.00000000000E+00  0.00000000000E+00  0.37001215055E+03  0.37001215056E+03  0.25500000000E-02 0.  1.
          2   -1    0    0  501    0  0.00000000000E+00 -0.00000000000E+00 -0.26596903291E+04  0.26596903291E+04  0.25500000000E-02 0. -1.
    8880023    1    1    2    0    0 -0.21607998188E+03 -0.43737365410E+03 -0.15436865872E+03  0.83404206184E+03  0.65864270000E+03 0.  0.
    8880022    1    1    2    0    0  0.21607998188E+03  0.43737365410E+03 -0.21353095198E+04  0.21956604178E+04  0.15294330000E+03 0.  0.
<mgrwt>
<rscale>  0 0.72840473E+03</rscale>
<asrwt>0</asrwt>
<pdfrwt beam="1">  1        2 0.40918311E+00 0.81963192E+03</pdfrwt>
<pdfrwt beam="2">  1       -2 0.56924948E-01 0.81963192E+03</pdfrwt>
<totfact> 0.84564571E+00</totfact>
</mgrwt>
</event>
<event>
 4    1  0.1998832E-007  0.8084260E+03  0.7818608E-02  0.9692865E-01
         -2   -1    0    0    0  501 -0.00000000000E+00  0.00000000000E+00  0.81931982991E+03  0.81931982992E+03  0.25500000000E-02 0.  1.
          2   -1    0    0  501    0  0.00000000000E+00 -0.00000000000E+00 -0.67386345253E+03  0.67386345253E+03  0.25500000000E-02 0. -1.
    8880023    1    1    2    0    0  0.32674733793E+02  0.46762664030E+03  0.43839658683E+03  0.91964345622E+03  0.65864270000E+03 0.  0.
    8880022    1    1    2    0    0 -0.32674733793E+02 -0.46762664030E+03 -0.29294020944E+03  0.57353982623E+03  0.15294330000E+03 0.  0.
<mgrwt>
<rscale>  0 0.71443198E+03</rscale>
<asrwt>0</asrwt>
<pdfrwt beam="1">  1        2 0.10367130E+00 0.80842595E+03</pdfrwt>
<pdfrwt beam="2">  1       -2 0.12604920E+00 0.80842595E+03</pdfrwt>
<totfact> 0.20354193E+01</totfact>
</mgrwt>
</event>
<event>
 4    1  0.1998832E-007  0.7650373E+03  0.7818608E-02  0.9792237E-01
         -2   -1    0    0    0  501 -0.00000000000E+00  0.00000000000E+00  0.72254568928E+03  0.72254568928E+03  0.25500000000E-02 0.  1.
          2   -1    0    0  501    0  0.00000000000E+00 -0.00000000000E+00 -0.21777655795E+04  0.21777655795E+04  0.25500000000E-02 0. -1.
    8880023    1    1    2    0    0  0.10527357088E+02 -0.38905144709E+03  0.49141450291E+03  0.90926908760E+03  0.65864270000E+03 0.  1.
    8880022    1    1    2    0    0 -0.10527357088E+02  0.38905144709E+03 -0.19466343932E+04  0.19910421812E+04  0.15294330000E+03 0.  0.
<mgrwt>
<rscale>  0 0.65780831E+03</rscale>
<asrwt>0</asrwt>
<pdfrwt beam="1">  1        2 0.33504086E+00 0.76503729E+03</pdfrwt>
<pdfrwt beam="2">  1       -2 0.11116088E+00 0.76503729E+03</pdfrwt>
<totfact> 0.35342994E+00</totfact>
</mgrwt>
</event>
<event>
 4    1  0.1998832E-007  0.9179358E+03  0.7818608E-02  0.9497831E-01
          2   -1    0    0  501    0  0.00000000000E+00  0.00000000000E+00  0.13191215884E+04  0.13191215884E+04  0.25500000000E-02 0. -1.
         -2   -1    0    0    0  501 -0.00000000000E+00 -0.00000000000E+00 -0.59379202466E+03  0.59379202467E+03  0.25500000000E-02 0.  1.
    8880023    1    1    2    0    0  0.63893110777E+03  0.23725120256E+02 -0.21200012732E+02  0.91818053160E+03  0.65864270000E+03 0.  0.
    8880022    1    1    2    0    0 -0.63893110777E+03 -0.23725120256E+02  0.74652957648E+03  0.99473308148E+03  0.15294330000E+03 0.  0.
<mgrwt>
<rscale>  0 0.84443892E+03</rscale>
<asrwt>0</asrwt>
<pdfrwt beam="1">  1        2 0.20294178E+00 0.91793575E+03</pdfrwt>
<pdfrwt beam="2">  1       -2 0.91352620E-01 0.91793575E+03</pdfrwt>
<totfact> 0.16496755E+01</totfact>
</mgrwt>
</event>
<event>
 4    1  0.1998832E-007  0.7260111E+03  0.7818608E-02  0.9902748E-01
         -2   -1    0    0    0  501 -0.00000000000E+00  0.00000000000E+00  0.16421810557E+04  0.16421810557E+04  0.25500000000E-02 0.  1.
          2   -1    0    0  501    0  0.00000000000E+00 -0.00000000000E+00 -0.96380155704E+03  0.96380155705E+03  0.25500000000E-02 0. -1.
    8880023    1    1    2    0    0 -0.24160165780E+03  0.18684350874E+03  0.15272149215E+04  0.16909989594E+04  0.65864270000E+03 0.  1.
    8880022    1    1    2    0    0  0.24160165780E+03 -0.18684350874E+03 -0.84883542287E+03  0.91498365337E+03  0.15294330000E+03 0.  0.
<mgrwt>
<rscale>  0 0.60128305E+03</rscale>
<asrwt>0</asrwt>
<pdfrwt beam="1">  1        2 0.14827716E+00 0.72601106E+03</pdfrwt>
<pdfrwt beam="2">  1       -2 0.25264324E+00 0.72601106E+03</pdfrwt>
<totfact> 0.17091333E+00</totfact>
</mgrwt>
</event>
<event>
 4    1  0.1998832E-007  0.7050834E+03  0.7818608E-02  0.9976732E-01
         -2   -1    0    0    0  501 -0.00000000000E+00  0.00000000000E+00  0.10380842973E+04  0.10380842973E+04  0.25500000000E-02 0.  1.
          2   -1    0    0  501    0  0.00000000000E+00 -0.00000000000E+00 -0.47526567560E+03  0.47526567561E+03  0.25500000000E-02 0. -1.
    8880023    1    1    2    0    0  0.24126705482E+03 -0.71572834098E+02  0.84839055221E+03  0.11031360740E+04  0.65864270000E+03 0.  1.
    8880022    1    1    2    0    0 -0.24126705482E+03  0.71572834098E+02 -0.28557193056E+03  0.41021389891E+03  0.15294330000E+03 0.  0.
<mgrwt>
<rscale>  0 0.56682354E+03</rscale>
<asrwt>0</asrwt>
<pdfrwt beam="1">  1        2 0.73117796E-01 0.70508345E+03</pdfrwt>
<pdfrwt beam="2">  1       -2 0.15970528E+00 0.70508345E+03</pdfrwt>
<totfact> 0.16840617E+01</totfact>
</mgrwt>
</event>
<event>
 4    1  0.1998832E-007  0.1351607E+04  0.7818608E-02  0.9022228E-01
          2   -1    0    0  501    0  0.00000000000E+00  0.00000000000E+00  0.11232655545E+04  0.11232655545E+04  0.25500000000E-02 0. -1.
         -2   -1    0    0    0  501 -0.00000000000E+00 -0.00000000000E+00 -0.20306683275E+04  0.20306683275E+04  0.25500000000E-02 0.  1.
    8880023    1    1    2    0    0 -0.55863932234E+03  0.10396885689E+04 -0.13249231900E+04  0.18926864184E+04  0.65864270000E+03 0.  0.
    8880022    1    1    2    0    0  0.55863932234E+03 -0.10396885689E+04  0.41752041700E+03  0.12612474636E+04  0.15294330000E+03 0.  0.
<mgrwt>
<rscale>  0 0.13092929E+04</rscale>
<asrwt>0</asrwt>
<pdfrwt beam="1">  1        2 0.17281009E+00 0.13516066E+04</pdfrwt>
<pdfrwt beam="2">  1       -2 0.31241051E+00 0.13516066E+04</pdfrwt>
<totfact> 0.54020800E-01</totfact>
</mgrwt>
</event>
<event>
 4    1  0.1998832E-007  0.1305837E+04  0.7818608E-02  0.9060536E-01
          2   -1    0    0  501    0  0.00000000000E+00  0.00000000000E+00  0.18966147306E+04  0.18966147306E+04  0.25500000000E-02 0. -1.
         -2   -1    0    0    0  501 -0.00000000000E+00 -0.00000000000E+00 -0.13970154813E+04  0.13970154813E+04  0.25500000000E-02 0.  1.
    8880023    1    1    2    0    0 -0.36398204229E+03 -0.10672006604E+04 -0.82714548658E+03  0.15457619606E+04  0.65864270000E+03 0.  0.
    8880022    1    1    2    0    0  0.36398204229E+03  0.10672006604E+04  0.13267447359E+04  0.17478682513E+04  0.15294330000E+03 0. -1.
<mgrwt>
<rscale>  0 0.12616583E+04</rscale>
<asrwt>0</asrwt>
<pdfrwt beam="1">  1        2 0.29178688E+00 0.13058370E+04</pdfrwt>
<pdfrwt beam="2">  1       -2 0.21492546E+00 0.13058370E+04</pdfrwt>
<totfact> 0.77837284E-01</totfact>
</mgrwt>
</event>
<event>
 4    1  0.1998832E-007  0.9654371E+03  0.7818608E-02  0.9428243E-01
          2   -1    0    0  501    0  0.00000000000E+00  0.00000000000E+00  0.90714206479E+03  0.90714206480E+03  0.25500000000E-02 0. -1.
         -2   -1    0    0    0  501 -0.00000000000E+00 -0.00000000000E+00 -0.13413247968E+04  0.13413247968E+04  0.25500000000E-02 0.  1.
    8880023    1    1    2    0    0  0.13878582585E+03  0.69209612475E+03 -0.95503332878E+03  0.13579975761E+04  0.65864270000E+03 0.  1.
    8880022    1    1    2    0    0 -0.13878582585E+03 -0.69209612475E+03  0.52085059673E+03  0.89046928554E+03  0.15294330000E+03 0.  0.
<mgrwt>
<rscale>  0 0.89787402E+03</rscale>
<asrwt>0</asrwt>
<pdfrwt beam="1">  1        2 0.13956032E+00 0.96543708E+03</pdfrwt>
<pdfrwt beam="2">  1       -2 0.20635766E+00 0.96543708E+03</pdfrwt>
<totfact> 0.34932207E+00</totfact>
</mgrwt>
</event>
<event>
 4    1  0.1998832E-007  0.1108723E+04  0.7818608E-02  0.9251406E-01
          2   -1    0    0  501    0  0.00000000000E+00  0.00000000000E+00  0.24035234269E+04  0.24035234269E+04  0.25500000000E-02 0. -1.
         -2   -1    0    0    0  501 -0.00000000000E+00 -0.00000000000E+00 -0.53809709850E+03  0.53809709850E+03  0.25500000000E-02 0.  1.
    8880023    1    1    2    0    0  0.13349650323E+02 -0.89178353671E+03  0.32552431212E+03  0.11555225543E+04  0.65864270000E+03 0.  0.
    8880022    1    1    2    0    0 -0.13349650323E+02  0.89178353671E+03  0.15399020163E+04  0.17860979711E+04  0.15294330000E+03 0.  0.
<mgrwt>
<rscale>  0 0.10538229E+04</rscale>
<asrwt>0</asrwt>
<pdfrwt beam="1">  1        2 0.36977283E+00 0.11087228E+04</pdfrwt>
<pdfrwt beam="2">  1       -2 0.82784170E-01 0.11087228E+04</pdfrwt>
<totfact> 0.50369532E+00</totfact>
</mgrwt>
</event>
<event>
 4    1  0.1998832E-007  0.2049131E+04  0.7818608E-02  0.8595964E-01
          2   -1    0    0  501    0  0.00000000000E+00  0.00000000000E+00  0.23912781435E+04  0.23912781435E+04  0.25500000000E-02 0. -1.
         -2   -1    0    0    0  501 -0.00000000000E+00 -0.00000000000E+00 -0.17107681492E+04  0.17107681492E+04  0.25500000000E-02 0.  1.
    8880023    1    1    2    0    0  0.17606867967E+04 -0.81554132046E+03  0.28487801293E+02  0.20493285248E+04  0.65864270000E+03 0.  0.
    8880022    1    1    2    0    0 -0.17606867967E+04  0.81554132046E+03  0.65202219305E+03  0.20527177679E+04  0.15294330000E+03 0.  0.
<mgrwt>
<rscale>  0 0.20229534E+04</rscale>
<asrwt>0</asrwt>
<pdfrwt beam="1">  1        2 0.36788894E+00 0.20491305E+04</pdfrwt>
<pdfrwt beam="2">  1       -2 0.26319510E+00 0.20491305E+04</pdfrwt>
<totfact> 0.19001724E-01</totfact>
</mgrwt>
</event>
<event>
 4    1  0.2542226E-007  0.1295471E+04  0.7818608E-02  0.9069480E-01
         -2   -1    0    0    0  501 -0.00000000000E+00  0.00000000000E+00  0.16980013034E+04  0.16980013034E+04  0.25500000000E-02 0.  1.
          2   -1    0    0  501    0  0.00000000000E+00 -0.00000000000E+00 -0.18275635020E+04  0.18275635020E+04  0.25500000000E-02 0. -1.
    8880023    1    1    2    0    0  0.10930739088E+04  0.22276804564E+03  0.12120491250E+04  0.17740657992E+04  0.65864270000E+03 0.  0.
    8880022    1    1    2    0    0 -0.10930739088E+04 -0.22276804564E+03 -0.13416113236E+04  0.17514990062E+04  0.15294330000E+03 0.  0.
<mgrwt>
<rscale>  0 0.12508448E+04</rscale>
<asrwt>0</asrwt>
<pdfrwt beam="1">  1        2 0.28116362E+00 0.12954715E+04</pdfrwt>
<pdfrwt beam="2">  1       -2 0.26123097E+00 0.12954715E+04</pdfrwt>
<totfact> 0.43883605E-01</totfact>
</mgrwt>
</event>
<event>
 4    1  0.1998832E-007  0.9131832E+03  0.7818608E-02  0.9505191E-01
          2   -1    0    0  501    0  0.00000000000E+00  0.00000000000E+00  0.26798260327E+03  0.26798260328E+03  0.25500000000E-02 0. -1.
         -2   -1    0    0    0  501 -0.00000000000E+00 -0.00000000000E+00 -0.23822217822E+04  0.23822217822E+04  0.25500000000E-02 0.  1.
    8880023    1    1    2    0    0  0.58778525361E+03  0.23367033339E+03 -0.14954204620E+04  0.17521945935E+04  0.65864270000E+03 0.  0.
    8880022    1    1    2    0    0 -0.58778525361E+03 -0.23367033339E+03 -0.61881871695E+03  0.89800979200E+03  0.15294330000E+03 0.  0.
<mgrwt>
<rscale>  0 0.83902168E+03</rscale>
<asrwt>0</asrwt>
<pdfrwt beam="1">  1        2 0.41228094E-01 0.91318319E+03</pdfrwt>
<pdfrwt beam="2">  1       -2 0.36649564E+00 0.91318319E+03</pdfrwt>
<totfact> 0.15692124E+00</totfact>
</mgrwt>
</event>
<event>
 4    1  0.1998832E-007  0.8222906E+03  0.7818608E-02  0.9664523E-01
         -2   -1    0    0    0  501 -0.00000000000E+00  0.00000000000E+00  0.71268548599E+03  0.71268548600E+03  0.25500000000E-02 0.  1.
          2   -1    0    0  501    0  0.00000000000E+00 -0.00000000000E+00 -0.88455222539E+03  0.88455222539E+03  0.25500000000E-02 0. -1.
    8880023    1    1    2    0    0  0.48653782977E+03 -0.75050865887E+02 -0.52207882186E+03  0.97402679365E+03  0.65864270000E+03 0. -1.
    8880022    1    1    2    0    0 -0.48653782977E+03  0.75050865887E+02  0.35021208246E+03  0.62321091773E+03  0.15294330000E+03 0.  0.
<mgrwt>
<rscale>  0 0.73168948E+03</rscale>
<asrwt>0</asrwt>
<pdfrwt beam="1">  1        2 0.13608496E+00 0.82229064E+03</pdfrwt>
<pdfrwt beam="2">  1       -2 0.10964392E+00 0.82229064E+03</pdfrwt>
<totfact> 0.20058241E+01</totfact>
</mgrwt>
</event>
<event>
 4    1  0.1998832E-007  0.8489619E+03  0.7818608E-02  0.9613508E-01
          2   -1    0    0  501    0  0.00000000000E+00  0.00000000000E+00  0.24762082858E+04  0.24762082858E+04  0.25500000000E-02 0. -1.
         -2   -1    0    0    0  501 -0.00000000000E+00 -0.00000000000E+00 -0.55418947959E+03  0.55418947959E+03  0.25500000000E-02 0.  1.
    8880023    1    1    2    0    0  0.39102804111E+03 -0.36609168686E+03 -0.16971320741E+03  0.86575910688E+03  0.65864270000E+03 0.  0.
    8880022    1    1    2    0    0 -0.39102804111E+03  0.36609168686E+03  0.20917320137E+04  0.21646386586E+04  0.15294330000E+03 0.  0.
<mgrwt>
<rscale>  0 0.76408550E+03</rscale>
<asrwt>0</asrwt>
<pdfrwt beam="1">  1        2 0.38095511E+00 0.84896187E+03</pdfrwt>
<pdfrwt beam="2">  1       -2 0.85259921E-01 0.84896187E+03</pdfrwt>
<totfact> 0.44362212E+00</totfact>
</mgrwt>
</event>
<event>
 4    1  0.1998832E-007  0.1087789E+04  0.7818608E-02  0.9274775E-01
          2   -1    0    0  501    0  0.00000000000E+00  0.00000000000E+00  0.31835733693E+04  0.31835733693E+04  0.25500000000E-02 0. -1.
         -2   -1    0    0    0  501 -0.00000000000E+00 -0.00000000000E+00 -0.58248899419E+03  0.58248899420E+03  0.25500000000E-02 0.  1.
    8880023    1    1    2    0    0  0.86300381057E+03 -0.68548461755E+02  0.73857931809E+02  0.10902933867E+04  0.65864270000E+03 0.  0.
    8880022    1    1    2    0    0 -0.86300381057E+03  0.68548461755E+02  0.25272264433E+04  0.26757689769E+04  0.15294330000E+03 0.  0.
<mgrwt>
<rscale>  0 0.10313866E+04</rscale>
<asrwt>0</asrwt>
<pdfrwt beam="1">  1        2 0.48978052E+00 0.10877889E+04</pdfrwt>
<pdfrwt beam="2">  1       -2 0.89613692E-01 0.10877889E+04</pdfrwt>
<totfact> 0.14346246E+00</totfact>
</mgrwt>
</event>
<event>
 4    1  0.1998832E-007  0.1214491E+04  0.7818608E-02  0.9143163E-01
          2   -1    0    0  501    0  0.00000000000E+00  0.00000000000E+00  0.22126213188E+04  0.22126213188E+04  0.25500000000E-02 0. -1.
         -2   -1    0    0    0  501 -0.00000000000E+00 -0.00000000000E+00 -0.10224392068E+04  0.10224392068E+04  0.25500000000E-02 0.  1.
    8880023    1    1    2    0    0  0.10725299686E+03  0.10147287925E+04 -0.45180787156E+03  0.12958079667E+04  0.65864270000E+03 0.  0.
    8880022    1    1    2    0    0 -0.10725299686E+03 -0.10147287925E+04  0.16419899836E+04  0.19392525588E+04  0.15294330000E+03 0.  0.
<mgrwt>
<rscale>  0 0.11659835E+04</rscale>
<asrwt>0</asrwt>
<pdfrwt beam="1">  1        2 0.34040327E+00 0.12144908E+04</pdfrwt>
<pdfrwt beam="2">  1       -2 0.15729834E+00 0.12144908E+04</pdfrwt>
<totfact> 0.13035289E+00</totfact>
</mgrwt>
</event>
<event>
 4    1  0.1998832E-007  0.9255214E+03  0.7818608E-02  0.9486244E-01
          2   -1    0    0  501    0  0.00000000000E+00  0.00000000000E+00  0.19867746882E+04  0.19867746882E+04  0.25500000000E-02 0. -1.
         -2   -1    0    0    0  501 -0.00000000000E+00 -0.00000000000E+00 -0.68264864764E+03  0.68264864764E+03  0.25500000000E-02 0.  1.
    8880023    1    1    2    0    0  0.46820606000E+03 -0.45117921888E+03 -0.26611134707E+03  0.96301872125E+03  0.65864270000E+03 0.  0.
    8880022    1    1    2    0    0 -0.46820606000E+03  0.45117921888E+03  0.15702373876E+04  0.17064046146E+04  0.15294330000E+03 0.  0.
<mgrwt>
<rscale>  0 0.85305599E+03</rscale>
<asrwt>0</asrwt>
<pdfrwt beam="1">  1        2 0.30565764E+00 0.92552137E+03</pdfrwt>
<pdfrwt beam="2">  1       -2 0.10502287E+00 0.92552137E+03</pdfrwt>
<totfact> 0.50395922E+00</totfact>
</mgrwt>
</event>
<event>
 4    1  0.1998832E-007  0.7534943E+03  0.7818608E-02  0.9822251E-01
          2   -1    0    0  501    0  0.00000000000E+00  0.00000000000E+00  0.70216124468E+03  0.70216124468E+03  0.25500000000E-02 0. -1.
         -2   -1    0    0    0  501 -0.00000000000E+00 -0.00000000000E+00 -0.27394180807E+04  0.27394180807E+04  0.25500000000E-02 0.  1.
    8880023    1    1    2    0    0 -0.19022459549E+02 -0.36548818050E+03 -0.26258424897E+04  0.27318130337E+04  0.65864270000E+03 0.  1.
    8880022    1    1    2    0    0  0.19022459549E+02  0.36548818050E+03  0.58858565369E+03  0.70976629168E+03  0.15294330000E+03 0.  0.
<mgrwt>
<rscale>  0 0.64181992E+03</rscale>
<asrwt>0</asrwt>
<pdfrwt beam="1">  1        2 0.10802481E+00 0.75349431E+03</pdfrwt>
<pdfrwt beam="2">  1       -2 0.42144893E+00 0.75349431E+03</pdfrwt>
<totfact> 0.23357571E-01</totfact>
</mgrwt>
</event>
<event>
 4    1  0.1998832E-007  0.6622140E+03  0.7818608E-02  0.1021995E+00
          2   -1    0    0  501    0  0.00000000000E+00  0.00000000000E+00  0.83371886752E+03  0.83371886752E+03  0.25500000000E-02 0. -1.
         -2   -1    0    0    0  501 -0.00000000000E+00 -0.00000000000E+00 -0.21677447455E+03  0.21677447456E+03  0.25500000000E-02 0.  1.
    8880023    1    1    2    0    0  0.17283231899E+02  0.66471112825E+02  0.39062940703E+03  0.76884241483E+03  0.65864270000E+03 0.  1.
    8880022    1    1    2    0    0 -0.17283231899E+02 -0.66471112825E+02  0.22631498594E+03  0.28165092725E+03  0.15294330000E+03 0.  0.
<mgrwt>
<rscale>  0 0.46973615E+03</rscale>
<asrwt>0</asrwt>
<pdfrwt beam="1">  1        2 0.12826444E+00 0.66221396E+03</pdfrwt>
<pdfrwt beam="2">  1       -2 0.33349920E-01 0.66221396E+03</pdfrwt>
<totfact> 0.27702897E+02</totfact>
</mgrwt>
</event>
<event>
 4    1  0.1998832E-007  0.1015166E+04  0.7818608E-02  0.9361979E-01
          2   -1    0    0  501    0  0.00000000000E+00  0.00000000000E+00  0.48019382536E+04  0.48019382536E+04  0.25500000000E-02 0. -1.
         -2   -1    0    0    0  501 -0.00000000000E+00 -0.00000000000E+00 -0.43290256922E+03  0.43290256922E+03  0.25500000000E-02 0.  1.
    8880023    1    1    2    0    0  0.74838168065E+03  0.19151181642E+03  0.25579799923E+03  0.10468976733E+04  0.65864270000E+03 0.  1.
    8880022    1    1    2    0    0 -0.74838168065E+03 -0.19151181642E+03  0.41132376851E+04  0.41879431495E+04  0.15294330000E+03 0.  0.
<mgrwt>
<rscale>  0 0.95271795E+03</rscale>
<asrwt>0</asrwt>
<pdfrwt beam="1">  1        2 0.73875977E+00 0.10151661E+04</pdfrwt>
<pdfrwt beam="2">  1       -2 0.66600392E-01 0.10151661E+04</pdfrwt>
<totfact> 0.13347961E-01</totfact>
</mgrwt>
</event>
<event>
 4    1  0.1998832E-007  0.7218854E+03  0.7818608E-02  0.9916257E-01
          2   -1    0    0  501    0  0.00000000000E+00  0.00000000000E+00  0.22893812438E+04  0.22893812438E+04  0.25500000000E-02 0. -1.
         -2   -1    0    0    0  501 -0.00000000000E+00 -0.00000000000E+00 -0.26144428509E+03  0.26144428510E+03  0.25500000000E-02 0.  1.
    8880023    1    1    2    0    0  0.27675547828E+03  0.10351198049E+03  0.28449937463E+03  0.77592423940E+03  0.65864270000E+03 0.  1.
    8880022    1    1    2    0    0 -0.27675547828E+03 -0.10351198049E+03  0.17434375840E+04  0.17749012895E+04  0.15294330000E+03 0.  0.
<mgrwt>
<rscale>  0 0.59479819E+03</rscale>
<asrwt>0</asrwt>
<pdfrwt beam="1">  1        2 0.35221249E+00 0.72188540E+03</pdfrwt>
<pdfrwt beam="2">  1       -2 0.40222198E-01 0.72188540E+03</pdfrwt>
<totfact> 0.28054166E+01</totfact>
</mgrwt>
</event>
<event>
 4    1  0.1998832E-007  0.1308057E+04  0.7818608E-02  0.9058633E-01
         -2   -1    0    0    0  501 -0.00000000000E+00  0.00000000000E+00  0.16858526216E+04  0.16858526216E+04  0.25500000000E-02 0.  1.
          2   -1    0    0  501    0  0.00000000000E+00 -0.00000000000E+00 -0.17758442190E+04  0.17758442190E+04  0.25500000000E-02 0. -1.
    8880023    1    1    2    0    0 -0.11297010760E+04  0.31290443919E+02  0.11751544663E+04  0.17584088941E+04  0.65864270000E+03 0.  0.
    8880022    1    1    2    0    0  0.11297010760E+04 -0.31290443919E+02 -0.12651460636E+04  0.17032879464E+04  0.15294330000E+03 0.  0.
<mgrwt>
<rscale>  0 0.12639731E+04</rscale>
<asrwt>0</asrwt>
<pdfrwt beam="1">  1        2 0.27320680E+00 0.13080573E+04</pdfrwt>
<pdfrwt beam="2">  1       -2 0.25936194E+00 0.13080573E+04</pdfrwt>
<totfact> 0.48055415E-01</totfact>
</mgrwt>
</event>
<event>
 4    1  0.1998832E-007  0.1313291E+04  0.7818608E-02  0.9054167E-01
          2   -1    0    0  501    0  0.00000000000E+00  0.00000000000E+00  0.22345786409E+04  0.22345786409E+04  0.25500000000E-02 0. -1.
         -2   -1    0    0    0  501 -0.00000000000E+00 -0.00000000000E+00 -0.14319753506E+04  0.14319753506E+04  0.25500000000E-02 0.  1.
    8880023    1    1    2    0    0  0.95318651763E+03  0.61835121244E+03 -0.91562810620E+03  0.16009708912E+04  0.65864270000E+03 0.  0.
    8880022    1    1    2    0    0 -0.95318651763E+03 -0.61835121244E+03  0.17182313966E+04  0.20655831003E+04  0.15294330000E+03 0.  0.
<mgrwt>
<rscale>  0 0.12694281E+04</rscale>
<asrwt>0</asrwt>
<pdfrwt beam="1">  1        2 0.34378133E+00 0.13132909E+04</pdfrwt>
<pdfrwt beam="2">  1       -2 0.22030390E+00 0.13132909E+04</pdfrwt>
<totfact> 0.46582570E-01</totfact>
</mgrwt>
</event>
<event>
 4    1  0.1998832E-007  0.1225398E+04  0.7818608E-02  0.9132821E-01
         -2   -1    0    0    0  501 -0.00000000000E+00  0.00000000000E+00  0.22147975816E+04  0.22147975816E+04  0.25500000000E-02 0.  1.
          2   -1    0    0  501    0  0.00000000000E+00 -0.00000000000E+00 -0.11032581336E+04  0.11032581336E+04  0.25500000000E-02 0. -1.
    8880023    1    1    2    0    0 -0.56266749736E+03 -0.86671496486E+03  0.17179487252E+04  0.21102008368E+04  0.65864270000E+03 0.  1.
    8880022    1    1    2    0    0  0.56266749736E+03  0.86671496486E+03 -0.60640927724E+03  0.12078548785E+04  0.15294330000E+03 0.  0.
<mgrwt>
<rscale>  0 0.11774567E+04</rscale>
<asrwt>0</asrwt>
<pdfrwt beam="1">  1        2 0.16973202E+00 0.12253978E+04</pdfrwt>
<pdfrwt beam="2">  1       -2 0.34073808E+00 0.12253978E+04</pdfrwt>
<totfact> 0.37722106E-01</totfact>
</mgrwt>
</event>
<event>
 4    1  0.1998832E-007  0.8056341E+03  0.7818608E-02  0.9698744E-01
          2   -1    0    0  501    0  0.00000000000E+00  0.00000000000E+00  0.19808664549E+04  0.19808664549E+04  0.25500000000E-02 0. -1.
         -2   -1    0    0    0  501 -0.00000000000E+00 -0.00000000000E+00 -0.41180636496E+03  0.41180636497E+03  0.25500000000E-02 0.  1.
    8880023    1    1    2    0    0 -0.37265275793E+03 -0.27634406592E+03  0.61538856399E+02  0.80798103806E+03  0.65864270000E+03 0.  0.
    8880022    1    1    2    0    0  0.37265275793E+03  0.27634406592E+03  0.15075212336E+04  0.15846917818E+04  0.15294330000E+03 0.  0.
<mgrwt>
<rscale>  0 0.71091636E+03</rscale>
<asrwt>0</asrwt>
<pdfrwt beam="1">  1        2 0.30474869E+00 0.80563411E+03</pdfrwt>
<pdfrwt beam="2">  1       -2 0.63354825E-01 0.80563411E+03</pdfrwt>
<totfact> 0.16209441E+01</totfact>
</mgrwt>
</event>
<event>
 4    1  0.1998832E-007  0.8451471E+03  0.7818608E-02  0.9620550E-01
         -2   -1    0    0    0  501 -0.00000000000E+00  0.00000000000E+00  0.93405044177E+03  0.93405044178E+03  0.25500000000E-02 0.  1.
          2   -1    0    0  501    0  0.00000000000E+00 -0.00000000000E+00 -0.35294273803E+04  0.35294273803E+04  0.25500000000E-02 0. -1.
    8880023    1    1    2    0    0 -0.52826744216E+03 -0.37374519122E+02  0.71530506531E+03  0.11072194398E+04  0.65864270000E+03 0.  0.
    8880022    1    1    2    0    0  0.52826744216E+03  0.37374519122E+02 -0.33106820039E+04  0.33562583823E+04  0.15294330000E+03 0.  0.
<mgrwt>
<rscale>  0 0.75950828E+03</rscale>
<asrwt>0</asrwt>
<pdfrwt beam="1">  1        2 0.54298882E+00 0.84514706E+03</pdfrwt>
<pdfrwt beam="2">  1       -2 0.14370007E+00 0.84514706E+03</pdfrwt>
<totfact> 0.27730612E-01</totfact>
</mgrwt>
</event>
<event>
 4    1  0.1998832E-007  0.1043767E+04  0.7818608E-02  0.9326412E-01
          2   -1    0    0  501    0  0.00000000000E+00  0.00000000000E+00  0.37461324805E+04  0.37461324805E+04  0.25500000000E-02 0. -1.
         -2   -1    0    0    0  501 -0.00000000000E+00 -0.00000000000E+00 -0.47972467229E+03  0.47972467230E+03  0.25500000000E-02 0.  1.
    8880023    1    1    2    0    0 -0.70002629454E+03 -0.40694261251E+03  0.32371955814E+04  0.34013062992E+04  0.65864270000E+03 0.  0.
    8880022    1    1    2    0    0  0.70002629454E+03  0.40694261251E+03  0.29212226853E+02  0.82455085358E+03  0.15294330000E+03 0.  1.
<mgrwt>
<rscale>  0 0.98387249E+03</rscale>
<asrwt>0</asrwt>
<pdfrwt beam="1">  1        2 0.57632806E+00 0.10437669E+04</pdfrwt>
<pdfrwt beam="2">  1       -2 0.73803797E-01 0.10437669E+04</pdfrwt>
<totfact> 0.92441068E-01</totfact>
</mgrwt>
</event>
<event>
 4    1  0.1998832E-007  0.1170086E+04  0.7818608E-02  0.9186764E-01
         -2   -1    0    0    0  501 -0.00000000000E+00  0.00000000000E+00  0.74867429163E+03  0.74867429164E+03  0.25500000000E-02 0.  1.
          2   -1    0    0  501    0  0.00000000000E+00 -0.00000000000E+00 -0.29700328722E+04  0.29700328722E+04  0.25500000000E-02 0. -1.
    8880023    1    1    2    0    0  0.93747608902E+03  0.23754834729E+03  0.12452155867E+03  0.11766930184E+04  0.65864270000E+03 0.  0.
    8880022    1    1    2    0    0 -0.93747608902E+03 -0.23754834729E+03 -0.23458801392E+04  0.25420141454E+04  0.15294330000E+03 0.  0.
<mgrwt>
<rscale>  0 0.11191096E+04</rscale>
<asrwt>0</asrwt>
<pdfrwt beam="1">  1        2 0.45692813E+00 0.11700858E+04</pdfrwt>
<pdfrwt beam="2">  1       -2 0.11518066E+00 0.11700858E+04</pdfrwt>
<totfact> 0.10593799E+00</totfact>
</mgrwt>
</event>
<event>
 4    1  0.1998832E-007  0.1205686E+04  0.7818608E-02  0.9151615E-01
         -2   -1    0    0    0  501 -0.00000000000E+00  0.00000000000E+00  0.95977864330E+03  0.95977864331E+03  0.25500000000E-02 0.  1.
          2   -1    0    0  501    0  0.00000000000E+00 -0.00000000000E+00 -0.21606049269E+04  0.21606049269E+04  0.25500000000E-02 0. -1.
    8880023    1    1    2    0    0 -0.80912040806E+03 -0.60431098646E+03  0.35712435988E+03  0.12574639628E+04  0.65864270000E+03 0.  0.
    8880022    1    1    2    0    0  0.80912040806E+03  0.60431098646E+03 -0.15579506435E+04  0.18629196074E+04  0.15294330000E+03 0.  0.
<mgrwt>
<rscale>  0 0.11567103E+04</rscale>
<asrwt>0</asrwt>
<pdfrwt beam="1">  1        2 0.33240076E+00 0.12056856E+04</pdfrwt>
<pdfrwt beam="2">  1       -2 0.14765825E+00 0.12056856E+04</pdfrwt>
<totfact> 0.16532128E+00</totfact>
</mgrwt>
</event>
<event>
 4    1  0.1998832E-007  0.8027362E+03  0.7818608E-02  0.9704911E-01
          2   -1    0    0  501    0  0.00000000000E+00  0.00000000000E+00  0.36131339752E+04  0.36131339752E+04  0.25500000000E-02 0. -1.
         -2   -1    0    0    0  501 -0.00000000000E+00 -0.00000000000E+00 -0.75382735912E+03  0.75382735912E+03  0.25500000000E-02 0.  1.
    8880023    1    1    2    0    0 -0.21359766665E+03  0.40614186022E+03 -0.51789179285E+03  0.95529958086E+03  0.65864270000E+03 0.  1.
    8880022    1    1    2    0    0  0.21359766665E+03 -0.40614186022E+03  0.33771984090E+04  0.34116617535E+04  0.15294330000E+03 0.  0.
<mgrwt>
<rscale>  0 0.70725156E+03</rscale>
<asrwt>0</asrwt>
<pdfrwt beam="1">  1        2 0.55586676E+00 0.80273618E+03</pdfrwt>
<pdfrwt beam="2">  1       -2 0.11597344E+00 0.80273618E+03</pdfrwt>
<totfact> 0.42152661E-01</totfact>
</mgrwt>
</event>
<event>
 4    1  0.1998832E-007  0.7265520E+03  0.7818608E-02  0.9901009E-01
          2   -1    0    0  501    0  0.00000000000E+00  0.00000000000E+00  0.76008233808E+03  0.76008233808E+03  0.25500000000E-02 0. -1.
         -2   -1    0    0    0  501 -0.00000000000E+00 -0.00000000000E+00 -0.94864186378E+03  0.94864186378E+03  0.25500000000E-02 0.  1.
    8880023    1    1    2    0    0  0.68527476643E+02 -0.29895070241E+03 -0.75427833790E+03  0.10472886683E+04  0.65864270000E+03 0.  0.
    8880022    1    1    2    0    0 -0.68527476643E+02  0.29895070241E+03  0.56571881220E+03  0.66143553353E+03  0.15294330000E+03 0.  0.
<mgrwt>
<rscale>  0 0.60212392E+03</rscale>
<asrwt>0</asrwt>
<pdfrwt beam="1">  1        2 0.11693574E+00 0.72655196E+03</pdfrwt>
<pdfrwt beam="2">  1       -2 0.14594490E+00 0.72655196E+03</pdfrwt>
<totfact> 0.12086389E+01</totfact>
</mgrwt>
</event>
<event>
 4    1  0.1998832E-007  0.8514280E+03  0.7818608E-02  0.9608997E-01
         -2   -1    0    0    0  501 -0.00000000000E+00  0.00000000000E+00  0.46314649626E+03  0.46314649627E+03  0.25500000000E-02 0.  1.
          2   -1    0    0  501    0  0.00000000000E+00 -0.00000000000E+00 -0.14205782273E+04  0.14205782273E+04  0.25500000000E-02 0. -1.
    8880023    1    1    2    0    0 -0.38325507968E+03 -0.37978275297E+03 -0.97375023120E+02  0.85697811929E+03  0.65864270000E+03 0.  0.
    8880022    1    1    2    0    0  0.38325507968E+03  0.37978275297E+03 -0.86005670794E+03  0.10267466043E+04  0.15294330000E+03 0.  0.
<mgrwt>
<rscale>  0 0.76703543E+03</rscale>
<asrwt>0</asrwt>
<pdfrwt beam="1">  1        2 0.21855049E+00 0.85142798E+03</pdfrwt>
<pdfrwt beam="2">  1       -2 0.71253308E-01 0.85142798E+03</pdfrwt>
<totfact> 0.25462776E+01</totfact>
</mgrwt>
</event>
<event>
 4    1  0.1998832E-007  0.7751835E+03  0.7818608E-02  0.9767275E-01
         -2   -1    0    0    0  501 -0.00000000000E+00  0.00000000000E+00  0.18743058527E+03  0.18743058528E+03  0.25500000000E-02 0.  1.
          2   -1    0    0  501    0  0.00000000000E+00 -0.00000000000E+00 -0.20230819497E+04  0.20230819497E+04  0.25500000000E-02 0. -1.
    8880023    1    1    2    0    0  0.40236568748E+03  0.72118433133E+02 -0.97579501357E+03  0.12462284420E+04  0.65864270000E+03 0.  1.
    8880022    1    1    2    0    0 -0.40236568748E+03 -0.72118433133E+02 -0.85985635084E+03  0.96428409297E+03  0.15294330000E+03 0.  0.
<mgrwt>
<rscale>  0 0.67148706E+03</rscale>
<asrwt>0</asrwt>
<pdfrwt beam="1">  1        2 0.31124336E+00 0.77518348E+03</pdfrwt>
<pdfrwt beam="2">  1       -2 0.28835476E-01 0.77518348E+03</pdfrwt>
<totfact> 0.73391263E+01</totfact>
</mgrwt>
</event>
<event>
 4    1  0.1998832E-007  0.7221700E+03  0.7818608E-02  0.9915311E-01
          2   -1    0    0  501    0  0.00000000000E+00  0.00000000000E+00  0.18660144674E+04  0.18660144674E+04  0.25500000000E-02 0. -1.
         -2   -1    0    0    0  501 -0.00000000000E+00 -0.00000000000E+00 -0.71267100371E+03  0.71267100372E+03  0.25500000000E-02 0.  1.
    8880023    1    1    2    0    0  0.50984887133E+02  0.29175293883E+03 -0.50882640025E+03  0.88342161389E+03  0.65864270000E+03 0.  1.
    8880022    1    1    2    0    0 -0.50984887133E+02 -0.29175293883E+03  0.16621698640E+04  0.16952638573E+04  0.15294330000E+03 0.  0.
<mgrwt>
<rscale>  0 0.59524964E+03</rscale>
<asrwt>0</asrwt>
<pdfrwt beam="1">  1        2 0.28707915E+00 0.72216995E+03</pdfrwt>
<pdfrwt beam="2">  1       -2 0.10964169E+00 0.72216995E+03</pdfrwt>
<totfact> 0.54488951E+00</totfact>
</mgrwt>
</event>
<event>
 4    1  0.1998832E-007  0.1626444E+04  0.7818608E-02  0.8825152E-01
         -2   -1    0    0    0  501 -0.00000000000E+00  0.00000000000E+00  0.27487485111E+04  0.27487485111E+04  0.25500000000E-02 0.  1.
          2   -1    0    0  501    0  0.00000000000E+00 -0.00000000000E+00 -0.15350093567E+04  0.15350093568E+04  0.25500000000E-02 0. -1.
    8880023    1    1    2    0    0  0.63999332994E+03 -0.13423556508E+04  0.20134819243E+04  0.25883256791E+04  0.65864270000E+03 0.  1.
    8880022    1    1    2    0    0 -0.63999332994E+03  0.13423556508E+04 -0.79974276993E+03  0.16954321887E+04  0.15294330000E+03 0.  0.
<mgrwt>
<rscale>  0 0.15925265E+04</rscale>
<asrwt>0</asrwt>
<pdfrwt beam="1">  1        2 0.23615529E+00 0.16264441E+04</pdfrwt>
<pdfrwt beam="2">  1       -2 0.42288438E+00 0.16264441E+04</pdfrwt>
<totfact> 0.59032494E-02</totfact>
</mgrwt>
</event>
<event>
 4    1  0.1998832E-007  0.1447091E+04  0.7818608E-02  0.8947930E-01
          2   -1    0    0  501    0  0.00000000000E+00  0.00000000000E+00  0.12990648355E+04  0.12990648355E+04  0.25500000000E-02 0. -1.
         -2   -1    0    0    0  501 -0.00000000000E+00 -0.00000000000E+00 -0.18193638346E+04  0.18193638346E+04  0.25500000000E-02 0.  1.
    8880023    1    1    2    0    0 -0.91873871247E+03 -0.90342751185E+03  0.43054020206E+03  0.15097805015E+04  0.65864270000E+03 0.  0.
    8880022    1    1    2    0    0  0.91873871247E+03  0.90342751185E+03 -0.95083920110E+03  0.16086481686E+04  0.15294330000E+03 0.  0.
<mgrwt>
<rscale>  0 0.14081648E+04</rscale>
<asrwt>0</asrwt>
<pdfrwt beam="1">  1        2 0.19985613E+00 0.14470910E+04</pdfrwt>
<pdfrwt beam="2">  1       -2 0.27990213E+00 0.14470910E+04</pdfrwt>
<totfact> 0.66158708E-01</totfact>
</mgrwt>
</event>
<event>
 4    1  0.1998832E-007  0.1063065E+04  0.7818608E-02  0.9303338E-01
          2   -1    0    0  501    0  0.00000000000E+00  0.00000000000E+00  0.21456544773E+04  0.21456544773E+04  0.25500000000E-02 0. -1.
         -2   -1    0    0    0  501 -0.00000000000E+00 -0.00000000000E+00 -0.53341600504E+03  0.53341600505E+03  0.25500000000E-02 0.  1.
    8880023    1    1    2    0    0 -0.81933432877E+03  0.15807773070E+03  0.27943102556E+03  0.10991766080E+04  0.65864270000E+03 0.  1.
    8880022    1    1    2    0    0  0.81933432877E+03 -0.15807773070E+03  0.13328074467E+04  0.15798938743E+04  0.15294330000E+03 0.  0.
<mgrwt>
<rscale>  0 0.10047616E+04</rscale>
<asrwt>0</asrwt>
<pdfrwt beam="1">  1        2 0.33010069E+00 0.10630652E+04</pdfrwt>
<pdfrwt beam="2">  1       -2 0.82064001E-01 0.10630652E+04</pdfrwt>
<totfact> 0.72061525E+00</totfact>
</mgrwt>
</event>
<event>
 4    1  0.1998832E-007  0.9274360E+03  0.7818608E-02  0.9483350E-01
         -2   -1    0    0    0  501 -0.00000000000E+00  0.00000000000E+00  0.76146006592E+03  0.76146006592E+03  0.25500000000E-02 0.  1.
          2   -1    0    0  501    0  0.00000000000E+00 -0.00000000000E+00 -0.10594323442E+04  0.10594323442E+04  0.25500000000E-02 0. -1.
    8880023    1    1    2    0    0  0.39736557164E+03 -0.51810035904E+03  0.24361376369E+03  0.95889793601E+03  0.65864270000E+03 0.  0.
    8880022    1    1    2    0    0 -0.39736557164E+03  0.51810035904E+03 -0.54158604199E+03  0.86199447415E+03  0.15294330000E+03 0.  0.
<mgrwt>
<rscale>  0 0.85522548E+03</rscale>
<asrwt>0</asrwt>
<pdfrwt beam="1">  1        2 0.16298959E+00 0.92743603E+03</pdfrwt>
<pdfrwt beam="2">  1       -2 0.11714770E+00 0.92743603E+03</pdfrwt>
<totfact> 0.13001890E+01</totfact>
</mgrwt>
</event>
<event>
 4    1  0.1998832E-007  0.7443497E+03  0.7818608E-02  0.9847453E-01
          2   -1    0    0  501    0  0.00000000000E+00  0.00000000000E+00  0.13727839220E+04  0.13727839220E+04  0.25500000000E-02 0. -1.
         -2   -1    0    0    0  501 -0.00000000000E+00 -0.00000000000E+00 -0.32686284549E+03  0.32686284550E+03  0.25500000000E-02 0.  1.
    8880023    1    1    2    0    0  0.34131930643E+03  0.61215905923E+02  0.19701644009E+03  0.76998177901E+03  0.65864270000E+03 0.  1.
    8880022    1    1    2    0    0 -0.34131930643E+03 -0.61215905923E+02  0.84890463638E+03  0.92966498845E+03  0.15294330000E+03 0.  0.
<mgrwt>
<rscale>  0 0.62876939E+03</rscale>
<asrwt>0</asrwt>
<pdfrwt beam="1">  1        2 0.21119753E+00 0.74434969E+03</pdfrwt>
<pdfrwt beam="2">  1       -2 0.50286591E-01 0.74434969E+03</pdfrwt>
<totfact> 0.57230707E+01</totfact>
</mgrwt>
</event>
<event>
 4    1  0.1998832E-007  0.7466791E+03  0.7818608E-02  0.9840902E-01
         -2   -1    0    0    0  501 -0.00000000000E+00  0.00000000000E+00  0.39925894122E+03  0.39925894122E+03  0.25500000000E-02 0.  1.
          2   -1    0    0  501    0  0.00000000000E+00 -0.00000000000E+00 -0.16364392839E+04  0.16364392839E+04  0.25500000000E-02 0. -1.
    8880023    1    1    2    0    0  0.28937370324E+03  0.19995579511E+03 -0.65770197846E+01  0.74670805780E+03  0.65864270000E+03 0.  0.
    8880022    1    1    2    0    0 -0.28937370324E+03 -0.19995579511E+03 -0.12306033229E+04  0.12889901674E+04  0.15294330000E+03 0.  0.
<mgrwt>
<rscale>  0 0.63212967E+03</rscale>
<asrwt>0</asrwt>
<pdfrwt beam="1">  1        2 0.25175989E+00 0.74667909E+03</pdfrwt>
<pdfrwt beam="2">  1       -2 0.61424453E-01 0.74667909E+03</pdfrwt>
<totfact> 0.26910213E+01</totfact>
</mgrwt>
</event>
<event>
 4    1  0.1998832E-007  0.6806646E+03  0.7818608E-02  0.1008950E+00
          2   -1    0    0  501    0  0.00000000000E+00  0.00000000000E+00  0.18207114066E+04  0.18207114066E+04  0.25500000000E-02 0. -1.
         -2   -1    0    0    0  501 -0.00000000000E+00 -0.00000000000E+00 -0.53224274655E+03  0.53224274656E+03  0.25500000000E-02 0.  1.
    8880023    1    1    2    0    0 -0.69937982042E+01  0.17159580248E+03 -0.30292605332E+03  0.74502914888E+03  0.65864270000E+03 0.  0.
    8880022    1    1    2    0    0  0.69937982042E+01 -0.17159580248E+03  0.15913947133E+04  0.16079250042E+04  0.15294330000E+03 0. -1.
<mgrwt>
<rscale>  0 0.51893997E+03</rscale>
<asrwt>0</asrwt>
<pdfrwt beam="1">  1        2 0.28010945E+00 0.68066456E+03</pdfrwt>
<pdfrwt beam="2">  1       -2 0.81883499E-01 0.68066456E+03</pdfrwt>
<totfact> 0.11483921E+01</totfact>
</mgrwt>
</event>
<event>
 4    1  0.1998832E-007  0.1358895E+04  0.7818608E-02  0.9016299E-01
         -2   -1    0    0    0  501 -0.00000000000E+00  0.00000000000E+00  0.11737908279E+04  0.11737908279E+04  0.25500000000E-02 0.  1.
          2   -1    0    0  501    0  0.00000000000E+00 -0.00000000000E+00 -0.19654667586E+04  0.19654667586E+04  0.25500000000E-02 0. -1.
    8880023    1    1    2    0    0  0.11277673874E+04 -0.37540207373E+03  0.43257317448E+03  0.14260840630E+04  0.65864270000E+03 0.  0.
    8880022    1    1    2    0    0 -0.11277673874E+04  0.37540207373E+03 -0.12242491051E+04  0.17131735235E+04  0.15294330000E+03 0.  0.
<mgrwt>
<rscale>  0 0.13168627E+04</rscale>
<asrwt>0</asrwt>
<pdfrwt beam="1">  1        2 0.30237950E+00 0.13588952E+04</pdfrwt>
<pdfrwt beam="2">  1       -2 0.18058320E+00 0.13588952E+04</pdfrwt>
<totfact> 0.11973963E+00</totfact>
</mgrwt>
</event>
<event>
 4    1  0.1998832E-007  0.7776583E+03  0.7818608E-02  0.9761367E-01
          2   -1    0    0  501    0  0.00000000000E+00  0.00000000000E+00  0.46955926542E+03  0.46955926542E+03  0.25500000000E-02 0. -1.
         -2   -1    0    0    0  501 -0.00000000000E+00 -0.00000000000E+00 -0.10241603959E+04  0.10241603959E+04  0.25500000000E-02 0.  1.
    8880023    1    1    2    0    0  0.18076206973E+03  0.37184306652E+03 -0.68253162641E+03  0.10346989027E+04  0.65864270000E+03 0.  0.
    8880022    1    1    2    0    0 -0.18076206973E+03 -0.37184306652E+03  0.12793049597E+03  0.45902075856E+03  0.15294330000E+03 0.  0.
<mgrwt>
<rscale>  0 0.67477682E+03</rscale>
<asrwt>0</asrwt>
<pdfrwt beam="1">  1        2 0.72239887E-01 0.77765828E+03</pdfrwt>
<pdfrwt beam="2">  1       -2 0.15756314E+00 0.77765828E+03</pdfrwt>
<totfact> 0.17594691E+01</totfact>
</mgrwt>
</event>
<event>
 4    1  0.1998832E-007  0.1090219E+04  0.7818608E-02  0.9272025E-01
         -2   -1    0    0    0  501 -0.00000000000E+00  0.00000000000E+00  0.26328461107E+04  0.26328461107E+04  0.25500000000E-02 0.  1.
          2   -1    0    0  501    0  0.00000000000E+00 -0.00000000000E+00 -0.42969115528E+03  0.42969115529E+03  0.25500000000E-02 0. -1.
    8880023    1    1    2    0    0 -0.22952558871E+02  0.86846980140E+03  0.17723778483E+04  0.20808411903E+04  0.65864270000E+03 0.  0.
    8880022    1    1    2    0    0  0.22952558871E+02 -0.86846980140E+03  0.43077710706E+03  0.98169607562E+03  0.15294330000E+03 0.  0.
<mgrwt>
<rscale>  0 0.10339957E+04</rscale>
<asrwt>0</asrwt>
<pdfrwt beam="1">  1        2 0.66106332E-01 0.10902187E+04</pdfrwt>
<pdfrwt beam="2">  1       -2 0.40505325E+00 0.10902187E+04</pdfrwt>
<totfact> 0.50884097E-01</totfact>
</mgrwt>
</event>
<event>
 4    1  0.2846373E-007  0.9836905E+03  0.7818608E-02  0.9403213E-01
         -2   -1    0    0    0  501 -0.00000000000E+00  0.00000000000E+00  0.14951351625E+04  0.14951351625E+04  0.25500000000E-02 0.  1.
          2   -1    0    0  501    0  0.00000000000E+00 -0.00000000000E+00 -0.33810350192E+04  0.33810350192E+04  0.25500000000E-02 0. -1.
    8880023    1    1    2    0    0 -0.76632013505E+02 -0.72661149935E+03  0.12851675981E+04  0.16184259939E+04  0.65864270000E+03 0.  1.
    8880022    1    1    2    0    0  0.76632013505E+02  0.72661149935E+03 -0.31710674548E+04  0.32577441877E+04  0.15294330000E+03 0.  0.
<mgrwt>
<rscale>  0 0.91811694E+03</rscale>
<asrwt>0</asrwt>
<pdfrwt beam="1">  1        2 0.52015923E+00 0.98369047E+03</pdfrwt>
<pdfrwt beam="2">  1       -2 0.23002079E+00 0.98369047E+03</pdfrwt>
<totfact> 0.86821123E-02</totfact>
</mgrwt>
</event>
<event>
 4    1  0.1998832E-007  0.8412585E+03  0.7818608E-02  0.9627812E-01
          2   -1    0    0  501    0  0.00000000000E+00  0.00000000000E+00  0.14651670383E+04  0.14651670383E+04  0.25500000000E-02 0. -1.
         -2   -1    0    0    0  501 -0.00000000000E+00 -0.00000000000E+00 -0.12193811127E+04  0.12193811127E+04  0.25500000000E-02 0.  1.
    8880023    1    1    2    0    0  0.41593619605E+03  0.31765180739E+03 -0.10106139283E+04  0.13149358571E+04  0.65864270000E+03 0.  1.
    8880022    1    1    2    0    0 -0.41593619605E+03 -0.31765180739E+03  0.12563998539E+04  0.13696122940E+04  0.15294330000E+03 0.  0.
<mgrwt>
<rscale>  0 0.75482442E+03</rscale>
<asrwt>0</asrwt>
<pdfrwt beam="1">  1        2 0.22541031E+00 0.84125846E+03</pdfrwt>
<pdfrwt beam="2">  1       -2 0.18759709E+00 0.84125846E+03</pdfrwt>
<totfact> 0.21689129E+00</totfact>
</mgrwt>
</event>
<event>
 4    1  0.1998832E-007  0.1418426E+04  0.7818608E-02  0.8969496E-01
          2   -1    0    0  501    0  0.00000000000E+00  0.00000000000E+00  0.32539536281E+04  0.32539536281E+04  0.25500000000E-02 0. -1.
         -2   -1    0    0    0  501 -0.00000000000E+00 -0.00000000000E+00 -0.12250004031E+04  0.12250004031E+04  0.25500000000E-02 0.  1.
    8880023    1    1    2    0    0  0.14704496371E+03 -0.12475973975E+04 -0.61632995528E+03  0.15465426950E+04  0.65864270000E+03 0.  1.
    8880022    1    1    2    0    0 -0.14704496371E+03  0.12475973975E+04  0.26452831803E+04  0.29324113362E+04  0.15294330000E+03 0.  0.
<mgrwt>
<rscale>  0 0.13785460E+04</rscale>
<asrwt>0</asrwt>
<pdfrwt beam="1">  1        2 0.50060824E+00 0.14184258E+04</pdfrwt>
<pdfrwt beam="2">  1       -2 0.18846160E+00 0.14184258E+04</pdfrwt>
<totfact> 0.18139773E-01</totfact>
</mgrwt>
</event>
<event>
 4    1  0.1998832E-007  0.7654724E+03  0.7818608E-02  0.9791141E-01
         -2   -1    0    0    0  501 -0.00000000000E+00  0.00000000000E+00  0.67535397382E+03  0.67535397382E+03  0.25500000000E-02 0.  1.
          2   -1    0    0  501    0  0.00000000000E+00 -0.00000000000E+00 -0.11327105842E+04  0.11327105842E+04  0.25500000000E-02 0. -1.
    8880023    1    1    2    0    0  0.26110817006E+03  0.28975911193E+03  0.39273201179E+03  0.86034089683E+03  0.65864270000E+03 0.  1.
    8880022    1    1    2    0    0 -0.26110817006E+03 -0.28975911193E+03 -0.85008862213E+03  0.94772366116E+03  0.15294330000E+03 0.  0.
<mgrwt>
<rscale>  0 0.65840166E+03</rscale>
<asrwt>0</asrwt>
<pdfrwt beam="1">  1        2 0.17426317E+00 0.76547242E+03</pdfrwt>
<pdfrwt beam="2">  1       -2 0.10390061E+00 0.76547242E+03</pdfrwt>
<totfact> 0.15942210E+01</totfact>
</mgrwt>
</event>
<event>
 4    1  0.1998832E-007  0.6610614E+03  0.7818608E-02  0.1023094E+00
          2   -1    0    0  501    0  0.00000000000E+00  0.00000000000E+00  0.80762480378E+03  0.80762480379E+03  0.25500000000E-02 0. -1.
         -2   -1    0    0    0  501 -0.00000000000E+00 -0.00000000000E+00 -0.16601669459E+04  0.16601669459E+04  0.25500000000E-02 0.  1.
    8880023    1    1    2    0    0 -0.45301564591E+02 -0.33760244777E+02 -0.15850394921E+04  0.17173678650E+04  0.65864270000E+03 0.  1.
    8880022    1    1    2    0    0  0.45301564591E+02  0.33760244777E+02  0.73249735002E+03  0.75042388467E+03  0.15294330000E+03 0.  0.
<mgrwt>
<rscale>  0 0.46586294E+03</rscale>
<asrwt>0</asrwt>
<pdfrwt beam="1">  1        2 0.12424997E+00 0.66106141E+03</pdfrwt>
<pdfrwt beam="2">  1       -2 0.25541030E+00 0.66106141E+03</pdfrwt>
<totfact> 0.21236875E+00</totfact>
</mgrwt>
</event>
<event>
 4    1  0.1998832E-007  0.9406152E+03  0.7818608E-02  0.9463747E-01
          2   -1    0    0  501    0  0.00000000000E+00  0.00000000000E+00  0.90861040810E+03  0.90861040811E+03  0.25500000000E-02 0. -1.
         -2   -1    0    0    0  501 -0.00000000000E+00 -0.00000000000E+00 -0.78396485636E+03  0.78396485636E+03  0.25500000000E-02 0.  1.
    8880023    1    1    2    0    0 -0.77758912542E+02 -0.66700849755E+03 -0.14735433531E+03  0.95208733354E+03  0.65864270000E+03 0.  0.
    8880022    1    1    2    0    0  0.77758912542E+02  0.66700849755E+03  0.27199988706E+03  0.74048793093E+03  0.15294330000E+03 0.  0.
<mgrwt>
<rscale>  0 0.87010175E+03</rscale>
<asrwt>0</asrwt>
<pdfrwt beam="1">  1        2 0.13978622E+00 0.94061522E+03</pdfrwt>
<pdfrwt beam="2">  1       -2 0.12060998E+00 0.94061522E+03</pdfrwt>
<totfact> 0.15133887E+01</totfact>
</mgrwt>
</event>
<event>
 4    1  0.1998832E-007  0.1482811E+04  0.7818608E-02  0.8921870E-01
          2   -1    0    0  501    0  0.00000000000E+00  0.00000000000E+00  0.21018192019E+04  0.21018192019E+04  0.25500000000E-02 0. -1.
         -2   -1    0    0    0  501 -0.00000000000E+00 -0.00000000000E+00 -0.10273721658E+04  0.10273721658E+04  0.25500000000E-02 0.  1.
    8880023    1    1    2    0    0  0.29840036616E+03 -0.12945561674E+04  0.12283859980E+03  0.14878904452E+04  0.65864270000E+03 0.  0.
    8880022    1    1    2    0    0 -0.29840036616E+03  0.12945561674E+04  0.95160843628E+03  0.16413009224E+04  0.15294330000E+03 0.  0.
<mgrwt>
<rscale>  0 0.14450062E+04</rscale>
<asrwt>0</asrwt>
<pdfrwt beam="1">  1        2 0.32335680E+00 0.14828111E+04</pdfrwt>
<pdfrwt beam="2">  1       -2 0.15805726E+00 0.14828111E+04</pdfrwt>
<totfact> 0.14423448E+00</totfact>
</mgrwt>
</event>
<event>
 4    1  0.1998832E-007  0.1187870E+04  0.7818608E-02  0.9169004E-01
          2   -1    0    0  501    0  0.00000000000E+00  0.00000000000E+00  0.18815477062E+04  0.18815477062E+04  0.25500000000E-02 0. -1.
         -2   -1    0    0    0  501 -0.00000000000E+00 -0.00000000000E+00 -0.21668154941E+04  0.21668154941E+04  0.25500000000E-02 0.  1.
    8880023    1    1    2    0    0 -0.96981370510E+03 -0.19153770406E+03 -0.18456537030E+04  0.21948742816E+04  0.65864270000E+03 0.  0.
    8880022    1    1    2    0    0  0.96981370510E+03  0.19153770406E+03  0.15603859151E+04  0.18534889187E+04  0.15294330000E+03 0.  0.
<mgrwt>
<rscale>  0 0.11379160E+04</rscale>
<asrwt>0</asrwt>
<pdfrwt beam="1">  1        2 0.28946888E+00 0.11878702E+04</pdfrwt>
<pdfrwt beam="2">  1       -2 0.33335623E+00 0.11878702E+04</pdfrwt>
<totfact> 0.15093932E-01</totfact>
</mgrwt>
</event>
<event>
 4    1  0.1998832E-007  0.8140220E+03  0.7818608E-02  0.9681259E-01
         -2   -1    0    0    0  501 -0.00000000000E+00  0.00000000000E+00  0.23289555754E+04  0.23289555754E+04  0.25500000000E-02 0.  1.
          2   -1    0    0  501    0  0.00000000000E+00 -0.00000000000E+00 -0.38261307349E+03  0.38261307349E+03  0.25500000000E-02 0. -1.
    8880023    1    1    2    0    0 -0.20024540192E+03  0.43442307847E+03  0.20438430411E+04  0.21999832306E+04  0.65864270000E+03 0.  0.
    8880022    1    1    2    0    0  0.20024540192E+03 -0.43442307847E+03 -0.97500539134E+02  0.51158541833E+03  0.15294330000E+03 0.  0.
<mgrwt>
<rscale>  0 0.72143649E+03</rscale>
<asrwt>0</asrwt>
<pdfrwt beam="1">  1        2 0.58863549E-01 0.81402201E+03</pdfrwt>
<pdfrwt beam="2">  1       -2 0.35830086E+00 0.81402201E+03</pdfrwt>
<totfact> 0.12033460E+00</totfact>
</mgrwt>
</event>
<event>
 4    1  0.1998832E-007  0.7982146E+03  0.7818608E-02  0.9714670E-01
          2   -1    0    0  501    0  0.00000000000E+00  0.00000000000E+00  0.22343732521E+04  0.22343732522E+04  0.25500000000E-02 0. -1.
         -2   -1    0    0    0  501 -0.00000000000E+00 -0.00000000000E+00 -0.77543879159E+03  0.77543879159E+03  0.25500000000E-02 0.  1.
    8880023    1    1    2    0    0 -0.44645708386E+03  0.63342997009E+02 -0.53427359337E+03  0.96051795498E+03  0.65864270000E+03 0.  1.
    8880022    1    1    2    0    0  0.44645708386E+03 -0.63342997009E+02  0.19932080539E+04  0.20492940888E+04  0.15294330000E+03 0.  0.
<mgrwt>
<rscale>  0 0.70150029E+03</rscale>
<asrwt>0</asrwt>
<pdfrwt beam="1">  1        2 0.34374973E+00 0.79821455E+03</pdfrwt>
<pdfrwt beam="2">  1       -2 0.11929828E+00 0.79821455E+03</pdfrwt>
<totfact> 0.27510466E+00</totfact>
</mgrwt>
</event>
<event>
 4    1  0.1998832E-007  0.8567109E+03  0.7818608E-02  0.9599441E-01
         -2   -1    0    0    0  501 -0.00000000000E+00  0.00000000000E+00  0.11387791473E+04  0.11387791473E+04  0.25500000000E-02 0.  1.
          2   -1    0    0  501    0  0.00000000000E+00 -0.00000000000E+00 -0.12391148625E+04  0.12391148625E+04  0.25500000000E-02 0. -1.
    8880023    1    1    2    0    0  0.20926296370E+03 -0.50631253601E+03  0.89031436703E+03  0.12355619169E+04  0.65864270000E+03 0.  0.
    8880022    1    1    2    0    0 -0.20926296370E+03  0.50631253601E+03 -0.99065008225E+03  0.11423320929E+04  0.15294330000E+03 0.  0.
<mgrwt>
<rscale>  0 0.77333183E+03</rscale>
<asrwt>0</asrwt>
<pdfrwt beam="1">  1        2 0.19063306E+00 0.85671091E+03</pdfrwt>
<pdfrwt beam="2">  1       -2 0.17519679E+00 0.85671091E+03</pdfrwt>
<totfact> 0.35471865E+00</totfact>
</mgrwt>
</event>
<event>
 4    1  0.1998832E-007  0.1334974E+04  0.7818608E-02  0.9035931E-01
          2   -1    0    0  501    0  0.00000000000E+00  0.00000000000E+00  0.17464795886E+04  0.17464795886E+04  0.25500000000E-02 0. -1.
         -2   -1    0    0    0  501 -0.00000000000E+00 -0.00000000000E+00 -0.10294529934E+04  0.10294529934E+04  0.25500000000E-02 0.  1.
    8880023    1    1    2    0    0  0.97238982149E+03 -0.63466840217E+03  0.87196701837E+03  0.15945164261E+04  0.65864270000E+03 0.  0.
    8880022    1    1    2    0    0 -0.97238982149E+03  0.63466840217E+03 -0.15494042315E+03  0.11814161559E+04  0.15294330000E+03 0.  0.
<mgrwt>
<rscale>  0 0.12920030E+04</rscale>
<asrwt>0</asrwt>
<pdfrwt beam="1">  1        2 0.26868917E+00 0.13349742E+04</pdfrwt>
<pdfrwt beam="2">  1       -2 0.15837738E+00 0.13349742E+04</pdfrwt>
<totfact> 0.22938462E+00</totfact>
</mgrwt>
</event>
<event>
 4    1  0.1998832E-007  0.8378973E+03  0.7818608E-02  0.9634158E-01
         -2   -1    0    0    0  501 -0.00000000000E+00  0.00000000000E+00  0.24781403861E+03  0.24781403863E+03  0.25500000000E-02 0.  1.
          2   -1    0    0  501    0  0.00000000000E+00 -0.00000000000E+00 -0.26290671449E+04  0.26290671449E+04  0.25500000000E-02 0. -1.
    8880023    1    1    2    0    0  0.32018042029E+03 -0.40711928015E+03 -0.64159932635E+03  0.10553300487E+04  0.65864270000E+03 0.  1.
    8880022    1    1    2    0    0 -0.32018042029E+03  0.40711928015E+03 -0.17396537799E+04  0.18215511348E+04  0.15294330000E+03 0.  0.
<mgrwt>
<rscale>  0 0.75076053E+03</rscale>
<asrwt>0</asrwt>
<pdfrwt beam="1">  1        2 0.40447185E+00 0.83789726E+03</pdfrwt>
<pdfrwt beam="2">  1       -2 0.38125238E-01 0.83789726E+03</pdfrwt>
<totfact> 0.19677866E+01</totfact>
</mgrwt>
</event>
<event>
 4    1  0.1998832E-007  0.1215035E+04  0.7818608E-02  0.9142644E-01
          2   -1    0    0  501    0  0.00000000000E+00  0.00000000000E+00  0.22292237374E+04  0.22292237374E+04  0.25500000000E-02 0. -1.
         -2   -1    0    0    0  501 -0.00000000000E+00 -0.00000000000E+00 -0.11862841191E+04  0.11862841191E+04  0.25500000000E-02 0.  1.
    8880023    1    1    2    0    0 -0.13847575321E+03  0.10115946863E+04 -0.69077771122E+03  0.13976707038E+04  0.65864270000E+03 0.  0.
    8880022    1    1    2    0    0  0.13847575321E+03 -0.10115946863E+04  0.17337173295E+04  0.20178371528E+04  0.15294330000E+03 0.  0.
<mgrwt>
<rscale>  0 0.11665561E+04</rscale>
<asrwt>0</asrwt>
<pdfrwt beam="1">  1        2 0.34295749E+00 0.12150348E+04</pdfrwt>
<pdfrwt beam="2">  1       -2 0.18250525E+00 0.12150348E+04</pdfrwt>
<totfact> 0.84161523E-01</totfact>
</mgrwt>
</event>
<event>
 4    1  0.1998832E-007  0.7348391E+03  0.7818608E-02  0.9875244E-01
          2   -1    0    0  501    0  0.00000000000E+00  0.00000000000E+00  0.16039357579E+04  0.16039357579E+04  0.25500000000E-02 0. -1.
         -2   -1    0    0    0  501 -0.00000000000E+00 -0.00000000000E+00 -0.80373589747E+03  0.80373589748E+03  0.25500000000E-02 0.  1.
    8880023    1    1    2    0    0  0.27698416037E+03 -0.17163354615E+03 -0.60827211038E+03  0.95393053509E+03  0.65864270000E+03 0.  1.
    8880022    1    1    2    0    0 -0.27698416037E+03  0.17163354615E+03  0.14084719708E+04  0.14537411203E+04  0.15294330000E+03 0.  0.
<mgrwt>
<rscale>  0 0.61476231E+03</rscale>
<asrwt>0</asrwt>
<pdfrwt beam="1">  1        2 0.24675935E+00 0.73483910E+03</pdfrwt>
<pdfrwt beam="2">  1       -2 0.12365168E+00 0.73483910E+03</pdfrwt>
<totfact> 0.56291020E+00</totfact>
</mgrwt>
</event>
<event>
 4    1  0.1998832E-007  0.8357848E+03  0.7818608E-02  0.9638180E-01
          2   -1    0    0  501    0  0.00000000000E+00  0.00000000000E+00  0.57544055228E+03  0.57544055229E+03  0.25500000000E-02 0. -1.
         -2   -1    0    0    0  501 -0.00000000000E+00 -0.00000000000E+00 -0.11195923149E+04  0.11195923149E+04  0.25500000000E-02 0.  1.
    8880023    1    1    2    0    0 -0.18937728024E+03  0.47839553751E+03 -0.74725418681E+03  0.11211266969E+04  0.65864270000E+03 0.  0.
    8880022    1    1    2    0    0  0.18937728024E+03 -0.47839553751E+03  0.20310242418E+03  0.57390617029E+03  0.15294330000E+03 0.  0.
<mgrwt>
<rscale>  0 0.74819896E+03</rscale>
<asrwt>0</asrwt>
<pdfrwt beam="1">  1        2 0.88529316E-01 0.83578481E+03</pdfrwt>
<pdfrwt beam="2">  1       -2 0.17224497E+00 0.83578481E+03</pdfrwt>
<totfact> 0.10798724E+01</totfact>
</mgrwt>
</event>
<event>
 4    1  0.1998832E-007  0.9714787E+03  0.7818608E-02  0.9419862E-01
         -2   -1    0    0    0  501 -0.00000000000E+00  0.00000000000E+00  0.56513132467E+03  0.56513132467E+03  0.25500000000E-02 0.  1.
          2   -1    0    0  501    0  0.00000000000E+00 -0.00000000000E+00 -0.27020588245E+04  0.27020588245E+04  0.25500000000E-02 0. -1.
    8880023    1    1    2    0    0  0.66917195412E+03 -0.24933808526E+03  0.38710314288E+02  0.97224959740E+03  0.65864270000E+03 0.  0.
    8880022    1    1    2    0    0 -0.66917195412E+03  0.24933808526E+03 -0.21756378141E+04  0.22949405517E+04  0.15294330000E+03 0. -1.
<mgrwt>
<rscale>  0 0.90458986E+03</rscale>
<asrwt>0</asrwt>
<pdfrwt beam="1">  1        2 0.41570135E+00 0.97147866E+03</pdfrwt>
<pdfrwt beam="2">  1       -2 0.86943282E-01 0.97147866E+03</pdfrwt>
<totfact> 0.30845207E+00</totfact>
</mgrwt>
</event>
<event>
 4    1  0.1998832E-007  0.1071980E+04  0.7818608E-02  0.9292914E-01
          2   -1    0    0  501    0  0.00000000000E+00  0.00000000000E+00  0.30370744033E+04  0.30370744033E+04  0.25500000000E-02 0. -1.
         -2   -1    0    0    0  501 -0.00000000000E+00 -0.00000000000E+00 -0.12402944048E+04  0.12402944048E+04  0.25500000000E-02 0.  1.
    8880023    1    1    2    0    0  0.48657309531E+03  0.69179260955E+03 -0.92948417123E+03  0.14188310056E+04  0.65864270000E+03 0.  1.
    8880022    1    1    2    0    0 -0.48657309531E+03 -0.69179260955E+03  0.27262641698E+04  0.28585378025E+04  0.15294330000E+03 0.  0.
<mgrwt>
<rscale>  0 0.10143786E+04</rscale>
<asrwt>0</asrwt>
<pdfrwt beam="1">  1        2 0.46724221E+00 0.10719798E+04</pdfrwt>
<pdfrwt beam="2">  1       -2 0.19081453E+00 0.10719798E+04</pdfrwt>
<totfact> 0.25374824E-01</totfact>
</mgrwt>
</event>
<event>
 4    1  0.1998832E-007  0.8716023E+03  0.7818608E-02  0.9573249E-01
         -2   -1    0    0    0  501 -0.00000000000E+00  0.00000000000E+00  0.45542898404E+03  0.45542898405E+03  0.25500000000E-02 0.  1.
          2   -1    0    0  501    0  0.00000000000E+00 -0.00000000000E+00 -0.22137422354E+04  0.22137422354E+04  0.25500000000E-02 0. -1.
    8880023    1    1    2    0    0 -0.45246120271E+03  0.34807922597E+03 -0.63087660439E+02  0.87388245587E+03  0.65864270000E+03 0.  0.
    8880022    1    1    2    0    0  0.45246120271E+03 -0.34807922597E+03 -0.16952255910E+04  0.17952887636E+04  0.15294330000E+03 0.  0.
<mgrwt>
<rscale>  0 0.79092303E+03</rscale>
<asrwt>0</asrwt>
<pdfrwt beam="1">  1        2 0.34057572E+00 0.87160226E+03</pdfrwt>
<pdfrwt beam="2">  1       -2 0.70065999E-01 0.87160226E+03</pdfrwt>
<totfact> 0.96209666E+00</totfact>
</mgrwt>
</event>
<event>
 4    1  0.1998832E-007  0.6669985E+03  0.7818608E-02  0.1017913E+00
         -2   -1    0    0    0  501 -0.00000000000E+00  0.00000000000E+00  0.16857591153E+04  0.16857591153E+04  0.25500000000E-02 0.  1.
          2   -1    0    0  501    0  0.00000000000E+00 -0.00000000000E+00 -0.36345049680E+03  0.36345049681E+03  0.25500000000E-02 0. -1.
    8880023    1    1    2    0    0 -0.79433320740E+00 -0.10524315372E+03  0.15895428547E+04  0.17238136342E+04  0.65864270000E+03 0.  1.
    8880022    1    1    2    0    0  0.79433320740E+00  0.10524315372E+03 -0.26723423624E+03  0.32539597785E+03  0.15294330000E+03 0.  0.
<mgrwt>
<rscale>  0 0.48447489E+03</rscale>
<asrwt>0</asrwt>
<pdfrwt beam="1">  1        2 0.55915461E-01 0.66699847E+03</pdfrwt>
<pdfrwt beam="2">  1       -2 0.25934756E+00 0.66699847E+03</pdfrwt>
<totfact> 0.51952876E+00</totfact>
</mgrwt>
</event>
<event>
 4    1  0.1998832E-007  0.1220399E+04  0.7818608E-02  0.9137544E-01
         -2   -1    0    0    0  501 -0.00000000000E+00  0.00000000000E+00  0.14896176260E+04  0.14896176260E+04  0.25500000000E-02 0.  1.
          2   -1    0    0  501    0  0.00000000000E+00 -0.00000000000E+00 -0.20815404450E+04  0.20815404450E+04  0.25500000000E-02 0. -1.
    8880023    1    1    2    0    0  0.71975276313E+03 -0.73315748040E+03 -0.16737249745E+04  0.20714075957E+04  0.65864270000E+03 0. -1.
    8880022    1    1    2    0    0 -0.71975276313E+03  0.73315748040E+03  0.10818021555E+04  0.14997504752E+04  0.15294330000E+03 0.  0.
<mgrwt>
<rscale>  0 0.11722004E+04</rscale>
<asrwt>0</asrwt>
<pdfrwt beam="1">  1        2 0.32023699E+00 0.12203992E+04</pdfrwt>
<pdfrwt beam="2">  1       -2 0.22917194E+00 0.12203992E+04</pdfrwt>
<totfact> 0.50490270E-01</totfact>
</mgrwt>
</event>
<event>
 4    1  0.1998832E-007  0.1067152E+04  0.7818608E-02  0.9298541E-01
         -2   -1    0    0    0  501 -0.00000000000E+00  0.00000000000E+00  0.10402009038E+04  0.10402009038E+04  0.25500000000E-02 0.  1.
          2   -1    0    0  501    0  0.00000000000E+00 -0.00000000000E+00 -0.21795545707E+04  0.21795545707E+04  0.25500000000E-02 0. -1.
    8880023    1    1    2    0    0 -0.83940216329E+03  0.20185073572E+02  0.64138049871E+03  0.12450632833E+04  0.65864270000E+03 0.  0.
    8880022    1    1    2    0    0  0.83940216329E+03 -0.20185073572E+02 -0.17807341656E+04  0.19746921913E+04  0.15294330000E+03 0.  0.
<mgrwt>
<rscale>  0 0.10091730E+04</rscale>
<asrwt>0</asrwt>
<pdfrwt beam="1">  1        2 0.33531609E+00 0.10671521E+04</pdfrwt>
<pdfrwt beam="2">  1       -2 0.16003091E+00 0.10671521E+04</pdfrwt>
<totfact> 0.13224270E+00</totfact>
</mgrwt>
</event>
<event>
 4    1  0.1998832E-007  0.1205343E+04  0.7818608E-02  0.9151946E-01
          2   -1    0    0  501    0  0.00000000000E+00  0.00000000000E+00  0.47324660823E+04  0.47324660823E+04  0.25500000000E-02 0. -1.
         -2   -1    0    0    0  501 -0.00000000000E+00 -0.00000000000E+00 -0.57572470602E+03  0.57572470602E+03  0.25500000000E-02 0.  1.
    8880023    1    1    2    0    0 -0.78197039090E+03  0.63840644613E+03  0.19997418263E+03  0.12218184655E+04  0.65864270000E+03 0.  0.
    8880022    1    1    2    0    0  0.78197039090E+03 -0.63840644613E+03  0.39567671937E+04  0.40863723228E+04  0.15294330000E+03 0.  0.
<mgrwt>
<rscale>  0 0.11563488E+04</rscale>
<asrwt>0</asrwt>
<pdfrwt beam="1">  1        2 0.72807171E+00 0.12053426E+04</pdfrwt>
<pdfrwt beam="2">  1       -2 0.88573031E-01 0.12053426E+04</pdfrwt>
<totfact> 0.80682797E-02</totfact>
</mgrwt>
</event>
<event>
 4    1  0.1998832E-007  0.8641977E+03  0.7818608E-02  0.9586140E-01
         -2   -1    0    0    0  501 -0.00000000000E+00  0.00000000000E+00  0.40638974554E+03  0.40638974555E+03  0.25500000000E-02 0.  1.
          2   -1    0    0  501    0  0.00000000000E+00 -0.00000000000E+00 -0.17082618871E+04  0.17082618871E+04  0.25500000000E-02 0. -1.
    8880023    1    1    2    0    0  0.49531494722E+03 -0.26017409280E+03 -0.22738685869E+03  0.89361202167E+03  0.65864270000E+03 0.  1.
    8880022    1    1    2    0    0 -0.49531494722E+03  0.26017409280E+03 -0.10744852829E+04  0.12210396110E+04  0.15294330000E+03 0.  0.
<mgrwt>
<rscale>  0 0.78220378E+03</rscale>
<asrwt>0</asrwt>
<pdfrwt beam="1">  1        2 0.26280952E+00 0.86419770E+03</pdfrwt>
<pdfrwt beam="2">  1       -2 0.62521500E-01 0.86419770E+03</pdfrwt>
<totfact> 0.23345683E+01</totfact>
</mgrwt>
</event>
<event>
 4    1  0.1998832E-007  0.1626832E+04  0.7818608E-02  0.8824907E-01
         -2   -1    0    0    0  501 -0.00000000000E+00  0.00000000000E+00  0.18084369974E+04  0.18084369974E+04  0.25500000000E-02 0.  1.
          2   -1    0    0  501    0  0.00000000000E+00 -0.00000000000E+00 -0.17627146565E+04  0.17627146565E+04  0.25500000000E-02 0. -1.
    8880023    1    1    2    0    0  0.13872048352E+04 -0.53706212668E+03 -0.84231866286E+03  0.18319617678E+04  0.65864270000E+03 0.  0.
    8880022    1    1    2    0    0 -0.13872048352E+04  0.53706212668E+03  0.88804100373E+03  0.17391898861E+04  0.15294330000E+03 0.  0.
<mgrwt>
<rscale>  0 0.15929240E+04</rscale>
<asrwt>0</asrwt>
<pdfrwt beam="1">  1        2 0.27118687E+00 0.16268323E+04</pdfrwt>
<pdfrwt beam="2">  1       -2 0.27822108E+00 0.16268323E+04</pdfrwt>
<totfact> 0.36192264E-01</totfact>
</mgrwt>
</event>
<event>
 4    1  0.1998832E-007  0.1022573E+04  0.7818608E-02  0.9352603E-01
         -2   -1    0    0    0  501 -0.00000000000E+00  0.00000000000E+00  0.28455670423E+04  0.28455670423E+04  0.25500000000E-02 0.  1.
          2   -1    0    0  501    0  0.00000000000E+00 -0.00000000000E+00 -0.46040350234E+03  0.46040350235E+03  0.25500000000E-02 0. -1.
    8880023    1    1    2    0    0  0.75618932035E+03 -0.20005731333E+03  0.22841238021E+04  0.25025740681E+04  0.65864270000E+03 0.  1.
    8880022    1    1    2    0    0 -0.75618932035E+03  0.20005731333E+03  0.10103973783E+03  0.80339647650E+03  0.15294330000E+03 0.  0.
<mgrwt>
<rscale>  0 0.96081038E+03</rscale>
<asrwt>0</asrwt>
<pdfrwt beam="1">  1        2 0.70831307E-01 0.10225729E+04</pdfrwt>
<pdfrwt beam="2">  1       -2 0.43777955E+00 0.10225729E+04</pdfrwt>
<totfact> 0.28850749E-01</totfact>
</mgrwt>
</event>
<event>
 4    1  0.1998832E-007  0.6851954E+03  0.7818608E-02  0.1006525E+00
         -2   -1    0    0    0  501 -0.00000000000E+00  0.00000000000E+00  0.12143392443E+04  0.12143392443E+04  0.25500000000E-02 0.  1.
          2   -1    0    0  501    0  0.00000000000E+00 -0.00000000000E+00 -0.18417003601E+04  0.18417003601E+04  0.25500000000E-02 0. -1.
    8880023    1    1    2    0    0  0.17149355816E+03  0.79198779525E+02  0.11085382028E+04  0.13032074434E+04  0.65864270000E+03 0.  1.
    8880022    1    1    2    0    0 -0.17149355816E+03 -0.79198779525E+02 -0.17358993187E+04  0.17528321610E+04  0.15294330000E+03 0.  0.
<mgrwt>
<rscale>  0 0.52879275E+03</rscale>
<asrwt>0</asrwt>
<pdfrwt beam="1">  1        2 0.28333852E+00 0.68519537E+03</pdfrwt>
<pdfrwt beam="2">  1       -2 0.18682142E+00 0.68519537E+03</pdfrwt>
<totfact> 0.14009314E+00</totfact>
</mgrwt>
</event>
<event>
 4    1  0.1998832E-007  0.1010564E+04  0.7818608E-02  0.9367865E-01
          2   -1    0    0  501    0  0.00000000000E+00  0.00000000000E+00  0.16591790610E+04  0.16591790610E+04  0.25500000000E-02 0. -1.
         -2   -1    0    0    0  501 -0.00000000000E+00 -0.00000000000E+00 -0.85557721504E+03  0.85557721504E+03  0.25500000000E-02 0.  1.
    8880023    1    1    2    0    0 -0.26872777093E+03 -0.71778485708E+03 -0.39403460164E+03  0.10846673174E+04  0.65864270000E+03 0.  0.
    8880022    1    1    2    0    0  0.26872777093E+03  0.71778485708E+03  0.11976364476E+04  0.14300889586E+04  0.15294330000E+03 0.  0.
<mgrwt>
<rscale>  0 0.94768105E+03</rscale>
<asrwt>0</asrwt>
<pdfrwt beam="1">  1        2 0.25525831E+00 0.10105642E+04</pdfrwt>
<pdfrwt beam="2">  1       -2 0.13162727E+00 0.10105642E+04</pdfrwt>
<totfact> 0.43199160E+00</totfact>
</mgrwt>
</event>
<event>
 4    1  0.1998832E-007  0.1064687E+04  0.7818608E-02  0.9301431E-01
          2   -1    0    0  501    0  0.00000000000E+00  0.00000000000E+00  0.14560362048E+04  0.14560362048E+04  0.25500000000E-02 0. -1.
         -2   -1    0    0    0  501 -0.00000000000E+00 -0.00000000000E+00 -0.14883321989E+04  0.14883321989E+04  0.25500000000E-02 0.  1.
    8880023    1    1    2    0    0 -0.79398752031E+03  0.26330892251E+03 -0.11321365522E+04  0.15541207000E+04  0.65864270000E+03 0.  0.
    8880022    1    1    2    0    0  0.79398752031E+03 -0.26330892251E+03  0.10998405582E+04  0.13902477037E+04  0.15294330000E+03 0.  0.
<mgrwt>
<rscale>  0 0.10065125E+04</rscale>
<asrwt>0</asrwt>
<pdfrwt beam="1">  1        2 0.22400557E+00 0.10646868E+04</pdfrwt>
<pdfrwt beam="2">  1       -2 0.22897418E+00 0.10646868E+04</pdfrwt>
<totfact> 0.11512799E+00</totfact>
</mgrwt>
</event>
<event>
 4    1  0.1998832E-007  0.1002590E+04  0.7818608E-02  0.9378177E-01
          2   -1    0    0  501    0  0.00000000000E+00  0.00000000000E+00  0.11302541677E+04  0.11302541678E+04  0.25500000000E-02 0. -1.
         -2   -1    0    0    0  501 -0.00000000000E+00 -0.00000000000E+00 -0.22870985917E+04  0.22870985917E+04  0.25500000000E-02 0.  1.
    8880023    1    1    2    0    0  0.26502137329E+03  0.70791269556E+03 -0.20228793931E+04  0.22577041343E+04  0.65864270000E+03 0.  1.
    8880022    1    1    2    0    0 -0.26502137329E+03 -0.70791269556E+03  0.86603496918E+03  0.11596486251E+04  0.15294330000E+03 0.  0.
<mgrwt>
<rscale>  0 0.93893611E+03</rscale>
<asrwt>0</asrwt>
<pdfrwt beam="1">  1        2 0.17388526E+00 0.10025901E+04</pdfrwt>
<pdfrwt beam="2">  1       -2 0.35186132E+00 0.10025901E+04</pdfrwt>
<totfact> 0.31961240E-01</totfact>
</mgrwt>
</event>
<event>
 4    1  0.1998832E-007  0.7322290E+03  0.7818608E-02  0.9883190E-01
         -2   -1    0    0    0  501 -0.00000000000E+00  0.00000000000E+00  0.14861202286E+04  0.14861202286E+04  0.25500000000E-02 0.  1.
          2   -1    0    0  501    0  0.00000000000E+00 -0.00000000000E+00 -0.50649801672E+03  0.50649801673E+03  0.25500000000E-02 0. -1.
    8880023    1    1    2    0    0 -0.30703235607E+03  0.89890059850E+02  0.13146296543E+04  0.15047958083E+04  0.65864270000E+03 0.  1.
    8880022    1    1    2    0    0  0.30703235607E+03 -0.89890059850E+02 -0.33500744243E+03  0.48782243699E+03  0.15294330000E+03 0.  0.
<mgrwt>
<rscale>  0 0.61082906E+03</rscale>
<asrwt>0</asrwt>
<pdfrwt beam="1">  1        2 0.77922774E-01 0.73222899E+03</pdfrwt>
<pdfrwt beam="2">  1       -2 0.22863388E+00 0.73222899E+03</pdfrwt>
<totfact> 0.54318067E+00</totfact>
</mgrwt>
</event>
<event>
 4    1  0.1998832E-007  0.6817061E+03  0.7818608E-02  0.1008375E+00
          2   -1    0    0  501    0  0.00000000000E+00  0.00000000000E+00  0.62658708516E+03  0.62658708516E+03  0.25500000000E-02 0. -1.
         -2   -1    0    0    0  501 -0.00000000000E+00 -0.00000000000E+00 -0.38945261827E+03  0.38945261828E+03  0.25500000000E-02 0.  1.
    8880023    1    1    2    0    0 -0.66697592939E+02 -0.16267899099E+03 -0.25965590200E+01  0.68171106152E+03  0.65864270000E+03 0.  1.
    8880022    1    1    2    0    0  0.66697592939E+02  0.16267899099E+03  0.23973102591E+03  0.33432864192E+03  0.15294330000E+03 0.  0.
<mgrwt>
<rscale>  0 0.52125778E+03</rscale>
<asrwt>0</asrwt>
<pdfrwt beam="1">  1        2 0.96398012E-01 0.68170612E+03</pdfrwt>
<pdfrwt beam="2">  1       -2 0.59915788E-01 0.68170612E+03</pdfrwt>
<totfact> 0.12403544E+02</totfact>
</mgrwt>
</event>
<event>
 4    1  0.1998832E-007  0.9422863E+03  0.7818608E-02  0.9461300E-01
         -2   -1    0    0    0  501 -0.00000000000E+00  0.00000000000E+00  0.80040317578E+03  0.80040317578E+03  0.25500000000E-02 0.  1.
          2   -1    0    0  501    0  0.00000000000E+00 -0.00000000000E+00 -0.15475029823E+04  0.15475029823E+04  0.25500000000E-02 0. -1.
    8880023    1    1    2    0    0  0.57407810480E+02 -0.67141457153E+03  0.38798248387E+03  0.10190357195E+04  0.65864270000E+03 0.  0.
    8880022    1    1    2    0    0 -0.57407810480E+02  0.67141457153E+03 -0.11350822904E+04  0.13288704386E+04  0.15294330000E+03 0.  0.
<mgrwt>
<rscale>  0 0.87198114E+03</rscale>
<asrwt>0</asrwt>
<pdfrwt beam="1">  1        2 0.23807738E+00 0.94228626E+03</pdfrwt>
<pdfrwt beam="2">  1       -2 0.12313895E+00 0.94228626E+03</pdfrwt>
<totfact> 0.59457637E+00</totfact>
</mgrwt>
</event>
<event>
 4    1  0.1998832E-007  0.6723945E+03  0.7818608E-02  0.1014001E+00
          2   -1    0    0  501    0  0.00000000000E+00  0.00000000000E+00  0.20427170077E+04  0.20427170077E+04  0.25500000000E-02 0. -1.
         -2   -1    0    0    0  501 -0.00000000000E+00 -0.00000000000E+00 -0.64840610467E+03  0.64840610467E+03  0.25500000000E-02 0.  1.
    8880023    1    1    2    0    0 -0.99305581682E+02 -0.91883624547E+02 -0.46699074653E+03  0.81865423875E+03  0.65864270000E+03 0.  1.
    8880022    1    1    2    0    0  0.99305581682E+02  0.91883624547E+02  0.18613016496E+04  0.18724688736E+04  0.15294330000E+03 0.  0.
<mgrwt>
<rscale>  0 0.49914846E+03</rscale>
<asrwt>0</asrwt>
<pdfrwt beam="1">  1        2 0.31426415E+00 0.67239453E+03</pdfrwt>
<pdfrwt beam="2">  1       -2 0.99754786E-01 0.67239453E+03</pdfrwt>
<totfact> 0.55241344E+00</totfact>
</mgrwt>
</event>
<event>
 4    1  0.1998832E-007  0.1231420E+04  0.7818608E-02  0.9127169E-01
         -2   -1    0    0    0  501 -0.00000000000E+00  0.00000000000E+00  0.17074830405E+04  0.17074830405E+04  0.25500000000E-02 0.  1.
          2   -1    0    0  501    0  0.00000000000E+00 -0.00000000000E+00 -0.16991879874E+04  0.16991879875E+04  0.25500000000E-02 0. -1.
    8880023    1    1    2    0    0  0.33394265210E+03  0.98542720329E+03  0.12667470920E+04  0.17666473528E+04  0.65864270000E+03 0.  0.
    8880022    1    1    2    0    0 -0.33394265210E+03 -0.98542720329E+03 -0.12584520389E+04  0.16400236752E+04  0.15294330000E+03 0.  0.
<mgrwt>
<rscale>  0 0.11837849E+04</rscale>
<asrwt>0</asrwt>
<pdfrwt beam="1">  1        2 0.26141354E+00 0.12314198E+04</pdfrwt>
<pdfrwt beam="2">  1       -2 0.26268970E+00 0.12314198E+04</pdfrwt>
<totfact> 0.51080813E-01</totfact>
</mgrwt>
</event>
<event>
 4    1  0.1998832E-007  0.7364641E+03  0.7818608E-02  0.9870369E-01
          2   -1    0    0  501    0  0.00000000000E+00  0.00000000000E+00  0.44070419820E+04  0.44070419820E+04  0.25500000000E-02 0. -1.
         -2   -1    0    0    0  501 -0.00000000000E+00 -0.00000000000E+00 -0.13795858880E+03  0.13795858883E+03  0.25500000000E-02 0.  1.
    8880023    1    1    2    0    0  0.15280147345E+03  0.29192609877E+03  0.93034638691E+03  0.11865596249E+04  0.65864270000E+03 0.  0.
    8880022    1    1    2    0    0 -0.15280147345E+03 -0.29192609877E+03  0.33387370063E+04  0.33584409460E+04  0.15294330000E+03 0.  0.
<mgrwt>
<rscale>  0 0.61719058E+03</rscale>
<asrwt>0</asrwt>
<pdfrwt beam="1">  1        2 0.67800634E+00 0.73646408E+03</pdfrwt>
<pdfrwt beam="2">  1       -2 0.21224402E-01 0.73646408E+03</pdfrwt>
<totfact> 0.32842477E+00</totfact>
</mgrwt>
</event>
<event>
 4    1  0.1998832E-007  0.7040754E+03  0.7818608E-02  0.9980697E-01
          2   -1    0    0  501    0  0.00000000000E+00  0.00000000000E+00  0.22803822940E+04  0.22803822940E+04  0.25500000000E-02 0. -1.
         -2   -1    0    0    0  501 -0.00000000000E+00 -0.00000000000E+00 -0.95262840703E+03  0.95262840703E+03  0.25500000000E-02 0.  1.
    8880023    1    1    2    0    0  0.24642338885E+03 -0.34459413513E+02 -0.81124162266E+03  0.10741671724E+04  0.65864270000E+03 0.  1.
    8880022    1    1    2    0    0 -0.24642338885E+03  0.34459413513E+02  0.21389955097E+04  0.21588435286E+04  0.15294330000E+03 0.  0.
<mgrwt>
<rscale>  0 0.56504792E+03</rscale>
<asrwt>0</asrwt>
<pdfrwt beam="1">  1        2 0.35082804E+00 0.70407538E+03</pdfrwt>
<pdfrwt beam="2">  1       -2 0.14655822E+00 0.70407538E+03</pdfrwt>
<totfact> 0.15638185E+00</totfact>
</mgrwt>
</event>
<event>
 4    1  0.1998832E-007  0.8379035E+03  0.7818608E-02  0.9634146E-01
          2   -1    0    0  501    0  0.00000000000E+00  0.00000000000E+00  0.26154503827E+04  0.26154503827E+04  0.25500000000E-02 0. -1.
         -2   -1    0    0    0  501 -0.00000000000E+00 -0.00000000000E+00 -0.43206558174E+03  0.43206558175E+03  0.25500000000E-02 0.  1.
    8880023    1    1    2    0    0  0.47385705073E+03 -0.20912109965E+03  0.41865432472E+02  0.83894878243E+03  0.65864270000E+03 0.  0.
    8880022    1    1    2    0    0 -0.47385705073E+03  0.20912109965E+03  0.21415193685E+04  0.22085671820E+04  0.15294330000E+03 0.  0.
<mgrwt>
<rscale>  0 0.75076814E+03</rscale>
<asrwt>0</asrwt>
<pdfrwt beam="1">  1        2 0.40237698E+00 0.83790354E+03</pdfrwt>
<pdfrwt beam="2">  1       -2 0.66471629E-01 0.83790354E+03</pdfrwt>
<totfact> 0.64321334E+00</totfact>
</mgrwt>
</event>
<event>
 4    1  0.1998832E-007  0.7715322E+03  0.7818608E-02  0.9776118E-01
         -2   -1    0    0    0  501 -0.00000000000E+00  0.00000000000E+00  0.65267452535E+03  0.65267452535E+03  0.25500000000E-02 0.  1.
          2   -1    0    0  501    0  0.00000000000E+00 -0.00000000000E+00 -0.17289172052E+04  0.17289172052E+04  0.25500000000E-02 0. -1.
    8880023    1    1    2    0    0 -0.22750228104E+03  0.33120146567E+03  0.38226315229E+03  0.86103833980E+03  0.65864270000E+03 0.  1.
    8880022    1    1    2    0    0  0.22750228104E+03 -0.33120146567E+03 -0.14585058321E+04  0.15205533907E+04  0.15294330000E+03 0.  0.
<mgrwt>
<rscale>  0 0.66660108E+03</rscale>
<asrwt>0</asrwt>
<pdfrwt beam="1">  1        2 0.26598726E+00 0.77153218E+03</pdfrwt>
<pdfrwt beam="2">  1       -2 0.10041147E+00 0.77153218E+03</pdfrwt>
<totfact> 0.79328742E+00</totfact>
</mgrwt>
</event>
<event>
 4    1  0.1998832E-007  0.8256862E+03  0.7818608E-02  0.9657785E-01
          2   -1    0    0  501    0  0.00000000000E+00  0.00000000000E+00  0.18394205580E+04  0.18394205580E+04  0.25500000000E-02 0. -1.
         -2   -1    0    0    0  501 -0.00000000000E+00 -0.00000000000E+00 -0.40795588244E+03  0.40795588244E+03  0.25500000000E-02 0.  1.
    8880023    1    1    2    0    0 -0.23813167810E+03  0.43731088251E+03  0.11759996056E+03  0.83401886134E+03  0.65864270000E+03 0.  1.
    8880022    1    1    2    0    0  0.23813167810E+03 -0.43731088251E+03  0.13138647150E+04  0.14133575791E+04  0.15294330000E+03 0.  0.
<mgrwt>
<rscale>  0 0.73586870E+03</rscale>
<asrwt>0</asrwt>
<pdfrwt beam="1">  1        2 0.28298777E+00 0.82568621E+03</pdfrwt>
<pdfrwt beam="2">  1       -2 0.62762445E-01 0.82568621E+03</pdfrwt>
<totfact> 0.19710336E+01</totfact>
</mgrwt>
</event>
<event>
 4    1  0.1998832E-007  0.1114148E+04  0.7818608E-02  0.9245465E-01
          2   -1    0    0  501    0  0.00000000000E+00  0.00000000000E+00  0.20041195700E+04  0.20041195700E+04  0.25500000000E-02 0. -1.
         -2   -1    0    0    0  501 -0.00000000000E+00 -0.00000000000E+00 -0.94067159341E+03  0.94067159342E+03  0.25500000000E-02 0.  1.
    8880023    1    1    2    0    0  0.86155555785E+03  0.25541726184E+03 -0.43073192766E+03  0.11945108441E+04  0.65864270000E+03 0.  1.
    8880022    1    1    2    0    0 -0.86155555785E+03 -0.25541726184E+03  0.14941799042E+04  0.17502803193E+04  0.15294330000E+03 0.  0.
<mgrwt>
<rscale>  0 0.10596228E+04</rscale>
<asrwt>0</asrwt>
<pdfrwt beam="1">  1        2 0.30832608E+00 0.11141482E+04</pdfrwt>
<pdfrwt beam="2">  1       -2 0.14471871E+00 0.11141482E+04</pdfrwt>
<totfact> 0.21528354E+00</totfact>
</mgrwt>
</event>
<event>
 4    1  0.2063487E-007  0.7785454E+03  0.7818608E-02  0.9759265E-01
         -2   -1    0    0    0  501 -0.00000000000E+00  0.00000000000E+00  0.17924130919E+04  0.17924130919E+04  0.25500000000E-02 0.  1.
          2   -1    0    0  501    0  0.00000000000E+00 -0.00000000000E+00 -0.19308593149E+04  0.19308593149E+04  0.25500000000E-02 0. -1.
    8880023    1    1    2    0    0  0.30724691824E+03  0.27914513665E+03  0.16800831888E+04  0.18517052691E+04  0.65864270000E+03 0.  1.
    8880022    1    1    2    0    0 -0.30724691824E+03 -0.27914513665E+03 -0.18185294118E+04  0.18715671376E+04  0.15294330000E+03 0.  0.
<mgrwt>
<rscale>  0 0.67595186E+03</rscale>
<asrwt>0</asrwt>
<pdfrwt beam="1">  1        2 0.29705528E+00 0.77854536E+03</pdfrwt>
<pdfrwt beam="2">  1       -2 0.27575586E+00 0.77854536E+03</pdfrwt>
<totfact> 0.34306037E-01</totfact>
</mgrwt>
</event>
<event>
 4    1  0.2083083E-007  0.1344855E+04  0.7818608E-02  0.9027761E-01
         -2   -1    0    0    0  501 -0.00000000000E+00  0.00000000000E+00  0.20032106918E+04  0.20032106918E+04  0.25500000000E-02 0.  1.
          2   -1    0    0  501    0  0.00000000000E+00 -0.00000000000E+00 -0.21460032583E+04  0.21460032583E+04  0.25500000000E-02 0. -1.
    8880023    1    1    2    0    0 -0.53172218547E+02  0.11713231613E+04  0.15704076424E+04  0.20675627204E+04  0.65864270000E+03 0.  0.
    8880022    1    1    2    0    0  0.53172218547E+02 -0.11713231613E+04 -0.17132002089E+04  0.20816512297E+04  0.15294330000E+03 0.  0.
<mgrwt>
<rscale>  0 0.13022773E+04</rscale>
<asrwt>0</asrwt>
<pdfrwt beam="1">  1        2 0.33015435E+00 0.13448552E+04</pdfrwt>
<pdfrwt beam="2">  1       -2 0.30818626E+00 0.13448552E+04</pdfrwt>
<totfact> 0.15013778E-01</totfact>
</mgrwt>
</event>
<event>
 4    1  0.1998832E-007  0.7533203E+03  0.7818608E-02  0.9822718E-01
          2   -1    0    0  501    0  0.00000000000E+00  0.00000000000E+00  0.25128113707E+04  0.25128113707E+04  0.25500000000E-02 0. -1.
         -2   -1    0    0    0  501 -0.00000000000E+00 -0.00000000000E+00 -0.40341267556E+03  0.40341267557E+03  0.25500000000E-02 0.  1.
    8880023    1    1    2    0    0 -0.36485383384E+03  0.23727462346E+02 -0.16696149006E+02  0.75350532857E+03  0.65864270000E+03 0.  1.
    8880022    1    1    2    0    0  0.36485383384E+03 -0.23727462346E+02  0.21260948441E+04  0.21627187177E+04  0.15294330000E+03 0.  0.
<mgrwt>
<rscale>  0 0.64157502E+03</rscale>
<asrwt>0</asrwt>
<pdfrwt beam="1">  1        2 0.38658637E+00 0.75332033E+03</pdfrwt>
<pdfrwt beam="2">  1       -2 0.62063488E-01 0.75332033E+03</pdfrwt>
<totfact> 0.86501556E+00</totfact>
</mgrwt>
</event>
<event>
 4    1  0.1998832E-007  0.1271621E+04  0.7818608E-02  0.9090463E-01
          2   -1    0    0  501    0  0.00000000000E+00  0.00000000000E+00  0.18379875469E+04  0.18379875469E+04  0.25500000000E-02 0. -1.
         -2   -1    0    0    0  501 -0.00000000000E+00 -0.00000000000E+00 -0.14277045701E+04  0.14277045701E+04  0.25500000000E-02 0.  1.
    8880023    1    1    2    0    0 -0.62371944620E+03 -0.89116965864E+03 -0.89850763840E+03  0.15570277745E+04  0.65864270000E+03 0.  1.
    8880022    1    1    2    0    0  0.62371944620E+03  0.89116965864E+03  0.13087906152E+04  0.17086643426E+04  0.15294330000E+03 0.  0.
<mgrwt>
<rscale>  0 0.12259244E+04</rscale>
<asrwt>0</asrwt>
<pdfrwt beam="1">  1        2 0.28276731E+00 0.12716208E+04</pdfrwt>
<pdfrwt beam="2">  1       -2 0.21964686E+00 0.12716208E+04</pdfrwt>
<totfact> 0.78586390E-01</totfact>
</mgrwt>
</event>
<event>
 4    1  0.1998832E-007  0.6621408E+03  0.7818608E-02  0.1022063E+00
         -2   -1    0    0    0  501 -0.00000000000E+00  0.00000000000E+00  0.11312919589E+04  0.11312919589E+04  0.25500000000E-02 0.  1.
          2   -1    0    0  501    0  0.00000000000E+00 -0.00000000000E+00 -0.61680396050E+03  0.61680396050E+03  0.25500000000E-02 0. -1.
    8880023    1    1    2    0    0  0.20129948468E+02  0.64922868307E+02  0.10197349639E+04  0.12158494136E+04  0.65864270000E+03 0.  1.
    8880022    1    1    2    0    0 -0.20129948468E+02 -0.64922868307E+02 -0.50524696557E+03  0.53224650575E+03  0.15294330000E+03 0.  0.
<mgrwt>
<rscale>  0 0.46949445E+03</rscale>
<asrwt>0</asrwt>
<pdfrwt beam="1">  1        2 0.94892919E-01 0.66214077E+03</pdfrwt>
<pdfrwt beam="2">  1       -2 0.17404491E+00 0.66214077E+03</pdfrwt>
<totfact> 0.98296147E+00</totfact>
</mgrwt>
</event>
<event>
 4    1  0.1998832E-007  0.1102070E+04  0.7818608E-02  0.9258755E-01
         -2   -1    0    0    0  501 -0.00000000000E+00  0.00000000000E+00  0.11230256816E+04  0.11230256816E+04  0.25500000000E-02 0.  1.
          2   -1    0    0  501    0  0.00000000000E+00 -0.00000000000E+00 -0.29093446594E+04  0.29093446594E+04  0.25500000000E-02 0. -1.
    8880023    1    1    2    0    0 -0.70475895301E+03 -0.53297592582E+03  0.75605757335E+03  0.13364811184E+04  0.65864270000E+03 0.  1.
    8880022    1    1    2    0    0  0.70475895301E+03  0.53297592582E+03 -0.25423765512E+04  0.26958892225E+04  0.15294330000E+03 0.  0.
<mgrwt>
<rscale>  0 0.10467029E+04</rscale>
<asrwt>0</asrwt>
<pdfrwt beam="1">  1        2 0.44759148E+00 0.11020702E+04</pdfrwt>
<pdfrwt beam="2">  1       -2 0.17277318E+00 0.11020702E+04</pdfrwt>
<totfact> 0.40264350E-01</totfact>
</mgrwt>
</event>
<event>
 4    1  0.1998832E-007  0.7202699E+03  0.7818608E-02  0.9921674E-01
         -2   -1    0    0    0  501 -0.00000000000E+00  0.00000000000E+00  0.25460209631E+03  0.25460209632E+03  0.25500000000E-02 0.  1.
          2   -1    0    0  501    0  0.00000000000E+00 -0.00000000000E+00 -0.17932196856E+04  0.17932196856E+04  0.25500000000E-02 0. -1.
    8880023    1    1    2    0    0 -0.22951217196E+03  0.17972947698E+03 -0.32472842150E+03  0.79008687875E+03  0.65864270000E+03 0.  0.
    8880022    1    1    2    0    0  0.22951217196E+03 -0.17972947698E+03 -0.12138891678E+04  0.12577349032E+04  0.15294330000E+03 0.  0.
<mgrwt>
<rscale>  0 0.59222287E+03</rscale>
<asrwt>0</asrwt>
<pdfrwt beam="1">  1        2 0.27587994E+00 0.72026990E+03</pdfrwt>
<pdfrwt beam="2">  1       -2 0.39169554E-01 0.72026990E+03</pdfrwt>
<totfact> 0.55202415E+01</totfact>
</mgrwt>
</event>
<event>
 4    1  0.1998832E-007  0.1008956E+04  0.7818608E-02  0.9369933E-01
          2   -1    0    0  501    0  0.00000000000E+00  0.00000000000E+00  0.22459662130E+04  0.22459662130E+04  0.25500000000E-02 0. -1.
         -2   -1    0    0    0  501 -0.00000000000E+00 -0.00000000000E+00 -0.56521253125E+03  0.56521253125E+03  0.25500000000E-02 0.  1.
    8880023    1    1    2    0    0 -0.32872692932E+03  0.69001483967E+03  0.57637190715E+02  0.10106008733E+04  0.65864270000E+03 0.  0.
    8880022    1    1    2    0    0  0.32872692932E+03 -0.69001483967E+03  0.16231164911E+04  0.18005778710E+04  0.15294330000E+03 0.  0.
<mgrwt>
<rscale>  0 0.94591912E+03</rscale>
<asrwt>0</asrwt>
<pdfrwt beam="1">  1        2 0.34553326E+00 0.10089559E+04</pdfrwt>
<pdfrwt beam="2">  1       -2 0.86955775E-01 0.10089559E+04</pdfrwt>
<totfact> 0.55870710E+00</totfact>
</mgrwt>
</event>
<event>
 4    1  0.1998832E-007  0.2382271E+04  0.7818608E-02  0.8454624E-01
         -2   -1    0    0    0  501 -0.00000000000E+00  0.00000000000E+00  0.16501868181E+04  0.16501868181E+04  0.25500000000E-02 0.  1.
          2   -1    0    0  501    0  0.00000000000E+00 -0.00000000000E+00 -0.38793469060E+04  0.38793469061E+04  0.25500000000E-02 0. -1.
    8880023    1    1    2    0    0  0.22148450834E+03  0.22786722444E+04 -0.76792974391E+02  0.23835079090E+04  0.65864270000E+03 0.  0.
    8880022    1    1    2    0    0 -0.22148450834E+03 -0.22786722444E+04 -0.21523671136E+04  0.31460258152E+04  0.15294330000E+03 0.  0.
<mgrwt>
<rscale>  0 0.23600216E+04</rscale>
<asrwt>0</asrwt>
<pdfrwt beam="1">  1        2 0.59682260E+00 0.23822705E+04</pdfrwt>
<pdfrwt beam="2">  1       -2 0.25387490E+00 0.23822705E+04</pdfrwt>
<totfact> 0.22169601E-02</totfact>
</mgrwt>
</event>
<event>
 4    1  0.1998832E-007  0.1185024E+04  0.7818608E-02  0.9171819E-01
          2   -1    0    0  501    0  0.00000000000E+00  0.00000000000E+00  0.26396722981E+04  0.26396722981E+04  0.25500000000E-02 0. -1.
         -2   -1    0    0    0  501 -0.00000000000E+00 -0.00000000000E+00 -0.57184099219E+03  0.57184099220E+03  0.25500000000E-02 0.  1.
    8880023    1    1    2    0    0 -0.98441474231E+03 -0.37401571729E+02  0.36789709316E+03  0.12408181736E+04  0.65864270000E+03 0.  0.
    8880022    1    1    2    0    0  0.98441474231E+03  0.37401571729E+02  0.16999342128E+04  0.19706951168E+04  0.15294330000E+03 0.  0.
<mgrwt>
<rscale>  0 0.11349092E+04</rscale>
<asrwt>0</asrwt>
<pdfrwt beam="1">  1        2 0.40610342E+00 0.11850238E+04</pdfrwt>
<pdfrwt beam="2">  1       -2 0.87975539E-01 0.11850238E+04</pdfrwt>
<totfact> 0.31748867E+00</totfact>
</mgrwt>
</event>
<event>
 4    1  0.1998832E-007  0.7783756E+03  0.7818608E-02  0.9759667E-01
         -2   -1    0    0    0  501 -0.00000000000E+00  0.00000000000E+00  0.62855835889E+03  0.62855835890E+03  0.25500000000E-02 0.  1.
          2   -1    0    0  501    0  0.00000000000E+00 -0.00000000000E+00 -0.16665236418E+04  0.16665236418E+04  0.25500000000E-02 0. -1.
    8880023    1    1    2    0    0 -0.10917155928E+03  0.40017479988E+03  0.33892053061E+03  0.84896150216E+03  0.65864270000E+03 0.  0.
    8880022    1    1    2    0    0  0.10917155928E+03 -0.40017479988E+03 -0.13768858135E+04  0.14461204985E+04  0.15294330000E+03 0.  0.
<mgrwt>
<rscale>  0 0.67572710E+03</rscale>
<asrwt>0</asrwt>
<pdfrwt beam="1">  1        2 0.25638825E+00 0.77837556E+03</pdfrwt>
<pdfrwt beam="2">  1       -2 0.96701287E-01 0.77837556E+03</pdfrwt>
<totfact> 0.93712533E+00</totfact>
</mgrwt>
</event>
<event>
 4    1  0.1998832E-007  0.9601735E+03  0.7818608E-02  0.9435625E-01
          2   -1    0    0  501    0  0.00000000000E+00  0.00000000000E+00  0.10583258536E+04  0.10583258536E+04  0.25500000000E-02 0. -1.
         -2   -1    0    0    0  501 -0.00000000000E+00 -0.00000000000E+00 -0.14471006765E+04  0.14471006765E+04  0.25500000000E-02 0.  1.
    8880023    1    1    2    0    0  0.32067172315E+03 -0.62071938591E+03 -0.11249762911E+04  0.14790215589E+04  0.65864270000E+03 0.  1.
    8880022    1    1    2    0    0 -0.32067172315E+03  0.62071938591E+03  0.73620146812E+03  0.10264049711E+04  0.15294330000E+03 0.  0.
<mgrwt>
<rscale>  0 0.89200961E+03</rscale>
<asrwt>0</asrwt>
<pdfrwt beam="1">  1        2 0.16281936E+00 0.96017348E+03</pdfrwt>
<pdfrwt beam="2">  1       -2 0.22263087E+00 0.96017348E+03</pdfrwt>
<totfact> 0.21970683E+00</totfact>
</mgrwt>
</event>
<event>
 4    1  0.1998832E-007  0.8041561E+03  0.7818608E-02  0.9701881E-01
         -2   -1    0    0    0  501 -0.00000000000E+00  0.00000000000E+00  0.84438808435E+03  0.84438808435E+03  0.25500000000E-02 0.  1.
          2   -1    0    0  501    0  0.00000000000E+00 -0.00000000000E+00 -0.11530278990E+04  0.11530278990E+04  0.25500000000E-02 0. -1.
    8880023    1    1    2    0    0 -0.29559481883E+03  0.35423231635E+03  0.57523139974E+03  0.98871542942E+03  0.65864270000E+03 0.  1.
    8880022    1    1    2    0    0  0.29559481883E+03 -0.35423231635E+03 -0.88387121438E+03  0.10087005539E+04  0.15294330000E+03 0.  0.
<mgrwt>
<rscale>  0 0.70904925E+03</rscale>
<asrwt>0</asrwt>
<pdfrwt beam="1">  1        2 0.17738891E+00 0.80415610E+03</pdfrwt>
<pdfrwt beam="2">  1       -2 0.12990586E+00 0.80415610E+03</pdfrwt>
<totfact> 0.89081741E+00</totfact>
</mgrwt>
</event>
<event>
 4    1  0.1998832E-007  0.1096750E+04  0.7818608E-02  0.9264683E-01
          2   -1    0    0  501    0  0.00000000000E+00  0.00000000000E+00  0.22980414702E+04  0.22980414702E+04  0.25500000000E-02 0. -1.
         -2   -1    0    0    0  501 -0.00000000000E+00 -0.00000000000E+00 -0.58559306557E+03  0.58559306558E+03  0.25500000000E-02 0.  1.
    8880023    1    1    2    0    0  0.54954917772E+02  0.87523194674E+03  0.18004305570E+03  0.11114300301E+04  0.65864270000E+03 0.  0.
    8880022    1    1    2    0    0 -0.54954917772E+02 -0.87523194674E+03  0.15324053489E+04  0.17722045057E+04  0.15294330000E+03 0.  0.
<mgrwt>
<rscale>  0 0.10410026E+04</rscale>
<asrwt>0</asrwt>
<pdfrwt beam="1">  1        2 0.35354484E+00 0.10967503E+04</pdfrwt>
<pdfrwt beam="2">  1       -2 0.90091241E-01 0.10967503E+04</pdfrwt>
<totfact> 0.47632954E+00</totfact>
</mgrwt>
</event>
<event>
 4    1  0.1998832E-007  0.9719070E+03  0.7818608E-02  0.9419272E-01
         -2   -1    0    0    0  501 -0.00000000000E+00  0.00000000000E+00  0.76343982515E+03  0.76343982516E+03  0.25500000000E-02 0.  1.
          2   -1    0    0  501    0  0.00000000000E+00 -0.00000000000E+00 -0.11929426871E+04  0.11929426871E+04  0.25500000000E-02 0. -1.
    8880023    1    1    2    0    0  0.50901183392E+03  0.50169705275E+03  0.19942371762E+03  0.99215573637E+03  0.65864270000E+03 0.  0.
    8880022    1    1    2    0    0 -0.50901183392E+03 -0.50169705275E+03 -0.62892657953E+03  0.96422677585E+03  0.15294330000E+03 0.  0.
<mgrwt>
<rscale>  0 0.90506538E+03</rscale>
<asrwt>0</asrwt>
<pdfrwt beam="1">  1        2 0.18352964E+00 0.97190698E+03</pdfrwt>
<pdfrwt beam="2">  1       -2 0.11745228E+00 0.97190698E+03</pdfrwt>
<totfact> 0.10661033E+01</totfact>
</mgrwt>
</event>
<event>
 4    1  0.1998832E-007  0.8273635E+03  0.7818608E-02  0.9654484E-01
         -2   -1    0    0    0  501 -0.00000000000E+00  0.00000000000E+00  0.10816922690E+04  0.10816922690E+04  0.25500000000E-02 0.  1.
          2   -1    0    0  501    0  0.00000000000E+00 -0.00000000000E+00 -0.80088482864E+03  0.80088482865E+03  0.25500000000E-02 0. -1.
    8880023    1    1    2    0    0  0.46767980241E+03 -0.17887352426E+03  0.79595768256E+03  0.11480762056E+04  0.65864270000E+03 0.  0.
    8880022    1    1    2    0    0 -0.46767980241E+03  0.17887352426E+03 -0.51515024222E+03  0.73450089199E+03  0.15294330000E+03 0.  0.
<mgrwt>
<rscale>  0 0.73792671E+03</rscale>
<asrwt>0</asrwt>
<pdfrwt beam="1">  1        2 0.12321305E+00 0.82736349E+03</pdfrwt>
<pdfrwt beam="2">  1       -2 0.16641419E+00 0.82736349E+03</pdfrwt>
<totfact> 0.78454558E+00</totfact>
</mgrwt>
</event>
<event>
 4    1  0.1998832E-007  0.1148552E+04  0.7818608E-02  0.9208833E-01
         -2   -1    0    0    0  501 -0.00000000000E+00  0.00000000000E+00  0.15151781299E+04  0.15151781299E+04  0.25500000000E-02 0.  1.
          2   -1    0    0  501    0  0.00000000000E+00 -0.00000000000E+00 -0.18600866168E+04  0.18600866168E+04  0.25500000000E-02 0. -1.
    8880023    1    1    2    0    0  0.83085854346E+03 -0.44162701825E+03  0.11351021276E+04  0.16148149705E+04  0.65864270000E+03 0.  0.
    8880022    1    1    2    0    0 -0.83085854346E+03  0.44162701825E+03 -0.14800106146E+04  0.17604497762E+04  0.15294330000E+03 0.  0.
<mgrwt>
<rscale>  0 0.10962725E+04</rscale>
<asrwt>0</asrwt>
<pdfrwt beam="1">  1        2 0.28616717E+00 0.11485515E+04</pdfrwt>
<pdfrwt beam="2">  1       -2 0.23310433E+00 0.11485515E+04</pdfrwt>
<totfact> 0.63905007E-01</totfact>
</mgrwt>
</event>
<event>
 4    1  0.1998832E-007  0.1330700E+04  0.7818608E-02  0.9039492E-01
          2   -1    0    0  501    0  0.00000000000E+00  0.00000000000E+00  0.19747021502E+04  0.19747021502E+04  0.25500000000E-02 0. -1.
         -2   -1    0    0    0  501 -0.00000000000E+00 -0.00000000000E+00 -0.11367531870E+04  0.11367531870E+04  0.25500000000E-02 0.  1.
    8880023    1    1    2    0    0 -0.98334345338E+03 -0.60826680567E+03 -0.42057432126E+03  0.13955808182E+04  0.65864270000E+03 0.  1.
    8880022    1    1    2    0    0  0.98334345338E+03  0.60826680567E+03  0.12585232845E+04  0.17158745190E+04  0.15294330000E+03 0.  0.
<mgrwt>
<rscale>  0 0.12875565E+04</rscale>
<asrwt>0</asrwt>
<pdfrwt beam="1">  1        2 0.30380033E+00 0.13307002E+04</pdfrwt>
<pdfrwt beam="2">  1       -2 0.17488510E+00 0.13307002E+04</pdfrwt>
<totfact> 0.13009373E+00</totfact>
</mgrwt>
</event>
<event>
 4    1  0.1998832E-007  0.1083841E+04  0.7818608E-02  0.9279264E-01
          2   -1    0    0  501    0  0.00000000000E+00  0.00000000000E+00  0.86204049453E+03  0.86204049454E+03  0.25500000000E-02 0. -1.
         -2   -1    0    0    0  501 -0.00000000000E+00 -0.00000000000E+00 -0.26127224580E+04  0.26127224580E+04  0.25500000000E-02 0.  1.
    8880023    1    1    2    0    0 -0.85788354470E+03  0.70269214806E+02 -0.22287749272E+04  0.24783360994E+04  0.65864270000E+03 0.  0.
    8880022    1    1    2    0    0  0.85788354470E+03 -0.70269214806E+02  0.47809296374E+03  0.99642685321E+03  0.15294330000E+03 0.  0.
<mgrwt>
<rscale>  0 0.10271452E+04</rscale>
<asrwt>0</asrwt>
<pdfrwt beam="1">  1        2 0.13262162E+00 0.10838414E+04</pdfrwt>
<pdfrwt beam="2">  1       -2 0.40195730E+00 0.10838414E+04</pdfrwt>
<totfact> 0.22527350E-01</totfact>
</mgrwt>
</event>
<event>
 4    1  0.1998832E-007  0.7175383E+03  0.7818608E-02  0.9931005E-01
          2   -1    0    0  501    0  0.00000000000E+00  0.00000000000E+00  0.10050509148E+04  0.10050509148E+04  0.25500000000E-02 0. -1.
         -2   -1    0    0    0  501 -0.00000000000E+00 -0.00000000000E+00 -0.52972065848E+03  0.52972065849E+03  0.25500000000E-02 0.  1.
    8880023    1    1    2    0    0 -0.21838876040E+03  0.18264005863E+03 -0.23445863728E+03  0.75487224121E+03  0.65864270000E+03 0.  0.
    8880022    1    1    2    0    0  0.21838876040E+03 -0.18264005863E+03  0.70978889360E+03  0.77989933207E+03  0.15294330000E+03 0.  0.
<mgrwt>
<rscale>  0 0.58781895E+03</rscale>
<asrwt>0</asrwt>
<pdfrwt beam="1">  1        2 0.15462322E+00 0.71753833E+03</pdfrwt>
<pdfrwt beam="2">  1       -2 0.81495486E-01 0.71753833E+03</pdfrwt>
<totfact> 0.33782901E+01</totfact>
</mgrwt>
</event>
<event>
 4    1  0.1998832E-007  0.7838277E+03  0.7818608E-02  0.9746921E-01
          2   -1    0    0  501    0  0.00000000000E+00  0.00000000000E+00  0.11100878603E+04  0.11100878603E+04  0.25500000000E-02 0. -1.
         -2   -1    0    0    0  501 -0.00000000000E+00 -0.00000000000E+00 -0.12186975823E+04  0.12186975823E+04  0.25500000000E-02 0.  1.
    8880023    1    1    2    0    0  0.17071779762E+03  0.38914139989E+03 -0.10349175837E+04  0.12982450489E+04  0.65864270000E+03 0.  1.
    8880022    1    1    2    0    0 -0.17071779762E+03 -0.38914139989E+03  0.92630786172E+03  0.10305403938E+04  0.15294330000E+03 0.  0.
<mgrwt>
<rscale>  0 0.68290532E+03</rscale>
<asrwt>0</asrwt>
<pdfrwt beam="1">  1        2 0.17078275E+00 0.78382766E+03</pdfrwt>
<pdfrwt beam="2">  1       -2 0.18749194E+00 0.78382766E+03</pdfrwt>
<totfact> 0.35260811E+00</totfact>
</mgrwt>
</event>
<event>
 4    1  0.1998832E-007  0.1029878E+04  0.7818608E-02  0.9343472E-01
         -2   -1    0    0    0  501 -0.00000000000E+00  0.00000000000E+00  0.40907741406E+03  0.40907741407E+03  0.25500000000E-02 0.  1.
          2   -1    0    0  501    0  0.00000000000E+00 -0.00000000000E+00 -0.32359458047E+04  0.32359458047E+04  0.25500000000E-02 0. -1.
    8880023    1    1    2    0    0 -0.28590171243E+03 -0.73830735636E+03 -0.42980908141E+03  0.11159675597E+04  0.65864270000E+03 0.  0.
    8880022    1    1    2    0    0  0.28590171243E+03  0.73830735636E+03 -0.23970593092E+04  0.25290556590E+04  0.15294330000E+03 0.  0.
<mgrwt>
<rscale>  0 0.96877405E+03</rscale>
<asrwt>0</asrwt>
<pdfrwt beam="1">  1        2 0.49783780E+00 0.10298775E+04</pdfrwt>
<pdfrwt beam="2">  1       -2 0.62934989E-01 0.10298775E+04</pdfrwt>
<totfact> 0.29429426E+00</totfact>
</mgrwt>
</event>
<event>
 4    1  0.1998832E-007  0.9387646E+03  0.7818608E-02  0.9466467E-01
          2   -1    0    0  501    0  0.00000000000E+00  0.00000000000E+00  0.13779696062E+04  0.13779696062E+04  0.25500000000E-02 0. -1.
         -2   -1    0    0    0  501 -0.00000000000E+00 -0.00000000000E+00 -0.14577741818E+04  0.14577741818E+04  0.25500000000E-02 0.  1.
    8880023    1    1    2    0    0  0.57472880015E+03 -0.34227998387E+03 -0.11990921777E+04  0.15228594938E+04  0.65864270000E+03 0.  0.
    8880022    1    1    2    0    0 -0.57472880015E+03  0.34227998387E+03  0.11192876020E+04  0.13128842943E+04  0.15294330000E+03 0.  0.
<mgrwt>
<rscale>  0 0.86801865E+03</rscale>
<asrwt>0</asrwt>
<pdfrwt beam="1">  1        2 0.21199532E+00 0.93876461E+03</pdfrwt>
<pdfrwt beam="2">  1       -2 0.22427295E+00 0.93876461E+03</pdfrwt>
<totfact> 0.13882769E+00</totfact>
</mgrwt>
</event>
<event>
 4    1  0.1998832E-007  0.1116293E+04  0.7818608E-02  0.9243129E-01
          2   -1    0    0  501    0  0.00000000000E+00  0.00000000000E+00  0.17697606355E+04  0.17697606355E+04  0.25500000000E-02 0. -1.
         -2   -1    0    0    0  501 -0.00000000000E+00 -0.00000000000E+00 -0.96508327191E+03  0.96508327192E+03  0.25500000000E-02 0.  1.
    8880023    1    1    2    0    0  0.12279941735E+03 -0.89287183764E+03 -0.43199939840E+03  0.11969684632E+04  0.65864270000E+03 0.  0.
    8880022    1    1    2    0    0 -0.12279941735E+03  0.89287183764E+03  0.12366767620E+04  0.15378754442E+04  0.15294330000E+03 0.  0.
<mgrwt>
<rscale>  0 0.10619141E+04</rscale>
<asrwt>0</asrwt>
<pdfrwt beam="1">  1        2 0.27227086E+00 0.11162930E+04</pdfrwt>
<pdfrwt beam="2">  1       -2 0.14847435E+00 0.11162930E+04</pdfrwt>
<totfact> 0.27095203E+00</totfact>
</mgrwt>
</event>
<event>
 4    1  0.1998832E-007  0.7366876E+03  0.7818608E-02  0.9869703E-01
          2   -1    0    0  501    0  0.00000000000E+00  0.00000000000E+00  0.12720706595E+04  0.12720706595E+04  0.25500000000E-02 0. -1.
         -2   -1    0    0    0  501 -0.00000000000E+00 -0.00000000000E+00 -0.12232413099E+04  0.12232413099E+04  0.25500000000E-02 0.  1.
    8880023    1    1    2    0    0  0.83121960726E+02  0.31935731953E+03 -0.10811272562E+04  0.13082601837E+04  0.65864270000E+03 0.  1.
    8880022    1    1    2    0    0 -0.83121960726E+02 -0.31935731953E+03  0.11299566058E+04  0.11870517857E+04  0.15294330000E+03 0.  0.
<mgrwt>
<rscale>  0 0.61752335E+03</rscale>
<asrwt>0</asrwt>
<pdfrwt beam="1">  1        2 0.19570318E+00 0.73668756E+03</pdfrwt>
<pdfrwt beam="2">  1       -2 0.18819097E+00 0.73668756E+03</pdfrwt>
<totfact> 0.28148699E+00</totfact>
</mgrwt>
</event>
<event>
 4    1  0.1998832E-007  0.7289561E+03  0.7818608E-02  0.9893370E-01
         -2   -1    0    0    0  501 -0.00000000000E+00  0.00000000000E+00  0.77810552238E+03  0.77810552238E+03  0.25500000000E-02 0.  1.
          2   -1    0    0  501    0  0.00000000000E+00 -0.00000000000E+00 -0.48087600037E+03  0.48087600038E+03  0.25500000000E-02 0. -1.
    8880023    1    1    2    0    0 -0.79533332249E+00  0.31235572865E+03  0.47333053802E+03  0.86914828324E+03  0.65864270000E+03 0.  0.
    8880022    1    1    2    0    0  0.79533332249E+00 -0.31235572865E+03 -0.17610101602E+03  0.38983323952E+03  0.15294330000E+03 0.  0.
<mgrwt>
<rscale>  0 0.60583661E+03</rscale>
<asrwt>0</asrwt>
<pdfrwt beam="1">  1        2 0.73980924E-01 0.72895606E+03</pdfrwt>
<pdfrwt beam="2">  1       -2 0.11970854E+00 0.72895606E+03</pdfrwt>
<totfact> 0.34889293E+01</totfact>
</mgrwt>
</event>
<event>
 4    1  0.1998832E-007  0.8835500E+03  0.7818608E-02  0.9552973E-01
          2   -1    0    0  501    0  0.00000000000E+00  0.00000000000E+00  0.22114361504E+04  0.22114361504E+04  0.25500000000E-02 0. -1.
         -2   -1    0    0    0  501 -0.00000000000E+00 -0.00000000000E+00 -0.65186610433E+03  0.65186610433E+03  0.25500000000E-02 0.  1.
    8880023    1    1    2    0    0  0.58531018465E+03  0.65286493290E+02 -0.27908538967E+03  0.92657930014E+03  0.65864270000E+03 0.  1.
    8880022    1    1    2    0    0 -0.58531018465E+03 -0.65286493290E+02  0.18386554357E+04  0.19367229546E+04  0.15294330000E+03 0.  0.
<mgrwt>
<rscale>  0 0.80488539E+03</rscale>
<asrwt>0</asrwt>
<pdfrwt beam="1">  1        2 0.34022095E+00 0.88354997E+03</pdfrwt>
<pdfrwt beam="2">  1       -2 0.10028709E+00 0.88354997E+03</pdfrwt>
<totfact> 0.42561779E+00</totfact>
</mgrwt>
</event>
<event>
 4    1  0.1998832E-007  0.1161912E+04  0.7818608E-02  0.9195066E-01
         -2   -1    0    0    0  501 -0.00000000000E+00  0.00000000000E+00  0.13677934330E+04  0.13677934330E+04  0.25500000000E-02 0.  1.
          2   -1    0    0  501    0  0.00000000000E+00 -0.00000000000E+00 -0.29743349023E+04  0.29743349023E+04  0.25500000000E-02 0. -1.
    8880023    1    1    2    0    0  0.16920600473E+03 -0.94212490333E+03  0.10176960182E+04  0.15445858335E+04  0.65864270000E+03 0.  1.
    8880022    1    1    2    0    0 -0.16920600473E+03  0.94212490333E+03 -0.26242374875E+04  0.27975425018E+04  0.15294330000E+03 0.  0.
<mgrwt>
<rscale>  0 0.11104503E+04</rscale>
<asrwt>0</asrwt>
<pdfrwt beam="1">  1        2 0.45758998E+00 0.11619123E+04</pdfrwt>
<pdfrwt beam="2">  1       -2 0.21042976E+00 0.11619123E+04</pdfrwt>
<totfact> 0.20324976E-01</totfact>
</mgrwt>
</event>
<event>
 4    1  0.1998832E-007  0.1783599E+04  0.7818608E-02  0.8731664E-01
          2   -1    0    0  501    0  0.00000000000E+00  0.00000000000E+00  0.35156808488E+04  0.35156808488E+04  0.25500000000E-02 0. -1.
         -2   -1    0    0    0  501 -0.00000000000E+00 -0.00000000000E+00 -0.10015303684E+04  0.10015303684E+04  0.25500000000E-02 0.  1.
    8880023    1    1    2    0    0 -0.15656143150E+04  0.54430328299E+03  0.40264434106E+03  0.18284821352E+04  0.65864270000E+03 0.  1.
    8880022    1    1    2    0    0  0.15656143150E+04 -0.54430328299E+03  0.21115061393E+04  0.26887290820E+04  0.15294330000E+03 0.  0.
<mgrwt>
<rscale>  0 0.17530675E+04</rscale>
<asrwt>0</asrwt>
<pdfrwt beam="1">  1        2 0.54087397E+00 0.17835987E+04</pdfrwt>
<pdfrwt beam="2">  1       -2 0.15408160E+00 0.17835987E+04</pdfrwt>
<totfact> 0.20380766E-01</totfact>
</mgrwt>
</event>
<event>
 4    1  0.1998832E-007  0.2309152E+04  0.7818608E-02  0.8483403E-01
          2   -1    0    0  501    0  0.00000000000E+00  0.00000000000E+00  0.37172935880E+04  0.37172935880E+04  0.25500000000E-02 0. -1.
         -2   -1    0    0    0  501 -0.00000000000E+00 -0.00000000000E+00 -0.17990089434E+04  0.17990089434E+04  0.25500000000E-02 0.  1.
    8880023    1    1    2    0    0 -0.17173701646E+04 -0.13960704552E+04 -0.35915570813E+03  0.23369159221E+04  0.65864270000E+03 0.  0.
    8880022    1    1    2    0    0  0.17173701646E+04  0.13960704552E+04  0.22774403528E+04  0.31793866093E+04  0.15294330000E+03 0. -1.
<mgrwt>
<rscale>  0 0.22861489E+04</rscale>
<asrwt>0</asrwt>
<pdfrwt beam="1">  1        2 0.57189131E+00 0.23091521E+04</pdfrwt>
<pdfrwt beam="2">  1       -2 0.27677061E+00 0.23091521E+04</pdfrwt>
<totfact> 0.21421942E-02</totfact>
</mgrwt>
</event>
<event>
 4    1  0.1998832E-007  0.6720367E+03  0.7818608E-02  0.1014243E+00
         -2   -1    0    0    0  501 -0.00000000000E+00  0.00000000000E+00  0.43000443191E+03  0.43000443192E+03  0.25500000000E-02 0.  1.
          2   -1    0    0  501    0  0.00000000000E+00 -0.00000000000E+00 -0.74098178679E+03  0.74098178679E+03  0.25500000000E-02 0. -1.
    8880023    1    1    2    0    0 -0.10891383482E+03  0.77206812802E+02  0.13093417916E+03  0.68467297369E+03  0.65864270000E+03 0.  0.
    8880022    1    1    2    0    0  0.10891383482E+03 -0.77206812802E+02 -0.44191153404E+03  0.48631324503E+03  0.15294330000E+03 0.  0.
<mgrwt>
<rscale>  0 0.49822596E+03</rscale>
<asrwt>0</asrwt>
<pdfrwt beam="1">  1        2 0.11399720E+00 0.67203670E+03</pdfrwt>
<pdfrwt beam="2">  1       -2 0.66154528E-01 0.67203670E+03</pdfrwt>
<totfact> 0.81516824E+01</totfact>
</mgrwt>
</event>
<event>
 4    1  0.1998832E-007  0.1127379E+04  0.7818608E-02  0.9231168E-01
         -2   -1    0    0    0  501 -0.00000000000E+00  0.00000000000E+00  0.11622993758E+04  0.11622993758E+04  0.25500000000E-02 0.  1.
          2   -1    0    0  501    0  0.00000000000E+00 -0.00000000000E+00 -0.10063253996E+04  0.10063253996E+04  0.25500000000E-02 0. -1.
    8880023    1    1    2    0    0  0.84297600871E+03  0.35575994936E+03  0.42167300978E+03  0.12036577696E+04  0.65864270000E+03 0.  0.
    8880022    1    1    2    0    0 -0.84297600871E+03 -0.35575994936E+03 -0.26569903367E+03  0.96496700583E+03  0.15294330000E+03 0.  0.
<mgrwt>
<rscale>  0 0.10737434E+04</rscale>
<asrwt>0</asrwt>
<pdfrwt beam="1">  1        2 0.15481929E+00 0.11273792E+04</pdfrwt>
<pdfrwt beam="2">  1       -2 0.17881529E+00 0.11273792E+04</pdfrwt>
<totfact> 0.45151293E+00</totfact>
</mgrwt>
</event>
<event>
 4    1  0.1998832E-007  0.7338844E+03  0.7818608E-02  0.9878133E-01
          2   -1    0    0  501    0  0.00000000000E+00  0.00000000000E+00  0.20116799765E+04  0.20116799765E+04  0.25500000000E-02 0. -1.
         -2   -1    0    0    0  501 -0.00000000000E+00 -0.00000000000E+00 -0.36303391338E+03  0.36303391339E+03  0.25500000000E-02 0.  1.
    8880023    1    1    2    0    0  0.22497584872E+03  0.23272713195E+03  0.49024571488E+02  0.73551999655E+03  0.65864270000E+03 0.  1.
    8880022    1    1    2    0    0 -0.22497584872E+03 -0.23272713195E+03  0.15996214916E+04  0.16391938934E+04  0.15294330000E+03 0.  0.
<mgrwt>
<rscale>  0 0.61332837E+03</rscale>
<asrwt>0</asrwt>
<pdfrwt beam="1">  1        2 0.30948923E+00 0.73388436E+03</pdfrwt>
<pdfrwt beam="2">  1       -2 0.55851371E-01 0.73388436E+03</pdfrwt>
<totfact> 0.20541826E+01</totfact>
</mgrwt>
</event>
<event>
 4    1  0.1998832E-007  0.8982617E+03  0.7818608E-02  0.9528828E-01
         -2   -1    0    0    0  501 -0.00000000000E+00  0.00000000000E+00  0.65902323068E+03  0.65902323069E+03  0.25500000000E-02 0.  1.
          2   -1    0    0  501    0  0.00000000000E+00 -0.00000000000E+00 -0.18158915431E+04  0.18158915431E+04  0.25500000000E-02 0. -1.
    8880023    1    1    2    0    0 -0.22335000623E+03 -0.56848800868E+03  0.25099106397E+03  0.93266851654E+03  0.65864270000E+03 0.  0.
    8880022    1    1    2    0    0  0.22335000623E+03  0.56848800868E+03 -0.14078593764E+04  0.15422462573E+04  0.15294330000E+03 0.  0.
<mgrwt>
<rscale>  0 0.82191416E+03</rscale>
<asrwt>0</asrwt>
<pdfrwt beam="1">  1        2 0.27936793E+00 0.89826168E+03</pdfrwt>
<pdfrwt beam="2">  1       -2 0.10138819E+00 0.89826168E+03</pdfrwt>
<totfact> 0.68288983E+00</totfact>
</mgrwt>
</event>
<event>
 4    1  0.1998832E-007  0.6885622E+03  0.7818608E-02  0.1004844E+00
         -2   -1    0    0    0  501 -0.00000000000E+00  0.00000000000E+00  0.14129147593E+03  0.14129147596E+03  0.25500000000E-02 0.  1.
          2   -1    0    0  501    0  0.00000000000E+00 -0.00000000000E+00 -0.15666849318E+04  0.15666849318E+04  0.25500000000E-02 0. -1.
    8880023    1    1    2    0    0  0.91824945004E+02 -0.17853817940E+03 -0.10487847061E+04  0.12546183755E+04  0.65864270000E+03 0.  0.
    8880022    1    1    2    0    0 -0.91824945004E+02  0.17853817940E+03 -0.37660874974E+03  0.45335803227E+03  0.15294330000E+03 0.  1.
<mgrwt>
<rscale>  0 0.53576491E+03</rscale>
<asrwt>0</asrwt>
<pdfrwt beam="1">  1        2 0.24102844E+00 0.68856220E+03</pdfrwt>
<pdfrwt beam="2">  1       -2 0.21737151E-01 0.68856220E+03</pdfrwt>
<totfact> 0.21881332E+02</totfact>
</mgrwt>
</event>
<event>
 4    1  0.1998832E-007  0.7924856E+03  0.7818608E-02  0.9727286E-01
         -2   -1    0    0    0  501 -0.00000000000E+00  0.00000000000E+00  0.31790281332E+03  0.31790281333E+03  0.25500000000E-02 0.  1.
          2   -1    0    0  501    0  0.00000000000E+00 -0.00000000000E+00 -0.17463525256E+04  0.17463525256E+04  0.25500000000E-02 0. -1.
    8880023    1    1    2    0    0 -0.38979505696E+03  0.20562837527E+03 -0.30739380802E+03  0.85001433789E+03  0.65864270000E+03 0.  0.
    8880022    1    1    2    0    0  0.38979505696E+03 -0.20562837527E+03 -0.11210559043E+04  0.12142410011E+04  0.15294330000E+03 0.  0.
<mgrwt>
<rscale>  0 0.69415204E+03</rscale>
<asrwt>0</asrwt>
<pdfrwt beam="1">  1        2 0.26866961E+00 0.79248560E+03</pdfrwt>
<pdfrwt beam="2">  1       -2 0.48908126E-01 0.79248560E+03</pdfrwt>
<totfact> 0.37381355E+01</totfact>
</mgrwt>
</event>
<event>
 4    1  0.1998832E-007  0.8081110E+03  0.7818608E-02  0.9693525E-01
         -2   -1    0    0    0  501 -0.00000000000E+00  0.00000000000E+00  0.55796048574E+03  0.55796048575E+03  0.25500000000E-02 0.  1.
          2   -1    0    0  501    0  0.00000000000E+00 -0.00000000000E+00 -0.11446340685E+04  0.11446340685E+04  0.25500000000E-02 0. -1.
    8880023    1    1    2    0    0 -0.26199270569E+03  0.38806311227E+03  0.14455381274E+03  0.82093798059E+03  0.65864270000E+03 0.  0.
    8880022    1    1    2    0    0  0.26199270569E+03 -0.38806311227E+03 -0.73122739552E+03  0.88165657368E+03  0.15294330000E+03 0.  0.
<mgrwt>
<rscale>  0 0.71403608E+03</rscale>
<asrwt>0</asrwt>
<pdfrwt beam="1">  1        2 0.17609755E+00 0.80811098E+03</pdfrwt>
<pdfrwt beam="2">  1       -2 0.85840075E-01 0.80811098E+03</pdfrwt>
<totfact> 0.24392428E+01</totfact>
</mgrwt>
</event>
<event>
 4    1  0.1998832E-007  0.6592498E+03  0.7818608E-02  0.1024939E+00
         -2   -1    0    0    0  501 -0.00000000000E+00  0.00000000000E+00  0.13848213864E+04  0.13848213864E+04  0.25500000000E-02 0.  1.
          2   -1    0    0  501    0  0.00000000000E+00 -0.00000000000E+00 -0.62674905198E+03  0.62674905199E+03  0.25500000000E-02 0. -1.
    8880023    1    1    2    0    0  0.27648577950E+02 -0.59672002974E+01  0.12946878195E+04  0.14528684757E+04  0.65864270000E+03 0.  1.
    8880022    1    1    2    0    0 -0.27648577950E+02  0.59672002974E+01 -0.53661548507E+03  0.55870196274E+03  0.15294330000E+03 0.  0.
<mgrwt>
<rscale>  0 0.45945798E+03</rscale>
<asrwt>0</asrwt>
<pdfrwt beam="1">  1        2 0.96422931E-01 0.65924977E+03</pdfrwt>
<pdfrwt beam="2">  1       -2 0.21304944E+00 0.65924977E+03</pdfrwt>
<totfact> 0.53288315E+00</totfact>
</mgrwt>
</event>
<event>
 4    1  0.1998832E-007  0.1079692E+04  0.7818608E-02  0.9284011E-01
         -2   -1    0    0    0  501 -0.00000000000E+00  0.00000000000E+00  0.14091746484E+04  0.14091746484E+04  0.25500000000E-02 0.  1.
          2   -1    0    0  501    0  0.00000000000E+00 -0.00000000000E+00 -0.99620661041E+03  0.99620661041E+03  0.25500000000E-02 0. -1.
    8880023    1    1    2    0    0  0.74730014249E+01 -0.85549320012E+03  0.90311395339E+03  0.14076041632E+04  0.65864270000E+03 0.  0.
    8880022    1    1    2    0    0 -0.74730014249E+01  0.85549320012E+03 -0.49014591536E+03  0.99777709563E+03  0.15294330000E+03 0.  0.
<mgrwt>
<rscale>  0 0.10226829E+04</rscale>
<asrwt>0</asrwt>
<pdfrwt beam="1">  1        2 0.15326256E+00 0.10796919E+04</pdfrwt>
<pdfrwt beam="2">  1       -2 0.21679610E+00 0.10796919E+04</pdfrwt>
<totfact> 0.25834979E+00</totfact>
</mgrwt>
</event>
<event>
 4    1  0.1998832E-007  0.1450467E+04  0.7818608E-02  0.8945428E-01
          2   -1    0    0  501    0  0.00000000000E+00  0.00000000000E+00  0.28230253388E+04  0.28230253388E+04  0.25500000000E-02 0. -1.
         -2   -1    0    0    0  501 -0.00000000000E+00 -0.00000000000E+00 -0.76299154662E+03  0.76299154663E+03  0.25500000000E-02 0.  1.
    8880023    1    1    2    0    0 -0.33740804165E+03 -0.12474780663E+04  0.45591237095E+03  0.15204315206E+04  0.65864270000E+03 0.  0.
    8880022    1    1    2    0    0  0.33740804165E+03  0.12474780663E+04  0.16041214212E+04  0.20655853649E+04  0.15294330000E+03 0.  0.
<mgrwt>
<rscale>  0 0.14116503E+04</rscale>
<asrwt>0</asrwt>
<pdfrwt beam="1">  1        2 0.43431159E+00 0.14504675E+04</pdfrwt>
<pdfrwt beam="2">  1       -2 0.11738331E+00 0.14504675E+04</pdfrwt>
<totfact> 0.12014221E+00</totfact>
</mgrwt>
</event>
<event>
 4    1  0.1998832E-007  0.7930000E+03  0.7818608E-02  0.9726141E-01
          2   -1    0    0  501    0  0.00000000000E+00  0.00000000000E+00  0.68209695782E+03  0.68209695782E+03  0.25500000000E-02 0. -1.
         -2   -1    0    0    0  501 -0.00000000000E+00 -0.00000000000E+00 -0.11851553344E+04  0.11851553344E+04  0.25500000000E-02 0.  1.
    8880023    1    1    2    0    0  0.43897510240E+03  0.48370058129E+02 -0.93836286889E+03  0.12285657829E+04  0.65864270000E+03 0.  1.
    8880022    1    1    2    0    0 -0.43897510240E+03 -0.48370058129E+02  0.43530449233E+03  0.63868650926E+03  0.15294330000E+03 0.  0.
<mgrwt>
<rscale>  0 0.69481477E+03</rscale>
<asrwt>0</asrwt>
<pdfrwt beam="1">  1        2 0.10493799E+00 0.79300001E+03</pdfrwt>
<pdfrwt beam="2">  1       -2 0.18233159E+00 0.79300001E+03</pdfrwt>
<totfact> 0.74964803E+00</totfact>
</mgrwt>
</event>
<event>
 4    1  0.1998832E-007  0.8989324E+03  0.7818608E-02  0.9527748E-01
          2   -1    0    0  501    0  0.00000000000E+00  0.00000000000E+00  0.12330334595E+04  0.12330334595E+04  0.25500000000E-02 0. -1.
         -2   -1    0    0    0  501 -0.00000000000E+00 -0.00000000000E+00 -0.61726176356E+03  0.61726176356E+03  0.25500000000E-02 0.  1.
    8880023    1    1    2    0    0  0.23541232771E+02  0.61132238258E+03 -0.90490748086E+02  0.90347552642E+03  0.65864270000E+03 0.  0.
    8880022    1    1    2    0    0 -0.23541232771E+02 -0.61132238258E+03  0.70626244398E+03  0.94681969660E+03  0.15294330000E+03 0.  0.
<mgrwt>
<rscale>  0 0.82268653E+03</rscale>
<asrwt>0</asrwt>
<pdfrwt beam="1">  1        2 0.18969746E+00 0.89893240E+03</pdfrwt>
<pdfrwt beam="2">  1       -2 0.94963347E-01 0.89893240E+03</pdfrwt>
<totfact> 0.16950590E+01</totfact>
</mgrwt>
</event>
<event>
 4    1  0.1998832E-007  0.6727161E+03  0.7818608E-02  0.1013786E+00
          2   -1    0    0  501    0  0.00000000000E+00  0.00000000000E+00  0.28717803257E+04  0.28717803257E+04  0.25500000000E-02 0. -1.
         -2   -1    0    0    0  501 -0.00000000000E+00 -0.00000000000E+00 -0.95970357775E+02  0.95970357809E+02  0.25500000000E-02 0.  1.
    8880023    1    1    2    0    0  0.93433788157E+02  0.10003468692E+03  0.11758951001E+04  0.13547237002E+04  0.65864270000E+03 0.  1.
    8880022    1    1    2    0    0 -0.93433788157E+02 -0.10003468692E+03  0.15999148678E+04  0.16130269833E+04  0.15294330000E+03 0.  0.
<mgrwt>
<rscale>  0 0.49997218E+03</rscale>
<asrwt>0</asrwt>
<pdfrwt beam="1">  1        2 0.44181239E+00 0.67271615E+03</pdfrwt>
<pdfrwt beam="2">  1       -2 0.14764669E-01 0.67271615E+03</pdfrwt>
<totfact> 0.79888216E+01</totfact>
</mgrwt>
</event>
<event>
 4    1  0.1998832E-007  0.8291460E+03  0.7818608E-02  0.9650996E-01
          2   -1    0    0  501    0  0.00000000000E+00  0.00000000000E+00  0.17105116558E+04  0.17105116558E+04  0.25500000000E-02 0. -1.
         -2   -1    0    0    0  501 -0.00000000000E+00 -0.00000000000E+00 -0.36989766388E+03  0.36989766388E+03  0.25500000000E-02 0.  1.
    8880023    1    1    2    0    0 -0.50363712033E+03 -0.47453947547E+01  0.24447247979E+03  0.86443615576E+03  0.65864270000E+03 0.  1.
    8880022    1    1    2    0    0  0.50363712033E+03  0.47453947547E+01  0.10961415121E+04  0.12159731639E+04  0.15294330000E+03 0.  0.
<mgrwt>
<rscale>  0 0.74010931E+03</rscale>
<asrwt>0</asrwt>
<pdfrwt beam="1">  1        2 0.26315563E+00 0.82914599E+03</pdfrwt>
<pdfrwt beam="2">  1       -2 0.56907334E-01 0.82914599E+03</pdfrwt>
<totfact> 0.28509697E+01</totfact>
</mgrwt>
</event>
<event>
 4    1  0.1998832E-007  0.6924666E+03  0.7818608E-02  0.1003002E+00
          2   -1    0    0  501    0  0.00000000000E+00  0.00000000000E+00  0.28579678577E+04  0.28579678577E+04  0.25500000000E-02 0. -1.
         -2   -1    0    0    0  501 -0.00000000000E+00 -0.00000000000E+00 -0.22918076354E+03  0.22918076355E+03  0.25500000000E-02 0.  1.
    8880023    1    1    2    0    0 -0.20961140294E+03  0.41985489751E+02  0.31892671034E+03  0.76238059683E+03  0.65864270000E+03 0.  1.
    8880022    1    1    2    0    0  0.20961140294E+03 -0.41985489751E+02  0.23098603838E+04  0.23247680244E+04  0.15294330000E+03 0.  0.
<mgrwt>
<rscale>  0 0.54353446E+03</rscale>
<asrwt>0</asrwt>
<pdfrwt beam="1">  1        2 0.43968732E+00 0.69246655E+03</pdfrwt>
<pdfrwt beam="2">  1       -2 0.35258582E-01 0.69246655E+03</pdfrwt>
<totfact> 0.17175652E+01</totfact>
</mgrwt>
</event>
<event>
 4    1  0.1998832E-007  0.1333712E+04  0.7818608E-02  0.9036981E-01
         -2   -1    0    0    0  501 -0.00000000000E+00  0.00000000000E+00  0.10459316578E+04  0.10459316578E+04  0.25500000000E-02 0.  1.
          2   -1    0    0  501    0  0.00000000000E+00 -0.00000000000E+00 -0.16815460416E+04  0.16815460416E+04  0.25500000000E-02 0. -1.
    8880023    1    1    2    0    0  0.82931229091E+03 -0.81068941649E+03 -0.78598120135E+03  0.15480803794E+04  0.65864270000E+03 0.  0.
    8880022    1    1    2    0    0 -0.82931229091E+03  0.81068941649E+03  0.15036681754E+03  0.11793973201E+04  0.15294330000E+03 0.  0.
<mgrwt>
<rscale>  0 0.12906895E+04</rscale>
<asrwt>0</asrwt>
<pdfrwt beam="1">  1        2 0.25869939E+00 0.13337115E+04</pdfrwt>
<pdfrwt beam="2">  1       -2 0.16091256E+00 0.13337115E+04</pdfrwt>
<totfact> 0.23873315E+00</totfact>
</mgrwt>
</event>
<event>
 4    1  0.1998832E-007  0.1432757E+04  0.7818608E-02  0.8958639E-01
         -2   -1    0    0    0  501 -0.00000000000E+00  0.00000000000E+00  0.15344474974E+04  0.15344474974E+04  0.25500000000E-02 0.  1.
          2   -1    0    0  501    0  0.00000000000E+00 -0.00000000000E+00 -0.12442342824E+04  0.12442342824E+04  0.25500000000E-02 0. -1.
    8880023    1    1    2    0    0 -0.12626121252E+04 -0.15745478509E+03 -0.10764169566E+03  0.14367944630E+04  0.65864270000E+03 0. -1.
    8880022    1    1    2    0    0  0.12626121252E+04  0.15745478509E+03  0.39785491070E+03  0.13418873168E+04  0.15294330000E+03 0.  0.
<mgrwt>
<rscale>  0 0.13933599E+04</rscale>
<asrwt>0</asrwt>
<pdfrwt beam="1">  1        2 0.19142066E+00 0.14327566E+04</pdfrwt>
<pdfrwt beam="2">  1       -2 0.23606885E+00 0.14327566E+04</pdfrwt>
<totfact> 0.13261780E+00</totfact>
</mgrwt>
</event>
<event>
 4    1  0.1998832E-007  0.1749985E+04  0.7818608E-02  0.8750719E-01
          2   -1    0    0  501    0  0.00000000000E+00  0.00000000000E+00  0.83159690387E+03  0.83159690387E+03  0.25500000000E-02 0. -1.
         -2   -1    0    0    0  501 -0.00000000000E+00 -0.00000000000E+00 -0.53839717601E+04  0.53839717601E+04  0.25500000000E-02 0.  1.
    8880023    1    1    2    0    0 -0.46832712050E+03  0.15521938039E+04 -0.41991321108E+04  0.45491929600E+04  0.65864270000E+03 0.  0.
    8880022    1    1    2    0    0  0.46832712050E+03 -0.15521938039E+04 -0.35324274538E+03  0.16663757040E+04  0.15294330000E+03 0.  0.
<mgrwt>
<rscale>  0 0.17187904E+04</rscale>
<asrwt>0</asrwt>
<pdfrwt beam="1">  1        2 0.12793799E+00 0.17499846E+04</pdfrwt>
<pdfrwt beam="2">  1       -2 0.82830332E+00 0.17499846E+04</pdfrwt>
<totfact> 0.15506172E-03</totfact>
</mgrwt>
</event>
<event>
 4    1  0.1998832E-007  0.7433759E+03  0.7818608E-02  0.9850220E-01
          2   -1    0    0  501    0  0.00000000000E+00  0.00000000000E+00  0.73525083914E+03  0.73525083914E+03  0.25500000000E-02 0. -1.
         -2   -1    0    0    0  501 -0.00000000000E+00 -0.00000000000E+00 -0.54963878379E+03  0.54963878380E+03  0.25500000000E-02 0.  1.
    8880023    1    1    2    0    0  0.48180972453E+02 -0.34128596321E+03 -0.17438671302E+03  0.76355644633E+03  0.65864270000E+03 0.  1.
    8880022    1    1    2    0    0 -0.48180972453E+02  0.34128596321E+03  0.35999876837E+03  0.52133317661E+03  0.15294330000E+03 0.  0.
<mgrwt>
<rscale>  0 0.62735689E+03</rscale>
<asrwt>0</asrwt>
<pdfrwt beam="1">  1        2 0.11311551E+00 0.74337589E+03</pdfrwt>
<pdfrwt beam="2">  1       -2 0.84559813E-01 0.74337589E+03</pdfrwt>
<totfact> 0.47557601E+01</totfact>
</mgrwt>
</event>
<event>
 4    1  0.1998832E-007  0.9028680E+03  0.7818608E-02  0.9521443E-01
          2   -1    0    0  501    0  0.00000000000E+00  0.00000000000E+00  0.10810315568E+04  0.10810315568E+04  0.25500000000E-02 0. -1.
         -2   -1    0    0    0  501 -0.00000000000E+00 -0.00000000000E+00 -0.15075713066E+04  0.15075713066E+04  0.25500000000E-02 0.  1.
    8880023    1    1    2    0    0  0.23487292380E+03  0.57113497442E+03 -0.12537663032E+04  0.15450244654E+04  0.65864270000E+03 0.  1.
    8880022    1    1    2    0    0 -0.23487292380E+03 -0.57113497442E+03  0.82722655340E+03  0.10435783981E+04  0.15294330000E+03 0.  0.
<mgrwt>
<rscale>  0 0.82721203E+03</rscale>
<asrwt>0</asrwt>
<pdfrwt beam="1">  1        2 0.16631255E+00 0.90286802E+03</pdfrwt>
<pdfrwt beam="2">  1       -2 0.23193405E+00 0.90286802E+03</pdfrwt>
<totfact> 0.18751386E+00</totfact>
</mgrwt>
</event>
<event>
 4    1  0.1998832E-007  0.7996814E+03  0.7818608E-02  0.9711485E-01
          2   -1    0    0  501    0  0.00000000000E+00  0.00000000000E+00  0.16420991100E+04  0.16420991100E+04  0.25500000000E-02 0. -1.
         -2   -1    0    0    0  501 -0.00000000000E+00 -0.00000000000E+00 -0.89875370012E+03  0.89875370012E+03  0.25500000000E-02 0.  1.
    8880023    1    1    2    0    0 -0.44006688270E+03 -0.10964134728E+03 -0.67340031457E+03  0.10454464483E+04  0.65864270000E+03 0.  0.
    8880022    1    1    2    0    0  0.44006688270E+03  0.10964134728E+03  0.14167457244E+04  0.14954063618E+04  0.15294330000E+03 0.  0.
<mgrwt>
<rscale>  0 0.70337054E+03</rscale>
<asrwt>0</asrwt>
<pdfrwt beam="1">  1        2 0.25263063E+00 0.79968137E+03</pdfrwt>
<pdfrwt beam="2">  1       -2 0.13826980E+00 0.79968137E+03</pdfrwt>
<totfact> 0.40004998E+00</totfact>
</mgrwt>
</event>
<event>
 4    1  0.1998832E-007  0.7786485E+03  0.7818608E-02  0.9759021E-01
          2   -1    0    0  501    0  0.00000000000E+00  0.00000000000E+00  0.13518166848E+04  0.13518166848E+04  0.25500000000E-02 0. -1.
         -2   -1    0    0    0  501 -0.00000000000E+00 -0.00000000000E+00 -0.63763820111E+03  0.63763820112E+03  0.25500000000E-02 0.  1.
    8880023    1    1    2    0    0 -0.36620590222E+03  0.19589913603E+03 -0.33734814660E+03  0.84858541856E+03  0.65864270000E+03 0.  0.
    8880022    1    1    2    0    0  0.36620590222E+03 -0.19589913603E+03  0.10515266303E+04  0.11408694674E+04  0.15294330000E+03 0.  0.
<mgrwt>
<rscale>  0 0.67608830E+03</rscale>
<asrwt>0</asrwt>
<pdfrwt beam="1">  1        2 0.20797180E+00 0.77864847E+03</pdfrwt>
<pdfrwt beam="2">  1       -2 0.98098186E-01 0.77864847E+03</pdfrwt>
<totfact> 0.13575428E+01</totfact>
</mgrwt>
</event>
<event>
 4    1  0.1998832E-007  0.1717930E+04  0.7818608E-02  0.8769347E-01
          2   -1    0    0  501    0  0.00000000000E+00  0.00000000000E+00  0.22554292738E+04  0.22554292738E+04  0.25500000000E-02 0. -1.
         -2   -1    0    0    0  501 -0.00000000000E+00 -0.00000000000E+00 -0.13547776200E+04  0.13547776200E+04  0.25500000000E-02 0.  1.
    8880023    1    1    2    0    0 -0.10768310416E+04  0.11652930642E+04 -0.11226192711E+03  0.17215940184E+04  0.65864270000E+03 0.  0.
    8880022    1    1    2    0    0  0.10768310416E+04 -0.11652930642E+04  0.10129135809E+04  0.18886128754E+04  0.15294330000E+03 0.  0.
<mgrwt>
<rscale>  0 0.16860746E+04</rscale>
<asrwt>0</asrwt>
<pdfrwt beam="1">  1        2 0.34698911E+00 0.17179299E+04</pdfrwt>
<pdfrwt beam="2">  1       -2 0.20842733E+00 0.17179299E+04</pdfrwt>
<totfact> 0.51730887E-01</totfact>
</mgrwt>
</event>
<event>
 4    1  0.1998832E-007  0.6777143E+03  0.7818608E-02  0.1010647E+00
          2   -1    0    0  501    0  0.00000000000E+00  0.00000000000E+00  0.16836857323E+04  0.16836857323E+04  0.25500000000E-02 0. -1.
         -2   -1    0    0    0  501 -0.00000000000E+00 -0.00000000000E+00 -0.18479764300E+03  0.18479764301E+03  0.25500000000E-02 0.  1.
    8880023    1    1    2    0    0  0.12207809248E+03 -0.10287548786E+03  0.49164979736E+03  0.83726707577E+03  0.65864270000E+03 0.  1.
    8880022    1    1    2    0    0 -0.12207809248E+03  0.10287548786E+03  0.10072382920E+04  0.10312162996E+04  0.15294330000E+03 0.  0.
<mgrwt>
<rscale>  0 0.51218192E+03</rscale>
<asrwt>0</asrwt>
<pdfrwt beam="1">  1        2 0.25902857E+00 0.67771427E+03</pdfrwt>
<pdfrwt beam="2">  1       -2 0.28430407E-01 0.67771427E+03</pdfrwt>
<totfact> 0.11652599E+02</totfact>
</mgrwt>
</event>
<event>
 4    1  0.1998832E-007  0.1648105E+04  0.7818608E-02  0.8811567E-01
          2   -1    0    0  501    0  0.00000000000E+00  0.00000000000E+00  0.17840988248E+04  0.17840988248E+04  0.25500000000E-02 0. -1.
         -2   -1    0    0    0  501 -0.00000000000E+00 -0.00000000000E+00 -0.14922451406E+04  0.14922451406E+04  0.25500000000E-02 0.  1.
    8880023    1    1    2    0    0  0.14770871376E+04 -0.31726015575E+03  0.54711039584E+03  0.17365426600E+04  0.65864270000E+03 0.  0.
    8880022    1    1    2    0    0 -0.14770871376E+04  0.31726015575E+03 -0.25525671157E+03  0.15398013054E+04  0.15294330000E+03 0.  0.
<mgrwt>
<rscale>  0 0.16147011E+04</rscale>
<asrwt>0</asrwt>
<pdfrwt beam="1">  1        2 0.27447674E+00 0.16481052E+04</pdfrwt>
<pdfrwt beam="2">  1       -2 0.22957618E+00 0.16481052E+04</pdfrwt>
<totfact> 0.70124604E-01</totfact>
</mgrwt>
</event>
<event>
 4    1  0.1998832E-007  0.1030757E+04  0.7818608E-02  0.9342380E-01
          2   -1    0    0  501    0  0.00000000000E+00  0.00000000000E+00  0.75752776687E+03  0.75752776688E+03  0.25500000000E-02 0. -1.
         -2   -1    0    0    0  501 -0.00000000000E+00 -0.00000000000E+00 -0.12899643757E+04  0.12899643757E+04  0.25500000000E-02 0.  1.
    8880023    1    1    2    0    0  0.76056458126E+03 -0.22403263729E+03 -0.66858703209E+03  0.12286040577E+04  0.65864270000E+03 0.  0.
    8880022    1    1    2    0    0 -0.76056458126E+03  0.22403263729E+03  0.13615042325E+03  0.81888808491E+03  0.15294330000E+03 0.  0.
<mgrwt>
<rscale>  0 0.96973140E+03</rscale>
<asrwt>0</asrwt>
<pdfrwt beam="1">  1        2 0.11654273E+00 0.10307567E+04</pdfrwt>
<pdfrwt beam="2">  1       -2 0.19845606E+00 0.10307567E+04</pdfrwt>
<totfact> 0.49897404E+00</totfact>
</mgrwt>
</event>
<event>
 4    1  0.1998832E-007  0.1165410E+04  0.7818608E-02  0.9191502E-01
         -2   -1    0    0    0  501 -0.00000000000E+00  0.00000000000E+00  0.59396434064E+03  0.59396434064E+03  0.25500000000E-02 0.  1.
          2   -1    0    0  501    0  0.00000000000E+00 -0.00000000000E+00 -0.29216655083E+04  0.29216655083E+04  0.25500000000E-02 0. -1.
    8880023    1    1    2    0    0  0.26371334876E+03  0.92456826333E+03 -0.22562775891E+04  0.25394822246E+04  0.65864270000E+03 0.  0.
    8880022    1    1    2    0    0 -0.26371334876E+03 -0.92456826333E+03 -0.71423578565E+02  0.97614762432E+03  0.15294330000E+03 0.  0.
<mgrwt>
<rscale>  0 0.11141576E+04</rscale>
<asrwt>0</asrwt>
<pdfrwt beam="1">  1        2 0.44948699E+00 0.11654104E+04</pdfrwt>
<pdfrwt beam="2">  1       -2 0.91379131E-01 0.11654104E+04</pdfrwt>
<totfact> 0.19775335E+00</totfact>
</mgrwt>
</event>
<event>
 4    1  0.1998832E-007  0.8683646E+03  0.7818608E-02  0.9578854E-01
         -2   -1    0    0    0  501 -0.00000000000E+00  0.00000000000E+00  0.46957482278E+03  0.46957482279E+03  0.25500000000E-02 0.  1.
          2   -1    0    0  501    0  0.00000000000E+00 -0.00000000000E+00 -0.14475508319E+04  0.14475508319E+04  0.25500000000E-02 0. -1.
    8880023    1    1    2    0    0 -0.37119602555E+03 -0.42715372710E+03 -0.10076183904E+04  0.13301698474E+04  0.65864270000E+03 0.  0.
    8880022    1    1    2    0    0  0.37119602555E+03  0.42715372710E+03  0.29642381285E+02  0.58695580731E+03  0.15294330000E+03 0.  0.
<mgrwt>
<rscale>  0 0.78711699E+03</rscale>
<asrwt>0</asrwt>
<pdfrwt beam="1">  1        2 0.22270013E+00 0.86836456E+03</pdfrwt>
<pdfrwt beam="2">  1       -2 0.72242281E-01 0.86836456E+03</pdfrwt>
<totfact> 0.23810091E+01</totfact>
</mgrwt>
</event>
<event>
 4    1  0.1998832E-007  0.9456567E+03  0.7818608E-02  0.9456391E-01
          2   -1    0    0  501    0  0.00000000000E+00  0.00000000000E+00  0.16691414675E+04  0.16691414675E+04  0.25500000000E-02 0. -1.
         -2   -1    0    0    0  501 -0.00000000000E+00 -0.00000000000E+00 -0.75028911983E+03  0.75028911984E+03  0.25500000000E-02 0.  1.
    8880023    1    1    2    0    0 -0.60325516698E+03  0.31070829383E+03 -0.32027089689E+03  0.99841879690E+03  0.65864270000E+03 0.  0.
    8880022    1    1    2    0    0  0.60325516698E+03 -0.31070829383E+03  0.12391232445E+04  0.14210117904E+04  0.15294330000E+03 0.  0.
<mgrwt>
<rscale>  0 0.87576738E+03</rscale>
<asrwt>0</asrwt>
<pdfrwt beam="1">  1        2 0.25679099E+00 0.94565673E+03</pdfrwt>
<pdfrwt beam="2">  1       -2 0.11542910E+00 0.94565673E+03</pdfrwt>
<totfact> 0.59730926E+00</totfact>
</mgrwt>
</event>
<event>
 4    1  0.1998832E-007  0.7026338E+03  0.7818608E-02  0.9986446E-01
          2   -1    0    0  501    0  0.00000000000E+00  0.00000000000E+00  0.24375875845E+04  0.24375875845E+04  0.25500000000E-02 0. -1.
         -2   -1    0    0    0  501 -0.00000000000E+00 -0.00000000000E+00 -0.22866678503E+03  0.22866678504E+03  0.25500000000E-02 0.  1.
    8880023    1    1    2    0    0 -0.18751877400E+03 -0.15722838153E+03  0.34983857045E+03  0.78490845721E+03  0.65864270000E+03 0.  1.
    8880022    1    1    2    0    0  0.18751877400E+03  0.15722838153E+03  0.18590822291E+04  0.18813459124E+04  0.15294330000E+03 0.  0.
<mgrwt>
<rscale>  0 0.56248581E+03</rscale>
<asrwt>0</asrwt>
<pdfrwt beam="1">  1        2 0.37501347E+00 0.70263380E+03</pdfrwt>
<pdfrwt beam="2">  1       -2 0.35179506E-01 0.70263380E+03</pdfrwt>
<totfact> 0.30108190E+01</totfact>
</mgrwt>
</event>
<event>
 4    1  0.1998832E-007  0.6842858E+03  0.7818608E-02  0.1006996E+00
          2   -1    0    0  501    0  0.00000000000E+00  0.00000000000E+00  0.20970892583E+04  0.20970892583E+04  0.25500000000E-02 0. -1.
         -2   -1    0    0    0  501 -0.00000000000E+00 -0.00000000000E+00 -0.27912137878E+03  0.27912137879E+03  0.25500000000E-02 0.  1.
    8880023    1    1    2    0    0  0.17628952311E+03  0.57956172939E+02  0.16243142128E+03  0.70330013993E+03  0.65864270000E+03 0.  1.
    8880022    1    1    2    0    0 -0.17628952311E+03 -0.57956172939E+02  0.16555364582E+04  0.16729104971E+04  0.15294330000E+03 0.  0.
<mgrwt>
<rscale>  0 0.52686090E+03</rscale>
<asrwt>0</asrwt>
<pdfrwt beam="1">  1        2 0.32262910E+00 0.68428585E+03</pdfrwt>
<pdfrwt beam="2">  1       -2 0.42941752E-01 0.68428585E+03</pdfrwt>
<totfact> 0.31651684E+01</totfact>
</mgrwt>
</event>
<event>
 4    1  0.1998832E-007  0.7448141E+03  0.7818608E-02  0.9846140E-01
         -2   -1    0    0    0  501 -0.00000000000E+00  0.00000000000E+00  0.23625112527E+03  0.23625112528E+03  0.25500000000E-02 0.  1.
          2   -1    0    0  501    0  0.00000000000E+00 -0.00000000000E+00 -0.35836175864E+04  0.35836175864E+04  0.25500000000E-02 0. -1.
    8880023    1    1    2    0    0 -0.31777029286E+03  0.14127922907E+03 -0.39483556392E+03  0.84299650556E+03  0.65864270000E+03 0.  1.
    8880022    1    1    2    0    0  0.31777029286E+03 -0.14127922907E+03 -0.29525308972E+04  0.29768722061E+04  0.15294330000E+03 0.  0.
<mgrwt>
<rscale>  0 0.62944134E+03</rscale>
<asrwt>0</asrwt>
<pdfrwt beam="1">  1        2 0.55132574E+00 0.74481406E+03</pdfrwt>
<pdfrwt beam="2">  1       -2 0.36346330E-01 0.74481406E+03</pdfrwt>
<totfact> 0.54963452E+00</totfact>
</mgrwt>
</event>
<event>
 4    1  0.1998832E-007  0.1092466E+04  0.7818608E-02  0.9269491E-01
         -2   -1    0    0    0  501 -0.00000000000E+00  0.00000000000E+00  0.41663673870E+03  0.41663673870E+03  0.25500000000E-02 0.  1.
          2   -1    0    0  501    0  0.00000000000E+00 -0.00000000000E+00 -0.41134416725E+04  0.41134416725E+04  0.25500000000E-02 0. -1.
    8880023    1    1    2    0    0 -0.74533317734E+03  0.45183028400E+03 -0.47908764128E+03  0.11928987070E+04  0.65864270000E+03 0.  1.
    8880022    1    1    2    0    0  0.74533317734E+03 -0.45183028400E+03 -0.32177172925E+04  0.33371797043E+04  0.15294330000E+03 0.  0.
<mgrwt>
<rscale>  0 0.10364077E+04</rscale>
<asrwt>0</asrwt>
<pdfrwt beam="1">  1        2 0.63283715E+00 0.10924662E+04</pdfrwt>
<pdfrwt beam="2">  1       -2 0.64097963E-01 0.10924662E+04</pdfrwt>
<totfact> 0.64569618E-01</totfact>
</mgrwt>
</event>
<event>
 4    1  0.1998832E-007  0.8309473E+03  0.7818608E-02  0.9647492E-01
         -2   -1    0    0    0  501 -0.00000000000E+00  0.00000000000E+00  0.95585335364E+03  0.95585335365E+03  0.25500000000E-02 0.  1.
          2   -1    0    0  501    0  0.00000000000E+00 -0.00000000000E+00 -0.15388731020E+04  0.15388731020E+04  0.25500000000E-02 0. -1.
    8880023    1    1    2    0    0 -0.87544101470E+02 -0.49899828784E+03  0.71294233226E+03  0.10948790967E+04  0.65864270000E+03 0.  1.
    8880022    1    1    2    0    0  0.87544101470E+02  0.49899828784E+03 -0.12959620806E+04  0.13998473590E+04  0.15294330000E+03 0.  0.
<mgrwt>
<rscale>  0 0.74231036E+03</rscale>
<asrwt>0</asrwt>
<pdfrwt beam="1">  1        2 0.23674971E+00 0.83094733E+03</pdfrwt>
<pdfrwt beam="2">  1       -2 0.14705436E+00 0.83094733E+03</pdfrwt>
<totfact> 0.38674019E+00</totfact>
</mgrwt>
</event>
<event>
 4    1  0.1998832E-007  0.9120619E+03  0.7818608E-02  0.9506939E-01
          2   -1    0    0  501    0  0.00000000000E+00  0.00000000000E+00  0.60627111465E+03  0.60627111466E+03  0.25500000000E-02 0. -1.
         -2   -1    0    0    0  501 -0.00000000000E+00 -0.00000000000E+00 -0.10994192591E+04  0.10994192591E+04  0.25500000000E-02 0.  1.
    8880023    1    1    2    0    0 -0.61052611119E+03  0.15907437489E+03 -0.38008904915E+02  0.91285358756E+03  0.65864270000E+03 0.  0.
    8880022    1    1    2    0    0  0.61052611119E+03 -0.15907437489E+03 -0.45513923955E+03  0.79283678622E+03  0.15294330000E+03 0.  0.
<mgrwt>
<rscale>  0 0.83774148E+03</rscale>
<asrwt>0</asrwt>
<pdfrwt beam="1">  1        2 0.93272479E-01 0.91206195E+03</pdfrwt>
<pdfrwt beam="2">  1       -2 0.16914142E+00 0.91206195E+03</pdfrwt>
<totfact> 0.10591827E+01</totfact>
</mgrwt>
</event>
<event>
 4    1  0.1998832E-007  0.7457727E+03  0.7818608E-02  0.9843440E-01
          2   -1    0    0  501    0  0.00000000000E+00  0.00000000000E+00  0.24426503310E+04  0.24426503310E+04  0.25500000000E-02 0. -1.
         -2   -1    0    0    0  501 -0.00000000000E+00 -0.00000000000E+00 -0.15918359807E+03  0.15918359809E+03  0.25500000000E-02 0.  1.
    8880023    1    1    2    0    0 -0.52603729208E+02 -0.34583164061E+03  0.91137417646E+03  0.11776161394E+04  0.65864270000E+03 0.  0.
    8880022    1    1    2    0    0  0.52603729208E+02  0.34583164061E+03  0.13720925565E+04  0.14242177897E+04  0.15294330000E+03 0.  0.
<mgrwt>
<rscale>  0 0.63082518E+03</rscale>
<asrwt>0</asrwt>
<pdfrwt beam="1">  1        2 0.37579236E+00 0.74577267E+03</pdfrwt>
<pdfrwt beam="2">  1       -2 0.24489784E-01 0.74577267E+03</pdfrwt>
<totfact> 0.58095515E+01</totfact>
</mgrwt>
</event>
<event>
 4    1  0.1998832E-007  0.1235823E+04  0.7818608E-02  0.9123063E-01
         -2   -1    0    0    0  501 -0.00000000000E+00  0.00000000000E+00  0.16321629831E+04  0.16321629831E+04  0.25500000000E-02 0.  1.
          2   -1    0    0  501    0  0.00000000000E+00 -0.00000000000E+00 -0.13908384730E+04  0.13908384730E+04  0.25500000000E-02 0. -1.
    8880023    1    1    2    0    0 -0.93905938723E+03  0.46001632338E+03  0.11052862087E+04  0.16579853316E+04  0.65864270000E+03 0.  1.
    8880022    1    1    2    0    0  0.93905938723E+03 -0.46001632338E+03 -0.86396169861E+03  0.13650161245E+04  0.15294330000E+03 0.  0.
<mgrwt>
<rscale>  0 0.11884091E+04</rscale>
<asrwt>0</asrwt>
<pdfrwt beam="1">  1        2 0.21397515E+00 0.12358227E+04</pdfrwt>
<pdfrwt beam="2">  1       -2 0.25110200E+00 0.12358227E+04</pdfrwt>
<totfact> 0.89684481E-01</totfact>
</mgrwt>
</event>
<event>
 4    1  0.1998832E-007  0.1193887E+04  0.7818608E-02  0.9163087E-01
          2   -1    0    0  501    0  0.00000000000E+00  0.00000000000E+00  0.31614985219E+04  0.31614985219E+04  0.25500000000E-02 0. -1.
         -2   -1    0    0    0  501 -0.00000000000E+00 -0.00000000000E+00 -0.44820331021E+03  0.44820331021E+03  0.25500000000E-02 0.  1.
    8880023    1    1    2    0    0 -0.98200590694E+03 -0.16498869982E+03  0.76962274437E+03  0.14204528318E+04  0.65864270000E+03 0.  1.
    8880022    1    1    2    0    0  0.98200590694E+03  0.16498869982E+03  0.19436724673E+04  0.21892490004E+04  0.15294330000E+03 0.  0.
<mgrwt>
<rscale>  0 0.11442687E+04</rscale>
<asrwt>0</asrwt>
<pdfrwt beam="1">  1        2 0.48638438E+00 0.11938874E+04</pdfrwt>
<pdfrwt beam="2">  1       -2 0.68954357E-01 0.11938874E+04</pdfrwt>
<totfact> 0.26360558E+00</totfact>
</mgrwt>
</event>
<event>
 4    1  0.1998832E-007  0.9173387E+03  0.7818608E-02  0.9498752E-01
          2   -1    0    0  501    0  0.00000000000E+00  0.00000000000E+00  0.33267818855E+04  0.33267818855E+04  0.25500000000E-02 0. -1.
         -2   -1    0    0    0  501 -0.00000000000E+00 -0.00000000000E+00 -0.42631065916E+03  0.42631065917E+03  0.25500000000E-02 0.  1.
    8880023    1    1    2    0    0 -0.63178698762E+03  0.92440944581E+02  0.15517158307E+03  0.93037011582E+03  0.65864270000E+03 0.  0.
    8880022    1    1    2    0    0  0.63178698762E+03 -0.92440944581E+02  0.27452996433E+04  0.28227224288E+04  0.15294330000E+03 0.  0.
<mgrwt>
<rscale>  0 0.84375918E+03</rscale>
<asrwt>0</asrwt>
<pdfrwt beam="1">  1        2 0.51181258E+00 0.91733872E+03</pdfrwt>
<pdfrwt beam="2">  1       -2 0.65586258E-01 0.91733872E+03</pdfrwt>
<totfact> 0.23925921E+00</totfact>
</mgrwt>
</event>
<event>
 4    1  0.1998832E-007  0.8843734E+03  0.7818608E-02  0.9551598E-01
          2   -1    0    0  501    0  0.00000000000E+00  0.00000000000E+00  0.16814648581E+04  0.16814648581E+04  0.25500000000E-02 0. -1.
         -2   -1    0    0    0  501 -0.00000000000E+00 -0.00000000000E+00 -0.94179245454E+03  0.94179245455E+03  0.25500000000E-02 0.  1.
    8880023    1    1    2    0    0 -0.58395301303E+03 -0.85469324518E+02 -0.65541804721E+03  0.11007675276E+04  0.65864270000E+03 0.  0.
    8880022    1    1    2    0    0  0.58395301303E+03  0.85469324518E+02  0.13950904508E+04  0.15224897851E+04  0.15294330000E+03 0.  0.
<mgrwt>
<rscale>  0 0.80584312E+03</rscale>
<asrwt>0</asrwt>
<pdfrwt beam="1">  1        2 0.25868690E+00 0.88437341E+03</pdfrwt>
<pdfrwt beam="2">  1       -2 0.14489115E+00 0.88437341E+03</pdfrwt>
<totfact> 0.33280060E+00</totfact>
</mgrwt>
</event>
<event>
 4    1  0.1998832E-007  0.1022128E+04  0.7818608E-02  0.9353163E-01
         -2   -1    0    0    0  501 -0.00000000000E+00  0.00000000000E+00  0.11279274241E+04  0.11279274241E+04  0.25500000000E-02 0.  1.
          2   -1    0    0  501    0  0.00000000000E+00 -0.00000000000E+00 -0.22663826669E+04  0.22663826669E+04  0.25500000000E-02 0. -1.
    8880023    1    1    2    0    0 -0.50391431617E+03 -0.59750010124E+03  0.80041365771E+03  0.12982327367E+04  0.65864270000E+03 0.  0.
    8880022    1    1    2    0    0  0.50391431617E+03  0.59750010124E+03 -0.19388689005E+04  0.20960773543E+04  0.15294330000E+03 0.  0.
<mgrwt>
<rscale>  0 0.96032505E+03</rscale>
<asrwt>0</asrwt>
<pdfrwt beam="1">  1        2 0.34867426E+00 0.10221283E+04</pdfrwt>
<pdfrwt beam="2">  1       -2 0.17352730E+00 0.10221283E+04</pdfrwt>
<totfact> 0.95147044E-01</totfact>
</mgrwt>
</event>
<event>
 4    1  0.1998832E-007  0.8665736E+03  0.7818608E-02  0.9581975E-01
         -2   -1    0    0    0  501 -0.00000000000E+00  0.00000000000E+00  0.58466401860E+03  0.58466401861E+03  0.25500000000E-02 0.  1.
          2   -1    0    0  501    0  0.00000000000E+00 -0.00000000000E+00 -0.28523594853E+04  0.28523594853E+04  0.25500000000E-02 0. -1.
    8880023    1    1    2    0    0  0.39367230607E+03 -0.40269311570E+03  0.20990108756E+03  0.89163238098E+03  0.65864270000E+03 0.  1.
    8880022    1    1    2    0    0 -0.39367230607E+03  0.40269311570E+03 -0.24775965542E+04  0.25453911229E+04  0.15294330000E+03 0.  0.
<mgrwt>
<rscale>  0 0.78500735E+03</rscale>
<asrwt>0</asrwt>
<pdfrwt beam="1">  1        2 0.43882453E+00 0.86657362E+03</pdfrwt>
<pdfrwt beam="2">  1       -2 0.89948312E-01 0.86657362E+03</pdfrwt>
<totfact> 0.23625571E+00</totfact>
</mgrwt>
</event>
<event>
 4    1  0.1998832E-007  0.1142036E+04  0.7818608E-02  0.9215637E-01
         -2   -1    0    0    0  501 -0.00000000000E+00  0.00000000000E+00  0.73317174133E+03  0.73317174133E+03  0.25500000000E-02 0.  1.
          2   -1    0    0  501    0  0.00000000000E+00 -0.00000000000E+00 -0.19443286405E+04  0.19443286405E+04  0.25500000000E-02 0. -1.
    8880023    1    1    2    0    0 -0.92118388277E+03  0.14783784999E+03 -0.12719497059E+01  0.11420366018E+04  0.65864270000E+03 0.  0.
    8880022    1    1    2    0    0  0.92118388277E+03 -0.14783784999E+03 -0.12098849494E+04  0.15354637800E+04  0.15294330000E+03 0.  1.
<mgrwt>
<rscale>  0 0.10893477E+04</rscale>
<asrwt>0</asrwt>
<pdfrwt beam="1">  1        2 0.29912748E+00 0.11420359E+04</pdfrwt>
<pdfrwt beam="2">  1       -2 0.11279565E+00 0.11420359E+04</pdfrwt>
<totfact> 0.43589637E+00</totfact>
</mgrwt>
</event>
<event>
 4    1  0.2137081E-007  0.9277205E+03  0.7818608E-02  0.9482921E-01
          2   -1    0    0  501    0  0.00000000000E+00  0.00000000000E+00  0.26202811521E+04  0.26202811521E+04  0.25500000000E-02 0. -1.
         -2   -1    0    0    0  501 -0.00000000000E+00 -0.00000000000E+00 -0.10995924822E+04  0.10995924822E+04  0.25500000000E-02 0.  1.
    8880023    1    1    2    0    0 -0.12870294827E+03 -0.64053935592E+03 -0.84866507470E+03  0.12573375564E+04  0.65864270000E+03 0.  1.
    8880022    1    1    2    0    0  0.12870294827E+03  0.64053935592E+03  0.23693537446E+04  0.24625360780E+04  0.15294330000E+03 0.  0.
<mgrwt>
<rscale>  0 0.85554762E+03</rscale>
<asrwt>0</asrwt>
<pdfrwt beam="1">  1        2 0.40312017E+00 0.92772050E+03</pdfrwt>
<pdfrwt beam="2">  1       -2 0.16916808E+00 0.92772050E+03</pdfrwt>
<totfact> 0.65301037E-01</totfact>
</mgrwt>
</event>
<event>
 4    1  0.1998832E-007  0.8723067E+03  0.7818608E-02  0.9572036E-01
          2   -1    0    0  501    0  0.00000000000E+00  0.00000000000E+00  0.32555967756E+03  0.32555967757E+03  0.25500000000E-02 0. -1.
         -2   -1    0    0    0  501 -0.00000000000E+00 -0.00000000000E+00 -0.25491649225E+04  0.25491649225E+04  0.25500000000E-02 0.  1.
    8880023    1    1    2    0    0  0.57191434022E+03 -0.47653080830E+01 -0.20943493604E+04  0.22687481505E+04  0.65864270000E+03 0.  1.
    8880022    1    1    2    0    0 -0.57191434022E+03  0.47653080830E+01 -0.12925588451E+03  0.60597644955E+03  0.15294330000E+03 0.  0.
<mgrwt>
<rscale>  0 0.79174979E+03</rscale>
<asrwt>0</asrwt>
<pdfrwt beam="1">  1        2 0.50086106E-01 0.87230667E+03</pdfrwt>
<pdfrwt beam="2">  1       -2 0.39217921E+00 0.87230667E+03</pdfrwt>
<totfact> 0.87003252E-01</totfact>
</mgrwt>
</event>
<event>
 4    1  0.1998832E-007  0.7059360E+03  0.7818608E-02  0.9973414E-01
          2   -1    0    0  501    0  0.00000000000E+00  0.00000000000E+00  0.23640344603E+04  0.23640344603E+04  0.25500000000E-02 0. -1.
         -2   -1    0    0    0  501 -0.00000000000E+00 -0.00000000000E+00 -0.14997069203E+04  0.14997069203E+04  0.25500000000E-02 0.  1.
    8880023    1    1    2    0    0  0.13466482342E+03  0.21540853133E+03 -0.14064563291E+04  0.15736788306E+04  0.65864270000E+03 0.  1.
    8880022    1    1    2    0    0 -0.13466482342E+03 -0.21540853133E+03  0.22707838691E+04  0.22900625500E+04  0.15294330000E+03 0.  0.
<mgrwt>
<rscale>  0 0.56831530E+03</rscale>
<asrwt>0</asrwt>
<pdfrwt beam="1">  1        2 0.36369761E+00 0.70593601E+03</pdfrwt>
<pdfrwt beam="2">  1       -2 0.23072414E+00 0.70593601E+03</pdfrwt>
<totfact> 0.37792177E-01</totfact>
</mgrwt>
</event>
<event>
 4    1  0.1998832E-007  0.8912430E+03  0.7818608E-02  0.9540238E-01
         -2   -1    0    0    0  501 -0.00000000000E+00  0.00000000000E+00  0.16373447787E+04  0.16373447787E+04  0.25500000000E-02 0.  1.
          2   -1    0    0  501    0  0.00000000000E+00 -0.00000000000E+00 -0.92439670474E+03  0.92439670475E+03  0.25500000000E-02 0. -1.
    8880023    1    1    2    0    0 -0.59454963636E+03  0.83753383617E+02  0.13854306417E+04  0.16473409387E+04  0.65864270000E+03 0.  1.
    8880022    1    1    2    0    0  0.59454963636E+03 -0.83753383617E+02 -0.67248256768E+03  0.91440054473E+03  0.15294330000E+03 0.  0.
<mgrwt>
<rscale>  0 0.81381134E+03</rscale>
<asrwt>0</asrwt>
<pdfrwt beam="1">  1        2 0.14221488E+00 0.89124301E+03</pdfrwt>
<pdfrwt beam="2">  1       -2 0.25189920E+00 0.89124301E+03</pdfrwt>
<totfact> 0.17865327E+00</totfact>
</mgrwt>
</event>
<event>
 4    1  0.1998832E-007  0.7971608E+03  0.7818608E-02  0.9716969E-01
          2   -1    0    0  501    0  0.00000000000E+00  0.00000000000E+00  0.26127299710E+04  0.26127299710E+04  0.25500000000E-02 0. -1.
         -2   -1    0    0    0  501 -0.00000000000E+00 -0.00000000000E+00 -0.25526850727E+03  0.25526850728E+03  0.25500000000E-02 0.  1.
    8880023    1    1    2    0    0 -0.28156148152E+03  0.34982602861E+03  0.47777468331E+03  0.92937289203E+03  0.65864270000E+03 0.  1.
    8880022    1    1    2    0    0  0.28156148152E+03 -0.34982602861E+03  0.18796867804E+04  0.19386255862E+04  0.15294330000E+03 0.  0.
<mgrwt>
<rscale>  0 0.70015395E+03</rscale>
<asrwt>0</asrwt>
<pdfrwt beam="1">  1        2 0.40195846E+00 0.79716079E+03</pdfrwt>
<pdfrwt beam="2">  1       -2 0.39272078E-01 0.79716079E+03</pdfrwt>
<totfact> 0.19096895E+01</totfact>
</mgrwt>
</event>
<event>
 4    1  0.1998832E-007  0.1268401E+04  0.7818608E-02  0.9093339E-01
         -2   -1    0    0    0  501 -0.00000000000E+00  0.00000000000E+00  0.73152265534E+03  0.73152265534E+03  0.25500000000E-02 0.  1.
          2   -1    0    0  501    0  0.00000000000E+00 -0.00000000000E+00 -0.25421906781E+04  0.25421906781E+04  0.25500000000E-02 0. -1.
    8880023    1    1    2    0    0 -0.10235734708E+04  0.35683068364E+03 -0.13969363159E+03  0.12760702582E+04  0.65864270000E+03 0.  0.
    8880022    1    1    2    0    0  0.10235734708E+04 -0.35683068364E+03 -0.16709743912E+04  0.19976430753E+04  0.15294330000E+03 0.  0.
<mgrwt>
<rscale>  0 0.12225557E+04</rscale>
<asrwt>0</asrwt>
<pdfrwt beam="1">  1        2 0.39110626E+00 0.12684010E+04</pdfrwt>
<pdfrwt beam="2">  1       -2 0.11254195E+00 0.12684010E+04</pdfrwt>
<totfact> 0.19923328E+00</totfact>
</mgrwt>
</event>
<event>
 4    1  0.1998832E-007  0.1086403E+04  0.7818608E-02  0.9276347E-01
         -2   -1    0    0    0  501 -0.00000000000E+00  0.00000000000E+00  0.29599995066E+03  0.29599995067E+03  0.25500000000E-02 0.  1.
          2   -1    0    0  501    0  0.00000000000E+00 -0.00000000000E+00 -0.36238965065E+04  0.36238965065E+04  0.25500000000E-02 0. -1.
    8880023    1    1    2    0    0  0.85941470676E+03  0.88704212935E+02 -0.12028658795E+04  0.16208511980E+04  0.65864270000E+03 0.  0.
    8880022    1    1    2    0    0 -0.85941470676E+03 -0.88704212935E+02 -0.21250306763E+04  0.22990452592E+04  0.15294330000E+03 0.  0.
<mgrwt>
<rscale>  0 0.10298983E+04</rscale>
<asrwt>0</asrwt>
<pdfrwt beam="1">  1        2 0.55752251E+00 0.10864034E+04</pdfrwt>
<pdfrwt beam="2">  1       -2 0.45538456E-01 0.10864034E+04</pdfrwt>
<totfact> 0.31175176E+00</totfact>
</mgrwt>
</event>
<event>
 4    1  0.1998832E-007  0.7037370E+03  0.7818608E-02  0.9982038E-01
          2   -1    0    0  501    0  0.00000000000E+00  0.00000000000E+00  0.17278838229E+04  0.17278838229E+04  0.25500000000E-02 0. -1.
         -2   -1    0    0    0  501 -0.00000000000E+00 -0.00000000000E+00 -0.54700484217E+03  0.54700484217E+03  0.25500000000E-02 0.  1.
    8880023    1    1    2    0    0 -0.23423167525E+03  0.81062397107E+02 -0.30045644833E+03  0.76519270352E+03  0.65864270000E+03 0.  1.
    8880022    1    1    2    0    0  0.23423167525E+03 -0.81062397107E+02  0.14813354291E+04  0.15096959616E+04  0.15294330000E+03 0.  0.
<mgrwt>
<rscale>  0 0.56444901E+03</rscale>
<asrwt>0</asrwt>
<pdfrwt beam="1">  1        2 0.26582828E+00 0.70373702E+03</pdfrwt>
<pdfrwt beam="2">  1       -2 0.84154590E-01 0.70373702E+03</pdfrwt>
<totfact> 0.12082901E+01</totfact>
</mgrwt>
</event>
<event>
 4    1  0.1998832E-007  0.1716589E+04  0.7818608E-02  0.8770136E-01
          2   -1    0    0  501    0  0.00000000000E+00  0.00000000000E+00  0.23834077357E+04  0.23834077357E+04  0.25500000000E-02 0. -1.
         -2   -1    0    0    0  501 -0.00000000000E+00 -0.00000000000E+00 -0.14903982383E+04  0.14903982383E+04  0.25500000000E-02 0.  1.
    8880023    1    1    2    0    0  0.95826524523E+03 -0.12627733587E+04  0.13864348555E+04  0.22065540216E+04  0.65864270000E+03 0.  0.
    8880022    1    1    2    0    0 -0.95826524523E+03  0.12627733587E+04 -0.49342535814E+03  0.16672519524E+04  0.15294330000E+03 0.  0.
<mgrwt>
<rscale>  0 0.16847057E+04</rscale>
<asrwt>0</asrwt>
<pdfrwt beam="1">  1        2 0.36667811E+00 0.17165894E+04</pdfrwt>
<pdfrwt beam="2">  1       -2 0.22929204E+00 0.17165894E+04</pdfrwt>
<totfact> 0.32167975E-01</totfact>
</mgrwt>
</event>
<event>
 4    1  0.1998832E-007  0.1156804E+04  0.7818608E-02  0.9200300E-01
         -2   -1    0    0    0  501 -0.00000000000E+00  0.00000000000E+00  0.37137428823E+03  0.37137428824E+03  0.25500000000E-02 0.  1.
          2   -1    0    0  501    0  0.00000000000E+00 -0.00000000000E+00 -0.32005369750E+04  0.32005369750E+04  0.25500000000E-02 0. -1.
    8880023    1    1    2    0    0  0.65182313982E+03 -0.69246754845E+03 -0.11207564709E+04  0.16106799759E+04  0.65864270000E+03 0.  0.
    8880022    1    1    2    0    0 -0.65182313982E+03  0.69246754845E+03 -0.17084062158E+04  0.19612312874E+04  0.15294330000E+03 0.  0.
<mgrwt>
<rscale>  0 0.11050328E+04</rscale>
<asrwt>0</asrwt>
<pdfrwt beam="1">  1        2 0.49239029E+00 0.11568038E+04</pdfrwt>
<pdfrwt beam="2">  1       -2 0.57134508E-01 0.11568038E+04</pdfrwt>
<totfact> 0.37429252E+00</totfact>
</mgrwt>
</event>
<event>
 4    1  0.1998832E-007  0.1304549E+04  0.7818608E-02  0.9061641E-01
         -2   -1    0    0    0  501 -0.00000000000E+00  0.00000000000E+00  0.81375889778E+03  0.81375889778E+03  0.25500000000E-02 0.  1.
          2   -1    0    0  501    0  0.00000000000E+00 -0.00000000000E+00 -0.27874252373E+04  0.27874252373E+04  0.25500000000E-02 0. -1.
    8880023    1    1    2    0    0 -0.42222974036E+03 -0.10439162207E+04  0.21892867501E+02  0.13047331273E+04  0.65864270000E+03 0.  0.
    8880022    1    1    2    0    0  0.42222974036E+03  0.10439162207E+04 -0.19955592070E+04  0.22964510078E+04  0.15294330000E+03 0.  0.
<mgrwt>
<rscale>  0 0.12603155E+04</rscale>
<asrwt>0</asrwt>
<pdfrwt beam="1">  1        2 0.42883465E+00 0.13045494E+04</pdfrwt>
<pdfrwt beam="2">  1       -2 0.12519368E+00 0.13045494E+04</pdfrwt>
<totfact> 0.10914859E+00</totfact>
</mgrwt>
</event>
<event>
 4    1  0.1998832E-007  0.7872573E+03  0.7818608E-02  0.9739058E-01
         -2   -1    0    0    0  501 -0.00000000000E+00  0.00000000000E+00  0.40807846486E+03  0.40807846487E+03  0.25500000000E-02 0.  1.
          2   -1    0    0  501    0  0.00000000000E+00 -0.00000000000E+00 -0.24597913178E+04  0.24597913178E+04  0.25500000000E-02 0. -1.
    8880023    1    1    2    0    0 -0.82723127359E+02 -0.42322650014E+03 -0.22360241750E+02  0.78757474115E+03  0.65864270000E+03 0.  1.
    8880022    1    1    2    0    0  0.82723127359E+02  0.42322650014E+03 -0.20293526112E+04  0.20802950415E+04  0.15294330000E+03 0.  0.
<mgrwt>
<rscale>  0 0.68738181E+03</rscale>
<asrwt>0</asrwt>
<pdfrwt beam="1">  1        2 0.37842943E+00 0.78725726E+03</pdfrwt>
<pdfrwt beam="2">  1       -2 0.62781304E-01 0.78725726E+03</pdfrwt>
<totfact> 0.89953575E+00</totfact>
</mgrwt>
</event>
<event>
 4    1  0.1998832E-007  0.1154310E+04  0.7818608E-02  0.9202869E-01
          2   -1    0    0  501    0  0.00000000000E+00  0.00000000000E+00  0.16290535477E+04  0.16290535477E+04  0.25500000000E-02 0. -1.
         -2   -1    0    0    0  501 -0.00000000000E+00 -0.00000000000E+00 -0.14136395916E+04  0.14136395916E+04  0.25500000000E-02 0.  1.
    8880023    1    1    2    0    0 -0.87777835894E+03  0.35794605770E+03 -0.97661786603E+03  0.15120227810E+04  0.65864270000E+03 0.  0.
    8880022    1    1    2    0    0  0.87777835894E+03 -0.35794605770E+03  0.11920318221E+04  0.15306703583E+04  0.15294330000E+03 0.  0.
<mgrwt>
<rscale>  0 0.11023862E+04</rscale>
<asrwt>0</asrwt>
<pdfrwt beam="1">  1        2 0.25062362E+00 0.11543095E+04</pdfrwt>
<pdfrwt beam="2">  1       -2 0.21748301E+00 0.11543095E+04</pdfrwt>
<totfact> 0.10747340E+00</totfact>
</mgrwt>
</event>
<event>
 4    1  0.1998832E-007  0.1006709E+04  0.7818608E-02  0.9372832E-01
          2   -1    0    0  501    0  0.00000000000E+00  0.00000000000E+00  0.16274781886E+04  0.16274781886E+04  0.25500000000E-02 0. -1.
         -2   -1    0    0    0  501 -0.00000000000E+00 -0.00000000000E+00 -0.61275503386E+03  0.61275503386E+03  0.25500000000E-02 0.  1.
    8880023    1    1    2    0    0  0.24846243516E+03 -0.71966610001E+03  0.58506900548E+02  0.10084077255E+04  0.65864270000E+03 0.  0.
    8880022    1    1    2    0    0 -0.24846243516E+03  0.71966610001E+03  0.95621625424E+03  0.12318254970E+04  0.15294330000E+03 0.  0.
<mgrwt>
<rscale>  0 0.94345599E+03</rscale>
<asrwt>0</asrwt>
<pdfrwt beam="1">  1        2 0.25038126E+00 0.10067090E+04</pdfrwt>
<pdfrwt beam="2">  1       -2 0.94270006E-01 0.10067090E+04</pdfrwt>
<totfact> 0.10176110E+01</totfact>
</mgrwt>
</event>
<event>
 4    1  0.1998832E-007  0.8970183E+03  0.7818608E-02  0.9530835E-01
         -2   -1    0    0    0  501 -0.00000000000E+00  0.00000000000E+00  0.41676104984E+03  0.41676104985E+03  0.25500000000E-02 0.  1.
          2   -1    0    0  501    0  0.00000000000E+00 -0.00000000000E+00 -0.34080829535E+04  0.34080829535E+04  0.25500000000E-02 0. -1.
    8880023    1    1    2    0    0 -0.11543761133E+03  0.59791781476E+03 -0.14325010443E+03  0.90838447477E+03  0.65864270000E+03 0.  1.
    8880022    1    1    2    0    0  0.11543761133E+03 -0.59791781476E+03 -0.28480717992E+04  0.29164595286E+04  0.15294330000E+03 0.  0.
<mgrwt>
<rscale>  0 0.82048139E+03</rscale>
<asrwt>0</asrwt>
<pdfrwt beam="1">  1        2 0.52432043E+00 0.89701826E+03</pdfrwt>
<pdfrwt beam="2">  1       -2 0.64117087E-01 0.89701826E+03</pdfrwt>
<totfact> 0.22264228E+00</totfact>
</mgrwt>
</event>
<event>
 4    1  0.1998832E-007  0.7849404E+03  0.7818608E-02  0.9744357E-01
         -2   -1    0    0    0  501 -0.00000000000E+00  0.00000000000E+00  0.40492406441E+03  0.40492406442E+03  0.25500000000E-02 0.  1.
          2   -1    0    0  501    0  0.00000000000E+00 -0.00000000000E+00 -0.10339985136E+04  0.10339985136E+04  0.25500000000E-02 0. -1.
    8880023    1    1    2    0    0  0.44843101392E+02 -0.42462964010E+03 -0.18989980071E+03  0.80758490301E+03  0.65864270000E+03 0.  0.
    8880022    1    1    2    0    0 -0.44843101392E+02  0.42462964010E+03 -0.43917464845E+03  0.63133767498E+03  0.15294330000E+03 0.  0.
<mgrwt>
<rscale>  0 0.68436092E+03</rscale>
<asrwt>0</asrwt>
<pdfrwt beam="1">  1        2 0.15907669E+00 0.78494041E+03</pdfrwt>
<pdfrwt beam="2">  1       -2 0.62296010E-01 0.78494041E+03</pdfrwt>
<totfact> 0.58013752E+01</totfact>
</mgrwt>
</event>
<event>
 4    1  0.1998832E-007  0.1439548E+04  0.7818608E-02  0.8953547E-01
          2   -1    0    0  501    0  0.00000000000E+00  0.00000000000E+00  0.24780892250E+04  0.24780892250E+04  0.25500000000E-02 0. -1.
         -2   -1    0    0    0  501 -0.00000000000E+00 -0.00000000000E+00 -0.82382376595E+03  0.82382376595E+03  0.25500000000E-02 0.  1.
    8880023    1    1    2    0    0 -0.42839631026E+03 -0.12062193478E+04  0.13583522087E+04  0.19792471910E+04  0.65864270000E+03 0.  0.
    8880022    1    1    2    0    0  0.42839631026E+03  0.12062193478E+04  0.29591325037E+03  0.13226658000E+04  0.15294330000E+03 0.  0.
<mgrwt>
<rscale>  0 0.14003758E+04</rscale>
<asrwt>0</asrwt>
<pdfrwt beam="1">  1        2 0.38124450E+00 0.14395481E+04</pdfrwt>
<pdfrwt beam="2">  1       -2 0.12674212E+00 0.14395481E+04</pdfrwt>
<totfact> 0.15837268E+00</totfact>
</mgrwt>
</event>
<event>
 4    1  0.1998832E-007  0.1398161E+04  0.7818608E-02  0.8985113E-01
         -2   -1    0    0    0  501 -0.00000000000E+00  0.00000000000E+00  0.19473037370E+04  0.19473037370E+04  0.25500000000E-02 0.  1.
          2   -1    0    0  501    0  0.00000000000E+00 -0.00000000000E+00 -0.17118736685E+04  0.17118736685E+04  0.25500000000E-02 0. -1.
    8880023    1    1    2    0    0 -0.97703550886E+02  0.12294300754E+04  0.13837359355E+04  0.19671247138E+04  0.65864270000E+03 0.  0.
    8880022    1    1    2    0    0  0.97703550886E+02 -0.12294300754E+04 -0.11483058670E+04  0.16920526917E+04  0.15294330000E+03 0.  0.
<mgrwt>
<rscale>  0 0.13575760E+04</rscale>
<asrwt>0</asrwt>
<pdfrwt beam="1">  1        2 0.26336518E+00 0.13981611E+04</pdfrwt>
<pdfrwt beam="2">  1       -2 0.29958519E+00 0.13981611E+04</pdfrwt>
<totfact> 0.29353013E-01</totfact>
</mgrwt>
</event>
<event>
 4    1  0.1998832E-007  0.6941653E+03  0.7818608E-02  0.1002232E+00
         -2   -1    0    0    0  501 -0.00000000000E+00  0.00000000000E+00  0.19109355993E+03  0.19109355995E+03  0.25500000000E-02 0.  1.
          2   -1    0    0  501    0  0.00000000000E+00 -0.00000000000E+00 -0.23958817009E+04  0.23958817009E+04  0.25500000000E-02 0. -1.
    8880023    1    1    2    0    0 -0.12165404043E+03 -0.18236108506E+03 -0.48565735381E+03  0.84718861092E+03  0.65864270000E+03 0.  1.
    8880022    1    1    2    0    0  0.12165404043E+03  0.18236108506E+03 -0.17191307871E+04  0.17397866499E+04  0.15294330000E+03 0.  0.
<mgrwt>
<rscale>  0 0.54682092E+03</rscale>
<asrwt>0</asrwt>
<pdfrwt beam="1">  1        2 0.36859716E+00 0.69416531E+03</pdfrwt>
<pdfrwt beam="2">  1       -2 0.29399011E-01 0.69416531E+03</pdfrwt>
<totfact> 0.44547191E+01</totfact>
</mgrwt>
</event>
<event>
 4    1  0.1998832E-007  0.7531981E+03  0.7818608E-02  0.9823046E-01
          2   -1    0    0  501    0  0.00000000000E+00  0.00000000000E+00  0.26823156222E+03  0.26823156223E+03  0.25500000000E-02 0. -1.
         -2   -1    0    0    0  501 -0.00000000000E+00 -0.00000000000E+00 -0.29326796894E+04  0.29326796894E+04  0.25500000000E-02 0.  1.
    8880023    1    1    2    0    0 -0.35029737442E+03  0.10387008430E+03 -0.27001310808E+04  0.28032151728E+04  0.65864270000E+03 0.  0.
    8880022    1    1    2    0    0  0.35029737442E+03 -0.10387008430E+03  0.35682953660E+02  0.39769607885E+03  0.15294330000E+03 0.  0.
<mgrwt>
<rscale>  0 0.64140296E+03</rscale>
<asrwt>0</asrwt>
<pdfrwt beam="1">  1        2 0.41266396E-01 0.75319815E+03</pdfrwt>
<pdfrwt beam="2">  1       -2 0.45118147E+00 0.75319815E+03</pdfrwt>
<totfact> 0.45105667E-01</totfact>
</mgrwt>
</event>
<event>
 4    1  0.1998832E-007  0.7398601E+03  0.7818608E-02  0.9860355E-01
          2   -1    0    0  501    0  0.00000000000E+00  0.00000000000E+00  0.35296050009E+04  0.35296050009E+04  0.25500000000E-02 0. -1.
         -2   -1    0    0    0  501 -0.00000000000E+00 -0.00000000000E+00 -0.24565960452E+03  0.24565960453E+03  0.25500000000E-02 0.  1.
    8880023    1    1    2    0    0  0.27858859370E+03 -0.18966070892E+03  0.35071189562E+03  0.81877458988E+03  0.65864270000E+03 0.  1.
    8880022    1    1    2    0    0 -0.27858859370E+03  0.18966070892E+03  0.29332335007E+04  0.29564900155E+04  0.15294330000E+03 0.  0.
<mgrwt>
<rscale>  0 0.62221741E+03</rscale>
<asrwt>0</asrwt>
<pdfrwt beam="1">  1        2 0.54301616E+00 0.73986012E+03</pdfrwt>
<pdfrwt beam="2">  1       -2 0.37793785E-01 0.73986012E+03</pdfrwt>
<totfact> 0.55625812E+00</totfact>
</mgrwt>
</event>
<event>
 4    1  0.1998832E-007  0.9320874E+03  0.7818608E-02  0.9476369E-01
          2   -1    0    0  501    0  0.00000000000E+00  0.00000000000E+00  0.16435817122E+04  0.16435817122E+04  0.25500000000E-02 0. -1.
         -2   -1    0    0    0  501 -0.00000000000E+00 -0.00000000000E+00 -0.96606186624E+03  0.96606186625E+03  0.25500000000E-02 0.  1.
    8880023    1    1    2    0    0  0.60953540837E+03 -0.25187963113E+03 -0.63841465402E+03  0.11297611426E+04  0.65864270000E+03 0.  0.
    8880022    1    1    2    0    0 -0.60953540837E+03  0.25187963113E+03  0.13159345000E+04  0.14798824358E+04  0.15294330000E+03 0.  0.
<mgrwt>
<rscale>  0 0.86048702E+03</rscale>
<asrwt>0</asrwt>
<pdfrwt beam="1">  1        2 0.25285872E+00 0.93208743E+03</pdfrwt>
<pdfrwt beam="2">  1       -2 0.14862490E+00 0.93208743E+03</pdfrwt>
<totfact> 0.32448497E+00</totfact>
</mgrwt>
</event>
<event>
 4    1  0.1998832E-007  0.9827316E+03  0.7818608E-02  0.9404507E-01
         -2   -1    0    0    0  501 -0.00000000000E+00  0.00000000000E+00  0.47960760274E+03  0.47960760274E+03  0.25500000000E-02 0.  1.
          2   -1    0    0  501    0  0.00000000000E+00 -0.00000000000E+00 -0.19839305386E+04  0.19839305386E+04  0.25500000000E-02 0. -1.
    8880023    1    1    2    0    0  0.72405275303E+03  0.87742366842E+02 -0.26569827641E+03  0.10180161553E+04  0.65864270000E+03 0.  1.
    8880022    1    1    2    0    0 -0.72405275303E+03 -0.87742366842E+02 -0.12386246594E+04  0.14455219860E+04  0.15294330000E+03 0.  0.
<mgrwt>
<rscale>  0 0.91705697E+03</rscale>
<asrwt>0</asrwt>
<pdfrwt beam="1">  1        2 0.30522008E+00 0.98273156E+03</pdfrwt>
<pdfrwt beam="2">  1       -2 0.73785786E-01 0.98273156E+03</pdfrwt>
<totfact> 0.11341079E+01</totfact>
</mgrwt>
</event>
<event>
 4    1  0.1998832E-007  0.8339087E+03  0.7818608E-02  0.9641775E-01
         -2   -1    0    0    0  501 -0.00000000000E+00  0.00000000000E+00  0.58037850230E+03  0.58037850230E+03  0.25500000000E-02 0.  1.
          2   -1    0    0  501    0  0.00000000000E+00 -0.00000000000E+00 -0.13076104599E+04  0.13076104599E+04  0.25500000000E-02 0. -1.
    8880023    1    1    2    0    0  0.32962115555E+02  0.51039888401E+03  0.16326019794E+03  0.84973973684E+03  0.65864270000E+03 0.  1.
    8880022    1    1    2    0    0 -0.32962115555E+02 -0.51039888401E+03 -0.89049215554E+03  0.10382492254E+04  0.15294330000E+03 0.  0.
<mgrwt>
<rscale>  0 0.74591899E+03</rscale>
<asrwt>0</asrwt>
<pdfrwt beam="1">  1        2 0.20117084E+00 0.83390870E+03</pdfrwt>
<pdfrwt beam="2">  1       -2 0.89289000E-01 0.83390870E+03</pdfrwt>
<totfact> 0.17811859E+01</totfact>
</mgrwt>
</event>
<event>
 4    1  0.1998832E-007  0.1338607E+04  0.7818608E-02  0.9032918E-01
         -2   -1    0    0    0  501 -0.00000000000E+00  0.00000000000E+00  0.29642701327E+04  0.29642701327E+04  0.25500000000E-02 0.  1.
          2   -1    0    0  501    0  0.00000000000E+00 -0.00000000000E+00 -0.82031443843E+03  0.82031443844E+03  0.25500000000E-02 0. -1.
    8880023    1    1    2    0    0  0.75776102028E+03 -0.88535614613E+03 -0.11217623620E+01  0.13386070125E+04  0.65864270000E+03 0.  0.
    8880022    1    1    2    0    0 -0.75776102028E+03  0.88535614613E+03  0.21450774567E+04  0.24459775587E+04  0.15294330000E+03 0.  0.
<mgrwt>
<rscale>  0 0.12957809E+04</rscale>
<asrwt>0</asrwt>
<pdfrwt beam="1">  1        2 0.12620222E+00 0.13386065E+04</pdfrwt>
<pdfrwt beam="2">  1       -2 0.45604156E+00 0.13386065E+04</pdfrwt>
<totfact> 0.10219996E-01</totfact>
</mgrwt>
</event>
<event>
 4    1  0.1998832E-007  0.1240468E+04  0.7818608E-02  0.9118754E-01
          2   -1    0    0  501    0  0.00000000000E+00  0.00000000000E+00  0.68749321698E+03  0.68749321699E+03  0.25500000000E-02 0. -1.
         -2   -1    0    0    0  501 -0.00000000000E+00 -0.00000000000E+00 -0.27727970261E+04  0.27727970261E+04  0.25500000000E-02 0.  1.
    8880023    1    1    2    0    0  0.83087597821E+03 -0.64389201512E+03 -0.20516709144E+04  0.23975227977E+04  0.65864270000E+03 0.  0.
    8880022    1    1    2    0    0 -0.83087597821E+03  0.64389201512E+03 -0.33632894701E+02  0.10627674454E+04  0.15294330000E+03 0.  0.
<mgrwt>
<rscale>  0 0.11932858E+04</rscale>
<asrwt>0</asrwt>
<pdfrwt beam="1">  1        2 0.10576819E+00 0.12404685E+04</pdfrwt>
<pdfrwt beam="2">  1       -2 0.42658415E+00 0.12404685E+04</pdfrwt>
<totfact> 0.20485865E-01</totfact>
</mgrwt>
</event>
<event>
 4    1  0.1998832E-007  0.1305804E+04  0.7818608E-02  0.9060564E-01
          2   -1    0    0  501    0  0.00000000000E+00  0.00000000000E+00  0.16940175483E+04  0.16940175483E+04  0.25500000000E-02 0. -1.
         -2   -1    0    0    0  501 -0.00000000000E+00 -0.00000000000E+00 -0.90891387545E+03  0.90891387545E+03  0.25500000000E-02 0.  1.
    8880023    1    1    2    0    0 -0.97588679946E+02  0.11232948732E+04  0.19220445779E+03  0.13198741161E+04  0.65864270000E+03 0.  0.
    8880022    1    1    2    0    0  0.97588679946E+02 -0.11232948732E+04  0.59289921511E+03  0.12830573077E+04  0.15294330000E+03 0.  0.
<mgrwt>
<rscale>  0 0.12616242E+04</rscale>
<asrwt>0</asrwt>
<pdfrwt beam="1">  1        2 0.26061808E+00 0.13058044E+04</pdfrwt>
<pdfrwt beam="2">  1       -2 0.13983290E+00 0.13058044E+04</pdfrwt>
<totfact> 0.34294595E+00</totfact>
</mgrwt>
</event>
<event>
 4    1  0.1998832E-007  0.7689154E+03  0.7818608E-02  0.9782550E-01
          2   -1    0    0  501    0  0.00000000000E+00  0.00000000000E+00  0.21932700629E+04  0.21932700629E+04  0.25500000000E-02 0. -1.
         -2   -1    0    0    0  501 -0.00000000000E+00 -0.00000000000E+00 -0.22937520822E+03  0.22937520823E+03  0.25500000000E-02 0.  1.
    8880023    1    1    2    0    0 -0.16182386210E+03 -0.36226197026E+03  0.54782389126E+03  0.94410906125E+03  0.65864270000E+03 0.  1.
    8880022    1    1    2    0    0  0.16182386210E+03  0.36226197026E+03  0.14160709634E+04  0.14785362098E+04  0.15294330000E+03 0.  0.
<mgrwt>
<rscale>  0 0.66307466E+03</rscale>
<asrwt>0</asrwt>
<pdfrwt beam="1">  1        2 0.33742616E+00 0.76891541E+03</pdfrwt>
<pdfrwt beam="2">  1       -2 0.35288494E-01 0.76891541E+03</pdfrwt>
<totfact> 0.40552293E+01</totfact>
</mgrwt>
</event>
<event>
 4    1  0.1998832E-007  0.6720077E+03  0.7818608E-02  0.1014263E+00
         -2   -1    0    0    0  501 -0.00000000000E+00  0.00000000000E+00  0.10711147416E+04  0.10711147416E+04  0.25500000000E-02 0.  1.
          2   -1    0    0  501    0  0.00000000000E+00 -0.00000000000E+00 -0.57799816332E+03  0.57799816333E+03  0.25500000000E-02 0. -1.
    8880023    1    1    2    0    0  0.12380188185E+03 -0.49570349886E+02  0.94162996933E+03  0.11568324559E+04  0.65864270000E+03 0.  1.
    8880022    1    1    2    0    0 -0.12380188185E+03  0.49570349886E+02 -0.44851339107E+03  0.49228044906E+03  0.15294330000E+03 0.  0.
<mgrwt>
<rscale>  0 0.49815089E+03</rscale>
<asrwt>0</asrwt>
<pdfrwt beam="1">  1        2 0.88922795E-01 0.67200769E+03</pdfrwt>
<pdfrwt beam="2">  1       -2 0.16478688E+00 0.67200769E+03</pdfrwt>
<totfact> 0.12344526E+01</totfact>
</mgrwt>
</event>
<event>
 4    1  0.1998832E-007  0.6619935E+03  0.7818608E-02  0.1022201E+00
          2   -1    0    0  501    0  0.00000000000E+00  0.00000000000E+00  0.53921190173E+03  0.53921190173E+03  0.25500000000E-02 0. -1.
         -2   -1    0    0    0  501 -0.00000000000E+00 -0.00000000000E+00 -0.14306607907E+04  0.14306607907E+04  0.25500000000E-02 0.  1.
    8880023    1    1    2    0    0 -0.27875401506E+02  0.60400135330E+02 -0.13382086425E+04  0.14929962463E+04  0.65864270000E+03 0.  1.
    8880022    1    1    2    0    0  0.27875401506E+02 -0.60400135330E+02  0.44675975360E+03  0.47687644606E+03  0.15294330000E+03 0.  0.
<mgrwt>
<rscale>  0 0.46900647E+03</rscale>
<asrwt>0</asrwt>
<pdfrwt beam="1">  1        2 0.82955678E-01 0.66199352E+03</pdfrwt>
<pdfrwt beam="2">  1       -2 0.22010166E+00 0.66199352E+03</pdfrwt>
<totfact> 0.57570989E+00</totfact>
</mgrwt>
</event>
<event>
 4    1  0.1998832E-007  0.6677565E+03  0.7818608E-02  0.1017325E+00
          2   -1    0    0  501    0  0.00000000000E+00  0.00000000000E+00  0.55571196507E+03  0.55571196507E+03  0.25500000000E-02 0. -1.
         -2   -1    0    0    0  501 -0.00000000000E+00 -0.00000000000E+00 -0.99440646752E+03  0.99440646753E+03  0.25500000000E-02 0.  1.
    8880023    1    1    2    0    0 -0.87063788232E+02  0.67145272144E+02 -0.85989210861E+03  0.10887209172E+04  0.65864270000E+03 0.  1.
    8880022    1    1    2    0    0  0.87063788232E+02 -0.67145272144E+02  0.42119760615E+03  0.46139751542E+03  0.15294330000E+03 0.  0.
<mgrwt>
<rscale>  0 0.48664463E+03</rscale>
<asrwt>0</asrwt>
<pdfrwt beam="1">  1        2 0.85494148E-01 0.66775654E+03</pdfrwt>
<pdfrwt beam="2">  1       -2 0.15298561E+00 0.66775654E+03</pdfrwt>
<totfact> 0.15811267E+01</totfact>
</mgrwt>
</event>
<event>
 4    1  0.1998832E-007  0.1021066E+04  0.7818608E-02  0.9354501E-01
          2   -1    0    0  501    0  0.00000000000E+00  0.00000000000E+00  0.30519038659E+04  0.30519038659E+04  0.25500000000E-02 0. -1.
         -2   -1    0    0    0  501 -0.00000000000E+00 -0.00000000000E+00 -0.37790969358E+03  0.37790969359E+03  0.25500000000E-02 0.  1.
    8880023    1    1    2    0    0  0.63103777999E+02  0.77767855122E+03  0.54545464052E+03  0.11576255815E+04  0.65864270000E+03 0.  0.
    8880022    1    1    2    0    0 -0.63103777999E+02 -0.77767855122E+03  0.21285395318E+04  0.22721879780E+04  0.15294330000E+03 0.  0.
<mgrwt>
<rscale>  0 0.95916563E+03</rscale>
<asrwt>0</asrwt>
<pdfrwt beam="1">  1        2 0.46952368E+00 0.10210662E+04</pdfrwt>
<pdfrwt beam="2">  1       -2 0.58139951E-01 0.10210662E+04</pdfrwt>
<totfact> 0.45636393E+00</totfact>
</mgrwt>
</event>
<event>
 4    1  0.1998832E-007  0.1307247E+04  0.7818608E-02  0.9059326E-01
         -2   -1    0    0    0  501 -0.00000000000E+00  0.00000000000E+00  0.67585549244E+03  0.67585549244E+03  0.25500000000E-02 0.  1.
          2   -1    0    0  501    0  0.00000000000E+00 -0.00000000000E+00 -0.27156435286E+04  0.27156435286E+04  0.25500000000E-02 0. -1.
    8880023    1    1    2    0    0  0.98366774784E+03 -0.55451175371E+03 -0.34981409701E+03  0.13532426360E+04  0.65864270000E+03 0.  0.
    8880022    1    1    2    0    0 -0.98366774784E+03  0.55451175371E+03 -0.16899739391E+04  0.20382563850E+04  0.15294330000E+03 0.  0.
<mgrwt>
<rscale>  0 0.12631288E+04</rscale>
<asrwt>0</asrwt>
<pdfrwt beam="1">  1        2 0.41779131E+00 0.13072474E+04</pdfrwt>
<pdfrwt beam="2">  1       -2 0.10397777E+00 0.13072474E+04</pdfrwt>
<totfact> 0.19035127E+00</totfact>
</mgrwt>
</event>
<event>
 4    1  0.1998832E-007  0.8722765E+03  0.7818608E-02  0.9572088E-01
          2   -1    0    0  501    0  0.00000000000E+00  0.00000000000E+00  0.10518003928E+04  0.10518003928E+04  0.25500000000E-02 0. -1.
         -2   -1    0    0    0  501 -0.00000000000E+00 -0.00000000000E+00 -0.88465877082E+03  0.88465877082E+03  0.25500000000E-02 0.  1.
    8880023    1    1    2    0    0  0.28683809628E+03  0.49475245140E+03 -0.53094452080E+03  0.10211603067E+04  0.65864270000E+03 0.  1.
    8880022    1    1    2    0    0 -0.28683809628E+03 -0.49475245140E+03  0.69808614278E+03  0.91529885688E+03  0.15294330000E+03 0.  0.
<mgrwt>
<rscale>  0 0.79171438E+03</rscale>
<asrwt>0</asrwt>
<pdfrwt beam="1">  1        2 0.16181544E+00 0.87227650E+03</pdfrwt>
<pdfrwt beam="2">  1       -2 0.13610135E+00 0.87227650E+03</pdfrwt>
<totfact> 0.90589298E+00</totfact>
</mgrwt>
</event>
<event>
 4    1  0.1998832E-007  0.1285318E+04  0.7818608E-02  0.9078343E-01
          2   -1    0    0  501    0  0.00000000000E+00  0.00000000000E+00  0.19162110176E+04  0.19162110176E+04  0.25500000000E-02 0. -1.
         -2   -1    0    0    0  501 -0.00000000000E+00 -0.00000000000E+00 -0.13557310297E+04  0.13557310297E+04  0.25500000000E-02 0.  1.
    8880023    1    1    2    0    0 -0.10945096151E+04 -0.14241172942E+03 -0.79956500549E+03  0.15137195257E+04  0.65864270000E+03 0.  0.
    8880022    1    1    2    0    0  0.10945096151E+04  0.14241172942E+03  0.13600449934E+04  0.17582225216E+04  0.15294330000E+03 0.  0.
<mgrwt>
<rscale>  0 0.12402428E+04</rscale>
<asrwt>0</asrwt>
<pdfrwt beam="1">  1        2 0.29480169E+00 0.12853181E+04</pdfrwt>
<pdfrwt beam="2">  1       -2 0.20857401E+00 0.12853181E+04</pdfrwt>
<totfact> 0.83595309E-01</totfact>
</mgrwt>
</event>
<event>
 4    1  0.1998832E-007  0.9035727E+03  0.7818608E-02  0.9520320E-01
         -2   -1    0    0    0  501 -0.00000000000E+00  0.00000000000E+00  0.29068439527E+03  0.29068439528E+03  0.25500000000E-02 0.  1.
          2   -1    0    0  501    0  0.00000000000E+00 -0.00000000000E+00 -0.24928701080E+04  0.24928701080E+04  0.25500000000E-02 0. -1.
    8880023    1    1    2    0    0 -0.45228478111E+03 -0.42198565383E+03 -0.67221228179E+03  0.11261940212E+04  0.65864270000E+03 0.  1.
    8880022    1    1    2    0    0  0.45228478111E+03  0.42198565383E+03 -0.15299734310E+04  0.16573604821E+04  0.15294330000E+03 0.  0.
<mgrwt>
<rscale>  0 0.82802115E+03</rscale>
<asrwt>0</asrwt>
<pdfrwt beam="1">  1        2 0.38351846E+00 0.90357270E+03</pdfrwt>
<pdfrwt beam="2">  1       -2 0.44720678E-01 0.90357270E+03</pdfrwt>
<totfact> 0.17063622E+01</totfact>
</mgrwt>
</event>
<event>
 4    1  0.1998832E-007  0.1047029E+04  0.7818608E-02  0.9322462E-01
          2   -1    0    0  501    0  0.00000000000E+00  0.00000000000E+00  0.13049478161E+04  0.13049478161E+04  0.25500000000E-02 0. -1.
         -2   -1    0    0    0  501 -0.00000000000E+00 -0.00000000000E+00 -0.11314732560E+04  0.11314732560E+04  0.25500000000E-02 0.  1.
    8880023    1    1    2    0    0  0.66271486942E+03 -0.47251188511E+03 -0.67898888875E+03  0.12479161018E+04  0.65864270000E+03 0.  0.
    8880022    1    1    2    0    0 -0.66271486942E+03  0.47251188511E+03  0.85246344884E+03  0.11885049703E+04  0.15294330000E+03 0.  0.
<mgrwt>
<rscale>  0 0.98741002E+03</rscale>
<asrwt>0</asrwt>
<pdfrwt beam="1">  1        2 0.20076120E+00 0.10470285E+04</pdfrwt>
<pdfrwt beam="2">  1       -2 0.17407281E+00 0.10470285E+04</pdfrwt>
<totfact> 0.32306804E+00</totfact>
</mgrwt>
</event>
<event>
 4    1  0.1998832E-007  0.9023056E+03  0.7818608E-02  0.9522340E-01
         -2   -1    0    0    0  501 -0.00000000000E+00  0.00000000000E+00  0.90490013955E+03  0.90490013956E+03  0.25500000000E-02 0.  1.
          2   -1    0    0  501    0  0.00000000000E+00 -0.00000000000E+00 -0.75860565887E+03  0.75860565888E+03  0.25500000000E-02 0. -1.
    8880023    1    1    2    0    0  0.19610926658E+03  0.58471050612E+03  0.38998260687E+03  0.98297602225E+03  0.65864270000E+03 0.  0.
    8880022    1    1    2    0    0 -0.19610926658E+03 -0.58471050612E+03 -0.24368812618E+03  0.68052977618E+03  0.15294330000E+03 0.  0.
<mgrwt>
<rscale>  0 0.82656602E+03</rscale>
<asrwt>0</asrwt>
<pdfrwt beam="1">  1        2 0.11670856E+00 0.90230562E+03</pdfrwt>
<pdfrwt beam="2">  1       -2 0.13921541E+00 0.90230562E+03</pdfrwt>
<totfact> 0.13472082E+01</totfact>
</mgrwt>
</event>
<event>
 4    1  0.1998832E-007  0.1268057E+04  0.7818608E-02  0.9093648E-01
         -2   -1    0    0    0  501 -0.00000000000E+00  0.00000000000E+00  0.22261608883E+04  0.22261608883E+04  0.25500000000E-02 0.  1.
          2   -1    0    0  501    0  0.00000000000E+00 -0.00000000000E+00 -0.12718734439E+04  0.12718734439E+04  0.25500000000E-02 0. -1.
    8880023    1    1    2    0    0 -0.36837092998E+03  0.10190488250E+04  0.17384309187E+04  0.21517690199E+04  0.65864270000E+03 0.  0.
    8880022    1    1    2    0    0  0.36837092998E+03 -0.10190488250E+04 -0.78414347432E+03  0.13462653123E+04  0.15294330000E+03 0.  0.
<mgrwt>
<rscale>  0 0.12221955E+04</rscale>
<asrwt>0</asrwt>
<pdfrwt beam="1">  1        2 0.19567284E+00 0.12680567E+04</pdfrwt>
<pdfrwt beam="2">  1       -2 0.34248629E+00 0.12680567E+04</pdfrwt>
<totfact> 0.28926266E-01</totfact>
</mgrwt>
</event>
<event>
 4    1  0.1998832E-007  0.7306479E+03  0.7818608E-02  0.9888077E-01
          2   -1    0    0  501    0  0.00000000000E+00  0.00000000000E+00  0.27582199390E+04  0.27582199390E+04  0.25500000000E-02 0. -1.
         -2   -1    0    0    0  501 -0.00000000000E+00 -0.00000000000E+00 -0.16353978933E+03  0.16353978935E+03  0.25500000000E-02 0.  1.
    8880023    1    1    2    0    0  0.28740612794E+03 -0.13203763806E+03  0.76194253810E+03  0.10556528112E+04  0.65864270000E+03 0.  1.
    8880022    1    1    2    0    0 -0.28740612794E+03  0.13203763806E+03  0.18327376116E+04  0.18661069171E+04  0.15294330000E+03 0.  0.
<mgrwt>
<rscale>  0 0.60842603E+03</rscale>
<asrwt>0</asrwt>
<pdfrwt beam="1">  1        2 0.42434152E+00 0.73064795E+03</pdfrwt>
<pdfrwt beam="2">  1       -2 0.25159968E-01 0.73064795E+03</pdfrwt>
<totfact> 0.36535026E+01</totfact>
</mgrwt>
</event>
<event>
 4    1  0.1998832E-007  0.9596421E+03  0.7818608E-02  0.9436375E-01
         -2   -1    0    0    0  501 -0.00000000000E+00  0.00000000000E+00  0.13276159370E+04  0.13276159371E+04  0.25500000000E-02 0.  1.
          2   -1    0    0  501    0  0.00000000000E+00 -0.00000000000E+00 -0.11392786759E+04  0.11392786759E+04  0.25500000000E-02 0. -1.
    8880023    1    1    2    0    0 -0.39488904733E+03 -0.57546975002E+03  0.99971945291E+03  0.13857676514E+04  0.65864270000E+03 0.  0.
    8880022    1    1    2    0    0  0.39488904733E+03  0.57546975002E+03 -0.81138219179E+03  0.10811269616E+04  0.15294330000E+03 0.  0.
<mgrwt>
<rscale>  0 0.89141688E+03</rscale>
<asrwt>0</asrwt>
<pdfrwt beam="1">  1        2 0.17527364E+00 0.95964212E+03</pdfrwt>
<pdfrwt beam="2">  1       -2 0.20424860E+00 0.95964212E+03</pdfrwt>
<totfact> 0.25641875E+00</totfact>
</mgrwt>
</event>
<event>
 4    1  0.1998832E-007  0.9601427E+03  0.7818608E-02  0.9435669E-01
          2   -1    0    0  501    0  0.00000000000E+00  0.00000000000E+00  0.16085408030E+04  0.16085408030E+04  0.25500000000E-02 0. -1.
         -2   -1    0    0    0  501 -0.00000000000E+00 -0.00000000000E+00 -0.13232182268E+04  0.13232182268E+04  0.25500000000E-02 0.  1.
    8880023    1    1    2    0    0 -0.27559522084E+03 -0.64195878109E+03 -0.10464041661E+04  0.14201534028E+04  0.65864270000E+03 0.  0.
    8880022    1    1    2    0    0  0.27559522084E+03  0.64195878109E+03  0.13317267423E+04  0.15116056270E+04  0.15294330000E+03 0.  0.
<mgrwt>
<rscale>  0 0.89197527E+03</rscale>
<asrwt>0</asrwt>
<pdfrwt beam="1">  1        2 0.24746782E+00 0.96014270E+03</pdfrwt>
<pdfrwt beam="2">  1       -2 0.20357203E+00 0.96014270E+03</pdfrwt>
<totfact> 0.13904221E+00</totfact>
</mgrwt>
</event>
<event>
 4    1  0.1998832E-007  0.9346840E+03  0.7818608E-02  0.9472502E-01
          2   -1    0    0  501    0  0.00000000000E+00  0.00000000000E+00  0.18758405302E+04  0.18758405302E+04  0.25500000000E-02 0. -1.
         -2   -1    0    0    0  501 -0.00000000000E+00 -0.00000000000E+00 -0.14772404668E+04  0.14772404668E+04  0.25500000000E-02 0.  1.
    8880023    1    1    2    0    0 -0.66088304493E+03 -0.55295774133E+02 -0.12550439302E+04  0.15648544644E+04  0.65864270000E+03 0.  1.
    8880022    1    1    2    0    0  0.66088304493E+03  0.55295774133E+02  0.16536439936E+04  0.17882265327E+04  0.15294330000E+03 0.  0.
<mgrwt>
<rscale>  0 0.86341884E+03</rscale>
<asrwt>0</asrwt>
<pdfrwt beam="1">  1        2 0.28859085E+00 0.93468403E+03</pdfrwt>
<pdfrwt beam="2">  1       -2 0.22726776E+00 0.93468403E+03</pdfrwt>
<totfact> 0.70341948E-01</totfact>
</mgrwt>
</event>
<event>
 4    1  0.1998832E-007  0.1734980E+04  0.7818608E-02  0.8759382E-01
          2   -1    0    0  501    0  0.00000000000E+00  0.00000000000E+00  0.27854360019E+04  0.27854360019E+04  0.25500000000E-02 0. -1.
         -2   -1    0    0    0  501 -0.00000000000E+00 -0.00000000000E+00 -0.20621736196E+04  0.20621736196E+04  0.25500000000E-02 0.  1.
    8880023    1    1    2    0    0 -0.52721423012E+03 -0.15160441715E+04  0.21024199798E+04  0.27258622034E+04  0.65864270000E+03 0.  0.
    8880022    1    1    2    0    0  0.52721423012E+03  0.15160441715E+04 -0.13791575974E+04  0.21217474180E+04  0.15294330000E+03 0.  0.
<mgrwt>
<rscale>  0 0.17034798E+04</rscale>
<asrwt>0</asrwt>
<pdfrwt beam="1">  1        2 0.42852862E+00 0.17349798E+04</pdfrwt>
<pdfrwt beam="2">  1       -2 0.31725748E+00 0.17349798E+04</pdfrwt>
<totfact> 0.53538274E-02</totfact>
</mgrwt>
</event>
<event>
 4    1  0.1998832E-007  0.1209937E+04  0.7818608E-02  0.9147523E-01
         -2   -1    0    0    0  501 -0.00000000000E+00  0.00000000000E+00  0.15873856221E+04  0.15873856221E+04  0.25500000000E-02 0.  1.
          2   -1    0    0  501    0  0.00000000000E+00 -0.00000000000E+00 -0.16355047077E+04  0.16355047077E+04  0.25500000000E-02 0. -1.
    8880023    1    1    2    0    0 -0.41957711409E+03 -0.92417059514E+03  0.11333477709E+04  0.16578370305E+04  0.65864270000E+03 0.  1.
    8880022    1    1    2    0    0  0.41957711409E+03  0.92417059514E+03 -0.11814668565E+04  0.15650532993E+04  0.15294330000E+03 0.  0.
<mgrwt>
<rscale>  0 0.11611884E+04</rscale>
<asrwt>0</asrwt>
<pdfrwt beam="1">  1        2 0.25161611E+00 0.12099365E+04</pdfrwt>
<pdfrwt beam="2">  1       -2 0.24421317E+00 0.12099365E+04</pdfrwt>
<totfact> 0.72103130E-01</totfact>
</mgrwt>
</event>
<event>
 4    1  0.1998832E-007  0.1067183E+04  0.7818608E-02  0.9298505E-01
          2   -1    0    0  501    0  0.00000000000E+00  0.00000000000E+00  0.22795921412E+04  0.22795921412E+04  0.25500000000E-02 0. -1.
         -2   -1    0    0    0  501 -0.00000000000E+00 -0.00000000000E+00 -0.63141909032E+03  0.63141909032E+03  0.25500000000E-02 0.  1.
    8880023    1    1    2    0    0  0.37508959267E+03 -0.75125032165E+03  0.17517799503E+04  0.20512465597E+04  0.65864270000E+03 0. -1.
    8880022    1    1    2    0    0 -0.37508959267E+03  0.75125032165E+03 -0.10360689938E+03  0.85976467182E+03  0.15294330000E+03 0.  0.
<mgrwt>
<rscale>  0 0.10092063E+04</rscale>
<asrwt>0</asrwt>
<pdfrwt beam="1">  1        2 0.35070649E+00 0.10671830E+04</pdfrwt>
<pdfrwt beam="2">  1       -2 0.97141398E-01 0.10671830E+04</pdfrwt>
<totfact> 0.41036841E+00</totfact>
</mgrwt>
</event>
<event>
 4    1  0.1998832E-007  0.1273800E+04  0.7818608E-02  0.9088522E-01
         -2   -1    0    0    0  501 -0.00000000000E+00  0.00000000000E+00  0.14969739358E+04  0.14969739358E+04  0.25500000000E-02 0.  1.
          2   -1    0    0  501    0  0.00000000000E+00 -0.00000000000E+00 -0.11319836858E+04  0.11319836858E+04  0.25500000000E-02 0. -1.
    8880023    1    1    2    0    0 -0.10397431458E+04 -0.32816196116E+03  0.73110983178E+03  0.14687027862E+04  0.65864270000E+03 0.  0.
    8880022    1    1    2    0    0  0.10397431458E+04  0.32816196116E+03 -0.36611958174E+03  0.11602548354E+04  0.15294330000E+03 0.  0.
<mgrwt>
<rscale>  0 0.12282036E+04</rscale>
<asrwt>0</asrwt>
<pdfrwt beam="1">  1        2 0.17415134E+00 0.12737999E+04</pdfrwt>
<pdfrwt beam="2">  1       -2 0.23030368E+00 0.12737999E+04</pdfrwt>
<totfact> 0.17102425E+00</totfact>
</mgrwt>
</event>
<event>
 4    1  0.1998832E-007  0.1114650E+04  0.7818608E-02  0.9244917E-01
         -2   -1    0    0    0  501 -0.00000000000E+00  0.00000000000E+00  0.91943793201E+03  0.91943793201E+03  0.25500000000E-02 0.  1.
          2   -1    0    0  501    0  0.00000000000E+00 -0.00000000000E+00 -0.25921109617E+04  0.25921109617E+04  0.25500000000E-02 0. -1.
    8880023    1    1    2    0    0  0.25485122335E+03  0.86237241453E+03  0.44932634414E+03  0.12018068469E+04  0.65864270000E+03 0.  1.
    8880022    1    1    2    0    0 -0.25485122335E+03 -0.86237241453E+03 -0.21219993738E+04  0.23097420468E+04  0.15294330000E+03 0.  0.
<mgrwt>
<rscale>  0 0.10601594E+04</rscale>
<asrwt>0</asrwt>
<pdfrwt beam="1">  1        2 0.39878630E+00 0.11146504E+04</pdfrwt>
<pdfrwt beam="2">  1       -2 0.14145199E+00 0.11146504E+04</pdfrwt>
<totfact> 0.10656594E+00</totfact>
</mgrwt>
</event>
<event>
 4    1  0.1998832E-007  0.9465971E+03  0.7818608E-02  0.9455027E-01
          2   -1    0    0  501    0  0.00000000000E+00  0.00000000000E+00  0.15157656638E+04  0.15157656638E+04  0.25500000000E-02 0. -1.
         -2   -1    0    0    0  501 -0.00000000000E+00 -0.00000000000E+00 -0.57993860418E+03  0.57993860419E+03  0.25500000000E-02 0.  1.
    8880023    1    1    2    0    0  0.64091944841E+02 -0.67685157561E+03  0.22477924077E+02  0.94686392694E+03  0.65864270000E+03 0.  0.
    8880022    1    1    2    0    0 -0.64091944841E+02  0.67685157561E+03  0.91334913550E+03  0.11488403410E+04  0.15294330000E+03 0.  0.
<mgrwt>
<rscale>  0 0.87682269E+03</rscale>
<asrwt>0</asrwt>
<pdfrwt beam="1">  1        2 0.23319471E+00 0.94659708E+03</pdfrwt>
<pdfrwt beam="2">  1       -2 0.89221326E-01 0.94659708E+03</pdfrwt>
<totfact> 0.13432631E+01</totfact>
</mgrwt>
</event>
<event>
 4    1  0.1998832E-007  0.6798634E+03  0.7818608E-02  0.1009401E+00
         -2   -1    0    0    0  501 -0.00000000000E+00  0.00000000000E+00  0.52896341260E+03  0.52896341260E+03  0.25500000000E-02 0.  1.
          2   -1    0    0  501    0  0.00000000000E+00 -0.00000000000E+00 -0.24115145248E+04  0.24115145248E+04  0.25500000000E-02 0. -1.
    8880023    1    1    2    0    0  0.12381302689E+03  0.11434305321E+03  0.30213065259E+03  0.74397388189E+03  0.65864270000E+03 0.  1.
    8880022    1    1    2    0    0 -0.12381302689E+03 -0.11434305321E+03 -0.21846817648E+04  0.21965040555E+04  0.15294330000E+03 0.  0.
<mgrwt>
<rscale>  0 0.51713377E+03</rscale>
<asrwt>0</asrwt>
<pdfrwt beam="1">  1        2 0.37100223E+00 0.67986337E+03</pdfrwt>
<pdfrwt beam="2">  1       -2 0.81378987E-01 0.67986337E+03</pdfrwt>
<totfact> 0.55242181E+00</totfact>
</mgrwt>
</event>
<event>
 4    1  0.1998832E-007  0.9167971E+03  0.7818608E-02  0.9499588E-01
          2   -1    0    0  501    0  0.00000000000E+00  0.00000000000E+00  0.35324675992E+04  0.35324675992E+04  0.25500000000E-02 0. -1.
         -2   -1    0    0    0  501 -0.00000000000E+00 -0.00000000000E+00 -0.29430131570E+03  0.29430131571E+03  0.25500000000E-02 0.  1.
    8880023    1    1    2    0    0 -0.60581995130E+03  0.19922078217E+03  0.57080933749E+03  0.10799723327E+04  0.65864270000E+03 0.  1.
    8880022    1    1    2    0    0  0.60581995130E+03 -0.19922078217E+03  0.26673569460E+04  0.27467965822E+04  0.15294330000E+03 0.  0.
<mgrwt>
<rscale>  0 0.84314235E+03</rscale>
<asrwt>0</asrwt>
<pdfrwt beam="1">  1        2 0.54345656E+00 0.91679711E+03</pdfrwt>
<pdfrwt beam="2">  1       -2 0.45277125E-01 0.91679711E+03</pdfrwt>
<totfact> 0.37551962E+00</totfact>
</mgrwt>
</event>
<event>
 4    1  0.1998832E-007  0.7284937E+03  0.7818608E-02  0.9894829E-01
         -2   -1    0    0    0  501 -0.00000000000E+00  0.00000000000E+00  0.49953538813E+03  0.49953538813E+03  0.25500000000E-02 0.  1.
          2   -1    0    0  501    0  0.00000000000E+00 -0.00000000000E+00 -0.22445385953E+04  0.22445385953E+04  0.25500000000E-02 0. -1.
    8880023    1    1    2    0    0  0.11271901257E+03 -0.29015038416E+03  0.21030764311E+03  0.75824292429E+03  0.65864270000E+03 0.  1.
    8880022    1    1    2    0    0 -0.11271901257E+03  0.29015038416E+03 -0.19553108502E+04  0.19858310591E+04  0.15294330000E+03 0.  0.
<mgrwt>
<rscale>  0 0.60512561E+03</rscale>
<asrwt>0</asrwt>
<pdfrwt beam="1">  1        2 0.34531363E+00 0.72849367E+03</pdfrwt>
<pdfrwt beam="2">  1       -2 0.76851599E-01 0.72849367E+03</pdfrwt>
<totfact> 0.77079855E+00</totfact>
</mgrwt>
</event>
<event>
 4    1  0.1998832E-007  0.7021587E+03  0.7818608E-02  0.9988361E-01
         -2   -1    0    0    0  501 -0.00000000000E+00  0.00000000000E+00  0.17555509879E+03  0.17555509881E+03  0.25500000000E-02 0.  1.
          2   -1    0    0  501    0  0.00000000000E+00 -0.00000000000E+00 -0.25404949638E+04  0.25404949638E+04  0.25500000000E-02 0. -1.
    8880023    1    1    2    0    0  0.58342896278E+02 -0.23624730931E+03 -0.58750372753E+03  0.91552581658E+03  0.65864270000E+03 0.  0.
    8880022    1    1    2    0    0 -0.58342896278E+02  0.23624730931E+03 -0.17774361375E+04  0.18005242460E+04  0.15294330000E+03 0.  0.
<mgrwt>
<rscale>  0 0.56163539E+03</rscale>
<asrwt>0</asrwt>
<pdfrwt beam="1">  1        2 0.39084535E+00 0.70215874E+03</pdfrwt>
<pdfrwt beam="2">  1       -2 0.27008479E-01 0.70215874E+03</pdfrwt>
<totfact> 0.43092506E+01</totfact>
</mgrwt>
</event>
<event>
 4    1  0.1998832E-007  0.1121644E+04  0.7818608E-02  0.9237332E-01
          2   -1    0    0  501    0  0.00000000000E+00  0.00000000000E+00  0.19962999024E+04  0.19962999024E+04  0.25500000000E-02 0. -1.
         -2   -1    0    0    0  501 -0.00000000000E+00 -0.00000000000E+00 -0.93469894071E+03  0.93469894072E+03  0.25500000000E-02 0.  1.
    8880023    1    1    2    0    0  0.36139221369E+03  0.83286942997E+03 -0.41074639341E+03  0.11944867624E+04  0.65864270000E+03 0.  1.
    8880022    1    1    2    0    0 -0.36139221369E+03 -0.83286942997E+03  0.14723473551E+04  0.17365120807E+04  0.15294330000E+03 0.  0.
<mgrwt>
<rscale>  0 0.10676270E+04</rscale>
<asrwt>0</asrwt>
<pdfrwt beam="1">  1        2 0.30712306E+00 0.11216443E+04</pdfrwt>
<pdfrwt beam="2">  1       -2 0.14379984E+00 0.11216443E+04</pdfrwt>
<totfact> 0.22091717E+00</totfact>
</mgrwt>
</event>
<event>
 4    1  0.1998832E-007  0.7397692E+03  0.7818608E-02  0.9860620E-01
          2   -1    0    0  501    0  0.00000000000E+00  0.00000000000E+00  0.34232391895E+03  0.34232391896E+03  0.25500000000E-02 0. -1.
         -2   -1    0    0    0  501 -0.00000000000E+00 -0.00000000000E+00 -0.13818880154E+04  0.13818880154E+04  0.25500000000E-02 0.  1.
    8880023    1    1    2    0    0  0.33368839096E+03  0.45829791169E+02 -0.11232247772E+04  0.13449507123E+04  0.65864270000E+03 0.  0.
    8880022    1    1    2    0    0 -0.33368839096E+03 -0.45829791169E+02  0.83660680812E+02  0.37926122205E+03  0.15294330000E+03 0.  0.
<mgrwt>
<rscale>  0 0.62208369E+03</rscale>
<asrwt>0</asrwt>
<pdfrwt beam="1">  1        2 0.52665219E-01 0.73976923E+03</pdfrwt>
<pdfrwt beam="2">  1       -2 0.21259815E+00 0.73976923E+03</pdfrwt>
<totfact> 0.10659384E+01</totfact>
</mgrwt>
</event>
<event>
 4    1  0.1998832E-007  0.6688089E+03  0.7818608E-02  0.1016532E+00
         -2   -1    0    0    0  501 -0.00000000000E+00  0.00000000000E+00  0.21615669032E+03  0.21615669033E+03  0.25500000000E-02 0.  1.
          2   -1    0    0  501    0  0.00000000000E+00 -0.00000000000E+00 -0.20515920760E+04  0.20515920760E+04  0.25500000000E-02 0. -1.
    8880023    1    1    2    0    0 -0.11020392128E+03  0.36744712326E+02 -0.32219868804E+03  0.74237273589E+03  0.65864270000E+03 0.  1.
    8880022    1    1    2    0    0  0.11020392128E+03 -0.36744712326E+02 -0.15132366977E+04  0.15253760305E+04  0.15294330000E+03 0.  0.
<mgrwt>
<rscale>  0 0.48959309E+03</rscale>
<asrwt>0</asrwt>
<pdfrwt beam="1">  1        2 0.31562954E+00 0.66880885E+03</pdfrwt>
<pdfrwt beam="2">  1       -2 0.33254877E-01 0.66880885E+03</pdfrwt>
<totfact> 0.54977340E+01</totfact>
</mgrwt>
</event>
<event>
 4    1  0.5525356E-007  0.1322412E+04  0.7818608E-02  0.9046444E-01
          2   -1    0    0  501    0  0.00000000000E+00  0.00000000000E+00  0.27119068699E+04  0.27119068699E+04  0.25500000000E-02 0. -1.
         -2   -1    0    0    0  501 -0.00000000000E+00 -0.00000000000E+00 -0.25938167120E+04  0.25938167120E+04  0.25500000000E-02 0.  1.
    8880023    1    1    2    0    0 -0.55852579541E+02 -0.11453570223E+04 -0.22842022065E+04  0.26393848044E+04  0.65864270000E+03 0.  1.
    8880022    1    1    2    0    0  0.55852579541E+02  0.11453570223E+04  0.24022923644E+04  0.26663387775E+04  0.15294330000E+03 0.  0.
<mgrwt>
<rscale>  0 0.12789288E+04</rscale>
<asrwt>0</asrwt>
<pdfrwt beam="1">  1        2 0.41721644E+00 0.13224116E+04</pdfrwt>
<pdfrwt beam="2">  1       -2 0.39904873E+00 0.13224116E+04</pdfrwt>
<totfact> 0.19066191E-02</totfact>
</mgrwt>
</event>
<event>
 4    1  0.1998832E-007  0.7121840E+03  0.7818608E-02  0.9949978E-01
          2   -1    0    0  501    0  0.00000000000E+00  0.00000000000E+00  0.21135182829E+04  0.21135182829E+04  0.25500000000E-02 0. -1.
         -2   -1    0    0    0  501 -0.00000000000E+00 -0.00000000000E+00 -0.44484548409E+03  0.44484548410E+03  0.25500000000E-02 0.  1.
    8880023    1    1    2    0    0 -0.26500291893E+03 -0.56296999753E+02 -0.13771888201E+03  0.72537755407E+03  0.65864270000E+03 0.  1.
    8880022    1    1    2    0    0  0.26500291893E+03  0.56296999753E+02  0.18063916809E+04  0.18329862130E+04  0.15294330000E+03 0.  0.
<mgrwt>
<rscale>  0 0.57899074E+03</rscale>
<asrwt>0</asrwt>
<pdfrwt beam="1">  1        2 0.32515666E+00 0.71218404E+03</pdfrwt>
<pdfrwt beam="2">  1       -2 0.68437767E-01 0.71218404E+03</pdfrwt>
<totfact> 0.11772806E+01</totfact>
</mgrwt>
</event>
<event>
 4    1  0.1998832E-007  0.8854982E+03  0.7818608E-02  0.9549724E-01
          2   -1    0    0  501    0  0.00000000000E+00  0.00000000000E+00  0.31762453845E+04  0.31762453845E+04  0.25500000000E-02 0. -1.
         -2   -1    0    0    0  501 -0.00000000000E+00 -0.00000000000E+00 -0.11889136781E+04  0.11889136781E+04  0.25500000000E-02 0.  1.
    8880023    1    1    2    0    0 -0.57824292615E+03 -0.12622176622E+03 -0.98854174231E+03  0.13271479942E+04  0.65864270000E+03 0.  0.
    8880022    1    1    2    0    0  0.57824292615E+03  0.12622176622E+03  0.29758734487E+04  0.30380110684E+04  0.15294330000E+03 0.  0.
<mgrwt>
<rscale>  0 0.80715040E+03</rscale>
<asrwt>0</asrwt>
<pdfrwt beam="1">  1        2 0.48865312E+00 0.88549818E+03</pdfrwt>
<pdfrwt beam="2">  1       -2 0.18290980E+00 0.88549818E+03</pdfrwt>
<totfact> 0.24331920E-01</totfact>
</mgrwt>
</event>
<event>
 4    1  0.1998832E-007  0.9191974E+03  0.7818608E-02  0.9495891E-01
         -2   -1    0    0    0  501 -0.00000000000E+00  0.00000000000E+00  0.88006316007E+03  0.88006316008E+03  0.25500000000E-02 0.  1.
          2   -1    0    0  501    0  0.00000000000E+00 -0.00000000000E+00 -0.11775064339E+04  0.11775064339E+04  0.25500000000E-02 0. -1.
    8880023    1    1    2    0    0  0.52819683326E+03 -0.36348564705E+03  0.48107270814E+03  0.10374752368E+04  0.65864270000E+03 0.  0.
    8880022    1    1    2    0    0 -0.52819683326E+03  0.36348564705E+03 -0.77851598195E+03  0.10200943571E+04  0.15294330000E+03 0.  0.
<mgrwt>
<rscale>  0 0.84587462E+03</rscale>
<asrwt>0</asrwt>
<pdfrwt beam="1">  1        2 0.18115484E+00 0.91919743E+03</pdfrwt>
<pdfrwt beam="2">  1       -2 0.13539433E+00 0.91919743E+03</pdfrwt>
<totfact> 0.76509956E+00</totfact>
</mgrwt>
</event>
<event>
 4    1  0.1998832E-007  0.9013799E+03  0.7818608E-02  0.9523820E-01
         -2   -1    0    0    0  501 -0.00000000000E+00  0.00000000000E+00  0.67943580318E+03  0.67943580319E+03  0.25500000000E-02 0.  1.
          2   -1    0    0  501    0  0.00000000000E+00 -0.00000000000E+00 -0.19160622876E+04  0.19160622876E+04  0.25500000000E-02 0. -1.
    8880023    1    1    2    0    0 -0.59789363983E+03 -0.14559759238E+03  0.28636887958E+03  0.94577629750E+03  0.65864270000E+03 0.  1.
    8880022    1    1    2    0    0  0.59789363983E+03  0.14559759238E+03 -0.15229953640E+04  0.16497217933E+04  0.15294330000E+03 0.  0.
<mgrwt>
<rscale>  0 0.82550215E+03</rscale>
<asrwt>0</asrwt>
<pdfrwt beam="1">  1        2 0.29477881E+00 0.90137987E+03</pdfrwt>
<pdfrwt beam="2">  1       -2 0.10452859E+00 0.90137987E+03</pdfrwt>
<totfact> 0.55911959E+00</totfact>
</mgrwt>
</event>
<event>
 4    1  0.1998832E-007  0.7989585E+03  0.7818608E-02  0.9713053E-01
         -2   -1    0    0    0  501 -0.00000000000E+00  0.00000000000E+00  0.14545936027E+04  0.14545936027E+04  0.25500000000E-02 0.  1.
          2   -1    0    0  501    0  0.00000000000E+00 -0.00000000000E+00 -0.13888599609E+04  0.13888599609E+04  0.25500000000E-02 0. -1.
    8880023    1    1    2    0    0 -0.41823273663E+03  0.17206356454E+03  0.12967420747E+04  0.15231134911E+04  0.65864270000E+03 0.  1.
    8880022    1    1    2    0    0  0.41823273663E+03 -0.17206356454E+03 -0.12310084328E+04  0.13203400725E+04  0.15294330000E+03 0.  0.
<mgrwt>
<rscale>  0 0.70244942E+03</rscale>
<asrwt>0</asrwt>
<pdfrwt beam="1">  1        2 0.21367076E+00 0.79895851E+03</pdfrwt>
<pdfrwt beam="2">  1       -2 0.22378363E+00 0.79895851E+03</pdfrwt>
<totfact> 0.14088358E+00</totfact>
</mgrwt>
</event>
<event>
 4    1  0.2419757E-007  0.6600350E+03  0.7818608E-02  0.1024121E+00
          2   -1    0    0  501    0  0.00000000000E+00  0.00000000000E+00  0.18568140357E+04  0.18568140357E+04  0.25500000000E-02 0. -1.
         -2   -1    0    0    0  501 -0.00000000000E+00 -0.00000000000E+00 -0.15290598343E+04  0.15290598343E+04  0.25500000000E-02 0.  1.
    8880023    1    1    2    0    0  0.33914163581E+02  0.26187533462E+02 -0.14541346751E+04  0.15969201035E+04  0.65864270000E+03 0.  1.
    8880022    1    1    2    0    0 -0.33914163581E+02 -0.26187533462E+02  0.17818888765E+04  0.17889537664E+04  0.15294330000E+03 0.  0.
<mgrwt>
<rscale>  0 0.46228492E+03</rscale>
<asrwt>0</asrwt>
<pdfrwt beam="1">  1        2 0.28566370E+00 0.66003497E+03</pdfrwt>
<pdfrwt beam="2">  1       -2 0.23523998E+00 0.66003497E+03</pdfrwt>
<totfact> 0.68011068E-01</totfact>
</mgrwt>
</event>
<event>
 4    1  0.1998832E-007  0.9966522E+03  0.7818608E-02  0.9385951E-01
         -2   -1    0    0    0  501 -0.00000000000E+00  0.00000000000E+00  0.12453052478E+04  0.12453052478E+04  0.25500000000E-02 0.  1.
          2   -1    0    0  501    0  0.00000000000E+00 -0.00000000000E+00 -0.19109093744E+04  0.19109093744E+04  0.25500000000E-02 0. -1.
    8880023    1    1    2    0    0  0.56564873926E+03  0.48943534352E+03  0.94523585249E+03  0.13736034635E+04  0.65864270000E+03 0.  0.
    8880022    1    1    2    0    0 -0.56564873926E+03 -0.48943534352E+03 -0.16108399791E+04  0.17826111587E+04  0.15294330000E+03 0.  0.
<mgrwt>
<rscale>  0 0.93240956E+03</rscale>
<asrwt>0</asrwt>
<pdfrwt beam="1">  1        2 0.29398606E+00 0.99665223E+03</pdfrwt>
<pdfrwt beam="2">  1       -2 0.19158542E+00 0.99665223E+03</pdfrwt>
<totfact> 0.11298629E+00</totfact>
</mgrwt>
</event>
<event>
 4    1  0.1998832E-007  0.1017319E+04  0.7818608E-02  0.9359242E-01
         -2   -1    0    0    0  501 -0.00000000000E+00  0.00000000000E+00  0.50416533402E+03  0.50416533402E+03  0.25500000000E-02 0.  1.
          2   -1    0    0  501    0  0.00000000000E+00 -0.00000000000E+00 -0.25419118597E+04  0.25419118597E+04  0.25500000000E-02 0. -1.
    8880023    1    1    2    0    0 -0.40921691861E+03  0.65853577124E+03 -0.18793849338E+03  0.10345331952E+04  0.65864270000E+03 0.  0.
    8880022    1    1    2    0    0  0.40921691861E+03 -0.65853577124E+03 -0.18498080323E+04  0.20115439985E+04  0.15294330000E+03 0.  0.
<mgrwt>
<rscale>  0 0.95507205E+03</rscale>
<asrwt>0</asrwt>
<pdfrwt beam="1">  1        2 0.39106335E+00 0.10173191E+04</pdfrwt>
<pdfrwt beam="2">  1       -2 0.77563899E-01 0.10173191E+04</pdfrwt>
<totfact> 0.49198043E+00</totfact>
</mgrwt>
</event>
<event>
 4    1  0.1998832E-007  0.1342086E+04  0.7818608E-02  0.9030042E-01
          2   -1    0    0  501    0  0.00000000000E+00  0.00000000000E+00  0.29910183519E+04  0.29910183519E+04  0.25500000000E-02 0. -1.
         -2   -1    0    0    0  501 -0.00000000000E+00 -0.00000000000E+00 -0.70031041163E+03  0.70031041164E+03  0.25500000000E-02 0.  1.
    8880023    1    1    2    0    0  0.78312643860E+03  0.86838828487E+03  0.29640176455E+03  0.13744269513E+04  0.65864270000E+03 0.  1.
    8880022    1    1    2    0    0 -0.78312643860E+03 -0.86838828487E+03  0.19943061758E+04  0.23169018123E+04  0.15294330000E+03 0.  0.
<mgrwt>
<rscale>  0 0.12993989E+04</rscale>
<asrwt>0</asrwt>
<pdfrwt beam="1">  1        2 0.46015667E+00 0.13420862E+04</pdfrwt>
<pdfrwt beam="2">  1       -2 0.10774006E+00 0.13420862E+04</pdfrwt>
<totfact> 0.11843448E+00</totfact>
</mgrwt>
</event>
<event>
 4    1  0.1998832E-007  0.9080177E+03  0.7818608E-02  0.9513281E-01
          2   -1    0    0  501    0  0.00000000000E+00  0.00000000000E+00  0.18859601541E+04  0.18859601541E+04  0.25500000000E-02 0. -1.
         -2   -1    0    0    0  501 -0.00000000000E+00 -0.00000000000E+00 -0.55781083649E+03  0.55781083650E+03  0.25500000000E-02 0.  1.
    8880023    1    1    2    0    0  0.52399344256E+03  0.34075916638E+03 -0.63822249868E+02  0.91025788827E+03  0.65864270000E+03 0.  1.
    8880022    1    1    2    0    0 -0.52399344256E+03 -0.34075916638E+03  0.13919715674E+04  0.15335131023E+04  0.15294330000E+03 0.  0.
<mgrwt>
<rscale>  0 0.83311691E+03</rscale>
<asrwt>0</asrwt>
<pdfrwt beam="1">  1        2 0.29014771E+00 0.90801770E+03</pdfrwt>
<pdfrwt beam="2">  1       -2 0.85817052E-01 0.90801770E+03</pdfrwt>
<totfact> 0.92140777E+00</totfact>
</mgrwt>
</event>
<event>
 4    1  0.1998832E-007  0.7735520E+03  0.7818608E-02  0.9771207E-01
         -2   -1    0    0    0  501 -0.00000000000E+00  0.00000000000E+00  0.57171114083E+03  0.57171114083E+03  0.25500000000E-02 0.  1.
          2   -1    0    0  501    0  0.00000000000E+00 -0.00000000000E+00 -0.16007744472E+04  0.16007744472E+04  0.25500000000E-02 0. -1.
    8880023    1    1    2    0    0 -0.47685581710E+02  0.40286290119E+03  0.25714586116E+03  0.81517276208E+03  0.65864270000E+03 0.  1.
    8880022    1    1    2    0    0  0.47685581710E+02 -0.40286290119E+03 -0.12862091675E+04  0.13573128259E+04  0.15294330000E+03 0.  0.
<mgrwt>
<rscale>  0 0.66930871E+03</rscale>
<asrwt>0</asrwt>
<pdfrwt beam="1">  1        2 0.24627299E+00 0.77355196E+03</pdfrwt>
<pdfrwt beam="2">  1       -2 0.87955561E-01 0.77355196E+03</pdfrwt>
<totfact> 0.12701479E+01</totfact>
</mgrwt>
</event>
<event>
 4    1  0.1998832E-007  0.1206892E+04  0.7818608E-02  0.9150452E-01
          2   -1    0    0  501    0  0.00000000000E+00  0.00000000000E+00  0.17360989782E+04  0.17360989782E+04  0.25500000000E-02 0. -1.
         -2   -1    0    0    0  501 -0.00000000000E+00 -0.00000000000E+00 -0.15737180621E+04  0.15737180621E+04  0.25500000000E-02 0.  1.
    8880023    1    1    2    0    0  0.85046810497E+03  0.54724856954E+03 -0.11356734157E+04  0.16572088908E+04  0.65864270000E+03 0.  1.
    8880022    1    1    2    0    0 -0.85046810497E+03 -0.54724856954E+03  0.12980543318E+04  0.16526081495E+04  0.15294330000E+03 0.  0.
<mgrwt>
<rscale>  0 0.11579809E+04</rscale>
<asrwt>0</asrwt>
<pdfrwt beam="1">  1        2 0.26709215E+00 0.12068915E+04</pdfrwt>
<pdfrwt beam="2">  1       -2 0.24211047E+00 0.12068915E+04</pdfrwt>
<totfact> 0.65326284E-01</totfact>
</mgrwt>
</event>
<event>
 4    1  0.1998832E-007  0.9412724E+03  0.7818608E-02  0.9462784E-01
          2   -1    0    0  501    0  0.00000000000E+00  0.00000000000E+00  0.20089000090E+04  0.20089000090E+04  0.25500000000E-02 0. -1.
         -2   -1    0    0    0  501 -0.00000000000E+00 -0.00000000000E+00 -0.90639561089E+03  0.90639561089E+03  0.25500000000E-02 0.  1.
    8880023    1    1    2    0    0 -0.65965883118E+03  0.13051313150E+03 -0.57400878266E+03  0.11024879772E+04  0.65864270000E+03 0.  0.
    8880022    1    1    2    0    0  0.65965883118E+03 -0.13051313150E+03  0.16765131808E+04  0.18128076427E+04  0.15294330000E+03 0.  0.
<mgrwt>
<rscale>  0 0.87084100E+03</rscale>
<asrwt>0</asrwt>
<pdfrwt beam="1">  1        2 0.30906153E+00 0.94127236E+03</pdfrwt>
<pdfrwt beam="2">  1       -2 0.13944548E+00 0.94127236E+03</pdfrwt>
<totfact> 0.24120623E+00</totfact>
</mgrwt>
</event>
<event>
 4    1  0.1998832E-007  0.1106674E+04  0.7818608E-02  0.9253662E-01
          2   -1    0    0  501    0  0.00000000000E+00  0.00000000000E+00  0.18033741642E+04  0.18033741642E+04  0.25500000000E-02 0. -1.
         -2   -1    0    0    0  501 -0.00000000000E+00 -0.00000000000E+00 -0.12671117265E+04  0.12671117265E+04  0.25500000000E-02 0.  1.
    8880023    1    1    2    0    0  0.32461789960E+03  0.82797305979E+03 -0.86443793608E+03  0.14042718113E+04  0.65864270000E+03 0.  1.
    8880022    1    1    2    0    0 -0.32461789960E+03 -0.82797305979E+03  0.14007003738E+04  0.16662140795E+04  0.15294330000E+03 0.  0.
<mgrwt>
<rscale>  0 0.10516306E+04</rscale>
<asrwt>0</asrwt>
<pdfrwt beam="1">  1        2 0.27744218E+00 0.11066736E+04</pdfrwt>
<pdfrwt beam="2">  1       -2 0.19494027E+00 0.11066736E+04</pdfrwt>
<totfact> 0.12116123E+00</totfact>
</mgrwt>
</event>
<event>
 4    1  0.1998832E-007  0.1616936E+04  0.7818608E-02  0.8831193E-01
         -2   -1    0    0    0  501 -0.00000000000E+00  0.00000000000E+00  0.18547666668E+04  0.18547666668E+04  0.25500000000E-02 0.  1.
          2   -1    0    0  501    0  0.00000000000E+00 -0.00000000000E+00 -0.15420701224E+04  0.15420701224E+04  0.25500000000E-02 0. -1.
    8880023    1    1    2    0    0  0.13145216741E+04  0.67283299510E+03  0.83906398468E+03  0.18216778112E+04  0.65864270000E+03 0.  0.
    8880022    1    1    2    0    0 -0.13145216741E+04 -0.67283299510E+03 -0.52636744029E+03  0.15751589781E+04  0.15294330000E+03 0.  0.
<mgrwt>
<rscale>  0 0.15827875E+04</rscale>
<asrwt>0</asrwt>
<pdfrwt beam="1">  1        2 0.23724156E+00 0.16169359E+04</pdfrwt>
<pdfrwt beam="2">  1       -2 0.28534872E+00 0.16169359E+04</pdfrwt>
<totfact> 0.43626735E-01</totfact>
</mgrwt>
</event>
<event>
 4    1  0.1998832E-007  0.7434797E+03  0.7818608E-02  0.9849925E-01
          2   -1    0    0  501    0  0.00000000000E+00  0.00000000000E+00  0.82010483207E+03  0.82010483207E+03  0.25500000000E-02 0. -1.
         -2   -1    0    0    0  501 -0.00000000000E+00 -0.00000000000E+00 -0.15903641417E+04  0.15903641417E+04  0.25500000000E-02 0.  1.
    8880023    1    1    2    0    0  0.16439042902E+03 -0.30319567660E+03 -0.14520093129E+04  0.16312857145E+04  0.65864270000E+03 0.  1.
    8880022    1    1    2    0    0 -0.16439042902E+03  0.30319567660E+03  0.68175000328E+03  0.77918325922E+03  0.15294330000E+03 0.  0.
<mgrwt>
<rscale>  0 0.62750765E+03</rscale>
<asrwt>0</asrwt>
<pdfrwt beam="1">  1        2 0.12616997E+00 0.74347968E+03</pdfrwt>
<pdfrwt beam="2">  1       -2 0.24467141E+00 0.74347968E+03</pdfrwt>
<totfact> 0.23827279E+00</totfact>
</mgrwt>
</event>
<event>
 4    1  0.1998832E-007  0.9032273E+03  0.7818608E-02  0.9520871E-01
          2   -1    0    0  501    0  0.00000000000E+00  0.00000000000E+00  0.12040227182E+04  0.12040227182E+04  0.25500000000E-02 0. -1.
         -2   -1    0    0    0  501 -0.00000000000E+00 -0.00000000000E+00 -0.11132830214E+04  0.11132830214E+04  0.25500000000E-02 0.  1.
    8880023    1    1    2    0    0  0.45004403767E+03 -0.42363861169E+03 -0.81068888764E+03  0.12136869399E+04  0.65864270000E+03 0.  1.
    8880022    1    1    2    0    0 -0.45004403767E+03  0.42363861169E+03  0.90142858453E+03  0.11036187998E+04  0.15294330000E+03 0.  0.
<mgrwt>
<rscale>  0 0.82762458E+03</rscale>
<asrwt>0</asrwt>
<pdfrwt beam="1">  1        2 0.18523426E+00 0.90322728E+03</pdfrwt>
<pdfrwt beam="2">  1       -2 0.17127431E+00 0.90322728E+03</pdfrwt>
<totfact> 0.39413896E+00</totfact>
</mgrwt>
</event>
<event>
 4    1  0.1998832E-007  0.8721300E+03  0.7818608E-02  0.9572340E-01
         -2   -1    0    0    0  501 -0.00000000000E+00  0.00000000000E+00  0.68119009387E+03  0.68119009387E+03  0.25500000000E-02 0.  1.
          2   -1    0    0  501    0  0.00000000000E+00 -0.00000000000E+00 -0.18036631551E+04  0.18036631551E+04  0.25500000000E-02 0. -1.
    8880023    1    1    2    0    0  0.54355719303E+03 -0.17704856690E+03  0.31742049844E+03  0.92809837638E+03  0.65864270000E+03 0.  0.
    8880022    1    1    2    0    0 -0.54355719303E+03  0.17704856690E+03 -0.14398935597E+04  0.15567548726E+04  0.15294330000E+03 0.  0.
<mgrwt>
<rscale>  0 0.79154253E+03</rscale>
<asrwt>0</asrwt>
<pdfrwt beam="1">  1        2 0.27748664E+00 0.87213005E+03</pdfrwt>
<pdfrwt beam="2">  1       -2 0.10479848E+00 0.87213005E+03</pdfrwt>
<totfact> 0.64278871E+00</totfact>
</mgrwt>
</event>
<event>
 4    1  0.1998832E-007  0.7620433E+03  0.7818608E-02  0.9799846E-01
          2   -1    0    0  501    0  0.00000000000E+00  0.00000000000E+00  0.44200804839E+03  0.44200804840E+03  0.25500000000E-02 0. -1.
         -2   -1    0    0    0  501 -0.00000000000E+00 -0.00000000000E+00 -0.12934521163E+04  0.12934521163E+04  0.25500000000E-02 0.  1.
    8880023    1    1    2    0    0  0.37181713403E+03 -0.93015270566E+02 -0.10337919413E+04  0.12843036268E+04  0.65864270000E+03 0.  1.
    8880022    1    1    2    0    0 -0.37181713403E+03  0.93015270566E+02  0.18234787339E+03  0.45115653787E+03  0.15294330000E+03 0.  0.
<mgrwt>
<rscale>  0 0.65370809E+03</rscale>
<asrwt>0</asrwt>
<pdfrwt beam="1">  1        2 0.68001239E-01 0.76204332E+03</pdfrwt>
<pdfrwt beam="2">  1       -2 0.19899263E+00 0.76204332E+03</pdfrwt>
<totfact> 0.97545280E+00</totfact>
</mgrwt>
</event>
<event>
 4    1  0.1998832E-007  0.6822401E+03  0.7818608E-02  0.1008084E+00
         -2   -1    0    0    0  501 -0.00000000000E+00  0.00000000000E+00  0.20843796211E+04  0.20843796211E+04  0.25500000000E-02 0.  1.
          2   -1    0    0  501    0  0.00000000000E+00 -0.00000000000E+00 -0.17417203919E+03  0.17417203921E+03  0.25500000000E-02 0. -1.
    8880023    1    1    2    0    0 -0.16502714656E+03 -0.66388581819E+02  0.19054578199E+04  0.20239123283E+04  0.65864270000E+03 0.  0.
    8880022    1    1    2    0    0  0.16502714656E+03  0.66388581819E+02  0.47497620418E+01  0.23463933207E+03  0.15294330000E+03 0. -1.
<mgrwt>
<rscale>  0 0.52243336E+03</rscale>
<asrwt>0</asrwt>
<pdfrwt beam="1">  1        2 0.26795697E-01 0.68224014E+03</pdfrwt>
<pdfrwt beam="2">  1       -2 0.32067381E+00 0.68224014E+03</pdfrwt>
<totfact> 0.50552910E+00</totfact>
</mgrwt>
</event>
<event>
 4    1  0.1998832E-007  0.7663842E+03  0.7818608E-02  0.9788851E-01
         -2   -1    0    0    0  501 -0.00000000000E+00  0.00000000000E+00  0.42186658384E+03  0.42186658385E+03  0.25500000000E-02 0.  1.
          2   -1    0    0  501    0  0.00000000000E+00 -0.00000000000E+00 -0.17289590309E+04  0.17289590309E+04  0.25500000000E-02 0. -1.
    8880023    1    1    2    0    0 -0.38823614604E+03  0.52983790667E+02  0.11808544433E+02  0.76647520191E+03  0.65864270000E+03 0.  1.
    8880022    1    1    2    0    0  0.38823614604E+03 -0.52983790667E+02 -0.13189009914E+04  0.13843504128E+04  0.15294330000E+03 0.  0.
<mgrwt>
<rscale>  0 0.65964299E+03</rscale>
<asrwt>0</asrwt>
<pdfrwt beam="1">  1        2 0.26599369E+00 0.76638423E+03</pdfrwt>
<pdfrwt beam="2">  1       -2 0.64902552E-01 0.76638423E+03</pdfrwt>
<totfact> 0.21236314E+01</totfact>
</mgrwt>
</event>
<event>
 4    1  0.2085044E-007  0.8671086E+03  0.7818608E-02  0.9581042E-01
          2   -1    0    0  501    0  0.00000000000E+00  0.00000000000E+00  0.20008557600E+04  0.20008557600E+04  0.25500000000E-02 0. -1.
         -2   -1    0    0    0  501 -0.00000000000E+00 -0.00000000000E+00 -0.90922449091E+03  0.90922449092E+03  0.25500000000E-02 0.  1.
    8880023    1    1    2    0    0  0.52583037571E+03 -0.20388602794E+03 -0.64310785501E+03  0.10795670502E+04  0.65864270000E+03 0.  1.
    8880022    1    1    2    0    0 -0.52583037571E+03  0.20388602794E+03  0.17347391241E+04  0.18305132007E+04  0.15294330000E+03 0.  0.
<mgrwt>
<rscale>  0 0.78563785E+03</rscale>
<asrwt>0</asrwt>
<pdfrwt beam="1">  1        2 0.30782396E+00 0.86710859E+03</pdfrwt>
<pdfrwt beam="2">  1       -2 0.13988069E+00 0.86710859E+03</pdfrwt>
<totfact> 0.24436257E+00</totfact>
</mgrwt>
</event>
<event>
 4    1  0.2814016E-007  0.1160108E+04  0.7818608E-02  0.9196911E-01
          2   -1    0    0  501    0  0.00000000000E+00  0.00000000000E+00  0.17845122257E+04  0.17845122257E+04  0.25500000000E-02 0. -1.
         -2   -1    0    0    0  501 -0.00000000000E+00 -0.00000000000E+00 -0.26599424956E+04  0.26599424956E+04  0.25500000000E-02 0.  1.
    8880023    1    1    2    0    0  0.23693022570E+02 -0.95471404869E+03 -0.23846803629E+04  0.26518957207E+04  0.65864270000E+03 0.  1.
    8880022    1    1    2    0    0 -0.23693022570E+02  0.95471404869E+03  0.15092500930E+04  0.17925590005E+04  0.15294330000E+03 0.  0.
<mgrwt>
<rscale>  0 0.11085373E+04</rscale>
<asrwt>0</asrwt>
<pdfrwt beam="1">  1        2 0.27454034E+00 0.11601080E+04</pdfrwt>
<pdfrwt beam="2">  1       -2 0.40922192E+00 0.11601080E+04</pdfrwt>
<totfact> 0.56311353E-02</totfact>
</mgrwt>
</event>
<event>
 4    1  0.1998832E-007  0.1013261E+04  0.7818608E-02  0.9364410E-01
          2   -1    0    0  501    0  0.00000000000E+00  0.00000000000E+00  0.15553587941E+04  0.15553587941E+04  0.25500000000E-02 0. -1.
         -2   -1    0    0    0  501 -0.00000000000E+00 -0.00000000000E+00 -0.85203363157E+03  0.85203363157E+03  0.25500000000E-02 0.  1.
    8880023    1    1    2    0    0  0.73312319381E+03 -0.23540946739E+03 -0.36905543801E+03  0.10783781142E+04  0.65864270000E+03 0.  1.
    8880022    1    1    2    0    0 -0.73312319381E+03  0.23540946739E+03  0.10723806006E+04  0.13290143115E+04  0.15294330000E+03 0.  0.
<mgrwt>
<rscale>  0 0.95063345E+03</rscale>
<asrwt>0</asrwt>
<pdfrwt beam="1">  1        2 0.23928597E+00 0.10132608E+04</pdfrwt>
<pdfrwt beam="2">  1       -2 0.13108210E+00 0.10132608E+04</pdfrwt>
<totfact> 0.49853899E+00</totfact>
</mgrwt>
</event>
<event>
 4    1  0.1998832E-007  0.9525195E+03  0.7818608E-02  0.9446498E-01
         -2   -1    0    0    0  501 -0.00000000000E+00  0.00000000000E+00  0.90441528820E+03  0.90441528821E+03  0.25500000000E-02 0.  1.
          2   -1    0    0  501    0  0.00000000000E+00 -0.00000000000E+00 -0.23332230769E+04  0.23332230769E+04  0.25500000000E-02 0. -1.
    8880023    1    1    2    0    0  0.68245253330E+03  0.87987319480E+02  0.57557882121E+03  0.11129170743E+04  0.65864270000E+03 0.  1.
    8880022    1    1    2    0    0 -0.68245253330E+03 -0.87987319480E+02 -0.20043866099E+04  0.21247212908E+04  0.15294330000E+03 0.  0.
<mgrwt>
<rscale>  0 0.88345878E+03</rscale>
<asrwt>0</asrwt>
<pdfrwt beam="1">  1        2 0.35895739E+00 0.95251952E+03</pdfrwt>
<pdfrwt beam="2">  1       -2 0.13914081E+00 0.95251952E+03</pdfrwt>
<totfact> 0.16004298E+00</totfact>
</mgrwt>
</event>
<event>
 4    1  0.1998832E-007  0.8279320E+03  0.7818608E-02  0.9653370E-01
          2   -1    0    0  501    0  0.00000000000E+00  0.00000000000E+00  0.33129196404E+04  0.33129196404E+04  0.25500000000E-02 0. -1.
         -2   -1    0    0    0  501 -0.00000000000E+00 -0.00000000000E+00 -0.68785838062E+03  0.68785838063E+03  0.25500000000E-02 0.  1.
    8880023    1    1    2    0    0 -0.49459784922E+03 -0.83869483303E+02 -0.40779320943E+03  0.92291203839E+03  0.65864270000E+03 0.  1.
    8880022    1    1    2    0    0  0.49459784922E+03  0.83869483303E+02  0.30328544692E+04  0.30778659826E+04  0.15294330000E+03 0.  0.
<mgrwt>
<rscale>  0 0.73862328E+03</rscale>
<asrwt>0</asrwt>
<pdfrwt beam="1">  1        2 0.50967993E+00 0.82793196E+03</pdfrwt>
<pdfrwt beam="2">  1       -2 0.10582437E+00 0.82793196E+03</pdfrwt>
<totfact> 0.83647946E-01</totfact>
</mgrwt>
</event>
<event>
 4    1  0.1998832E-007  0.8743060E+03  0.7818608E-02  0.9568606E-01
         -2   -1    0    0    0  501 -0.00000000000E+00  0.00000000000E+00  0.31897552922E+03  0.31897552923E+03  0.25500000000E-02 0.  1.
          2   -1    0    0  501    0  0.00000000000E+00 -0.00000000000E+00 -0.18481728639E+04  0.18481728639E+04  0.25500000000E-02 0. -1.
    8880023    1    1    2    0    0 -0.43115556557E+03  0.38040190603E+03 -0.58790843105E+03  0.10535878043E+04  0.65864270000E+03 0.  0.
    8880022    1    1    2    0    0  0.43115556557E+03 -0.38040190603E+03 -0.94128890359E+03  0.11135605888E+04  0.15294330000E+03 0.  0.
<mgrwt>
<rscale>  0 0.79409384E+03</rscale>
<asrwt>0</asrwt>
<pdfrwt beam="1">  1        2 0.28433428E+00 0.87430598E+03</pdfrwt>
<pdfrwt beam="2">  1       -2 0.49073159E-01 0.87430598E+03</pdfrwt>
<totfact> 0.32364924E+01</totfact>
</mgrwt>
</event>
<event>
 4    1  0.1998832E-007  0.1129073E+04  0.7818608E-02  0.9229357E-01
          2   -1    0    0  501    0  0.00000000000E+00  0.00000000000E+00  0.19959020311E+04  0.19959020311E+04  0.25500000000E-02 0. -1.
         -2   -1    0    0    0  501 -0.00000000000E+00 -0.00000000000E+00 -0.11848045754E+04  0.11848045754E+04  0.25500000000E-02 0.  1.
    8880023    1    1    2    0    0 -0.89575470662E+03  0.19651517989E+03 -0.75583690420E+03  0.13587105440E+04  0.65864270000E+03 0.  0.
    8880022    1    1    2    0    0  0.89575470662E+03 -0.19651517989E+03  0.15669343599E+04  0.18219960625E+04  0.15294330000E+03 0.  0.
<mgrwt>
<rscale>  0 0.10755482E+04</rscale>
<asrwt>0</asrwt>
<pdfrwt beam="1">  1        2 0.30706185E+00 0.11290726E+04</pdfrwt>
<pdfrwt beam="2">  1       -2 0.18227763E+00 0.11290726E+04</pdfrwt>
<totfact> 0.11514700E+00</totfact>
</mgrwt>
</event>
<event>
 4    1  0.1998832E-007  0.8004545E+03  0.7818608E-02  0.9709814E-01
          2   -1    0    0  501    0  0.00000000000E+00  0.00000000000E+00  0.53027919281E+03  0.53027919282E+03  0.25500000000E-02 0. -1.
         -2   -1    0    0    0  501 -0.00000000000E+00 -0.00000000000E+00 -0.89806774062E+03  0.89806774063E+03  0.25500000000E-02 0.  1.
    8880023    1    1    2    0    0  0.15145213422E+01 -0.45487907697E+03 -0.48289008432E+03  0.93483170049E+03  0.65864270000E+03 0.  1.
    8880022    1    1    2    0    0 -0.15145213422E+01  0.45487907697E+03  0.11510153651E+03  0.49351523296E+03  0.15294330000E+03 0.  0.
<mgrwt>
<rscale>  0 0.70435459E+03</rscale>
<asrwt>0</asrwt>
<pdfrwt beam="1">  1        2 0.81581415E-01 0.80045454E+03</pdfrwt>
<pdfrwt beam="2">  1       -2 0.13816427E+00 0.80045454E+03</pdfrwt>
<totfact> 0.21554748E+01</totfact>
</mgrwt>
</event>
<event>
 4    1  0.1998832E-007  0.7437822E+03  0.7818608E-02  0.9849064E-01
          2   -1    0    0  501    0  0.00000000000E+00  0.00000000000E+00  0.16023366507E+04  0.16023366507E+04  0.25500000000E-02 0. -1.
         -2   -1    0    0    0  501 -0.00000000000E+00 -0.00000000000E+00 -0.46996489205E+03  0.46996489206E+03  0.25500000000E-02 0.  1.
    8880023    1    1    2    0    0  0.13768411391E+03  0.31693039746E+03 -0.12958204898E+03  0.75498576526E+03  0.65864270000E+03 0.  1.
    8880022    1    1    2    0    0 -0.13768411391E+03 -0.31693039746E+03  0.12619538077E+04  0.13173157775E+04  0.15294330000E+03 0.  0.
<mgrwt>
<rscale>  0 0.62794684E+03</rscale>
<asrwt>0</asrwt>
<pdfrwt beam="1">  1        2 0.24651333E+00 0.74378223E+03</pdfrwt>
<pdfrwt beam="2">  1       -2 0.72302290E-01 0.74378223E+03</pdfrwt>
<totfact> 0.19765020E+01</totfact>
</mgrwt>
</event>
<event>
 4    1  0.1998832E-007  0.8163729E+03  0.7818608E-02  0.9676452E-01
          2   -1    0    0  501    0  0.00000000000E+00  0.00000000000E+00  0.10325034736E+04  0.10325034736E+04  0.25500000000E-02 0. -1.
         -2   -1    0    0    0  501 -0.00000000000E+00 -0.00000000000E+00 -0.71197858780E+03  0.71197858781E+03  0.25500000000E-02 0.  1.
    8880023    1    1    2    0    0  0.34475337294E+03  0.33734190160E+03 -0.36349603404E+03  0.89364087852E+03  0.65864270000E+03 0.  1.
    8880022    1    1    2    0    0 -0.34475337294E+03 -0.33734190160E+03  0.68402091985E+03  0.85084118291E+03  0.15294330000E+03 0.  0.
<mgrwt>
<rscale>  0 0.72436289E+03</rscale>
<asrwt>0</asrwt>
<pdfrwt beam="1">  1        2 0.15884669E+00 0.81637286E+03</pdfrwt>
<pdfrwt beam="2">  1       -2 0.10953517E+00 0.81637286E+03</pdfrwt>
<totfact> 0.16099067E+01</totfact>
</mgrwt>
</event>
<event>
 4    1  0.1998832E-007  0.1605329E+04  0.7818608E-02  0.8838631E-01
         -2   -1    0    0    0  501 -0.00000000000E+00  0.00000000000E+00  0.11789977575E+04  0.11789977576E+04  0.25500000000E-02 0.  1.
          2   -1    0    0  501    0  0.00000000000E+00 -0.00000000000E+00 -0.23544098236E+04  0.23544098236E+04  0.25500000000E-02 0. -1.
    8880023    1    1    2    0    0 -0.14136956673E+04  0.38044074841E+03  0.67698996814E+02  0.16067557261E+04  0.65864270000E+03 0.  0.
    8880022    1    1    2    0    0  0.14136956673E+04 -0.38044074841E+03 -0.12431110628E+04  0.19266518550E+04  0.15294330000E+03 0.  0.
<mgrwt>
<rscale>  0 0.15708941E+04</rscale>
<asrwt>0</asrwt>
<pdfrwt beam="1">  1        2 0.36221689E+00 0.16053289E+04</pdfrwt>
<pdfrwt beam="2">  1       -2 0.18138427E+00 0.16053289E+04</pdfrwt>
<totfact> 0.69711951E-01</totfact>
</mgrwt>
</event>
<event>
 4    1  0.1998832E-007  0.7544770E+03  0.7818608E-02  0.9819622E-01
         -2   -1    0    0    0  501 -0.00000000000E+00  0.00000000000E+00  0.22175450717E+03  0.22175450718E+03  0.25500000000E-02 0.  1.
          2   -1    0    0  501    0  0.00000000000E+00 -0.00000000000E+00 -0.25424097490E+04  0.25424097490E+04  0.25500000000E-02 0. -1.
    8880023    1    1    2    0    0 -0.29355975689E+03  0.22191875604E+03 -0.51121867781E+03  0.91136162304E+03  0.65864270000E+03 0.  1.
    8880022    1    1    2    0    0  0.29355975689E+03 -0.22191875604E+03 -0.18094365640E+04  0.18528026331E+04  0.15294330000E+03 0.  0.
<mgrwt>
<rscale>  0 0.64320080E+03</rscale>
<asrwt>0</asrwt>
<pdfrwt beam="1">  1        2 0.39113994E+00 0.75447695E+03</pdfrwt>
<pdfrwt beam="2">  1       -2 0.34116080E-01 0.75447695E+03</pdfrwt>
<totfact> 0.27628127E+01</totfact>
</mgrwt>
</event>
<event>
 4    1  0.1998832E-007  0.1293829E+04  0.7818608E-02  0.9070907E-01
         -2   -1    0    0    0  501 -0.00000000000E+00  0.00000000000E+00  0.14759752752E+04  0.14759752752E+04  0.25500000000E-02 0.  1.
          2   -1    0    0  501    0  0.00000000000E+00 -0.00000000000E+00 -0.14771768354E+04  0.14771768354E+04  0.25500000000E-02 0. -1.
    8880023    1    1    2    0    0 -0.42246101745E+03  0.10303931138E+04  0.84572844119E+03  0.15457199238E+04  0.65864270000E+03 0.  0.
    8880022    1    1    2    0    0  0.42246101745E+03 -0.10303931138E+04 -0.84693000139E+03  0.14074321868E+04  0.15294330000E+03 0.  0.
<mgrwt>
<rscale>  0 0.12491304E+04</rscale>
<asrwt>0</asrwt>
<pdfrwt beam="1">  1        2 0.22725798E+00 0.12938290E+04</pdfrwt>
<pdfrwt beam="2">  1       -2 0.22707312E+00 0.12938290E+04</pdfrwt>
<totfact> 0.11202585E+00</totfact>
</mgrwt>
</event>
<event>
 4    1  0.1998832E-007  0.7142828E+03  0.7818608E-02  0.9942428E-01
          2   -1    0    0  501    0  0.00000000000E+00  0.00000000000E+00  0.27403701102E+04  0.27403701102E+04  0.25500000000E-02 0. -1.
         -2   -1    0    0    0  501 -0.00000000000E+00 -0.00000000000E+00 -0.16071505128E+03  0.16071505130E+03  0.25500000000E-02 0.  1.
    8880023    1    1    2    0    0  0.14021095002E+03  0.23818174944E+03  0.71785229462E+03  0.10126755549E+04  0.65864270000E+03 0.  1.
    8880022    1    1    2    0    0 -0.14021095002E+03 -0.23818174944E+03  0.18618027643E+04  0.18884096066E+04  0.15294330000E+03 0. -1.
<mgrwt>
<rscale>  0 0.58248370E+03</rscale>
<asrwt>0</asrwt>
<pdfrwt beam="1">  1        2 0.42159536E+00 0.71428276E+03</pdfrwt>
<pdfrwt beam="2">  1       -2 0.24725395E-01 0.71428276E+03</pdfrwt>
<totfact> 0.38714637E+01</totfact>
</mgrwt>
</event>
<event>
 4    1  0.1998832E-007  0.1090650E+04  0.7818608E-02  0.9271538E-01
          2   -1    0    0  501    0  0.00000000000E+00  0.00000000000E+00  0.10178647242E+04  0.10178647242E+04  0.25500000000E-02 0. -1.
         -2   -1    0    0    0  501 -0.00000000000E+00 -0.00000000000E+00 -0.10890073363E+04  0.10890073363E+04  0.25500000000E-02 0.  1.
    8880023    1    1    2    0    0  0.75995826446E+03 -0.42210282142E+03 -0.40465626931E+03  0.11632988688E+04  0.65864270000E+03 0.  0.
    8880022    1    1    2    0    0 -0.75995826446E+03  0.42210282142E+03  0.33351365724E+03  0.94357319173E+03  0.15294330000E+03 0.  0.
<mgrwt>
<rscale>  0 0.10344587E+04</rscale>
<asrwt>0</asrwt>
<pdfrwt beam="1">  1        2 0.15659457E+00 0.10906501E+04</pdfrwt>
<pdfrwt beam="2">  1       -2 0.16753959E+00 0.10906501E+04</pdfrwt>
<totfact> 0.53501971E+00</totfact>
</mgrwt>
</event>
<event>
 4    1  0.1998832E-007  0.7779543E+03  0.7818608E-02  0.9760664E-01
          2   -1    0    0  501    0  0.00000000000E+00  0.00000000000E+00  0.16405584404E+04  0.16405584404E+04  0.25500000000E-02 0. -1.
         -2   -1    0    0    0  501 -0.00000000000E+00 -0.00000000000E+00 -0.86829666304E+03  0.86829666305E+03  0.25500000000E-02 0.  1.
    8880023    1    1    2    0    0  0.28387390473E+03 -0.30136072882E+03 -0.65370897082E+03  0.10161438419E+04  0.65864270000E+03 0.  0.
    8880022    1    1    2    0    0 -0.28387390473E+03  0.30136072882E+03  0.14259707482E+04  0.14927112616E+04  0.15294330000E+03 0.  0.
<mgrwt>
<rscale>  0 0.67516917E+03</rscale>
<asrwt>0</asrwt>
<pdfrwt beam="1">  1        2 0.25239360E+00 0.77795430E+03</pdfrwt>
<pdfrwt beam="2">  1       -2 0.13358410E+00 0.77795430E+03</pdfrwt>
<totfact> 0.43930405E+00</totfact>
</mgrwt>
</event>
<event>
 4    1  0.1998832E-007  0.8301627E+03  0.7818608E-02  0.9649016E-01
         -2   -1    0    0    0  501 -0.00000000000E+00  0.00000000000E+00  0.83340295981E+03  0.83340295982E+03  0.25500000000E-02 0.  1.
          2   -1    0    0  501    0  0.00000000000E+00 -0.00000000000E+00 -0.72094290509E+03  0.72094290510E+03  0.25500000000E-02 0. -1.
    8880023    1    1    2    0    0 -0.72450431245E+02 -0.50011083806E+03  0.43339754855E+03  0.93648468043E+03  0.65864270000E+03 0.  1.
    8880022    1    1    2    0    0  0.72450431245E+02  0.50011083806E+03 -0.32093749383E+03  0.61786118449E+03  0.15294330000E+03 0.  0.
<mgrwt>
<rscale>  0 0.74135220E+03</rscale>
<asrwt>0</asrwt>
<pdfrwt beam="1">  1        2 0.11091429E+00 0.83016271E+03</pdfrwt>
<pdfrwt beam="2">  1       -2 0.12821584E+00 0.83016271E+03</pdfrwt>
<totfact> 0.17868697E+01</totfact>
</mgrwt>
</event>
<event>
 4    1  0.1998832E-007  0.7826322E+03  0.7818608E-02  0.9749690E-01
          2   -1    0    0  501    0  0.00000000000E+00  0.00000000000E+00  0.15874917904E+04  0.15874917904E+04  0.25500000000E-02 0. -1.
         -2   -1    0    0    0  501 -0.00000000000E+00 -0.00000000000E+00 -0.30407237847E+03  0.30407237848E+03  0.25500000000E-02 0.  1.
    8880023    1    1    2    0    0  0.40035486778E+03  0.13571649540E+03  0.12025543303E+04  0.14347996762E+04  0.65864270000E+03 0.  0.
    8880022    1    1    2    0    0 -0.40035486778E+03 -0.13571649540E+03  0.80865081572E+02  0.45676449261E+03  0.15294330000E+03 0.  0.
<mgrwt>
<rscale>  0 0.68133805E+03</rscale>
<asrwt>0</asrwt>
<pdfrwt beam="1">  1        2 0.24422951E+00 0.78263222E+03</pdfrwt>
<pdfrwt beam="2">  1       -2 0.46780366E-01 0.78263222E+03</pdfrwt>
<totfact> 0.50050994E+01</totfact>
</mgrwt>
</event>
<event>
 4    1  0.1998832E-007  0.6742834E+03  0.7818608E-02  0.1012762E+00
         -2   -1    0    0    0  501 -0.00000000000E+00  0.00000000000E+00  0.15841828423E+04  0.15841828423E+04  0.25500000000E-02 0.  1.
          2   -1    0    0  501    0  0.00000000000E+00 -0.00000000000E+00 -0.18946793661E+03  0.18946793662E+03  0.25500000000E-02 0. -1.
    8880023    1    1    2    0    0 -0.12281123723E+03  0.75929578778E+02  0.14098271151E+04  0.15627765681E+04  0.65864270000E+03 0.  1.
    8880022    1    1    2    0    0  0.12281123723E+03 -0.75929578778E+02 -0.15112209411E+02  0.21087421087E+03  0.15294330000E+03 0.  0.
<mgrwt>
<rscale>  0 0.50391605E+03</rscale>
<asrwt>0</asrwt>
<pdfrwt beam="1">  1        2 0.29148915E-01 0.67428340E+03</pdfrwt>
<pdfrwt beam="2">  1       -2 0.24372043E+00 0.67428340E+03</pdfrwt>
<totfact> 0.13338604E+01</totfact>
</mgrwt>
</event>
<event>
 4    1  0.1998832E-007  0.1046012E+04  0.7818608E-02  0.9323691E-01
         -2   -1    0    0    0  501 -0.00000000000E+00  0.00000000000E+00  0.14791174906E+04  0.14791174906E+04  0.25500000000E-02 0.  1.
          2   -1    0    0  501    0  0.00000000000E+00 -0.00000000000E+00 -0.97078663506E+03  0.97078663506E+03  0.25500000000E-02 0. -1.
    8880023    1    1    2    0    0  0.35869939456E+03 -0.72915401907E+03  0.10334087599E+04  0.14703995071E+04  0.65864270000E+03 0.  0.
    8880022    1    1    2    0    0 -0.35869939456E+03  0.72915401907E+03 -0.52507790434E+03  0.97950461858E+03  0.15294330000E+03 0.  0.
<mgrwt>
<rscale>  0 0.98630782E+03</rscale>
<asrwt>0</asrwt>
<pdfrwt beam="1">  1        2 0.14935179E+00 0.10460120E+04</pdfrwt>
<pdfrwt beam="2">  1       -2 0.22755654E+00 0.10460120E+04</pdfrwt>
<totfact> 0.23049361E+00</totfact>
</mgrwt>
</event>
<event>
 4    1  0.1998832E-007  0.1481956E+04  0.7818608E-02  0.8922483E-01
         -2   -1    0    0    0  501 -0.00000000000E+00  0.00000000000E+00  0.13008497485E+04  0.13008497485E+04  0.25500000000E-02 0.  1.
          2   -1    0    0  501    0  0.00000000000E+00 -0.00000000000E+00 -0.18160392456E+04  0.18160392456E+04  0.25500000000E-02 0. -1.
    8880023    1    1    2    0    0  0.10826792415E+04  0.76823830901E+03  0.35284619953E+03  0.15233827773E+04  0.65864270000E+03 0.  0.
    8880022    1    1    2    0    0 -0.10826792415E+04 -0.76823830901E+03 -0.86803569659E+03  0.15935062168E+04  0.15294330000E+03 0.  0.
<mgrwt>
<rscale>  0 0.14441255E+04</rscale>
<asrwt>0</asrwt>
<pdfrwt beam="1">  1        2 0.27939065E+00 0.14819564E+04</pdfrwt>
<pdfrwt beam="2">  1       -2 0.20013073E+00 0.14819564E+04</pdfrwt>
<totfact> 0.10566843E+00</totfact>
</mgrwt>
</event>
<event>
 4    1  0.1998832E-007  0.8941798E+03  0.7818608E-02  0.9535440E-01
         -2   -1    0    0    0  501 -0.00000000000E+00  0.00000000000E+00  0.71089480318E+03  0.71089480319E+03  0.25500000000E-02 0.  1.
          2   -1    0    0  501    0  0.00000000000E+00 -0.00000000000E+00 -0.15908667793E+04  0.15908667793E+04  0.25500000000E-02 0. -1.
    8880023    1    1    2    0    0 -0.45563471317E+03  0.39767353203E+03  0.31968582756E+03  0.94960858491E+03  0.65864270000E+03 0.  1.
    8880022    1    1    2    0    0  0.45563471317E+03 -0.39767353203E+03 -0.11996578037E+04  0.13521529976E+04  0.15294330000E+03 0.  0.
<mgrwt>
<rscale>  0 0.81720630E+03</rscale>
<asrwt>0</asrwt>
<pdfrwt beam="1">  1        2 0.24474874E+00 0.89417976E+03</pdfrwt>
<pdfrwt beam="2">  1       -2 0.10936843E+00 0.89417976E+03</pdfrwt>
<totfact> 0.75736955E+00</totfact>
</mgrwt>
</event>
<event>
 4    1  0.1998832E-007  0.1076215E+04  0.7818608E-02  0.9288011E-01
         -2   -1    0    0    0  501 -0.00000000000E+00  0.00000000000E+00  0.30308749927E+03  0.30308749928E+03  0.25500000000E-02 0.  1.
          2   -1    0    0  501    0  0.00000000000E+00 -0.00000000000E+00 -0.34724167321E+04  0.34724167321E+04  0.25500000000E-02 0. -1.
    8880023    1    1    2    0    0 -0.16057460165E+03 -0.83584998647E+03 -0.23478390170E+04  0.25827480827E+04  0.65864270000E+03 0.  0.
    8880022    1    1    2    0    0  0.16057460165E+03  0.83584998647E+03 -0.82149021585E+03  0.11927561487E+04  0.15294330000E+03 0.  0.
<mgrwt>
<rscale>  0 0.10189412E+04</rscale>
<asrwt>0</asrwt>
<pdfrwt beam="1">  1        2 0.53421793E+00 0.10762154E+04</pdfrwt>
<pdfrwt beam="2">  1       -2 0.46628849E-01 0.10762154E+04</pdfrwt>
<totfact> 0.37966966E+00</totfact>
</mgrwt>
</event>
<event>
 4    1  0.1998832E-007  0.1212875E+04  0.7818608E-02  0.9144707E-01
          2   -1    0    0  501    0  0.00000000000E+00  0.00000000000E+00  0.10784784448E+04  0.10784784448E+04  0.25500000000E-02 0. -1.
         -2   -1    0    0    0  501 -0.00000000000E+00 -0.00000000000E+00 -0.13308727769E+04  0.13308727769E+04  0.25500000000E-02 0.  1.
    8880023    1    1    2    0    0  0.48974374019E+03  0.89297632195E+03 -0.55801562690E+03  0.13350832516E+04  0.65864270000E+03 0. -1.
    8880022    1    1    2    0    0 -0.48974374019E+03 -0.89297632195E+03  0.30562129480E+03  0.10742679700E+04  0.15294330000E+03 0.  0.
<mgrwt>
<rscale>  0 0.11642826E+04</rscale>
<asrwt>0</asrwt>
<pdfrwt beam="1">  1        2 0.16591976E+00 0.12128750E+04</pdfrwt>
<pdfrwt beam="2">  1       -2 0.20474966E+00 0.12128750E+04</pdfrwt>
<totfact> 0.27004865E+00</totfact>
</mgrwt>
</event>
<event>
 4    1  0.1998832E-007  0.7270093E+03  0.7818608E-02  0.9899545E-01
         -2   -1    0    0    0  501 -0.00000000000E+00  0.00000000000E+00  0.82907256781E+03  0.82907256781E+03  0.25500000000E-02 0.  1.
          2   -1    0    0  501    0  0.00000000000E+00 -0.00000000000E+00 -0.39973643578E+03  0.39973643579E+03  0.25500000000E-02 0. -1.
    8880023    1    1    2    0    0 -0.21982053912E+03  0.21543279479E+03  0.49416406321E+03  0.87905670245E+03  0.65864270000E+03 0. -1.
    8880022    1    1    2    0    0  0.21982053912E+03 -0.21543279479E+03 -0.64827931187E+02  0.34975230116E+03  0.15294330000E+03 0.  0.
<mgrwt>
<rscale>  0 0.60283334E+03</rscale>
<asrwt>0</asrwt>
<pdfrwt beam="1">  1        2 0.61497914E-01 0.72700933E+03</pdfrwt>
<pdfrwt beam="2">  1       -2 0.12754963E+00 0.72700933E+03</pdfrwt>
<totfact> 0.36746465E+01</totfact>
</mgrwt>
</event>
<event>
 4    1  0.1998832E-007  0.1397874E+04  0.7818608E-02  0.8985336E-01
          2   -1    0    0  501    0  0.00000000000E+00  0.00000000000E+00  0.27795766096E+04  0.27795766096E+04  0.25500000000E-02 0. -1.
         -2   -1    0    0    0  501 -0.00000000000E+00 -0.00000000000E+00 -0.87212935024E+03  0.87212935024E+03  0.25500000000E-02 0.  1.
    8880023    1    1    2    0    0  0.47984881676E+03  0.11357763749E+04  0.27309085758E+02  0.13981412136E+04  0.65864270000E+03 0.  0.
    8880022    1    1    2    0    0 -0.47984881676E+03 -0.11357763749E+04  0.18801381736E+04  0.22535647463E+04  0.15294330000E+03 0.  0.
<mgrwt>
<rscale>  0 0.13572792E+04</rscale>
<asrwt>0</asrwt>
<pdfrwt beam="1">  1        2 0.42762717E+00 0.13978745E+04</pdfrwt>
<pdfrwt beam="2">  1       -2 0.13417375E+00 0.13978745E+04</pdfrwt>
<totfact> 0.91462111E-01</totfact>
</mgrwt>
</event>
<event>
 4    1  0.1998832E-007  0.9445438E+03  0.7818608E-02  0.9458008E-01
         -2   -1    0    0    0  501 -0.00000000000E+00  0.00000000000E+00  0.19017022757E+04  0.19017022757E+04  0.25500000000E-02 0.  1.
          2   -1    0    0  501    0  0.00000000000E+00 -0.00000000000E+00 -0.75960058322E+03  0.75960058322E+03  0.25500000000E-02 0. -1.
    8880023    1    1    2    0    0 -0.64813284389E+03 -0.19564383641E+03  0.15798763391E+04  0.18406988203E+04  0.65864270000E+03 0.  1.
    8880022    1    1    2    0    0  0.64813284389E+03  0.19564383641E+03 -0.43777464657E+03  0.82060403864E+03  0.15294330000E+03 0.  0.
<mgrwt>
<rscale>  0 0.87451777E+03</rscale>
<asrwt>0</asrwt>
<pdfrwt beam="1">  1        2 0.11686163E+00 0.94454375E+03</pdfrwt>
<pdfrwt beam="2">  1       -2 0.29256958E+00 0.94454375E+03</pdfrwt>
<totfact> 0.13160686E+00</totfact>
</mgrwt>
</event>
<event>
 4    1  0.1998832E-007  0.6842480E+03  0.7818608E-02  0.1007016E+00
          2   -1    0    0  501    0  0.00000000000E+00  0.00000000000E+00  0.11707576832E+04  0.11707576832E+04  0.25500000000E-02 0. -1.
         -2   -1    0    0    0  501 -0.00000000000E+00 -0.00000000000E+00 -0.11897249182E+04  0.11897249182E+04  0.25500000000E-02 0.  1.
    8880023    1    1    2    0    0 -0.22074690718E+02 -0.18411363723E+03 -0.10767304880E+04  0.12757522774E+04  0.65864270000E+03 0.  1.
    8880022    1    1    2    0    0  0.22074690718E+02  0.18411363723E+03  0.10577632530E+04  0.10847303240E+04  0.15294330000E+03 0.  0.
<mgrwt>
<rscale>  0 0.52678005E+03</rscale>
<asrwt>0</asrwt>
<pdfrwt beam="1">  1        2 0.18011657E+00 0.68424800E+03</pdfrwt>
<pdfrwt beam="2">  1       -2 0.18303460E+00 0.68424800E+03</pdfrwt>
<totfact> 0.35274183E+00</totfact>
</mgrwt>
</event>
<event>
 4    1  0.2652460E-007  0.7689666E+03  0.7818608E-02  0.9782424E-01
         -2   -1    0    0    0  501 -0.00000000000E+00  0.00000000000E+00  0.94213938778E+03  0.94213938779E+03  0.25500000000E-02 0.  1.
          2   -1    0    0  501    0  0.00000000000E+00 -0.00000000000E+00 -0.33053887199E+04  0.33053887199E+04  0.25500000000E-02 0. -1.
    8880023    1    1    2    0    0  0.40503259174E+02 -0.39478967189E+03  0.76842780841E+03  0.10871020661E+04  0.65864270000E+03 0.  1.
    8880022    1    1    2    0    0 -0.40503259174E+02  0.39478967189E+03 -0.31316771405E+04  0.31604260416E+04  0.15294330000E+03 0.  0.
<mgrwt>
<rscale>  0 0.66314383E+03</rscale>
<asrwt>0</asrwt>
<pdfrwt beam="1">  1        2 0.50852134E+00 0.76896658E+03</pdfrwt>
<pdfrwt beam="2">  1       -2 0.14494452E+00 0.76896658E+03</pdfrwt>
<totfact> 0.39016676E-01</totfact>
</mgrwt>
</event>
<event>
 4    1  0.1998832E-007  0.7391371E+03  0.7818608E-02  0.9862468E-01
         -2   -1    0    0    0  501 -0.00000000000E+00  0.00000000000E+00  0.41592417907E+03  0.41592417908E+03  0.25500000000E-02 0.  1.
          2   -1    0    0  501    0  0.00000000000E+00 -0.00000000000E+00 -0.10928756204E+04  0.10928756204E+04  0.25500000000E-02 0. -1.
    8880023    1    1    2    0    0 -0.85602246327E+02 -0.32432334846E+03 -0.13229289015E+01  0.73913823831E+03  0.65864270000E+03 0.  1.
    8880022    1    1    2    0    0  0.85602246327E+02  0.32432334846E+03 -0.67562851243E+03  0.76966156118E+03  0.15294330000E+03 0.  0.
<mgrwt>
<rscale>  0 0.62115241E+03</rscale>
<asrwt>0</asrwt>
<pdfrwt beam="1">  1        2 0.16813471E+00 0.73913705E+03</pdfrwt>
<pdfrwt beam="2">  1       -2 0.63988336E-01 0.73913705E+03</pdfrwt>
<totfact> 0.50561767E+01</totfact>
</mgrwt>
</event>
<event>
 4    1  0.1998832E-007  0.1150349E+04  0.7818608E-02  0.9206966E-01
          2   -1    0    0  501    0  0.00000000000E+00  0.00000000000E+00  0.28150215481E+04  0.28150215481E+04  0.25500000000E-02 0. -1.
         -2   -1    0    0    0  501 -0.00000000000E+00 -0.00000000000E+00 -0.40117386936E+03  0.40117386937E+03  0.25500000000E-02 0.  1.
    8880023    1    1    2    0    0  0.94015841551E+03  0.74792991990E+02  0.10996934350E+04  0.15914231666E+04  0.65864270000E+03 0. -1.
    8880022    1    1    2    0    0 -0.94015841551E+03 -0.74792991990E+02  0.13141542438E+04  0.16247722509E+04  0.15294330000E+03 0.  1.
<mgrwt>
<rscale>  0 0.10981813E+04</rscale>
<asrwt>0</asrwt>
<pdfrwt beam="1">  1        2 0.43308024E+00 0.11503487E+04</pdfrwt>
<pdfrwt beam="2">  1       -2 0.61719057E-01 0.11503487E+04</pdfrwt>
<totfact> 0.55179446E+00</totfact>
</mgrwt>
</event>
<event>
 4    1  0.1998832E-007  0.1119185E+04  0.7818608E-02  0.9239991E-01
         -2   -1    0    0    0  501 -0.00000000000E+00  0.00000000000E+00  0.15355564869E+04  0.15355564869E+04  0.25500000000E-02 0.  1.
          2   -1    0    0  501    0  0.00000000000E+00 -0.00000000000E+00 -0.13785225607E+04  0.13785225607E+04  0.25500000000E-02 0. -1.
    8880023    1    1    2    0    0  0.41360960474E+03  0.80479255752E+03  0.11203675320E+04  0.15836027213E+04  0.65864270000E+03 0.  1.
    8880022    1    1    2    0    0 -0.41360960474E+03 -0.80479255752E+03 -0.96333360578E+03  0.13304763263E+04  0.15294330000E+03 0.  0.
<mgrwt>
<rscale>  0 0.10650018E+04</rscale>
<asrwt>0</asrwt>
<pdfrwt beam="1">  1        2 0.21208039E+00 0.11191846E+04</pdfrwt>
<pdfrwt beam="2">  1       -2 0.23623946E+00 0.11191846E+04</pdfrwt>
<totfact> 0.11410601E+00</totfact>
</mgrwt>
</event>
<event>
 4    1  0.1998832E-007  0.1028551E+04  0.7818608E-02  0.9345122E-01
          2   -1    0    0  501    0  0.00000000000E+00  0.00000000000E+00  0.15398472950E+04  0.15398472950E+04  0.25500000000E-02 0. -1.
         -2   -1    0    0    0  501 -0.00000000000E+00 -0.00000000000E+00 -0.14325204398E+04  0.14325204398E+04  0.25500000000E-02 0.  1.
    8880023    1    1    2    0    0 -0.70738878607E+03  0.35172119351E+03 -0.11099024011E+04  0.15132085907E+04  0.65864270000E+03 0.  0.
    8880022    1    1    2    0    0  0.70738878607E+03 -0.35172119351E+03  0.12172292563E+04  0.14591591442E+04  0.15294330000E+03 0. -1.
<mgrwt>
<rscale>  0 0.96732891E+03</rscale>
<asrwt>0</asrwt>
<pdfrwt beam="1">  1        2 0.23689958E+00 0.10285509E+04</pdfrwt>
<pdfrwt beam="2">  1       -2 0.22038776E+00 0.10285509E+04</pdfrwt>
<totfact> 0.11744402E+00</totfact>
</mgrwt>
</event>
<event>
 4    1  0.1998832E-007  0.1766133E+04  0.7818608E-02  0.8741505E-01
         -2   -1    0    0    0  501 -0.00000000000E+00  0.00000000000E+00  0.12750750606E+04  0.12750750606E+04  0.25500000000E-02 0.  1.
          2   -1    0    0  501    0  0.00000000000E+00 -0.00000000000E+00 -0.26606755566E+04  0.26606755566E+04  0.25500000000E-02 0. -1.
    8880023    1    1    2    0    0  0.77556401994E+03  0.14435774190E+04 -0.14552318872E+04  0.22884329498E+04  0.65864270000E+03 0.  0.
    8880022    1    1    2    0    0 -0.77556401994E+03 -0.14435774190E+04  0.69631391277E+02  0.16473176674E+04  0.15294330000E+03 0.  0.
<mgrwt>
<rscale>  0 0.17352610E+04</rscale>
<asrwt>0</asrwt>
<pdfrwt beam="1">  1        2 0.40933470E+00 0.17661329E+04</pdfrwt>
<pdfrwt beam="2">  1       -2 0.19616540E+00 0.17661329E+04</pdfrwt>
<totfact> 0.36137074E-01</totfact>
</mgrwt>
</event>
<event>
 4    1  0.1998832E-007  0.6678266E+03  0.7818608E-02  0.1017271E+00
          2   -1    0    0  501    0  0.00000000000E+00  0.00000000000E+00  0.20756609989E+04  0.20756609989E+04  0.25500000000E-02 0. -1.
         -2   -1    0    0    0  501 -0.00000000000E+00 -0.00000000000E+00 -0.13067239205E+03  0.13067239207E+03  0.25500000000E-02 0.  1.
    8880023    1    1    2    0    0 -0.28686411099E+02 -0.10658007795E+03  0.78291091338E+03  0.10290490405E+04  0.65864270000E+03 0.  1.
    8880022    1    1    2    0    0  0.28686411099E+02  0.10658007795E+03  0.11620776935E+04  0.11772843505E+04  0.15294330000E+03 0. -1.
<mgrwt>
<rscale>  0 0.48684331E+03</rscale>
<asrwt>0</asrwt>
<pdfrwt beam="1">  1        2 0.31933244E+00 0.66782665E+03</pdfrwt>
<pdfrwt beam="2">  1       -2 0.20103446E-01 0.66782665E+03</pdfrwt>
<totfact> 0.13280711E+02</totfact>
</mgrwt>
</event>
<event>
 4    1  0.1998832E-007  0.6763105E+03  0.7818608E-02  0.1011493E+00
         -2   -1    0    0    0  501 -0.00000000000E+00  0.00000000000E+00  0.63891946741E+03  0.63891946742E+03  0.25500000000E-02 0.  1.
          2   -1    0    0  501    0  0.00000000000E+00 -0.00000000000E+00 -0.15891094934E+04  0.15891094934E+04  0.25500000000E-02 0. -1.
    8880023    1    1    2    0    0  0.15147904482E+03  0.25294397639E+02  0.44923670461E+03  0.81191719443E+03  0.65864270000E+03 0.  1.
    8880022    1    1    2    0    0 -0.15147904482E+03 -0.25294397639E+02 -0.13994267306E+04  0.14161117664E+04  0.15294330000E+03 0.  0.
<mgrwt>
<rscale>  0 0.50885692E+03</rscale>
<asrwt>0</asrwt>
<pdfrwt beam="1">  1        2 0.24447838E+00 0.67631052E+03</pdfrwt>
<pdfrwt beam="2">  1       -2 0.98295303E-01 0.67631052E+03</pdfrwt>
<totfact> 0.10094264E+01</totfact>
</mgrwt>
</event>
<event>
 4    1  0.1998832E-007  0.1576938E+04  0.7818608E-02  0.8857135E-01
         -2   -1    0    0    0  501 -0.00000000000E+00  0.00000000000E+00  0.21579749282E+04  0.21579749282E+04  0.25500000000E-02 0.  1.
          2   -1    0    0  501    0  0.00000000000E+00 -0.00000000000E+00 -0.14595821245E+04  0.14595821245E+04  0.25500000000E-02 0. -1.
    8880023    1    1    2    0    0  0.54776374838E+03  0.13239629705E+04  0.13120449224E+04  0.20513885921E+04  0.65864270000E+03 0.  0.
    8880022    1    1    2    0    0 -0.54776374838E+03 -0.13239629705E+04 -0.61365211862E+03  0.15661684606E+04  0.15294330000E+03 0.  0.
<mgrwt>
<rscale>  0 0.15417807E+04</rscale>
<asrwt>0</asrwt>
<pdfrwt beam="1">  1        2 0.22455110E+00 0.15769379E+04</pdfrwt>
<pdfrwt beam="2">  1       -2 0.33199614E+00 0.15769379E+04</pdfrwt>
<totfact> 0.25219379E-01</totfact>
</mgrwt>
</event>
<event>
 4    1  0.1998832E-007  0.9477094E+03  0.7818608E-02  0.9453417E-01
         -2   -1    0    0    0  501 -0.00000000000E+00  0.00000000000E+00  0.85750478166E+03  0.85750478167E+03  0.25500000000E-02 0.  1.
          2   -1    0    0  501    0  0.00000000000E+00 -0.00000000000E+00 -0.22181651304E+04  0.22181651304E+04  0.25500000000E-02 0. -1.
    8880023    1    1    2    0    0  0.53199578193E+03  0.42582076235E+03  0.51189499143E+03  0.10771209413E+04  0.65864270000E+03 0.  0.
    8880022    1    1    2    0    0 -0.53199578193E+03 -0.42582076235E+03 -0.18725553402E+04  0.19985489708E+04  0.15294330000E+03 0.  0.
<mgrwt>
<rscale>  0 0.87807035E+03</rscale>
<asrwt>0</asrwt>
<pdfrwt beam="1">  1        2 0.34125617E+00 0.94770936E+03</pdfrwt>
<pdfrwt beam="2">  1       -2 0.13192381E+00 0.94770936E+03</pdfrwt>
<totfact> 0.21294098E+00</totfact>
</mgrwt>
</event>
<event>
 4    1  0.1998832E-007  0.1389684E+04  0.7818608E-02  0.8991740E-01
         -2   -1    0    0    0  501 -0.00000000000E+00  0.00000000000E+00  0.14233355400E+04  0.14233355400E+04  0.25500000000E-02 0.  1.
          2   -1    0    0  501    0  0.00000000000E+00 -0.00000000000E+00 -0.30147378814E+04  0.30147378814E+04  0.25500000000E-02 0. -1.
    8880023    1    1    2    0    0  0.11481521416E+04  0.42327115421E+03  0.90173700237E+03  0.16566084746E+04  0.65864270000E+03 0.  0.
    8880022    1    1    2    0    0 -0.11481521416E+04 -0.42327115421E+03 -0.24931393438E+04  0.27814649469E+04  0.15294330000E+03 0.  0.
<mgrwt>
<rscale>  0 0.13487958E+04</rscale>
<asrwt>0</asrwt>
<pdfrwt beam="1">  1        2 0.46380583E+00 0.13896841E+04</pdfrwt>
<pdfrwt beam="2">  1       -2 0.21897470E+00 0.13896841E+04</pdfrwt>
<totfact> 0.16342678E-01</totfact>
</mgrwt>
</event>
<event>
 4    1  0.1998832E-007  0.8558649E+03  0.7818608E-02  0.9600962E-01
         -2   -1    0    0    0  501 -0.00000000000E+00  0.00000000000E+00  0.40562169864E+03  0.40562169865E+03  0.25500000000E-02 0.  1.
          2   -1    0    0  501    0  0.00000000000E+00 -0.00000000000E+00 -0.15437556837E+04  0.15437556837E+04  0.25500000000E-02 0. -1.
    8880023    1    1    2    0    0  0.47841795708E+03 -0.26421724424E+03 -0.10812791934E+04  0.13790102952E+04  0.65864270000E+03 0. -1.
    8880022    1    1    2    0    0 -0.47841795708E+03  0.26421724424E+03 -0.56854791668E+02  0.57036708720E+03  0.15294330000E+03 0.  0.
<mgrwt>
<rscale>  0 0.77232557E+03</rscale>
<asrwt>0</asrwt>
<pdfrwt beam="1">  1        2 0.23750087E+00 0.85586488E+03</pdfrwt>
<pdfrwt beam="2">  1       -2 0.62403339E-01 0.85586488E+03</pdfrwt>
<totfact> 0.28924907E+01</totfact>
</mgrwt>
</event>
<event>
 4    1  0.1998832E-007  0.1668074E+04  0.7818608E-02  0.8799253E-01
          2   -1    0    0  501    0  0.00000000000E+00  0.00000000000E+00  0.29996164334E+04  0.29996164334E+04  0.25500000000E-02 0. -1.
         -2   -1    0    0    0  501 -0.00000000000E+00 -0.00000000000E+00 -0.15480745070E+04  0.15480745070E+04  0.25500000000E-02 0.  1.
    8880023    1    1    2    0    0  0.14917758685E+04  0.35109218616E+03 -0.77585115414E+03  0.18396782829E+04  0.65864270000E+03 0.  0.
    8880022    1    1    2    0    0 -0.14917758685E+04 -0.35109218616E+03  0.22273930805E+04  0.27080126575E+04  0.15294330000E+03 0.  0.
<mgrwt>
<rscale>  0 0.16351291E+04</rscale>
<asrwt>0</asrwt>
<pdfrwt beam="1">  1        2 0.46147945E+00 0.16680741E+04</pdfrwt>
<pdfrwt beam="2">  1       -2 0.23816531E+00 0.16680741E+04</pdfrwt>
<totfact> 0.12206357E-01</totfact>
</mgrwt>
</event>
<event>
 4    1  0.1998832E-007  0.1864097E+04  0.7818608E-02  0.8687885E-01
         -2   -1    0    0    0  501 -0.00000000000E+00  0.00000000000E+00  0.23863013577E+04  0.23863013577E+04  0.25500000000E-02 0.  1.
          2   -1    0    0  501    0  0.00000000000E+00 -0.00000000000E+00 -0.13896156854E+04  0.13896156854E+04  0.25500000000E-02 0. -1.
    8880023    1    1    2    0    0 -0.87742116957E+03 -0.15070434794E+04  0.74458695612E+03  0.20073036390E+04  0.65864270000E+03 0.  1.
    8880022    1    1    2    0    0  0.87742116957E+03  0.15070434794E+04  0.25209871620E+03  0.17686134041E+04  0.15294330000E+03 0. -1.
<mgrwt>
<rscale>  0 0.18350390E+04</rscale>
<asrwt>0</asrwt>
<pdfrwt beam="1">  1        2 0.21378703E+00 0.18640971E+04</pdfrwt>
<pdfrwt beam="2">  1       -2 0.36712328E+00 0.18640971E+04</pdfrwt>
<totfact> 0.16146842E-01</totfact>
</mgrwt>
</event>
<event>
 4    1  0.1998832E-007  0.1825076E+04  0.7818608E-02  0.8708791E-01
          2   -1    0    0  501    0  0.00000000000E+00  0.00000000000E+00  0.19558412827E+04  0.19558412827E+04  0.25500000000E-02 0. -1.
         -2   -1    0    0    0  501 -0.00000000000E+00 -0.00000000000E+00 -0.18642731632E+04  0.18642731632E+04  0.25500000000E-02 0.  1.
    8880023    1    1    2    0    0 -0.49687579556E+03 -0.16279458452E+04  0.77075498672E+03  0.19811528681E+04  0.65864270000E+03 0.  0.
    8880022    1    1    2    0    0  0.49687579556E+03  0.16279458452E+04 -0.67918686718E+03  0.18389615778E+04  0.15294330000E+03 0.  0.
<mgrwt>
<rscale>  0 0.17953232E+04</rscale>
<asrwt>0</asrwt>
<pdfrwt beam="1">  1        2 0.30089866E+00 0.18250763E+04</pdfrwt>
<pdfrwt beam="2">  1       -2 0.28681125E+00 0.18250763E+04</pdfrwt>
<totfact> 0.24524144E-01</totfact>
</mgrwt>
</event>
<event>
 4    1  0.1998832E-007  0.8602445E+03  0.7818608E-02  0.9593129E-01
         -2   -1    0    0    0  501 -0.00000000000E+00  0.00000000000E+00  0.85049497710E+03  0.85049497710E+03  0.25500000000E-02 0.  1.
          2   -1    0    0  501    0  0.00000000000E+00 -0.00000000000E+00 -0.21974096666E+04  0.21974096666E+04  0.25500000000E-02 0. -1.
    8880023    1    1    2    0    0  0.55253291442E+03 -0.30293549459E+02  0.57985199387E+03  0.10374241474E+04  0.65864270000E+03 0.  1.
    8880022    1    1    2    0    0 -0.55253291442E+03  0.30293549459E+02 -0.19267666833E+04  0.20104804962E+04  0.15294330000E+03 0.  0.
<mgrwt>
<rscale>  0 0.77752639E+03</rscale>
<asrwt>0</asrwt>
<pdfrwt beam="1">  1        2 0.33806302E+00 0.86024446E+03</pdfrwt>
<pdfrwt beam="2">  1       -2 0.13084538E+00 0.86024446E+03</pdfrwt>
<totfact> 0.22629590E+00</totfact>
</mgrwt>
</event>
<event>
 4    1  0.1998832E-007  0.9334980E+03  0.7818608E-02  0.9474265E-01
         -2   -1    0    0    0  501 -0.00000000000E+00  0.00000000000E+00  0.37006533144E+03  0.37006533145E+03  0.25500000000E-02 0.  1.
          2   -1    0    0  501    0  0.00000000000E+00 -0.00000000000E+00 -0.36603772873E+04  0.36603772873E+04  0.25500000000E-02 0. -1.
    8880023    1    1    2    0    0  0.47952396361E+03 -0.45570277355E+03 -0.32509841136E+03  0.98848744698E+03  0.65864270000E+03 0.  0.
    8880022    1    1    2    0    0 -0.47952396361E+03  0.45570277355E+03 -0.29652135445E+04  0.30419551717E+04  0.15294330000E+03 0.  0.
<mgrwt>
<rscale>  0 0.86208013E+03</rscale>
<asrwt>0</asrwt>
<pdfrwt beam="1">  1        2 0.56313494E+00 0.93349797E+03</pdfrwt>
<pdfrwt beam="2">  1       -2 0.56933131E-01 0.93349797E+03</pdfrwt>
<totfact> 0.19036146E+00</totfact>
</mgrwt>
</event>
