<event>
 4    1  0.3057048E-007  0.9349111E+03  0.7818608E-02  0.9472164E-01
         -2   -1    0    0    0  501 -0.00000000000E+00  0.00000000000E+00  0.52666983078E+03  0.52666983079E+03  0.25500000000E-02 0.  1.
          2   -1    0    0  501    0  0.00000000000E+00 -0.00000000000E+00 -0.14899591753E+04  0.14899591753E+04  0.25500000000E-02 0. -1.
    8880023    1    1    2    0    0 -0.51845926483E+03  0.41406351680E+03 -0.13535121209E+03  0.94465801331E+03  0.65864270000E+03 0.  1.
    8880022    1    1    2    0    0  0.51845926483E+03 -0.41406351680E+03 -0.82793813244E+03  0.10719709928E+04  0.15294330000E+03 0.  0.
<mgrwt>
<rscale>  0 0.86367508E+03</rscale>
<asrwt>0</asrwt>
<pdfrwt beam="1">  1        2 0.22922449E+00 0.93491112E+03</pdfrwt>
<pdfrwt beam="2">  1       -2 0.81026128E-01 0.93491112E+03</pdfrwt>
<totfact> 0.17329299E+01</totfact>
</mgrwt>
</event>
<event>
 4    1  0.3057048E-007  0.6824966E+03  0.7818608E-02  0.1007945E+00
         -2   -1    0    0    0  501 -0.00000000000E+00  0.00000000000E+00  0.69927574371E+02  0.69927574418E+02  0.25500000000E-02 0.  1.
          2   -1    0    0  501    0  0.00000000000E+00 -0.00000000000E+00 -0.32601563068E+04  0.32601563068E+04  0.25500000000E-02 0. -1.
    8880023    1    1    2    0    0 -0.91008049798E+02  0.15397722597E+03 -0.19069218875E+04  0.20253771852E+04  0.65864270000E+03 0.  0.
    8880022    1    1    2    0    0  0.91008049798E+02 -0.15397722597E+03 -0.12833068450E+04  0.13047066960E+04  0.15294330000E+03 0.  0.
<mgrwt>
<rscale>  0 0.52299501E+03</rscale>
<asrwt>0</asrwt>
<pdfrwt beam="1">  1        2 0.50156239E+00 0.68249664E+03</pdfrwt>
<pdfrwt beam="2">  1       -2 0.10758091E-01 0.68249664E+03</pdfrwt>
<totfact> 0.77599529E+01</totfact>
</mgrwt>
</event>
<event>
 4    1  0.3057048E-007  0.7622036E+03  0.7818608E-02  0.9799436E-01
          2   -1    0    0  501    0  0.00000000000E+00  0.00000000000E+00  0.16495295933E+04  0.16495295933E+04  0.25500000000E-02 0. -1.
         -2   -1    0    0    0  501 -0.00000000000E+00 -0.00000000000E+00 -0.30997479987E+03  0.30997479988E+03  0.25500000000E-02 0.  1.
    8880023    1    1    2    0    0 -0.57243185295E+02 -0.37929853033E+03  0.26273662730E+03  0.80621640951E+03  0.65864270000E+03 0.  1.
    8880022    1    1    2    0    0  0.57243185295E+02  0.37929853033E+03  0.10768181661E+04  0.11532879836E+04  0.15294330000E+03 0.  0.
<mgrwt>
<rscale>  0 0.65392841E+03</rscale>
<asrwt>0</asrwt>
<pdfrwt beam="1">  1        2 0.25377379E+00 0.76220362E+03</pdfrwt>
<pdfrwt beam="2">  1       -2 0.47688430E-01 0.76220362E+03</pdfrwt>
<totfact> 0.44603248E+01</totfact>
</mgrwt>
</event>
<event>
 4    1  0.3057048E-007  0.8052319E+03  0.7818608E-02  0.9699596E-01
          2   -1    0    0  501    0  0.00000000000E+00  0.00000000000E+00  0.13098491519E+04  0.13098491519E+04  0.25500000000E-02 0. -1.
         -2   -1    0    0    0  501 -0.00000000000E+00 -0.00000000000E+00 -0.55465591660E+03  0.55465591660E+03  0.25500000000E-02 0.  1.
    8880023    1    1    2    0    0 -0.20182436796E+03  0.41695934368E+03 -0.16595456606E+03  0.82215527368E+03  0.65864270000E+03 0.  1.
    8880022    1    1    2    0    0  0.20182436796E+03 -0.41695934368E+03  0.92114780132E+03  0.10423497948E+04  0.15294330000E+03 0.  0.
<mgrwt>
<rscale>  0 0.71040864E+03</rscale>
<asrwt>0</asrwt>
<pdfrwt beam="1">  1        2 0.20151525E+00 0.80523188E+03</pdfrwt>
<pdfrwt beam="2">  1       -2 0.85331679E-01 0.80523188E+03</pdfrwt>
<totfact> 0.19765770E+01</totfact>
</mgrwt>
</event>
<event>
 4    1  0.3057048E-007  0.8229516E+03  0.7818608E-02  0.9663205E-01
         -2   -1    0    0    0  501 -0.00000000000E+00  0.00000000000E+00  0.55672693443E+03  0.55672693443E+03  0.25500000000E-02 0.  1.
          2   -1    0    0  501    0  0.00000000000E+00 -0.00000000000E+00 -0.36902473891E+04  0.36902473891E+04  0.25500000000E-02 0. -1.
    8880023    1    1    2    0    0  0.49201318405E+03 -0.36907327898E+02  0.22164557834E+03  0.85227700473E+03  0.65864270000E+03 0.  1.
    8880022    1    1    2    0    0 -0.49201318405E+03  0.36907327898E+02 -0.33551660330E+04  0.33946973188E+04  0.15294330000E+03 0.  0.
<mgrwt>
<rscale>  0 0.73250435E+03</rscale>
<asrwt>0</asrwt>
<pdfrwt beam="1">  1        2 0.56773035E+00 0.82295160E+03</pdfrwt>
<pdfrwt beam="2">  1       -2 0.85650300E-01 0.82295160E+03</pdfrwt>
<totfact> 0.75813833E-01</totfact>
</mgrwt>
</event>
<event>
 4    1  0.3057048E-007  0.6682804E+03  0.7818608E-02  0.1016927E+00
         -2   -1    0    0    0  501 -0.00000000000E+00  0.00000000000E+00  0.68387391226E+03  0.68387391227E+03  0.25500000000E-02 0.  1.
          2   -1    0    0  501    0  0.00000000000E+00 -0.00000000000E+00 -0.69967358740E+03  0.69967358740E+03  0.25500000000E-02 0. -1.
    8880023    1    1    2    0    0 -0.10844652641E+03 -0.32060618049E+02  0.49945906729E+03  0.83430096397E+03  0.65864270000E+03 0.  1.
    8880022    1    1    2    0    0  0.10844652641E+03  0.32060618049E+02 -0.51525874243E+03  0.54924653570E+03  0.15294330000E+03 0.  0.
<mgrwt>
<rscale>  0 0.48812147E+03</rscale>
<asrwt>0</asrwt>
<pdfrwt beam="1">  1        2 0.10764209E+00 0.66828043E+03</pdfrwt>
<pdfrwt beam="2">  1       -2 0.10521137E+00 0.66828043E+03</pdfrwt>
<totfact> 0.30617186E+01</totfact>
</mgrwt>
</event>
<event>
 4    1  0.3057048E-007  0.9721397E+03  0.7818608E-02  0.9418951E-01
          2   -1    0    0  501    0  0.00000000000E+00  0.00000000000E+00  0.18667509022E+04  0.18667509022E+04  0.25500000000E-02 0. -1.
         -2   -1    0    0    0  501 -0.00000000000E+00 -0.00000000000E+00 -0.70656499668E+03  0.70656499669E+03  0.25500000000E-02 0.  1.
    8880023    1    1    2    0    0 -0.15365939545E+03 -0.69830807469E+03 -0.23321314735E+03  0.99972193902E+03  0.65864270000E+03 0.  0.
    8880022    1    1    2    0    0  0.15365939545E+03  0.69830807469E+03  0.13933990529E+04  0.15735939599E+04  0.15294330000E+03 0.  0.
<mgrwt>
<rscale>  0 0.90532369E+03</rscale>
<asrwt>0</asrwt>
<pdfrwt beam="1">  1        2 0.28719245E+00 0.97213969E+03</pdfrwt>
<pdfrwt beam="2">  1       -2 0.10870231E+00 0.97213969E+03</pdfrwt>
<totfact> 0.53656424E+00</totfact>
</mgrwt>
</event>
<event>
 4    1  0.3057048E-007  0.1232950E+04  0.7818608E-02  0.9125739E-01
          2   -1    0    0  501    0  0.00000000000E+00  0.00000000000E+00  0.24669234546E+04  0.24669234546E+04  0.25500000000E-02 0. -1.
         -2   -1    0    0    0  501 -0.00000000000E+00 -0.00000000000E+00 -0.77074399556E+03  0.77074399557E+03  0.25500000000E-02 0.  1.
    8880023    1    1    2    0    0 -0.94312946365E+03  0.44369192389E+03  0.17971112859E+04  0.21793978271E+04  0.65864270000E+03 0. -1.
    8880022    1    1    2    0    0  0.94312946365E+03 -0.44369192389E+03 -0.10093182683E+03  0.10582696231E+04  0.15294330000E+03 0.  0.
<mgrwt>
<rscale>  0 0.11853924E+04</rscale>
<asrwt>0</asrwt>
<pdfrwt beam="1">  1        2 0.37952668E+00 0.12329501E+04</pdfrwt>
<pdfrwt beam="2">  1       -2 0.11857600E+00 0.12329501E+04</pdfrwt>
<totfact> 0.19436285E+00</totfact>
</mgrwt>
</event>
<event>
 4    1  0.3057048E-007  0.1024075E+04  0.7818608E-02  0.9350717E-01
         -2   -1    0    0    0  501 -0.00000000000E+00  0.00000000000E+00  0.35779541391E+03  0.35779541392E+03  0.25500000000E-02 0.  1.
          2   -1    0    0  501    0  0.00000000000E+00 -0.00000000000E+00 -0.33046544483E+04  0.33046544483E+04  0.25500000000E-02 0. -1.
    8880023    1    1    2    0    0  0.59951557613E+03  0.50546956387E+03 -0.60815033076E+03  0.11910396455E+04  0.65864270000E+03 0.  0.
    8880022    1    1    2    0    0 -0.59951557613E+03 -0.50546956387E+03 -0.23387087036E+04  0.24714102167E+04  0.15294330000E+03 0.  0.
<mgrwt>
<rscale>  0 0.96244879E+03</rscale>
<asrwt>0</asrwt>
<pdfrwt beam="1">  1        2 0.50840836E+00 0.10240745E+04</pdfrwt>
<pdfrwt beam="2">  1       -2 0.55045451E-01 0.10240745E+04</pdfrwt>
<totfact> 0.35262209E+00</totfact>
</mgrwt>
</event>
<event>
 4    1  0.3057048E-007  0.1077569E+04  0.7818608E-02  0.9286451E-01
          2   -1    0    0  501    0  0.00000000000E+00  0.00000000000E+00  0.12270932833E+04  0.12270932833E+04  0.25500000000E-02 0. -1.
         -2   -1    0    0    0  501 -0.00000000000E+00 -0.00000000000E+00 -0.11737912285E+04  0.11737912285E+04  0.25500000000E-02 0.  1.
    8880023    1    1    2    0    0  0.84914362991E+03  0.79367662052E+02 -0.67284755506E+03  0.12703850474E+04  0.65864270000E+03 0.  0.
    8880022    1    1    2    0    0 -0.84914362991E+03 -0.79367662052E+02  0.72614960989E+03  0.11304994644E+04  0.15294330000E+03 0.  0.
<mgrwt>
<rscale>  0 0.10203981E+04</rscale>
<asrwt>0</asrwt>
<pdfrwt beam="1">  1        2 0.18878358E+00 0.10775687E+04</pdfrwt>
<pdfrwt beam="2">  1       -2 0.18058327E+00 0.10775687E+04</pdfrwt>
<totfact> 0.32231784E+00</totfact>
</mgrwt>
</event>
<event>
 4    1  0.3057048E-007  0.6660401E+03  0.7818608E-02  0.1018676E+00
         -2   -1    0    0    0  501 -0.00000000000E+00  0.00000000000E+00  0.22414948335E+03  0.22414948337E+03  0.25500000000E-02 0.  1.
          2   -1    0    0  501    0  0.00000000000E+00 -0.00000000000E+00 -0.11622240022E+04  0.11622240022E+04  0.25500000000E-02 0. -1.
    8880023    1    1    2    0    0 -0.84087364552E+02 -0.52235391043E+02 -0.31417901183E+03  0.73642235076E+03  0.65864270000E+03 0.  0.
    8880022    1    1    2    0    0  0.84087364552E+02  0.52235391043E+02 -0.62389550703E+03  0.64995113482E+03  0.15294330000E+03 0. -1.
<mgrwt>
<rscale>  0 0.48167336E+03</rscale>
<asrwt>0</asrwt>
<pdfrwt beam="1">  1        2 0.17880369E+00 0.66604011E+03</pdfrwt>
<pdfrwt beam="2">  1       -2 0.34484536E-01 0.66604011E+03</pdfrwt>
<totfact> 0.16021922E+02</totfact>
</mgrwt>
</event>
<event>
 4    1  0.3057048E-007  0.8592931E+03  0.7818608E-02  0.9594822E-01
         -2   -1    0    0    0  501 -0.00000000000E+00  0.00000000000E+00  0.55944820035E+03  0.55944820035E+03  0.25500000000E-02 0.  1.
          2   -1    0    0  501    0  0.00000000000E+00 -0.00000000000E+00 -0.19962216653E+04  0.19962216653E+04  0.25500000000E-02 0. -1.
    8880023    1    1    2    0    0 -0.19633092768E+03  0.51577953099E+03  0.14678414545E+03  0.87173972571E+03  0.65864270000E+03 0.  1.
    8880022    1    1    2    0    0  0.19633092768E+03 -0.51577953099E+03 -0.15835576104E+04  0.16839301399E+04  0.15294330000E+03 0.  0.
<mgrwt>
<rscale>  0 0.77639831E+03</rscale>
<asrwt>0</asrwt>
<pdfrwt beam="1">  1        2 0.30711102E+00 0.85929306E+03</pdfrwt>
<pdfrwt beam="2">  1       -2 0.86068955E-01 0.85929306E+03</pdfrwt>
<totfact> 0.80131862E+00</totfact>
</mgrwt>
</event>
<event>
 4    1  0.3057048E-007  0.7822786E+03  0.7818608E-02  0.9750511E-01
         -2   -1    0    0    0  501 -0.00000000000E+00  0.00000000000E+00  0.71432257612E+03  0.71432257613E+03  0.25500000000E-02 0.  1.
          2   -1    0    0  501    0  0.00000000000E+00 -0.00000000000E+00 -0.15830013637E+04  0.15830013637E+04  0.25500000000E-02 0. -1.
    8880023    1    1    2    0    0 -0.37021278085E+00  0.42207764966E+03  0.45127775430E+03  0.90311211773E+03  0.65864270000E+03 0.  1.
    8880022    1    1    2    0    0  0.37021278085E+00 -0.42207764966E+03 -0.13199565419E+04  0.13942118221E+04  0.15294330000E+03 0.  0.
<mgrwt>
<rscale>  0 0.68087380E+03</rscale>
<asrwt>0</asrwt>
<pdfrwt beam="1">  1        2 0.24353867E+00 0.78227865E+03</pdfrwt>
<pdfrwt beam="2">  1       -2 0.10989578E+00 0.78227865E+03</pdfrwt>
<totfact> 0.76709477E+00</totfact>
</mgrwt>
</event>
<event>
 4    1  0.3057048E-007  0.6599491E+03  0.7818608E-02  0.1024209E+00
         -2   -1    0    0    0  501 -0.00000000000E+00  0.00000000000E+00  0.23160057483E+03  0.23160057484E+03  0.25500000000E-02 0.  1.
          2   -1    0    0  501    0  0.00000000000E+00 -0.00000000000E+00 -0.12087721727E+04  0.12087721727E+04  0.25500000000E-02 0. -1.
    8880023    1    1    2    0    0  0.36530084678E+02  0.19700702443E+02 -0.26563746181E+03  0.71140426773E+03  0.65864270000E+03 0.  1.
    8880022    1    1    2    0    0 -0.36530084678E+02 -0.19700702443E+02 -0.71153413607E+03  0.72896847982E+03  0.15294330000E+03 0.  0.
<mgrwt>
<rscale>  0 0.46197957E+03</rscale>
<asrwt>0</asrwt>
<pdfrwt beam="1">  1        2 0.18596495E+00 0.65994907E+03</pdfrwt>
<pdfrwt beam="2">  1       -2 0.35630858E-01 0.65994907E+03</pdfrwt>
<totfact> 0.14137497E+02</totfact>
</mgrwt>
</event>
<event>
 4    1  0.3057048E-007  0.8471001E+03  0.7818608E-02  0.9616935E-01
         -2   -1    0    0    0  501 -0.00000000000E+00  0.00000000000E+00  0.27951010267E+03  0.27951010268E+03  0.25500000000E-02 0.  1.
          2   -1    0    0  501    0  0.00000000000E+00 -0.00000000000E+00 -0.25944432516E+04  0.25944432516E+04  0.25500000000E-02 0. -1.
    8880023    1    1    2    0    0  0.39857389593E+03  0.35342227242E+03 -0.51669406425E+03  0.99224564270E+03  0.65864270000E+03 0.  0.
    8880022    1    1    2    0    0 -0.39857389593E+03 -0.35342227242E+03 -0.17982390847E+04  0.18817077116E+04  0.15294330000E+03 0.  0.
<mgrwt>
<rscale>  0 0.76185385E+03</rscale>
<asrwt>0</asrwt>
<pdfrwt beam="1">  1        2 0.39914510E+00 0.84710015E+03</pdfrwt>
<pdfrwt beam="2">  1       -2 0.43001556E-01 0.84710015E+03</pdfrwt>
<totfact> 0.16256637E+01</totfact>
</mgrwt>
</event>
<event>
 4    1  0.3057048E-007  0.6965588E+03  0.7818608E-02  0.1001179E+00
         -2   -1    0    0    0  501 -0.00000000000E+00  0.00000000000E+00  0.47626029353E+03  0.47626029353E+03  0.25500000000E-02 0.  1.
          2   -1    0    0  501    0  0.00000000000E+00 -0.00000000000E+00 -0.99589964698E+03  0.99589964699E+03  0.25500000000E-02 0. -1.
    8880023    1    1    2    0    0  0.72577109299E+01 -0.22656403393E+03  0.18130241723E+03  0.71976712108E+03  0.65864270000E+03 0.  1.
    8880022    1    1    2    0    0 -0.72577109299E+01  0.22656403393E+03 -0.70094177068E+03  0.75239281944E+03  0.15294330000E+03 0.  0.
<mgrwt>
<rscale>  0 0.55136388E+03</rscale>
<asrwt>0</asrwt>
<pdfrwt beam="1">  1        2 0.15321533E+00 0.69655879E+03</pdfrwt>
<pdfrwt beam="2">  1       -2 0.73270815E-01 0.69655879E+03</pdfrwt>
<totfact> 0.43493679E+01</totfact>
</mgrwt>
</event>
<event>
 4    1  0.3057048E-007  0.7546027E+03  0.7818608E-02  0.9819286E-01
          2   -1    0    0  501    0  0.00000000000E+00  0.00000000000E+00  0.98323901716E+03  0.98323901716E+03  0.25500000000E-02 0. -1.
         -2   -1    0    0    0  501 -0.00000000000E+00 -0.00000000000E+00 -0.88242670128E+03  0.88242670128E+03  0.25500000000E-02 0.  1.
    8880023    1    1    2    0    0  0.11242434357E+03  0.35067914860E+03 -0.66270445696E+03  0.10042920401E+04  0.65864270000E+03 0.  1.
    8880022    1    1    2    0    0 -0.11242434357E+03 -0.35067914860E+03  0.76351677284E+03  0.86137367833E+03  0.15294330000E+03 0.  0.
<mgrwt>
<rscale>  0 0.64337730E+03</rscale>
<asrwt>0</asrwt>
<pdfrwt beam="1">  1        2 0.15126754E+00 0.75460275E+03</pdfrwt>
<pdfrwt beam="2">  1       -2 0.13575795E+00 0.75460275E+03</pdfrwt>
<totfact> 0.10211926E+01</totfact>
</mgrwt>
</event>
<event>
 4    1  0.3057048E-007  0.8048373E+03  0.7818608E-02  0.9700433E-01
         -2   -1    0    0    0  501 -0.00000000000E+00  0.00000000000E+00  0.13100143309E+04  0.13100143309E+04  0.25500000000E-02 0.  1.
          2   -1    0    0  501    0  0.00000000000E+00 -0.00000000000E+00 -0.43621343086E+03  0.43621343086E+03  0.25500000000E-02 0. -1.
    8880023    1    1    2    0    0  0.23641306316E+03  0.39756971764E+03  0.72037747998E+02  0.80805473838E+03  0.65864270000E+03 0. -1.
    8880022    1    1    2    0    0 -0.23641306316E+03 -0.39756971764E+03  0.80176315200E+03  0.93817302335E+03  0.15294330000E+03 0.  0.
<mgrwt>
<rscale>  0 0.70991025E+03</rscale>
<asrwt>0</asrwt>
<pdfrwt beam="1">  1        2 0.67109760E-01 0.80483726E+03</pdfrwt>
<pdfrwt beam="2">  1       -2 0.20154066E+00 0.80483726E+03</pdfrwt>
<totfact> 0.94904716E+00</totfact>
</mgrwt>
</event>
<event>
 4    1  0.3057048E-007  0.6648218E+03  0.7818608E-02  0.1019683E+00
          2   -1    0    0  501    0  0.00000000000E+00  0.00000000000E+00  0.88021064482E+03  0.88021064483E+03  0.25500000000E-02 0. -1.
         -2   -1    0    0    0  501 -0.00000000000E+00 -0.00000000000E+00 -0.31233312111E+03  0.31233312112E+03  0.25500000000E-02 0.  1.
    8880023    1    1    2    0    0  0.41032460328E+02  0.80586479520E+02  0.75507677223E+02  0.66909600138E+03  0.65864270000E+03 0.  1.
    8880022    1    1    2    0    0 -0.41032460328E+02 -0.80586479520E+02  0.49236984649E+03  0.52344776457E+03  0.15294330000E+03 0.  0.
<mgrwt>
<rscale>  0 0.47801046E+03</rscale>
<asrwt>0</asrwt>
<pdfrwt beam="1">  1        2 0.13541702E+00 0.66482182E+03</pdfrwt>
<pdfrwt beam="2">  1       -2 0.48051250E-01 0.66482182E+03</pdfrwt>
<totfact> 0.12631893E+02</totfact>
</mgrwt>
</event>
<event>
 4    1  0.3057048E-007  0.8410791E+03  0.7818608E-02  0.9628149E-01
          2   -1    0    0  501    0  0.00000000000E+00  0.00000000000E+00  0.27884051726E+04  0.27884051726E+04  0.25500000000E-02 0. -1.
         -2   -1    0    0    0  501 -0.00000000000E+00 -0.00000000000E+00 -0.19377408568E+03  0.19377408570E+03  0.25500000000E-02 0.  1.
    8880023    1    1    2    0    0  0.15415704040E+03 -0.49983948505E+03  0.10568269510E+04  0.13506655080E+04  0.65864270000E+03 0.  0.
    8880022    1    1    2    0    0 -0.15415704040E+03  0.49983948505E+03  0.15378041359E+04  0.16315137503E+04  0.15294330000E+03 0.  0.
<mgrwt>
<rscale>  0 0.75460797E+03</rscale>
<asrwt>0</asrwt>
<pdfrwt beam="1">  1        2 0.42898542E+00 0.84107913E+03</pdfrwt>
<pdfrwt beam="2">  1       -2 0.29811397E-01 0.84107913E+03</pdfrwt>
<totfact> 0.25301676E+01</totfact>
</mgrwt>
</event>
<event>
 4    1  0.3057048E-007  0.1173040E+04  0.7818608E-02  0.9183785E-01
         -2   -1    0    0    0  501 -0.00000000000E+00  0.00000000000E+00  0.10991755440E+04  0.10991755440E+04  0.25500000000E-02 0.  1.
          2   -1    0    0  501    0  0.00000000000E+00 -0.00000000000E+00 -0.17697812536E+04  0.17697812536E+04  0.25500000000E-02 0. -1.
    8880023    1    1    2    0    0 -0.72827238397E+03  0.64174219939E+03  0.55529100920E+03  0.12978335898E+04  0.65864270000E+03 0.  0.
    8880022    1    1    2    0    0  0.72827238397E+03 -0.64174219939E+03 -0.12258967188E+04  0.15711232078E+04  0.15294330000E+03 0.  0.
<mgrwt>
<rscale>  0 0.11222373E+04</rscale>
<asrwt>0</asrwt>
<pdfrwt beam="1">  1        2 0.27227404E+00 0.11730405E+04</pdfrwt>
<pdfrwt beam="2">  1       -2 0.16910393E+00 0.11730405E+04</pdfrwt>
<totfact> 0.18895526E+00</totfact>
</mgrwt>
</event>
<event>
 4    1  0.3057048E-007  0.1070596E+04  0.7818608E-02  0.9294522E-01
         -2   -1    0    0    0  501 -0.00000000000E+00  0.00000000000E+00  0.60536631198E+03  0.60536631199E+03  0.25500000000E-02 0.  1.
          2   -1    0    0  501    0  0.00000000000E+00 -0.00000000000E+00 -0.20119882077E+04  0.20119882077E+04  0.25500000000E-02 0. -1.
    8880023    1    1    2    0    0 -0.67432264966E+03 -0.50759736150E+03 -0.12877601827E+03  0.10783133062E+04  0.65864270000E+03 0.  0.
    8880022    1    1    2    0    0  0.67432264966E+03  0.50759736150E+03 -0.12778458775E+04  0.15390412135E+04  0.15294330000E+03 0.  0.
<mgrwt>
<rscale>  0 0.10128873E+04</rscale>
<asrwt>0</asrwt>
<pdfrwt beam="1">  1        2 0.30953665E+00 0.10705962E+04</pdfrwt>
<pdfrwt beam="2">  1       -2 0.93133279E-01 0.10705962E+04</pdfrwt>
<totfact> 0.63787988E+00</totfact>
</mgrwt>
</event>
<event>
 4    1  0.3057048E-007  0.6663180E+03  0.7818608E-02  0.1018452E+00
         -2   -1    0    0    0  501 -0.00000000000E+00  0.00000000000E+00  0.15228248038E+04  0.15228248038E+04  0.25500000000E-02 0.  1.
          2   -1    0    0  501    0  0.00000000000E+00 -0.00000000000E+00 -0.46301338845E+03  0.46301338845E+03  0.25500000000E-02 0. -1.
    8880023    1    1    2    0    0 -0.11671430225E+01 -0.10083721143E+03  0.14273258108E+04  0.15751948076E+04  0.65864270000E+03 0.  1.
    8880022    1    1    2    0    0  0.11671430225E+01  0.10083721143E+03 -0.36751439549E+03  0.41064338462E+03  0.15294330000E+03 0.  0.
<mgrwt>
<rscale>  0 0.48249275E+03</rscale>
<asrwt>0</asrwt>
<pdfrwt beam="1">  1        2 0.71232829E-01 0.66631803E+03</pdfrwt>
<pdfrwt beam="2">  1       -2 0.23428074E+00 0.66631803E+03</pdfrwt>
<totfact> 0.56098703E+00</totfact>
</mgrwt>
</event>
<event>
 4    1  0.3057048E-007  0.6812804E+03  0.7818608E-02  0.1008608E+00
          2   -1    0    0  501    0  0.00000000000E+00  0.00000000000E+00  0.67646284091E+03  0.67646284091E+03  0.25500000000E-02 0. -1.
         -2   -1    0    0    0  501 -0.00000000000E+00 -0.00000000000E+00 -0.32272792297E+03  0.32272792298E+03  0.25500000000E-02 0.  1.
    8880023    1    1    2    0    0  0.14417773557E+03  0.97701476000E+02  0.16676198527E+03  0.70139330182E+03  0.65864270000E+03 0. -1.
    8880022    1    1    2    0    0 -0.14417773557E+03 -0.97701476000E+02  0.18697293267E+03  0.29779746207E+03  0.15294330000E+03 0.  0.
<mgrwt>
<rscale>  0 0.52031450E+03</rscale>
<asrwt>0</asrwt>
<pdfrwt beam="1">  1        2 0.10407121E+00 0.68128042E+03</pdfrwt>
<pdfrwt beam="2">  1       -2 0.49650450E-01 0.68128042E+03</pdfrwt>
<totfact> 0.16651242E+02</totfact>
</mgrwt>
</event>
<event>
 4    1  0.3057048E-007  0.6780142E+03  0.7818608E-02  0.1010470E+00
         -2   -1    0    0    0  501 -0.00000000000E+00  0.00000000000E+00  0.53323130148E+03  0.53323130149E+03  0.25500000000E-02 0.  1.
          2   -1    0    0  501    0  0.00000000000E+00 -0.00000000000E+00 -0.21668169700E+04  0.21668169700E+04  0.25500000000E-02 0. -1.
    8880023    1    1    2    0    0  0.16078447963E+03 -0.64335424425E+01  0.30879515406E+03  0.74502194115E+03  0.65864270000E+03 0.  1.
    8880022    1    1    2    0    0 -0.16078447963E+03  0.64335424425E+01 -0.19423808226E+04  0.19550263303E+04  0.15294330000E+03 0.  0.
<mgrwt>
<rscale>  0 0.51288275E+03</rscale>
<asrwt>0</asrwt>
<pdfrwt beam="1">  1        2 0.33335645E+00 0.67801419E+03</pdfrwt>
<pdfrwt beam="2">  1       -2 0.82035586E-01 0.67801419E+03</pdfrwt>
<totfact> 0.74128569E+00</totfact>
</mgrwt>
</event>
<event>
 4    1  0.3057048E-007  0.6887471E+03  0.7818608E-02  0.1004754E+00
         -2   -1    0    0    0  501 -0.00000000000E+00  0.00000000000E+00  0.14347934195E+03  0.14347934197E+03  0.25500000000E-02 0.  1.
          2   -1    0    0  501    0  0.00000000000E+00 -0.00000000000E+00 -0.16165649692E+04  0.16165649692E+04  0.25500000000E-02 0. -1.
    8880023    1    1    2    0    0 -0.15505697117E+03  0.12852889973E+03 -0.89720824306E+03  0.11310858412E+04  0.65864270000E+03 0.  0.
    8880022    1    1    2    0    0  0.15505697117E+03 -0.12852889973E+03 -0.57587738418E+03  0.62895847001E+03  0.15294330000E+03 0.  1.
<mgrwt>
<rscale>  0 0.53614010E+03</rscale>
<asrwt>0</asrwt>
<pdfrwt beam="1">  1        2 0.24870229E+00 0.68874709E+03</pdfrwt>
<pdfrwt beam="2">  1       -2 0.22073746E-01 0.68874709E+03</pdfrwt>
<totfact> 0.19990866E+02</totfact>
</mgrwt>
</event>
<event>
 4    1  0.3057048E-007  0.7047214E+03  0.7818608E-02  0.9978151E-01
         -2   -1    0    0    0  501 -0.00000000000E+00  0.00000000000E+00  0.48985435478E+03  0.48985435479E+03  0.25500000000E-02 0.  1.
          2   -1    0    0  501    0  0.00000000000E+00 -0.00000000000E+00 -0.22100909209E+04  0.22100909209E+04  0.25500000000E-02 0. -1.
    8880023    1    1    2    0    0 -0.19461393656E+03 -0.15794777619E+03  0.21949793322E+03  0.73811356393E+03  0.65864270000E+03 0.  0.
    8880022    1    1    2    0    0  0.19461393656E+03  0.15794777619E+03 -0.19397344994E+04  0.19618317118E+04  0.15294330000E+03 0.  0.
<mgrwt>
<rscale>  0 0.56618736E+03</rscale>
<asrwt>0</asrwt>
<pdfrwt beam="1">  1        2 0.34001398E+00 0.70472143E+03</pdfrwt>
<pdfrwt beam="2">  1       -2 0.75362210E-01 0.70472143E+03</pdfrwt>
<totfact> 0.84449016E+00</totfact>
</mgrwt>
</event>
<event>
 4    1  0.3057048E-007  0.9629529E+03  0.7818608E-02  0.9431718E-01
          2   -1    0    0  501    0  0.00000000000E+00  0.00000000000E+00  0.93666814443E+03  0.93666814443E+03  0.25500000000E-02 0. -1.
         -2   -1    0    0    0  501 -0.00000000000E+00 -0.00000000000E+00 -0.10214116998E+04  0.10214116998E+04  0.25500000000E-02 0.  1.
    8880023    1    1    2    0    0  0.69809934550E+03  0.78265297349E+02 -0.54302043535E+03  0.11055087301E+04  0.65864270000E+03 0.  1.
    8880022    1    1    2    0    0 -0.69809934550E+03 -0.78265297349E+02  0.45827687993E+03  0.85257111413E+03  0.15294330000E+03 0.  0.
<mgrwt>
<rscale>  0 0.89510790E+03</rscale>
<asrwt>0</asrwt>
<pdfrwt beam="1">  1        2 0.14410279E+00 0.96295294E+03</pdfrwt>
<pdfrwt beam="2">  1       -2 0.15714026E+00 0.96295294E+03</pdfrwt>
<totfact> 0.72915019E+00</totfact>
</mgrwt>
</event>
<event>
 4    1  0.3057048E-007  0.7117398E+03  0.7818608E-02  0.9951596E-01
          2   -1    0    0  501    0  0.00000000000E+00  0.00000000000E+00  0.13304383573E+04  0.13304383573E+04  0.25500000000E-02 0. -1.
         -2   -1    0    0    0  501 -0.00000000000E+00 -0.00000000000E+00 -0.85569328128E+03  0.85569328129E+03  0.25500000000E-02 0.  1.
    8880023    1    1    2    0    0  0.25809072824E+03 -0.78438229469E+02 -0.68368707414E+03  0.98691519466E+03  0.65864270000E+03 0.  1.
    8880022    1    1    2    0    0 -0.25809072824E+03  0.78438229469E+02  0.11584321502E+04  0.11992164439E+04  0.15294330000E+03 0.  0.
<mgrwt>
<rscale>  0 0.57824576E+03</rscale>
<asrwt>0</asrwt>
<pdfrwt beam="1">  1        2 0.20468282E+00 0.71173983E+03</pdfrwt>
<pdfrwt beam="2">  1       -2 0.13164512E+00 0.71173983E+03</pdfrwt>
<totfact> 0.68627532E+00</totfact>
</mgrwt>
</event>
<event>
 4    1  0.3057048E-007  0.6852167E+03  0.7818608E-02  0.1006514E+00
         -2   -1    0    0    0  501 -0.00000000000E+00  0.00000000000E+00  0.38892286020E+03  0.38892286021E+03  0.25500000000E-02 0.  1.
          2   -1    0    0  501    0  0.00000000000E+00 -0.00000000000E+00 -0.57024083128E+03  0.57024083129E+03  0.25500000000E-02 0. -1.
    8880023    1    1    2    0    0 -0.65793970672E+02 -0.17715206013E+03 -0.61052822502E+02  0.68793121196E+03  0.65864270000E+03 0.  1.
    8880022    1    1    2    0    0  0.65793970672E+02  0.17715206013E+03 -0.12026514857E+03  0.27123247954E+03  0.15294330000E+03 0.  1.
<mgrwt>
<rscale>  0 0.52883776E+03</rscale>
<asrwt>0</asrwt>
<pdfrwt beam="1">  1        2 0.87729358E-01 0.68521668E+03</pdfrwt>
<pdfrwt beam="2">  1       -2 0.59834286E-01 0.68521668E+03</pdfrwt>
<totfact> 0.13929775E+02</totfact>
</mgrwt>
</event>
<event>
 4    1  0.3057048E-007  0.7492962E+03  0.7818608E-02  0.9833651E-01
          2   -1    0    0  501    0  0.00000000000E+00  0.00000000000E+00  0.23141531377E+04  0.23141531377E+04  0.25500000000E-02 0. -1.
         -2   -1    0    0    0  501 -0.00000000000E+00 -0.00000000000E+00 -0.45141279010E+03  0.45141279011E+03  0.25500000000E-02 0.  1.
    8880023    1    1    2    0    0  0.31132384346E+02  0.35590081637E+03 -0.10785258757E+03  0.75701849605E+03  0.65864270000E+03 0.  1.
    8880022    1    1    2    0    0 -0.31132384346E+02 -0.35590081637E+03  0.19705929351E+04  0.20085474317E+04  0.15294330000E+03 0.  0.
<mgrwt>
<rscale>  0 0.63587495E+03</rscale>
<asrwt>0</asrwt>
<pdfrwt beam="1">  1        2 0.35602355E+00 0.74929622E+03</pdfrwt>
<pdfrwt beam="2">  1       -2 0.69448123E-01 0.74929622E+03</pdfrwt>
<totfact> 0.87859986E+00</totfact>
</mgrwt>
</event>
<event>
 4    1  0.3057048E-007  0.6617513E+03  0.7818608E-02  0.1022430E+00
         -2   -1    0    0    0  501 -0.00000000000E+00  0.00000000000E+00  0.15682320635E+03  0.15682320637E+03  0.25500000000E-02 0.  1.
          2   -1    0    0  501    0  0.00000000000E+00 -0.00000000000E+00 -0.14959979776E+04  0.14959979776E+04  0.25500000000E-02 0. -1.
    8880023    1    1    2    0    0  0.58170401216E+02  0.26848399046E+02 -0.59342256389E+03  0.88885610630E+03  0.65864270000E+03 0.  1.
    8880022    1    1    2    0    0 -0.58170401216E+02 -0.26848399046E+02 -0.74575220736E+03  0.76396507768E+03  0.15294330000E+03 0.  0.
<mgrwt>
<rscale>  0 0.46819889E+03</rscale>
<asrwt>0</asrwt>
<pdfrwt beam="1">  1        2 0.23015353E+00 0.66175134E+03</pdfrwt>
<pdfrwt beam="2">  1       -2 0.24126648E-01 0.66175134E+03</pdfrwt>
<totfact> 0.19932204E+02</totfact>
</mgrwt>
</event>
<event>
 4    1  0.3057048E-007  0.7762529E+03  0.7818608E-02  0.9764714E-01
         -2   -1    0    0    0  501 -0.00000000000E+00  0.00000000000E+00  0.14007400224E+04  0.14007400224E+04  0.25500000000E-02 0.  1.
          2   -1    0    0  501    0  0.00000000000E+00 -0.00000000000E+00 -0.47814027677E+03  0.47814027677E+03  0.25500000000E-02 0. -1.
    8880023    1    1    2    0    0 -0.34539743081E+03  0.22239373170E+03  0.11481277001E+04  0.13859169452E+04  0.65864270000E+03 0.  0.
    8880022    1    1    2    0    0  0.34539743081E+03 -0.22239373170E+03 -0.22552795443E+03  0.49296335397E+03  0.15294330000E+03 0.  0.
<mgrwt>
<rscale>  0 0.67291077E+03</rscale>
<asrwt>0</asrwt>
<pdfrwt beam="1">  1        2 0.73560042E-01 0.77625290E+03</pdfrwt>
<pdfrwt beam="2">  1       -2 0.21549847E+00 0.77625290E+03</pdfrwt>
<totfact> 0.69762516E+00</totfact>
</mgrwt>
</event>
<event>
 4    1  0.3057048E-007  0.7791297E+03  0.7818608E-02  0.9757885E-01
          2   -1    0    0  501    0  0.00000000000E+00  0.00000000000E+00  0.14796967774E+04  0.14796967774E+04  0.25500000000E-02 0. -1.
         -2   -1    0    0    0  501 -0.00000000000E+00 -0.00000000000E+00 -0.79971238134E+03  0.79971238135E+03  0.25500000000E-02 0.  1.
    8880023    1    1    2    0    0 -0.10849046959E+03 -0.40182414030E+03 -0.56198088056E+03  0.96065890830E+03  0.65864270000E+03 0.  1.
    8880022    1    1    2    0    0  0.10849046959E+03  0.40182414030E+03  0.12419652766E+04  0.13187502504E+04  0.15294330000E+03 0.  0.
<mgrwt>
<rscale>  0 0.67672466E+03</rscale>
<asrwt>0</asrwt>
<pdfrwt beam="1">  1        2 0.22764566E+00 0.77912966E+03</pdfrwt>
<pdfrwt beam="2">  1       -2 0.12303268E+00 0.77912966E+03</pdfrwt>
<totfact> 0.66372913E+00</totfact>
</mgrwt>
</event>
<event>
 4    1  0.3057048E-007  0.7546613E+03  0.7818608E-02  0.9819130E-01
          2   -1    0    0  501    0  0.00000000000E+00  0.00000000000E+00  0.80953119837E+03  0.80953119837E+03  0.25500000000E-02 0. -1.
         -2   -1    0    0    0  501 -0.00000000000E+00 -0.00000000000E+00 -0.52036273506E+03  0.52036273506E+03  0.25500000000E-02 0.  1.
    8880023    1    1    2    0    0  0.34838118243E+03  0.11972463882E+03 -0.11346222321E+03  0.76314305328E+03  0.65864270000E+03 0.  1.
    8880022    1    1    2    0    0 -0.34838118243E+03 -0.11972463882E+03  0.40263068653E+03  0.56675088016E+03  0.15294330000E+03 0.  0.
<mgrwt>
<rscale>  0 0.64345940E+03</rscale>
<asrwt>0</asrwt>
<pdfrwt beam="1">  1        2 0.12454326E+00 0.75466128E+03</pdfrwt>
<pdfrwt beam="2">  1       -2 0.80055806E-01 0.75466128E+03</pdfrwt>
<totfact> 0.47421375E+01</totfact>
</mgrwt>
</event>
<event>
 4    1  0.3057048E-007  0.7513883E+03  0.7818608E-02  0.9827935E-01
         -2   -1    0    0    0  501 -0.00000000000E+00  0.00000000000E+00  0.37864300923E+03  0.37864300924E+03  0.25500000000E-02 0.  1.
          2   -1    0    0  501    0  0.00000000000E+00 -0.00000000000E+00 -0.14980642392E+04  0.14980642392E+04  0.25500000000E-02 0. -1.
    8880023    1    1    2    0    0  0.35931616288E+03  0.40818155127E+02 -0.68111261164E+02  0.75446906951E+03  0.65864270000E+03 0.  1.
    8880022    1    1    2    0    0 -0.35931616288E+03 -0.40818155127E+02 -0.10513099688E+04  0.11222381789E+04  0.15294330000E+03 0.  0.
<mgrwt>
<rscale>  0 0.63884702E+03</rscale>
<asrwt>0</asrwt>
<pdfrwt beam="1">  1        2 0.23047142E+00 0.75138834E+03</pdfrwt>
<pdfrwt beam="2">  1       -2 0.58252771E-01 0.75138834E+03</pdfrwt>
<totfact> 0.35874619E+01</totfact>
</mgrwt>
</event>
<event>
 4    1  0.3057048E-007  0.7235878E+03  0.7818608E-02  0.9910628E-01
         -2   -1    0    0    0  501 -0.00000000000E+00  0.00000000000E+00  0.12358529398E+04  0.12358529398E+04  0.25500000000E-02 0.  1.
          2   -1    0    0  501    0  0.00000000000E+00 -0.00000000000E+00 -0.27939465458E+03  0.27939465459E+03  0.25500000000E-02 0. -1.
    8880023    1    1    2    0    0 -0.28551699221E+03  0.90824458797E+02  0.92926377529E+03  0.11777565137E+04  0.65864270000E+03 0.  1.
    8880022    1    1    2    0    0  0.28551699221E+03 -0.90824458797E+02  0.27194509893E+02  0.33749108068E+03  0.15294330000E+03 0. -1.
<mgrwt>
<rscale>  0 0.59748961E+03</rscale>
<asrwt>0</asrwt>
<pdfrwt beam="1">  1        2 0.42983794E-01 0.72358776E+03</pdfrwt>
<pdfrwt beam="2">  1       -2 0.19013122E+00 0.72358776E+03</pdfrwt>
<totfact> 0.18717627E+01</totfact>
</mgrwt>
</event>
<event>
 4    1  0.3057048E-007  0.7293083E+03  0.7818608E-02  0.9892263E-01
          2   -1    0    0  501    0  0.00000000000E+00  0.00000000000E+00  0.65913706438E+03  0.65913706439E+03  0.25500000000E-02 0. -1.
         -2   -1    0    0    0  501 -0.00000000000E+00 -0.00000000000E+00 -0.12311652448E+04  0.12311652449E+04  0.25500000000E-02 0.  1.
    8880023    1    1    2    0    0  0.21861225935E+03  0.22425214097E+03 -0.10624329974E+04  0.12886638130E+04  0.65864270000E+03 0.  0.
    8880022    1    1    2    0    0 -0.21861225935E+03 -0.22425214097E+03  0.49040481694E+03  0.60163849625E+03  0.15294330000E+03 0.  0.
<mgrwt>
<rscale>  0 0.60637721E+03</rscale>
<asrwt>0</asrwt>
<pdfrwt beam="1">  1        2 0.10140570E+00 0.72930827E+03</pdfrwt>
<pdfrwt beam="2">  1       -2 0.18941004E+00 0.72930827E+03</pdfrwt>
<totfact> 0.70614477E+00</totfact>
</mgrwt>
</event>
<event>
 4    1  0.3708226E-007  0.8334621E+03  0.7818608E-02  0.9642633E-01
          2   -1    0    0  501    0  0.00000000000E+00  0.00000000000E+00  0.16778611657E+04  0.16778611657E+04  0.25500000000E-02 0. -1.
         -2   -1    0    0    0  501 -0.00000000000E+00 -0.00000000000E+00 -0.10810676258E+04  0.10810676258E+04  0.25500000000E-02 0.  1.
    8880023    1    1    2    0    0  0.49267920295E+03 -0.13459584746E+03 -0.86605157202E+03  0.12019585562E+04  0.65864270000E+03 0.  1.
    8880022    1    1    2    0    0 -0.49267920295E+03  0.13459584746E+03  0.14628451119E+04  0.15569702353E+04  0.15294330000E+03 0.  0.
<mgrwt>
<rscale>  0 0.74537553E+03</rscale>
<asrwt>0</asrwt>
<pdfrwt beam="1">  1        2 0.25813249E+00 0.83346208E+03</pdfrwt>
<pdfrwt beam="2">  1       -2 0.16631810E+00 0.83346208E+03</pdfrwt>
<totfact> 0.23254404E+00</totfact>
</mgrwt>
</event>
<event>
 4    1  0.3057048E-007  0.9595854E+03  0.7818608E-02  0.9436455E-01
         -2   -1    0    0    0  501 -0.00000000000E+00  0.00000000000E+00  0.76532388728E+03  0.76532388728E+03  0.25500000000E-02 0.  1.
          2   -1    0    0  501    0  0.00000000000E+00 -0.00000000000E+00 -0.91566489026E+03  0.91566489026E+03  0.25500000000E-02 0. -1.
    8880023    1    1    2    0    0  0.32708539128E+03  0.61644875968E+03 -0.10066381183E+03  0.96485093967E+03  0.65864270000E+03 0.  1.
    8880022    1    1    2    0    0 -0.32708539128E+03 -0.61644875968E+03 -0.49677191152E+02  0.71613783788E+03  0.15294330000E+03 0. -1.
<mgrwt>
<rscale>  0 0.89135360E+03</rscale>
<asrwt>0</asrwt>
<pdfrwt beam="1">  1        2 0.14087152E+00 0.95958540E+03</pdfrwt>
<pdfrwt beam="2">  1       -2 0.11774214E+00 0.95958540E+03</pdfrwt>
<totfact> 0.15866460E+01</totfact>
</mgrwt>
</event>
<event>
 4    1  0.3057048E-007  0.6671834E+03  0.7818608E-02  0.1017768E+00
         -2   -1    0    0    0  501 -0.00000000000E+00  0.00000000000E+00  0.14144985215E+03  0.14144985217E+03  0.25500000000E-02 0.  1.
          2   -1    0    0  501    0  0.00000000000E+00 -0.00000000000E+00 -0.13087742486E+04  0.13087742486E+04  0.25500000000E-02 0. -1.
    8880023    1    1    2    0    0 -0.71716507207E+02  0.78614037726E+02 -0.98381716210E+03  0.11887093165E+04  0.65864270000E+03 0.  1.
    8880022    1    1    2    0    0  0.71716507207E+02 -0.78614037726E+02 -0.18350723431E+03  0.26151478427E+03  0.15294330000E+03 0.  0.
<mgrwt>
<rscale>  0 0.48500774E+03</rscale>
<asrwt>0</asrwt>
<pdfrwt beam="1">  1        2 0.20134988E+00 0.66718336E+03</pdfrwt>
<pdfrwt beam="2">  1       -2 0.21761517E-01 0.66718336E+03</pdfrwt>
<totfact> 0.30514666E+02</totfact>
</mgrwt>
</event>
<event>
 4    1  0.3057048E-007  0.8691020E+03  0.7818608E-02  0.9577573E-01
          2   -1    0    0  501    0  0.00000000000E+00  0.00000000000E+00  0.49101527099E+03  0.49101527100E+03  0.25500000000E-02 0. -1.
         -2   -1    0    0    0  501 -0.00000000000E+00 -0.00000000000E+00 -0.12957269257E+04  0.12957269257E+04  0.25500000000E-02 0.  1.
    8880023    1    1    2    0    0  0.43524483958E+02 -0.56536153634E+03 -0.82607214592E+03  0.11990552298E+04  0.65864270000E+03 0. -1.
    8880022    1    1    2    0    0 -0.43524483958E+02  0.56536153634E+03  0.21360491237E+02  0.58768696691E+03  0.15294330000E+03 0.  0.
<mgrwt>
<rscale>  0 0.78798474E+03</rscale>
<asrwt>0</asrwt>
<pdfrwt beam="1">  1        2 0.75540811E-01 0.86910198E+03</pdfrwt>
<pdfrwt beam="2">  1       -2 0.19934260E+00 0.86910198E+03</pdfrwt>
<totfact> 0.85069731E+00</totfact>
</mgrwt>
</event>
<event>
 4    1  0.3057048E-007  0.7843863E+03  0.7818608E-02  0.9745633E-01
         -2   -1    0    0    0  501 -0.00000000000E+00  0.00000000000E+00  0.58812163318E+03  0.58812163318E+03  0.25500000000E-02 0.  1.
          2   -1    0    0  501    0  0.00000000000E+00 -0.00000000000E+00 -0.81694037545E+03  0.81694037546E+03  0.25500000000E-02 0. -1.
    8880023    1    1    2    0    0 -0.37138443885E+03  0.20862699511E+03  0.16911021228E+03  0.80240893232E+03  0.65864270000E+03 0.  0.
    8880022    1    1    2    0    0  0.37138443885E+03 -0.20862699511E+03 -0.39792895455E+03  0.60265307632E+03  0.15294330000E+03 0.  0.
<mgrwt>
<rscale>  0 0.68363644E+03</rscale>
<asrwt>0</asrwt>
<pdfrwt beam="1">  1        2 0.12568313E+00 0.78438628E+03</pdfrwt>
<pdfrwt beam="2">  1       -2 0.90480251E-01 0.78438628E+03</pdfrwt>
<totfact> 0.35355363E+01</totfact>
</mgrwt>
</event>
<event>
 4    1  0.3057048E-007  0.9142918E+03  0.7818608E-02  0.9503467E-01
         -2   -1    0    0    0  501 -0.00000000000E+00  0.00000000000E+00  0.17051644070E+04  0.17051644070E+04  0.25500000000E-02 0.  1.
          2   -1    0    0  501    0  0.00000000000E+00 -0.00000000000E+00 -0.41380467568E+03  0.41380467568E+03  0.25500000000E-02 0. -1.
    8880023    1    1    2    0    0  0.19061012012E+03  0.60480332319E+03  0.11175462484E+04  0.14438971921E+04  0.65864270000E+03 0.  0.
    8880022    1    1    2    0    0 -0.19061012012E+03 -0.60480332319E+03  0.17381348289E+03  0.67507189061E+03  0.15294330000E+03 0.  1.
<mgrwt>
<rscale>  0 0.84028664E+03</rscale>
<asrwt>0</asrwt>
<pdfrwt beam="1">  1        2 0.63662259E-01 0.91429179E+03</pdfrwt>
<pdfrwt beam="2">  1       -2 0.26233298E+00 0.91429179E+03</pdfrwt>
<totfact> 0.41788407E+00</totfact>
</mgrwt>
</event>
<event>
 4    1  0.3057048E-007  0.7390164E+03  0.7818608E-02  0.9862822E-01
          2   -1    0    0  501    0  0.00000000000E+00  0.00000000000E+00  0.19345433840E+04  0.19345433840E+04  0.25500000000E-02 0. -1.
         -2   -1    0    0    0  501 -0.00000000000E+00 -0.00000000000E+00 -0.28547925707E+03  0.28547925708E+03  0.25500000000E-02 0.  1.
    8880023    1    1    2    0    0 -0.33516228172E+03 -0.11367543123E+01  0.26076575008E+03  0.78367342048E+03  0.65864270000E+03 0.  0.
    8880022    1    1    2    0    0  0.33516228172E+03  0.11367543123E+01  0.13882983768E+04  0.14363492206E+04  0.15294330000E+03 0.  0.
<mgrwt>
<rscale>  0 0.62097444E+03</rscale>
<asrwt>0</asrwt>
<pdfrwt beam="1">  1        2 0.29762207E+00 0.73901641E+03</pdfrwt>
<pdfrwt beam="2">  1       -2 0.43919884E-01 0.73901641E+03</pdfrwt>
<totfact> 0.36850784E+01</totfact>
</mgrwt>
</event>
<event>
 4    1  0.3057048E-007  0.6851372E+03  0.7818608E-02  0.1006555E+00
         -2   -1    0    0    0  501 -0.00000000000E+00  0.00000000000E+00  0.91529693137E+03  0.91529693138E+03  0.25500000000E-02 0.  1.
          2   -1    0    0  501    0  0.00000000000E+00 -0.00000000000E+00 -0.15060914983E+04  0.15060914983E+04  0.25500000000E-02 0. -1.
    8880023    1    1    2    0    0 -0.12308000116E+03 -0.14301766157E+03  0.77484916356E+03  0.10343133813E+04  0.65864270000E+03 0.  0.
    8880022    1    1    2    0    0  0.12308000116E+03  0.14301766157E+03 -0.13656437305E+04  0.13870750484E+04  0.15294330000E+03 0. -1.
<mgrwt>
<rscale>  0 0.52866978E+03</rscale>
<asrwt>0</asrwt>
<pdfrwt beam="1">  1        2 0.23170639E+00 0.68513717E+03</pdfrwt>
<pdfrwt beam="2">  1       -2 0.14081491E+00 0.68513717E+03</pdfrwt>
<totfact> 0.46194756E+00</totfact>
</mgrwt>
</event>
<event>
 4    1  0.3057048E-007  0.6749653E+03  0.7818608E-02  0.1012328E+00
          2   -1    0    0  501    0  0.00000000000E+00  0.00000000000E+00  0.24704685128E+04  0.24704685128E+04  0.25500000000E-02 0. -1.
         -2   -1    0    0    0  501 -0.00000000000E+00 -0.00000000000E+00 -0.23254646431E+03  0.23254646432E+03  0.25500000000E-02 0.  1.
    8880023    1    1    2    0    0  0.13373439712E+02 -0.14693214401E+03  0.27534625780E+03  0.72896753822E+03  0.65864270000E+03 0.  1.
    8880022    1    1    2    0    0 -0.13373439712E+02  0.14693214401E+03  0.19625757907E+04  0.19740474389E+04  0.15294330000E+03 0.  0.
<mgrwt>
<rscale>  0 0.50559734E+03</rscale>
<asrwt>0</asrwt>
<pdfrwt beam="1">  1        2 0.38007206E+00 0.67496527E+03</pdfrwt>
<pdfrwt beam="2">  1       -2 0.35776381E-01 0.67496527E+03</pdfrwt>
<totfact> 0.28064880E+01</totfact>
</mgrwt>
</event>
<event>
 4    1  0.3057048E-007  0.7635573E+03  0.7818608E-02  0.9795983E-01
         -2   -1    0    0    0  501 -0.00000000000E+00  0.00000000000E+00  0.55995569999E+03  0.55995569999E+03  0.25500000000E-02 0.  1.
          2   -1    0    0  501    0  0.00000000000E+00 -0.00000000000E+00 -0.21402548215E+04  0.21402548215E+04  0.25500000000E-02 0. -1.
    8880023    1    1    2    0    0  0.38626527833E+03 -0.29532820361E+01  0.26537284222E+03  0.80835792739E+03  0.65864270000E+03 0.  0.
    8880022    1    1    2    0    0 -0.38626527833E+03  0.29532820361E+01 -0.18456719637E+04  0.18918525941E+04  0.15294330000E+03 0.  0.
<mgrwt>
<rscale>  0 0.65578537E+03</rscale>
<asrwt>0</asrwt>
<pdfrwt beam="1">  1        2 0.32926997E+00 0.76355733E+03</pdfrwt>
<pdfrwt beam="2">  1       -2 0.86147032E-01 0.76355733E+03</pdfrwt>
<totfact> 0.67610564E+00</totfact>
</mgrwt>
</event>
<event>
 4    1  0.3057048E-007  0.6951168E+03  0.7818608E-02  0.1001809E+00
          2   -1    0    0  501    0  0.00000000000E+00  0.00000000000E+00  0.28542468783E+04  0.28542468783E+04  0.25500000000E-02 0. -1.
         -2   -1    0    0    0  501 -0.00000000000E+00 -0.00000000000E+00 -0.35993582738E+03  0.35993582739E+03  0.25500000000E-02 0.  1.
    8880023    1    1    2    0    0  0.22191084241E+03  0.11522060984E+02 -0.10194396213E+02  0.69519156486E+03  0.65864270000E+03 0.  1.
    8880022    1    1    2    0    0 -0.22191084241E+03 -0.11522060984E+02  0.25045054471E+04  0.25189911408E+04  0.15294330000E+03 0.  0.
<mgrwt>
<rscale>  0 0.54863880E+03</rscale>
<asrwt>0</asrwt>
<pdfrwt beam="1">  1        2 0.43911491E+00 0.69511681E+03</pdfrwt>
<pdfrwt beam="2">  1       -2 0.55374742E-01 0.69511681E+03</pdfrwt>
<totfact> 0.70383718E+00</totfact>
</mgrwt>
</event>
<event>
 4    1  0.3057048E-007  0.7488620E+03  0.7818608E-02  0.9834846E-01
         -2   -1    0    0    0  501 -0.00000000000E+00  0.00000000000E+00  0.39729839386E+03  0.39729839387E+03  0.25500000000E-02 0.  1.
          2   -1    0    0  501    0  0.00000000000E+00 -0.00000000000E+00 -0.16484249268E+04  0.16484249268E+04  0.25500000000E-02 0. -1.
    8880023    1    1    2    0    0  0.19693886208E+03  0.29698356729E+03 -0.13731332870E+02  0.74898792407E+03  0.65864270000E+03 0.  1.
    8880022    1    1    2    0    0 -0.19693886208E+03 -0.29698356729E+03 -0.12373952001E+04  0.12967353966E+04  0.15294330000E+03 0.  0.
<mgrwt>
<rscale>  0 0.63525576E+03</rscale>
<asrwt>0</asrwt>
<pdfrwt beam="1">  1        2 0.25360383E+00 0.74886204E+03</pdfrwt>
<pdfrwt beam="2">  1       -2 0.61122831E-01 0.74886204E+03</pdfrwt>
<totfact> 0.26776513E+01</totfact>
</mgrwt>
</event>
<event>
 4    1  0.3057048E-007  0.1249260E+04  0.7818608E-02  0.9110665E-01
          2   -1    0    0  501    0  0.00000000000E+00  0.00000000000E+00  0.13400294793E+04  0.13400294793E+04  0.25500000000E-02 0. -1.
         -2   -1    0    0    0  501 -0.00000000000E+00 -0.00000000000E+00 -0.11627622027E+04  0.11627622027E+04  0.25500000000E-02 0.  1.
    8880023    1    1    2    0    0  0.71186403127E+03  0.78745745750E+03 -0.36434092664E+03  0.13013047927E+04  0.65864270000E+03 0.  0.
    8880022    1    1    2    0    0 -0.71186403127E+03 -0.78745745750E+03  0.54160820319E+03  0.12014868893E+04  0.15294330000E+03 0.  0.
<mgrwt>
<rscale>  0 0.12025072E+04</rscale>
<asrwt>0</asrwt>
<pdfrwt beam="1">  1        2 0.20615838E+00 0.12492597E+04</pdfrwt>
<pdfrwt beam="2">  1       -2 0.17888649E+00 0.12492597E+04</pdfrwt>
<totfact> 0.27943226E+00</totfact>
</mgrwt>
</event>
<event>
 4    1  0.3057048E-007  0.7744780E+03  0.7818608E-02  0.9768972E-01
         -2   -1    0    0    0  501 -0.00000000000E+00  0.00000000000E+00  0.33737172879E+03  0.33737172880E+03  0.25500000000E-02 0.  1.
          2   -1    0    0  501    0  0.00000000000E+00 -0.00000000000E+00 -0.26832247582E+04  0.26832247582E+04  0.25500000000E-02 0. -1.
    8880023    1    1    2    0    0  0.20502920360E+02  0.40692219431E+03 -0.15870597725E+03  0.79057184078E+03  0.65864270000E+03 0.  1.
    8880022    1    1    2    0    0 -0.20502920360E+02 -0.40692219431E+03 -0.21871470521E+04  0.22300246462E+04  0.15294330000E+03 0.  0.
<mgrwt>
<rscale>  0 0.67054615E+03</rscale>
<asrwt>0</asrwt>
<pdfrwt beam="1">  1        2 0.41280380E+00 0.77447805E+03</pdfrwt>
<pdfrwt beam="2">  1       -2 0.51903345E-01 0.77447805E+03</pdfrwt>
<totfact> 0.99955364E+00</totfact>
</mgrwt>
</event>
<event>
 4    1  0.3057048E-007  0.8090557E+03  0.7818608E-02  0.9691547E-01
          2   -1    0    0  501    0  0.00000000000E+00  0.00000000000E+00  0.63584844103E+03  0.63584844104E+03  0.25500000000E-02 0. -1.
         -2   -1    0    0    0  501 -0.00000000000E+00 -0.00000000000E+00 -0.93876568118E+03  0.93876568118E+03  0.25500000000E-02 0.  1.
    8880023    1    1    2    0    0 -0.23778633707E+03  0.40523889628E+03 -0.59166230058E+03  0.10023150150E+04  0.65864270000E+03 0.  1.
    8880022    1    1    2    0    0  0.23778633707E+03 -0.40523889628E+03  0.28874506043E+03  0.57229910719E+03  0.15294330000E+03 0.  0.
<mgrwt>
<rscale>  0 0.71522300E+03</rscale>
<asrwt>0</asrwt>
<pdfrwt beam="1">  1        2 0.97822837E-01 0.80905569E+03</pdfrwt>
<pdfrwt beam="2">  1       -2 0.14442549E+00 0.80905569E+03</pdfrwt>
<totfact> 0.15431821E+01</totfact>
</mgrwt>
</event>
<event>
 4    1  0.3057048E-007  0.8454790E+03  0.7818608E-02  0.9619934E-01
         -2   -1    0    0    0  501 -0.00000000000E+00  0.00000000000E+00  0.73346186796E+03  0.73346186797E+03  0.25500000000E-02 0.  1.
          2   -1    0    0  501    0  0.00000000000E+00 -0.00000000000E+00 -0.14876264694E+04  0.14876264694E+04  0.25500000000E-02 0. -1.
    8880023    1    1    2    0    0  0.39062270491E+03  0.35838319670E+03  0.40487854471E+03  0.93742277309E+03  0.65864270000E+03 0.  0.
    8880022    1    1    2    0    0 -0.39062270491E+03 -0.35838319670E+03 -0.11590431461E+04  0.12836655643E+04  0.15294330000E+03 0.  0.
<mgrwt>
<rscale>  0 0.75990730E+03</rscale>
<asrwt>0</asrwt>
<pdfrwt beam="1">  1        2 0.22886561E+00 0.84547905E+03</pdfrwt>
<pdfrwt beam="2">  1       -2 0.11284029E+00 0.84547905E+03</pdfrwt>
<totfact> 0.80614594E+00</totfact>
</mgrwt>
</event>
<event>
 4    1  0.3057048E-007  0.1085744E+04  0.7818608E-02  0.9277097E-01
         -2   -1    0    0    0  501 -0.00000000000E+00  0.00000000000E+00  0.79932160803E+03  0.79932160803E+03  0.25500000000E-02 0.  1.
          2   -1    0    0  501    0  0.00000000000E+00 -0.00000000000E+00 -0.31538621695E+04  0.31538621695E+04  0.25500000000E-02 0. -1.
    8880023    1    1    2    0    0  0.33373208597E+03 -0.79602321796E+03 -0.27758229665E+04  0.29806095713E+04  0.65864270000E+03 0. -1.
    8880022    1    1    2    0    0 -0.33373208597E+03  0.79602321796E+03  0.42128240508E+03  0.97257420621E+03  0.15294330000E+03 0.  0.
<mgrwt>
<rscale>  0 0.10291900E+04</rscale>
<asrwt>0</asrwt>
<pdfrwt beam="1">  1        2 0.48520956E+00 0.10857441E+04</pdfrwt>
<pdfrwt beam="2">  1       -2 0.12297256E+00 0.10857441E+04</pdfrwt>
<totfact> 0.69924928E-01</totfact>
</mgrwt>
</event>
<event>
 4    1  0.3057048E-007  0.7126972E+03  0.7818608E-02  0.9948118E-01
         -2   -1    0    0    0  501 -0.00000000000E+00  0.00000000000E+00  0.41719178852E+03  0.41719178852E+03  0.25500000000E-02 0.  1.
          2   -1    0    0  501    0  0.00000000000E+00 -0.00000000000E+00 -0.69741146798E+03  0.69741146798E+03  0.25500000000E-02 0. -1.
    8880023    1    1    2    0    0  0.27136556012E+03  0.22086234208E+02 -0.28098651222E+02  0.71325087411E+03  0.65864270000E+03 0.  0.
    8880022    1    1    2    0    0 -0.27136556012E+03 -0.22086234208E+02 -0.25212102824E+03  0.40135238239E+03  0.15294330000E+03 0.  1.
<mgrwt>
<rscale>  0 0.57984883E+03</rscale>
<asrwt>0</asrwt>
<pdfrwt beam="1">  1        2 0.10729407E+00 0.71269718E+03</pdfrwt>
<pdfrwt beam="2">  1       -2 0.64183352E-01 0.71269718E+03</pdfrwt>
<totfact> 0.93680629E+01</totfact>
</mgrwt>
</event>
<event>
 4    1  0.3057048E-007  0.1138885E+04  0.7818608E-02  0.9218950E-01
          2   -1    0    0  501    0  0.00000000000E+00  0.00000000000E+00  0.16138629731E+04  0.16138629731E+04  0.25500000000E-02 0. -1.
         -2   -1    0    0    0  501 -0.00000000000E+00 -0.00000000000E+00 -0.72810068462E+03  0.72810068463E+03  0.25500000000E-02 0.  1.
    8880023    1    1    2    0    0 -0.16480999086E+03  0.91437708614E+03  0.80950107278E+03  0.13972651795E+04  0.65864270000E+03 0. -1.
    8880022    1    1    2    0    0  0.16480999086E+03 -0.91437708614E+03  0.76261215692E+02  0.94469847823E+03  0.15294330000E+03 0.  0.
<mgrwt>
<rscale>  0 0.10859958E+04</rscale>
<asrwt>0</asrwt>
<pdfrwt beam="1">  1        2 0.24828661E+00 0.11388845E+04</pdfrwt>
<pdfrwt beam="2">  1       -2 0.11201549E+00 0.11388845E+04</pdfrwt>
<totfact> 0.67596973E+00</totfact>
</mgrwt>
</event>
<event>
 4    1  0.3057048E-007  0.7844387E+03  0.7818608E-02  0.9745512E-01
          2   -1    0    0  501    0  0.00000000000E+00  0.00000000000E+00  0.59529519247E+03  0.59529519248E+03  0.25500000000E-02 0. -1.
         -2   -1    0    0    0  501 -0.00000000000E+00 -0.00000000000E+00 -0.11234072651E+04  0.11234072651E+04  0.25500000000E-02 0.  1.
    8880023    1    1    2    0    0  0.41496253460E+03 -0.96643877627E+02 -0.85499785386E+03  0.11603299016E+04  0.65864270000E+03 0.  1.
    8880022    1    1    2    0    0 -0.41496253460E+03  0.96643877627E+02  0.32688578127E+03  0.55837255593E+03  0.15294330000E+03 0.  0.
<mgrwt>
<rscale>  0 0.68370508E+03</rscale>
<asrwt>0</asrwt>
<pdfrwt beam="1">  1        2 0.91583876E-01 0.78443875E+03</pdfrwt>
<pdfrwt beam="2">  1       -2 0.17283189E+00 0.78443875E+03</pdfrwt>
<totfact> 0.10320776E+01</totfact>
</mgrwt>
</event>
<event>
 4    1  0.3057048E-007  0.1267111E+04  0.7818608E-02  0.9094495E-01
         -2   -1    0    0    0  501 -0.00000000000E+00  0.00000000000E+00  0.76835651025E+03  0.76835651026E+03  0.25500000000E-02 0.  1.
          2   -1    0    0  501    0  0.00000000000E+00 -0.00000000000E+00 -0.23171981066E+04  0.23171981066E+04  0.25500000000E-02 0. -1.
    8880023    1    1    2    0    0  0.90572386422E+03  0.59281058622E+03 -0.10071631082E+03  0.12711074270E+04  0.65864270000E+03 0.  0.
    8880022    1    1    2    0    0 -0.90572386422E+03 -0.59281058622E+03 -0.14481252856E+04  0.18144471899E+04  0.15294330000E+03 0.  0.
<mgrwt>
<rscale>  0 0.12212059E+04</rscale>
<asrwt>0</asrwt>
<pdfrwt beam="1">  1        2 0.35649201E+00 0.12671110E+04</pdfrwt>
<pdfrwt beam="2">  1       -2 0.11820869E+00 0.12671110E+04</pdfrwt>
<totfact> 0.23740713E+00</totfact>
</mgrwt>
</event>
<event>
 4    1  0.3057048E-007  0.7199307E+03  0.7818608E-02  0.9922821E-01
         -2   -1    0    0    0  501 -0.00000000000E+00  0.00000000000E+00  0.63181213626E+03  0.63181213626E+03  0.25500000000E-02 0.  1.
          2   -1    0    0  501    0  0.00000000000E+00 -0.00000000000E+00 -0.18633121567E+04  0.18633121567E+04  0.25500000000E-02 0. -1.
    8880023    1    1    2    0    0 -0.19806881251E+03  0.21274106542E+03  0.40497198551E+03  0.82601605960E+03  0.65864270000E+03 0.  1.
    8880022    1    1    2    0    0  0.19806881251E+03 -0.21274106542E+03 -0.16364720059E+04  0.16691082333E+04  0.15294330000E+03 0.  0.
<mgrwt>
<rscale>  0 0.59167944E+03</rscale>
<asrwt>0</asrwt>
<pdfrwt beam="1">  1        2 0.28666341E+00 0.71993071E+03</pdfrwt>
<pdfrwt beam="2">  1       -2 0.97201868E-01 0.71993071E+03</pdfrwt>
<totfact> 0.72912727E+00</totfact>
</mgrwt>
</event>
<event>
 4    1  0.3057048E-007  0.1245842E+04  0.7818608E-02  0.9113800E-01
          2   -1    0    0  501    0  0.00000000000E+00  0.00000000000E+00  0.76123922102E+03  0.76123922103E+03  0.25500000000E-02 0. -1.
         -2   -1    0    0    0  501 -0.00000000000E+00 -0.00000000000E+00 -0.24976892304E+04  0.24976892304E+04  0.25500000000E-02 0.  1.
    8880023    1    1    2    0    0  0.10471570075E+04 -0.14755891530E+03 -0.30787741740E+02  0.12462221002E+04  0.65864270000E+03 0.  0.
    8880022    1    1    2    0    0 -0.10471570075E+04  0.14755891530E+03 -0.17056622676E+04  0.20127063512E+04  0.15294330000E+03 0.  0.
<mgrwt>
<rscale>  0 0.11989230E+04</rscale>
<asrwt>0</asrwt>
<pdfrwt beam="1">  1        2 0.11711373E+00 0.12458417E+04</pdfrwt>
<pdfrwt beam="2">  1       -2 0.38425988E+00 0.12458417E+04</pdfrwt>
<totfact> 0.33959110E-01</totfact>
</mgrwt>
</event>
<event>
 4    1  0.3057048E-007  0.7669203E+03  0.7818608E-02  0.9787510E-01
         -2   -1    0    0    0  501 -0.00000000000E+00  0.00000000000E+00  0.76954373041E+03  0.76954373041E+03  0.25500000000E-02 0.  1.
          2   -1    0    0  501    0  0.00000000000E+00 -0.00000000000E+00 -0.92376465831E+03  0.92376465831E+03  0.25500000000E-02 0. -1.
    8880023    1    1    2    0    0  0.96299033226E+02  0.38089773299E+03  0.49963387724E+03  0.91531459310E+03  0.65864270000E+03 0.  1.
    8880022    1    1    2    0    0 -0.96299033226E+02 -0.38089773299E+03 -0.65385480514E+03  0.77799379562E+03  0.15294330000E+03 0.  0.
<mgrwt>
<rscale>  0 0.66037155E+03</rscale>
<asrwt>0</asrwt>
<pdfrwt beam="1">  1        2 0.14211764E+00 0.76692033E+03</pdfrwt>
<pdfrwt beam="2">  1       -2 0.11839134E+00 0.76692033E+03</pdfrwt>
<totfact> 0.15737698E+01</totfact>
</mgrwt>
</event>
<event>
 4    1  0.3057048E-007  0.7557469E+03  0.7818608E-02  0.9816245E-01
         -2   -1    0    0    0  501 -0.00000000000E+00  0.00000000000E+00  0.16620807703E+03  0.16620807705E+03  0.25500000000E-02 0.  1.
          2   -1    0    0  501    0  0.00000000000E+00 -0.00000000000E+00 -0.20331939009E+04  0.20331939009E+04  0.25500000000E-02 0. -1.
    8880023    1    1    2    0    0 -0.12361798930E+03 -0.34937329357E+03 -0.13229693814E+04  0.15236145496E+04  0.65864270000E+03 0. -1.
    8880022    1    1    2    0    0  0.12361798930E+03  0.34937329357E+03 -0.54401644246E+03  0.67578742828E+03  0.15294330000E+03 0.  1.
<mgrwt>
<rscale>  0 0.64497961E+03</rscale>
<asrwt>0</asrwt>
<pdfrwt beam="1">  1        2 0.31279905E+00 0.75574686E+03</pdfrwt>
<pdfrwt beam="2">  1       -2 0.25570475E-01 0.75574686E+03</pdfrwt>
<totfact> 0.90450340E+01</totfact>
</mgrwt>
</event>
<event>
 4    1  0.3057048E-007  0.9087085E+03  0.7818608E-02  0.9512194E-01
          2   -1    0    0  501    0  0.00000000000E+00  0.00000000000E+00  0.92643423194E+03  0.92643423194E+03  0.25500000000E-02 0. -1.
         -2   -1    0    0    0  501 -0.00000000000E+00 -0.00000000000E+00 -0.93162191818E+03  0.93162191818E+03  0.25500000000E-02 0.  1.
    8880023    1    1    2    0    0 -0.66350381381E+02 -0.62252595108E+03 -0.50762421318E+03  0.10408811080E+04  0.65864270000E+03 0.  0.
    8880022    1    1    2    0    0  0.66350381381E+02  0.62252595108E+03  0.50243652695E+03  0.81717504214E+03  0.15294330000E+03 0.  0.
<mgrwt>
<rscale>  0 0.83390762E+03</rscale>
<asrwt>0</asrwt>
<pdfrwt beam="1">  1        2 0.14252834E+00 0.90870850E+03</pdfrwt>
<pdfrwt beam="2">  1       -2 0.14332645E+00 0.90870850E+03</pdfrwt>
<totfact> 0.95078701E+00</totfact>
</mgrwt>
</event>
<event>
 4    1  0.3057048E-007  0.7213757E+03  0.7818608E-02  0.9917958E-01
          2   -1    0    0  501    0  0.00000000000E+00  0.00000000000E+00  0.48125403592E+04  0.48125403592E+04  0.25500000000E-02 0. -1.
         -2   -1    0    0    0  501 -0.00000000000E+00 -0.00000000000E+00 -0.12242052230E+03  0.12242052232E+03  0.25500000000E-02 0.  1.
    8880023    1    1    2    0    0  0.20295037689E+03 -0.21303476293E+03  0.10167903061E+04  0.12466937870E+04  0.65864270000E+03 0.  1.
    8880022    1    1    2    0    0 -0.20295037689E+03  0.21303476293E+03  0.36733295307E+04  0.36882670945E+04  0.15294330000E+03 0.  0.
<mgrwt>
<rscale>  0 0.59398790E+03</rscale>
<asrwt>0</asrwt>
<pdfrwt beam="1">  1        2 0.74039081E+00 0.72137568E+03</pdfrwt>
<pdfrwt beam="2">  1       -2 0.18833927E-01 0.72137568E+03</pdfrwt>
<totfact> 0.15904750E+00</totfact>
</mgrwt>
</event>
<event>
 4    1  0.3057048E-007  0.6890708E+03  0.7818608E-02  0.1004597E+00
          2   -1    0    0  501    0  0.00000000000E+00  0.00000000000E+00  0.46608816558E+03  0.46608816558E+03  0.25500000000E-02 0. -1.
         -2   -1    0    0    0  501 -0.00000000000E+00 -0.00000000000E+00 -0.12588138837E+04  0.12588138837E+04  0.25500000000E-02 0.  1.
    8880023    1    1    2    0    0 -0.20193088139E+03  0.15239597057E+02 -0.11174207910E+04  0.13128014917E+04  0.65864270000E+03 0.  1.
    8880022    1    1    2    0    0  0.20193088139E+03 -0.15239597057E+02  0.32469507289E+03  0.41210055758E+03  0.15294330000E+03 0.  0.
<mgrwt>
<rscale>  0 0.53679516E+03</rscale>
<asrwt>0</asrwt>
<pdfrwt beam="1">  1        2 0.71705872E-01 0.68907077E+03</pdfrwt>
<pdfrwt beam="2">  1       -2 0.19366367E+00 0.68907077E+03</pdfrwt>
<totfact> 0.10029455E+01</totfact>
</mgrwt>
</event>
<event>
 4    1  0.3057048E-007  0.1112361E+04  0.7818608E-02  0.9247417E-01
          2   -1    0    0  501    0  0.00000000000E+00  0.00000000000E+00  0.14396195384E+04  0.14396195384E+04  0.25500000000E-02 0. -1.
         -2   -1    0    0    0  501 -0.00000000000E+00 -0.00000000000E+00 -0.88150030415E+03  0.88150030415E+03  0.25500000000E-02 0.  1.
    8880023    1    1    2    0    0 -0.62926187879E+03  0.63840968775E+03 -0.20850334056E+03  0.11317337544E+04  0.65864270000E+03 0.  0.
    8880022    1    1    2    0    0  0.62926187879E+03 -0.63840968775E+03  0.76662257478E+03  0.11893860882E+04  0.15294330000E+03 0.  0.
<mgrwt>
<rscale>  0 0.10577132E+04</rscale>
<asrwt>0</asrwt>
<pdfrwt beam="1">  1        2 0.22147992E+00 0.11123613E+04</pdfrwt>
<pdfrwt beam="2">  1       -2 0.13561543E+00 0.11123613E+04</pdfrwt>
<totfact> 0.52565987E+00</totfact>
</mgrwt>
</event>
<event>
 4    1  0.3057048E-007  0.7022182E+03  0.7818608E-02  0.9988121E-01
         -2   -1    0    0    0  501 -0.00000000000E+00  0.00000000000E+00  0.16131788968E+03  0.16131788970E+03  0.25500000000E-02 0.  1.
          2   -1    0    0  501    0  0.00000000000E+00 -0.00000000000E+00 -0.18277615535E+04  0.18277615535E+04  0.25500000000E-02 0. -1.
    8880023    1    1    2    0    0 -0.42753180917E+02  0.23973385646E+03 -0.74490077728E+03  0.10237126211E+04  0.65864270000E+03 0.  0.
    8880022    1    1    2    0    0  0.42753180917E+02 -0.23973385646E+03 -0.92154288652E+03  0.96536682206E+03  0.15294330000E+03 0.  0.
<mgrwt>
<rscale>  0 0.56174195E+03</rscale>
<asrwt>0</asrwt>
<pdfrwt beam="1">  1        2 0.28119407E+00 0.70221817E+03</pdfrwt>
<pdfrwt beam="2">  1       -2 0.24818138E-01 0.70221817E+03</pdfrwt>
<totfact> 0.12421361E+02</totfact>
</mgrwt>
</event>
<event>
 4    1  0.3057048E-007  0.8820185E+03  0.7818608E-02  0.9555537E-01
          2   -1    0    0  501    0  0.00000000000E+00  0.00000000000E+00  0.22881821392E+04  0.22881821392E+04  0.25500000000E-02 0. -1.
         -2   -1    0    0    0  501 -0.00000000000E+00 -0.00000000000E+00 -0.35370914919E+03  0.35370914920E+03  0.25500000000E-02 0.  1.
    8880023    1    1    2    0    0 -0.10801658267E+03  0.57660974046E+03  0.35627505134E+03  0.95125627115E+03  0.65864270000E+03 0.  1.
    8880022    1    1    2    0    0  0.10801658267E+03 -0.57660974046E+03  0.15781979387E+04  0.16906350173E+04  0.15294330000E+03 0.  0.
<mgrwt>
<rscale>  0 0.80310262E+03</rscale>
<asrwt>0</asrwt>
<pdfrwt beam="1">  1        2 0.35202802E+00 0.88201847E+03</pdfrwt>
<pdfrwt beam="2">  1       -2 0.54416793E-01 0.88201847E+03</pdfrwt>
<totfact> 0.14965562E+01</totfact>
</mgrwt>
</event>
<event>
 4    1  0.3057048E-007  0.7968048E+03  0.7818608E-02  0.9717748E-01
          2   -1    0    0  501    0  0.00000000000E+00  0.00000000000E+00  0.17664750245E+04  0.17664750245E+04  0.25500000000E-02 0. -1.
         -2   -1    0    0    0  501 -0.00000000000E+00 -0.00000000000E+00 -0.28183638670E+03  0.28183638671E+03  0.25500000000E-02 0.  1.
    8880023    1    1    2    0    0  0.34531797775E+03  0.28608247328E+03  0.46152097931E+03  0.92081458931E+03  0.65864270000E+03 0.  0.
    8880022    1    1    2    0    0 -0.34531797775E+03 -0.28608247328E+03  0.10231176585E+04  0.11274968219E+04  0.15294330000E+03 0.  0.
<mgrwt>
<rscale>  0 0.69969860E+03</rscale>
<asrwt>0</asrwt>
<pdfrwt beam="1">  1        2 0.27176539E+00 0.79680480E+03</pdfrwt>
<pdfrwt beam="2">  1       -2 0.43359443E-01 0.79680480E+03</pdfrwt>
<totfact> 0.46374849E+01</totfact>
</mgrwt>
</event>
<event>
 4    1  0.3057048E-007  0.7208463E+03  0.7818608E-02  0.9919733E-01
          2   -1    0    0  501    0  0.00000000000E+00  0.00000000000E+00  0.29588019282E+04  0.29588019282E+04  0.25500000000E-02 0. -1.
         -2   -1    0    0    0  501 -0.00000000000E+00 -0.00000000000E+00 -0.14147609525E+03  0.14147609527E+03  0.25500000000E-02 0.  1.
    8880023    1    1    2    0    0 -0.28821509616E+03  0.52356454177E+02  0.89228421190E+03  0.11470790997E+04  0.65864270000E+03 0.  0.
    8880022    1    1    2    0    0  0.28821509616E+03 -0.52356454177E+02  0.19250416211E+04  0.19531989238E+04  0.15294330000E+03 0.  0.
<mgrwt>
<rscale>  0 0.59314410E+03</rscale>
<asrwt>0</asrwt>
<pdfrwt beam="1">  1        2 0.45520030E+00 0.72084627E+03</pdfrwt>
<pdfrwt beam="2">  1       -2 0.21765553E-01 0.72084627E+03</pdfrwt>
<totfact> 0.35990469E+01</totfact>
</mgrwt>
</event>
<event>
 4    1  0.3057048E-007  0.6921328E+03  0.7818608E-02  0.1003155E+00
         -2   -1    0    0    0  501 -0.00000000000E+00  0.00000000000E+00  0.24752119260E+03  0.24752119261E+03  0.25500000000E-02 0.  1.
          2   -1    0    0  501    0  0.00000000000E+00 -0.00000000000E+00 -0.15809336000E+04  0.15809336000E+04  0.25500000000E-02 0. -1.
    8880023    1    1    2    0    0 -0.21269107545E+03  0.40205646047E+00 -0.28619916994E+03  0.74897117859E+03  0.65864270000E+03 0.  1.
    8880022    1    1    2    0    0  0.21269107545E+03 -0.40205646047E+00 -0.10472132375E+04  0.10794836141E+04  0.15294330000E+03 0.  0.
<mgrwt>
<rscale>  0 0.54288244E+03</rscale>
<asrwt>0</asrwt>
<pdfrwt beam="1">  1        2 0.24322055E+00 0.69213284E+03</pdfrwt>
<pdfrwt beam="2">  1       -2 0.38080184E-01 0.69213284E+03</pdfrwt>
<totfact> 0.76412145E+01</totfact>
</mgrwt>
</event>
<event>
 4    1  0.3057048E-007  0.6732765E+03  0.7818608E-02  0.1013415E+00
         -2   -1    0    0    0  501 -0.00000000000E+00  0.00000000000E+00  0.28776960144E+03  0.28776960145E+03  0.25500000000E-02 0.  1.
          2   -1    0    0  501    0  0.00000000000E+00 -0.00000000000E+00 -0.23779320600E+04  0.23779320600E+04  0.25500000000E-02 0. -1.
    8880023    1    1    2    0    0 -0.44642267327E+02  0.13228043325E+03 -0.11902507755E+03  0.68371647662E+03  0.65864270000E+03 0.  1.
    8880022    1    1    2    0    0  0.44642267327E+02 -0.13228043325E+03 -0.19711373810E+04  0.19819851848E+04  0.15294330000E+03 0.  0.
<mgrwt>
<rscale>  0 0.50139541E+03</rscale>
<asrwt>0</asrwt>
<pdfrwt beam="1">  1        2 0.36583569E+00 0.67327650E+03</pdfrwt>
<pdfrwt beam="2">  1       -2 0.44272248E-01 0.67327650E+03</pdfrwt>
<totfact> 0.20897690E+01</totfact>
</mgrwt>
</event>
<event>
 4    1  0.3057048E-007  0.8627345E+03  0.7818608E-02  0.9588718E-01
         -2   -1    0    0    0  501 -0.00000000000E+00  0.00000000000E+00  0.49072814203E+03  0.49072814204E+03  0.25500000000E-02 0.  1.
          2   -1    0    0  501    0  0.00000000000E+00 -0.00000000000E+00 -0.20821043291E+04  0.20821043291E+04  0.25500000000E-02 0. -1.
    8880023    1    1    2    0    0 -0.50673073311E+02 -0.55491703745E+03  0.17941874282E+02  0.86292108325E+03  0.65864270000E+03 0.  0.
    8880022    1    1    2    0    0  0.50673073311E+02  0.55491703745E+03 -0.16093180614E+04  0.17099113879E+04  0.15294330000E+03 0.  0.
<mgrwt>
<rscale>  0 0.78047446E+03</rscale>
<asrwt>0</asrwt>
<pdfrwt beam="1">  1        2 0.32032374E+00 0.86273454E+03</pdfrwt>
<pdfrwt beam="2">  1       -2 0.75496638E-01 0.86273454E+03</pdfrwt>
<totfact> 0.96579160E+00</totfact>
</mgrwt>
</event>
<event>
 4    1  0.3057048E-007  0.1131397E+04  0.7818608E-02  0.9226879E-01
         -2   -1    0    0    0  501 -0.00000000000E+00  0.00000000000E+00  0.74795277310E+03  0.74795277310E+03  0.25500000000E-02 0.  1.
          2   -1    0    0  501    0  0.00000000000E+00 -0.00000000000E+00 -0.28239933273E+04  0.28239933273E+04  0.25500000000E-02 0. -1.
    8880023    1    1    2    0    0  0.64170574419E+03 -0.65913857983E+03  0.16617579275E+03  0.11435359767E+04  0.65864270000E+03 0.  0.
    8880022    1    1    2    0    0 -0.64170574419E+03  0.65913857983E+03 -0.22422163470E+04  0.24284101238E+04  0.15294330000E+03 0.  0.
<mgrwt>
<rscale>  0 0.10780252E+04</rscale>
<asrwt>0</asrwt>
<pdfrwt beam="1">  1        2 0.43446051E+00 0.11313974E+04</pdfrwt>
<pdfrwt beam="2">  1       -2 0.11506966E+00 0.11313974E+04</pdfrwt>
<totfact> 0.13097793E+00</totfact>
</mgrwt>
</event>
<event>
 4    1  0.3057048E-007  0.6721408E+03  0.7818608E-02  0.1014173E+00
          2   -1    0    0  501    0  0.00000000000E+00  0.00000000000E+00  0.24781216403E+04  0.24781216403E+04  0.25500000000E-02 0. -1.
         -2   -1    0    0    0  501 -0.00000000000E+00 -0.00000000000E+00 -0.12114947126E+03  0.12114947129E+03  0.25500000000E-02 0.  1.
    8880023    1    1    2    0    0  0.75010752612E+02  0.11106934937E+03  0.87472825952E+03  0.11031422155E+04  0.65864270000E+03 0.  1.
    8880022    1    1    2    0    0 -0.75010752612E+02 -0.11106934937E+03  0.14822439095E+04  0.14961288961E+04  0.15294330000E+03 0.  0.
<mgrwt>
<rscale>  0 0.49849493E+03</rscale>
<asrwt>0</asrwt>
<pdfrwt beam="1">  1        2 0.38124946E+00 0.67214077E+03</pdfrwt>
<pdfrwt beam="2">  1       -2 0.18638381E-01 0.67214077E+03</pdfrwt>
<totfact> 0.90689592E+01</totfact>
</mgrwt>
</event>
<event>
 4    1  0.3057048E-007  0.8865943E+03  0.7818608E-02  0.9547904E-01
         -2   -1    0    0    0  501 -0.00000000000E+00  0.00000000000E+00  0.29839168545E+03  0.29839168547E+03  0.25500000000E-02 0.  1.
          2   -1    0    0  501    0  0.00000000000E+00 -0.00000000000E+00 -0.21666879704E+04  0.21666879704E+04  0.25500000000E-02 0. -1.
    8880023    1    1    2    0    0  0.59127097471E+03  0.51360857053E+02 -0.64354205813E+03  0.10955345225E+04  0.65864270000E+03 0.  0.
    8880022    1    1    2    0    0 -0.59127097471E+03 -0.51360857053E+02 -0.12247542268E+04  0.13695451333E+04  0.15294330000E+03 0.  0.
<mgrwt>
<rscale>  0 0.80842342E+03</rscale>
<asrwt>0</asrwt>
<pdfrwt beam="1">  1        2 0.33333660E+00 0.88659433E+03</pdfrwt>
<pdfrwt beam="2">  1       -2 0.45906414E-01 0.88659433E+03</pdfrwt>
<totfact> 0.24718870E+01</totfact>
</mgrwt>
</event>
<event>
 4    1  0.3057048E-007  0.9761897E+03  0.7818608E-02  0.9413394E-01
         -2   -1    0    0    0  501 -0.00000000000E+00  0.00000000000E+00  0.89079654538E+03  0.89079654538E+03  0.25500000000E-02 0.  1.
          2   -1    0    0  501    0  0.00000000000E+00 -0.00000000000E+00 -0.13515710926E+04  0.13515710926E+04  0.25500000000E-02 0. -1.
    8880023    1    1    2    0    0 -0.42468152833E+03  0.58204954679E+03 -0.94678599744E+03  0.13599080876E+04  0.65864270000E+03 0.  0.
    8880022    1    1    2    0    0  0.42468152833E+03 -0.58204954679E+03  0.48601145020E+03  0.88245955044E+03  0.15294330000E+03 0.  0.
<mgrwt>
<rscale>  0 0.90981564E+03</rscale>
<asrwt>0</asrwt>
<pdfrwt beam="1">  1        2 0.20793401E+00 0.97618968E+03</pdfrwt>
<pdfrwt beam="2">  1       -2 0.13704562E+00 0.97618968E+03</pdfrwt>
<totfact> 0.58264650E+00</totfact>
</mgrwt>
</event>
<event>
 4    1  0.3057048E-007  0.8613574E+03  0.7818608E-02  0.9591153E-01
         -2   -1    0    0    0  501 -0.00000000000E+00  0.00000000000E+00  0.86475572906E+03  0.86475572906E+03  0.25500000000E-02 0.  1.
          2   -1    0    0  501    0  0.00000000000E+00 -0.00000000000E+00 -0.13021576711E+04  0.13021576711E+04  0.25500000000E-02 0. -1.
    8880023    1    1    2    0    0  0.34369970311E+03 -0.43588625321E+03  0.55137084259E+03  0.10227151725E+04  0.65864270000E+03 0.  1.
    8880022    1    1    2    0    0 -0.34369970311E+03  0.43588625321E+03 -0.98877278459E+03  0.11441982277E+04  0.15294330000E+03 0.  0.
<mgrwt>
<rscale>  0 0.77884478E+03</rscale>
<asrwt>0</asrwt>
<pdfrwt beam="1">  1        2 0.20033195E+00 0.86135737E+03</pdfrwt>
<pdfrwt beam="2">  1       -2 0.13303934E+00 0.86135737E+03</pdfrwt>
<totfact> 0.68011305E+00</totfact>
</mgrwt>
</event>
<event>
 4    1  0.3057048E-007  0.8319151E+03  0.7818608E-02  0.9645618E-01
          2   -1    0    0  501    0  0.00000000000E+00  0.00000000000E+00  0.33292754229E+04  0.33292754229E+04  0.25500000000E-02 0. -1.
         -2   -1    0    0    0  501 -0.00000000000E+00 -0.00000000000E+00 -0.18732390642E+03  0.18732390644E+03  0.25500000000E-02 0.  1.
    8880023    1    1    2    0    0 -0.50664822011E+03 -0.39750740626E+02  0.95666142319E+03  0.12677869794E+04  0.65864270000E+03 0.  0.
    8880022    1    1    2    0    0  0.50664822011E+03  0.39750740626E+02  0.21852900933E+04  0.22488123499E+04  0.15294330000E+03 0.  0.
<mgrwt>
<rscale>  0 0.74349100E+03</rscale>
<asrwt>0</asrwt>
<pdfrwt beam="1">  1        2 0.51219621E+00 0.83191511E+03</pdfrwt>
<pdfrwt beam="2">  1       -2 0.28819063E-01 0.83191511E+03</pdfrwt>
<totfact> 0.12435548E+01</totfact>
</mgrwt>
</event>
<event>
 4    1  0.3057048E-007  0.7445961E+03  0.7818608E-02  0.9846756E-01
         -2   -1    0    0    0  501 -0.00000000000E+00  0.00000000000E+00  0.22349918770E+03  0.22349918771E+03  0.25500000000E-02 0.  1.
          2   -1    0    0  501    0  0.00000000000E+00 -0.00000000000E+00 -0.29604659404E+04  0.29604659404E+04  0.25500000000E-02 0. -1.
    8880023    1    1    2    0    0 -0.42248779352E+02 -0.34471456028E+03 -0.45920777272E+03  0.87481144953E+03  0.65864270000E+03 0.  1.
    8880022    1    1    2    0    0  0.42248779352E+02  0.34471456028E+03 -0.22777589800E+04  0.23091536786E+04  0.15294330000E+03 0.  0.
<mgrwt>
<rscale>  0 0.62912602E+03</rscale>
<asrwt>0</asrwt>
<pdfrwt beam="1">  1        2 0.45545627E+00 0.74459606E+03</pdfrwt>
<pdfrwt beam="2">  1       -2 0.34384492E-01 0.74459606E+03</pdfrwt>
<totfact> 0.15490008E+01</totfact>
</mgrwt>
</event>
<event>
 4    1  0.3057048E-007  0.9322497E+03  0.7818608E-02  0.9476126E-01
          2   -1    0    0  501    0  0.00000000000E+00  0.00000000000E+00  0.10161770728E+04  0.10161770728E+04  0.25500000000E-02 0. -1.
         -2   -1    0    0    0  501 -0.00000000000E+00 -0.00000000000E+00 -0.17842549086E+04  0.17842549086E+04  0.25500000000E-02 0.  1.
    8880023    1    1    2    0    0  0.58084157946E+03 -0.31289349290E+03 -0.15233587890E+04  0.17859763393E+04  0.65864270000E+03 0.  1.
    8880022    1    1    2    0    0 -0.58084157946E+03  0.31289349290E+03  0.75528095321E+03  0.10144556420E+04  0.15294330000E+03 0.  0.
<mgrwt>
<rscale>  0 0.86067034E+03</rscale>
<asrwt>0</asrwt>
<pdfrwt beam="1">  1        2 0.15633493E+00 0.93224969E+03</pdfrwt>
<pdfrwt beam="2">  1       -2 0.27450075E+00 0.93224969E+03</pdfrwt>
<totfact> 0.11297062E+00</totfact>
</mgrwt>
</event>
<event>
 4    1  0.3057048E-007  0.1090667E+04  0.7818608E-02  0.9271518E-01
          2   -1    0    0  501    0  0.00000000000E+00  0.00000000000E+00  0.19304933548E+04  0.19304933548E+04  0.25500000000E-02 0. -1.
         -2   -1    0    0    0  501 -0.00000000000E+00 -0.00000000000E+00 -0.65567195291E+03  0.65567195292E+03  0.25500000000E-02 0.  1.
    8880023    1    1    2    0    0  0.80938261579E+03  0.31724621608E+03  0.70417053098E+02  0.10929383093E+04  0.65864270000E+03 0.  0.
    8880022    1    1    2    0    0 -0.80938261579E+03 -0.31724621608E+03  0.12044043488E+04  0.14932269984E+04  0.15294330000E+03 0.  0.
<mgrwt>
<rscale>  0 0.10344774E+04</rscale>
<asrwt>0</asrwt>
<pdfrwt beam="1">  1        2 0.29699897E+00 0.10906675E+04</pdfrwt>
<pdfrwt beam="2">  1       -2 0.10087261E+00 0.10906675E+04</pdfrwt>
<totfact> 0.58463861E+00</totfact>
</mgrwt>
</event>
<event>
 4    1  0.3057048E-007  0.9016250E+03  0.7818608E-02  0.9523428E-01
          2   -1    0    0  501    0  0.00000000000E+00  0.00000000000E+00  0.26278518881E+04  0.26278518881E+04  0.25500000000E-02 0. -1.
         -2   -1    0    0    0  501 -0.00000000000E+00 -0.00000000000E+00 -0.52018721543E+03  0.52018721544E+03  0.25500000000E-02 0.  1.
    8880023    1    1    2    0    0 -0.51416722786E+03 -0.33874705724E+03  0.23119375604E+04  0.24815283590E+04  0.65864270000E+03 0. -1.
    8880022    1    1    2    0    0  0.51416722786E+03  0.33874705724E+03 -0.20427288770E+03  0.66651074459E+03  0.15294330000E+03 0.  0.
<mgrwt>
<rscale>  0 0.82578396E+03</rscale>
<asrwt>0</asrwt>
<pdfrwt beam="1">  1        2 0.40428491E+00 0.90162504E+03</pdfrwt>
<pdfrwt beam="2">  1       -2 0.80028802E-01 0.90162504E+03</pdfrwt>
<totfact> 0.41581882E+00</totfact>
</mgrwt>
</event>
<event>
 4    1  0.3057048E-007  0.7457779E+03  0.7818608E-02  0.9843425E-01
          2   -1    0    0  501    0  0.00000000000E+00  0.00000000000E+00  0.36866325624E+04  0.36866325624E+04  0.25500000000E-02 0. -1.
         -2   -1    0    0    0  501 -0.00000000000E+00 -0.00000000000E+00 -0.38670004933E+03  0.38670004933E+03  0.25500000000E-02 0.  1.
    8880023    1    1    2    0    0 -0.31410371304E+03  0.15399132125E+03 -0.56253892017E+01  0.74579911560E+03  0.65864270000E+03 0.  1.
    8880022    1    1    2    0    0  0.31410371304E+03 -0.15399132125E+03  0.33055579022E+04  0.33275334961E+04  0.15294330000E+03 0.  0.
<mgrwt>
<rscale>  0 0.63083271E+03</rscale>
<asrwt>0</asrwt>
<pdfrwt beam="1">  1        2 0.56717424E+00 0.74577790E+03</pdfrwt>
<pdfrwt beam="2">  1       -2 0.59492316E-01 0.74577790E+03</pdfrwt>
<totfact> 0.17272449E+00</totfact>
</mgrwt>
</event>
<event>
 4    1  0.3057048E-007  0.8517145E+03  0.7818608E-02  0.9608475E-01
         -2   -1    0    0    0  501 -0.00000000000E+00  0.00000000000E+00  0.71739499933E+03  0.71739499933E+03  0.25500000000E-02 0.  1.
          2   -1    0    0  501    0  0.00000000000E+00 -0.00000000000E+00 -0.18087581298E+04  0.18087581298E+04  0.25500000000E-02 0. -1.
    8880023    1    1    2    0    0 -0.32926506784E+03  0.42800927433E+03  0.39389714685E+03  0.93838829509E+03  0.65864270000E+03 0.  0.
    8880022    1    1    2    0    0  0.32926506784E+03 -0.42800927433E+03 -0.14852602773E+04  0.15877648340E+04  0.15294330000E+03 0.  0.
<mgrwt>
<rscale>  0 0.76737775E+03</rscale>
<asrwt>0</asrwt>
<pdfrwt beam="1">  1        2 0.27827048E+00 0.85171452E+03</pdfrwt>
<pdfrwt beam="2">  1       -2 0.11036846E+00 0.85171452E+03</pdfrwt>
<totfact> 0.56510804E+00</totfact>
</mgrwt>
</event>
<event>
 4    1  0.3057048E-007  0.6931181E+03  0.7818608E-02  0.1002704E+00
          2   -1    0    0  501    0  0.00000000000E+00  0.00000000000E+00  0.13682083559E+04  0.13682083559E+04  0.25500000000E-02 0. -1.
         -2   -1    0    0    0  501 -0.00000000000E+00 -0.00000000000E+00 -0.19093373482E+03  0.19093373483E+03  0.25500000000E-02 0.  1.
    8880023    1    1    2    0    0  0.54752485505E+02  0.20881720409E+03  0.57232465713E+03  0.89887050170E+03  0.65864270000E+03 0.  0.
    8880022    1    1    2    0    0 -0.54752485505E+02 -0.20881720409E+03  0.60494996395E+03  0.66027158904E+03  0.15294330000E+03 0.  0.
<mgrwt>
<rscale>  0 0.54480126E+03</rscale>
<asrwt>0</asrwt>
<pdfrwt beam="1">  1        2 0.21049359E+00 0.69311807E+03</pdfrwt>
<pdfrwt beam="2">  1       -2 0.29374421E-01 0.69311807E+03</pdfrwt>
<totfact> 0.16390761E+02</totfact>
</mgrwt>
</event>
<event>
 4    1  0.3057048E-007  0.7892739E+03  0.7818608E-02  0.9734487E-01
          2   -1    0    0  501    0  0.00000000000E+00  0.00000000000E+00  0.84006163416E+03  0.84006163416E+03  0.25500000000E-02 0. -1.
         -2   -1    0    0    0  501 -0.00000000000E+00 -0.00000000000E+00 -0.10416354617E+04  0.10416354617E+04  0.25500000000E-02 0.  1.
    8880023    1    1    2    0    0  0.40744048715E+03 -0.15210294045E+03 -0.80164293035E+03  0.11249820661E+04  0.65864270000E+03 0.  1.
    8880022    1    1    2    0    0 -0.40744048715E+03  0.15210294045E+03  0.60006910281E+03  0.75671502974E+03  0.15294330000E+03 0.  0.
<mgrwt>
<rscale>  0 0.69000070E+03</rscale>
<asrwt>0</asrwt>
<pdfrwt beam="1">  1        2 0.12924025E+00 0.78927388E+03</pdfrwt>
<pdfrwt beam="2">  1       -2 0.16025161E+00 0.78927388E+03</pdfrwt>
<totfact> 0.81927373E+00</totfact>
</mgrwt>
</event>
<event>
 4    1  0.3057048E-007  0.1179724E+04  0.7818608E-02  0.9177088E-01
          2   -1    0    0  501    0  0.00000000000E+00  0.00000000000E+00  0.16635752207E+04  0.16635752207E+04  0.25500000000E-02 0. -1.
         -2   -1    0    0    0  501 -0.00000000000E+00 -0.00000000000E+00 -0.89581652863E+03  0.89581652864E+03  0.25500000000E-02 0.  1.
    8880023    1    1    2    0    0  0.61294446362E+03 -0.76304561262E+03  0.99470117774E+03  0.15431073072E+04  0.65864270000E+03 0.  0.
    8880022    1    1    2    0    0 -0.61294446362E+03  0.76304561262E+03 -0.22694248568E+03  0.10162844421E+04  0.15294330000E+03 0.  0.
<mgrwt>
<rscale>  0 0.11293079E+04</rscale>
<asrwt>0</asrwt>
<pdfrwt beam="1">  1        2 0.25593465E+00 0.11797244E+04</pdfrwt>
<pdfrwt beam="2">  1       -2 0.13781793E+00 0.11797244E+04</pdfrwt>
<totfact> 0.37486159E+00</totfact>
</mgrwt>
</event>
<event>
 4    1  0.3057048E-007  0.7805541E+03  0.7818608E-02  0.9754537E-01
         -2   -1    0    0    0  501 -0.00000000000E+00  0.00000000000E+00  0.11767472251E+04  0.11767472251E+04  0.25500000000E-02 0.  1.
          2   -1    0    0  501    0  0.00000000000E+00 -0.00000000000E+00 -0.33608478913E+03  0.33608478914E+03  0.25500000000E-02 0. -1.
    8880023    1    1    2    0    0  0.23059167848E+03  0.34968845436E+03  0.69098293654E+03  0.10424596693E+04  0.65864270000E+03 0.  1.
    8880022    1    1    2    0    0 -0.23059167848E+03 -0.34968845436E+03  0.14967949941E+03  0.47037234491E+03  0.15294330000E+03 0. -1.
<mgrwt>
<rscale>  0 0.67860480E+03</rscale>
<asrwt>0</asrwt>
<pdfrwt beam="1">  1        2 0.51705353E-01 0.78055413E+03</pdfrwt>
<pdfrwt beam="2">  1       -2 0.18103803E+00 0.78055413E+03</pdfrwt>
<totfact> 0.17466560E+01</totfact>
</mgrwt>
</event>
<event>
 4    1  0.3057048E-007  0.6827793E+03  0.7818608E-02  0.1007793E+00
         -2   -1    0    0    0  501 -0.00000000000E+00  0.00000000000E+00  0.75190304833E+03  0.75190304834E+03  0.25500000000E-02 0.  1.
          2   -1    0    0  501    0  0.00000000000E+00 -0.00000000000E+00 -0.39002000407E+03  0.39002000407E+03  0.25500000000E-02 0. -1.
    8880023    1    1    2    0    0 -0.92272920246E+02  0.15447665551E+03  0.51954862974E+03  0.85797337595E+03  0.65864270000E+03 0.  1.
    8880022    1    1    2    0    0  0.92272920246E+02 -0.15447665551E+03 -0.15766558547E+03  0.28394967646E+03  0.15294330000E+03 0.  0.
<mgrwt>
<rscale>  0 0.52361169E+03</rscale>
<asrwt>0</asrwt>
<pdfrwt beam="1">  1        2 0.60003078E-01 0.68277927E+03</pdfrwt>
<pdfrwt beam="2">  1       -2 0.11567739E+00 0.68277927E+03</pdfrwt>
<totfact> 0.48301265E+01</totfact>
</mgrwt>
</event>
<event>
 4    1  0.3057048E-007  0.7054488E+03  0.7818608E-02  0.9975306E-01
          2   -1    0    0  501    0  0.00000000000E+00  0.00000000000E+00  0.17240617519E+04  0.17240617519E+04  0.25500000000E-02 0. -1.
         -2   -1    0    0    0  501 -0.00000000000E+00 -0.00000000000E+00 -0.28486881697E+03  0.28486881698E+03  0.25500000000E-02 0.  1.
    8880023    1    1    2    0    0  0.24798832802E+03  0.48473093614E+02  0.19747445218E+03  0.73256686873E+03  0.65864270000E+03 0.  1.
    8880022    1    1    2    0    0 -0.24798832802E+03 -0.48473093614E+02  0.12417184828E+04  0.12763637002E+04  0.15294330000E+03 0.  0.
<mgrwt>
<rscale>  0 0.56746397E+03</rscale>
<asrwt>0</asrwt>
<pdfrwt beam="1">  1        2 0.26524027E+00 0.70544883E+03</pdfrwt>
<pdfrwt beam="2">  1       -2 0.43825972E-01 0.70544883E+03</pdfrwt>
<totfact> 0.48386866E+01</totfact>
</mgrwt>
</event>
<event>
 4    1  0.3057048E-007  0.7197798E+03  0.7818608E-02  0.9923332E-01
          2   -1    0    0  501    0  0.00000000000E+00  0.00000000000E+00  0.11852983992E+04  0.11852983992E+04  0.25500000000E-02 0. -1.
         -2   -1    0    0    0  501 -0.00000000000E+00 -0.00000000000E+00 -0.44294220977E+03  0.44294220978E+03  0.25500000000E-02 0.  1.
    8880023    1    1    2    0    0  0.27262647901E+03  0.99737111191E+02 -0.97696602315E+02  0.72637973593E+03  0.65864270000E+03 0.  1.
    8880022    1    1    2    0    0 -0.27262647901E+03 -0.99737111191E+02  0.84005279171E+03  0.90186087302E+03  0.15294330000E+03 0.  0.
<mgrwt>
<rscale>  0 0.59143729E+03</rscale>
<asrwt>0</asrwt>
<pdfrwt beam="1">  1        2 0.18235360E+00 0.71977975E+03</pdfrwt>
<pdfrwt beam="2">  1       -2 0.68144957E-01 0.71977975E+03</pdfrwt>
<totfact> 0.38905126E+01</totfact>
</mgrwt>
</event>
<event>
 4    1  0.3057048E-007  0.7895027E+03  0.7818608E-02  0.9733970E-01
         -2   -1    0    0    0  501 -0.00000000000E+00  0.00000000000E+00  0.51472561826E+03  0.51472561827E+03  0.25500000000E-02 0.  1.
          2   -1    0    0  501    0  0.00000000000E+00 -0.00000000000E+00 -0.15618289147E+04  0.15618289147E+04  0.25500000000E-02 0. -1.
    8880023    1    1    2    0    0 -0.36719903705E+03  0.23381452912E+03  0.14100608519E+03  0.80199581617E+03  0.65864270000E+03 0.  1.
    8880022    1    1    2    0    0  0.36719903705E+03 -0.23381452912E+03 -0.11881093816E+04  0.12745587168E+04  0.15294330000E+03 0.  0.
<mgrwt>
<rscale>  0 0.69029730E+03</rscale>
<asrwt>0</asrwt>
<pdfrwt beam="1">  1        2 0.24028137E+00 0.78950274E+03</pdfrwt>
<pdfrwt beam="2">  1       -2 0.79188557E-01 0.78950274E+03</pdfrwt>
<totfact> 0.16906108E+01</totfact>
</mgrwt>
</event>
<event>
 4    1  0.3057048E-007  0.7020780E+03  0.7818608E-02  0.9988688E-01
         -2   -1    0    0    0  501 -0.00000000000E+00  0.00000000000E+00  0.41651689260E+03  0.41651689260E+03  0.25500000000E-02 0.  1.
          2   -1    0    0  501    0  0.00000000000E+00 -0.00000000000E+00 -0.15472630963E+04  0.15472630963E+04  0.25500000000E-02 0. -1.
    8880023    1    1    2    0    0 -0.16266971128E+03 -0.18067070317E+03  0.91703620192E+02  0.70804173477E+03  0.65864270000E+03 0.  1.
    8880022    1    1    2    0    0  0.16266971128E+03  0.18067070317E+03 -0.12224498239E+04  0.12557382542E+04  0.15294330000E+03 0.  0.
<mgrwt>
<rscale>  0 0.56149059E+03</rscale>
<asrwt>0</asrwt>
<pdfrwt beam="1">  1        2 0.23804047E+00 0.70207802E+03</pdfrwt>
<pdfrwt beam="2">  1       -2 0.64079523E-01 0.70207802E+03</pdfrwt>
<totfact> 0.27687508E+01</totfact>
</mgrwt>
</event>
<event>
 4    1  0.3057048E-007  0.7043831E+03  0.7818608E-02  0.9979482E-01
          2   -1    0    0  501    0  0.00000000000E+00  0.00000000000E+00  0.60000833537E+03  0.60000833537E+03  0.25500000000E-02 0. -1.
         -2   -1    0    0    0  501 -0.00000000000E+00 -0.00000000000E+00 -0.13999359590E+04  0.13999359590E+04  0.25500000000E-02 0.  1.
    8880023    1    1    2    0    0  0.81908511979E+02  0.23587352133E+03 -0.12664438785E+04  0.14491499667E+04  0.65864270000E+03 0.  0.
    8880022    1    1    2    0    0 -0.81908511979E+02 -0.23587352133E+03  0.46651625482E+03  0.55079432770E+03  0.15294330000E+03 0. -1.
<mgrwt>
<rscale>  0 0.56559128E+03</rscale>
<asrwt>0</asrwt>
<pdfrwt beam="1">  1        2 0.92308975E-01 0.70438308E+03</pdfrwt>
<pdfrwt beam="2">  1       -2 0.21537476E+00 0.70438308E+03</pdfrwt>
<totfact> 0.53968598E+00</totfact>
</mgrwt>
</event>
<event>
 4    1  0.3057048E-007  0.8866777E+03  0.7818608E-02  0.9547766E-01
          2   -1    0    0  501    0  0.00000000000E+00  0.00000000000E+00  0.82664705283E+03  0.82664705283E+03  0.25500000000E-02 0. -1.
         -2   -1    0    0    0  501 -0.00000000000E+00 -0.00000000000E+00 -0.19005615557E+04  0.19005615557E+04  0.25500000000E-02 0.  1.
    8880023    1    1    2    0    0  0.39256491282E+03 -0.44528629927E+03 -0.16581821116E+04  0.18803630555E+04  0.65864270000E+03 0.  1.
    8880022    1    1    2    0    0 -0.39256491282E+03  0.44528629927E+03  0.58426760870E+03  0.84684555303E+03  0.15294330000E+03 0.  0.
<mgrwt>
<rscale>  0 0.80852017E+03</rscale>
<asrwt>0</asrwt>
<pdfrwt beam="1">  1        2 0.12717647E+00 0.88667768E+03</pdfrwt>
<pdfrwt beam="2">  1       -2 0.29239408E+00 0.88667768E+03</pdfrwt>
<totfact> 0.11887484E+00</totfact>
</mgrwt>
</event>
<event>
 4    1  0.3057048E-007  0.8356770E+03  0.7818608E-02  0.9638386E-01
          2   -1    0    0  501    0  0.00000000000E+00  0.00000000000E+00  0.11418217656E+04  0.11418217656E+04  0.25500000000E-02 0. -1.
         -2   -1    0    0    0  501 -0.00000000000E+00 -0.00000000000E+00 -0.16013342909E+04  0.16013342909E+04  0.25500000000E-02 0.  1.
    8880023    1    1    2    0    0  0.23759738388E+01 -0.51433463843E+03 -0.14172837556E+04  0.16453112823E+04  0.65864270000E+03 0.  1.
    8880022    1    1    2    0    0 -0.23759738388E+01  0.51433463843E+03  0.95777123033E+03  0.10978447742E+04  0.15294330000E+03 0.  0.
<mgrwt>
<rscale>  0 0.74806801E+03</rscale>
<asrwt>0</asrwt>
<pdfrwt beam="1">  1        2 0.17566489E+00 0.83567695E+03</pdfrwt>
<pdfrwt beam="2">  1       -2 0.24635912E+00 0.83567695E+03</pdfrwt>
<totfact> 0.14179496E+00</totfact>
</mgrwt>
</event>
<event>
 4    1  0.3057048E-007  0.7489017E+03  0.7818608E-02  0.9834737E-01
         -2   -1    0    0    0  501 -0.00000000000E+00  0.00000000000E+00  0.29540945415E+03  0.29540945416E+03  0.25500000000E-02 0.  1.
          2   -1    0    0  501    0  0.00000000000E+00 -0.00000000000E+00 -0.26569729966E+04  0.26569729966E+04  0.25500000000E-02 0. -1.
    8880023    1    1    2    0    0 -0.35440475920E+03  0.37957420600E+02 -0.22654142178E+03  0.78241595151E+03  0.65864270000E+03 0.  1.
    8880022    1    1    2    0    0  0.35440475920E+03 -0.37957420600E+02 -0.21350221207E+04  0.21699664993E+04  0.15294330000E+03 0.  0.
<mgrwt>
<rscale>  0 0.63531230E+03</rscale>
<asrwt>0</asrwt>
<pdfrwt beam="1">  1        2 0.40876506E+00 0.74890167E+03</pdfrwt>
<pdfrwt beam="2">  1       -2 0.45447610E-01 0.74890167E+03</pdfrwt>
<totfact> 0.13602957E+01</totfact>
</mgrwt>
</event>
<event>
 4    1  0.3057048E-007  0.9787708E+03  0.7818608E-02  0.9409875E-01
         -2   -1    0    0    0  501 -0.00000000000E+00  0.00000000000E+00  0.63159932168E+03  0.63159932169E+03  0.25500000000E-02 0.  1.
          2   -1    0    0  501    0  0.00000000000E+00 -0.00000000000E+00 -0.20232065738E+04  0.20232065738E+04  0.25500000000E-02 0. -1.
    8880023    1    1    2    0    0  0.65906954130E+03  0.29968211519E+03 -0.16092086546E+04  0.18834926946E+04  0.65864270000E+03 0.  1.
    8880022    1    1    2    0    0 -0.65906954130E+03 -0.29968211519E+03  0.21760140249E+03  0.77131320086E+03  0.15294330000E+03 0.  0.
<mgrwt>
<rscale>  0 0.91267482E+03</rscale>
<asrwt>0</asrwt>
<pdfrwt beam="1">  1        2 0.31126255E+00 0.97877078E+03</pdfrwt>
<pdfrwt beam="2">  1       -2 0.97169127E-01 0.97877078E+03</pdfrwt>
<totfact> 0.57535182E+00</totfact>
</mgrwt>
</event>
<event>
 4    1  0.4871494E-007  0.7030671E+03  0.7818608E-02  0.9984708E-01
         -2   -1    0    0    0  501 -0.00000000000E+00  0.00000000000E+00  0.70082855009E+03  0.70082855010E+03  0.25500000000E-02 0.  1.
          2   -1    0    0  501    0  0.00000000000E+00 -0.00000000000E+00 -0.30451574913E+04  0.30451574913E+04  0.25500000000E-02 0. -1.
    8880023    1    1    2    0    0 -0.24458940860E+03  0.25867114009E+02  0.51532581146E+03  0.87170177504E+03  0.65864270000E+03 0.  1.
    8880022    1    1    2    0    0  0.24458940860E+03 -0.25867114009E+02 -0.28596547527E+04  0.28742842664E+04  0.15294330000E+03 0.  0.
<mgrwt>
<rscale>  0 0.56325873E+03</rscale>
<asrwt>0</asrwt>
<pdfrwt beam="1">  1        2 0.46848576E+00 0.70306706E+03</pdfrwt>
<pdfrwt beam="2">  1       -2 0.10781978E+00 0.70306706E+03</pdfrwt>
<totfact> 0.12160560E+00</totfact>
</mgrwt>
</event>
<event>
 4    1  0.3057048E-007  0.7125606E+03  0.7818608E-02  0.9948612E-01
         -2   -1    0    0    0  501 -0.00000000000E+00  0.00000000000E+00  0.41109306368E+03  0.41109306368E+03  0.25500000000E-02 0.  1.
          2   -1    0    0  501    0  0.00000000000E+00 -0.00000000000E+00 -0.82095722916E+03  0.82095722916E+03  0.25500000000E-02 0. -1.
    8880023    1    1    2    0    0  0.97158559768E+01  0.27173154598E+03  0.54952230529E+01  0.71258180911E+03  0.65864270000E+03 0.  1.
    8880022    1    1    2    0    0 -0.97158559768E+01 -0.27173154598E+03 -0.41535938854E+03  0.51946848374E+03  0.15294330000E+03 0.  0.
<mgrwt>
<rscale>  0 0.57962072E+03</rscale>
<asrwt>0</asrwt>
<pdfrwt beam="1">  1        2 0.12630111E+00 0.71256062E+03</pdfrwt>
<pdfrwt beam="2">  1       -2 0.63245087E-01 0.71256062E+03</pdfrwt>
<totfact> 0.78256192E+01</totfact>
</mgrwt>
</event>
<event>
 4    1  0.3057048E-007  0.7967298E+03  0.7818608E-02  0.9717912E-01
         -2   -1    0    0    0  501 -0.00000000000E+00  0.00000000000E+00  0.38333397854E+03  0.38333397855E+03  0.25500000000E-02 0.  1.
          2   -1    0    0  501    0  0.00000000000E+00 -0.00000000000E+00 -0.11760090148E+04  0.11760090148E+04  0.25500000000E-02 0. -1.
    8880023    1    1    2    0    0 -0.43335233243E+03  0.11477795869E+03 -0.24134117867E+03  0.83248062717E+03  0.65864270000E+03 0.  1.
    8880022    1    1    2    0    0  0.43335233243E+03 -0.11477795869E+03 -0.55133385754E+03  0.72686236614E+03  0.15294330000E+03 0.  0.
<mgrwt>
<rscale>  0 0.69960267E+03</rscale>
<asrwt>0</asrwt>
<pdfrwt beam="1">  1        2 0.18092446E+00 0.79672984E+03</pdfrwt>
<pdfrwt beam="2">  1       -2 0.58974459E-01 0.79672984E+03</pdfrwt>
<totfact> 0.53276964E+01</totfact>
</mgrwt>
</event>
<event>
 4    1  0.3057048E-007  0.6889576E+03  0.7818608E-02  0.1004652E+00
         -2   -1    0    0    0  501 -0.00000000000E+00  0.00000000000E+00  0.11295295126E+04  0.11295295126E+04  0.25500000000E-02 0.  1.
          2   -1    0    0  501    0  0.00000000000E+00 -0.00000000000E+00 -0.56720134046E+03  0.56720134046E+03  0.25500000000E-02 0. -1.
    8880023    1    1    2    0    0  0.19601051398E+02  0.20116711342E+03  0.98610386369E+03  0.12029395018E+04  0.65864270000E+03 0.  1.
    8880022    1    1    2    0    0 -0.19601051398E+02 -0.20116711342E+03 -0.42377569159E+03  0.49379135122E+03  0.15294330000E+03 0.  0.
<mgrwt>
<rscale>  0 0.53656644E+03</rscale>
<asrwt>0</asrwt>
<pdfrwt beam="1">  1        2 0.87261745E-01 0.68895763E+03</pdfrwt>
<pdfrwt beam="2">  1       -2 0.17377377E+00 0.68895763E+03</pdfrwt>
<totfact> 0.10882334E+01</totfact>
</mgrwt>
</event>
<event>
 4    1  0.3057048E-007  0.9980558E+03  0.7818608E-02  0.9384106E-01
          2   -1    0    0  501    0  0.00000000000E+00  0.00000000000E+00  0.33977254365E+04  0.33977254365E+04  0.25500000000E-02 0. -1.
         -2   -1    0    0    0  501 -0.00000000000E+00 -0.00000000000E+00 -0.30493308167E+03  0.30493308168E+03  0.25500000000E-02 0.  1.
    8880023    1    1    2    0    0  0.54236062230E+03 -0.51783219465E+03  0.78048352192E+03  0.12669924864E+04  0.65864270000E+03 0.  0.
    8880022    1    1    2    0    0 -0.54236062230E+03  0.51783219465E+03  0.23123088329E+04  0.24356660318E+04  0.15294330000E+03 0.  0.
<mgrwt>
<rscale>  0 0.93395347E+03</rscale>
<asrwt>0</asrwt>
<pdfrwt beam="1">  1        2 0.52272694E+00 0.99805583E+03</pdfrwt>
<pdfrwt beam="2">  1       -2 0.46912786E-01 0.99805583E+03</pdfrwt>
<totfact> 0.42627650E+00</totfact>
</mgrwt>
</event>
<event>
 4    1  0.3057048E-007  0.6771644E+03  0.7818608E-02  0.1010975E+00
         -2   -1    0    0    0  501 -0.00000000000E+00  0.00000000000E+00  0.27945804065E+03  0.27945804066E+03  0.25500000000E-02 0.  1.
          2   -1    0    0  501    0  0.00000000000E+00 -0.00000000000E+00 -0.12954963274E+04  0.12954963274E+04  0.25500000000E-02 0. -1.
    8880023    1    1    2    0    0  0.15034570592E+03  0.46234270121E+02 -0.16621096336E+03  0.69726446176E+03  0.65864270000E+03 0.  1.
    8880022    1    1    2    0    0 -0.15034570592E+03 -0.46234270121E+02 -0.84982732336E+03  0.87768990627E+03  0.15294330000E+03 0.  0.
<mgrwt>
<rscale>  0 0.51088843E+03</rscale>
<asrwt>0</asrwt>
<pdfrwt beam="1">  1        2 0.19930712E+00 0.67716442E+03</pdfrwt>
<pdfrwt beam="2">  1       -2 0.42993545E-01 0.67716442E+03</pdfrwt>
<totfact> 0.87314287E+01</totfact>
</mgrwt>
</event>
<event>
 4    1  0.3057048E-007  0.6642986E+03  0.7818608E-02  0.1020129E+00
         -2   -1    0    0    0  501 -0.00000000000E+00  0.00000000000E+00  0.46459703689E+03  0.46459703689E+03  0.25500000000E-02 0.  1.
          2   -1    0    0  501    0  0.00000000000E+00 -0.00000000000E+00 -0.56801042421E+03  0.56801042421E+03  0.25500000000E-02 0. -1.
    8880023    1    1    2    0    0  0.50404998236E+02  0.70297931156E+02  0.18970787781E+03  0.69085580850E+03  0.65864270000E+03 0.  1.
    8880022    1    1    2    0    0 -0.50404998236E+02 -0.70297931156E+02 -0.29312126513E+03  0.34175165261E+03  0.15294330000E+03 0.  0.
<mgrwt>
<rscale>  0 0.47640009E+03</rscale>
<asrwt>0</asrwt>
<pdfrwt beam="1">  1        2 0.87386219E-01 0.66429863E+03</pdfrwt>
<pdfrwt beam="2">  1       -2 0.71476467E-01 0.66429863E+03</pdfrwt>
<totfact> 0.95643331E+01</totfact>
</mgrwt>
</event>
<event>
 4    1  0.3057048E-007  0.7526983E+03  0.7818608E-02  0.9824391E-01
         -2   -1    0    0    0  501 -0.00000000000E+00  0.00000000000E+00  0.33933048323E+03  0.33933048324E+03  0.25500000000E-02 0.  1.
          2   -1    0    0  501    0  0.00000000000E+00 -0.00000000000E+00 -0.13037138031E+04  0.13037138031E+04  0.25500000000E-02 0. -1.
    8880023    1    1    2    0    0  0.32585021006E+03  0.16299112223E+03 -0.99395760596E+03  0.12467984577E+04  0.65864270000E+03 0. -1.
    8880022    1    1    2    0    0 -0.32585021006E+03 -0.16299112223E+03  0.29574286106E+02  0.39624582867E+03  0.15294330000E+03 0.  0.
<mgrwt>
<rscale>  0 0.64069835E+03</rscale>
<asrwt>0</asrwt>
<pdfrwt beam="1">  1        2 0.20057135E+00 0.75269826E+03</pdfrwt>
<pdfrwt beam="2">  1       -2 0.52204690E-01 0.75269826E+03</pdfrwt>
<totfact> 0.58014170E+01</totfact>
</mgrwt>
</event>
<event>
 4    1  0.3057048E-007  0.1069137E+04  0.7818608E-02  0.9296223E-01
         -2   -1    0    0    0  501 -0.00000000000E+00  0.00000000000E+00  0.73587695255E+03  0.73587695255E+03  0.25500000000E-02 0.  1.
          2   -1    0    0  501    0  0.00000000000E+00 -0.00000000000E+00 -0.17070299174E+04  0.17070299174E+04  0.25500000000E-02 0. -1.
    8880023    1    1    2    0    0  0.71998908728E+03  0.43687367039E+03  0.97676450852E+02  0.10735892068E+04  0.65864270000E+03 0.  1.
    8880022    1    1    2    0    0 -0.71998908728E+03 -0.43687367039E+03 -0.10688294157E+04  0.13693176631E+04  0.15294330000E+03 0.  0.
<mgrwt>
<rscale>  0 0.10113135E+04</rscale>
<asrwt>0</asrwt>
<pdfrwt beam="1">  1        2 0.26261999E+00 0.10691366E+04</pdfrwt>
<pdfrwt beam="2">  1       -2 0.11321184E+00 0.10691366E+04</pdfrwt>
<totfact> 0.58867789E+00</totfact>
</mgrwt>
</event>
<event>
 4    1  0.3057048E-007  0.6667195E+03  0.7818608E-02  0.1018132E+00
          2   -1    0    0  501    0  0.00000000000E+00  0.00000000000E+00  0.26850555742E+03  0.26850555743E+03  0.25500000000E-02 0. -1.
         -2   -1    0    0    0  501 -0.00000000000E+00 -0.00000000000E+00 -0.11589676010E+04  0.11589676010E+04  0.25500000000E-02 0.  1.
    8880023    1    1    2    0    0 -0.58244708961E+02 -0.85511653267E+02 -0.10080306682E+04  0.12085697015E+04  0.65864270000E+03 0.  1.
    8880022    1    1    2    0    0  0.58244708961E+02  0.85511653267E+02  0.11756862463E+03  0.21890345698E+03  0.15294330000E+03 0.  0.
<mgrwt>
<rscale>  0 0.48366632E+03</rscale>
<asrwt>0</asrwt>
<pdfrwt beam="1">  1        2 0.41308548E-01 0.66671950E+03</pdfrwt>
<pdfrwt beam="2">  1       -2 0.17830271E+00 0.66671950E+03</pdfrwt>
<totfact> 0.23634395E+01</totfact>
</mgrwt>
</event>
<event>
 4    1  0.3057048E-007  0.6753691E+03  0.7818608E-02  0.1012075E+00
         -2   -1    0    0    0  501 -0.00000000000E+00  0.00000000000E+00  0.95997369225E+02  0.95997369259E+02  0.25500000000E-02 0.  1.
          2   -1    0    0  501    0  0.00000000000E+00 -0.00000000000E+00 -0.46146281416E+04  0.46146281416E+04  0.25500000000E-02 0. -1.
    8880023    1    1    2    0    0  0.14876524869E+03 -0.13494435835E+02 -0.11385445788E+04  0.13237851650E+04  0.65864270000E+03 0.  1.
    8880022    1    1    2    0    0 -0.14876524869E+03  0.13494435835E+02 -0.33800861935E+04  0.33868403458E+04  0.15294330000E+03 0.  0.
<mgrwt>
<rscale>  0 0.50658365E+03</rscale>
<asrwt>0</asrwt>
<pdfrwt beam="1">  1        2 0.70994262E+00 0.67536909E+03</pdfrwt>
<pdfrwt beam="2">  1       -2 0.14768830E-01 0.67536909E+03</pdfrwt>
<totfact> 0.39432189E+00</totfact>
</mgrwt>
</event>
<event>
 4    1  0.3057048E-007  0.1040827E+04  0.7818608E-02  0.9329991E-01
         -2   -1    0    0    0  501 -0.00000000000E+00  0.00000000000E+00  0.37453545406E+03  0.37453545406E+03  0.25500000000E-02 0.  1.
          2   -1    0    0  501    0  0.00000000000E+00 -0.00000000000E+00 -0.23323524614E+04  0.23323524614E+04  0.25500000000E-02 0. -1.
    8880023    1    1    2    0    0 -0.19474575887E+03 -0.78203827914E+03 -0.12192103637E+04  0.16030576714E+04  0.65864270000E+03 0.  1.
    8880022    1    1    2    0    0  0.19474575887E+03  0.78203827914E+03 -0.73860664359E+03  0.11038302440E+04  0.15294330000E+03 0.  0.
<mgrwt>
<rscale>  0 0.98068090E+03</rscale>
<asrwt>0</asrwt>
<pdfrwt beam="1">  1        2 0.35882345E+00 0.10408266E+04</pdfrwt>
<pdfrwt beam="2">  1       -2 0.57620840E-01 0.10408266E+04</pdfrwt>
<totfact> 0.12307672E+01</totfact>
</mgrwt>
</event>
<event>
 4    1  0.3057048E-007  0.8336401E+03  0.7818608E-02  0.9642291E-01
          2   -1    0    0  501    0  0.00000000000E+00  0.00000000000E+00  0.13656632700E+04  0.13656632700E+04  0.25500000000E-02 0. -1.
         -2   -1    0    0    0  501 -0.00000000000E+00 -0.00000000000E+00 -0.65924710414E+03  0.65924710415E+03  0.25500000000E-02 0.  1.
    8880023    1    1    2    0    0  0.33567891465E+03 -0.38531199290E+03 -0.29991293228E+03  0.88594787591E+03  0.65864270000E+03 0.  0.
    8880022    1    1    2    0    0 -0.33567891465E+03  0.38531199290E+03  0.10063290981E+04  0.11389624982E+04  0.15294330000E+03 0.  0.
<mgrwt>
<rscale>  0 0.74559222E+03</rscale>
<asrwt>0</asrwt>
<pdfrwt beam="1">  1        2 0.21010204E+00 0.83364013E+03</pdfrwt>
<pdfrwt beam="2">  1       -2 0.10142263E+00 0.83364013E+03</pdfrwt>
<totfact> 0.12238626E+01</totfact>
</mgrwt>
</event>
<event>
 4    1  0.3057048E-007  0.9429816E+03  0.7818608E-02  0.9460285E-01
         -2   -1    0    0    0  501 -0.00000000000E+00  0.00000000000E+00  0.24763183951E+04  0.24763183951E+04  0.25500000000E-02 0.  1.
          2   -1    0    0  501    0  0.00000000000E+00 -0.00000000000E+00 -0.10959239447E+04  0.10959239447E+04  0.25500000000E-02 0. -1.
    8880023    1    1    2    0    0  0.60301831374E+03  0.30294045821E+03  0.22624868085E+04  0.24511345889E+04  0.65864270000E+03 0.  1.
    8880022    1    1    2    0    0 -0.60301831374E+03 -0.30294045821E+03 -0.88209235813E+03  0.11211077509E+04  0.15294330000E+03 0.  0.
<mgrwt>
<rscale>  0 0.87276269E+03</rscale>
<asrwt>0</asrwt>
<pdfrwt beam="1">  1        2 0.16860369E+00 0.94298156E+03</pdfrwt>
<pdfrwt beam="2">  1       -2 0.38097206E+00 0.94298156E+03</pdfrwt>
<totfact> 0.22176285E-01</totfact>
</mgrwt>
</event>
<event>
 4    1  0.3057048E-007  0.1051693E+04  0.7818608E-02  0.9316849E-01
         -2   -1    0    0    0  501 -0.00000000000E+00  0.00000000000E+00  0.47631738257E+03  0.47631738257E+03  0.25500000000E-02 0.  1.
          2   -1    0    0  501    0  0.00000000000E+00 -0.00000000000E+00 -0.29151496999E+04  0.29151496999E+04  0.25500000000E-02 0. -1.
    8880023    1    1    2    0    0 -0.23635832486E+03  0.78510054692E+03 -0.29677983465E+03  0.10927655755E+04  0.65864270000E+03 0.  0.
    8880022    1    1    2    0    0  0.23635832486E+03 -0.78510054692E+03 -0.21420524827E+04  0.22987015070E+04  0.15294330000E+03 0.  0.
<mgrwt>
<rscale>  0 0.99246412E+03</rscale>
<asrwt>0</asrwt>
<pdfrwt beam="1">  1        2 0.44848456E+00 0.10516931E+04</pdfrwt>
<pdfrwt beam="2">  1       -2 0.73279599E-01 0.10516931E+04</pdfrwt>
<totfact> 0.33456483E+00</totfact>
</mgrwt>
</event>
<event>
 4    1  0.3057048E-007  0.7914384E+03  0.7818608E-02  0.9729623E-01
         -2   -1    0    0    0  501 -0.00000000000E+00  0.00000000000E+00  0.10061874828E+04  0.10061874828E+04  0.25500000000E-02 0.  1.
          2   -1    0    0  501    0  0.00000000000E+00 -0.00000000000E+00 -0.40644306113E+03  0.40644306114E+03  0.25500000000E-02 0. -1.
    8880023    1    1    2    0    0  0.42907692790E+03 -0.91964900868E+02  0.24661136093E+03  0.82897039914E+03  0.65864270000E+03 0.  1.
    8880022    1    1    2    0    0 -0.42907692790E+03  0.91964900868E+02  0.35313306078E+03  0.58366014484E+03  0.15294330000E+03 0. -1.
<mgrwt>
<rscale>  0 0.69280108E+03</rscale>
<asrwt>0</asrwt>
<pdfrwt beam="1">  1        2 0.62529702E-01 0.79143841E+03</pdfrwt>
<pdfrwt beam="2">  1       -2 0.15479807E+00 0.79143841E+03</pdfrwt>
<totfact> 0.21727793E+01</totfact>
</mgrwt>
</event>
<event>
 4    1  0.3057048E-007  0.7482482E+03  0.7818608E-02  0.9836541E-01
         -2   -1    0    0    0  501 -0.00000000000E+00  0.00000000000E+00  0.14711968171E+03  0.14711968174E+03  0.25500000000E-02 0.  1.
          2   -1    0    0  501    0  0.00000000000E+00 -0.00000000000E+00 -0.22883265949E+04  0.22883265950E+04  0.25500000000E-02 0. -1.
    8880023    1    1    2    0    0 -0.19577763237E+03 -0.29620305756E+03 -0.11551960711E+04  0.13763550783E+04  0.65864270000E+03 0. -1.
    8880022    1    1    2    0    0  0.19577763237E+03  0.29620305756E+03 -0.98601084217E+03  0.10590911984E+04  0.15294330000E+03 0.  0.
<mgrwt>
<rscale>  0 0.63437887E+03</rscale>
<asrwt>0</asrwt>
<pdfrwt beam="1">  1        2 0.35205022E+00 0.74824818E+03</pdfrwt>
<pdfrwt beam="2">  1       -2 0.22633799E-01 0.74824818E+03</pdfrwt>
<totfact> 0.81562035E+01</totfact>
</mgrwt>
</event>
<event>
 4    1  0.3057048E-007  0.6896475E+03  0.7818608E-02  0.1004321E+00
          2   -1    0    0  501    0  0.00000000000E+00  0.00000000000E+00  0.54769234471E+03  0.54769234472E+03  0.25500000000E-02 0. -1.
         -2   -1    0    0    0  501 -0.00000000000E+00 -0.00000000000E+00 -0.64816254756E+03  0.64816254757E+03  0.25500000000E-02 0.  1.
    8880023    1    1    2    0    0  0.20297199585E+03 -0.24614564686E+02 -0.40395582701E+03  0.79924590980E+03  0.65864270000E+03 0.  1.
    8880022    1    1    2    0    0 -0.20297199585E+03  0.24614564686E+02  0.30348562416E+03  0.39660898248E+03  0.15294330000E+03 0.  0.
<mgrwt>
<rscale>  0 0.53795668E+03</rscale>
<asrwt>0</asrwt>
<pdfrwt beam="1">  1        2 0.84260361E-01 0.68964753E+03</pdfrwt>
<pdfrwt beam="2">  1       -2 0.99717315E-01 0.68964753E+03</pdfrwt>
<totfact> 0.46768055E+01</totfact>
</mgrwt>
</event>
<event>
 4    1  0.3057048E-007  0.7846362E+03  0.7818608E-02  0.9745057E-01
          2   -1    0    0  501    0  0.00000000000E+00  0.00000000000E+00  0.94108715606E+03  0.94108715607E+03  0.25500000000E-02 0. -1.
         -2   -1    0    0    0  501 -0.00000000000E+00 -0.00000000000E+00 -0.49913716895E+03  0.49913716896E+03  0.25500000000E-02 0.  1.
    8880023    1    1    2    0    0 -0.32716745767E+03  0.27350537258E+03 -0.31076648086E+02  0.78525136008E+03  0.65864270000E+03 0.  1.
    8880022    1    1    2    0    0  0.32716745767E+03 -0.27350537258E+03  0.47302663520E+03  0.65497296494E+03  0.15294330000E+03 0.  0.
<mgrwt>
<rscale>  0 0.68396327E+03</rscale>
<asrwt>0</asrwt>
<pdfrwt beam="1">  1        2 0.14478264E+00 0.78463618E+03</pdfrwt>
<pdfrwt beam="2">  1       -2 0.76790335E-01 0.78463618E+03</pdfrwt>
<totfact> 0.42203121E+01</totfact>
</mgrwt>
</event>
<event>
 4    1  0.3057048E-007  0.1040510E+04  0.7818608E-02  0.9330378E-01
         -2   -1    0    0    0  501 -0.00000000000E+00  0.00000000000E+00  0.82309461981E+03  0.82309461981E+03  0.25500000000E-02 0.  1.
          2   -1    0    0  501    0  0.00000000000E+00 -0.00000000000E+00 -0.10988875063E+04  0.10988875063E+04  0.25500000000E-02 0. -1.
    8880023    1    1    2    0    0  0.76575807990E+03  0.24992927628E+03  0.45181355668E+02  0.10414901062E+04  0.65864270000E+03 0.  0.
    8880022    1    1    2    0    0 -0.76575807990E+03 -0.24992927628E+03 -0.32097424218E+03  0.88049201997E+03  0.15294330000E+03 0.  0.
<mgrwt>
<rscale>  0 0.98033670E+03</rscale>
<asrwt>0</asrwt>
<pdfrwt beam="1">  1        2 0.16905962E+00 0.10405096E+04</pdfrwt>
<pdfrwt beam="2">  1       -2 0.12662994E+00 0.10405096E+04</pdfrwt>
<totfact> 0.10011517E+01</totfact>
</mgrwt>
</event>
<event>
 4    1  0.3057048E-007  0.8786719E+03  0.7818608E-02  0.9561176E-01
          2   -1    0    0  501    0  0.00000000000E+00  0.00000000000E+00  0.60835240783E+03  0.60835240784E+03  0.25500000000E-02 0. -1.
         -2   -1    0    0    0  501 -0.00000000000E+00 -0.00000000000E+00 -0.10465955087E+04  0.10465955087E+04  0.25500000000E-02 0.  1.
    8880023    1    1    2    0    0 -0.40022810689E+03 -0.42198521103E+03 -0.55921619798E+03  0.10415310933E+04  0.65864270000E+03 0.  1.
    8880022    1    1    2    0    0  0.40022810689E+03  0.42198521103E+03  0.12097309709E+03  0.61341682330E+03  0.15294330000E+03 0. -1.
<mgrwt>
<rscale>  0 0.79919997E+03</rscale>
<asrwt>0</asrwt>
<pdfrwt beam="1">  1        2 0.93592678E-01 0.87867187E+03</pdfrwt>
<pdfrwt beam="2">  1       -2 0.16101469E+00 0.87867187E+03</pdfrwt>
<totfact> 0.12112414E+01</totfact>
</mgrwt>
</event>
<event>
 4    1  0.3057048E-007  0.1004324E+04  0.7818608E-02  0.9375922E-01
         -2   -1    0    0    0  501 -0.00000000000E+00  0.00000000000E+00  0.91981373419E+03  0.91981373420E+03  0.25500000000E-02 0.  1.
          2   -1    0    0  501    0  0.00000000000E+00 -0.00000000000E+00 -0.13104079662E+04  0.13104079662E+04  0.25500000000E-02 0. -1.
    8880023    1    1    2    0    0  0.93227394962E+02  0.75243948008E+03  0.43892459885E+03  0.10960481413E+04  0.65864270000E+03 0.  1.
    8880022    1    1    2    0    0 -0.93227394962E+02 -0.75243948008E+03 -0.82951883082E+03  0.11341735591E+04  0.15294330000E+03 0.  0.
<mgrwt>
<rscale>  0 0.94083953E+03</rscale>
<asrwt>0</asrwt>
<pdfrwt beam="1">  1        2 0.20160123E+00 0.10043240E+04</pdfrwt>
<pdfrwt beam="2">  1       -2 0.14150980E+00 0.10043240E+04</pdfrwt>
<totfact> 0.56452668E+00</totfact>
</mgrwt>
</event>
<event>
 4    1  0.3057048E-007  0.6704653E+03  0.7818608E-02  0.1015331E+00
          2   -1    0    0  501    0  0.00000000000E+00  0.00000000000E+00  0.18851315507E+04  0.18851315507E+04  0.25500000000E-02 0. -1.
         -2   -1    0    0    0  501 -0.00000000000E+00 -0.00000000000E+00 -0.12113200918E+03  0.12113200921E+03  0.25500000000E-02 0.  1.
    8880023    1    1    2    0    0 -0.12424127102E+03  0.16662987621E+02  0.91387448655E+03  0.11334418080E+04  0.65864270000E+03 0.  1.
    8880022    1    1    2    0    0  0.12424127102E+03 -0.16662987621E+02  0.85012505493E+03  0.87282175191E+03  0.15294330000E+03 0.  0.
<mgrwt>
<rscale>  0 0.49409625E+03</rscale>
<asrwt>0</asrwt>
<pdfrwt beam="1">  1        2 0.29002025E+00 0.67046533E+03</pdfrwt>
<pdfrwt beam="2">  1       -2 0.18635693E-01 0.67046533E+03</pdfrwt>
<totfact> 0.19229447E+02</totfact>
</mgrwt>
</event>
<event>
 4    1  0.3057048E-007  0.6891451E+03  0.7818608E-02  0.1004562E+00
          2   -1    0    0  501    0  0.00000000000E+00  0.00000000000E+00  0.12050439534E+04  0.12050439534E+04  0.25500000000E-02 0. -1.
         -2   -1    0    0    0  501 -0.00000000000E+00 -0.00000000000E+00 -0.38419862331E+03  0.38419862332E+03  0.25500000000E-02 0.  1.
    8880023    1    1    2    0    0 -0.90256497438E+02 -0.18156143669E+03 -0.41384130043E+02  0.69038658961E+03  0.65864270000E+03 0.  1.
    8880022    1    1    2    0    0  0.90256497438E+02  0.18156143669E+03  0.86222946011E+03  0.89885598708E+03  0.15294330000E+03 0.  0.
<mgrwt>
<rscale>  0 0.53694529E+03</rscale>
<asrwt>0</asrwt>
<pdfrwt beam="1">  1        2 0.18539138E+00 0.68914512E+03</pdfrwt>
<pdfrwt beam="2">  1       -2 0.59107480E-01 0.68914512E+03</pdfrwt>
<totfact> 0.51480920E+01</totfact>
</mgrwt>
</event>
<event>
 4    1  0.3057048E-007  0.1141424E+04  0.7818608E-02  0.9216279E-01
         -2   -1    0    0    0  501 -0.00000000000E+00  0.00000000000E+00  0.20716967723E+04  0.20716967724E+04  0.25500000000E-02 0.  1.
          2   -1    0    0  501    0  0.00000000000E+00 -0.00000000000E+00 -0.11575938474E+04  0.11575938474E+04  0.25500000000E-02 0. -1.
    8880023    1    1    2    0    0  0.83395901600E+03 -0.41659332104E+03  0.16676570268E+04  0.20208730293E+04  0.65864270000E+03 0.  0.
    8880022    1    1    2    0    0 -0.83395901600E+03  0.41659332104E+03 -0.75355410185E+03  0.12084175905E+04  0.15294330000E+03 0.  0.
<mgrwt>
<rscale>  0 0.10886966E+04</rscale>
<asrwt>0</asrwt>
<pdfrwt beam="1">  1        2 0.17809136E+00 0.11414236E+04</pdfrwt>
<pdfrwt beam="2">  1       -2 0.31872257E+00 0.11414236E+04</pdfrwt>
<totfact> 0.48308224E-01</totfact>
</mgrwt>
</event>
<event>
 4    1  0.3057048E-007  0.6799537E+03  0.7818608E-02  0.1009350E+00
         -2   -1    0    0    0  501 -0.00000000000E+00  0.00000000000E+00  0.26018554545E+03  0.26018554546E+03  0.25500000000E-02 0.  1.
          2   -1    0    0  501    0  0.00000000000E+00 -0.00000000000E+00 -0.30139247214E+04  0.30139247214E+04  0.25500000000E-02 0. -1.
    8880023    1    1    2    0    0 -0.64861625871E+02 -0.15594823897E+03 -0.19794655658E+03  0.70818071795E+03  0.65864270000E+03 0.  0.
    8880022    1    1    2    0    0  0.64861625871E+02  0.15594823897E+03 -0.25557926194E+04  0.25659295489E+04  0.15294330000E+03 0.  0.
<mgrwt>
<rscale>  0 0.51733854E+03</rscale>
<asrwt>0</asrwt>
<pdfrwt beam="1">  1        2 0.46368070E+00 0.67995374E+03</pdfrwt>
<pdfrwt beam="2">  1       -2 0.40028548E-01 0.67995374E+03</pdfrwt>
<totfact> 0.10858024E+01</totfact>
</mgrwt>
</event>
<event>
 4    1  0.3057048E-007  0.1061596E+04  0.7818608E-02  0.9305070E-01
          2   -1    0    0  501    0  0.00000000000E+00  0.00000000000E+00  0.82310864621E+03  0.82310864621E+03  0.25500000000E-02 0. -1.
         -2   -1    0    0    0  501 -0.00000000000E+00 -0.00000000000E+00 -0.13442692481E+04  0.13442692481E+04  0.25500000000E-02 0.  1.
    8880023    1    1    2    0    0 -0.74996733684E+03  0.36155817228E+03 -0.73876689530E+03  0.12933530261E+04  0.65864270000E+03 0.  1.
    8880022    1    1    2    0    0  0.74996733684E+03 -0.36155817228E+03  0.21760629342E+03  0.87402486820E+03  0.15294330000E+03 0.  0.
<mgrwt>
<rscale>  0 0.10031745E+04</rscale>
<asrwt>0</asrwt>
<pdfrwt beam="1">  1        2 0.12663210E+00 0.10615957E+04</pdfrwt>
<pdfrwt beam="2">  1       -2 0.20681065E+00 0.10615957E+04</pdfrwt>
<totfact> 0.39293861E+00</totfact>
</mgrwt>
</event>
<event>
 4    1  0.3057048E-007  0.6625740E+03  0.7818608E-02  0.1021662E+00
         -2   -1    0    0    0  501 -0.00000000000E+00  0.00000000000E+00  0.11206081694E+03  0.11206081696E+03  0.25500000000E-02 0.  1.
          2   -1    0    0  501    0  0.00000000000E+00 -0.00000000000E+00 -0.17270256830E+04  0.17270256830E+04  0.25500000000E-02 0. -1.
    8880023    1    1    2    0    0  0.38045848731E+01  0.71969898598E+02 -0.98707782471E+03  0.11888342944E+04  0.65864270000E+03 0.  1.
    8880022    1    1    2    0    0 -0.38045848731E+01 -0.71969898598E+02 -0.62788704139E+03  0.65025220563E+03  0.15294330000E+03 0.  0.
<mgrwt>
<rscale>  0 0.47091724E+03</rscale>
<asrwt>0</asrwt>
<pdfrwt beam="1">  1        2 0.26569624E+00 0.66257403E+03</pdfrwt>
<pdfrwt beam="2">  1       -2 0.17240127E-01 0.66257403E+03</pdfrwt>
<totfact> 0.26816456E+02</totfact>
</mgrwt>
</event>
<event>
 4    1  0.3057048E-007  0.8588249E+03  0.7818608E-02  0.9595657E-01
          2   -1    0    0  501    0  0.00000000000E+00  0.00000000000E+00  0.51931767807E+03  0.51931767808E+03  0.25500000000E-02 0. -1.
         -2   -1    0    0    0  501 -0.00000000000E+00 -0.00000000000E+00 -0.17691539885E+04  0.17691539886E+04  0.25500000000E-02 0.  1.
    8880023    1    1    2    0    0  0.53540832703E+03 -0.13079699719E+03 -0.14476659843E+04  0.16832459534E+04  0.65864270000E+03 0.  0.
    8880022    1    1    2    0    0 -0.53540832703E+03  0.13079699719E+03  0.19782967384E+03  0.60522571326E+03  0.15294330000E+03 0.  0.
<mgrwt>
<rscale>  0 0.77584282E+03</rscale>
<asrwt>0</asrwt>
<pdfrwt beam="1">  1        2 0.79895028E-01 0.85882486E+03</pdfrwt>
<pdfrwt beam="2">  1       -2 0.27217753E+00 0.85882486E+03</pdfrwt>
<totfact> 0.28228447E+00</totfact>
</mgrwt>
</event>
<event>
 4    1  0.3057048E-007  0.9795856E+03  0.7818608E-02  0.9408767E-01
         -2   -1    0    0    0  501 -0.00000000000E+00  0.00000000000E+00  0.68935364396E+03  0.68935364397E+03  0.25500000000E-02 0.  1.
          2   -1    0    0  501    0  0.00000000000E+00 -0.00000000000E+00 -0.15426327132E+04  0.15426327132E+04  0.25500000000E-02 0. -1.
    8880023    1    1    2    0    0 -0.72395309625E+03 -0.40861985915E+02  0.14336890432E+03  0.99002153333E+03  0.65864270000E+03 0.  0.
    8880022    1    1    2    0    0  0.72395309625E+03  0.40861985915E+02 -0.99664797360E+03  0.12419648239E+04  0.15294330000E+03 0.  0.
<mgrwt>
<rscale>  0 0.91357687E+03</rscale>
<asrwt>0</asrwt>
<pdfrwt beam="1">  1        2 0.23732811E+00 0.97958562E+03</pdfrwt>
<pdfrwt beam="2">  1       -2 0.10605441E+00 0.97958562E+03</pdfrwt>
<totfact> 0.85969301E+00</totfact>
</mgrwt>
</event>
<event>
 4    1  0.3057048E-007  0.7334931E+03  0.7818608E-02  0.9879323E-01
          2   -1    0    0  501    0  0.00000000000E+00  0.00000000000E+00  0.14599845230E+04  0.14599845230E+04  0.25500000000E-02 0. -1.
         -2   -1    0    0    0  501 -0.00000000000E+00 -0.00000000000E+00 -0.45128377070E+03  0.45128377071E+03  0.25500000000E-02 0.  1.
    8880023    1    1    2    0    0 -0.23471665661E+03 -0.22160765247E+03 -0.10565387058E+03  0.74106329497E+03  0.65864270000E+03 0.  1.
    8880022    1    1    2    0    0  0.23471665661E+03  0.22160765247E+03  0.11143546228E+04  0.11702049987E+04  0.15294330000E+03 0.  0.
<mgrwt>
<rscale>  0 0.61273908E+03</rscale>
<asrwt>0</asrwt>
<pdfrwt beam="1">  1        2 0.22461300E+00 0.73349306E+03</pdfrwt>
<pdfrwt beam="2">  1       -2 0.69428272E-01 0.73349306E+03</pdfrwt>
<totfact> 0.25940165E+01</totfact>
</mgrwt>
</event>
<event>
 4    1  0.3057048E-007  0.6746439E+03  0.7818608E-02  0.1012532E+00
          2   -1    0    0  501    0  0.00000000000E+00  0.00000000000E+00  0.28092628599E+04  0.28092628599E+04  0.25500000000E-02 0. -1.
         -2   -1    0    0    0  501 -0.00000000000E+00 -0.00000000000E+00 -0.72785014791E+02  0.72785014835E+02  0.25500000000E-02 0.  1.
    8880023    1    1    2    0    0 -0.47739237880E+02  0.13804034756E+03  0.18074753368E+04  0.19292774481E+04  0.65864270000E+03 0.  0.
    8880022    1    1    2    0    0  0.47739237880E+02 -0.13804034756E+03  0.92900250832E+03  0.95277042664E+03  0.15294330000E+03 0.  0.
<mgrwt>
<rscale>  0 0.50480743E+03</rscale>
<asrwt>0</asrwt>
<pdfrwt beam="1">  1        2 0.43219419E+00 0.67464389E+03</pdfrwt>
<pdfrwt beam="2">  1       -2 0.11197697E-01 0.67464389E+03</pdfrwt>
<totfact> 0.13775174E+02</totfact>
</mgrwt>
</event>
<event>
 4    1  0.3057048E-007  0.1314769E+04  0.7818608E-02  0.9052910E-01
         -2   -1    0    0    0  501 -0.00000000000E+00  0.00000000000E+00  0.47847085585E+03  0.47847085586E+03  0.25500000000E-02 0.  1.
          2   -1    0    0  501    0  0.00000000000E+00 -0.00000000000E+00 -0.40591734871E+04  0.40591734871E+04  0.25500000000E-02 0. -1.
    8880023    1    1    2    0    0 -0.42951085356E+03 -0.10537206494E+04 -0.29452709661E+04  0.32254050987E+04  0.65864270000E+03 0.  0.
    8880022    1    1    2    0    0  0.42951085356E+03  0.10537206494E+04 -0.63543166518E+03  0.13122392443E+04  0.15294330000E+03 0.  0.
<mgrwt>
<rscale>  0 0.12709681E+04</rscale>
<asrwt>0</asrwt>
<pdfrwt beam="1">  1        2 0.62448821E+00 0.13147688E+04</pdfrwt>
<pdfrwt beam="2">  1       -2 0.73610904E-01 0.13147688E+04</pdfrwt>
<totfact> 0.51023100E-01</totfact>
</mgrwt>
</event>
<event>
 4    1  0.3057048E-007  0.7628581E+03  0.7818608E-02  0.9797763E-01
         -2   -1    0    0    0  501 -0.00000000000E+00  0.00000000000E+00  0.51249251485E+03  0.51249251486E+03  0.25500000000E-02 0.  1.
          2   -1    0    0  501    0  0.00000000000E+00 -0.00000000000E+00 -0.12627470215E+04  0.12627470215E+04  0.25500000000E-02 0. -1.
    8880023    1    1    2    0    0 -0.19045547851E+03  0.33446830314E+03  0.15616671337E+03  0.77867874231E+03  0.65864270000E+03 0.  1.
    8880022    1    1    2    0    0  0.19045547851E+03 -0.33446830314E+03 -0.90642122002E+03  0.99656079404E+03  0.15294330000E+03 0.  0.
<mgrwt>
<rscale>  0 0.65482705E+03</rscale>
<asrwt>0</asrwt>
<pdfrwt beam="1">  1        2 0.19426877E+00 0.76285814E+03</pdfrwt>
<pdfrwt beam="2">  1       -2 0.78845002E-01 0.76285814E+03</pdfrwt>
<totfact> 0.25284428E+01</totfact>
</mgrwt>
</event>
<event>
 4    1  0.3057048E-007  0.8716023E+03  0.7818608E-02  0.9573249E-01
         -2   -1    0    0    0  501 -0.00000000000E+00  0.00000000000E+00  0.46944346207E+03  0.46944346208E+03  0.25500000000E-02 0.  1.
          2   -1    0    0  501    0  0.00000000000E+00 -0.00000000000E+00 -0.15329988263E+04  0.15329988263E+04  0.25500000000E-02 0. -1.
    8880023    1    1    2    0    0  0.63164801437E+02 -0.56735400322E+03 -0.10713849235E+03  0.87816241090E+03  0.65864270000E+03 0.  1.
    8880022    1    1    2    0    0 -0.63164801437E+02  0.56735400322E+03 -0.95641687187E+03  0.11242798775E+04  0.15294330000E+03 0.  0.
<mgrwt>
<rscale>  0 0.79092308E+03</rscale>
<asrwt>0</asrwt>
<pdfrwt beam="1">  1        2 0.23584597E+00 0.87160230E+03</pdfrwt>
<pdfrwt beam="2">  1       -2 0.72222072E-01 0.87160230E+03</pdfrwt>
<totfact> 0.21329805E+01</totfact>
</mgrwt>
</event>
<event>
 4    1  0.3057048E-007  0.6861016E+03  0.7818608E-02  0.1006063E+00
         -2   -1    0    0    0  501 -0.00000000000E+00  0.00000000000E+00  0.23846375370E+03  0.23846375371E+03  0.25500000000E-02 0.  1.
          2   -1    0    0  501    0  0.00000000000E+00 -0.00000000000E+00 -0.91898767964E+03  0.91898767964E+03  0.25500000000E-02 0. -1.
    8880023    1    1    2    0    0 -0.51359842916E+02  0.18516855291E+03 -0.44922072841E+03  0.82008212732E+03  0.65864270000E+03 0.  1.
    8880022    1    1    2    0    0  0.51359842916E+02 -0.18516855291E+03 -0.23130319753E+03  0.33736930604E+03  0.15294330000E+03 0. -1.
<mgrwt>
<rscale>  0 0.53069646E+03</rscale>
<asrwt>0</asrwt>
<pdfrwt beam="1">  1        2 0.14138272E+00 0.68610162E+03</pdfrwt>
<pdfrwt beam="2">  1       -2 0.36686732E-01 0.68610162E+03</pdfrwt>
<totfact> 0.20191722E+02</totfact>
</mgrwt>
</event>
<event>
 4    1  0.3057048E-007  0.8688523E+03  0.7818608E-02  0.9578007E-01
          2   -1    0    0  501    0  0.00000000000E+00  0.00000000000E+00  0.19178561433E+04  0.19178561433E+04  0.25500000000E-02 0. -1.
         -2   -1    0    0    0  501 -0.00000000000E+00 -0.00000000000E+00 -0.36051628713E+03  0.36051628714E+03  0.25500000000E-02 0.  1.
    8880023    1    1    2    0    0  0.24493814686E+03  0.51097879649E+03  0.35146666553E+03  0.93724759241E+03  0.65864270000E+03 0.  1.
    8880022    1    1    2    0    0 -0.24493814686E+03 -0.51097879649E+03  0.12058731907E+04  0.13411248381E+04  0.15294330000E+03 0. -1.
<mgrwt>
<rscale>  0 0.78769093E+03</rscale>
<asrwt>0</asrwt>
<pdfrwt beam="1">  1        2 0.29505479E+00 0.86885225E+03</pdfrwt>
<pdfrwt beam="2">  1       -2 0.55464044E-01 0.86885225E+03</pdfrwt>
<totfact> 0.23055282E+01</totfact>
</mgrwt>
</event>
<event>
 4    1  0.3057048E-007  0.1021947E+04  0.7818608E-02  0.9353391E-01
         -2   -1    0    0    0  501 -0.00000000000E+00  0.00000000000E+00  0.42115172056E+03  0.42115172056E+03  0.25500000000E-02 0.  1.
          2   -1    0    0  501    0  0.00000000000E+00 -0.00000000000E+00 -0.20360624904E+04  0.20360624904E+04  0.25500000000E-02 0. -1.
    8880023    1    1    2    0    0  0.61542445985E+03  0.48147565948E+03 -0.67197567915E+03  0.12230811895E+04  0.65864270000E+03 0.  1.
    8880022    1    1    2    0    0 -0.61542445985E+03 -0.48147565948E+03 -0.94293509074E+03  0.12341330215E+04  0.15294330000E+03 0. -1.
<mgrwt>
<rscale>  0 0.96012751E+03</rscale>
<asrwt>0</asrwt>
<pdfrwt beam="1">  1        2 0.31324038E+00 0.10219473E+04</pdfrwt>
<pdfrwt beam="2">  1       -2 0.64792573E-01 0.10219473E+04</pdfrwt>
<totfact> 0.14043406E+01</totfact>
</mgrwt>
</event>
<event>
 4    1  0.3057048E-007  0.9344998E+03  0.7818608E-02  0.9472775E-01
         -2   -1    0    0    0  501 -0.00000000000E+00  0.00000000000E+00  0.69343995873E+03  0.69343995874E+03  0.25500000000E-02 0.  1.
          2   -1    0    0  501    0  0.00000000000E+00 -0.00000000000E+00 -0.12472746789E+04  0.12472746789E+04  0.25500000000E-02 0. -1.
    8880023    1    1    2    0    0  0.50235842770E+03  0.43256863900E+03  0.16723468918E+03  0.94934570355E+03  0.65864270000E+03 0.  1.
    8880022    1    1    2    0    0 -0.50235842770E+03 -0.43256863900E+03 -0.72106940930E+03  0.99136893404E+03  0.15294330000E+03 0.  0.
<mgrwt>
<rscale>  0 0.86321092E+03</rscale>
<asrwt>0</asrwt>
<pdfrwt beam="1">  1        2 0.19188841E+00 0.93449977E+03</pdfrwt>
<pdfrwt beam="2">  1       -2 0.10668307E+00 0.93449977E+03</pdfrwt>
<totfact> 0.12559224E+01</totfact>
</mgrwt>
</event>
<event>
 4    1  0.3057048E-007  0.7597052E+03  0.7818608E-02  0.9805871E-01
         -2   -1    0    0    0  501 -0.00000000000E+00  0.00000000000E+00  0.14531683210E+04  0.14531683210E+04  0.25500000000E-02 0.  1.
          2   -1    0    0  501    0  0.00000000000E+00 -0.00000000000E+00 -0.39680514928E+03  0.39680514929E+03  0.25500000000E-02 0. -1.
    8880023    1    1    2    0    0 -0.25615407917E+03  0.27879550342E+03  0.11973177937E+04  0.14179992773E+04  0.65864270000E+03 0.  0.
    8880022    1    1    2    0    0  0.25615407917E+03 -0.27879550342E+03 -0.14095462194E+03  0.43197419305E+03  0.15294330000E+03 0.  0.
<mgrwt>
<rscale>  0 0.65048412E+03</rscale>
<asrwt>0</asrwt>
<pdfrwt beam="1">  1        2 0.61046945E-01 0.75970524E+03</pdfrwt>
<pdfrwt beam="2">  1       -2 0.22356436E+00 0.75970524E+03</pdfrwt>
<totfact> 0.76925434E+00</totfact>
</mgrwt>
</event>
<event>
 4    1  0.3057048E-007  0.8302595E+03  0.7818608E-02  0.9648828E-01
          2   -1    0    0  501    0  0.00000000000E+00  0.00000000000E+00  0.14555010609E+04  0.14555010609E+04  0.25500000000E-02 0. -1.
         -2   -1    0    0    0  501 -0.00000000000E+00 -0.00000000000E+00 -0.64284066575E+03  0.64284066576E+03  0.25500000000E-02 0.  1.
    8880023    1    1    2    0    0 -0.34304134000E+03  0.37127252896E+03 -0.28697836916E+03  0.87845742204E+03  0.65864270000E+03 0.  0.
    8880022    1    1    2    0    0  0.34304134000E+03 -0.37127252896E+03  0.10996387643E+04  0.12198843047E+04  0.15294330000E+03 0.  0.
<mgrwt>
<rscale>  0 0.74147046E+03</rscale>
<asrwt>0</asrwt>
<pdfrwt beam="1">  1        2 0.22392324E+00 0.83025951E+03</pdfrwt>
<pdfrwt beam="2">  1       -2 0.98898566E-01 0.83025951E+03</pdfrwt>
<totfact> 0.11561714E+01</totfact>
</mgrwt>
</event>
<event>
 4    1  0.3057048E-007  0.9239775E+03  0.7818608E-02  0.9488587E-01
          2   -1    0    0  501    0  0.00000000000E+00  0.00000000000E+00  0.18826554216E+04  0.18826554216E+04  0.25500000000E-02 0. -1.
         -2   -1    0    0    0  501 -0.00000000000E+00 -0.00000000000E+00 -0.44118785219E+03  0.44118785219E+03  0.25500000000E-02 0.  1.
    8880023    1    1    2    0    0  0.64355272068E+03  0.75921931991E+02  0.24713571253E+03  0.95645727072E+03  0.65864270000E+03 0.  0.
    8880022    1    1    2    0    0 -0.64355272068E+03 -0.75921931991E+02  0.11943318569E+04  0.13673860031E+04  0.15294330000E+03 0.  0.
<mgrwt>
<rscale>  0 0.85130506E+03</rscale>
<asrwt>0</asrwt>
<pdfrwt beam="1">  1        2 0.28963929E+00 0.92397752E+03</pdfrwt>
<pdfrwt beam="2">  1       -2 0.67875056E-01 0.92397752E+03</pdfrwt>
<totfact> 0.15587297E+01</totfact>
</mgrwt>
</event>
<event>
 4    1  0.3057048E-007  0.6785622E+03  0.7818608E-02  0.1010149E+00
          2   -1    0    0  501    0  0.00000000000E+00  0.00000000000E+00  0.24023539937E+03  0.24023539938E+03  0.25500000000E-02 0. -1.
         -2   -1    0    0    0  501 -0.00000000000E+00 -0.00000000000E+00 -0.11810505129E+04  0.11810505129E+04  0.25500000000E-02 0.  1.
    8880023    1    1    2    0    0 -0.63871959187E+02  0.15018920877E+03 -0.98221770727E+03  0.11938166762E+04  0.65864270000E+03 0.  1.
    8880022    1    1    2    0    0  0.63871959187E+02 -0.15018920877E+03  0.41402593719E+02  0.22746923612E+03  0.15294330000E+03 0.  0.
<mgrwt>
<rscale>  0 0.51415488E+03</rscale>
<asrwt>0</asrwt>
<pdfrwt beam="1">  1        2 0.36959293E-01 0.67856218E+03</pdfrwt>
<pdfrwt beam="2">  1       -2 0.18170008E+00 0.67856218E+03</pdfrwt>
<totfact> 0.25328156E+01</totfact>
</mgrwt>
</event>
<event>
 4    1  0.3057048E-007  0.7528635E+03  0.7818608E-02  0.9823946E-01
         -2   -1    0    0    0  501 -0.00000000000E+00  0.00000000000E+00  0.70288835498E+03  0.70288835498E+03  0.25500000000E-02 0.  1.
          2   -1    0    0  501    0  0.00000000000E+00 -0.00000000000E+00 -0.56651290608E+03  0.56651290609E+03  0.25500000000E-02 0. -1.
    8880023    1    1    2    0    0  0.18310155959E+03  0.31538397322E+03  0.33829667689E+03  0.82537753758E+03  0.65864270000E+03 0.  1.
    8880022    1    1    2    0    0 -0.18310155959E+03 -0.31538397322E+03 -0.20192122800E+03  0.44402372349E+03  0.15294330000E+03 0. -1.
<mgrwt>
<rscale>  0 0.64093137E+03</rscale>
<asrwt>0</asrwt>
<pdfrwt beam="1">  1        2 0.87155832E-01 0.75286349E+03</pdfrwt>
<pdfrwt beam="2">  1       -2 0.10813667E+00 0.75286349E+03</pdfrwt>
<totfact> 0.36834530E+01</totfact>
</mgrwt>
</event>
<event>
 4    1  0.3057048E-007  0.7377115E+03  0.7818608E-02  0.9866664E-01
         -2   -1    0    0    0  501 -0.00000000000E+00  0.00000000000E+00  0.66850010397E+03  0.66850010397E+03  0.25500000000E-02 0.  1.
          2   -1    0    0  501    0  0.00000000000E+00 -0.00000000000E+00 -0.72655937074E+03  0.72655937075E+03  0.25500000000E-02 0. -1.
    8880023    1    1    2    0    0 -0.30249733922E+03  0.13748955377E+03  0.37552428235E+03  0.82779025757E+03  0.65864270000E+03 0.  0.
    8880022    1    1    2    0    0  0.30249733922E+03 -0.13748955377E+03 -0.43358354913E+03  0.56726921715E+03  0.15294330000E+03 0.  0.
<mgrwt>
<rscale>  0 0.61904438E+03</rscale>
<asrwt>0</asrwt>
<pdfrwt beam="1">  1        2 0.11177836E+00 0.73771148E+03</pdfrwt>
<pdfrwt beam="2">  1       -2 0.10284617E+00 0.73771148E+03</pdfrwt>
<totfact> 0.30625768E+01</totfact>
</mgrwt>
</event>
<event>
 4    1  0.3057048E-007  0.1188416E+04  0.7818608E-02  0.9168466E-01
          2   -1    0    0  501    0  0.00000000000E+00  0.00000000000E+00  0.22188828141E+04  0.22188828141E+04  0.25500000000E-02 0. -1.
         -2   -1    0    0    0  501 -0.00000000000E+00 -0.00000000000E+00 -0.14933621747E+04  0.14933621747E+04  0.25500000000E-02 0.  1.
    8880023    1    1    2    0    0 -0.15372029698E+03  0.97718615844E+03  0.18550167513E+04  0.22030479050E+04  0.65864270000E+03 0. -1.
    8880022    1    1    2    0    0  0.15372029698E+03 -0.97718615844E+03 -0.11294961118E+04  0.15091970838E+04  0.15294330000E+03 0.  0.
<mgrwt>
<rscale>  0 0.11384927E+04</rscale>
<asrwt>0</asrwt>
<pdfrwt beam="1">  1        2 0.34136659E+00 0.11884161E+04</pdfrwt>
<pdfrwt beam="2">  1       -2 0.22974803E+00 0.11884161E+04</pdfrwt>
<totfact> 0.42164024E-01</totfact>
</mgrwt>
</event>
<event>
 4    1  0.3057048E-007  0.7166381E+03  0.7818608E-02  0.9934130E-01
         -2   -1    0    0    0  501 -0.00000000000E+00  0.00000000000E+00  0.49878824204E+03  0.49878824205E+03  0.25500000000E-02 0.  1.
          2   -1    0    0  501    0  0.00000000000E+00 -0.00000000000E+00 -0.16011615720E+04  0.16011615720E+04  0.25500000000E-02 0. -1.
    8880023    1    1    2    0    0 -0.18738079397E+03  0.21130183136E+03  0.21165526193E+03  0.74724037769E+03  0.65864270000E+03 0.  1.
    8880022    1    1    2    0    0  0.18738079397E+03 -0.21130183136E+03 -0.13140285919E+04  0.13527094363E+04  0.15294330000E+03 0.  0.
<mgrwt>
<rscale>  0 0.58635344E+03</rscale>
<asrwt>0</asrwt>
<pdfrwt beam="1">  1        2 0.24633255E+00 0.71663815E+03</pdfrwt>
<pdfrwt beam="2">  1       -2 0.76736654E-01 0.71663815E+03</pdfrwt>
<totfact> 0.17413510E+01</totfact>
</mgrwt>
</event>
<event>
 4    1  0.3057048E-007  0.9662531E+03  0.7818608E-02  0.9427105E-01
          2   -1    0    0  501    0  0.00000000000E+00  0.00000000000E+00  0.29971026752E+04  0.29971026752E+04  0.25500000000E-02 0. -1.
         -2   -1    0    0    0  501 -0.00000000000E+00 -0.00000000000E+00 -0.31755429243E+03  0.31755429244E+03  0.25500000000E-02 0.  1.
    8880023    1    1    2    0    0  0.88686543509E+02 -0.70140543647E+03  0.66178236247E+03  0.11711537008E+04  0.65864270000E+03 0.  0.
    8880022    1    1    2    0    0 -0.88686543509E+02  0.70140543647E+03  0.20177660203E+04  0.21435032669E+04  0.15294330000E+03 0.  0.
<mgrwt>
<rscale>  0 0.89878208E+03</rscale>
<asrwt>0</asrwt>
<pdfrwt beam="1">  1        2 0.46109270E+00 0.96625312E+03</pdfrwt>
<pdfrwt beam="2">  1       -2 0.48854508E-01 0.96625312E+03</pdfrwt>
<totfact> 0.71305284E+00</totfact>
</mgrwt>
</event>
<event>
 4    1  0.3057048E-007  0.7534300E+03  0.7818608E-02  0.9822423E-01
         -2   -1    0    0    0  501 -0.00000000000E+00  0.00000000000E+00  0.28885440256E+03  0.28885440257E+03  0.25500000000E-02 0.  1.
          2   -1    0    0  501    0  0.00000000000E+00 -0.00000000000E+00 -0.12875985954E+04  0.12875985955E+04  0.25500000000E-02 0. -1.
    8880023    1    1    2    0    0  0.36383805195E+03  0.38320853493E+02 -0.38589363384E+03  0.84650500221E+03  0.65864270000E+03 0.  1.
    8880022    1    1    2    0    0 -0.36383805195E+03 -0.38320853493E+02 -0.61285055904E+03  0.72994799582E+03  0.15294330000E+03 0.  0.
<mgrwt>
<rscale>  0 0.64172946E+03</rscale>
<asrwt>0</asrwt>
<pdfrwt beam="1">  1        2 0.19809209E+00 0.75343004E+03</pdfrwt>
<pdfrwt beam="2">  1       -2 0.44439139E-01 0.75343004E+03</pdfrwt>
<totfact> 0.82064759E+01</totfact>
</mgrwt>
</event>
<event>
 4    1  0.3057048E-007  0.8639366E+03  0.7818608E-02  0.9586599E-01
         -2   -1    0    0    0  501 -0.00000000000E+00  0.00000000000E+00  0.43188727141E+03  0.43188727142E+03  0.25500000000E-02 0.  1.
          2   -1    0    0  501    0  0.00000000000E+00 -0.00000000000E+00 -0.14684355633E+04  0.14684355633E+04  0.25500000000E-02 0. -1.
    8880023    1    1    2    0    0 -0.32323823474E+03 -0.45617241954E+03 -0.20709150811E+03  0.88841056485E+03  0.65864270000E+03 0.  1.
    8880022    1    1    2    0    0  0.32323823474E+03  0.45617241954E+03 -0.82945678379E+03  0.10119122699E+04  0.15294330000E+03 0.  0.
<mgrwt>
<rscale>  0 0.78189534E+03</rscale>
<asrwt>0</asrwt>
<pdfrwt beam="1">  1        2 0.22591316E+00 0.86393659E+03</pdfrwt>
<pdfrwt beam="2">  1       -2 0.66444196E-01 0.86393659E+03</pdfrwt>
<totfact> 0.27829375E+01</totfact>
</mgrwt>
</event>
<event>
 4    1  0.3057048E-007  0.9931011E+03  0.7818608E-02  0.9390640E-01
         -2   -1    0    0    0  501 -0.00000000000E+00  0.00000000000E+00  0.40957195277E+03  0.40957195277E+03  0.25500000000E-02 0.  1.
          2   -1    0    0  501    0  0.00000000000E+00 -0.00000000000E+00 -0.36995559370E+04  0.36995559370E+04  0.25500000000E-02 0. -1.
    8880023    1    1    2    0    0 -0.51904436445E+03  0.53200809611E+03 -0.31947055009E+03  0.10432215993E+04  0.65864270000E+03 0.  0.
    8880022    1    1    2    0    0  0.51904436445E+03 -0.53200809611E+03 -0.29705134342E+04  0.30659062905E+04  0.15294330000E+03 0.  0.
<mgrwt>
<rscale>  0 0.92850024E+03</rscale>
<asrwt>0</asrwt>
<pdfrwt beam="1">  1        2 0.56916243E+00 0.99310114E+03</pdfrwt>
<pdfrwt beam="2">  1       -2 0.63011072E-01 0.99310114E+03</pdfrwt>
<totfact> 0.14237011E+00</totfact>
</mgrwt>
</event>
<event>
 4    1  0.3057048E-007  0.7107792E+03  0.7818608E-02  0.9955119E-01
         -2   -1    0    0    0  501 -0.00000000000E+00  0.00000000000E+00  0.83975032278E+03  0.83975032278E+03  0.25500000000E-02 0.  1.
          2   -1    0    0  501    0  0.00000000000E+00 -0.00000000000E+00 -0.49313296523E+03  0.49313296523E+03  0.25500000000E-02 0. -1.
    8880023    1    1    2    0    0 -0.11541004569E+03 -0.24099259216E+03  0.60310099952E+03  0.93216840217E+03  0.65864270000E+03 0.  1.
    8880022    1    1    2    0    0  0.11541004569E+03  0.24099259216E+03 -0.25648364197E+03  0.40071488584E+03  0.15294330000E+03 0.  0.
<mgrwt>
<rscale>  0 0.57662775E+03</rscale>
<asrwt>0</asrwt>
<pdfrwt beam="1">  1        2 0.75866610E-01 0.71077923E+03</pdfrwt>
<pdfrwt beam="2">  1       -2 0.12919236E+00 0.71077923E+03</pdfrwt>
<totfact> 0.28043207E+01</totfact>
</mgrwt>
</event>
<event>
 4    1  0.3057048E-007  0.7297788E+03  0.7818608E-02  0.9890788E-01
         -2   -1    0    0    0  501 -0.00000000000E+00  0.00000000000E+00  0.45086435069E+03  0.45086435069E+03  0.25500000000E-02 0.  1.
          2   -1    0    0  501    0  0.00000000000E+00 -0.00000000000E+00 -0.18866132609E+04  0.18866132609E+04  0.25500000000E-02 0. -1.
    8880023    1    1    2    0    0 -0.18207266669E+03 -0.25615697064E+03  0.12295864422E+03  0.74006478366E+03  0.65864270000E+03 0.  1.
    8880022    1    1    2    0    0  0.18207266669E+03  0.25615697064E+03 -0.15587075544E+04  0.15974128279E+04  0.15294330000E+03 0.  0.
<mgrwt>
<rscale>  0 0.60709811E+03</rscale>
<asrwt>0</asrwt>
<pdfrwt beam="1">  1        2 0.29024819E+00 0.72977877E+03</pdfrwt>
<pdfrwt beam="2">  1       -2 0.69363748E-01 0.72977877E+03</pdfrwt>
<totfact> 0.15162911E+01</totfact>
</mgrwt>
</event>
<event>
 4    1  0.3057048E-007  0.7942211E+03  0.7818608E-02  0.9723433E-01
         -2   -1    0    0    0  501 -0.00000000000E+00  0.00000000000E+00  0.37337708032E+03  0.37337708033E+03  0.25500000000E-02 0.  1.
          2   -1    0    0  501    0  0.00000000000E+00 -0.00000000000E+00 -0.18502408974E+04  0.18502408974E+04  0.25500000000E-02 0. -1.
    8880023    1    1    2    0    0 -0.13196647221E+02 -0.44362465896E+03 -0.13965793571E+03  0.80640655677E+03  0.65864270000E+03 0.  1.
    8880022    1    1    2    0    0  0.13196647221E+02  0.44362465896E+03 -0.13372058814E+04  0.14172114210E+04  0.15294330000E+03 0.  0.
<mgrwt>
<rscale>  0 0.69638563E+03</rscale>
<asrwt>0</asrwt>
<pdfrwt beam="1">  1        2 0.28465244E+00 0.79422113E+03</pdfrwt>
<pdfrwt beam="2">  1       -2 0.57442629E-01 0.79422113E+03</pdfrwt>
<totfact> 0.23539130E+01</totfact>
</mgrwt>
</event>
<event>
 4    1  0.3057048E-007  0.6682690E+03  0.7818608E-02  0.1016935E+00
          2   -1    0    0  501    0  0.00000000000E+00  0.00000000000E+00  0.24562477691E+04  0.24562477691E+04  0.25500000000E-02 0. -1.
         -2   -1    0    0    0  501 -0.00000000000E+00 -0.00000000000E+00 -0.17240859522E+03  0.17240859524E+03  0.25500000000E-02 0.  1.
    8880023    1    1    2    0    0 -0.32131891313E+02 -0.10835480412E+03  0.49976406576E+03  0.83447441525E+03  0.65864270000E+03 0.  1.
    8880022    1    1    2    0    0  0.32131891313E+02  0.10835480412E+03  0.17840751081E+04  0.17941819491E+04  0.15294330000E+03 0.  0.
<mgrwt>
<rscale>  0 0.48808937E+03</rscale>
<asrwt>0</asrwt>
<pdfrwt beam="1">  1        2 0.37788427E+00 0.66826898E+03</pdfrwt>
<pdfrwt beam="2">  1       -2 0.26524400E-01 0.66826898E+03</pdfrwt>
<totfact> 0.49947845E+01</totfact>
</mgrwt>
</event>
<event>
 4    1  0.3057048E-007  0.7069460E+03  0.7818608E-02  0.9969521E-01
         -2   -1    0    0    0  501 -0.00000000000E+00  0.00000000000E+00  0.59911575367E+03  0.59911575367E+03  0.25500000000E-02 0.  1.
          2   -1    0    0  501    0  0.00000000000E+00 -0.00000000000E+00 -0.12565743565E+04  0.12565743565E+04  0.25500000000E-02 0. -1.
    8880023    1    1    2    0    0 -0.24640054832E+03  0.72451703670E+02  0.36134349506E+03  0.79394068246E+03  0.65864270000E+03 0.  0.
    8880022    1    1    2    0    0  0.24640054832E+03 -0.72451703670E+02 -0.10188020979E+04  0.10617494278E+04  0.15294330000E+03 0.  0.
<mgrwt>
<rscale>  0 0.57007110E+03</rscale>
<asrwt>0</asrwt>
<pdfrwt beam="1">  1        2 0.19331913E+00 0.70694603E+03</pdfrwt>
<pdfrwt beam="2">  1       -2 0.92171655E-01 0.70694603E+03</pdfrwt>
<totfact> 0.17974590E+01</totfact>
</mgrwt>
</event>
<event>
 4    1  0.3057048E-007  0.6838496E+03  0.7818608E-02  0.1007225E+00
         -2   -1    0    0    0  501 -0.00000000000E+00  0.00000000000E+00  0.15040361008E+03  0.15040361010E+03  0.25500000000E-02 0.  1.
          2   -1    0    0  501    0  0.00000000000E+00 -0.00000000000E+00 -0.23663451686E+04  0.23663451686E+04  0.25500000000E-02 0. -1.
    8880023    1    1    2    0    0 -0.77798294347E+02  0.16669593193E+03 -0.68748499554E+03  0.96968341931E+03  0.65864270000E+03 0.  1.
    8880022    1    1    2    0    0  0.77798294347E+02 -0.16669593193E+03 -0.15284565630E+04  0.15470653594E+04  0.15294330000E+03 0.  0.
<mgrwt>
<rscale>  0 0.52592656E+03</rscale>
<asrwt>0</asrwt>
<pdfrwt beam="1">  1        2 0.36405308E+00 0.68384963E+03</pdfrwt>
<pdfrwt beam="2">  1       -2 0.23139019E-01 0.68384963E+03</pdfrwt>
<totfact> 0.71539362E+01</totfact>
</mgrwt>
</event>
<event>
 4    1  0.3057048E-007  0.7796086E+03  0.7818608E-02  0.9756757E-01
         -2   -1    0    0    0  501 -0.00000000000E+00  0.00000000000E+00  0.24003120686E+04  0.24003120686E+04  0.25500000000E-02 0.  1.
          2   -1    0    0  501    0  0.00000000000E+00 -0.00000000000E+00 -0.24233780004E+03  0.24233780005E+03  0.25500000000E-02 0. -1.
    8880023    1    1    2    0    0  0.41268831039E+03  0.60561335561E+02  0.20386612763E+04  0.21826427382E+04  0.65864270000E+03 0.  0.
    8880022    1    1    2    0    0 -0.41268831039E+03 -0.60561335561E+02  0.11931299222E+03  0.46000713040E+03  0.15294330000E+03 0.  0.
<mgrwt>
<rscale>  0 0.67735737E+03</rscale>
<asrwt>0</asrwt>
<pdfrwt beam="1">  1        2 0.37282738E-01 0.77960857E+03</pdfrwt>
<pdfrwt beam="2">  1       -2 0.36927879E+00 0.77960857E+03</pdfrwt>
<totfact> 0.17182314E+00</totfact>
</mgrwt>
</event>
<event>
 4    1  0.3057048E-007  0.9029314E+03  0.7818608E-02  0.9521342E-01
          2   -1    0    0  501    0  0.00000000000E+00  0.00000000000E+00  0.20460739634E+04  0.20460739634E+04  0.25500000000E-02 0. -1.
         -2   -1    0    0    0  501 -0.00000000000E+00 -0.00000000000E+00 -0.56122924604E+03  0.56122924604E+03  0.25500000000E-02 0.  1.
    8880023    1    1    2    0    0  0.58358175845E+03 -0.20225556777E+03 -0.91331791730E+02  0.90753880685E+03  0.65864270000E+03 0. -1.
    8880022    1    1    2    0    0 -0.58358175845E+03  0.20225556777E+03  0.15761765091E+04  0.16997644026E+04  0.15294330000E+03 0.  0.
<mgrwt>
<rscale>  0 0.82728487E+03</rscale>
<asrwt>0</asrwt>
<pdfrwt beam="1">  1        2 0.31478061E+00 0.90293144E+03</pdfrwt>
<pdfrwt beam="2">  1       -2 0.86342961E-01 0.90293144E+03</pdfrwt>
<totfact> 0.74263008E+00</totfact>
</mgrwt>
</event>
<event>
 4    1  0.3057048E-007  0.7578914E+03  0.7818608E-02  0.9810597E-01
         -2   -1    0    0    0  501 -0.00000000000E+00  0.00000000000E+00  0.11641099841E+04  0.11641099841E+04  0.25500000000E-02 0.  1.
          2   -1    0    0  501    0  0.00000000000E+00 -0.00000000000E+00 -0.10069587418E+04  0.10069587418E+04  0.25500000000E-02 0. -1.
    8880023    1    1    2    0    0  0.28381354490E+02  0.37387659373E+03  0.98893475875E+03  0.12459499877E+04  0.65864270000E+03 0.  1.
    8880022    1    1    2    0    0 -0.28381354490E+02 -0.37387659373E+03 -0.83178351645E+03  0.92511873826E+03  0.15294330000E+03 0.  0.
<mgrwt>
<rscale>  0 0.64796924E+03</rscale>
<asrwt>0</asrwt>
<pdfrwt beam="1">  1        2 0.15491673E+00 0.75789143E+03</pdfrwt>
<pdfrwt beam="2">  1       -2 0.17909384E+00 0.75789143E+03</pdfrwt>
<totfact> 0.46792039E+00</totfact>
</mgrwt>
</event>
<event>
 4    1  0.3057048E-007  0.1305298E+04  0.7818608E-02  0.9060998E-01
         -2   -1    0    0    0  501 -0.00000000000E+00  0.00000000000E+00  0.12370377393E+04  0.12370377393E+04  0.25500000000E-02 0.  1.
          2   -1    0    0  501    0  0.00000000000E+00 -0.00000000000E+00 -0.18474830847E+04  0.18474830847E+04  0.25500000000E-02 0. -1.
    8880023    1    1    2    0    0 -0.97503377102E+03 -0.56506746635E+03 -0.12264943918E+04  0.17911144004E+04  0.65864270000E+03 0.  0.
    8880022    1    1    2    0    0  0.97503377102E+03  0.56506746635E+03  0.61604904638E+03  0.12934064236E+04  0.15294330000E+03 0.  0.
<mgrwt>
<rscale>  0 0.12610959E+04</rscale>
<asrwt>0</asrwt>
<pdfrwt beam="1">  1        2 0.28422817E+00 0.13052978E+04</pdfrwt>
<pdfrwt beam="2">  1       -2 0.19031350E+00 0.13052978E+04</pdfrwt>
<totfact> 0.12015419E+00</totfact>
</mgrwt>
</event>
<event>
 4    1  0.3057048E-007  0.6742216E+03  0.7818608E-02  0.1012801E+00
         -2   -1    0    0    0  501 -0.00000000000E+00  0.00000000000E+00  0.13668244609E+03  0.13668244612E+03  0.25500000000E-02 0.  1.
          2   -1    0    0  501    0  0.00000000000E+00 -0.00000000000E+00 -0.30062813890E+04  0.30062813890E+04  0.25500000000E-02 0. -1.
    8880023    1    1    2    0    0 -0.68367025355E+02  0.12684861246E+03 -0.73248770895E+03  0.99554661903E+03  0.65864270000E+03 0.  1.
    8880022    1    1    2    0    0  0.68367025355E+02 -0.12684861246E+03 -0.21371112340E+04  0.21474172161E+04  0.15294330000E+03 0.  0.
<mgrwt>
<rscale>  0 0.50376277E+03</rscale>
<asrwt>0</asrwt>
<pdfrwt beam="1">  1        2 0.46250478E+00 0.67422165E+03</pdfrwt>
<pdfrwt beam="2">  1       -2 0.21028071E-01 0.67422165E+03</pdfrwt>
<totfact> 0.36061951E+01</totfact>
</mgrwt>
</event>
<event>
 4    1  0.3057048E-007  0.8157433E+03  0.7818608E-02  0.9677736E-01
          2   -1    0    0  501    0  0.00000000000E+00  0.00000000000E+00  0.12085592472E+04  0.12085592472E+04  0.25500000000E-02 0. -1.
         -2   -1    0    0    0  501 -0.00000000000E+00 -0.00000000000E+00 -0.47809102225E+03  0.47809102226E+03  0.25500000000E-02 0.  1.
    8880023    1    1    2    0    0 -0.41236289899E+03  0.24816091402E+03  0.21258895274E+02  0.81602031017E+03  0.65864270000E+03 0.  1.
    8880022    1    1    2    0    0  0.41236289899E+03 -0.24816091402E+03  0.70920932969E+03  0.87062995931E+03  0.15294330000E+03 0.  0.
<mgrwt>
<rscale>  0 0.72358016E+03</rscale>
<asrwt>0</asrwt>
<pdfrwt beam="1">  1        2 0.18593219E+00 0.81574335E+03</pdfrwt>
<pdfrwt beam="2">  1       -2 0.73552466E-01 0.81574335E+03</pdfrwt>
<totfact> 0.31587095E+01</totfact>
</mgrwt>
</event>
<event>
 4    1  0.3057048E-007  0.7605282E+03  0.7818608E-02  0.9803742E-01
          2   -1    0    0  501    0  0.00000000000E+00  0.00000000000E+00  0.23846007926E+04  0.23846007926E+04  0.25500000000E-02 0. -1.
         -2   -1    0    0    0  501 -0.00000000000E+00 -0.00000000000E+00 -0.15480388780E+03  0.15480388782E+03  0.25500000000E-02 0.  1.
    8880023    1    1    2    0    0 -0.37372688210E+03 -0.70151208002E+02  0.10978777842E+04  0.13355668496E+04  0.65864270000E+03 0.  1.
    8880022    1    1    2    0    0  0.37372688210E+03  0.70151208002E+02  0.11319191205E+04  0.12038378308E+04  0.15294330000E+03 0.  1.
<mgrwt>
<rscale>  0 0.65162118E+03</rscale>
<asrwt>0</asrwt>
<pdfrwt beam="1">  1        2 0.36686165E+00 0.76052822E+03</pdfrwt>
<pdfrwt beam="2">  1       -2 0.23815984E-01 0.76052822E+03</pdfrwt>
<totfact> 0.65720749E+01</totfact>
</mgrwt>
</event>
<event>
 4    1  0.3057048E-007  0.7098958E+03  0.7818608E-02  0.9958388E-01
          2   -1    0    0  501    0  0.00000000000E+00  0.00000000000E+00  0.19232938891E+04  0.19232938891E+04  0.25500000000E-02 0. -1.
         -2   -1    0    0    0  501 -0.00000000000E+00 -0.00000000000E+00 -0.36071353439E+03  0.36071353440E+03  0.25500000000E-02 0.  1.
    8880023    1    1    2    0    0  0.21673083048E+03 -0.15221569223E+03  0.18715953038E+02  0.71014249486E+03  0.65864270000E+03 0.  1.
    8880022    1    1    2    0    0 -0.21673083048E+03  0.15221569223E+03  0.15438644016E+04  0.15738649286E+04  0.15294330000E+03 0.  0.
<mgrwt>
<rscale>  0 0.57513113E+03</rscale>
<asrwt>0</asrwt>
<pdfrwt beam="1">  1        2 0.29589137E+00 0.70989582E+03</pdfrwt>
<pdfrwt beam="2">  1       -2 0.55494390E-01 0.70989582E+03</pdfrwt>
<totfact> 0.23337135E+01</totfact>
</mgrwt>
</event>
<event>
 4    1  0.3057048E-007  0.9157003E+03  0.7818608E-02  0.9501283E-01
          2   -1    0    0  501    0  0.00000000000E+00  0.00000000000E+00  0.22807370030E+04  0.22807370030E+04  0.25500000000E-02 0. -1.
         -2   -1    0    0    0  501 -0.00000000000E+00 -0.00000000000E+00 -0.63870592496E+03  0.63870592496E+03  0.25500000000E-02 0.  1.
    8880023    1    1    2    0    0 -0.49157122733E+03 -0.40380022547E+03 -0.22343305478E+03  0.94256534514E+03  0.65864270000E+03 0.  1.
    8880022    1    1    2    0    0  0.49157122733E+03  0.40380022547E+03  0.18654641329E+04  0.19768775829E+04  0.15294330000E+03 0.  0.
<mgrwt>
<rscale>  0 0.84189267E+03</rscale>
<asrwt>0</asrwt>
<pdfrwt beam="1">  1        2 0.35088261E+00 0.91570033E+03</pdfrwt>
<pdfrwt beam="2">  1       -2 0.98262451E-01 0.91570033E+03</pdfrwt>
<totfact> 0.40686708E+00</totfact>
</mgrwt>
</event>
<event>
 4    1  0.3057048E-007  0.1091286E+04  0.7818608E-02  0.9270821E-01
         -2   -1    0    0    0  501 -0.00000000000E+00  0.00000000000E+00  0.86372272175E+03  0.86372272175E+03  0.25500000000E-02 0.  1.
          2   -1    0    0  501    0  0.00000000000E+00 -0.00000000000E+00 -0.20755491587E+04  0.20755491587E+04  0.25500000000E-02 0. -1.
    8880023    1    1    2    0    0  0.66842152725E+03 -0.55705210264E+03  0.34902709614E+03  0.11457419008E+04  0.65864270000E+03 0.  0.
    8880022    1    1    2    0    0 -0.66842152725E+03  0.55705210264E+03 -0.15608535331E+04  0.17935299797E+04  0.15294330000E+03 0.  0.
<mgrwt>
<rscale>  0 0.10351410E+04</rscale>
<asrwt>0</asrwt>
<pdfrwt beam="1">  1        2 0.31931525E+00 0.10912858E+04</pdfrwt>
<pdfrwt beam="2">  1       -2 0.13288042E+00 0.10912858E+04</pdfrwt>
<totfact> 0.24603110E+00</totfact>
</mgrwt>
</event>
<event>
 4    1  0.3057048E-007  0.7145718E+03  0.7818608E-02  0.9941400E-01
         -2   -1    0    0    0  501 -0.00000000000E+00  0.00000000000E+00  0.32233900890E+03  0.32233900891E+03  0.25500000000E-02 0.  1.
          2   -1    0    0  501    0  0.00000000000E+00 -0.00000000000E+00 -0.11879982883E+04  0.11879982883E+04  0.25500000000E-02 0. -1.
    8880023    1    1    2    0    0 -0.34530057939E+02  0.27497338067E+03 -0.15331806834E+03  0.73083467441E+03  0.65864270000E+03 0.  1.
    8880022    1    1    2    0    0  0.34530057939E+02 -0.27497338067E+03 -0.71234121107E+03  0.77950262282E+03  0.15294330000E+03 0. -1.
<mgrwt>
<rscale>  0 0.58296142E+03</rscale>
<asrwt>0</asrwt>
<pdfrwt beam="1">  1        2 0.18276897E+00 0.71457182E+03</pdfrwt>
<pdfrwt beam="2">  1       -2 0.49590617E-01 0.71457182E+03</pdfrwt>
<totfact> 0.75547173E+01</totfact>
</mgrwt>
</event>
<event>
 4    1  0.3057048E-007  0.7794932E+03  0.7818608E-02  0.9757029E-01
         -2   -1    0    0    0  501 -0.00000000000E+00  0.00000000000E+00  0.19941186209E+04  0.19941186209E+04  0.25500000000E-02 0.  1.
          2   -1    0    0  501    0  0.00000000000E+00 -0.00000000000E+00 -0.65580139176E+03  0.65580139176E+03  0.25500000000E-02 0. -1.
    8880023    1    1    2    0    0  0.39909038472E+03 -0.12052494470E+03  0.18289737339E+04  0.19881535461E+04  0.65864270000E+03 0.  1.
    8880022    1    1    2    0    0 -0.39909038472E+03  0.12052494470E+03 -0.49065650478E+03  0.66176646649E+03  0.15294330000E+03 0.  0.
<mgrwt>
<rscale>  0 0.67720497E+03</rscale>
<asrwt>0</asrwt>
<pdfrwt beam="1">  1        2 0.10089252E+00 0.77949317E+03</pdfrwt>
<pdfrwt beam="2">  1       -2 0.30678748E+00 0.77949317E+03</pdfrwt>
<totfact> 0.13347187E+00</totfact>
</mgrwt>
</event>
<event>
 4    1  0.3057048E-007  0.7142993E+03  0.7818608E-02  0.9942369E-01
          2   -1    0    0  501    0  0.00000000000E+00  0.00000000000E+00  0.94744476835E+03  0.94744476835E+03  0.25500000000E-02 0. -1.
         -2   -1    0    0    0  501 -0.00000000000E+00 -0.00000000000E+00 -0.10247991571E+04  0.10247991571E+04  0.25500000000E-02 0.  1.
    8880023    1    1    2    0    0  0.10538315065E+03 -0.25555373889E+03 -0.86605771661E+03  0.11226217068E+04  0.65864270000E+03 0.  1.
    8880022    1    1    2    0    0 -0.10538315065E+03  0.25555373889E+03  0.78870332788E+03  0.84962221859E+03  0.15294330000E+03 0.  0.
<mgrwt>
<rscale>  0 0.58251110E+03</rscale>
<asrwt>0</asrwt>
<pdfrwt beam="1">  1        2 0.14576073E+00 0.71429933E+03</pdfrwt>
<pdfrwt beam="2">  1       -2 0.15766141E+00 0.71429933E+03</pdfrwt>
<totfact> 0.73106810E+00</totfact>
</mgrwt>
</event>
<event>
 4    1  0.3057048E-007  0.7507851E+03  0.7818608E-02  0.9829576E-01
         -2   -1    0    0    0  501 -0.00000000000E+00  0.00000000000E+00  0.50615201244E+03  0.50615201245E+03  0.25500000000E-02 0.  1.
          2   -1    0    0  501    0  0.00000000000E+00 -0.00000000000E+00 -0.13183708298E+04  0.13183708298E+04  0.25500000000E-02 0. -1.
    8880023    1    1    2    0    0  0.14626952223E+03 -0.32935274790E+03  0.16770970629E+03  0.76928847484E+03  0.65864270000E+03 0.  1.
    8880022    1    1    2    0    0 -0.14626952223E+03  0.32935274790E+03 -0.97992852360E+03  0.10552343674E+04  0.15294330000E+03 0.  0.
<mgrwt>
<rscale>  0 0.63799195E+03</rscale>
<asrwt>0</asrwt>
<pdfrwt beam="1">  1        2 0.20282628E+00 0.75078506E+03</pdfrwt>
<pdfrwt beam="2">  1       -2 0.77869541E-01 0.75078506E+03</pdfrwt>
<totfact> 0.24175175E+01</totfact>
</mgrwt>
</event>
<event>
 4    1  0.3057048E-007  0.7070134E+03  0.7818608E-02  0.9969263E-01
          2   -1    0    0  501    0  0.00000000000E+00  0.00000000000E+00  0.19072999822E+04  0.19072999822E+04  0.25500000000E-02 0. -1.
         -2   -1    0    0    0  501 -0.00000000000E+00 -0.00000000000E+00 -0.22822591042E+03  0.22822591044E+03  0.25500000000E-02 0.  1.
    8880023    1    1    2    0    0 -0.24937661160E+03 -0.62201384007E+02  0.38038892978E+03  0.80284721507E+03  0.65864270000E+03 0.  1.
    8880022    1    1    2    0    0  0.24937661160E+03  0.62201384007E+02  0.12986851420E+04  0.13326786776E+04  0.15294330000E+03 0.  0.
<mgrwt>
<rscale>  0 0.57018774E+03</rscale>
<asrwt>0</asrwt>
<pdfrwt beam="1">  1        2 0.29343076E+00 0.70701338E+03</pdfrwt>
<pdfrwt beam="2">  1       -2 0.35111679E-01 0.70701338E+03</pdfrwt>
<totfact> 0.59139129E+01</totfact>
</mgrwt>
</event>
<event>
 4    1  0.3057048E-007  0.9738494E+03  0.7818608E-02  0.9416600E-01
         -2   -1    0    0    0  501 -0.00000000000E+00  0.00000000000E+00  0.65350247216E+03  0.65350247216E+03  0.25500000000E-02 0.  1.
          2   -1    0    0  501    0  0.00000000000E+00 -0.00000000000E+00 -0.42048397250E+04  0.42048397250E+04  0.25500000000E-02 0. -1.
    8880023    1    1    2    0    0  0.71695135091E+03  0.23519168870E+02  0.23484939280E+03  0.10017668563E+04  0.65864270000E+03 0.  1.
    8880022    1    1    2    0    0 -0.71695135091E+03 -0.23519168870E+02 -0.37861866457E+04  0.38565753409E+04  0.15294330000E+03 0.  0.
<mgrwt>
<rscale>  0 0.90722080E+03</rscale>
<asrwt>0</asrwt>
<pdfrwt beam="1">  1        2 0.64689840E+00 0.97384937E+03</pdfrwt>
<pdfrwt beam="2">  1       -2 0.10053884E+00 0.97384937E+03</pdfrwt>
<totfact> 0.20007784E-01</totfact>
</mgrwt>
</event>
<event>
 4    1  0.6769099E-007  0.1037365E+04  0.7818608E-02  0.9334227E-01
          2   -1    0    0  501    0  0.00000000000E+00  0.00000000000E+00  0.31394095621E+04  0.31394095621E+04  0.25500000000E-02 0. -1.
         -2   -1    0    0    0  501 -0.00000000000E+00 -0.00000000000E+00 -0.18516807513E+04  0.18516807513E+04  0.25500000000E-02 0.  1.
    8880023    1    1    2    0    0  0.33773532925E+03 -0.72680845651E+03 -0.16462186810E+04  0.19458062177E+04  0.65864270000E+03 0.  1.
    8880022    1    1    2    0    0 -0.33773532925E+03  0.72680845651E+03  0.29339474918E+04  0.30452840956E+04  0.15294330000E+03 0.  0.
<mgrwt>
<rscale>  0 0.97692016E+03</rscale>
<asrwt>0</asrwt>
<pdfrwt beam="1">  1        2 0.48298608E+00 0.10373649E+04</pdfrwt>
<pdfrwt beam="2">  1       -2 0.28487396E+00 0.10373649E+04</pdfrwt>
<totfact> 0.57073010E-02</totfact>
</mgrwt>
</event>
<event>
 4    1  0.3057048E-007  0.9368148E+03  0.7818608E-02  0.9469344E-01
          2   -1    0    0  501    0  0.00000000000E+00  0.00000000000E+00  0.16295521642E+04  0.16295521642E+04  0.25500000000E-02 0. -1.
         -2   -1    0    0    0  501 -0.00000000000E+00 -0.00000000000E+00 -0.68474455882E+03  0.68474455883E+03  0.25500000000E-02 0.  1.
    8880023    1    1    2    0    0 -0.52140802326E+03 -0.41466312243E+03 -0.22132635820E+03  0.96260448520E+03  0.65864270000E+03 0.  0.
    8880022    1    1    2    0    0  0.52140802326E+03  0.41466312243E+03  0.11661339636E+04  0.13516922379E+04  0.15294330000E+03 0.  0.
<mgrwt>
<rscale>  0 0.86582193E+03</rscale>
<asrwt>0</asrwt>
<pdfrwt beam="1">  1        2 0.25070033E+00 0.93681484E+03</pdfrwt>
<pdfrwt beam="2">  1       -2 0.10534532E+00 0.93681484E+03</pdfrwt>
<totfact> 0.78533468E+00</totfact>
</mgrwt>
</event>
<event>
 4    1  0.3057048E-007  0.9957456E+03  0.7818608E-02  0.9387145E-01
          2   -1    0    0  501    0  0.00000000000E+00  0.00000000000E+00  0.19615175244E+04  0.19615175244E+04  0.25500000000E-02 0. -1.
         -2   -1    0    0    0  501 -0.00000000000E+00 -0.00000000000E+00 -0.40048125089E+03  0.40048125089E+03  0.25500000000E-02 0.  1.
    8880023    1    1    2    0    0 -0.55197194391E+03  0.50301689145E+03  0.10323491973E+04  0.14343131079E+04  0.65864270000E+03 0.  0.
    8880022    1    1    2    0    0  0.55197194391E+03 -0.50301689145E+03  0.52868707613E+03  0.92768566736E+03  0.15294330000E+03 0.  0.
<mgrwt>
<rscale>  0 0.93141188E+03</rscale>
<asrwt>0</asrwt>
<pdfrwt beam="1">  1        2 0.30177193E+00 0.99574556E+03</pdfrwt>
<pdfrwt beam="2">  1       -2 0.61612500E-01 0.99574556E+03</pdfrwt>
<totfact> 0.17242949E+01</totfact>
</mgrwt>
</event>
<event>
 4    1  0.3057048E-007  0.7719175E+03  0.7818608E-02  0.9775177E-01
         -2   -1    0    0    0  501 -0.00000000000E+00  0.00000000000E+00  0.24939936058E+03  0.24939936059E+03  0.25500000000E-02 0.  1.
          2   -1    0    0  501    0  0.00000000000E+00 -0.00000000000E+00 -0.30032438705E+04  0.30032438705E+04  0.25500000000E-02 0. -1.
    8880023    1    1    2    0    0 -0.10495023466E+03 -0.38862825403E+03 -0.41877113158E+03  0.87819470421E+03  0.65864270000E+03 0.  1.
    8880022    1    1    2    0    0  0.10495023466E+03  0.38862825403E+03 -0.23350733784E+04  0.23744485269E+04  0.15294330000E+03 0.  0.
<mgrwt>
<rscale>  0 0.66711861E+03</rscale>
<asrwt>0</asrwt>
<pdfrwt beam="1">  1        2 0.46203749E+00 0.77191753E+03</pdfrwt>
<pdfrwt beam="2">  1       -2 0.38369135E-01 0.77191753E+03</pdfrwt>
<totfact> 0.11766640E+01</totfact>
</mgrwt>
</event>
<event>
 4    1  0.3057048E-007  0.6749205E+03  0.7818608E-02  0.1012356E+00
         -2   -1    0    0    0  501 -0.00000000000E+00  0.00000000000E+00  0.12825823306E+03  0.12825823309E+03  0.25500000000E-02 0.  1.
          2   -1    0    0  501    0  0.00000000000E+00 -0.00000000000E+00 -0.15486065640E+04  0.15486065640E+04  0.25500000000E-02 0. -1.
    8880023    1    1    2    0    0 -0.10652087117E+03 -0.10178795704E+03 -0.10087655810E+04  0.12137238928E+04  0.65864270000E+03 0.  0.
    8880022    1    1    2    0    0  0.10652087117E+03  0.10178795704E+03 -0.41158274989E+03  0.46314090428E+03  0.15294330000E+03 0. -1.
<mgrwt>
<rscale>  0 0.50548759E+03</rscale>
<asrwt>0</asrwt>
<pdfrwt beam="1">  1        2 0.23824715E+00 0.67492051E+03</pdfrwt>
<pdfrwt beam="2">  1       -2 0.19732037E-01 0.67492051E+03</pdfrwt>
<totfact> 0.26564438E+02</totfact>
</mgrwt>
</event>
<event>
 4    1  0.3057048E-007  0.8152792E+03  0.7818608E-02  0.9678684E-01
         -2   -1    0    0    0  501 -0.00000000000E+00  0.00000000000E+00  0.10753200226E+04  0.10753200226E+04  0.25500000000E-02 0.  1.
          2   -1    0    0  501    0  0.00000000000E+00 -0.00000000000E+00 -0.44126287866E+03  0.44126287867E+03  0.25500000000E-02 0. -1.
    8880023    1    1    2    0    0  0.48047865181E+03 -0.31866839731E+01  0.17321977136E+03  0.83347776530E+03  0.65864270000E+03 0.  0.
    8880022    1    1    2    0    0 -0.48047865181E+03  0.31866839731E+01  0.46083737254E+03  0.68310513594E+03  0.15294330000E+03 0.  0.
<mgrwt>
<rscale>  0 0.72300256E+03</rscale>
<asrwt>0</asrwt>
<pdfrwt beam="1">  1        2 0.67886597E-01 0.81527915E+03</pdfrwt>
<pdfrwt beam="2">  1       -2 0.16543385E+00 0.81527915E+03</pdfrwt>
<totfact> 0.16492593E+01</totfact>
</mgrwt>
</event>
<event>
 4    1  0.3057048E-007  0.6972073E+03  0.7818608E-02  0.1000899E+00
          2   -1    0    0  501    0  0.00000000000E+00  0.00000000000E+00  0.57603653129E+03  0.57603653130E+03  0.25500000000E-02 0. -1.
         -2   -1    0    0    0  501 -0.00000000000E+00 -0.00000000000E+00 -0.57155507484E+03  0.57155507484E+03  0.25500000000E-02 0.  1.
    8880023    1    1    2    0    0  0.14586626236E+01  0.22866054481E+03 -0.28047806419E+03  0.75150909722E+03  0.65864270000E+03 0.  1.
    8880022    1    1    2    0    0 -0.14586626236E+01 -0.22866054481E+03  0.28495952065E+03  0.39608250892E+03  0.15294330000E+03 0.  0.
<mgrwt>
<rscale>  0 0.55257809E+03</rscale>
<asrwt>0</asrwt>
<pdfrwt beam="1">  1        2 0.88621005E-01 0.69720727E+03</pdfrwt>
<pdfrwt beam="2">  1       -2 0.87931550E-01 0.69720727E+03</pdfrwt>
<totfact> 0.58995166E+01</totfact>
</mgrwt>
</event>
<event>
 4    1  0.3057048E-007  0.6964159E+03  0.7818608E-02  0.1001241E+00
         -2   -1    0    0    0  501 -0.00000000000E+00  0.00000000000E+00  0.92240303534E+03  0.92240303534E+03  0.25500000000E-02 0.  1.
          2   -1    0    0  501    0  0.00000000000E+00 -0.00000000000E+00 -0.52236517431E+03  0.52236517432E+03  0.25500000000E-02 0. -1.
    8880023    1    1    2    0    0  0.35631745105E+01  0.22621284528E+03  0.73504030041E+03  0.10125608115E+04  0.65864270000E+03 0.  1.
    8880022    1    1    2    0    0 -0.35631745105E+01 -0.22621284528E+03 -0.33500243938E+03  0.43220739812E+03  0.15294330000E+03 0.  0.
<mgrwt>
<rscale>  0 0.55109548E+03</rscale>
<asrwt>0</asrwt>
<pdfrwt beam="1">  1        2 0.80363873E-01 0.69641593E+03</pdfrwt>
<pdfrwt beam="2">  1       -2 0.14190816E+00 0.69641593E+03</pdfrwt>
<totfact> 0.20654212E+01</totfact>
</mgrwt>
</event>
<event>
 4    1  0.3057048E-007  0.7916916E+03  0.7818608E-02  0.9729057E-01
          2   -1    0    0  501    0  0.00000000000E+00  0.00000000000E+00  0.24833847646E+04  0.24833847646E+04  0.25500000000E-02 0. -1.
         -2   -1    0    0    0  501 -0.00000000000E+00 -0.00000000000E+00 -0.30573339429E+03  0.30573339430E+03  0.25500000000E-02 0.  1.
    8880023    1    1    2    0    0  0.22841419136E+03  0.37522296984E+03  0.28702765969E+03  0.84211662114E+03  0.65864270000E+03 0.  0.
    8880022    1    1    2    0    0 -0.22841419136E+03 -0.37522296984E+03  0.18906237106E+04  0.19470015378E+04  0.15294330000E+03 0.  0.
<mgrwt>
<rscale>  0 0.69312789E+03</rscale>
<asrwt>0</asrwt>
<pdfrwt beam="1">  1        2 0.38205921E+00 0.79169156E+03</pdfrwt>
<pdfrwt beam="2">  1       -2 0.47035905E-01 0.79169156E+03</pdfrwt>
<totfact> 0.15856138E+01</totfact>
</mgrwt>
</event>
<event>
 4    1  0.3057048E-007  0.9053531E+03  0.7818608E-02  0.9517492E-01
          2   -1    0    0  501    0  0.00000000000E+00  0.00000000000E+00  0.19660672145E+04  0.19660672145E+04  0.25500000000E-02 0. -1.
         -2   -1    0    0    0  501 -0.00000000000E+00 -0.00000000000E+00 -0.42778649455E+03  0.42778649456E+03  0.25500000000E-02 0.  1.
    8880023    1    1    2    0    0  0.13212155379E+02 -0.62103098628E+03  0.22476363257E+03  0.93283596831E+03  0.65864270000E+03 0.  1.
    8880022    1    1    2    0    0 -0.13212155379E+02  0.62103098628E+03  0.13135170874E+04  0.14610177407E+04  0.15294330000E+03 0. -1.
<mgrwt>
<rscale>  0 0.83006388E+03</rscale>
<asrwt>0</asrwt>
<pdfrwt beam="1">  1        2 0.30247188E+00 0.90535311E+03</pdfrwt>
<pdfrwt beam="2">  1       -2 0.65813307E-01 0.90535311E+03</pdfrwt>
<totfact> 0.15030208E+01</totfact>
</mgrwt>
</event>
<event>
 4    1  0.3057048E-007  0.6666981E+03  0.7818608E-02  0.1018149E+00
          2   -1    0    0  501    0  0.00000000000E+00  0.00000000000E+00  0.27130230020E+04  0.27130230020E+04  0.25500000000E-02 0. -1.
         -2   -1    0    0    0  501 -0.00000000000E+00 -0.00000000000E+00 -0.25738149343E+03  0.25738149344E+03  0.25500000000E-02 0.  1.
    8880023    1    1    2    0    0 -0.55851407981E+02  0.86929928170E+02  0.18447402082E+03  0.69174927742E+03  0.65864270000E+03 0.  1.
    8880022    1    1    2    0    0  0.55851407981E+02 -0.86929928170E+02  0.22711674877E+04  0.22786552180E+04  0.15294330000E+03 0.  0.
<mgrwt>
<rscale>  0 0.48360414E+03</rscale>
<asrwt>0</asrwt>
<pdfrwt beam="1">  1        2 0.41738817E+00 0.66669813E+03</pdfrwt>
<pdfrwt beam="2">  1       -2 0.39597152E-01 0.66669813E+03</pdfrwt>
<totfact> 0.16797890E+01</totfact>
</mgrwt>
</event>
<event>
 4    1  0.3057048E-007  0.7610163E+03  0.7818608E-02  0.9802483E-01
         -2   -1    0    0    0  501 -0.00000000000E+00  0.00000000000E+00  0.44253240660E+03  0.44253240661E+03  0.25500000000E-02 0.  1.
          2   -1    0    0  501    0  0.00000000000E+00 -0.00000000000E+00 -0.16353789716E+04  0.16353789716E+04  0.25500000000E-02 0. -1.
    8880023    1    1    2    0    0  0.14761910315E+03 -0.35148861938E+03  0.56168112673E+02  0.76308630725E+03  0.65864270000E+03 0.  1.
    8880022    1    1    2    0    0 -0.14761910315E+03  0.35148861938E+03 -0.12490146777E+04  0.13148250710E+04  0.15294330000E+03 0.  0.
<mgrwt>
<rscale>  0 0.65229440E+03</rscale>
<asrwt>0</asrwt>
<pdfrwt beam="1">  1        2 0.25159676E+00 0.76101633E+03</pdfrwt>
<pdfrwt beam="2">  1       -2 0.68081910E-01 0.76101633E+03</pdfrwt>
<totfact> 0.21569191E+01</totfact>
</mgrwt>
</event>
<event>
 4    1  0.3057048E-007  0.7486414E+03  0.7818608E-02  0.9835454E-01
          2   -1    0    0  501    0  0.00000000000E+00  0.00000000000E+00  0.15108005692E+04  0.15108005692E+04  0.25500000000E-02 0. -1.
         -2   -1    0    0    0  501 -0.00000000000E+00 -0.00000000000E+00 -0.55240907083E+03  0.55240907083E+03  0.25500000000E-02 0.  1.
    8880023    1    1    2    0    0 -0.81546784473E+02  0.34641570052E+03 -0.25390961828E+03  0.79052768209E+03  0.65864270000E+03 0.  1.
    8880022    1    1    2    0    0  0.81546784473E+02 -0.34641570052E+03  0.12123011166E+04  0.12726819579E+04  0.15294330000E+03 0.  0.
<mgrwt>
<rscale>  0 0.63494075E+03</rscale>
<asrwt>0</asrwt>
<pdfrwt beam="1">  1        2 0.23243086E+00 0.74864138E+03</pdfrwt>
<pdfrwt beam="2">  1       -2 0.84986011E-01 0.74864138E+03</pdfrwt>
<totfact> 0.15458849E+01</totfact>
</mgrwt>
</event>
<event>
 4    1  0.3057048E-007  0.8155237E+03  0.7818608E-02  0.9678184E-01
         -2   -1    0    0    0  501 -0.00000000000E+00  0.00000000000E+00  0.10043861515E+04  0.10043861515E+04  0.25500000000E-02 0.  1.
          2   -1    0    0  501    0  0.00000000000E+00 -0.00000000000E+00 -0.11822455259E+04  0.11822455259E+04  0.25500000000E-02 0. -1.
    8880023    1    1    2    0    0  0.53101396765E+01  0.48087473470E+03  0.76439242971E+03  0.11177543115E+04  0.65864270000E+03 0.  1.
    8880022    1    1    2    0    0 -0.53101396765E+01 -0.48087473470E+03 -0.94225180405E+03  0.10688773659E+04  0.15294330000E+03 0.  0.
<mgrwt>
<rscale>  0 0.72330690E+03</rscale>
<asrwt>0</asrwt>
<pdfrwt beam="1">  1        2 0.18188393E+00 0.81552371E+03</pdfrwt>
<pdfrwt beam="2">  1       -2 0.15452095E+00 0.81552371E+03</pdfrwt>
<totfact> 0.54403170E+00</totfact>
</mgrwt>
</event>
<event>
 4    1  0.3057048E-007  0.1498040E+04  0.7818608E-02  0.8911021E-01
         -2   -1    0    0    0  501 -0.00000000000E+00  0.00000000000E+00  0.75613275795E+03  0.75613275796E+03  0.25500000000E-02 0.  1.
          2   -1    0    0  501    0  0.00000000000E+00 -0.00000000000E+00 -0.30079559283E+04  0.30079559283E+04  0.25500000000E-02 0. -1.
    8880023    1    1    2    0    0  0.91456449284E+03 -0.98685599465E+03 -0.17882336574E+04  0.23327886285E+04  0.65864270000E+03 0. -1.
    8880022    1    1    2    0    0 -0.91456449284E+03  0.98685599465E+03 -0.46358951299E+03  0.14313000578E+04  0.15294330000E+03 0.  0.
<mgrwt>
<rscale>  0 0.14606921E+04</rscale>
<asrwt>0</asrwt>
<pdfrwt beam="1">  1        2 0.46276245E+00 0.14980398E+04</pdfrwt>
<pdfrwt beam="2">  1       -2 0.11632812E+00 0.14980398E+04</pdfrwt>
<totfact> 0.94101971E-01</totfact>
</mgrwt>
</event>
<event>
 4    1  0.3057048E-007  0.7074758E+03  0.7818608E-02  0.9967496E-01
         -2   -1    0    0    0  501 -0.00000000000E+00  0.00000000000E+00  0.43682655266E+03  0.43682655267E+03  0.25500000000E-02 0.  1.
          2   -1    0    0  501    0  0.00000000000E+00 -0.00000000000E+00 -0.10485004082E+04  0.10485004082E+04  0.25500000000E-02 0. -1.
    8880023    1    1    2    0    0 -0.15009011289E+03  0.21020182337E+03  0.98519820571E+02  0.71430260383E+03  0.65864270000E+03 0.  0.
    8880022    1    1    2    0    0  0.15009011289E+03 -0.21020182337E+03 -0.71019367611E+03  0.77102435703E+03  0.15294330000E+03 0. -1.
<mgrwt>
<rscale>  0 0.57098726E+03</rscale>
<asrwt>0</asrwt>
<pdfrwt beam="1">  1        2 0.16130775E+00 0.70747583E+03</pdfrwt>
<pdfrwt beam="2">  1       -2 0.67204085E-01 0.70747583E+03</pdfrwt>
<totfact> 0.48609836E+01</totfact>
</mgrwt>
</event>
<event>
 4    1  0.3057048E-007  0.1290292E+04  0.7818608E-02  0.9073989E-01
         -2   -1    0    0    0  501 -0.00000000000E+00  0.00000000000E+00  0.63649804729E+03  0.63649804730E+03  0.25500000000E-02 0.  1.
          2   -1    0    0  501    0  0.00000000000E+00 -0.00000000000E+00 -0.28529793773E+04  0.28529793773E+04  0.25500000000E-02 0. -1.
    8880023    1    1    2    0    0  0.68170461318E+03 -0.87539831770E+03 -0.19499326065E+04  0.23381810816E+04  0.65864270000E+03 0. -1.
    8880022    1    1    2    0    0 -0.68170461318E+03  0.87539831770E+03 -0.26654872347E+03  0.11512963429E+04  0.15294330000E+03 0.  1.
<mgrwt>
<rscale>  0 0.12454378E+04</rscale>
<asrwt>0</asrwt>
<pdfrwt beam="1">  1        2 0.43891990E+00 0.12902921E+04</pdfrwt>
<pdfrwt beam="2">  1       -2 0.97922778E-01 0.12902921E+04</pdfrwt>
<totfact> 0.18220359E+00</totfact>
</mgrwt>
</event>
<event>
 4    1  0.3057048E-007  0.1108600E+04  0.7818608E-02  0.9251541E-01
          2   -1    0    0  501    0  0.00000000000E+00  0.00000000000E+00  0.10792620425E+04  0.10792620425E+04  0.25500000000E-02 0. -1.
         -2   -1    0    0    0  501 -0.00000000000E+00 -0.00000000000E+00 -0.13312690013E+04  0.13312690013E+04  0.25500000000E-02 0.  1.
    8880023    1    1    2    0    0  0.58968708747E+03 -0.66891908181E+03 -0.78690322247E+03  0.13594890536E+04  0.65864270000E+03 0.  0.
    8880022    1    1    2    0    0 -0.58968708747E+03  0.66891908181E+03  0.53489626370E+03  0.10510419902E+04  0.15294330000E+03 0.  0.
<mgrwt>
<rscale>  0 0.10536915E+04</rscale>
<asrwt>0</asrwt>
<pdfrwt beam="1">  1        2 0.16604031E+00 0.11085999E+04</pdfrwt>
<pdfrwt beam="2">  1       -2 0.20481062E+00 0.11085999E+04</pdfrwt>
<totfact> 0.27228134E+00</totfact>
</mgrwt>
</event>
<event>
 4    1  0.3057048E-007  0.6724372E+03  0.7818608E-02  0.1013973E+00
          2   -1    0    0  501    0  0.00000000000E+00  0.00000000000E+00  0.98949398095E+03  0.98949398095E+03  0.25500000000E-02 0. -1.
         -2   -1    0    0    0  501 -0.00000000000E+00 -0.00000000000E+00 -0.22192132430E+03  0.22192132431E+03  0.25500000000E-02 0.  1.
    8880023    1    1    2    0    0 -0.28276725243E+02 -0.13252195293E+03  0.37772856107E+03  0.77126565677E+03  0.65864270000E+03 0.  1.
    8880022    1    1    2    0    0  0.28276725243E+02  0.13252195293E+03  0.38984409558E+03  0.44014964850E+03  0.15294330000E+03 0.  0.
<mgrwt>
<rscale>  0 0.49925815E+03</rscale>
<asrwt>0</asrwt>
<pdfrwt beam="1">  1        2 0.15222985E+00 0.67243724E+03</pdfrwt>
<pdfrwt beam="2">  1       -2 0.34141742E-01 0.67243724E+03</pdfrwt>
<totfact> 0.20851591E+02</totfact>
</mgrwt>
</event>
<event>
 4    1  0.4040363E-007  0.9923750E+03  0.7818608E-02  0.9391602E-01
          2   -1    0    0  501    0  0.00000000000E+00  0.00000000000E+00  0.22270373932E+04  0.22270373932E+04  0.25500000000E-02 0. -1.
         -2   -1    0    0    0  501 -0.00000000000E+00 -0.00000000000E+00 -0.14130738183E+04  0.14130738183E+04  0.25500000000E-02 0.  1.
    8880023    1    1    2    0    0  0.66679475490E+03  0.32616344262E+03 -0.11594616530E+04  0.15261583691E+04  0.65864270000E+03 0.  0.
    8880022    1    1    2    0    0 -0.66679475490E+03 -0.32616344262E+03  0.19734252279E+04  0.21139528423E+04  0.15294330000E+03 0.  0.
<mgrwt>
<rscale>  0 0.92770021E+03</rscale>
<asrwt>0</asrwt>
<pdfrwt beam="1">  1        2 0.34262113E+00 0.99237495E+03</pdfrwt>
<pdfrwt beam="2">  1       -2 0.21739597E+00 0.99237495E+03</pdfrwt>
<totfact> 0.51419505E-01</totfact>
</mgrwt>
</event>
<event>
 4    1  0.3057048E-007  0.6611220E+03  0.7818608E-02  0.1023035E+00
         -2   -1    0    0    0  501 -0.00000000000E+00  0.00000000000E+00  0.13372108491E+03  0.13372108493E+03  0.25500000000E-02 0.  1.
          2   -1    0    0  501    0  0.00000000000E+00 -0.00000000000E+00 -0.21926477599E+04  0.21926477599E+04  0.25500000000E-02 0. -1.
    8880023    1    1    2    0    0 -0.50850955428E+02  0.26197527260E+02 -0.71986721811E+03  0.97738996725E+03  0.65864270000E+03 0.  1.
    8880022    1    1    2    0    0  0.50850955428E+02 -0.26197527260E+02 -0.13390594569E+04  0.13489788776E+04  0.15294330000E+03 0.  0.
<mgrwt>
<rscale>  0 0.46607031E+03</rscale>
<asrwt>0</asrwt>
<pdfrwt beam="1">  1        2 0.33733040E+00 0.66112203E+03</pdfrwt>
<pdfrwt beam="2">  1       -2 0.20572476E-01 0.66112203E+03</pdfrwt>
<totfact> 0.11016840E+02</totfact>
</mgrwt>
</event>
<event>
 4    1  0.3057048E-007  0.7625894E+03  0.7818608E-02  0.9798449E-01
          2   -1    0    0  501    0  0.00000000000E+00  0.00000000000E+00  0.14890522472E+04  0.14890522472E+04  0.25500000000E-02 0. -1.
         -2   -1    0    0    0  501 -0.00000000000E+00 -0.00000000000E+00 -0.59022034043E+03  0.59022034043E+03  0.25500000000E-02 0.  1.
    8880023    1    1    2    0    0  0.38200033037E+03  0.42522602091E+02 -0.29357596219E+03  0.81714715684E+03  0.65864270000E+03 0.  1.
    8880022    1    1    2    0    0 -0.38200033037E+03 -0.42522602091E+02  0.11924078690E+04  0.12621254308E+04  0.15294330000E+03 0.  0.
<mgrwt>
<rscale>  0 0.65445829E+03</rscale>
<asrwt>0</asrwt>
<pdfrwt beam="1">  1        2 0.22908496E+00 0.76258942E+03</pdfrwt>
<pdfrwt beam="2">  1       -2 0.90803131E-01 0.76258942E+03</pdfrwt>
<totfact> 0.13631410E+01</totfact>
</mgrwt>
</event>
<event>
 4    1  0.4577083E-007  0.6702038E+03  0.7818608E-02  0.1015517E+00
         -2   -1    0    0    0  501 -0.00000000000E+00  0.00000000000E+00  0.21066900133E+04  0.21066900133E+04  0.25500000000E-02 0.  1.
          2   -1    0    0  501    0  0.00000000000E+00 -0.00000000000E+00 -0.10209655070E+04  0.10209655070E+04  0.25500000000E-02 0. -1.
    8880023    1    1    2    0    0  0.73097332352E+02 -0.10009831977E+03  0.20431171745E+04  0.21502327522E+04  0.65864270000E+03 0.  1.
    8880022    1    1    2    0    0 -0.73097332352E+02  0.10009831977E+03 -0.95739266821E+03  0.97742276819E+03  0.15294330000E+03 0.  0.
<mgrwt>
<rscale>  0 0.49339584E+03</rscale>
<asrwt>0</asrwt>
<pdfrwt beam="1">  1        2 0.15707162E+00 0.67020377E+03</pdfrwt>
<pdfrwt beam="2">  1       -2 0.32410616E+00 0.67020377E+03</pdfrwt>
<totfact> 0.59094147E-01</totfact>
</mgrwt>
</event>
<event>
 4    1  0.3057048E-007  0.8168993E+03  0.7818608E-02  0.9675381E-01
         -2   -1    0    0    0  501 -0.00000000000E+00  0.00000000000E+00  0.10772890153E+04  0.10772890153E+04  0.25500000000E-02 0.  1.
          2   -1    0    0  501    0  0.00000000000E+00 -0.00000000000E+00 -0.53039338316E+03  0.53039338316E+03  0.25500000000E-02 0. -1.
    8880023    1    1    2    0    0  0.31863003086E+03  0.36330319494E+03 -0.57458552877E+02  0.81891757802E+03  0.65864270000E+03 0.  0.
    8880022    1    1    2    0    0 -0.31863003086E+03 -0.36330319494E+03  0.60435418503E+03  0.78876482046E+03  0.15294330000E+03 0.  0.
<mgrwt>
<rscale>  0 0.72501698E+03</rscale>
<asrwt>0</asrwt>
<pdfrwt beam="1">  1        2 0.81598984E-01 0.81689933E+03</pdfrwt>
<pdfrwt beam="2">  1       -2 0.16573677E+00 0.81689933E+03</pdfrwt>
<totfact> 0.13258712E+01</totfact>
</mgrwt>
</event>
<event>
 4    1  0.3057048E-007  0.1153322E+04  0.7818608E-02  0.9203889E-01
          2   -1    0    0  501    0  0.00000000000E+00  0.00000000000E+00  0.37158530042E+04  0.37158530042E+04  0.25500000000E-02 0. -1.
         -2   -1    0    0    0  501 -0.00000000000E+00 -0.00000000000E+00 -0.78814613463E+03  0.78814613464E+03  0.25500000000E-02 0.  1.
    8880023    1    1    2    0    0  0.72037637424E+03 -0.61432859854E+03  0.32842267665E+04  0.34808472256E+04  0.65864270000E+03 0.  0.
    8880022    1    1    2    0    0 -0.72037637424E+03  0.61432859854E+03 -0.35651989700E+03  0.10231519132E+04  0.15294330000E+03 0.  0.
<mgrwt>
<rscale>  0 0.11013382E+04</rscale>
<asrwt>0</asrwt>
<pdfrwt beam="1">  1        2 0.57166969E+00 0.11533221E+04</pdfrwt>
<pdfrwt beam="2">  1       -2 0.12125325E+00 0.11533221E+04</pdfrwt>
<totfact> 0.29709606E-01</totfact>
</mgrwt>
</event>
<event>
 4    1  0.3057048E-007  0.7041642E+03  0.7818608E-02  0.9980346E-01
          2   -1    0    0  501    0  0.00000000000E+00  0.00000000000E+00  0.92484860466E+03  0.92484860467E+03  0.25500000000E-02 0. -1.
         -2   -1    0    0    0  501 -0.00000000000E+00 -0.00000000000E+00 -0.16047081653E+04  0.16047081653E+04  0.25500000000E-02 0.  1.
    8880023    1    1    2    0    0 -0.10038342258E+03 -0.22794781090E+03 -0.15009912264E+04  0.16579571478E+04  0.65864270000E+03 0.  1.
    8880022    1    1    2    0    0  0.10038342258E+03  0.22794781090E+03  0.82113166569E+03  0.87159962221E+03  0.15294330000E+03 0.  0.
<mgrwt>
<rscale>  0 0.56520492E+03</rscale>
<asrwt>0</asrwt>
<pdfrwt beam="1">  1        2 0.14228440E+00 0.70416422E+03</pdfrwt>
<pdfrwt beam="2">  1       -2 0.24687818E+00 0.70416422E+03</pdfrwt>
<totfact> 0.19718477E+00</totfact>
</mgrwt>
</event>
<event>
 4    1  0.3057048E-007  0.6680473E+03  0.7818608E-02  0.1017103E+00
          2   -1    0    0  501    0  0.00000000000E+00  0.00000000000E+00  0.11718236819E+04  0.11718236819E+04  0.25500000000E-02 0. -1.
         -2   -1    0    0    0  501 -0.00000000000E+00 -0.00000000000E+00 -0.84044519091E+03  0.84044519092E+03  0.25500000000E-02 0.  1.
    8880023    1    1    2    0    0 -0.76379013640E+00 -0.11169791560E+03 -0.69767136683E+03  0.96593610041E+03  0.65864270000E+03 0.  1.
    8880022    1    1    2    0    0  0.76379013640E+00  0.11169791560E+03  0.10290498578E+04  0.10463327724E+04  0.15294330000E+03 0.  0.
<mgrwt>
<rscale>  0 0.48746654E+03</rscale>
<asrwt>0</asrwt>
<pdfrwt beam="1">  1        2 0.18028057E+00 0.66804731E+03</pdfrwt>
<pdfrwt beam="2">  1       -2 0.12929926E+00 0.66804731E+03</pdfrwt>
<totfact> 0.89407932E+00</totfact>
</mgrwt>
</event>
<event>
 4    1  0.3057048E-007  0.7219384E+03  0.7818608E-02  0.9916081E-01
         -2   -1    0    0    0  501 -0.00000000000E+00  0.00000000000E+00  0.41448687011E+03  0.41448687012E+03  0.25500000000E-02 0.  1.
          2   -1    0    0  501    0  0.00000000000E+00 -0.00000000000E+00 -0.21316352378E+04  0.21316352378E+04  0.25500000000E-02 0. -1.
    8880023    1    1    2    0    0 -0.29370826669E+03  0.33470936818E+02  0.72701200246E+02  0.72558977413E+03  0.65864270000E+03 0.  1.
    8880022    1    1    2    0    0  0.29370826669E+03 -0.33470936818E+02 -0.17898495679E+04  0.18205323338E+04  0.15294330000E+03 0.  0.
<mgrwt>
<rscale>  0 0.59488232E+03</rscale>
<asrwt>0</asrwt>
<pdfrwt beam="1">  1        2 0.32794388E+00 0.72193840E+03</pdfrwt>
<pdfrwt beam="2">  1       -2 0.63767212E-01 0.72193840E+03</pdfrwt>
<totfact> 0.13378685E+01</totfact>
</mgrwt>
</event>
<event>
 4    1  0.3057048E-007  0.9528701E+03  0.7818608E-02  0.9445997E-01
         -2   -1    0    0    0  501 -0.00000000000E+00  0.00000000000E+00  0.55374180563E+03  0.55374180563E+03  0.25500000000E-02 0.  1.
          2   -1    0    0  501    0  0.00000000000E+00 -0.00000000000E+00 -0.29749857763E+04  0.29749857763E+04  0.25500000000E-02 0. -1.
    8880023    1    1    2    0    0 -0.66123908934E+03 -0.19213043217E+03  0.54532455074E+02  0.95442926986E+03  0.65864270000E+03 0.  1.
    8880022    1    1    2    0    0  0.66123908934E+03  0.19213043217E+03 -0.24757764257E+04  0.25742983121E+04  0.15294330000E+03 0.  0.
<mgrwt>
<rscale>  0 0.88385107E+03</rscale>
<asrwt>0</asrwt>
<pdfrwt beam="1">  1        2 0.45769011E+00 0.95287011E+03</pdfrwt>
<pdfrwt beam="2">  1       -2 0.85191049E-01 0.95287011E+03</pdfrwt>
<totfact> 0.22239313E+00</totfact>
</mgrwt>
</event>
<event>
 4    1  0.3234974E-007  0.8682684E+03  0.7818608E-02  0.9579021E-01
         -2   -1    0    0    0  501 -0.00000000000E+00  0.00000000000E+00  0.75831300755E+03  0.75831300755E+03  0.25500000000E-02 0.  1.
          2   -1    0    0  501    0  0.00000000000E+00 -0.00000000000E+00 -0.24042435690E+04  0.24042435690E+04  0.25500000000E-02 0. -1.
    8880023    1    1    2    0    0  0.17853354181E+03  0.53684776785E+03  0.45580676150E+03  0.98063742611E+03  0.65864270000E+03 0.  1.
    8880022    1    1    2    0    0 -0.17853354181E+03 -0.53684776785E+03 -0.21017373229E+04  0.21819191504E+04  0.15294330000E+03 0.  0.
<mgrwt>
<rscale>  0 0.78700376E+03</rscale>
<asrwt>0</asrwt>
<pdfrwt beam="1">  1        2 0.36988362E+00 0.86826837E+03</pdfrwt>
<pdfrwt beam="2">  1       -2 0.11666354E+00 0.86826837E+03</pdfrwt>
<totfact> 0.23088466E+00</totfact>
</mgrwt>
</event>
<event>
 4    1  0.3057048E-007  0.6833498E+03  0.7818608E-02  0.1007489E+00
         -2   -1    0    0    0  501 -0.00000000000E+00  0.00000000000E+00  0.22169607149E+03  0.22169607151E+03  0.25500000000E-02 0.  1.
          2   -1    0    0  501    0  0.00000000000E+00 -0.00000000000E+00 -0.12964008378E+04  0.12964008378E+04  0.25500000000E-02 0. -1.
    8880023    1    1    2    0    0 -0.10787221929E+03  0.14669792005E+03 -0.37584783221E+03  0.77989005294E+03  0.65864270000E+03 0.  1.
    8880022    1    1    2    0    0  0.10787221929E+03 -0.14669792005E+03 -0.69885693412E+03  0.73820685639E+03  0.15294330000E+03 0.  0.
<mgrwt>
<rscale>  0 0.52484949E+03</rscale>
<asrwt>0</asrwt>
<pdfrwt beam="1">  1        2 0.19944628E+00 0.68334977E+03</pdfrwt>
<pdfrwt beam="2">  1       -2 0.34107089E-01 0.68334977E+03</pdfrwt>
<totfact> 0.13634502E+02</totfact>
</mgrwt>
</event>
<event>
 4    1  0.3057048E-007  0.7919994E+03  0.7818608E-02  0.9728370E-01
          2   -1    0    0  501    0  0.00000000000E+00  0.00000000000E+00  0.25170521304E+04  0.25170521304E+04  0.25500000000E-02 0. -1.
         -2   -1    0    0    0  501 -0.00000000000E+00 -0.00000000000E+00 -0.27171835548E+03  0.27171835549E+03  0.25500000000E-02 0.  1.
    8880023    1    1    2    0    0  0.22117220978E+03 -0.38017859903E+03  0.40326693733E+03  0.88875606470E+03  0.65864270000E+03 0.  1.
    8880022    1    1    2    0    0 -0.22117220978E+03  0.38017859903E+03  0.18420668375E+04  0.19000144211E+04  0.15294330000E+03 0.  0.
<mgrwt>
<rscale>  0 0.69352517E+03</rscale>
<asrwt>0</asrwt>
<pdfrwt beam="1">  1        2 0.38723877E+00 0.79199944E+03</pdfrwt>
<pdfrwt beam="2">  1       -2 0.41802826E-01 0.79199944E+03</pdfrwt>
<totfact> 0.19186593E+01</totfact>
</mgrwt>
</event>
<event>
 4    1  0.3057048E-007  0.8042418E+03  0.7818608E-02  0.9701698E-01
         -2   -1    0    0    0  501 -0.00000000000E+00  0.00000000000E+00  0.56411019574E+03  0.56411019574E+03  0.25500000000E-02 0.  1.
          2   -1    0    0  501    0  0.00000000000E+00 -0.00000000000E+00 -0.12682203278E+04  0.12682203278E+04  0.25500000000E-02 0. -1.
    8880023    1    1    2    0    0  0.24951121428E+03  0.38825098733E+03  0.17928111457E+03  0.82398215971E+03  0.65864270000E+03 0.  1.
    8880022    1    1    2    0    0 -0.24951121428E+03 -0.38825098733E+03 -0.88339124668E+03  0.10083483639E+04  0.15294330000E+03 0.  0.
<mgrwt>
<rscale>  0 0.70915763E+03</rscale>
<asrwt>0</asrwt>
<pdfrwt beam="1">  1        2 0.19511082E+00 0.80424181E+03</pdfrwt>
<pdfrwt beam="2">  1       -2 0.86786184E-01 0.80424181E+03</pdfrwt>
<totfact> 0.20105155E+01</totfact>
</mgrwt>
</event>
<event>
 4    1  0.3057048E-007  0.7358526E+03  0.7818608E-02  0.9872197E-01
          2   -1    0    0  501    0  0.00000000000E+00  0.00000000000E+00  0.71775709113E+03  0.71775709113E+03  0.25500000000E-02 0. -1.
         -2   -1    0    0    0  501 -0.00000000000E+00 -0.00000000000E+00 -0.42132294390E+03  0.42132294391E+03  0.25500000000E-02 0.  1.
    8880023    1    1    2    0    0  0.32549262168E+03 -0.41513316320E+02  0.16657072453E+03  0.75446988988E+03  0.65864270000E+03 0.  1.
    8880022    1    1    2    0    0 -0.32549262168E+03  0.41513316320E+02  0.12986342270E+03  0.38461014517E+03  0.15294330000E+03 0. -1.
<mgrwt>
<rscale>  0 0.61627857E+03</rscale>
<asrwt>0</asrwt>
<pdfrwt beam="1">  1        2 0.11042417E+00 0.73585257E+03</pdfrwt>
<pdfrwt beam="2">  1       -2 0.64818915E-01 0.73585257E+03</pdfrwt>
<totfact> 0.88308953E+01</totfact>
</mgrwt>
</event>
<event>
 4    1  0.3057048E-007  0.6918128E+03  0.7818608E-02  0.1003303E+00
         -2   -1    0    0    0  501 -0.00000000000E+00  0.00000000000E+00  0.10597866918E+03  0.10597866921E+03  0.25500000000E-02 0.  1.
          2   -1    0    0  501    0  0.00000000000E+00 -0.00000000000E+00 -0.23736841840E+04  0.23736841840E+04  0.25500000000E-02 0. -1.
    8880023    1    1    2    0    0  0.16380783432E+03  0.13402121528E+03 -0.12466107607E+04  0.14257079952E+04  0.65864270000E+03 0.  1.
    8880022    1    1    2    0    0 -0.16380783432E+03 -0.13402121528E+03 -0.10210947541E+04  0.10539548580E+04  0.15294330000E+03 0. -1.
<mgrwt>
<rscale>  0 0.54225505E+03</rscale>
<asrwt>0</asrwt>
<pdfrwt beam="1">  1        2 0.36518214E+00 0.69181276E+03</pdfrwt>
<pdfrwt beam="2">  1       -2 0.16304412E-01 0.69181276E+03</pdfrwt>
<totfact> 0.13026348E+02</totfact>
</mgrwt>
</event>
<event>
 4    1  0.3057048E-007  0.6948087E+03  0.7818608E-02  0.1001946E+00
          2   -1    0    0  501    0  0.00000000000E+00  0.00000000000E+00  0.20506986048E+04  0.20506986048E+04  0.25500000000E-02 0. -1.
         -2   -1    0    0    0  501 -0.00000000000E+00 -0.00000000000E+00 -0.14697486367E+03  0.14697486369E+03  0.25500000000E-02 0.  1.
    8880023    1    1    2    0    0  0.10091412679E+03  0.19688893736E+03  0.79063656780E+03  0.10525518055E+04  0.65864270000E+03 0.  0.
    8880022    1    1    2    0    0 -0.10091412679E+03 -0.19688893736E+03  0.11130871734E+04  0.11451216630E+04  0.15294330000E+03 0.  0.
<mgrwt>
<rscale>  0 0.54805188E+03</rscale>
<asrwt>0</asrwt>
<pdfrwt beam="1">  1        2 0.31549211E+00 0.69480869E+03</pdfrwt>
<pdfrwt beam="2">  1       -2 0.22611516E-01 0.69480869E+03</pdfrwt>
<totfact> 0.11105374E+02</totfact>
</mgrwt>
</event>
<event>
 4    1  0.3057048E-007  0.9699222E+03  0.7818608E-02  0.9422012E-01
          2   -1    0    0  501    0  0.00000000000E+00  0.00000000000E+00  0.25077334135E+04  0.25077334135E+04  0.25500000000E-02 0. -1.
         -2   -1    0    0    0  501 -0.00000000000E+00 -0.00000000000E+00 -0.37630734642E+03  0.37630734643E+03  0.25500000000E-02 0.  1.
    8880023    1    1    2    0    0 -0.68766534869E+03 -0.18454079194E+03  0.48644447598E+03  0.10850702144E+04  0.65864270000E+03 0.  0.
    8880022    1    1    2    0    0  0.68766534869E+03  0.18454079194E+03  0.16449815911E+04  0.17989705455E+04  0.15294330000E+03 0.  0.
<mgrwt>
<rscale>  0 0.90286127E+03</rscale>
<asrwt>0</asrwt>
<pdfrwt beam="1">  1        2 0.38580514E+00 0.96992223E+03</pdfrwt>
<pdfrwt beam="2">  1       -2 0.57893437E-01 0.96992223E+03</pdfrwt>
<totfact> 0.97745045E+00</totfact>
</mgrwt>
</event>
<event>
 4    1  0.3057048E-007  0.7842483E+03  0.7818608E-02  0.9745951E-01
         -2   -1    0    0    0  501 -0.00000000000E+00  0.00000000000E+00  0.29998877462E+03  0.29998877463E+03  0.25500000000E-02 0.  1.
          2   -1    0    0  501    0  0.00000000000E+00 -0.00000000000E+00 -0.22670204811E+04  0.22670204811E+04  0.25500000000E-02 0. -1.
    8880023    1    1    2    0    0  0.41047172788E+03 -0.11290795346E+03 -0.29996198569E+03  0.83965626566E+03  0.65864270000E+03 0.  1.
    8880022    1    1    2    0    0 -0.41047172788E+03  0.11290795346E+03 -0.16670697208E+04  0.17273529901E+04  0.15294330000E+03 0.  0.
<mgrwt>
<rscale>  0 0.68345597E+03</rscale>
<asrwt>0</asrwt>
<pdfrwt beam="1">  1        2 0.34877237E+00 0.78424834E+03</pdfrwt>
<pdfrwt beam="2">  1       -2 0.46152121E-01 0.78424834E+03</pdfrwt>
<totfact> 0.21800320E+01</totfact>
</mgrwt>
</event>
<event>
 4    1  0.3057048E-007  0.8204554E+03  0.7818608E-02  0.9668197E-01
          2   -1    0    0  501    0  0.00000000000E+00  0.00000000000E+00  0.40291794203E+03  0.40291794203E+03  0.25500000000E-02 0. -1.
         -2   -1    0    0    0  501 -0.00000000000E+00 -0.00000000000E+00 -0.19531326547E+04  0.19531326547E+04  0.25500000000E-02 0.  1.
    8880023    1    1    2    0    0 -0.48450849397E+03  0.67737947859E+02 -0.16417745421E+04  0.18353666565E+04  0.65864270000E+03 0.  1.
    8880022    1    1    2    0    0  0.48450849397E+03 -0.67737947859E+02  0.91559829405E+02  0.52068394029E+03  0.15294330000E+03 0.  0.
<mgrwt>
<rscale>  0 0.72942334E+03</rscale>
<asrwt>0</asrwt>
<pdfrwt beam="1">  1        2 0.61987377E-01 0.82045543E+03</pdfrwt>
<pdfrwt beam="2">  1       -2 0.30048194E+00 0.82045543E+03</pdfrwt>
<totfact> 0.25658073E+00</totfact>
</mgrwt>
</event>
<event>
 4    1  0.3057048E-007  0.9046712E+03  0.7818608E-02  0.9518574E-01
         -2   -1    0    0    0  501 -0.00000000000E+00  0.00000000000E+00  0.21326932955E+04  0.21326932955E+04  0.25500000000E-02 0.  1.
          2   -1    0    0  501    0  0.00000000000E+00 -0.00000000000E+00 -0.36818835975E+03  0.36818835976E+03  0.25500000000E-02 0. -1.
    8880023    1    1    2    0    0  0.35925477678E+03  0.50552528478E+03  0.16051673760E+04  0.18425504930E+04  0.65864270000E+03 0.  0.
    8880022    1    1    2    0    0 -0.35925477678E+03 -0.50552528478E+03  0.15933755978E+03  0.65833116224E+03  0.15294330000E+03 0.  0.
<mgrwt>
<rscale>  0 0.82928178E+03</rscale>
<asrwt>0</asrwt>
<pdfrwt beam="1">  1        2 0.56644363E-01 0.90467122E+03</pdfrwt>
<pdfrwt beam="2">  1       -2 0.32810666E+00 0.90467122E+03</pdfrwt>
<totfact> 0.19083100E+00</totfact>
</mgrwt>
</event>
<event>
 4    1  0.3057048E-007  0.1045753E+04  0.7818608E-02  0.9324005E-01
         -2   -1    0    0    0  501 -0.00000000000E+00  0.00000000000E+00  0.18242657025E+04  0.18242657025E+04  0.25500000000E-02 0.  1.
          2   -1    0    0  501    0  0.00000000000E+00 -0.00000000000E+00 -0.11954515134E+04  0.11954515134E+04  0.25500000000E-02 0. -1.
    8880023    1    1    2    0    0 -0.75095519427E+03  0.30960474487E+03  0.14936997340E+04  0.18233863834E+04  0.65864270000E+03 0.  0.
    8880022    1    1    2    0    0  0.75095519427E+03 -0.30960474487E+03 -0.86488554489E+03  0.11963308324E+04  0.15294330000E+03 0.  0.
<mgrwt>
<rscale>  0 0.98602680E+03</rscale>
<asrwt>0</asrwt>
<pdfrwt beam="1">  1        2 0.18391562E+00 0.10457528E+04</pdfrwt>
<pdfrwt beam="2">  1       -2 0.28065626E+00 0.10457528E+04</pdfrwt>
<totfact> 0.79092453E-01</totfact>
</mgrwt>
</event>
<event>
 4    1  0.3057048E-007  0.1392145E+04  0.7818608E-02  0.8989810E-01
         -2   -1    0    0    0  501 -0.00000000000E+00  0.00000000000E+00  0.48625310805E+03  0.48625310806E+03  0.25500000000E-02 0.  1.
          2   -1    0    0  501    0  0.00000000000E+00 -0.00000000000E+00 -0.40925742619E+04  0.40925742619E+04  0.25500000000E-02 0. -1.
    8880023    1    1    2    0    0 -0.32912294563E+03  0.11814977271E+04 -0.10647032270E+04  0.17526157481E+04  0.65864270000E+03 0.  1.
    8880022    1    1    2    0    0  0.32912294563E+03 -0.11814977271E+04 -0.25416179269E+04  0.28262116219E+04  0.15294330000E+03 0. -1.
<mgrwt>
<rscale>  0 0.13513457E+04</rscale>
<asrwt>0</asrwt>
<pdfrwt beam="1">  1        2 0.62962679E+00 0.13921455E+04</pdfrwt>
<pdfrwt beam="2">  1       -2 0.74808173E-01 0.13921455E+04</pdfrwt>
<totfact> 0.45712654E-01</totfact>
</mgrwt>
</event>
<event>
 4    1  0.3057048E-007  0.8105452E+03  0.7818608E-02  0.9688442E-01
         -2   -1    0    0    0  501 -0.00000000000E+00  0.00000000000E+00  0.10224879730E+04  0.10224879730E+04  0.25500000000E-02 0.  1.
          2   -1    0    0  501    0  0.00000000000E+00 -0.00000000000E+00 -0.68543588078E+03  0.68543588078E+03  0.25500000000E-02 0. -1.
    8880023    1    1    2    0    0  0.42517592058E+03  0.20590949401E+03  0.71741130940E+03  0.10824335898E+04  0.65864270000E+03 0.  0.
    8880022    1    1    2    0    0 -0.42517592058E+03 -0.20590949401E+03 -0.38035921722E+03  0.62549026396E+03  0.15294330000E+03 0.  0.
<mgrwt>
<rscale>  0 0.71709110E+03</rscale>
<asrwt>0</asrwt>
<pdfrwt beam="1">  1        2 0.10545167E+00 0.81054518E+03</pdfrwt>
<pdfrwt beam="2">  1       -2 0.15730584E+00 0.81054518E+03</pdfrwt>
<totfact> 0.11203732E+01</totfact>
</mgrwt>
</event>
<event>
 4    1  0.3057048E-007  0.7068087E+03  0.7818608E-02  0.9970048E-01
          2   -1    0    0  501    0  0.00000000000E+00  0.00000000000E+00  0.58556475475E+03  0.58556475476E+03  0.25500000000E-02 0. -1.
         -2   -1    0    0    0  501 -0.00000000000E+00 -0.00000000000E+00 -0.83036468628E+03  0.83036468628E+03  0.25500000000E-02 0.  1.
    8880023    1    1    2    0    0  0.88339836942E+02 -0.24075805145E+03 -0.61736991484E+03  0.93846906403E+03  0.65864270000E+03 0.  1.
    8880022    1    1    2    0    0 -0.88339836942E+02  0.24075805145E+03  0.37256998332E+03  0.47746037701E+03  0.15294330000E+03 0.  0.
<mgrwt>
<rscale>  0 0.56983313E+03</rscale>
<asrwt>0</asrwt>
<pdfrwt beam="1">  1        2 0.90086886E-01 0.70680872E+03</pdfrwt>
<pdfrwt beam="2">  1       -2 0.12774841E+00 0.70680872E+03</pdfrwt>
<totfact> 0.23579171E+01</totfact>
</mgrwt>
</event>
<event>
 4    1  0.3057048E-007  0.7464338E+03  0.7818608E-02  0.9841587E-01
          2   -1    0    0  501    0  0.00000000000E+00  0.00000000000E+00  0.16578035592E+04  0.16578035592E+04  0.25500000000E-02 0. -1.
         -2   -1    0    0    0  501 -0.00000000000E+00 -0.00000000000E+00 -0.32108186775E+03  0.32108186776E+03  0.25500000000E-02 0.  1.
    8880023    1    1    2    0    0 -0.23749338042E+03 -0.25874710422E+03  0.19051998208E+03  0.77036435504E+03  0.65864270000E+03 0.  1.
    8880022    1    1    2    0    0  0.23749338042E+03  0.25874710422E+03  0.11462017094E+04  0.12085210720E+04  0.15294330000E+03 0.  0.
<mgrwt>
<rscale>  0 0.63177700E+03</rscale>
<asrwt>0</asrwt>
<pdfrwt beam="1">  1        2 0.25504671E+00 0.74643377E+03</pdfrwt>
<pdfrwt beam="2">  1       -2 0.49397209E-01 0.74643377E+03</pdfrwt>
<totfact> 0.41176143E+01</totfact>
</mgrwt>
</event>
<event>
 4    1  0.3057048E-007  0.9319897E+03  0.7818608E-02  0.9476515E-01
          2   -1    0    0  501    0  0.00000000000E+00  0.00000000000E+00  0.35840216504E+04  0.35840216504E+04  0.25500000000E-02 0. -1.
         -2   -1    0    0    0  501 -0.00000000000E+00 -0.00000000000E+00 -0.55534346707E+03  0.55534346707E+03  0.25500000000E-02 0.  1.
    8880023    1    1    2    0    0  0.65438496769E+03  0.81086266714E+02 -0.10088648466E+03  0.93743424177E+03  0.65864270000E+03 0.  0.
    8880022    1    1    2    0    0 -0.65438496769E+03 -0.81086266714E+02  0.31295646680E+04  0.32019308757E+04  0.15294330000E+03 0.  0.
<mgrwt>
<rscale>  0 0.86037665E+03</rscale>
<asrwt>0</asrwt>
<pdfrwt beam="1">  1        2 0.55138799E+00 0.93198974E+03</pdfrwt>
<pdfrwt beam="2">  1       -2 0.85437450E-01 0.93198974E+03</pdfrwt>
<totfact> 0.88685105E-01</totfact>
</mgrwt>
</event>
<event>
 4    1  0.3057048E-007  0.7363518E+03  0.7818608E-02  0.9870704E-01
         -2   -1    0    0    0  501 -0.00000000000E+00  0.00000000000E+00  0.90633763831E+03  0.90633763832E+03  0.25500000000E-02 0.  1.
          2   -1    0    0  501    0  0.00000000000E+00 -0.00000000000E+00 -0.70125978088E+03  0.70125978088E+03  0.25500000000E-02 0. -1.
    8880023    1    1    2    0    0 -0.32037139979E+03 -0.75934021779E+02  0.68508757666E+03  0.10057628962E+04  0.65864270000E+03 0.  1.
    8880022    1    1    2    0    0  0.32037139979E+03  0.75934021779E+02 -0.48000971923E+03  0.60183452297E+03  0.15294330000E+03 0.  0.
<mgrwt>
<rscale>  0 0.61702333E+03</rscale>
<asrwt>0</asrwt>
<pdfrwt beam="1">  1        2 0.10788612E+00 0.73635183E+03</pdfrwt>
<pdfrwt beam="2">  1       -2 0.13943656E+00 0.73635183E+03</pdfrwt>
<totfact> 0.15074207E+01</totfact>
</mgrwt>
</event>
<event>
 4    1  0.3057048E-007  0.6678165E+03  0.7818608E-02  0.1017279E+00
         -2   -1    0    0    0  501 -0.00000000000E+00  0.00000000000E+00  0.67195952068E+03  0.67195952069E+03  0.25500000000E-02 0.  1.
          2   -1    0    0  501    0  0.00000000000E+00 -0.00000000000E+00 -0.80386876396E+03  0.80386876397E+03  0.25500000000E-02 0. -1.
    8880023    1    1    2    0    0 -0.99423740871E+02 -0.47786838034E+02  0.48848771039E+03  0.82740504688E+03  0.65864270000E+03 0.  1.
    8880022    1    1    2    0    0  0.99423740871E+02  0.47786838034E+02 -0.62039695367E+03  0.64842323777E+03  0.15294330000E+03 0.  0.
<mgrwt>
<rscale>  0 0.48681456E+03</rscale>
<asrwt>0</asrwt>
<pdfrwt beam="1">  1        2 0.12367212E+00 0.66781649E+03</pdfrwt>
<pdfrwt beam="2">  1       -2 0.10337839E+00 0.66781649E+03</pdfrwt>
<totfact> 0.26701827E+01</totfact>
</mgrwt>
</event>
<event>
 4    1  0.3057048E-007  0.9666212E+03  0.7818608E-02  0.9426593E-01
         -2   -1    0    0    0  501 -0.00000000000E+00  0.00000000000E+00  0.66560921514E+03  0.66560921515E+03  0.25500000000E-02 0.  1.
          2   -1    0    0  501    0  0.00000000000E+00 -0.00000000000E+00 -0.16344046448E+04  0.16344046448E+04  0.25500000000E-02 0. -1.
    8880023    1    1    2    0    0  0.29084287687E+03  0.64494705748E+03  0.13914292038E+03  0.97658447896E+03  0.65864270000E+03 0.  0.
    8880022    1    1    2    0    0 -0.29084287687E+03 -0.64494705748E+03 -0.11079383501E+04  0.13234293810E+04  0.15294330000E+03 0. -1.
<mgrwt>
<rscale>  0 0.89919153E+03</rscale>
<asrwt>0</asrwt>
<pdfrwt beam="1">  1        2 0.25144687E+00 0.96662117E+03</pdfrwt>
<pdfrwt beam="2">  1       -2 0.10240142E+00 0.96662117E+03</pdfrwt>
<totfact> 0.83271839E+00</totfact>
</mgrwt>
</event>
<event>
 4    1  0.3057048E-007  0.8943986E+03  0.7818608E-02  0.9535084E-01
          2   -1    0    0  501    0  0.00000000000E+00  0.00000000000E+00  0.94643702788E+03  0.94643702789E+03  0.25500000000E-02 0. -1.
         -2   -1    0    0    0  501 -0.00000000000E+00 -0.00000000000E+00 -0.12542180827E+04  0.12542180827E+04  0.25500000000E-02 0.  1.
    8880023    1    1    2    0    0  0.41881110423E+03  0.43673316302E+03 -0.95023876014E+03  0.13049530659E+04  0.65864270000E+03 0.  1.
    8880022    1    1    2    0    0 -0.41881110423E+03 -0.43673316302E+03  0.64245770532E+03  0.89570204468E+03  0.15294330000E+03 0.  0.
<mgrwt>
<rscale>  0 0.81745898E+03</rscale>
<asrwt>0</asrwt>
<pdfrwt beam="1">  1        2 0.14560570E+00 0.89439857E+03</pdfrwt>
<pdfrwt beam="2">  1       -2 0.19295663E+00 0.89439857E+03</pdfrwt>
<totfact> 0.40570820E+00</totfact>
</mgrwt>
</event>
<event>
 4    1  0.3057048E-007  0.7259575E+03  0.7818608E-02  0.9902920E-01
         -2   -1    0    0    0  501 -0.00000000000E+00  0.00000000000E+00  0.11620107546E+04  0.11620107546E+04  0.25500000000E-02 0.  1.
          2   -1    0    0  501    0  0.00000000000E+00 -0.00000000000E+00 -0.28194261896E+03  0.28194261898E+03  0.25500000000E-02 0. -1.
    8880023    1    1    2    0    0 -0.26905216380E+03 -0.14427400076E+03  0.82356393082E+03  0.10978487184E+04  0.65864270000E+03 0.  0.
    8880022    1    1    2    0    0  0.26905216380E+03  0.14427400076E+03  0.56504204810E+02  0.34610465515E+03  0.15294330000E+03 0.  0.
<mgrwt>
<rscale>  0 0.60119963E+03</rscale>
<asrwt>0</asrwt>
<pdfrwt beam="1">  1        2 0.43375788E-01 0.72595748E+03</pdfrwt>
<pdfrwt beam="2">  1       -2 0.17877088E+00 0.72595748E+03</pdfrwt>
<totfact> 0.22111838E+01</totfact>
</mgrwt>
</event>
<event>
 4    1  0.3057048E-007  0.6744656E+03  0.7818608E-02  0.1012645E+00
         -2   -1    0    0    0  501 -0.00000000000E+00  0.00000000000E+00  0.43705373897E+03  0.43705373897E+03  0.25500000000E-02 0.  1.
          2   -1    0    0  501    0  0.00000000000E+00 -0.00000000000E+00 -0.65076896926E+03  0.65076896927E+03  0.25500000000E-02 0. -1.
    8880023    1    1    2    0    0  0.14034786623E+03  0.37365297030E+02  0.12776219544E+03  0.68645981224E+03  0.65864270000E+03 0.  1.
    8880022    1    1    2    0    0 -0.14034786623E+03 -0.37365297030E+02 -0.34147742574E+03  0.40136289600E+03  0.15294330000E+03 0.  0.
<mgrwt>
<rscale>  0 0.50436738E+03</rscale>
<asrwt>0</asrwt>
<pdfrwt beam="1">  1        2 0.10011830E+00 0.67446564E+03</pdfrwt>
<pdfrwt beam="2">  1       -2 0.67239037E-01 0.67446564E+03</pdfrwt>
<totfact> 0.92626481E+01</totfact>
</mgrwt>
</event>
<event>
 4    1  0.3057048E-007  0.6604538E+03  0.7818608E-02  0.1023696E+00
          2   -1    0    0  501    0  0.00000000000E+00  0.00000000000E+00  0.47616865060E+03  0.47616865060E+03  0.25500000000E-02 0. -1.
         -2   -1    0    0    0  501 -0.00000000000E+00 -0.00000000000E+00 -0.79304262878E+03  0.79304262878E+03  0.25500000000E-02 0.  1.
    8880023    1    1    2    0    0  0.48660167308E+02 -0.45989861039E+01 -0.63289292252E+03  0.91474183253E+03  0.65864270000E+03 0.  1.
    8880022    1    1    2    0    0 -0.48660167308E+02  0.45989861039E+01  0.31601894434E+03  0.35446944685E+03  0.15294330000E+03 0.  0.
<mgrwt>
<rscale>  0 0.46376020E+03</rscale>
<asrwt>0</asrwt>
<pdfrwt beam="1">  1        2 0.73256715E-01 0.66045376E+03</pdfrwt>
<pdfrwt beam="2">  1       -2 0.12200656E+00 0.66045376E+03</pdfrwt>
<totfact> 0.33841767E+01</totfact>
</mgrwt>
</event>
<event>
 4    1  0.3057048E-007  0.7376239E+03  0.7818608E-02  0.9866923E-01
          2   -1    0    0  501    0  0.00000000000E+00  0.00000000000E+00  0.28222766890E+04  0.28222766890E+04  0.25500000000E-02 0. -1.
         -2   -1    0    0    0  501 -0.00000000000E+00 -0.00000000000E+00 -0.25065172690E+03  0.25065172691E+03  0.25500000000E-02 0.  1.
    8880023    1    1    2    0    0  0.14307697497E+03 -0.29967937536E+03  0.34116225022E+03  0.81269959765E+03  0.65864270000E+03 0.  1.
    8880022    1    1    2    0    0 -0.14307697497E+03  0.29967937536E+03  0.22304627119E+04  0.22602288183E+04  0.15294330000E+03 0.  0.
<mgrwt>
<rscale>  0 0.61891445E+03</rscale>
<asrwt>0</asrwt>
<pdfrwt beam="1">  1        2 0.43419640E+00 0.73762386E+03</pdfrwt>
<pdfrwt beam="2">  1       -2 0.38561805E-01 0.73762386E+03</pdfrwt>
<totfact> 0.15065887E+01</totfact>
</mgrwt>
</event>
<event>
 4    1  0.3057048E-007  0.1088448E+04  0.7818608E-02  0.9274028E-01
         -2   -1    0    0    0  501 -0.00000000000E+00  0.00000000000E+00  0.17867761432E+04  0.17867761432E+04  0.25500000000E-02 0.  1.
          2   -1    0    0  501    0  0.00000000000E+00 -0.00000000000E+00 -0.36682147968E+04  0.36682147968E+04  0.25500000000E-02 0. -1.
    8880023    1    1    2    0    0 -0.58798302978E+03  0.63654210634E+03 -0.34712541641E+04  0.36379012596E+04  0.65864270000E+03 0.  0.
    8880022    1    1    2    0    0  0.58798302978E+03 -0.63654210634E+03  0.15898155104E+04  0.18170896804E+04  0.15294330000E+03 0.  0.
<mgrwt>
<rscale>  0 0.10320950E+04</rscale>
<asrwt>0</asrwt>
<pdfrwt beam="1">  1        2 0.56434074E+00 0.10884485E+04</pdfrwt>
<pdfrwt beam="2">  1       -2 0.27488864E+00 0.10884485E+04</pdfrwt>
<totfact> 0.28542361E-02</totfact>
</mgrwt>
</event>
<event>
 4    1  0.3057048E-007  0.7640982E+03  0.7818608E-02  0.9794611E-01
         -2   -1    0    0    0  501 -0.00000000000E+00  0.00000000000E+00  0.52786865809E+03  0.52786865810E+03  0.25500000000E-02 0.  1.
          2   -1    0    0  501    0  0.00000000000E+00 -0.00000000000E+00 -0.11235066963E+04  0.11235066963E+04  0.25500000000E-02 0. -1.
    8880023    1    1    2    0    0 -0.93129387631E+02 -0.37598231781E+03  0.16728189239E+03  0.78219513162E+03  0.65864270000E+03 0.  1.
    8880022    1    1    2    0    0  0.93129387631E+02  0.37598231781E+03 -0.76291993059E+03  0.86918022277E+03  0.15294330000E+03 0.  0.
<mgrwt>
<rscale>  0 0.65652549E+03</rscale>
<asrwt>0</asrwt>
<pdfrwt beam="1">  1        2 0.17284718E+00 0.76409816E+03</pdfrwt>
<pdfrwt beam="2">  1       -2 0.81210563E-01 0.76409816E+03</pdfrwt>
<totfact> 0.28615900E+01</totfact>
</mgrwt>
</event>
<event>
 4    1  0.3057048E-007  0.1016078E+04  0.7818608E-02  0.9360818E-01
         -2   -1    0    0    0  501 -0.00000000000E+00  0.00000000000E+00  0.84823273598E+03  0.84823273599E+03  0.25500000000E-02 0.  1.
          2   -1    0    0  501    0  0.00000000000E+00 -0.00000000000E+00 -0.17221692607E+04  0.17221692607E+04  0.25500000000E-02 0. -1.
    8880023    1    1    2    0    0 -0.77121524292E+03  0.61901100628E+02  0.38355100203E+03  0.10860599774E+04  0.65864270000E+03 0.  1.
    8880022    1    1    2    0    0  0.77121524292E+03 -0.61901100628E+02 -0.12574875268E+04  0.14843420193E+04  0.15294330000E+03 0.  0.
<mgrwt>
<rscale>  0 0.95371547E+03</rscale>
<asrwt>0</asrwt>
<pdfrwt beam="1">  1        2 0.26494912E+00 0.10160782E+04</pdfrwt>
<pdfrwt beam="2">  1       -2 0.13049734E+00 0.10160782E+04</pdfrwt>
<totfact> 0.40727445E+00</totfact>
</mgrwt>
</event>
<event>
 4    1  0.3057048E-007  0.7048149E+03  0.7818608E-02  0.9977784E-01
         -2   -1    0    0    0  501 -0.00000000000E+00  0.00000000000E+00  0.93881594521E+03  0.93881594521E+03  0.25500000000E-02 0.  1.
          2   -1    0    0  501    0  0.00000000000E+00 -0.00000000000E+00 -0.15499605110E+04  0.15499605110E+04  0.25500000000E-02 0. -1.
    8880023    1    1    2    0    0  0.24693984317E+03  0.44435324464E+02  0.78909684365E+03  0.10580348856E+04  0.65864270000E+03 0.  1.
    8880022    1    1    2    0    0 -0.24693984317E+03 -0.44435324464E+02 -0.14002414094E+04  0.14307415706E+04  0.15294330000E+03 0.  0.
<mgrwt>
<rscale>  0 0.56635171E+03</rscale>
<asrwt>0</asrwt>
<pdfrwt beam="1">  1        2 0.23845546E+00 0.70481486E+03</pdfrwt>
<pdfrwt beam="2">  1       -2 0.14443322E+00 0.70481486E+03</pdfrwt>
<totfact> 0.40755091E+00</totfact>
</mgrwt>
</event>
<event>
 4    1  0.3057048E-007  0.6825699E+03  0.7818608E-02  0.1007906E+00
          2   -1    0    0  501    0  0.00000000000E+00  0.00000000000E+00  0.63588495198E+03  0.63588495198E+03  0.25500000000E-02 0. -1.
         -2   -1    0    0    0  501 -0.00000000000E+00 -0.00000000000E+00 -0.82371991363E+03  0.82371991363E+03  0.25500000000E-02 0.  1.
    8880023    1    1    2    0    0  0.12806453011E+03  0.12526343332E+03 -0.64894016998E+03  0.94182004761E+03  0.65864270000E+03 0.  0.
    8880022    1    1    2    0    0 -0.12806453011E+03 -0.12526343332E+03  0.46110520833E+03  0.51778481801E+03  0.15294330000E+03 0.  0.
<mgrwt>
<rscale>  0 0.52315507E+03</rscale>
<asrwt>0</asrwt>
<pdfrwt beam="1">  1        2 0.97828454E-01 0.68256989E+03</pdfrwt>
<pdfrwt beam="2">  1       -2 0.12672614E+00 0.68256989E+03</pdfrwt>
<totfact> 0.21825924E+01</totfact>
</mgrwt>
</event>
<event>
 4    1  0.3057048E-007  0.9869136E+03  0.7818608E-02  0.9398882E-01
          2   -1    0    0  501    0  0.00000000000E+00  0.00000000000E+00  0.16239019009E+04  0.16239019009E+04  0.25500000000E-02 0. -1.
         -2   -1    0    0    0  501 -0.00000000000E+00 -0.00000000000E+00 -0.91184557186E+03  0.91184557187E+03  0.25500000000E-02 0.  1.
    8880023    1    1    2    0    0  0.71641620169E+03 -0.16412212370E+03 -0.50283022151E+03  0.11076265993E+04  0.65864270000E+03 0.  1.
    8880022    1    1    2    0    0 -0.71641620169E+03  0.16412212370E+03  0.12148865505E+04  0.14281208734E+04  0.15294330000E+03 0.  0.
<mgrwt>
<rscale>  0 0.92167708E+03</rscale>
<asrwt>0</asrwt>
<pdfrwt beam="1">  1        2 0.24983106E+00 0.98691360E+03</pdfrwt>
<pdfrwt beam="2">  1       -2 0.14028393E+00 0.98691360E+03</pdfrwt>
<totfact> 0.38460069E+00</totfact>
</mgrwt>
</event>
<event>
 4    1  0.3057048E-007  0.7110993E+03  0.7818608E-02  0.9953941E-01
          2   -1    0    0  501    0  0.00000000000E+00  0.00000000000E+00  0.17279597065E+04  0.17279597065E+04  0.25500000000E-02 0. -1.
         -2   -1    0    0    0  501 -0.00000000000E+00 -0.00000000000E+00 -0.15545994837E+03  0.15545994839E+03  0.25500000000E-02 0.  1.
    8880023    1    1    2    0    0  0.39676181507E+02  0.26509953783E+03  0.93062161024E+03  0.11712039754E+04  0.65864270000E+03 0.  0.
    8880022    1    1    2    0    0 -0.39676181507E+02 -0.26509953783E+03  0.64187814789E+03  0.71221567947E+03  0.15294330000E+03 0.  0.
<mgrwt>
<rscale>  0 0.57716789E+03</rscale>
<asrwt>0</asrwt>
<pdfrwt beam="1">  1        2 0.26583996E+00 0.71109927E+03</pdfrwt>
<pdfrwt beam="2">  1       -2 0.23916915E-01 0.71109927E+03</pdfrwt>
<totfact> 0.15031282E+02</totfact>
</mgrwt>
</event>
<event>
 4    1  0.3057048E-007  0.7607699E+03  0.7818608E-02  0.9803118E-01
         -2   -1    0    0    0  501 -0.00000000000E+00  0.00000000000E+00  0.10723050509E+04  0.10723050509E+04  0.25500000000E-02 0.  1.
          2   -1    0    0  501    0  0.00000000000E+00 -0.00000000000E+00 -0.11816015642E+04  0.11816015642E+04  0.25500000000E-02 0. -1.
    8880023    1    1    2    0    0 -0.32027574370E+03  0.20587391181E+03  0.89166826112E+03  0.11721105382E+04  0.65864270000E+03 0.  1.
    8880022    1    1    2    0    0  0.32027574370E+03 -0.20587391181E+03 -0.10009647744E+04  0.10817960770E+04  0.15294330000E+03 0.  0.
<mgrwt>
<rscale>  0 0.65195461E+03</rscale>
<asrwt>0</asrwt>
<pdfrwt beam="1">  1        2 0.18178486E+00 0.76076989E+03</pdfrwt>
<pdfrwt beam="2">  1       -2 0.16497001E+00 0.76076989E+03</pdfrwt>
<totfact> 0.45935954E+00</totfact>
</mgrwt>
</event>
<event>
 4    1  0.3057048E-007  0.6729519E+03  0.7818608E-02  0.1013630E+00
          2   -1    0    0  501    0  0.00000000000E+00  0.00000000000E+00  0.11636230875E+04  0.11636230875E+04  0.25500000000E-02 0. -1.
         -2   -1    0    0    0  501 -0.00000000000E+00 -0.00000000000E+00 -0.23608906524E+03  0.23608906525E+03  0.25500000000E-02 0.  1.
    8880023    1    1    2    0    0 -0.13786960348E+03  0.67813376031E+01  0.29554629553E+03  0.73499104292E+03  0.65864270000E+03 0.  1.
    8880022    1    1    2    0    0  0.13786960348E+03 -0.67813376031E+01  0.63198772670E+03  0.66472110981E+03  0.15294330000E+03 0.  0.
<mgrwt>
<rscale>  0 0.50057272E+03</rscale>
<asrwt>0</asrwt>
<pdfrwt beam="1">  1        2 0.17901894E+00 0.67295187E+03</pdfrwt>
<pdfrwt beam="2">  1       -2 0.36321395E-01 0.67295187E+03</pdfrwt>
<totfact> 0.14478274E+02</totfact>
</mgrwt>
</event>
<event>
 4    1  0.3057048E-007  0.1219866E+04  0.7818608E-02  0.9138049E-01
          2   -1    0    0  501    0  0.00000000000E+00  0.00000000000E+00  0.19416301380E+04  0.19416301380E+04  0.25500000000E-02 0. -1.
         -2   -1    0    0    0  501 -0.00000000000E+00 -0.00000000000E+00 -0.14278487966E+04  0.14278487966E+04  0.25500000000E-02 0.  1.
    8880023    1    1    2    0    0  0.10113200147E+04 -0.17746667334E+03 -0.97006217111E+03  0.15585549122E+04  0.65864270000E+03 0.  0.
    8880022    1    1    2    0    0 -0.10113200147E+04  0.17746667334E+03  0.14838435125E+04  0.18109240224E+04  0.15294330000E+03 0.  0.
<mgrwt>
<rscale>  0 0.11716395E+04</rscale>
<asrwt>0</asrwt>
<pdfrwt beam="1">  1        2 0.29871233E+00 0.12198659E+04</pdfrwt>
<pdfrwt beam="2">  1       -2 0.21966905E+00 0.12198659E+04</pdfrwt>
<totfact> 0.69274999E-01</totfact>
</mgrwt>
</event>
<event>
 4    1  0.3057048E-007  0.8536226E+03  0.7818608E-02  0.9605010E-01
          2   -1    0    0  501    0  0.00000000000E+00  0.00000000000E+00  0.26078944629E+04  0.26078944629E+04  0.25500000000E-02 0. -1.
         -2   -1    0    0    0  501 -0.00000000000E+00 -0.00000000000E+00 -0.19798565352E+03  0.19798565353E+03  0.25500000000E-02 0.  1.
    8880023    1    1    2    0    0  0.52524501843E+03  0.13776421519E+03  0.12196348867E+04  0.14886842417E+04  0.65864270000E+03 0.  0.
    8880022    1    1    2    0    0 -0.52524501843E+03 -0.13776421519E+03  0.11902739227E+04  0.13171958747E+04  0.15294330000E+03 0.  0.
<mgrwt>
<rscale>  0 0.76965479E+03</rscale>
<asrwt>0</asrwt>
<pdfrwt beam="1">  1        2 0.40121450E+00 0.85362258E+03</pdfrwt>
<pdfrwt beam="2">  1       -2 0.30459334E-01 0.85362258E+03</pdfrwt>
<totfact> 0.30938373E+01</totfact>
</mgrwt>
</event>
<event>
 4    1  0.3057048E-007  0.6796098E+03  0.7818608E-02  0.1009545E+00
          2   -1    0    0  501    0  0.00000000000E+00  0.00000000000E+00  0.13693600927E+03  0.13693600929E+03  0.25500000000E-02 0. -1.
         -2   -1    0    0    0  501 -0.00000000000E+00 -0.00000000000E+00 -0.19584173626E+04  0.19584173627E+04  0.25500000000E-02 0.  1.
    8880023    1    1    2    0    0 -0.14324343447E+03 -0.86836917627E+02 -0.17150548476E+04  0.18447988152E+04  0.65864270000E+03 0.  1.
    8880022    1    1    2    0    0  0.14324343447E+03  0.86836917627E+02 -0.10642650575E+03  0.25055455678E+03  0.15294330000E+03 0.  0.
<mgrwt>
<rscale>  0 0.51655784E+03</rscale>
<asrwt>0</asrwt>
<pdfrwt beam="1">  1        2 0.21067080E-01 0.67960984E+03</pdfrwt>
<pdfrwt beam="2">  1       -2 0.30129496E+00 0.67960984E+03</pdfrwt>
<totfact> 0.87398786E+00</totfact>
</mgrwt>
</event>
<event>
 4    1  0.3057048E-007  0.7278614E+03  0.7818608E-02  0.9896831E-01
         -2   -1    0    0    0  501 -0.00000000000E+00  0.00000000000E+00  0.12534316849E+03  0.12534316852E+03  0.25500000000E-02 0.  1.
          2   -1    0    0  501    0  0.00000000000E+00 -0.00000000000E+00 -0.24951526733E+04  0.24951526733E+04  0.25500000000E-02 0. -1.
    8880023    1    1    2    0    0  0.24229719817E+03  0.19303897236E+03 -0.12274026998E+04  0.14269896885E+04  0.65864270000E+03 0.  0.
    8880022    1    1    2    0    0 -0.24229719817E+03 -0.19303897236E+03 -0.11424068050E+04  0.11935061534E+04  0.15294330000E+03 0.  0.
<mgrwt>
<rscale>  0 0.60415101E+03</rscale>
<asrwt>0</asrwt>
<pdfrwt beam="1">  1        2 0.38386960E+00 0.72786138E+03</pdfrwt>
<pdfrwt beam="2">  1       -2 0.19283566E-01 0.72786138E+03</pdfrwt>
<totfact> 0.83008975E+01</totfact>
</mgrwt>
</event>
<event>
 4    1  0.3057048E-007  0.1022987E+04  0.7818608E-02  0.9352083E-01
          2   -1    0    0  501    0  0.00000000000E+00  0.00000000000E+00  0.32521674580E+04  0.32521674580E+04  0.25500000000E-02 0. -1.
         -2   -1    0    0    0  501 -0.00000000000E+00 -0.00000000000E+00 -0.40684234395E+03  0.40684234396E+03  0.25500000000E-02 0.  1.
    8880023    1    1    2    0    0  0.28338142503E+00  0.78274605142E+03  0.41988121702E+03  0.11058037367E+04  0.65864270000E+03 0.  0.
    8880022    1    1    2    0    0 -0.28338142503E+00 -0.78274605142E+03  0.24254438970E+04  0.25532060653E+04  0.15294330000E+03 0.  0.
<mgrwt>
<rscale>  0 0.96126185E+03</rscale>
<asrwt>0</asrwt>
<pdfrwt beam="1">  1        2 0.50033347E+00 0.10229866E+04</pdfrwt>
<pdfrwt beam="2">  1       -2 0.62591128E-01 0.10229866E+04</pdfrwt>
<totfact> 0.29095011E+00</totfact>
</mgrwt>
</event>
<event>
 4    1  0.3057048E-007  0.6638767E+03  0.7818608E-02  0.1020495E+00
         -2   -1    0    0    0  501 -0.00000000000E+00  0.00000000000E+00  0.88836025093E+03  0.88836025093E+03  0.25500000000E-02 0.  1.
          2   -1    0    0  501    0  0.00000000000E+00 -0.00000000000E+00 -0.13738157775E+04  0.13738157775E+04  0.25500000000E-02 0. -1.
    8880023    1    1    2    0    0 -0.78341680887E+02  0.28010822139E+02  0.75740962616E+03  0.10071750460E+04  0.65864270000E+03 0.  1.
    8880022    1    1    2    0    0  0.78341680887E+02 -0.28010822139E+02 -0.12428651528E+04  0.12550009825E+04  0.15294330000E+03 0.  0.
<mgrwt>
<rscale>  0 0.47508398E+03</rscale>
<asrwt>0</asrwt>
<pdfrwt beam="1">  1        2 0.21135627E+00 0.66387667E+03</pdfrwt>
<pdfrwt beam="2">  1       -2 0.13667081E+00 0.66387667E+03</pdfrwt>
<totfact> 0.59382317E+00</totfact>
</mgrwt>
</event>
<event>
 4    1  0.3057048E-007  0.1004327E+04  0.7818608E-02  0.9375919E-01
          2   -1    0    0  501    0  0.00000000000E+00  0.00000000000E+00  0.25620729074E+04  0.25620729074E+04  0.25500000000E-02 0. -1.
         -2   -1    0    0    0  501 -0.00000000000E+00 -0.00000000000E+00 -0.80517998740E+03  0.80517998740E+03  0.25500000000E-02 0.  1.
    8880023    1    1    2    0    0 -0.34766392144E+03  0.67378917087E+03 -0.39604272105E+03  0.10795934847E+04  0.65864270000E+03 0.  0.
    8880022    1    1    2    0    0  0.34766392144E+03 -0.67378917087E+03  0.21529356411E+04  0.22876594101E+04  0.15294330000E+03 0.  0.
<mgrwt>
<rscale>  0 0.94084255E+03</rscale>
<asrwt>0</asrwt>
<pdfrwt beam="1">  1        2 0.39416506E+00 0.10043268E+04</pdfrwt>
<pdfrwt beam="2">  1       -2 0.12387384E+00 0.10043268E+04</pdfrwt>
<totfact> 0.15827876E+00</totfact>
</mgrwt>
</event>
<event>
 4    1  0.3057048E-007  0.9914309E+03  0.7818608E-02  0.9392856E-01
          2   -1    0    0  501    0  0.00000000000E+00  0.00000000000E+00  0.11867956848E+04  0.11867956848E+04  0.25500000000E-02 0. -1.
         -2   -1    0    0    0  501 -0.00000000000E+00 -0.00000000000E+00 -0.11237780232E+04  0.11237780232E+04  0.25500000000E-02 0.  1.
    8880023    1    1    2    0    0  0.19584748922E+03  0.71468083971E+03 -0.71725445356E+03  0.12236785113E+04  0.65864270000E+03 0.  0.
    8880022    1    1    2    0    0 -0.19584748922E+03 -0.71468083971E+03  0.78027211523E+03  0.10868951967E+04  0.15294330000E+03 0.  0.
<mgrwt>
<rscale>  0 0.92665982E+03</rscale>
<asrwt>0</asrwt>
<pdfrwt beam="1">  1        2 0.18258395E+00 0.99143086E+03</pdfrwt>
<pdfrwt beam="2">  1       -2 0.17288893E+00 0.99143086E+03</pdfrwt>
<totfact> 0.38913740E+00</totfact>
</mgrwt>
</event>
<event>
 4    1  0.3057048E-007  0.6798936E+03  0.7818608E-02  0.1009384E+00
          2   -1    0    0  501    0  0.00000000000E+00  0.00000000000E+00  0.26218189382E+04  0.26218189382E+04  0.25500000000E-02 0. -1.
         -2   -1    0    0    0  501 -0.00000000000E+00 -0.00000000000E+00 -0.32133979228E+03  0.32133979229E+03  0.25500000000E-02 0.  1.
    8880023    1    1    2    0    0  0.11633507023E+03  0.12211159954E+03  0.50583570925E+02  0.68177268588E+03  0.65864270000E+03 0.  1.
    8880022    1    1    2    0    0 -0.11633507023E+03 -0.12211159954E+03  0.22498955750E+04  0.22613860446E+04  0.15294330000E+03 0.  0.
<mgrwt>
<rscale>  0 0.51720227E+03</rscale>
<asrwt>0</asrwt>
<pdfrwt beam="1">  1        2 0.40335677E+00 0.67989359E+03</pdfrwt>
<pdfrwt beam="2">  1       -2 0.49436889E-01 0.67989359E+03</pdfrwt>
<totfact> 0.12177995E+01</totfact>
</mgrwt>
</event>
<event>
 4    1  0.3057048E-007  0.1169372E+04  0.7818608E-02  0.9187486E-01
          2   -1    0    0  501    0  0.00000000000E+00  0.00000000000E+00  0.32063405053E+04  0.32063405053E+04  0.25500000000E-02 0. -1.
         -2   -1    0    0    0  501 -0.00000000000E+00 -0.00000000000E+00 -0.44585499893E+03  0.44585499894E+03  0.25500000000E-02 0.  1.
    8880023    1    1    2    0    0 -0.64601924500E+03 -0.71852564480E+03  0.67881602716E+03  0.13521173663E+04  0.65864270000E+03 0.  0.
    8880022    1    1    2    0    0  0.64601924500E+03  0.71852564480E+03  0.20816694792E+04  0.23000781380E+04  0.15294330000E+03 0.  0.
<mgrwt>
<rscale>  0 0.11183535E+04</rscale>
<asrwt>0</asrwt>
<pdfrwt beam="1">  1        2 0.49328316E+00 0.11693717E+04</pdfrwt>
<pdfrwt beam="2">  1       -2 0.68593076E-01 0.11693717E+04</pdfrwt>
<totfact> 0.25033939E+00</totfact>
</mgrwt>
</event>
<event>
 4    1  0.3057048E-007  0.8059978E+03  0.7818608E-02  0.9697975E-01
         -2   -1    0    0    0  501 -0.00000000000E+00  0.00000000000E+00  0.37822424939E+03  0.37822424939E+03  0.25500000000E-02 0.  1.
          2   -1    0    0  501    0  0.00000000000E+00 -0.00000000000E+00 -0.18582806449E+04  0.18582806449E+04  0.25500000000E-02 0. -1.
    8880023    1    1    2    0    0  0.44240071661E+03  0.14178796992E+03 -0.15061468642E+03  0.81994951827E+03  0.65864270000E+03 0.  0.
    8880022    1    1    2    0    0 -0.44240071661E+03 -0.14178796992E+03 -0.13294417091E+04  0.14165553760E+04  0.15294330000E+03 0.  0.
<mgrwt>
<rscale>  0 0.71137514E+03</rscale>
<asrwt>0</asrwt>
<pdfrwt beam="1">  1        2 0.28588932E+00 0.80599778E+03</pdfrwt>
<pdfrwt beam="2">  1       -2 0.58188347E-01 0.80599778E+03</pdfrwt>
<totfact> 0.22647652E+01</totfact>
</mgrwt>
</event>
<event>
 4    1  0.3057048E-007  0.7573492E+03  0.7818608E-02  0.9812019E-01
         -2   -1    0    0    0  501 -0.00000000000E+00  0.00000000000E+00  0.91768655855E+03  0.91768655856E+03  0.25500000000E-02 0.  1.
          2   -1    0    0  501    0  0.00000000000E+00 -0.00000000000E+00 -0.92532560981E+03  0.92532560981E+03  0.25500000000E-02 0. -1.
    8880023    1    1    2    0    0  0.37258719791E+03  0.30764523837E+02  0.69799849852E+03  0.10299416421E+04  0.65864270000E+03 0.  0.
    8880022    1    1    2    0    0 -0.37258719791E+03 -0.30764523837E+02 -0.70563754978E+03  0.81307052624E+03  0.15294330000E+03 0.  0.
<mgrwt>
<rscale>  0 0.64721509E+03</rscale>
<asrwt>0</asrwt>
<pdfrwt beam="1">  1        2 0.14235779E+00 0.75734925E+03</pdfrwt>
<pdfrwt beam="2">  1       -2 0.14118255E+00 0.75734925E+03</pdfrwt>
<totfact> 0.10065902E+01</totfact>
</mgrwt>
</event>
<event>
 4    1  0.3057048E-007  0.6621408E+03  0.7818608E-02  0.1022063E+00
         -2   -1    0    0    0  501 -0.00000000000E+00  0.00000000000E+00  0.16962607233E+03  0.16962607235E+03  0.25500000000E-02 0.  1.
          2   -1    0    0  501    0  0.00000000000E+00 -0.00000000000E+00 -0.25976974213E+04  0.25976974213E+04  0.25500000000E-02 0. -1.
    8880023    1    1    2    0    0 -0.47748892642E+02 -0.48376042860E+02 -0.49422922045E+03  0.82625233850E+03  0.65864270000E+03 0.  1.
    8880022    1    1    2    0    0  0.47748892642E+02  0.48376042860E+02 -0.19338421285E+04  0.19410711552E+04  0.15294330000E+03 0.  0.
<mgrwt>
<rscale>  0 0.46949446E+03</rscale>
<asrwt>0</asrwt>
<pdfrwt beam="1">  1        2 0.39964573E+00 0.66214077E+03</pdfrwt>
<pdfrwt beam="2">  1       -2 0.26096321E-01 0.66214077E+03</pdfrwt>
<totfact> 0.42813132E+01</totfact>
</mgrwt>
</event>
<event>
 4    1  0.3057048E-007  0.9207785E+03  0.7818608E-02  0.9493466E-01
          2   -1    0    0  501    0  0.00000000000E+00  0.00000000000E+00  0.16081946539E+04  0.16081946539E+04  0.25500000000E-02 0. -1.
         -2   -1    0    0    0  501 -0.00000000000E+00 -0.00000000000E+00 -0.45303824445E+03  0.45303824445E+03  0.25500000000E-02 0.  1.
    8880023    1    1    2    0    0 -0.50028458104E+03 -0.40464570409E+03  0.27633446382E+03  0.96134996230E+03  0.65864270000E+03 0.  1.
    8880022    1    1    2    0    0  0.50028458104E+03  0.40464570409E+03  0.87882194563E+03  0.10998829360E+04  0.15294330000E+03 0.  0.
<mgrwt>
<rscale>  0 0.84767234E+03</rscale>
<asrwt>0</asrwt>
<pdfrwt beam="1">  1        2 0.24741456E+00 0.92077848E+03</pdfrwt>
<pdfrwt beam="2">  1       -2 0.69698192E-01 0.92077848E+03</pdfrwt>
<totfact> 0.20840571E+01</totfact>
</mgrwt>
</event>
<event>
 4    1  0.3057048E-007  0.9893052E+03  0.7818608E-02  0.9395685E-01
          2   -1    0    0  501    0  0.00000000000E+00  0.00000000000E+00  0.20991741260E+04  0.20991741260E+04  0.25500000000E-02 0. -1.
         -2   -1    0    0    0  501 -0.00000000000E+00 -0.00000000000E+00 -0.42033257080E+03  0.42033257081E+03  0.25500000000E-02 0.  1.
    8880023    1    1    2    0    0  0.38785638693E+03  0.62807804758E+03  0.14030903677E+04  0.17167956771E+04  0.65864270000E+03 0.  0.
    8880022    1    1    2    0    0 -0.38785638693E+03 -0.62807804758E+03  0.27575118750E+03  0.80271101971E+03  0.15294330000E+03 0.  0.
<mgrwt>
<rscale>  0 0.92431613E+03</rscale>
<asrwt>0</asrwt>
<pdfrwt beam="1">  1        2 0.32294987E+00 0.98930522E+03</pdfrwt>
<pdfrwt beam="2">  1       -2 0.64666548E-01 0.98930522E+03</pdfrwt>
<totfact> 0.13061249E+01</totfact>
</mgrwt>
</event>
<event>
 4    1  0.3057048E-007  0.1494688E+04  0.7818608E-02  0.8913396E-01
         -2   -1    0    0    0  501 -0.00000000000E+00  0.00000000000E+00  0.11874601254E+04  0.11874601255E+04  0.25500000000E-02 0.  1.
          2   -1    0    0  501    0  0.00000000000E+00 -0.00000000000E+00 -0.22718026149E+04  0.22718026149E+04  0.25500000000E-02 0. -1.
    8880023    1    1    2    0    0 -0.89379881126E+03 -0.10007032072E+04  0.30091629981E+03  0.15246783431E+04  0.65864270000E+03 0.  0.
    8880022    1    1    2    0    0  0.89379881126E+03  0.10007032072E+04 -0.13852587892E+04  0.19345843973E+04  0.15294330000E+03 0.  0.
<mgrwt>
<rscale>  0 0.14572411E+04</rscale>
<asrwt>0</asrwt>
<pdfrwt beam="1">  1        2 0.34950809E+00 0.14946884E+04</pdfrwt>
<pdfrwt beam="2">  1       -2 0.18268617E+00 0.14946884E+04</pdfrwt>
<totfact> 0.76918723E-01</totfact>
</mgrwt>
</event>
<event>
 4    1  0.3057048E-007  0.7338514E+03  0.7818608E-02  0.9878234E-01
         -2   -1    0    0    0  501 -0.00000000000E+00  0.00000000000E+00  0.31884368932E+03  0.31884368933E+03  0.25500000000E-02 0.  1.
          2   -1    0    0  501    0  0.00000000000E+00 -0.00000000000E+00 -0.15097759884E+04  0.15097759884E+04  0.25500000000E-02 0. -1.
    8880023    1    1    2    0    0 -0.18637670873E+03 -0.26455877010E+03 -0.17916784938E+03  0.75540647661E+03  0.65864270000E+03 0.  1.
    8880022    1    1    2    0    0  0.18637670873E+03  0.26455877010E+03 -0.10117644497E+04  0.10732132012E+04  0.15294330000E+03 0.  0.
<mgrwt>
<rscale>  0 0.61327871E+03</rscale>
<asrwt>0</asrwt>
<pdfrwt beam="1">  1        2 0.23227323E+00 0.73385137E+03</pdfrwt>
<pdfrwt beam="2">  1       -2 0.49052876E-01 0.73385137E+03</pdfrwt>
<totfact> 0.50478001E+01</totfact>
</mgrwt>
</event>
<event>
 4    1  0.3057048E-007  0.8421541E+03  0.7818608E-02  0.9626132E-01
         -2   -1    0    0    0  501 -0.00000000000E+00  0.00000000000E+00  0.95000843763E+03  0.95000843763E+03  0.25500000000E-02 0.  1.
          2   -1    0    0  501    0  0.00000000000E+00 -0.00000000000E+00 -0.73707255011E+03  0.73707255012E+03  0.25500000000E-02 0. -1.
    8880023    1    1    2    0    0 -0.11655371924E+03 -0.51169179276E+03 -0.34125118982E+03  0.90866706833E+03  0.65864270000E+03 0.  0.
    8880022    1    1    2    0    0  0.11655371924E+03  0.51169179276E+03  0.55418707734E+03  0.77841391942E+03  0.15294330000E+03 0.  0.
<mgrwt>
<rscale>  0 0.75590484E+03</rscale>
<asrwt>0</asrwt>
<pdfrwt beam="1">  1        2 0.11339578E+00 0.84215406E+03</pdfrwt>
<pdfrwt beam="2">  1       -2 0.14615514E+00 0.84215406E+03</pdfrwt>
<totfact> 0.12382382E+01</totfact>
</mgrwt>
</event>
<event>
 4    1  0.3057048E-007  0.6656601E+03  0.7818608E-02  0.1018986E+00
         -2   -1    0    0    0  501 -0.00000000000E+00  0.00000000000E+00  0.27383171337E+03  0.27383171339E+03  0.25500000000E-02 0.  1.
          2   -1    0    0  501    0  0.00000000000E+00 -0.00000000000E+00 -0.18009685876E+04  0.18009685876E+04  0.25500000000E-02 0. -1.
    8880023    1    1    2    0    0 -0.65597921492E+02  0.70640851244E+02 -0.14548842309E+03  0.68137383622E+03  0.65864270000E+03 0.  0.
    8880022    1    1    2    0    0  0.65597921492E+02 -0.70640851244E+02 -0.13816484512E+04  0.13934264648E+04  0.15294330000E+03 0.  0.
<mgrwt>
<rscale>  0 0.48054356E+03</rscale>
<asrwt>0</asrwt>
<pdfrwt beam="1">  1        2 0.27707208E+00 0.66566014E+03</pdfrwt>
<pdfrwt beam="2">  1       -2 0.42127957E-01 0.66566014E+03</pdfrwt>
<totfact> 0.47742570E+01</totfact>
</mgrwt>
</event>
<event>
 4    1  0.3057048E-007  0.7446465E+03  0.7818608E-02  0.9846613E-01
         -2   -1    0    0    0  501 -0.00000000000E+00  0.00000000000E+00  0.37593022690E+03  0.37593022690E+03  0.25500000000E-02 0.  1.
          2   -1    0    0  501    0  0.00000000000E+00 -0.00000000000E+00 -0.13424486340E+04  0.13424486340E+04  0.25500000000E-02 0. -1.
    8880023    1    1    2    0    0  0.16810708394E+03  0.30402002526E+03 -0.73776481685E+02  0.74829228444E+03  0.65864270000E+03 0.  1.
    8880022    1    1    2    0    0 -0.16810708394E+03 -0.30402002526E+03 -0.89274192542E+03  0.97008657648E+03  0.15294330000E+03 0.  0.
<mgrwt>
<rscale>  0 0.62919896E+03</rscale>
<asrwt>0</asrwt>
<pdfrwt beam="1">  1        2 0.20653056E+00 0.74464648E+03</pdfrwt>
<pdfrwt beam="2">  1       -2 0.57835420E-01 0.74464648E+03</pdfrwt>
<totfact> 0.44602438E+01</totfact>
</mgrwt>
</event>
<event>
 4    1  0.3057048E-007  0.8493882E+03  0.7818608E-02  0.9612726E-01
          2   -1    0    0  501    0  0.00000000000E+00  0.00000000000E+00  0.28216820379E+04  0.28216820379E+04  0.25500000000E-02 0. -1.
         -2   -1    0    0    0  501 -0.00000000000E+00 -0.00000000000E+00 -0.29139708200E+03  0.29139708201E+03  0.25500000000E-02 0.  1.
    8880023    1    1    2    0    0 -0.22965247831E+03  0.48467496622E+03  0.45382291641E+03  0.96302415826E+03  0.65864270000E+03 0.  1.
    8880022    1    1    2    0    0  0.22965247831E+03 -0.48467496622E+03  0.20764620395E+04  0.21500549617E+04  0.15294330000E+03 0. -1.
<mgrwt>
<rscale>  0 0.76459595E+03</rscale>
<asrwt>0</asrwt>
<pdfrwt beam="1">  1        2 0.43410491E+00 0.84938819E+03</pdfrwt>
<pdfrwt beam="2">  1       -2 0.44830322E-01 0.84938819E+03</pdfrwt>
<totfact> 0.11014163E+01</totfact>
</mgrwt>
</event>
<event>
 4    1  0.3057048E-007  0.1249163E+04  0.7818608E-02  0.9110753E-01
          2   -1    0    0  501    0  0.00000000000E+00  0.00000000000E+00  0.26316120816E+04  0.26316120816E+04  0.25500000000E-02 0. -1.
         -2   -1    0    0    0  501 -0.00000000000E+00 -0.00000000000E+00 -0.76474995549E+03  0.76474995550E+03  0.25500000000E-02 0.  1.
    8880023    1    1    2    0    0 -0.41162587827E+03 -0.97834692750E+03  0.19553923959E+04  0.23203379500E+04  0.65864270000E+03 0. -1.
    8880022    1    1    2    0    0  0.41162587827E+03  0.97834692750E+03 -0.88530269796E+02  0.10760240870E+04  0.15294330000E+03 0.  1.
<mgrwt>
<rscale>  0 0.12024061E+04</rscale>
<asrwt>0</asrwt>
<pdfrwt beam="1">  1        2 0.40486340E+00 0.12491632E+04</pdfrwt>
<pdfrwt beam="2">  1       -2 0.11765384E+00 0.12491632E+04</pdfrwt>
<totfact> 0.15879068E+00</totfact>
</mgrwt>
</event>
<event>
 4    1  0.3057048E-007  0.8228468E+03  0.7818608E-02  0.9663414E-01
         -2   -1    0    0    0  501 -0.00000000000E+00  0.00000000000E+00  0.83753724070E+03  0.83753724070E+03  0.25500000000E-02 0.  1.
          2   -1    0    0  501    0  0.00000000000E+00 -0.00000000000E+00 -0.99149183325E+03  0.99149183325E+03  0.25500000000E-02 0. -1.
    8880023    1    1    2    0    0 -0.31114472702E+03  0.38269513617E+03  0.52496090676E+03  0.97604342541E+03  0.65864270000E+03 0.  1.
    8880022    1    1    2    0    0  0.31114472702E+03 -0.38269513617E+03 -0.67891549930E+03  0.85298564854E+03  0.15294330000E+03 0.  0.
<mgrwt>
<rscale>  0 0.73237516E+03</rscale>
<asrwt>0</asrwt>
<pdfrwt beam="1">  1        2 0.15253721E+00 0.82284677E+03</pdfrwt>
<pdfrwt beam="2">  1       -2 0.12885188E+00 0.82284677E+03</pdfrwt>
<totfact> 0.11432153E+01</totfact>
</mgrwt>
</event>
<event>
 4    1  0.3057048E-007  0.7024016E+03  0.7818608E-02  0.9987381E-01
         -2   -1    0    0    0  501 -0.00000000000E+00  0.00000000000E+00  0.30914316586E+03  0.30914316587E+03  0.25500000000E-02 0.  1.
          2   -1    0    0  501    0  0.00000000000E+00 -0.00000000000E+00 -0.15954974416E+04  0.15954974416E+04  0.25500000000E-02 0. -1.
    8880023    1    1    2    0    0 -0.24264318086E+03 -0.26116073377E+02 -0.13174206026E+03  0.71464952194E+03  0.65864270000E+03 0.  0.
    8880022    1    1    2    0    0  0.24264318086E+03  0.26116073377E+02 -0.11546122155E+04  0.11899910856E+04  0.15294330000E+03 0.  0.
<mgrwt>
<rscale>  0 0.56207047E+03</rscale>
<asrwt>0</asrwt>
<pdfrwt beam="1">  1        2 0.24546114E+00 0.70240157E+03</pdfrwt>
<pdfrwt beam="2">  1       -2 0.47560488E-01 0.70240157E+03</pdfrwt>
<totfact> 0.48343825E+01</totfact>
</mgrwt>
</event>
<event>
 4    1  0.3057048E-007  0.1057713E+04  0.7818608E-02  0.9309666E-01
          2   -1    0    0  501    0  0.00000000000E+00  0.00000000000E+00  0.11819381467E+04  0.11819381467E+04  0.25500000000E-02 0. -1.
         -2   -1    0    0    0  501 -0.00000000000E+00 -0.00000000000E+00 -0.11195432150E+04  0.11195432150E+04  0.25500000000E-02 0.  1.
    8880023    1    1    2    0    0  0.47846102133E+03 -0.67529424693E+03 -0.61287079693E+03  0.12224434911E+04  0.65864270000E+03 0.  0.
    8880022    1    1    2    0    0 -0.47846102133E+03  0.67529424693E+03  0.67526572863E+03  0.10790378706E+04  0.15294330000E+03 0.  0.
<mgrwt>
<rscale>  0 0.99897845E+03</rscale>
<asrwt>0</asrwt>
<pdfrwt beam="1">  1        2 0.18183664E+00 0.10577133E+04</pdfrwt>
<pdfrwt beam="2">  1       -2 0.17223742E+00 0.10577133E+04</pdfrwt>
<totfact> 0.39312956E+00</totfact>
</mgrwt>
</event>
<event>
 4    1  0.3057048E-007  0.8571070E+03  0.7818608E-02  0.9598730E-01
         -2   -1    0    0    0  501 -0.00000000000E+00  0.00000000000E+00  0.44770803148E+03  0.44770803149E+03  0.25500000000E-02 0.  1.
          2   -1    0    0  501    0  0.00000000000E+00 -0.00000000000E+00 -0.11678654729E+04  0.11678654729E+04  0.25500000000E-02 0. -1.
    8880023    1    1    2    0    0 -0.15477263904E+03 -0.52618213051E+03 -0.30058367041E+03  0.90828572236E+03  0.65864270000E+03 0.  0.
    8880022    1    1    2    0    0  0.15477263904E+03  0.52618213051E+03 -0.41957377097E+03  0.70728778200E+03  0.15294330000E+03 0.  1.
<mgrwt>
<rscale>  0 0.77380268E+03</rscale>
<asrwt>0</asrwt>
<pdfrwt beam="1">  1        2 0.17967161E+00 0.85710700E+03</pdfrwt>
<pdfrwt beam="2">  1       -2 0.68878159E-01 0.85710700E+03</pdfrwt>
<totfact> 0.38434863E+01</totfact>
</mgrwt>
</event>
<event>
 4    1  0.3057048E-007  0.7226092E+03  0.7818608E-02  0.9913854E-01
         -2   -1    0    0    0  501 -0.00000000000E+00  0.00000000000E+00  0.84975639171E+03  0.84975639172E+03  0.25500000000E-02 0.  1.
          2   -1    0    0  501    0  0.00000000000E+00 -0.00000000000E+00 -0.11250125687E+04  0.11250125687E+04  0.25500000000E-02 0. -1.
    8880023    1    1    2    0    0 -0.28011382855E+03  0.99448964178E+02  0.66180189645E+03  0.97987030255E+03  0.65864270000E+03 0.  0.
    8880022    1    1    2    0    0  0.28011382855E+03 -0.99448964178E+02 -0.93705807343E+03  0.99489865787E+03  0.15294330000E+03 0.  0.
<mgrwt>
<rscale>  0 0.59594527E+03</rscale>
<asrwt>0</asrwt>
<pdfrwt beam="1">  1        2 0.17307886E+00 0.72260920E+03</pdfrwt>
<pdfrwt beam="2">  1       -2 0.13073175E+00 0.72260920E+03</pdfrwt>
<totfact> 0.92069553E+00</totfact>
</mgrwt>
</event>
<event>
 4    1  0.3057048E-007  0.8367653E+03  0.7818608E-02  0.9636310E-01
          2   -1    0    0  501    0  0.00000000000E+00  0.00000000000E+00  0.19513518503E+04  0.19513518503E+04  0.25500000000E-02 0. -1.
         -2   -1    0    0    0  501 -0.00000000000E+00 -0.00000000000E+00 -0.30147415172E+03  0.30147415173E+03  0.25500000000E-02 0.  1.
    8880023    1    1    2    0    0 -0.34045578187E+03 -0.38788643541E+03  0.47906521686E+03  0.96419900148E+03  0.65864270000E+03 0. -1.
    8880022    1    1    2    0    0  0.34045578187E+03  0.38788643541E+03  0.11708124818E+04  0.12886270006E+04  0.15294330000E+03 0.  1.
<mgrwt>
<rscale>  0 0.74938868E+03</rscale>
<asrwt>0</asrwt>
<pdfrwt beam="1">  1        2 0.30020798E+00 0.83676534E+03</pdfrwt>
<pdfrwt beam="2">  1       -2 0.46380638E-01 0.83676534E+03</pdfrwt>
<totfact> 0.31983085E+01</totfact>
</mgrwt>
</event>
<event>
 4    1  0.3057048E-007  0.7510783E+03  0.7818608E-02  0.9828778E-01
         -2   -1    0    0    0  501 -0.00000000000E+00  0.00000000000E+00  0.62210495931E+03  0.62210495932E+03  0.25500000000E-02 0.  1.
          2   -1    0    0  501    0  0.00000000000E+00 -0.00000000000E+00 -0.15131322759E+04  0.15131322759E+04  0.25500000000E-02 0. -1.
    8880023    1    1    2    0    0  0.24337366368E+03  0.26660382351E+03  0.35372540972E+03  0.83020492086E+03  0.65864270000E+03 0.  0.
    8880022    1    1    2    0    0 -0.24337366368E+03 -0.26660382351E+03 -0.12447527263E+04  0.13050323144E+04  0.15294330000E+03 0. -1.
<mgrwt>
<rscale>  0 0.63840771E+03</rscale>
<asrwt>0</asrwt>
<pdfrwt beam="1">  1        2 0.23278958E+00 0.75107826E+03</pdfrwt>
<pdfrwt beam="2">  1       -2 0.95708456E-01 0.75107826E+03</pdfrwt>
<totfact> 0.11711238E+01</totfact>
</mgrwt>
</event>
<event>
 4    1  0.3057048E-007  0.7935956E+03  0.7818608E-02  0.9724819E-01
         -2   -1    0    0    0  501 -0.00000000000E+00  0.00000000000E+00  0.20100621151E+04  0.20100621151E+04  0.25500000000E-02 0.  1.
          2   -1    0    0  501    0  0.00000000000E+00 -0.00000000000E+00 -0.82260932785E+03  0.82260932786E+03  0.25500000000E-02 0. -1.
    8880023    1    1    2    0    0  0.37421398488E+03  0.23653244599E+03  0.18547539381E+04  0.20174008233E+04  0.65864270000E+03 0.  1.
    8880022    1    1    2    0    0 -0.37421398488E+03 -0.23653244599E+03 -0.66730115083E+03  0.81527061973E+03  0.15294330000E+03 0.  0.
<mgrwt>
<rscale>  0 0.69558131E+03</rscale>
<asrwt>0</asrwt>
<pdfrwt beam="1">  1        2 0.12655528E+00 0.79359556E+03</pdfrwt>
<pdfrwt beam="2">  1       -2 0.30924033E+00 0.79359556E+03</pdfrwt>
<totfact> 0.96124522E-01</totfact>
</mgrwt>
</event>
<event>
 4    1  0.3057048E-007  0.7513839E+03  0.7818608E-02  0.9827947E-01
          2   -1    0    0  501    0  0.00000000000E+00  0.00000000000E+00  0.12505286596E+04  0.12505286596E+04  0.25500000000E-02 0. -1.
         -2   -1    0    0    0  501 -0.00000000000E+00 -0.00000000000E+00 -0.73763400151E+03  0.73763400152E+03  0.25500000000E-02 0.  1.
    8880023    1    1    2    0    0  0.17196409848E+03  0.31811292587E+03 -0.49952376421E+03  0.90227583479E+03  0.65864270000E+03 0.  0.
    8880022    1    1    2    0    0 -0.17196409848E+03 -0.31811292587E+03  0.10124184223E+04  0.10858868263E+04  0.15294330000E+03 0.  0.
<mgrwt>
<rscale>  0 0.63884066E+03</rscale>
<asrwt>0</asrwt>
<pdfrwt beam="1">  1        2 0.19238902E+00 0.75138385E+03</pdfrwt>
<pdfrwt beam="2">  1       -2 0.11348216E+00 0.75138385E+03</pdfrwt>
<totfact> 0.10983713E+01</totfact>
</mgrwt>
</event>
<event>
 4    1  0.3057048E-007  0.7968100E+03  0.7818608E-02  0.9717736E-01
         -2   -1    0    0    0  501 -0.00000000000E+00  0.00000000000E+00  0.44915088022E+03  0.44915088023E+03  0.25500000000E-02 0.  1.
          2   -1    0    0  501    0  0.00000000000E+00 -0.00000000000E+00 -0.32355397570E+04  0.32355397570E+04  0.25500000000E-02 0. -1.
    8880023    1    1    2    0    0  0.43688260931E+03  0.10114113374E+03  0.60067490889E+02  0.79907086856E+03  0.65864270000E+03 0.  1.
    8880022    1    1    2    0    0 -0.43688260931E+03 -0.10114113374E+03 -0.28464563676E+04  0.28856197686E+04  0.15294330000E+03 0.  0.
<mgrwt>
<rscale>  0 0.69970523E+03</rscale>
<asrwt>0</asrwt>
<pdfrwt beam="1">  1        2 0.49777533E+00 0.79680998E+03</pdfrwt>
<pdfrwt beam="2">  1       -2 0.69100137E-01 0.79680998E+03</pdfrwt>
<totfact> 0.25049709E+00</totfact>
</mgrwt>
</event>
<event>
 4    1  0.3437931E-007  0.8946599E+03  0.7818608E-02  0.9534659E-01
          2   -1    0    0  501    0  0.00000000000E+00  0.00000000000E+00  0.25257063185E+04  0.25257063185E+04  0.25500000000E-02 0. -1.
         -2   -1    0    0    0  501 -0.00000000000E+00 -0.00000000000E+00 -0.10521050080E+04  0.10521050080E+04  0.25500000000E-02 0.  1.
    8880023    1    1    2    0    0 -0.58134548540E+03  0.16924429467E+03 -0.81213676235E+03  0.12082973689E+04  0.65864270000E+03 0.  1.
    8880022    1    1    2    0    0  0.58134548540E+03 -0.16924429467E+03  0.22857380728E+04  0.23695139576E+04  0.15294330000E+03 0.  0.
<mgrwt>
<rscale>  0 0.81776077E+03</rscale>
<asrwt>0</asrwt>
<pdfrwt beam="1">  1        2 0.38857021E+00 0.89465994E+03</pdfrwt>
<pdfrwt beam="2">  1       -2 0.16186231E+00 0.89465994E+03</pdfrwt>
<totfact> 0.84085566E-01</totfact>
</mgrwt>
</event>
<event>
 4    1  0.3057048E-007  0.8997159E+03  0.7818608E-02  0.9526488E-01
          2   -1    0    0  501    0  0.00000000000E+00  0.00000000000E+00  0.20179803696E+04  0.20179803696E+04  0.25500000000E-02 0. -1.
         -2   -1    0    0    0  501 -0.00000000000E+00 -0.00000000000E+00 -0.72764458190E+03  0.72764458190E+03  0.25500000000E-02 0.  1.
    8880023    1    1    2    0    0  0.34304344873E+03  0.50793661389E+03 -0.36721916129E+03  0.97177082182E+03  0.65864270000E+03 0.  0.
    8880022    1    1    2    0    0 -0.34304344873E+03 -0.50793661389E+03  0.16575549490E+04  0.17738541297E+04  0.15294330000E+03 0.  0.
<mgrwt>
<rscale>  0 0.82358831E+03</rscale>
<asrwt>0</asrwt>
<pdfrwt beam="1">  1        2 0.31045852E+00 0.89971585E+03</pdfrwt>
<pdfrwt beam="2">  1       -2 0.11194532E+00 0.89971585E+03</pdfrwt>
<totfact> 0.41650229E+00</totfact>
</mgrwt>
</event>
<event>
 4    1  0.3057048E-007  0.1096555E+04  0.7818608E-02  0.9264901E-01
         -2   -1    0    0    0  501 -0.00000000000E+00  0.00000000000E+00  0.22528775509E+04  0.22528775509E+04  0.25500000000E-02 0.  1.
          2   -1    0    0  501    0  0.00000000000E+00 -0.00000000000E+00 -0.74672515780E+03  0.74672515781E+03  0.25500000000E-02 0. -1.
    8880023    1    1    2    0    0  0.85127397130E+03 -0.20965727501E+03  0.17604473795E+04  0.20740319982E+04  0.65864270000E+03 0.  1.
    8880022    1    1    2    0    0 -0.85127397130E+03  0.20965727501E+03 -0.25429498636E+03  0.92557071058E+03  0.15294330000E+03 0.  0.
<mgrwt>
<rscale>  0 0.10407936E+04</rscale>
<asrwt>0</asrwt>
<pdfrwt beam="1">  1        2 0.11488080E+00 0.10965554E+04</pdfrwt>
<pdfrwt beam="2">  1       -2 0.34659654E+00 0.10965554E+04</pdfrwt>
<totfact> 0.61555411E-01</totfact>
</mgrwt>
</event>
<event>
 4    1  0.3057048E-007  0.1153418E+04  0.7818608E-02  0.9203789E-01
          2   -1    0    0  501    0  0.00000000000E+00  0.00000000000E+00  0.21976392213E+04  0.21976392213E+04  0.25500000000E-02 0. -1.
         -2   -1    0    0    0  501 -0.00000000000E+00 -0.00000000000E+00 -0.60240294919E+03  0.60240294920E+03  0.25500000000E-02 0.  1.
    8880023    1    1    2    0    0 -0.19089450919E+03  0.92742829083E+03  0.30630009760E+03  0.11933959545E+04  0.65864270000E+03 0.  1.
    8880022    1    1    2    0    0  0.19089450919E+03 -0.92742829083E+03  0.12889361745E+04  0.16066462159E+04  0.15294330000E+03 0.  0.
<mgrwt>
<rscale>  0 0.11014405E+04</rscale>
<asrwt>0</asrwt>
<pdfrwt beam="1">  1        2 0.33809834E+00 0.11534185E+04</pdfrwt>
<pdfrwt beam="2">  1       -2 0.92677376E-01 0.11534185E+04</pdfrwt>
<totfact> 0.50439187E+00</totfact>
</mgrwt>
</event>
<event>
 4    1  0.3057048E-007  0.1008526E+04  0.7818608E-02  0.9370488E-01
          2   -1    0    0  501    0  0.00000000000E+00  0.00000000000E+00  0.14208198226E+04  0.14208198226E+04  0.25500000000E-02 0. -1.
         -2   -1    0    0    0  501 -0.00000000000E+00 -0.00000000000E+00 -0.79441135856E+03  0.79441135856E+03  0.25500000000E-02 0.  1.
    8880023    1    1    2    0    0 -0.39959800008E+03 -0.65087242764E+03  0.93705125319E+03  0.13766585401E+04  0.65864270000E+03 0.  0.
    8880022    1    1    2    0    0  0.39959800008E+03  0.65087242764E+03 -0.31064278919E+03  0.83857264099E+03  0.15294330000E+03 0.  0.
<mgrwt>
<rscale>  0 0.94544740E+03</rscale>
<asrwt>0</asrwt>
<pdfrwt beam="1">  1        2 0.21858766E+00 0.10085255E+04</pdfrwt>
<pdfrwt beam="2">  1       -2 0.12221713E+00 0.10085255E+04</pdfrwt>
<totfact> 0.70890322E+00</totfact>
</mgrwt>
</event>
<event>
 4    1  0.3057048E-007  0.9459450E+03  0.7818608E-02  0.9455973E-01
         -2   -1    0    0    0  501 -0.00000000000E+00  0.00000000000E+00  0.83595210325E+03  0.83595210325E+03  0.25500000000E-02 0.  1.
          2   -1    0    0  501    0  0.00000000000E+00 -0.00000000000E+00 -0.12656036444E+04  0.12656036444E+04  0.25500000000E-02 0. -1.
    8880023    1    1    2    0    0 -0.52791330069E+03  0.42697681747E+03  0.39269938450E+03  0.10242190530E+04  0.65864270000E+03 0.  0.
    8880022    1    1    2    0    0  0.52791330069E+03 -0.42697681747E+03 -0.82235092565E+03  0.10773366946E+04  0.15294330000E+03 0.  0.
<mgrwt>
<rscale>  0 0.87609089E+03</rscale>
<asrwt>0</asrwt>
<pdfrwt beam="1">  1        2 0.19470825E+00 0.94594496E+03</pdfrwt>
<pdfrwt beam="2">  1       -2 0.12860802E+00 0.94594496E+03</pdfrwt>
<totfact> 0.77119782E+00</totfact>
</mgrwt>
</event>
<event>
 4    1  0.3057048E-007  0.7804607E+03  0.7818608E-02  0.9754756E-01
         -2   -1    0    0    0  501 -0.00000000000E+00  0.00000000000E+00  0.11360252409E+04  0.11360252409E+04  0.25500000000E-02 0.  1.
          2   -1    0    0  501    0  0.00000000000E+00 -0.00000000000E+00 -0.49968318345E+03  0.49968318345E+03  0.25500000000E-02 0. -1.
    8880023    1    1    2    0    0 -0.28926892794E+03 -0.30270800859E+03  0.83914413126E+03  0.11459850481E+04  0.65864270000E+03 0.  1.
    8880022    1    1    2    0    0  0.28926892794E+03  0.30270800859E+03 -0.20280207379E+03  0.48972337629E+03  0.15294330000E+03 0.  0.
<mgrwt>
<rscale>  0 0.67848161E+03</rscale>
<asrwt>0</asrwt>
<pdfrwt beam="1">  1        2 0.76874335E-01 0.78046067E+03</pdfrwt>
<pdfrwt beam="2">  1       -2 0.17477312E+00 0.78046067E+03</pdfrwt>
<totfact> 0.12309960E+01</totfact>
</mgrwt>
</event>
<event>
 4    1  0.3057048E-007  0.7159752E+03  0.7818608E-02  0.9936447E-01
         -2   -1    0    0    0  501 -0.00000000000E+00  0.00000000000E+00  0.18509949672E+03  0.18509949674E+03  0.25500000000E-02 0.  1.
          2   -1    0    0  501    0  0.00000000000E+00 -0.00000000000E+00 -0.26210283145E+04  0.26210283145E+04  0.25500000000E-02 0. -1.
    8880023    1    1    2    0    0  0.17862369793E+03 -0.21657305912E+03 -0.57596161443E+03  0.91888644726E+03  0.65864270000E+03 0.  1.
    8880022    1    1    2    0    0 -0.17862369793E+03  0.21657305912E+03 -0.18599672034E+04  0.18872413640E+04  0.15294330000E+03 0.  0.
<mgrwt>
<rscale>  0 0.58526951E+03</rscale>
<asrwt>0</asrwt>
<pdfrwt beam="1">  1        2 0.40323510E+00 0.71597522E+03</pdfrwt>
<pdfrwt beam="2">  1       -2 0.28476848E-01 0.71597522E+03</pdfrwt>
<totfact> 0.35102747E+01</totfact>
</mgrwt>
</event>
<event>
 4    1  0.3057048E-007  0.6960334E+03  0.7818608E-02  0.1001407E+00
         -2   -1    0    0    0  501 -0.00000000000E+00  0.00000000000E+00  0.83311968585E+03  0.83311968585E+03  0.25500000000E-02 0.  1.
          2   -1    0    0  501    0  0.00000000000E+00 -0.00000000000E+00 -0.99219967031E+03  0.99219967032E+03  0.25500000000E-02 0. -1.
    8880023    1    1    2    0    0  0.78982802857E+02 -0.21074616573E+03  0.66184639031E+03  0.96047023907E+03  0.65864270000E+03 0.  1.
    8880022    1    1    2    0    0 -0.78982802857E+02  0.21074616573E+03 -0.82092637478E+03  0.86484911709E+03  0.15294330000E+03 0.  0.
<mgrwt>
<rscale>  0 0.55037499E+03</rscale>
<asrwt>0</asrwt>
<pdfrwt beam="1">  1        2 0.15264610E+00 0.69603336E+03</pdfrwt>
<pdfrwt beam="2">  1       -2 0.12817226E+00 0.69603336E+03</pdfrwt>
<totfact> 0.11743110E+01</totfact>
</mgrwt>
</event>
<event>
 4    1  0.3057048E-007  0.1378229E+04  0.7818608E-02  0.9000786E-01
          2   -1    0    0  501    0  0.00000000000E+00  0.00000000000E+00  0.16580441234E+04  0.16580441234E+04  0.25500000000E-02 0. -1.
         -2   -1    0    0    0  501 -0.00000000000E+00 -0.00000000000E+00 -0.14709971702E+04  0.14709971702E+04  0.25500000000E-02 0.  1.
    8880023    1    1    2    0    0  0.86829574420E+03 -0.84366372386E+03 -0.76953332459E+03  0.15785112360E+04  0.65864270000E+03 0.  0.
    8880022    1    1    2    0    0 -0.86829574420E+03  0.84366372386E+03  0.95658027778E+03  0.15505300575E+04  0.15294330000E+03 0.  0.
<mgrwt>
<rscale>  0 0.13369234E+04</rscale>
<asrwt>0</asrwt>
<pdfrwt beam="1">  1        2 0.25508371E+00 0.13782294E+04</pdfrwt>
<pdfrwt beam="2">  1       -2 0.22630726E+00 0.13782294E+04</pdfrwt>
<totfact> 0.88783181E-01</totfact>
</mgrwt>
</event>
<event>
 4    1  0.3057048E-007  0.9867052E+03  0.7818608E-02  0.9399162E-01
          2   -1    0    0  501    0  0.00000000000E+00  0.00000000000E+00  0.15409890318E+04  0.15409890318E+04  0.25500000000E-02 0. -1.
         -2   -1    0    0    0  501 -0.00000000000E+00 -0.00000000000E+00 -0.81608834612E+03  0.81608834613E+03  0.25500000000E-02 0.  1.
    8880023    1    1    2    0    0 -0.50369792941E+03 -0.53485079866E+03 -0.34929738984E+03  0.10467071480E+04  0.65864270000E+03 0.  1.
    8880022    1    1    2    0    0  0.50369792941E+03  0.53485079866E+03  0.10741980755E+04  0.13103702299E+04  0.15294330000E+03 0.  0.
<mgrwt>
<rscale>  0 0.92144703E+03</rscale>
<asrwt>0</asrwt>
<pdfrwt beam="1">  1        2 0.23707524E+00 0.98670522E+03</pdfrwt>
<pdfrwt beam="2">  1       -2 0.12555205E+00 0.98670522E+03</pdfrwt>
<totfact> 0.56813891E+00</totfact>
</mgrwt>
</event>
<event>
 4    1  0.3057048E-007  0.7524432E+03  0.7818608E-02  0.9825079E-01
          2   -1    0    0  501    0  0.00000000000E+00  0.00000000000E+00  0.14194407610E+04  0.14194407610E+04  0.25500000000E-02 0. -1.
         -2   -1    0    0    0  501 -0.00000000000E+00 -0.00000000000E+00 -0.26640250415E+03  0.26640250416E+03  0.25500000000E-02 0.  1.
    8880023    1    1    2    0    0  0.13167431788E+02 -0.36357558251E+03  0.10238016545E+04  0.12705670465E+04  0.65864270000E+03 0. -1.
    8880022    1    1    2    0    0 -0.13167431788E+02  0.36357558251E+03  0.12923660236E+03  0.41527621875E+03  0.15294330000E+03 0.  0.
<mgrwt>
<rscale>  0 0.64033846E+03</rscale>
<asrwt>0</asrwt>
<pdfrwt beam="1">  1        2 0.21837551E+00 0.75244321E+03</pdfrwt>
<pdfrwt beam="2">  1       -2 0.40985000E-01 0.75244321E+03</pdfrwt>
<totfact> 0.80974886E+01</totfact>
</mgrwt>
</event>
<event>
 4    1  0.3057048E-007  0.9474381E+03  0.7818608E-02  0.9453810E-01
         -2   -1    0    0    0  501 -0.00000000000E+00  0.00000000000E+00  0.92561615483E+03  0.92561615483E+03  0.25500000000E-02 0.  1.
          2   -1    0    0  501    0  0.00000000000E+00 -0.00000000000E+00 -0.11502045115E+04  0.11502045115E+04  0.25500000000E-02 0. -1.
    8880023    1    1    2    0    0 -0.64212868558E+03  0.22693510945E+03  0.49868125121E+03  0.10706642748E+04  0.65864270000E+03 0.  1.
    8880022    1    1    2    0    0  0.64212868558E+03 -0.22693510945E+03 -0.72326960788E+03  0.10051563915E+04  0.15294330000E+03 0. -1.
<mgrwt>
<rscale>  0 0.87776615E+03</rscale>
<asrwt>0</asrwt>
<pdfrwt beam="1">  1        2 0.17695454E+00 0.94743812E+03</pdfrwt>
<pdfrwt beam="2">  1       -2 0.14240249E+00 0.94743812E+03</pdfrwt>
<totfact> 0.69509781E+00</totfact>
</mgrwt>
</event>
<event>
 4    1  0.3057048E-007  0.1181200E+04  0.7818608E-02  0.9175617E-01
         -2   -1    0    0    0  501 -0.00000000000E+00  0.00000000000E+00  0.99692205931E+03  0.99692205931E+03  0.25500000000E-02 0.  1.
          2   -1    0    0  501    0  0.00000000000E+00 -0.00000000000E+00 -0.35278081797E+04  0.35278081797E+04  0.25500000000E-02 0. -1.
    8880023    1    1    2    0    0 -0.76496545570E+03  0.61339357830E+03  0.53904626800E+03  0.12983855035E+04  0.65864270000E+03 0.  1.
    8880022    1    1    2    0    0  0.76496545570E+03 -0.61339357830E+03 -0.30699323884E+04  0.32263447356E+04  0.15294330000E+03 0.  0.
<mgrwt>
<rscale>  0 0.11308682E+04</rscale>
<asrwt>0</asrwt>
<pdfrwt beam="1">  1        2 0.54273971E+00 0.11812003E+04</pdfrwt>
<pdfrwt beam="2">  1       -2 0.15337263E+00 0.11812003E+04</pdfrwt>
<totfact> 0.21908877E-01</totfact>
</mgrwt>
</event>
<event>
 4    1  0.3057048E-007  0.1066861E+04  0.7818608E-02  0.9298882E-01
          2   -1    0    0  501    0  0.00000000000E+00  0.00000000000E+00  0.18402503116E+04  0.18402503116E+04  0.25500000000E-02 0. -1.
         -2   -1    0    0    0  501 -0.00000000000E+00 -0.00000000000E+00 -0.62829163966E+03  0.62829163966E+03  0.25500000000E-02 0.  1.
    8880023    1    1    2    0    0  0.32533129894E+03 -0.77365413741E+03  0.12130424251E+04  0.16154452358E+04  0.65864270000E+03 0.  0.
    8880022    1    1    2    0    0 -0.32533129894E+03  0.77365413741E+03 -0.10837531965E+01  0.85309671547E+03  0.15294330000E+03 0.  0.
<mgrwt>
<rscale>  0 0.10088584E+04</rscale>
<asrwt>0</asrwt>
<pdfrwt beam="1">  1        2 0.28311543E+00 0.10668605E+04</pdfrwt>
<pdfrwt beam="2">  1       -2 0.96660252E-01 0.10668605E+04</pdfrwt>
<totfact> 0.72728541E+00</totfact>
</mgrwt>
</event>
<event>
 4    1  0.3057048E-007  0.1812421E+04  0.7818608E-02  0.8715696E-01
         -2   -1    0    0    0  501 -0.00000000000E+00  0.00000000000E+00  0.16559807932E+04  0.16559807932E+04  0.25500000000E-02 0.  1.
          2   -1    0    0  501    0  0.00000000000E+00 -0.00000000000E+00 -0.19362428623E+04  0.19362428623E+04  0.25500000000E-02 0. -1.
    8880023    1    1    2    0    0 -0.14524315414E+04 -0.86110548897E+03 -0.50627745543E+03  0.18818042177E+04  0.65864270000E+03 0.  0.
    8880022    1    1    2    0    0  0.14524315414E+04  0.86110548897E+03  0.22601538632E+03  0.17104194379E+04  0.15294330000E+03 0.  0.
<mgrwt>
<rscale>  0 0.17824350E+04</rscale>
<asrwt>0</asrwt>
<pdfrwt beam="1">  1        2 0.29788352E+00 0.18124211E+04</pdfrwt>
<pdfrwt beam="2">  1       -2 0.25476627E+00 0.18124211E+04</pdfrwt>
<totfact> 0.39595406E-01</totfact>
</mgrwt>
</event>
<event>
 4    1  0.3057048E-007  0.6763890E+03  0.7818608E-02  0.1011445E+00
          2   -1    0    0  501    0  0.00000000000E+00  0.00000000000E+00  0.17016587876E+04  0.17016587877E+04  0.25500000000E-02 0. -1.
         -2   -1    0    0    0  501 -0.00000000000E+00 -0.00000000000E+00 -0.17328564909E+03  0.17328564911E+03  0.25500000000E-02 0.  1.
    8880023    1    1    2    0    0  0.14076238210E+03 -0.62272468529E+02  0.54706479285E+03  0.86993218264E+03  0.65864270000E+03 0.  1.
    8880022    1    1    2    0    0 -0.14076238210E+03  0.62272468529E+02  0.98130834571E+03  0.10050122541E+04  0.15294330000E+03 0.  0.
<mgrwt>
<rscale>  0 0.50904489E+03</rscale>
<asrwt>0</asrwt>
<pdfrwt beam="1">  1        2 0.26179367E+00 0.67638903E+03</pdfrwt>
<pdfrwt beam="2">  1       -2 0.26659330E-01 0.67638903E+03</pdfrwt>
<totfact> 0.12815544E+02</totfact>
</mgrwt>
</event>
<event>
 4    1  0.3057048E-007  0.9142770E+03  0.7818608E-02  0.9503490E-01
          2   -1    0    0  501    0  0.00000000000E+00  0.00000000000E+00  0.13704488604E+04  0.13704488604E+04  0.25500000000E-02 0. -1.
         -2   -1    0    0    0  501 -0.00000000000E+00 -0.00000000000E+00 -0.52717396434E+03  0.52717396434E+03  0.25500000000E-02 0.  1.
    8880023    1    1    2    0    0  0.53827079214E+03 -0.33519673034E+03  0.11749674984E+03  0.92179606540E+03  0.65864270000E+03 0.  0.
    8880022    1    1    2    0    0 -0.53827079214E+03  0.33519673034E+03  0.72577814622E+03  0.97582675935E+03  0.15294330000E+03 0.  0.
<mgrwt>
<rscale>  0 0.84026980E+03</rscale>
<asrwt>0</asrwt>
<pdfrwt beam="1">  1        2 0.21083829E+00 0.91427704E+03</pdfrwt>
<pdfrwt beam="2">  1       -2 0.81103687E-01 0.91427704E+03</pdfrwt>
<totfact> 0.20250321E+01</totfact>
</mgrwt>
</event>
<event>
 4    1  0.3057048E-007  0.7282312E+03  0.7818608E-02  0.9895659E-01
         -2   -1    0    0    0  501 -0.00000000000E+00  0.00000000000E+00  0.80509177496E+03  0.80509177496E+03  0.25500000000E-02 0.  1.
          2   -1    0    0  501    0  0.00000000000E+00 -0.00000000000E+00 -0.74109785419E+03  0.74109785420E+03  0.25500000000E-02 0. -1.
    8880023    1    1    2    0    0 -0.22580387370E+02  0.30983956119E+03  0.57571988478E+03  0.92831784404E+03  0.65864270000E+03 0.  1.
    8880022    1    1    2    0    0  0.22580387370E+02 -0.30983956119E+03 -0.51172596402E+03  0.61787178511E+03  0.15294330000E+03 0.  0.
<mgrwt>
<rscale>  0 0.60472133E+03</rscale>
<asrwt>0</asrwt>
<pdfrwt beam="1">  1        2 0.11401506E+00 0.72823117E+03</pdfrwt>
<pdfrwt beam="2">  1       -2 0.12386027E+00 0.72823117E+03</pdfrwt>
<totfact> 0.18992287E+01</totfact>
</mgrwt>
</event>
<event>
 4    1  0.3057048E-007  0.7985472E+03  0.7818608E-02  0.9713946E-01
         -2   -1    0    0    0  501 -0.00000000000E+00  0.00000000000E+00  0.77765072333E+03  0.77765072333E+03  0.25500000000E-02 0.  1.
          2   -1    0    0  501    0  0.00000000000E+00 -0.00000000000E+00 -0.63822558274E+03  0.63822558275E+03  0.25500000000E-02 0. -1.
    8880023    1    1    2    0    0 -0.90365557072E+02  0.44238152325E+03  0.37719929227E+03  0.88315166216E+03  0.65864270000E+03 0.  0.
    8880022    1    1    2    0    0  0.90365557072E+02 -0.44238152325E+03 -0.23777415168E+03  0.53272464392E+03  0.15294330000E+03 0.  0.
<mgrwt>
<rscale>  0 0.70192476E+03</rscale>
<asrwt>0</asrwt>
<pdfrwt beam="1">  1        2 0.98188552E-01 0.79854715E+03</pdfrwt>
<pdfrwt beam="2">  1       -2 0.11963857E+00 0.79854715E+03</pdfrwt>
<totfact> 0.24828484E+01</totfact>
</mgrwt>
</event>
<event>
 4    1  0.3057048E-007  0.8526572E+03  0.7818608E-02  0.9606761E-01
         -2   -1    0    0    0  501 -0.00000000000E+00  0.00000000000E+00  0.28925216021E+03  0.28925216022E+03  0.25500000000E-02 0.  1.
          2   -1    0    0  501    0  0.00000000000E+00 -0.00000000000E+00 -0.30105916924E+04  0.30105916924E+04  0.25500000000E-02 0. -1.
    8880023    1    1    2    0    0  0.35357846971E+03  0.41011750986E+03 -0.45853834623E+03  0.96813311449E+03  0.65864270000E+03 0.  0.
    8880022    1    1    2    0    0 -0.35357846971E+03 -0.41011750986E+03 -0.22628011860E+04  0.23317107382E+04  0.15294330000E+03 0.  0.
<mgrwt>
<rscale>  0 0.76850324E+03</rscale>
<asrwt>0</asrwt>
<pdfrwt beam="1">  1        2 0.46316793E+00 0.85265721E+03</pdfrwt>
<pdfrwt beam="2">  1       -2 0.44500335E-01 0.85265721E+03</pdfrwt>
<totfact> 0.85869647E+00</totfact>
</mgrwt>
</event>
<event>
 4    1  0.3146411E-007  0.8774401E+03  0.7818608E-02  0.9563264E-01
          2   -1    0    0  501    0  0.00000000000E+00  0.00000000000E+00  0.11783093310E+04  0.11783093310E+04  0.25500000000E-02 0. -1.
         -2   -1    0    0    0  501 -0.00000000000E+00 -0.00000000000E+00 -0.16542488685E+04  0.16542488685E+04  0.25500000000E-02 0.  1.
    8880023    1    1    2    0    0 -0.39855900943E+03 -0.42100078582E+03 -0.14464505892E+04  0.16917802632E+04  0.65864270000E+03 0.  0.
    8880022    1    1    2    0    0  0.39855900943E+03  0.42100078582E+03  0.97051105163E+03  0.11407779363E+04  0.15294330000E+03 0. -1.
<mgrwt>
<rscale>  0 0.79776109E+03</rscale>
<asrwt>0</asrwt>
<pdfrwt beam="1">  1        2 0.18127836E+00 0.87744011E+03</pdfrwt>
<pdfrwt beam="2">  1       -2 0.25449983E+00 0.87744011E+03</pdfrwt>
<totfact> 0.11949449E+00</totfact>
</mgrwt>
</event>
<event>
 4    1  0.3057048E-007  0.7188487E+03  0.7818608E-02  0.9926501E-01
         -2   -1    0    0    0  501 -0.00000000000E+00  0.00000000000E+00  0.42194934310E+03  0.42194934311E+03  0.25500000000E-02 0.  1.
          2   -1    0    0  501    0  0.00000000000E+00 -0.00000000000E+00 -0.71623508370E+03  0.71623508370E+03  0.25500000000E-02 0. -1.
    8880023    1    1    2    0    0 -0.27576572138E+03 -0.82985099075E+02 -0.36245910139E+03  0.80505904517E+03  0.65864270000E+03 0.  0.
    8880022    1    1    2    0    0  0.27576572138E+03  0.82985099075E+02  0.68173360800E+02  0.33312538165E+03  0.15294330000E+03 0. -1.
<mgrwt>
<rscale>  0 0.58993954E+03</rscale>
<asrwt>0</asrwt>
<pdfrwt beam="1">  1        2 0.11019001E+00 0.71884871E+03</pdfrwt>
<pdfrwt beam="2">  1       -2 0.64915284E-01 0.71884871E+03</pdfrwt>
<totfact> 0.88366234E+01</totfact>
</mgrwt>
</event>
<event>
 4    1  0.3057048E-007  0.7733027E+03  0.7818608E-02  0.9771811E-01
         -2   -1    0    0    0  501 -0.00000000000E+00  0.00000000000E+00  0.43580380165E+03  0.43580380166E+03  0.25500000000E-02 0.  1.
          2   -1    0    0  501    0  0.00000000000E+00 -0.00000000000E+00 -0.17163744849E+04  0.17163744849E+04  0.25500000000E-02 0. -1.
    8880023    1    1    2    0    0  0.19319411912E+03 -0.35617823988E+03  0.27987033742E+02  0.77380901167E+03  0.65864270000E+03 0.  1.
    8880022    1    1    2    0    0 -0.19319411912E+03  0.35617823988E+03 -0.13085577170E+04  0.13783692749E+04  0.15294330000E+03 0.  0.
<mgrwt>
<rscale>  0 0.66897526E+03</rscale>
<asrwt>0</asrwt>
<pdfrwt beam="1">  1        2 0.26405761E+00 0.77330273E+03</pdfrwt>
<pdfrwt beam="2">  1       -2 0.67046740E-01 0.77330273E+03</pdfrwt>
<totfact> 0.20098286E+01</totfact>
</mgrwt>
</event>
<event>
 4    1  0.3057048E-007  0.6598839E+03  0.7818608E-02  0.1024276E+00
          2   -1    0    0  501    0  0.00000000000E+00  0.00000000000E+00  0.33460578756E+03  0.33460578757E+03  0.25500000000E-02 0. -1.
         -2   -1    0    0    0  501 -0.00000000000E+00 -0.00000000000E+00 -0.10927844946E+04  0.10927844946E+04  0.25500000000E-02 0.  1.
    8880023    1    1    2    0    0 -0.10721235684E+02 -0.39007107445E+02 -0.96373503806E+03  0.11680033943E+04  0.65864270000E+03 0.  1.
    8880022    1    1    2    0    0  0.10721235684E+02  0.39007107445E+02  0.20555633104E+03  0.25938688782E+03  0.15294330000E+03 0.  0.
<mgrwt>
<rscale>  0 0.46174715E+03</rscale>
<asrwt>0</asrwt>
<pdfrwt beam="1">  1        2 0.51477814E-01 0.65988386E+03</pdfrwt>
<pdfrwt beam="2">  1       -2 0.16812069E+00 0.65988386E+03</pdfrwt>
<totfact> 0.21825012E+01</totfact>
</mgrwt>
</event>
<event>
 4    1  0.3057048E-007  0.1198006E+04  0.7818608E-02  0.9159063E-01
          2   -1    0    0  501    0  0.00000000000E+00  0.00000000000E+00  0.30374890714E+04  0.30374890714E+04  0.25500000000E-02 0. -1.
         -2   -1    0    0    0  501 -0.00000000000E+00 -0.00000000000E+00 -0.49569604126E+03  0.49569604126E+03  0.25500000000E-02 0.  1.
    8880023    1    1    2    0    0  0.30707938121E+02  0.10002328366E+04  0.59208434848E+03  0.13363318401E+04  0.65864270000E+03 0.  0.
    8880022    1    1    2    0    0 -0.30707938121E+02 -0.10002328366E+04  0.19497086817E+04  0.21968532726E+04  0.15294330000E+03 0.  0.
<mgrwt>
<rscale>  0 0.11486143E+04</rscale>
<asrwt>0</asrwt>
<pdfrwt beam="1">  1        2 0.46730600E+00 0.11980062E+04</pdfrwt>
<pdfrwt beam="2">  1       -2 0.76260930E-01 0.11980062E+04</pdfrwt>
<totfact> 0.25246496E+00</totfact>
</mgrwt>
</event>
<event>
 4    1  0.3057048E-007  0.8090517E+03  0.7818608E-02  0.9691556E-01
          2   -1    0    0  501    0  0.00000000000E+00  0.00000000000E+00  0.26946485277E+03  0.26946485278E+03  0.25500000000E-02 0. -1.
         -2   -1    0    0    0  501 -0.00000000000E+00 -0.00000000000E+00 -0.22181767221E+04  0.22181767221E+04  0.25500000000E-02 0.  1.
    8880023    1    1    2    0    0 -0.38331095315E+03 -0.27171154512E+03 -0.17970559824E+04  0.19707802670E+04  0.65864270000E+03 0.  1.
    8880022    1    1    2    0    0  0.38331095315E+03  0.27171154512E+03 -0.15165588693E+03  0.51686130791E+03  0.15294330000E+03 0.  0.
<mgrwt>
<rscale>  0 0.71521799E+03</rscale>
<asrwt>0</asrwt>
<pdfrwt beam="1">  1        2 0.41456133E-01 0.80905170E+03</pdfrwt>
<pdfrwt beam="2">  1       -2 0.34125795E+00 0.80905170E+03</pdfrwt>
<totfact> 0.22742319E+00</totfact>
</mgrwt>
</event>
<event>
 4    1  0.3057048E-007  0.1313576E+04  0.7818608E-02  0.9053924E-01
          2   -1    0    0  501    0  0.00000000000E+00  0.00000000000E+00  0.20803774610E+04  0.20803774610E+04  0.25500000000E-02 0. -1.
         -2   -1    0    0    0  501 -0.00000000000E+00 -0.00000000000E+00 -0.76910086642E+03  0.76910086642E+03  0.25500000000E-02 0.  1.
    8880023    1    1    2    0    0 -0.37440901052E+03 -0.10730751145E+04  0.36674574066E+03  0.13638126532E+04  0.65864270000E+03 0.  0.
    8880022    1    1    2    0    0  0.37440901052E+03  0.10730751145E+04  0.94453085388E+03  0.14856656742E+04  0.15294330000E+03 0.  0.
<mgrwt>
<rscale>  0 0.12697254E+04</rscale>
<asrwt>0</asrwt>
<pdfrwt beam="1">  1        2 0.32005807E+00 0.13135762E+04</pdfrwt>
<pdfrwt beam="2">  1       -2 0.11832321E+00 0.13135762E+04</pdfrwt>
<totfact> 0.32002963E+00</totfact>
</mgrwt>
</event>
<event>
 4    1  0.3057048E-007  0.1654350E+04  0.7818608E-02  0.8807695E-01
         -2   -1    0    0    0  501 -0.00000000000E+00  0.00000000000E+00  0.20390295169E+04  0.20390295169E+04  0.25500000000E-02 0.  1.
          2   -1    0    0  501    0  0.00000000000E+00 -0.00000000000E+00 -0.20081685178E+04  0.20081685178E+04  0.25500000000E-02 0. -1.
    8880023    1    1    2    0    0  0.52175934357E+03 -0.14250718464E+04  0.12671018781E+04  0.20838473926E+04  0.65864270000E+03 0.  0.
    8880022    1    1    2    0    0 -0.52175934357E+03  0.14250718464E+04 -0.12362408790E+04  0.19633506421E+04  0.15294330000E+03 0.  0.
<mgrwt>
<rscale>  0 0.16210906E+04</rscale>
<asrwt>0</asrwt>
<pdfrwt beam="1">  1        2 0.30894900E+00 0.16543497E+04</pdfrwt>
<pdfrwt beam="2">  1       -2 0.31369685E+00 0.16543497E+04</pdfrwt>
<totfact> 0.15956184E-01</totfact>
</mgrwt>
</event>
<event>
 4    1  0.3057048E-007  0.9376197E+03  0.7818608E-02  0.9468155E-01
          2   -1    0    0  501    0  0.00000000000E+00  0.00000000000E+00  0.21093402859E+04  0.21093402859E+04  0.25500000000E-02 0. -1.
         -2   -1    0    0    0  501 -0.00000000000E+00 -0.00000000000E+00 -0.43272457200E+03  0.43272457201E+03  0.25500000000E-02 0.  1.
    8880023    1    1    2    0    0 -0.37999045569E+03 -0.54856876056E+03  0.26685018143E+03  0.97485365931E+03  0.65864270000E+03 0.  1.
    8880022    1    1    2    0    0  0.37999045569E+03  0.54856876056E+03  0.14097655325E+04  0.15672111986E+04  0.15294330000E+03 0.  0.
<mgrwt>
<rscale>  0 0.86672894E+03</rscale>
<asrwt>0</asrwt>
<pdfrwt beam="1">  1        2 0.32451389E+00 0.93761967E+03</pdfrwt>
<pdfrwt beam="2">  1       -2 0.66573012E-01 0.93761967E+03</pdfrwt>
<totfact> 0.12181553E+01</totfact>
</mgrwt>
</event>
<event>
 4    1  0.3057048E-007  0.7188185E+03  0.7818608E-02  0.9926604E-01
          2   -1    0    0  501    0  0.00000000000E+00  0.00000000000E+00  0.21438385576E+04  0.21438385576E+04  0.25500000000E-02 0. -1.
         -2   -1    0    0    0  501 -0.00000000000E+00 -0.00000000000E+00 -0.15613672275E+03  0.15613672277E+03  0.25500000000E-02 0.  1.
    8880023    1    1    2    0    0 -0.33564879972E+02  0.28594270226E+03  0.17633385155E+04  0.19042223496E+04  0.65864270000E+03 0. -1.
    8880022    1    1    2    0    0  0.33564879972E+02 -0.28594270226E+03  0.22436331933E+03  0.39575293078E+03  0.15294330000E+03 0.  0.
<mgrwt>
<rscale>  0 0.58989082E+03</rscale>
<asrwt>0</asrwt>
<pdfrwt beam="1">  1        2 0.32982130E+00 0.71881850E+03</pdfrwt>
<pdfrwt beam="2">  1       -2 0.24021036E-01 0.71881850E+03</pdfrwt>
<totfact> 0.88414349E+01</totfact>
</mgrwt>
</event>
<event>
 4    1  0.3057048E-007  0.8058675E+03  0.7818608E-02  0.9698250E-01
          2   -1    0    0  501    0  0.00000000000E+00  0.00000000000E+00  0.29596759482E+04  0.29596759482E+04  0.25500000000E-02 0. -1.
         -2   -1    0    0    0  501 -0.00000000000E+00 -0.00000000000E+00 -0.20252332855E+03  0.20252332857E+03  0.25500000000E-02 0.  1.
    8880023    1    1    2    0    0 -0.45240183671E+03  0.10461709042E+03  0.76574193217E+03  0.11116578027E+04  0.65864270000E+03 0.  1.
    8880022    1    1    2    0    0  0.45240183671E+03 -0.10461709042E+03  0.19914106875E+04  0.20505414740E+04  0.15294330000E+03 0.  0.
<mgrwt>
<rscale>  0 0.71121076E+03</rscale>
<asrwt>0</asrwt>
<pdfrwt beam="1">  1        2 0.45533476E+00 0.80586746E+03</pdfrwt>
<pdfrwt beam="2">  1       -2 0.31157435E-01 0.80586746E+03</pdfrwt>
<totfact> 0.18487225E+01</totfact>
</mgrwt>
</event>
<event>
 4    1  0.3057048E-007  0.7852484E+03  0.7818608E-02  0.9743650E-01
          2   -1    0    0  501    0  0.00000000000E+00  0.00000000000E+00  0.18280007779E+04  0.18280007779E+04  0.25500000000E-02 0. -1.
         -2   -1    0    0    0  501 -0.00000000000E+00 -0.00000000000E+00 -0.60142893713E+03  0.60142893713E+03  0.25500000000E-02 0.  1.
    8880023    1    1    2    0    0  0.18242510465E+03 -0.38668591672E+03 -0.29706898234E+03  0.83956244766E+03  0.65864270000E+03 0.  1.
    8880022    1    1    2    0    0 -0.18242510465E+03  0.38668591672E+03  0.15236408231E+04  0.15898672674E+04  0.15294330000E+03 0.  0.
<mgrwt>
<rscale>  0 0.68476333E+03</rscale>
<asrwt>0</asrwt>
<pdfrwt beam="1">  1        2 0.28123089E+00 0.78524845E+03</pdfrwt>
<pdfrwt beam="2">  1       -2 0.92527529E-01 0.78524845E+03</pdfrwt>
<totfact> 0.84682214E+00</totfact>
</mgrwt>
</event>
<event>
 4    1  0.3057048E-007  0.1337879E+04  0.7818608E-02  0.9033520E-01
          2   -1    0    0  501    0  0.00000000000E+00  0.00000000000E+00  0.10670261000E+04  0.10670261000E+04  0.25500000000E-02 0. -1.
         -2   -1    0    0    0  501 -0.00000000000E+00 -0.00000000000E+00 -0.15009421913E+04  0.15009421913E+04  0.25500000000E-02 0.  1.
    8880023    1    1    2    0    0 -0.95632774625E+03 -0.66449073378E+03 -0.38608100488E+03  0.13924724206E+04  0.65864270000E+03 0. -1.
    8880022    1    1    2    0    0  0.95632774625E+03  0.66449073378E+03 -0.47835086453E+02  0.11754958707E+04  0.15294330000E+03 0.  1.
<mgrwt>
<rscale>  0 0.12950245E+04</rscale>
<asrwt>0</asrwt>
<pdfrwt beam="1">  1        2 0.16415786E+00 0.13378793E+04</pdfrwt>
<pdfrwt beam="2">  1       -2 0.23091418E+00 0.13378793E+04</pdfrwt>
<totfact> 0.18498171E+00</totfact>
</mgrwt>
</event>
<event>
 4    1  0.3118435E-007  0.7563175E+03  0.7818608E-02  0.9814736E-01
         -2   -1    0    0    0  501 -0.00000000000E+00  0.00000000000E+00  0.66947834739E+03  0.66947834739E+03  0.25500000000E-02 0.  1.
          2   -1    0    0  501    0  0.00000000000E+00 -0.00000000000E+00 -0.29828652031E+04  0.29828652031E+04  0.25500000000E-02 0. -1.
    8880023    1    1    2    0    0  0.35040344388E+03 -0.12419094211E+03  0.43649277406E+03  0.87323657256E+03  0.65864270000E+03 0.  0.
    8880022    1    1    2    0    0 -0.35040344388E+03  0.12419094211E+03 -0.27498796297E+04  0.27791069779E+04  0.15294330000E+03 0.  0.
<mgrwt>
<rscale>  0 0.64577687E+03</rscale>
<asrwt>0</asrwt>
<pdfrwt beam="1">  1        2 0.45890233E+00 0.75631751E+03</pdfrwt>
<pdfrwt beam="2">  1       -2 0.10299667E+00 0.75631751E+03</pdfrwt>
<totfact> 0.14643150E+00</totfact>
</mgrwt>
</event>
<event>
 4    1  0.4085190E-007  0.7539670E+03  0.7818608E-02  0.9820984E-01
          2   -1    0    0  501    0  0.00000000000E+00  0.00000000000E+00  0.24017051576E+04  0.24017051576E+04  0.25500000000E-02 0. -1.
         -2   -1    0    0    0  501 -0.00000000000E+00 -0.00000000000E+00 -0.10813207237E+04  0.10813207237E+04  0.25500000000E-02 0.  1.
    8880023    1    1    2    0    0 -0.17087834568E+01 -0.36695104532E+03 -0.93031948788E+03  0.11974809165E+04  0.65864270000E+03 0.  1.
    8880022    1    1    2    0    0  0.17087834568E+01  0.36695104532E+03  0.22507039218E+04  0.22855449648E+04  0.15294330000E+03 0.  0.
<mgrwt>
<rscale>  0 0.64248463E+03</rscale>
<asrwt>0</asrwt>
<pdfrwt beam="1">  1        2 0.36949310E+00 0.75396697E+03</pdfrwt>
<pdfrwt beam="2">  1       -2 0.16635703E+00 0.75396697E+03</pdfrwt>
<totfact> 0.94258934E-01</totfact>
</mgrwt>
</event>
<event>
 4    1  0.3057048E-007  0.7269440E+03  0.7818608E-02  0.9899754E-01
          2   -1    0    0  501    0  0.00000000000E+00  0.00000000000E+00  0.36077372276E+03  0.36077372277E+03  0.25500000000E-02 0. -1.
         -2   -1    0    0    0  501 -0.00000000000E+00 -0.00000000000E+00 -0.10235665933E+04  0.10235665933E+04  0.25500000000E-02 0.  1.
    8880023    1    1    2    0    0  0.36000266884E+01 -0.30761092328E+03 -0.73446966013E+03  0.10333892433E+04  0.65864270000E+03 0. -1.
    8880022    1    1    2    0    0 -0.36000266884E+01  0.30761092328E+03  0.71676789553E+02  0.35095107278E+03  0.15294330000E+03 0.  0.
<mgrwt>
<rscale>  0 0.60273217E+03</rscale>
<asrwt>0</asrwt>
<pdfrwt beam="1">  1        2 0.55503650E-01 0.72694405E+03</pdfrwt>
<pdfrwt beam="2">  1       -2 0.15747178E+00 0.72694405E+03</pdfrwt>
<totfact> 0.23844607E+01</totfact>
</mgrwt>
</event>
<event>
 4    1  0.3057048E-007  0.6945658E+03  0.7818608E-02  0.1002054E+00
         -2   -1    0    0    0  501 -0.00000000000E+00  0.00000000000E+00  0.21115819668E+03  0.21115819670E+03  0.25500000000E-02 0.  1.
          2   -1    0    0  501    0  0.00000000000E+00 -0.00000000000E+00 -0.27284792759E+04  0.27284792759E+04  0.25500000000E-02 0. -1.
    8880023    1    1    2    0    0  0.14869516944E+03 -0.16279173925E+03 -0.39221122991E+03  0.79765359581E+03  0.65864270000E+03 0.  1.
    8880022    1    1    2    0    0 -0.14869516944E+03  0.16279173925E+03 -0.21251098493E+04  0.21419838768E+04  0.15294330000E+03 0.  0.
<mgrwt>
<rscale>  0 0.54758797E+03</rscale>
<asrwt>0</asrwt>
<pdfrwt beam="1">  1        2 0.41976602E+00 0.69456577E+03</pdfrwt>
<pdfrwt beam="2">  1       -2 0.32485878E-01 0.69456577E+03</pdfrwt>
<totfact> 0.23895139E+01</totfact>
</mgrwt>
</event>
<event>
 4    1  0.3057048E-007  0.7339178E+03  0.7818608E-02  0.9878032E-01
          2   -1    0    0  501    0  0.00000000000E+00  0.00000000000E+00  0.29178283105E+04  0.29178283105E+04  0.25500000000E-02 0. -1.
         -2   -1    0    0    0  501 -0.00000000000E+00 -0.00000000000E+00 -0.50959036289E+03  0.50959036290E+03  0.25500000000E-02 0.  1.
    8880023    1    1    2    0    0  0.97930884377E+02 -0.30860114144E+03 -0.22680026811E+03  0.76816254171E+03  0.65864270000E+03 0.  1.
    8880022    1    1    2    0    0 -0.97930884377E+02  0.30860114144E+03  0.26350382157E+04  0.26592561316E+04  0.15294330000E+03 0.  0.
<mgrwt>
<rscale>  0 0.61337867E+03</rscale>
<asrwt>0</asrwt>
<pdfrwt beam="1">  1        2 0.44889667E+00 0.73391779E+03</pdfrwt>
<pdfrwt beam="2">  1       -2 0.78398516E-01 0.73391779E+03</pdfrwt>
<totfact> 0.30249553E+00</totfact>
</mgrwt>
</event>
<event>
 4    1  0.4288449E-007  0.7279158E+03  0.7818608E-02  0.9896658E-01
         -2   -1    0    0    0  501 -0.00000000000E+00  0.00000000000E+00  0.23650839420E+04  0.23650839420E+04  0.25500000000E-02 0.  1.
          2   -1    0    0  501    0  0.00000000000E+00 -0.00000000000E+00 -0.94723036672E+03  0.94723036672E+03  0.25500000000E-02 0. -1.
    8880023    1    1    2    0    0 -0.22715848839E+03  0.21083230502E+03  0.22747339097E+04  0.23883625784E+04  0.65864270000E+03 0.  1.
    8880022    1    1    2    0    0  0.22715848839E+03 -0.21083230502E+03 -0.85688033435E+03  0.92395173040E+03  0.15294330000E+03 0.  0.
<mgrwt>
<rscale>  0 0.60423504E+03</rscale>
<asrwt>0</asrwt>
<pdfrwt beam="1">  1        2 0.14572775E+00 0.72791582E+03</pdfrwt>
<pdfrwt beam="2">  1       -2 0.36385907E+00 0.72791582E+03</pdfrwt>
<totfact> 0.36955479E-01</totfact>
</mgrwt>
</event>
<event>
 4    1  0.3057048E-007  0.8414312E+03  0.7818608E-02  0.9627487E-01
          2   -1    0    0  501    0  0.00000000000E+00  0.00000000000E+00  0.21621127090E+04  0.21621127090E+04  0.25500000000E-02 0. -1.
         -2   -1    0    0    0  501 -0.00000000000E+00 -0.00000000000E+00 -0.71336029432E+03  0.71336029433E+03  0.25500000000E-02 0.  1.
    8880023    1    1    2    0    0  0.20275664394E+03 -0.48278983492E+03 -0.41165759126E+03  0.93673286484E+03  0.65864270000E+03 0.  1.
    8880022    1    1    2    0    0 -0.20275664394E+03  0.48278983492E+03  0.18604100059E+04  0.19387401385E+04  0.15294330000E+03 0.  0.
<mgrwt>
<rscale>  0 0.75503290E+03</rscale>
<asrwt>0</asrwt>
<pdfrwt beam="1">  1        2 0.33263272E+00 0.84143121E+03</pdfrwt>
<pdfrwt beam="2">  1       -2 0.10974774E+00 0.84143121E+03</pdfrwt>
<totfact> 0.36723418E+00</totfact>
</mgrwt>
</event>
<event>
 4    1  0.3057048E-007  0.6629787E+03  0.7818608E-02  0.1021293E+00
          2   -1    0    0  501    0  0.00000000000E+00  0.00000000000E+00  0.44006160567E+03  0.44006160568E+03  0.25500000000E-02 0. -1.
         -2   -1    0    0    0  501 -0.00000000000E+00 -0.00000000000E+00 -0.39698486960E+03  0.39698486961E+03  0.25500000000E-02 0.  1.
    8880023    1    1    2    0    0 -0.25172705401E+02 -0.71392408345E+02  0.90803331492E+01  0.66304087339E+03  0.65864270000E+03 0.  0.
    8880022    1    1    2    0    0  0.25172705401E+02  0.71392408345E+02  0.33996402920E+02  0.17400560190E+03  0.15294330000E+03 0. -1.
<mgrwt>
<rscale>  0 0.47222904E+03</rscale>
<asrwt>0</asrwt>
<pdfrwt beam="1">  1        2 0.67701785E-01 0.66297869E+03</pdfrwt>
<pdfrwt beam="2">  1       -2 0.61074596E-01 0.66297869E+03</pdfrwt>
<totfact> 0.18034101E+02</totfact>
</mgrwt>
</event>
<event>
 4    1  0.3057048E-007  0.7480948E+03  0.7818608E-02  0.9836965E-01
          2   -1    0    0  501    0  0.00000000000E+00  0.00000000000E+00  0.19089879634E+04  0.19089879634E+04  0.25500000000E-02 0. -1.
         -2   -1    0    0    0  501 -0.00000000000E+00 -0.00000000000E+00 -0.31106115041E+03  0.31106115042E+03  0.25500000000E-02 0.  1.
    8880023    1    1    2    0    0  0.33037473178E+03 -0.12918262851E+03  0.20661247489E+03  0.77610214273E+03  0.65864270000E+03 0.  1.
    8880022    1    1    2    0    0 -0.33037473178E+03  0.12918262851E+03  0.13913143381E+04  0.14439469711E+04  0.15294330000E+03 0.  0.
<mgrwt>
<rscale>  0 0.63415949E+03</rscale>
<asrwt>0</asrwt>
<pdfrwt beam="1">  1        2 0.29369045E+00 0.74809479E+03</pdfrwt>
<pdfrwt beam="2">  1       -2 0.47855563E-01 0.74809479E+03</pdfrwt>
<totfact> 0.32011003E+01</totfact>
</mgrwt>
</event>
<event>
 4    1  0.3057048E-007  0.7141026E+03  0.7818608E-02  0.9943071E-01
          2   -1    0    0  501    0  0.00000000000E+00  0.00000000000E+00  0.36845746221E+03  0.36845746222E+03  0.25500000000E-02 0. -1.
         -2   -1    0    0    0  501 -0.00000000000E+00 -0.00000000000E+00 -0.18448842261E+04  0.18448842261E+04  0.25500000000E-02 0.  1.
    8880023    1    1    2    0    0 -0.20924347016E+03 -0.17985950706E+03 -0.16884427484E+04  0.18332434080E+04  0.65864270000E+03 0.  1.
    8880022    1    1    2    0    0  0.20924347016E+03  0.17985950706E+03  0.21201598444E+03  0.38009828039E+03  0.15294330000E+03 0.  0.
<mgrwt>
<rscale>  0 0.58218550E+03</rscale>
<asrwt>0</asrwt>
<pdfrwt beam="1">  1        2 0.56685764E-01 0.71410257E+03</pdfrwt>
<pdfrwt beam="2">  1       -2 0.28382834E+00 0.71410257E+03</pdfrwt>
<totfact> 0.36253561E+00</totfact>
</mgrwt>
</event>
<event>
 4    1  0.3057048E-007  0.6601676E+03  0.7818608E-02  0.1023985E+00
          2   -1    0    0  501    0  0.00000000000E+00  0.00000000000E+00  0.37225120436E+04  0.37225120436E+04  0.25500000000E-02 0. -1.
         -2   -1    0    0    0  501 -0.00000000000E+00 -0.00000000000E+00 -0.10303815492E+03  0.10303815495E+03  0.25500000000E-02 0.  1.
    8880023    1    1    2    0    0  0.44557649564E+02 -0.50636461469E+01  0.98207338830E+03  0.11833382318E+04  0.65864270000E+03 0.  1.
    8880022    1    1    2    0    0 -0.44557649564E+02  0.50636461469E+01  0.26374005004E+04  0.26422119667E+04  0.15294330000E+03 0.  0.
<mgrwt>
<rscale>  0 0.46275443E+03</rscale>
<asrwt>0</asrwt>
<pdfrwt beam="1">  1        2 0.57269411E+00 0.66016758E+03</pdfrwt>
<pdfrwt beam="2">  1       -2 0.15852025E-01 0.66016758E+03</pdfrwt>
<totfact> 0.19810642E+01</totfact>
</mgrwt>
</event>
<event>
 4    1  0.3057048E-007  0.6673314E+03  0.7818608E-02  0.1017653E+00
         -2   -1    0    0    0  501 -0.00000000000E+00  0.00000000000E+00  0.10016129723E+03  0.10016129726E+03  0.25500000000E-02 0.  1.
          2   -1    0    0  501    0  0.00000000000E+00 -0.00000000000E+00 -0.31214916290E+04  0.31214916290E+04  0.25500000000E-02 0. -1.
    8880023    1    1    2    0    0 -0.21721912326E+02 -0.10511516910E+03 -0.10675992772E+04  0.12590073325E+04  0.65864270000E+03 0.  1.
    8880022    1    1    2    0    0  0.21721912326E+02  0.10511516910E+03 -0.19537310545E+04  0.19626455938E+04  0.15294330000E+03 0.  0.
<mgrwt>
<rscale>  0 0.48543279E+03</rscale>
<asrwt>0</asrwt>
<pdfrwt beam="1">  1        2 0.48022941E+00 0.66733144E+03</pdfrwt>
<pdfrwt beam="2">  1       -2 0.15409433E-01 0.66733144E+03</pdfrwt>
<totfact> 0.52389788E+01</totfact>
</mgrwt>
</event>
<event>
 4    1  0.3057048E-007  0.7498587E+03  0.7818608E-02  0.9832107E-01
          2   -1    0    0  501    0  0.00000000000E+00  0.00000000000E+00  0.12483771555E+04  0.12483771555E+04  0.25500000000E-02 0. -1.
         -2   -1    0    0    0  501 -0.00000000000E+00 -0.00000000000E+00 -0.26984746108E+03  0.26984746110E+03  0.25500000000E-02 0.  1.
    8880023    1    1    2    0    0  0.36641987590E+01  0.35841938225E+03  0.77573337399E+03  0.10789116524E+04  0.65864270000E+03 0. -1.
    8880022    1    1    2    0    0 -0.36641987590E+01 -0.35841938225E+03  0.20279632045E+03  0.43931296421E+03  0.15294330000E+03 0.  0.
<mgrwt>
<rscale>  0 0.63667590E+03</rscale>
<asrwt>0</asrwt>
<pdfrwt beam="1">  1        2 0.19205802E+00 0.74985871E+03</pdfrwt>
<pdfrwt beam="2">  1       -2 0.41514995E-01 0.74985871E+03</pdfrwt>
<totfact> 0.98970930E+01</totfact>
</mgrwt>
</event>
<event>
 4    1  0.3057048E-007  0.9363551E+03  0.7818608E-02  0.9470024E-01
         -2   -1    0    0    0  501 -0.00000000000E+00  0.00000000000E+00  0.15463790112E+04  0.15463790113E+04  0.25500000000E-02 0.  1.
          2   -1    0    0  501    0  0.00000000000E+00 -0.00000000000E+00 -0.13906449711E+04  0.13906449711E+04  0.25500000000E-02 0. -1.
    8880023    1    1    2    0    0  0.66332013420E+03 -0.54379493110E+02  0.13014149304E+04  0.16032597285E+04  0.65864270000E+03 0.  0.
    8880022    1    1    2    0    0 -0.66332013420E+03  0.54379493110E+02 -0.11456808902E+04  0.13337642539E+04  0.15294330000E+03 0.  0.
<mgrwt>
<rscale>  0 0.86530369E+03</rscale>
<asrwt>0</asrwt>
<pdfrwt beam="1">  1        2 0.21394538E+00 0.93635513E+03</pdfrwt>
<pdfrwt beam="2">  1       -2 0.23790446E+00 0.93635513E+03</pdfrwt>
<totfact> 0.11243121E+00</totfact>
</mgrwt>
</event>
<event>
 4    1  0.3057048E-007  0.7067192E+03  0.7818608E-02  0.9970392E-01
          2   -1    0    0  501    0  0.00000000000E+00  0.00000000000E+00  0.34712318736E+03  0.34712318737E+03  0.25500000000E-02 0. -1.
         -2   -1    0    0    0  501 -0.00000000000E+00 -0.00000000000E+00 -0.94939533312E+03  0.94939533313E+03  0.25500000000E-02 0.  1.
    8880023    1    1    2    0    0  0.17978921601E+03 -0.18253106988E+03 -0.68775211124E+03  0.98613129270E+03  0.65864270000E+03 0.  1.
    8880022    1    1    2    0    0 -0.17978921601E+03  0.18253106988E+03  0.85479965480E+02  0.31038722779E+03  0.15294330000E+03 0.  0.
<mgrwt>
<rscale>  0 0.56967777E+03</rscale>
<asrwt>0</asrwt>
<pdfrwt beam="1">  1        2 0.53403568E-01 0.70671915E+03</pdfrwt>
<pdfrwt beam="2">  1       -2 0.14606082E+00 0.70671915E+03</pdfrwt>
<totfact> 0.30440873E+01</totfact>
</mgrwt>
</event>
<event>
 4    1  0.3057048E-007  0.6729222E+03  0.7818608E-02  0.1013649E+00
          2   -1    0    0  501    0  0.00000000000E+00  0.00000000000E+00  0.55338749048E+03  0.55338749049E+03  0.25500000000E-02 0. -1.
         -2   -1    0    0    0  501 -0.00000000000E+00 -0.00000000000E+00 -0.52266785145E+03  0.52266785145E+03  0.25500000000E-02 0.  1.
    8880023    1    1    2    0    0  0.12810895065E+03 -0.51011388081E+02 -0.25862764958E+03  0.72091090458E+03  0.65864270000E+03 0.  1.
    8880022    1    1    2    0    0 -0.12810895065E+03  0.51011388081E+02  0.28934728861E+03  0.35514443737E+03  0.15294330000E+03 0.  0.
<mgrwt>
<rscale>  0 0.50049724E+03</rscale>
<asrwt>0</asrwt>
<pdfrwt beam="1">  1        2 0.85136536E-01 0.67292219E+03</pdfrwt>
<pdfrwt beam="2">  1       -2 0.80410439E-01 0.67292219E+03</pdfrwt>
<totfact> 0.75919952E+01</totfact>
</mgrwt>
</event>
<event>
 4    1  0.3057048E-007  0.7421895E+03  0.7818608E-02  0.9853614E-01
          2   -1    0    0  501    0  0.00000000000E+00  0.00000000000E+00  0.52434679476E+03  0.52434679477E+03  0.25500000000E-02 0. -1.
         -2   -1    0    0    0  501 -0.00000000000E+00 -0.00000000000E+00 -0.59649082548E+03  0.59649082549E+03  0.25500000000E-02 0.  1.
    8880023    1    1    2    0    0  0.29848914056E+03 -0.16715063307E+03 -0.19707668858E+02  0.74245114293E+03  0.65864270000E+03 0.  1.
    8880022    1    1    2    0    0 -0.29848914056E+03  0.16715063307E+03 -0.52436361863E+02  0.37838647733E+03  0.15294330000E+03 0. -1.
<mgrwt>
<rscale>  0 0.62562969E+03</rscale>
<asrwt>0</asrwt>
<pdfrwt beam="1">  1        2 0.80668738E-01 0.74218954E+03</pdfrwt>
<pdfrwt beam="2">  1       -2 0.91767819E-01 0.74218954E+03</pdfrwt>
<totfact> 0.59564039E+01</totfact>
</mgrwt>
</event>
<event>
 4    1  0.3057048E-007  0.9378864E+03  0.7818608E-02  0.9467761E-01
         -2   -1    0    0    0  501 -0.00000000000E+00  0.00000000000E+00  0.23360078793E+04  0.23360078793E+04  0.25500000000E-02 0.  1.
          2   -1    0    0  501    0  0.00000000000E+00 -0.00000000000E+00 -0.39397588975E+03  0.39397588976E+03  0.25500000000E-02 0. -1.
    8880023    1    1    2    0    0 -0.12516623622E+03  0.65586139244E+03  0.35746846007E+03  0.10037004827E+04  0.65864270000E+03 0. -1.
    8880022    1    1    2    0    0  0.12516623622E+03 -0.65586139244E+03  0.15845635295E+04  0.17262832864E+04  0.15294330000E+03 0.  0.
<mgrwt>
<rscale>  0 0.86702950E+03</rscale>
<asrwt>0</asrwt>
<pdfrwt beam="1">  1        2 0.60611677E-01 0.93788643E+03</pdfrwt>
<pdfrwt beam="2">  1       -2 0.35938582E+00 0.93788643E+03</pdfrwt>
<totfact> 0.11256858E+00</totfact>
</mgrwt>
</event>
<event>
 4    1  0.3057048E-007  0.1116698E+04  0.7818608E-02  0.9242689E-01
         -2   -1    0    0    0  501 -0.00000000000E+00  0.00000000000E+00  0.16305511633E+04  0.16305511633E+04  0.25500000000E-02 0.  1.
          2   -1    0    0  501    0  0.00000000000E+00 -0.00000000000E+00 -0.83043906102E+03  0.83043906102E+03  0.25500000000E-02 0. -1.
    8880023    1    1    2    0    0  0.56538759489E+03  0.70252431734E+03  0.10285937115E+04  0.15182288294E+04  0.65864270000E+03 0.  0.
    8880022    1    1    2    0    0 -0.56538759489E+03 -0.70252431734E+03 -0.22848160923E+03  0.94276139488E+03  0.15294330000E+03 0. -1.
<mgrwt>
<rscale>  0 0.10623464E+04</rscale>
<asrwt>0</asrwt>
<pdfrwt beam="1">  1        2 0.12775986E+00 0.11166977E+04</pdfrwt>
<pdfrwt beam="2">  1       -2 0.25085402E+00 0.11166977E+04</pdfrwt>
<totfact> 0.20478180E+00</totfact>
</mgrwt>
</event>
<event>
 4    1  0.3057048E-007  0.6793907E+03  0.7818608E-02  0.1009670E+00
         -2   -1    0    0    0  501 -0.00000000000E+00  0.00000000000E+00  0.89188961248E+03  0.89188961249E+03  0.25500000000E-02 0.  1.
          2   -1    0    0  501    0  0.00000000000E+00 -0.00000000000E+00 -0.24398094072E+03  0.24398094074E+03  0.25500000000E-02 0. -1.
    8880023    1    1    2    0    0 -0.15898647342E+03 -0.49848354816E+02  0.35728131260E+03  0.76760777732E+03  0.65864270000E+03 0.  0.
    8880022    1    1    2    0    0  0.15898647342E+03  0.49848354816E+02  0.29062735916E+03  0.36826277590E+03  0.15294330000E+03 0.  0.
<mgrwt>
<rscale>  0 0.51605837E+03</rscale>
<asrwt>0</asrwt>
<pdfrwt beam="1">  1        2 0.37535528E-01 0.67939073E+03</pdfrwt>
<pdfrwt beam="2">  1       -2 0.13721379E+00 0.67939073E+03</pdfrwt>
<totfact> 0.53083376E+01</totfact>
</mgrwt>
</event>
<event>
 4    1  0.3057048E-007  0.7888100E+03  0.7818608E-02  0.9735535E-01
          2   -1    0    0  501    0  0.00000000000E+00  0.00000000000E+00  0.13984102876E+04  0.13984102876E+04  0.25500000000E-02 0. -1.
         -2   -1    0    0    0  501 -0.00000000000E+00 -0.00000000000E+00 -0.54720473541E+03  0.54720473541E+03  0.25500000000E-02 0.  1.
    8880023    1    1    2    0    0  0.93708883028E+02  0.42382733105E+03 -0.18639228607E+03  0.81053269636E+03  0.65864270000E+03 0.  1.
    8880022    1    1    2    0    0 -0.93708883028E+02 -0.42382733105E+03  0.10375978382E+04  0.11350823266E+04  0.15294330000E+03 0.  0.
<mgrwt>
<rscale>  0 0.68939909E+03</rscale>
<asrwt>0</asrwt>
<pdfrwt beam="1">  1        2 0.21514004E+00 0.78880997E+03</pdfrwt>
<pdfrwt beam="2">  1       -2 0.84185344E-01 0.78880997E+03</pdfrwt>
<totfact> 0.18175221E+01</totfact>
</mgrwt>
</event>
<event>
 4    1  0.3057048E-007  0.7805884E+03  0.7818608E-02  0.9754457E-01
         -2   -1    0    0    0  501 -0.00000000000E+00  0.00000000000E+00  0.63248260930E+03  0.63248260931E+03  0.25500000000E-02 0.  1.
          2   -1    0    0  501    0  0.00000000000E+00 -0.00000000000E+00 -0.19822532338E+04  0.19822532338E+04  0.25500000000E-02 0. -1.
    8880023    1    1    2    0    0  0.37507540242E+03 -0.18661857396E+03  0.35142860661E+03  0.85604925177E+03  0.65864270000E+03 0.  1.
    8880022    1    1    2    0    0 -0.37507540242E+03  0.18661857396E+03 -0.17011992311E+04  0.17586865914E+04  0.15294330000E+03 0.  0.
<mgrwt>
<rscale>  0 0.67864998E+03</rscale>
<asrwt>0</asrwt>
<pdfrwt beam="1">  1        2 0.30496203E+00 0.78058840E+03</pdfrwt>
<pdfrwt beam="2">  1       -2 0.97305017E-01 0.78058840E+03</pdfrwt>
<totfact> 0.62054811E+00</totfact>
</mgrwt>
</event>
<event>
 4    1  0.3057048E-007  0.6869333E+03  0.7818608E-02  0.1005646E+00
          2   -1    0    0  501    0  0.00000000000E+00  0.00000000000E+00  0.34972709806E+03  0.34972709807E+03  0.25500000000E-02 0. -1.
         -2   -1    0    0    0  501 -0.00000000000E+00 -0.00000000000E+00 -0.15513508188E+04  0.15513508188E+04  0.25500000000E-02 0.  1.
    8880023    1    1    2    0    0 -0.18900055921E+03  0.48434793645E+02 -0.14156823536E+04  0.15735418244E+04  0.65864270000E+03 0.  1.
    8880022    1    1    2    0    0  0.18900055921E+03 -0.48434793645E+02  0.21405863279E+03  0.32753609252E+03  0.15294330000E+03 0.  0.
<mgrwt>
<rscale>  0 0.53242560E+03</rscale>
<asrwt>0</asrwt>
<pdfrwt beam="1">  1        2 0.53804170E-01 0.68693329E+03</pdfrwt>
<pdfrwt beam="2">  1       -2 0.23866935E+00 0.68693329E+03</pdfrwt>
<totfact> 0.72136405E+00</totfact>
</mgrwt>
</event>
<event>
 4    1  0.3057048E-007  0.8804722E+03  0.7818608E-02  0.9558136E-01
         -2   -1    0    0    0  501 -0.00000000000E+00  0.00000000000E+00  0.69389119213E+03  0.69389119214E+03  0.25500000000E-02 0.  1.
          2   -1    0    0  501    0  0.00000000000E+00 -0.00000000000E+00 -0.86903002250E+03  0.86903002250E+03  0.25500000000E-02 0. -1.
    8880023    1    1    2    0    0  0.45574065013E+03 -0.36567960286E+03 -0.32850133792E+03  0.93975765355E+03  0.65864270000E+03 0.  0.
    8880022    1    1    2    0    0 -0.45574065013E+03  0.36567960286E+03  0.15336250756E+03  0.62316356109E+03  0.15294330000E+03 0.  0.
<mgrwt>
<rscale>  0 0.80130065E+03</rscale>
<asrwt>0</asrwt>
<pdfrwt beam="1">  1        2 0.13369693E+00 0.88047221E+03</pdfrwt>
<pdfrwt beam="2">  1       -2 0.10675249E+00 0.88047221E+03</pdfrwt>
<totfact> 0.21817007E+01</totfact>
</mgrwt>
</event>
<event>
 4    1  0.3057048E-007  0.7649645E+03  0.7818608E-02  0.9792420E-01
          2   -1    0    0  501    0  0.00000000000E+00  0.00000000000E+00  0.87246332934E+03  0.87246332934E+03  0.25500000000E-02 0. -1.
         -2   -1    0    0    0  501 -0.00000000000E+00 -0.00000000000E+00 -0.50777199063E+03  0.50777199064E+03  0.25500000000E-02 0.  1.
    8880023    1    1    2    0    0 -0.71200526513E+02 -0.38247996310E+03 -0.80922795085E+02  0.76923282703E+03  0.65864270000E+03 0.  1.
    8880022    1    1    2    0    0  0.71200526513E+02  0.38247996310E+03  0.44561413379E+03  0.61100249295E+03  0.15294330000E+03 0. -1.
<mgrwt>
<rscale>  0 0.65770894E+03</rscale>
<asrwt>0</asrwt>
<pdfrwt beam="1">  1        2 0.13422513E+00 0.76496447E+03</pdfrwt>
<pdfrwt beam="2">  1       -2 0.78118767E-01 0.76496447E+03</pdfrwt>
<totfact> 0.45234875E+01</totfact>
</mgrwt>
</event>
<event>
 4    1  0.3057048E-007  0.7052429E+03  0.7818608E-02  0.9976109E-01
         -2   -1    0    0    0  501 -0.00000000000E+00  0.00000000000E+00  0.16577932018E+03  0.16577932020E+03  0.25500000000E-02 0.  1.
          2   -1    0    0  501    0  0.00000000000E+00 -0.00000000000E+00 -0.20281182383E+04  0.20281182383E+04  0.25500000000E-02 0. -1.
    8880023    1    1    2    0    0 -0.23072210798E+03 -0.10161022189E+03 -0.69595611256E+03  0.99081907792E+03  0.65864270000E+03 0.  1.
    8880022    1    1    2    0    0  0.23072210798E+03  0.10161022189E+03 -0.11663828055E+04  0.12030784806E+04  0.15294330000E+03 0.  0.
<mgrwt>
<rscale>  0 0.56710320E+03</rscale>
<asrwt>0</asrwt>
<pdfrwt beam="1">  1        2 0.31201817E+00 0.70524289E+03</pdfrwt>
<pdfrwt beam="2">  1       -2 0.25504512E-01 0.70524289E+03</pdfrwt>
<totfact> 0.91967024E+01</totfact>
</mgrwt>
</event>
<event>
 4    1  0.3057048E-007  0.6981968E+03  0.7818608E-02  0.1000477E+00
         -2   -1    0    0    0  501 -0.00000000000E+00  0.00000000000E+00  0.14019595760E+03  0.14019595762E+03  0.25500000000E-02 0.  1.
          2   -1    0    0  501    0  0.00000000000E+00 -0.00000000000E+00 -0.30858457691E+04  0.30858457691E+04  0.25500000000E-02 0. -1.
    8880023    1    1    2    0    0  0.11795866911E+03  0.19938472815E+03 -0.79714903168E+03  0.10596816986E+04  0.65864270000E+03 0.  1.
    8880022    1    1    2    0    0 -0.11795866911E+03 -0.19938472815E+03 -0.21485007798E+04  0.21663600281E+04  0.15294330000E+03 0.  0.
<mgrwt>
<rscale>  0 0.55441774E+03</rscale>
<asrwt>0</asrwt>
<pdfrwt beam="1">  1        2 0.47474545E+00 0.69819677E+03</pdfrwt>
<pdfrwt beam="2">  1       -2 0.21568611E-01 0.69819677E+03</pdfrwt>
<totfact> 0.30680370E+01</totfact>
</mgrwt>
</event>
<event>
 4    1  0.3057048E-007  0.1848557E+04  0.7818608E-02  0.8696142E-01
         -2   -1    0    0    0  501 -0.00000000000E+00  0.00000000000E+00  0.16542773237E+04  0.16542773237E+04  0.25500000000E-02 0.  1.
          2   -1    0    0  501    0  0.00000000000E+00 -0.00000000000E+00 -0.22519637274E+04  0.22519637274E+04  0.25500000000E-02 0. -1.
    8880023    1    1    2    0    0 -0.15366542201E+04  0.78869854750E+03 -0.10341377751E+04  0.21181602241E+04  0.65864270000E+03 0.  0.
    8880022    1    1    2    0    0  0.15366542201E+04 -0.78869854750E+03  0.43645137141E+03  0.17880808269E+04  0.15294330000E+03 0.  0.
<mgrwt>
<rscale>  0 0.18192259E+04</rscale>
<asrwt>0</asrwt>
<pdfrwt beam="1">  1        2 0.34645596E+00 0.18485567E+04</pdfrwt>
<pdfrwt beam="2">  1       -2 0.25450420E+00 0.18485567E+04</pdfrwt>
<totfact> 0.26299459E-01</totfact>
</mgrwt>
</event>
<event>
 4    1  0.3057048E-007  0.7005275E+03  0.7818608E-02  0.9995020E-01
          2   -1    0    0  501    0  0.00000000000E+00  0.00000000000E+00  0.22934273726E+04  0.22934273726E+04  0.25500000000E-02 0. -1.
         -2   -1    0    0    0  501 -0.00000000000E+00 -0.00000000000E+00 -0.16783002939E+03  0.16783002941E+03  0.25500000000E-02 0.  1.
    8880023    1    1    2    0    0 -0.18442310751E+03  0.15138268996E+03  0.63997788520E+03  0.94884693244E+03  0.65864270000E+03 0.  1.
    8880022    1    1    2    0    0  0.18442310751E+03 -0.15138268996E+03  0.14856194580E+04  0.15124104696E+04  0.15294330000E+03 0.  0.
<mgrwt>
<rscale>  0 0.55869146E+03</rscale>
<asrwt>0</asrwt>
<pdfrwt beam="1">  1        2 0.35283498E+00 0.70052752E+03</pdfrwt>
<pdfrwt beam="2">  1       -2 0.25820005E-01 0.70052752E+03</pdfrwt>
<totfact> 0.64353689E+01</totfact>
</mgrwt>
</event>
<event>
 4    1  0.3057048E-007  0.6654010E+03  0.7818608E-02  0.1019199E+00
         -2   -1    0    0    0  501 -0.00000000000E+00  0.00000000000E+00  0.94571492430E+03  0.94571492430E+03  0.25500000000E-02 0.  1.
          2   -1    0    0  501    0  0.00000000000E+00 -0.00000000000E+00 -0.34737958639E+03  0.34737958640E+03  0.25500000000E-02 0. -1.
    8880023    1    1    2    0    0 -0.31917343919E+02 -0.89048431794E+02  0.78824698962E+03  0.10315482844E+04  0.65864270000E+03 0.  1.
    8880022    1    1    2    0    0  0.31917343919E+02  0.89048431794E+02 -0.18991165171E+03  0.26154622635E+03  0.15294330000E+03 0.  0.
<mgrwt>
<rscale>  0 0.47976670E+03</rscale>
<asrwt>0</asrwt>
<pdfrwt beam="1">  1        2 0.53443014E-01 0.66540104E+03</pdfrwt>
<pdfrwt beam="2">  1       -2 0.14549460E+00 0.66540104E+03</pdfrwt>
<totfact> 0.30826123E+01</totfact>
</mgrwt>
</event>
<event>
 4    1  0.3057048E-007  0.6623955E+03  0.7818608E-02  0.1021826E+00
          2   -1    0    0  501    0  0.00000000000E+00  0.00000000000E+00  0.17403821782E+04  0.17403821782E+04  0.25500000000E-02 0. -1.
         -2   -1    0    0    0  501 -0.00000000000E+00 -0.00000000000E+00 -0.52263813850E+03  0.52263813850E+03  0.25500000000E-02 0.  1.
    8880023    1    1    2    0    0 -0.53556313515E+02 -0.45709417777E+02 -0.30624189591E+03  0.72976156015E+03  0.65864270000E+03 0.  1.
    8880022    1    1    2    0    0  0.53556313515E+02  0.45709417777E+02  0.15239859357E+04  0.15332587566E+04  0.15294330000E+03 0.  0.
<mgrwt>
<rscale>  0 0.47033338E+03</rscale>
<asrwt>0</asrwt>
<pdfrwt beam="1">  1        2 0.26775111E+00 0.66239553E+03</pdfrwt>
<pdfrwt beam="2">  1       -2 0.80405866E-01 0.66239553E+03</pdfrwt>
<totfact> 0.13268768E+01</totfact>
</mgrwt>
</event>
<event>
 4    1  0.3057048E-007  0.1070931E+04  0.7818608E-02  0.9294133E-01
         -2   -1    0    0    0  501 -0.00000000000E+00  0.00000000000E+00  0.48538194014E+03  0.48538194015E+03  0.25500000000E-02 0.  1.
          2   -1    0    0  501    0  0.00000000000E+00 -0.00000000000E+00 -0.21373153504E+04  0.21373153504E+04  0.25500000000E-02 0. -1.
    8880023    1    1    2    0    0 -0.71906371514E+03 -0.44275225209E+03 -0.13265939850E+04  0.17049175906E+04  0.65864270000E+03 0.  0.
    8880022    1    1    2    0    0  0.71906371514E+03  0.44275225209E+03 -0.32533942526E+03  0.91777970004E+03  0.15294330000E+03 0.  0.
<mgrwt>
<rscale>  0 0.10132478E+04</rscale>
<asrwt>0</asrwt>
<pdfrwt beam="1">  1        2 0.32881774E+00 0.10709306E+04</pdfrwt>
<pdfrwt beam="2">  1       -2 0.74674146E-01 0.10709306E+04</pdfrwt>
<totfact> 0.89976741E+00</totfact>
</mgrwt>
</event>
<event>
 4    1  0.3057048E-007  0.7063137E+03  0.7818608E-02  0.9971953E-01
          2   -1    0    0  501    0  0.00000000000E+00  0.00000000000E+00  0.45692745942E+04  0.45692745942E+04  0.25500000000E-02 0. -1.
         -2   -1    0    0    0  501 -0.00000000000E+00 -0.00000000000E+00 -0.93235237153E+02  0.93235237188E+02  0.25500000000E-02 0.  1.
    8880023    1    1    2    0    0  0.24648664548E+03  0.65674962352E+02  0.13615433395E+04  0.15338446267E+04  0.65864270000E+03 0.  0.
    8880022    1    1    2    0    0 -0.24648664548E+03 -0.65674962352E+02  0.31144960175E+04  0.31286652047E+04  0.15294330000E+03 0.  0.
<mgrwt>
<rscale>  0 0.56897334E+03</rscale>
<asrwt>0</asrwt>
<pdfrwt beam="1">  1        2 0.70296524E+00 0.70631372E+03</pdfrwt>
<pdfrwt beam="2">  1       -2 0.14343884E-01 0.70631372E+03</pdfrwt>
<totfact> 0.45568728E+00</totfact>
</mgrwt>
</event>
<event>
 4    1  0.3057048E-007  0.7116619E+03  0.7818608E-02  0.9951881E-01
         -2   -1    0    0    0  501 -0.00000000000E+00  0.00000000000E+00  0.23132850483E+03  0.23132850484E+03  0.25500000000E-02 0.  1.
          2   -1    0    0  501    0  0.00000000000E+00 -0.00000000000E+00 -0.31891853627E+04  0.31891853627E+04  0.25500000000E-02 0. -1.
    8880023    1    1    2    0    0 -0.25367454208E+03 -0.91113678223E+02 -0.34776512203E+03  0.79208791306E+03  0.65864270000E+03 0.  1.
    8880022    1    1    2    0    0  0.25367454208E+03  0.91113678223E+02 -0.26100917359E+04  0.26284259545E+04  0.15294330000E+03 0.  0.
<mgrwt>
<rscale>  0 0.57811488E+03</rscale>
<asrwt>0</asrwt>
<pdfrwt beam="1">  1        2 0.49064387E+00 0.71166192E+03</pdfrwt>
<pdfrwt beam="2">  1       -2 0.35589003E-01 0.71166192E+03</pdfrwt>
<totfact> 0.10527132E+01</totfact>
</mgrwt>
</event>
<event>
 4    1  0.3057048E-007  0.1170408E+04  0.7818608E-02  0.9186439E-01
         -2   -1    0    0    0  501 -0.00000000000E+00  0.00000000000E+00  0.75305863634E+03  0.75305863635E+03  0.25500000000E-02 0.  1.
          2   -1    0    0  501    0  0.00000000000E+00 -0.00000000000E+00 -0.19892469454E+04  0.19892469454E+04  0.25500000000E-02 0. -1.
    8880023    1    1    2    0    0 -0.92894097595E+03  0.27039456568E+03 -0.68130116433E+01  0.11704277771E+04  0.65864270000E+03 0.  1.
    8880022    1    1    2    0    0  0.92894097595E+03 -0.27039456568E+03 -0.12293752975E+04  0.15718778047E+04  0.15294330000E+03 0.  0.
<mgrwt>
<rscale>  0 0.11194507E+04</rscale>
<asrwt>0</asrwt>
<pdfrwt beam="1">  1        2 0.30603799E+00 0.11704079E+04</pdfrwt>
<pdfrwt beam="2">  1       -2 0.11585518E+00 0.11704079E+04</pdfrwt>
<totfact> 0.38432945E+00</totfact>
</mgrwt>
</event>
<event>
 4    1  0.3057048E-007  0.1152857E+04  0.7818608E-02  0.9204369E-01
          2   -1    0    0  501    0  0.00000000000E+00  0.00000000000E+00  0.38600995829E+04  0.38600995829E+04  0.25500000000E-02 0. -1.
         -2   -1    0    0    0  501 -0.00000000000E+00 -0.00000000000E+00 -0.42148373207E+03  0.42148373208E+03  0.25500000000E-02 0.  1.
    8880023    1    1    2    0    0 -0.94141391762E+03 -0.94916931301E+02  0.30258177804E+04  0.32380013642E+04  0.65864270000E+03 0.  0.
    8880022    1    1    2    0    0  0.94141391762E+03  0.94916931301E+02  0.41279807052E+03  0.10435819509E+04  0.15294330000E+03 0.  0.
<mgrwt>
<rscale>  0 0.11008446E+04</rscale>
<asrwt>0</asrwt>
<pdfrwt beam="1">  1        2 0.59386145E+00 0.11528571E+04</pdfrwt>
<pdfrwt beam="2">  1       -2 0.64843654E-01 0.11528571E+04</pdfrwt>
<totfact> 0.99069577E-01</totfact>
</mgrwt>
</event>
<event>
 4    1  0.3057048E-007  0.1030172E+04  0.7818608E-02  0.9343106E-01
          2   -1    0    0  501    0  0.00000000000E+00  0.00000000000E+00  0.28969229719E+04  0.28969229719E+04  0.25500000000E-02 0. -1.
         -2   -1    0    0    0  501 -0.00000000000E+00 -0.00000000000E+00 -0.42793815731E+03  0.42793815732E+03  0.25500000000E-02 0.  1.
    8880023    1    1    2    0    0 -0.61705930704E+03 -0.49667045591E+03  0.40166620229E+03  0.11057077708E+04  0.65864270000E+03 0.  1.
    8880022    1    1    2    0    0  0.61705930704E+03  0.49667045591E+03  0.20673186123E+04  0.22191533583E+04  0.15294330000E+03 0.  0.
<mgrwt>
<rscale>  0 0.96909452E+03</rscale>
<asrwt>0</asrwt>
<pdfrwt beam="1">  1        2 0.44568047E+00 0.10301718E+04</pdfrwt>
<pdfrwt beam="2">  1       -2 0.65836638E-01 0.10301718E+04</pdfrwt>
<totfact> 0.43520637E+00</totfact>
</mgrwt>
</event>
<event>
 4    1  0.3057048E-007  0.8442268E+03  0.7818608E-02  0.9622261E-01
         -2   -1    0    0    0  501 -0.00000000000E+00  0.00000000000E+00  0.22268017908E+03  0.22268017910E+03  0.25500000000E-02 0.  1.
          2   -1    0    0  501    0  0.00000000000E+00 -0.00000000000E+00 -0.27751658410E+04  0.27751658411E+04  0.25500000000E-02 0. -1.
    8880023    1    1    2    0    0 -0.24179110707E+03 -0.46951641528E+03 -0.80729388487E+03  0.11680934151E+04  0.65864270000E+03 0.  0.
    8880022    1    1    2    0    0  0.24179110707E+03  0.46951641528E+03 -0.17451917771E+04  0.18297526050E+04  0.15294330000E+03 0.  0.
<mgrwt>
<rscale>  0 0.75840144E+03</rscale>
<asrwt>0</asrwt>
<pdfrwt beam="1">  1        2 0.42694857E+00 0.84422675E+03</pdfrwt>
<pdfrwt beam="2">  1       -2 0.34258491E-01 0.84422675E+03</pdfrwt>
<totfact> 0.19829820E+01</totfact>
</mgrwt>
</event>
<event>
 4    1  0.3057048E-007  0.7830368E+03  0.7818608E-02  0.9748751E-01
         -2   -1    0    0    0  501 -0.00000000000E+00  0.00000000000E+00  0.38388846875E+03  0.38388846876E+03  0.25500000000E-02 0.  1.
          2   -1    0    0  501    0  0.00000000000E+00 -0.00000000000E+00 -0.10821307019E+04  0.10821307019E+04  0.25500000000E-02 0. -1.
    8880023    1    1    2    0    0 -0.33871719297E+03 -0.25417916633E+03 -0.22930984184E+03  0.81592254242E+03  0.65864270000E+03 0.  0.
    8880022    1    1    2    0    0  0.33871719297E+03  0.25417916633E+03 -0.46893239132E+03  0.65009662825E+03  0.15294330000E+03 0.  0.
<mgrwt>
<rscale>  0 0.68186884E+03</rscale>
<asrwt>0</asrwt>
<pdfrwt beam="1">  1        2 0.16648164E+00 0.78303678E+03</pdfrwt>
<pdfrwt beam="2">  1       -2 0.59059765E-01 0.78303678E+03</pdfrwt>
<totfact> 0.60629435E+01</totfact>
</mgrwt>
</event>
<event>
 4    1  0.3057048E-007  0.8501541E+03  0.7818608E-02  0.9611323E-01
          2   -1    0    0  501    0  0.00000000000E+00  0.00000000000E+00  0.89574023249E+03  0.89574023250E+03  0.25500000000E-02 0. -1.
         -2   -1    0    0    0  501 -0.00000000000E+00 -0.00000000000E+00 -0.11453548534E+04  0.11453548534E+04  0.25500000000E-02 0.  1.
    8880023    1    1    2    0    0 -0.27485925002E+02 -0.53683912862E+03 -0.86290903013E+03  0.12113521068E+04  0.65864270000E+03 0.  1.
    8880022    1    1    2    0    0  0.27485925002E+02  0.53683912862E+03  0.61329440918E+03  0.82974297914E+03  0.15294330000E+03 0.  0.
<mgrwt>
<rscale>  0 0.76551246E+03</rscale>
<asrwt>0</asrwt>
<pdfrwt beam="1">  1        2 0.13780619E+00 0.85015406E+03</pdfrwt>
<pdfrwt beam="2">  1       -2 0.17620844E+00 0.85015406E+03</pdfrwt>
<totfact> 0.57287250E+00</totfact>
</mgrwt>
</event>
<event>
 4    1  0.3057048E-007  0.8363608E+03  0.7818608E-02  0.9637081E-01
         -2   -1    0    0    0  501 -0.00000000000E+00  0.00000000000E+00  0.26292005733E+03  0.26292005734E+03  0.25500000000E-02 0.  1.
          2   -1    0    0  501    0  0.00000000000E+00 -0.00000000000E+00 -0.25851168730E+04  0.25851168730E+04  0.25500000000E-02 0. -1.
    8880023    1    1    2    0    0 -0.22059742983E+03 -0.46586047241E+03 -0.56221951315E+03  0.10077649493E+04  0.65864270000E+03 0.  0.
    8880022    1    1    2    0    0  0.22059742983E+03  0.46586047241E+03 -0.17599773026E+04  0.18402719811E+04  0.15294330000E+03 0.  0.
<mgrwt>
<rscale>  0 0.74889801E+03</rscale>
<asrwt>0</asrwt>
<pdfrwt beam="1">  1        2 0.39771027E+00 0.83636081E+03</pdfrwt>
<pdfrwt beam="2">  1       -2 0.40449242E-01 0.83636081E+03</pdfrwt>
<totfact> 0.18594171E+01</totfact>
</mgrwt>
</event>
<event>
 4    1  0.3057048E-007  0.6720026E+03  0.7818608E-02  0.1014266E+00
         -2   -1    0    0    0  501 -0.00000000000E+00  0.00000000000E+00  0.19706818448E+03  0.19706818449E+03  0.25500000000E-02 0.  1.
          2   -1    0    0  501    0  0.00000000000E+00 -0.00000000000E+00 -0.15053938575E+04  0.15053938575E+04  0.25500000000E-02 0. -1.
    8880023    1    1    2    0    0  0.80449524945E+02  0.10632588753E+03 -0.42270043509E+03  0.79389116667E+03  0.65864270000E+03 0.  1.
    8880022    1    1    2    0    0 -0.80449524945E+02 -0.10632588753E+03 -0.88562523792E+03  0.90857087532E+03  0.15294330000E+03 0.  0.
<mgrwt>
<rscale>  0 0.49813778E+03</rscale>
<asrwt>0</asrwt>
<pdfrwt beam="1">  1        2 0.23159905E+00 0.67200262E+03</pdfrwt>
<pdfrwt beam="2">  1       -2 0.30318183E-01 0.67200262E+03</pdfrwt>
<totfact> 0.12975099E+02</totfact>
</mgrwt>
</event>
<event>
 4    1  0.3057048E-007  0.9490780E+03  0.7818608E-02  0.9451442E-01
          2   -1    0    0  501    0  0.00000000000E+00  0.00000000000E+00  0.17130380176E+04  0.17130380176E+04  0.25500000000E-02 0. -1.
         -2   -1    0    0    0  501 -0.00000000000E+00 -0.00000000000E+00 -0.55818404463E+03  0.55818404463E+03  0.25500000000E-02 0.  1.
    8880023    1    1    2    0    0  0.27047257883E+03 -0.62752167895E+03  0.34087937969E+02  0.94968998480E+03  0.65864270000E+03 0.  1.
    8880022    1    1    2    0    0 -0.27047257883E+03  0.62752167895E+03  0.11207660350E+04  0.13215320774E+04  0.15294330000E+03 0.  0.
<mgrwt>
<rscale>  0 0.87960472E+03</rscale>
<asrwt>0</asrwt>
<pdfrwt beam="1">  1        2 0.26354431E+00 0.94907802E+03</pdfrwt>
<pdfrwt beam="2">  1       -2 0.85874469E-01 0.94907802E+03</pdfrwt>
<totfact> 0.11395579E+01</totfact>
</mgrwt>
</event>
<event>
 4    1  0.3057048E-007  0.8027818E+03  0.7818608E-02  0.9704813E-01
          2   -1    0    0  501    0  0.00000000000E+00  0.00000000000E+00  0.65845401944E+03  0.65845401945E+03  0.25500000000E-02 0. -1.
         -2   -1    0    0    0  501 -0.00000000000E+00 -0.00000000000E+00 -0.63799562407E+03  0.63799562408E+03  0.25500000000E-02 0.  1.
    8880023    1    1    2    0    0 -0.27124090757E+03  0.37023889351E+03  0.89561326995E+02  0.80776228295E+03  0.65864270000E+03 0. -1.
    8880022    1    1    2    0    0  0.27124090757E+03 -0.37023889351E+03 -0.69102931623E+02  0.48868736057E+03  0.15294330000E+03 0.  1.
<mgrwt>
<rscale>  0 0.70730942E+03</rscale>
<asrwt>0</asrwt>
<pdfrwt beam="1">  1        2 0.10130062E+00 0.80278183E+03</pdfrwt>
<pdfrwt beam="2">  1       -2 0.98153173E-01 0.80278183E+03</pdfrwt>
<totfact> 0.38531792E+01</totfact>
</mgrwt>
</event>
<event>
 4    1  0.3057048E-007  0.6897896E+03  0.7818608E-02  0.1004253E+00
         -2   -1    0    0    0  501 -0.00000000000E+00  0.00000000000E+00  0.52990681195E+03  0.52990681196E+03  0.25500000000E-02 0.  1.
          2   -1    0    0  501    0  0.00000000000E+00 -0.00000000000E+00 -0.75688237436E+03  0.75688237436E+03  0.25500000000E-02 0. -1.
    8880023    1    1    2    0    0  0.84111188098E+02 -0.18688165068E+03  0.25967114831E+03  0.73704732199E+03  0.65864270000E+03 0.  1.
    8880022    1    1    2    0    0 -0.84111188098E+02  0.18688165068E+03 -0.48664671072E+03  0.54974186433E+03  0.15294330000E+03 0.  0.
<mgrwt>
<rscale>  0 0.53824164E+03</rscale>
<asrwt>0</asrwt>
<pdfrwt beam="1">  1        2 0.11644344E+00 0.68978957E+03</pdfrwt>
<pdfrwt beam="2">  1       -2 0.81524125E-01 0.68978957E+03</pdfrwt>
<totfact> 0.49985045E+01</totfact>
</mgrwt>
</event>
<event>
 4    1  0.3057048E-007  0.9330164E+03  0.7818608E-02  0.9474983E-01
          2   -1    0    0  501    0  0.00000000000E+00  0.00000000000E+00  0.33306008649E+04  0.33306008649E+04  0.25500000000E-02 0. -1.
         -2   -1    0    0    0  501 -0.00000000000E+00 -0.00000000000E+00 -0.23769290205E+03  0.23769290206E+03  0.25500000000E-02 0.  1.
    8880023    1    1    2    0    0  0.32485336809E+03 -0.57548206441E+03  0.24962250736E+04  0.26648938330E+04  0.65864270000E+03 0. -1.
    8880022    1    1    2    0    0 -0.32485336809E+03  0.57548206441E+03  0.59668288926E+03  0.90339993390E+03  0.15294330000E+03 0.  0.
<mgrwt>
<rscale>  0 0.86153631E+03</rscale>
<asrwt>0</asrwt>
<pdfrwt beam="1">  1        2 0.51240012E+00 0.93301636E+03</pdfrwt>
<pdfrwt beam="2">  1       -2 0.36568140E-01 0.93301636E+03</pdfrwt>
<totfact> 0.77957179E+00</totfact>
</mgrwt>
</event>
<event>
 4    1  0.3057048E-007  0.9121447E+03  0.7818608E-02  0.9506810E-01
          2   -1    0    0  501    0  0.00000000000E+00  0.00000000000E+00  0.13601187065E+04  0.13601187065E+04  0.25500000000E-02 0. -1.
         -2   -1    0    0    0  501 -0.00000000000E+00 -0.00000000000E+00 -0.48738923907E+03  0.48738923907E+03  0.25500000000E-02 0.  1.
    8880023    1    1    2    0    0 -0.59972464091E+02  0.62817271606E+03  0.24520969291E+03  0.94452933115E+03  0.65864270000E+03 0.  1.
    8880022    1    1    2    0    0  0.59972464091E+02 -0.62817271606E+03  0.62751977447E+03  0.90297861437E+03  0.15294330000E+03 0. -1.
<mgrwt>
<rscale>  0 0.83783594E+03</rscale>
<asrwt>0</asrwt>
<pdfrwt beam="1">  1        2 0.20924903E+00 0.91214465E+03</pdfrwt>
<pdfrwt beam="2">  1       -2 0.74982961E-01 0.91214465E+03</pdfrwt>
<totfact> 0.24481813E+01</totfact>
</mgrwt>
</event>
<event>
 4    1  0.3380673E-007  0.9287459E+03  0.7818608E-02  0.9481377E-01
         -2   -1    0    0    0  501 -0.00000000000E+00  0.00000000000E+00  0.73801185610E+03  0.73801185611E+03  0.25500000000E-02 0.  1.
          2   -1    0    0  501    0  0.00000000000E+00 -0.00000000000E+00 -0.25763216025E+04  0.25763216025E+04  0.25500000000E-02 0. -1.
    8880023    1    1    2    0    0 -0.23569709974E+03  0.61090564134E+03  0.37465330151E+03  0.10014659895E+04  0.65864270000E+03 0.  0.
    8880022    1    1    2    0    0  0.23569709974E+03 -0.61090564134E+03 -0.22129630479E+04  0.23128674691E+04  0.15294330000E+03 0.  0.
<mgrwt>
<rscale>  0 0.85670849E+03</rscale>
<asrwt>0</asrwt>
<pdfrwt beam="1">  1        2 0.39635717E+00 0.92874595E+03</pdfrwt>
<pdfrwt beam="2">  1       -2 0.11354029E+00 0.92874595E+03</pdfrwt>
<totfact> 0.19499882E+00</totfact>
</mgrwt>
</event>
<event>
 4    1  0.3057048E-007  0.8126054E+03  0.7818608E-02  0.9684175E-01
         -2   -1    0    0    0  501 -0.00000000000E+00  0.00000000000E+00  0.13651865800E+04  0.13651865800E+04  0.25500000000E-02 0.  1.
          2   -1    0    0  501    0  0.00000000000E+00 -0.00000000000E+00 -0.49202311924E+03  0.49202311925E+03  0.25500000000E-02 0. -1.
    8880023    1    1    2    0    0 -0.42352571406E+03  0.21712509555E+03  0.10493150097E+04  0.13271735129E+04  0.65864270000E+03 0.  1.
    8880022    1    1    2    0    0  0.42352571406E+03 -0.21712509555E+03 -0.17615154894E+03  0.53003618631E+03  0.15294330000E+03 0.  0.
<mgrwt>
<rscale>  0 0.71966853E+03</rscale>
<asrwt>0</asrwt>
<pdfrwt beam="1">  1        2 0.75695867E-01 0.81260540E+03</pdfrwt>
<pdfrwt beam="2">  1       -2 0.21002870E+00 0.81260540E+03</pdfrwt>
<totfact> 0.72820289E+00</totfact>
</mgrwt>
</event>
<event>
 4    1  0.3057048E-007  0.6751781E+03  0.7818608E-02  0.1012194E+00
         -2   -1    0    0    0  501 -0.00000000000E+00  0.00000000000E+00  0.38576905333E+03  0.38576905334E+03  0.25500000000E-02 0.  1.
          2   -1    0    0  501    0  0.00000000000E+00 -0.00000000000E+00 -0.16804951929E+04  0.16804951929E+04  0.25500000000E-02 0. -1.
    8880023    1    1    2    0    0  0.73944942549E+02  0.12879223980E+03  0.75652107980E+02  0.67940322583E+03  0.65864270000E+03 0.  1.
    8880022    1    1    2    0    0 -0.73944942549E+02 -0.12879223980E+03 -0.13703782475E+04  0.13868610204E+04  0.15294330000E+03 0.  0.
<mgrwt>
<rscale>  0 0.50611809E+03</rscale>
<asrwt>0</asrwt>
<pdfrwt beam="1">  1        2 0.25853772E+00 0.67517813E+03</pdfrwt>
<pdfrwt beam="2">  1       -2 0.59349086E-01 0.67517813E+03</pdfrwt>
<totfact> 0.27626823E+01</totfact>
</mgrwt>
</event>
<event>
 4    1  0.3057048E-007  0.1121194E+04  0.7818608E-02  0.9237819E-01
          2   -1    0    0  501    0  0.00000000000E+00  0.00000000000E+00  0.21428318560E+04  0.21428318560E+04  0.25500000000E-02 0. -1.
         -2   -1    0    0    0  501 -0.00000000000E+00 -0.00000000000E+00 -0.14904906514E+04  0.14904906514E+04  0.25500000000E-02 0.  1.
    8880023    1    1    2    0    0  0.41293934897E+03 -0.80792693905E+03 -0.11522300842E+04  0.16077030876E+04  0.65864270000E+03 0.  0.
    8880022    1    1    2    0    0 -0.41293934897E+03  0.80792693905E+03  0.18045712888E+04  0.20256194199E+04  0.15294330000E+03 0.  0.
<mgrwt>
<rscale>  0 0.10671460E+04</rscale>
<asrwt>0</asrwt>
<pdfrwt beam="1">  1        2 0.32966644E+00 0.11211936E+04</pdfrwt>
<pdfrwt beam="2">  1       -2 0.22930625E+00 0.11211936E+04</pdfrwt>
<totfact> 0.47247914E-01</totfact>
</mgrwt>
</event>
<event>
 4    1  0.3057048E-007  0.7299914E+03  0.7818608E-02  0.9890123E-01
         -2   -1    0    0    0  501 -0.00000000000E+00  0.00000000000E+00  0.38349232280E+03  0.38349232281E+03  0.25500000000E-02 0.  1.
          2   -1    0    0  501    0  0.00000000000E+00 -0.00000000000E+00 -0.16490060729E+04  0.16490060729E+04  0.25500000000E-02 0. -1.
    8880023    1    1    2    0    0 -0.31202194340E+03  0.41467813594E+02 -0.10985886321E+02  0.73007408438E+03  0.65864270000E+03 0.  1.
    8880022    1    1    2    0    0  0.31202194340E+03 -0.41467813594E+02 -0.12545278638E+04  0.13024243113E+04  0.15294330000E+03 0.  0.
<mgrwt>
<rscale>  0 0.60742345E+03</rscale>
<asrwt>0</asrwt>
<pdfrwt beam="1">  1        2 0.25369324E+00 0.72999142E+03</pdfrwt>
<pdfrwt beam="2">  1       -2 0.58998820E-01 0.72999142E+03</pdfrwt>
<totfact> 0.28898276E+01</totfact>
</mgrwt>
</event>
<event>
 4    1  0.3057048E-007  0.7030523E+03  0.7818608E-02  0.9984767E-01
          2   -1    0    0  501    0  0.00000000000E+00  0.00000000000E+00  0.30893135036E+04  0.30893135036E+04  0.25500000000E-02 0. -1.
         -2   -1    0    0    0  501 -0.00000000000E+00 -0.00000000000E+00 -0.11149709428E+03  0.11149709431E+03  0.25500000000E-02 0.  1.
    8880023    1    1    2    0    0 -0.23723833412E+03 -0.64732235091E+02  0.11330222867E+04  0.13334249128E+04  0.65864270000E+03 0.  0.
    8880022    1    1    2    0    0  0.23723833412E+03  0.64732235091E+02  0.18447941226E+04  0.18673856852E+04  0.15294330000E+03 0.  0.
<mgrwt>
<rscale>  0 0.56323239E+03</rscale>
<asrwt>0</asrwt>
<pdfrwt beam="1">  1        2 0.47527897E+00 0.70305227E+03</pdfrwt>
<pdfrwt beam="2">  1       -2 0.17153400E-01 0.70305227E+03</pdfrwt>
<totfact> 0.45436406E+01</totfact>
</mgrwt>
</event>
<event>
 4    1  0.3057048E-007  0.9334134E+03  0.7818608E-02  0.9474391E-01
          2   -1    0    0  501    0  0.00000000000E+00  0.00000000000E+00  0.95495584301E+03  0.95495584301E+03  0.25500000000E-02 0. -1.
         -2   -1    0    0    0  501 -0.00000000000E+00 -0.00000000000E+00 -0.84754918625E+03  0.84754918626E+03  0.25500000000E-02 0.  1.
    8880023    1    1    2    0    0  0.63725945872E+03 -0.17706159239E+03 -0.33557577300E+03  0.99190308545E+03  0.65864270000E+03 0.  0.
    8880022    1    1    2    0    0 -0.63725945872E+03  0.17706159239E+03  0.44298242976E+03  0.81060194382E+03  0.15294330000E+03 0.  0.
<mgrwt>
<rscale>  0 0.86198469E+03</rscale>
<asrwt>0</asrwt>
<pdfrwt beam="1">  1        2 0.14691628E+00 0.93341343E+03</pdfrwt>
<pdfrwt beam="2">  1       -2 0.13039218E+00 0.93341343E+03</pdfrwt>
<totfact> 0.11590049E+01</totfact>
</mgrwt>
</event>
<event>
 4    1  0.4992497E-007  0.8609115E+03  0.7818608E-02  0.9591944E-01
         -2   -1    0    0    0  501 -0.00000000000E+00  0.00000000000E+00  0.13467543638E+04  0.13467543638E+04  0.25500000000E-02 0.  1.
          2   -1    0    0  501    0  0.00000000000E+00 -0.00000000000E+00 -0.17039486299E+04  0.17039486299E+04  0.25500000000E-02 0. -1.
    8880023    1    1    2    0    0 -0.54493753880E+03 -0.10198796234E+03  0.11505560351E+04  0.14369926450E+04  0.65864270000E+03 0.  0.
    8880022    1    1    2    0    0  0.54493753880E+03  0.10198796234E+03 -0.15077503012E+04  0.16137103487E+04  0.15294330000E+03 0.  0.
<mgrwt>
<rscale>  0 0.77831678E+03</rscale>
<asrwt>0</asrwt>
<pdfrwt beam="1">  1        2 0.26214594E+00 0.86091154E+03</pdfrwt>
<pdfrwt beam="2">  1       -2 0.20719298E+00 0.86091154E+03</pdfrwt>
<totfact> 0.11850646E+00</totfact>
</mgrwt>
</event>
<event>
 4    1  0.3057048E-007  0.7655697E+03  0.7818608E-02  0.9790896E-01
         -2   -1    0    0    0  501 -0.00000000000E+00  0.00000000000E+00  0.26580227504E+03  0.26580227505E+03  0.25500000000E-02 0.  1.
          2   -1    0    0  501    0  0.00000000000E+00 -0.00000000000E+00 -0.31526879646E+04  0.31526879646E+04  0.25500000000E-02 0. -1.
    8880023    1    1    2    0    0  0.13569252280E+03 -0.36588839096E+03 -0.34056405722E+03  0.83790265468E+03  0.65864270000E+03 0.  1.
    8880022    1    1    2    0    0 -0.13569252280E+03  0.36588839096E+03 -0.25463216323E+04  0.25805875850E+04  0.15294330000E+03 0.  0.
<mgrwt>
<rscale>  0 0.65853424E+03</rscale>
<asrwt>0</asrwt>
<pdfrwt beam="1">  1        2 0.48502889E+00 0.76556971E+03</pdfrwt>
<pdfrwt beam="2">  1       -2 0.40892660E-01 0.76556971E+03</pdfrwt>
<totfact> 0.84020565E+00</totfact>
</mgrwt>
</event>
<event>
 4    1  0.3057048E-007  0.9584970E+03  0.7818608E-02  0.9437993E-01
         -2   -1    0    0    0  501 -0.00000000000E+00  0.00000000000E+00  0.42957944816E+03  0.42957944816E+03  0.25500000000E-02 0.  1.
          2   -1    0    0  501    0  0.00000000000E+00 -0.00000000000E+00 -0.31890764434E+04  0.31890764434E+04  0.25500000000E-02 0. -1.
    8880023    1    1    2    0    0 -0.68434424194E+03 -0.12876040331E+03 -0.27428600773E+04  0.29055116404E+04  0.65864270000E+03 0.  0.
    8880022    1    1    2    0    0  0.68434424194E+03  0.12876040331E+03 -0.16636918023E+02  0.71314425118E+03  0.15294330000E+03 0.  0.
<mgrwt>
<rscale>  0 0.89013906E+03</rscale>
<asrwt>0</asrwt>
<pdfrwt beam="1">  1        2 0.49062713E+00 0.95849699E+03</pdfrwt>
<pdfrwt beam="2">  1       -2 0.66089148E-01 0.95849699E+03</pdfrwt>
<totfact> 0.28709966E+00</totfact>
</mgrwt>
</event>
<event>
 4    1  0.3057048E-007  0.8498793E+03  0.7818608E-02  0.9611826E-01
          2   -1    0    0  501    0  0.00000000000E+00  0.00000000000E+00  0.12291813302E+04  0.12291813302E+04  0.25500000000E-02 0. -1.
         -2   -1    0    0    0  501 -0.00000000000E+00 -0.00000000000E+00 -0.40948977874E+03  0.40948977875E+03  0.25500000000E-02 0.  1.
    8880023    1    1    2    0    0 -0.25986285922E+03  0.47005956341E+03  0.39562071760E+03  0.93744901580E+03  0.65864270000E+03 0.  0.
    8880022    1    1    2    0    0  0.25986285922E+03 -0.47005956341E+03  0.42407083381E+03  0.70122209311E+03  0.15294330000E+03 0.  1.
<mgrwt>
<rscale>  0 0.76518379E+03</rscale>
<asrwt>0</asrwt>
<pdfrwt beam="1">  1        2 0.18910482E+00 0.84987935E+03</pdfrwt>
<pdfrwt beam="2">  1       -2 0.62998429E-01 0.84987935E+03</pdfrwt>
<totfact> 0.42871078E+01</totfact>
</mgrwt>
</event>
<event>
 4    1  0.3057048E-007  0.6717559E+03  0.7818608E-02  0.1014434E+00
          2   -1    0    0  501    0  0.00000000000E+00  0.00000000000E+00  0.15004345193E+04  0.15004345193E+04  0.25500000000E-02 0. -1.
         -2   -1    0    0    0  501 -0.00000000000E+00 -0.00000000000E+00 -0.13594795377E+03  0.13594795380E+03  0.25500000000E-02 0.  1.
    8880023    1    1    2    0    0  0.39723299026E+02 -0.12596767102E+03  0.12024134411E+04  0.13773358647E+04  0.65864270000E+03 0. -1.
    8880022    1    1    2    0    0 -0.39723299026E+02  0.12596767102E+03  0.16207312437E+03  0.25904660833E+03  0.15294330000E+03 0.  1.
<mgrwt>
<rscale>  0 0.49749755E+03</rscale>
<asrwt>0</asrwt>
<pdfrwt beam="1">  1        2 0.23083608E+00 0.67175591E+03</pdfrwt>
<pdfrwt beam="2">  1       -2 0.20915070E-01 0.67175591E+03</pdfrwt>
<totfact> 0.25514769E+02</totfact>
</mgrwt>
</event>
<event>
 4    1  0.3057048E-007  0.8981826E+03  0.7818608E-02  0.9528955E-01
          2   -1    0    0  501    0  0.00000000000E+00  0.00000000000E+00  0.26002479897E+04  0.26002479897E+04  0.25500000000E-02 0. -1.
         -2   -1    0    0    0  501 -0.00000000000E+00 -0.00000000000E+00 -0.34189512322E+03  0.34189512322E+03  0.25500000000E-02 0.  1.
    8880023    1    1    2    0    0  0.48199488521E+03 -0.37497034846E+03  0.40589615150E+03  0.98563873892E+03  0.65864270000E+03 0.  0.
    8880022    1    1    2    0    0 -0.48199488521E+03  0.37497034846E+03  0.18524567150E+04  0.19565043740E+04  0.15294330000E+03 0.  0.
<mgrwt>
<rscale>  0 0.82182310E+03</rscale>
<asrwt>0</asrwt>
<pdfrwt beam="1">  1        2 0.40003815E+00 0.89818263E+03</pdfrwt>
<pdfrwt beam="2">  1       -2 0.52599250E-01 0.89818263E+03</pdfrwt>
<totfact> 0.10661659E+01</totfact>
</mgrwt>
</event>
<event>
 4    1  0.3057048E-007  0.9597102E+03  0.7818608E-02  0.9436279E-01
          2   -1    0    0  501    0  0.00000000000E+00  0.00000000000E+00  0.10842628583E+04  0.10842628583E+04  0.25500000000E-02 0. -1.
         -2   -1    0    0    0  501 -0.00000000000E+00 -0.00000000000E+00 -0.22155705524E+04  0.22155705524E+04  0.25500000000E-02 0.  1.
    8880023    1    1    2    0    0  0.57031247757E+03  0.40246395556E+03 -0.19740149690E+04  0.21949439313E+04  0.65864270000E+03 0.  1.
    8880022    1    1    2    0    0 -0.57031247757E+03 -0.40246395556E+03  0.84270727481E+03  0.11048894794E+04  0.15294330000E+03 0.  0.
<mgrwt>
<rscale>  0 0.89149289E+03</rscale>
<asrwt>0</asrwt>
<pdfrwt beam="1">  1        2 0.16680967E+00 0.95971025E+03</pdfrwt>
<pdfrwt beam="2">  1       -2 0.34085701E+00 0.95971025E+03</pdfrwt>
<totfact> 0.40232574E-01</totfact>
</mgrwt>
</event>
<event>
 4    1  0.3057048E-007  0.1062218E+04  0.7818608E-02  0.9304336E-01
          2   -1    0    0  501    0  0.00000000000E+00  0.00000000000E+00  0.11581164810E+04  0.11581164810E+04  0.25500000000E-02 0. -1.
         -2   -1    0    0    0  501 -0.00000000000E+00 -0.00000000000E+00 -0.92040090238E+03  0.92040090238E+03  0.25500000000E-02 0.  1.
    8880023    1    1    2    0    0  0.62935296534E+03 -0.54626984474E+03 -0.26306500057E+03  0.10943076802E+04  0.65864270000E+03 0.  0.
    8880022    1    1    2    0    0 -0.62935296534E+03  0.54626984474E+03  0.50078057921E+03  0.98420970315E+03  0.15294330000E+03 0.  0.
<mgrwt>
<rscale>  0 0.10038461E+04</rscale>
<asrwt>0</asrwt>
<pdfrwt beam="1">  1        2 0.17817177E+00 0.10622175E+04</pdfrwt>
<pdfrwt beam="2">  1       -2 0.14160014E+00 0.10622175E+04</pdfrwt>
<totfact> 0.68989537E+00</totfact>
</mgrwt>
</event>
<event>
 4    1  0.3057048E-007  0.8243850E+03  0.7818608E-02  0.9660358E-01
         -2   -1    0    0    0  501 -0.00000000000E+00  0.00000000000E+00  0.10836554309E+04  0.10836554309E+04  0.25500000000E-02 0.  1.
          2   -1    0    0  501    0  0.00000000000E+00 -0.00000000000E+00 -0.73956602766E+03  0.73956602767E+03  0.25500000000E-02 0. -1.
    8880023    1    1    2    0    0 -0.49285359050E+03 -0.53812559593E+02  0.78798415094E+03  0.11404076822E+04  0.65864270000E+03 0.  1.
    8880022    1    1    2    0    0  0.49285359050E+03  0.53812559593E+02 -0.44389474766E+03  0.68281377641E+03  0.15294330000E+03 0.  0.
<mgrwt>
<rscale>  0 0.73426928E+03</rscale>
<asrwt>0</asrwt>
<pdfrwt beam="1">  1        2 0.11377939E+00 0.82438502E+03</pdfrwt>
<pdfrwt beam="2">  1       -2 0.16671622E+00 0.82438502E+03</pdfrwt>
<totfact> 0.86674982E+00</totfact>
</mgrwt>
</event>
<event>
 4    1  0.3057048E-007  0.7817599E+03  0.7818608E-02  0.9751719E-01
         -2   -1    0    0    0  501 -0.00000000000E+00  0.00000000000E+00  0.12547795989E+04  0.12547795989E+04  0.25500000000E-02 0.  1.
          2   -1    0    0  501    0  0.00000000000E+00 -0.00000000000E+00 -0.69425968948E+03  0.69425968948E+03  0.25500000000E-02 0. -1.
    8880023    1    1    2    0    0 -0.32148732013E+03  0.27200038601E+03  0.10346034756E+04  0.12967470320E+04  0.65864270000E+03 0.  0.
    8880022    1    1    2    0    0  0.32148732013E+03 -0.27200038601E+03 -0.47408356619E+03  0.65229225638E+03  0.15294330000E+03 0. -1.
<mgrwt>
<rscale>  0 0.68019206E+03</rscale>
<asrwt>0</asrwt>
<pdfrwt beam="1">  1        2 0.10680918E+00 0.78175988E+03</pdfrwt>
<pdfrwt beam="2">  1       -2 0.19304301E+00 0.78175988E+03</pdfrwt>
<totfact> 0.62210353E+00</totfact>
</mgrwt>
</event>
<event>
 4    1  0.3057048E-007  0.9619934E+03  0.7818608E-02  0.9433064E-01
          2   -1    0    0  501    0  0.00000000000E+00  0.00000000000E+00  0.40099435070E+04  0.40099435070E+04  0.25500000000E-02 0. -1.
         -2   -1    0    0    0  501 -0.00000000000E+00 -0.00000000000E+00 -0.35243890885E+03  0.35243890886E+03  0.25500000000E-02 0.  1.
    8880023    1    1    2    0    0  0.67110251985E+03  0.20308251928E+03  0.42590554311E+03  0.10520583823E+04  0.65864270000E+03 0.  0.
    8880022    1    1    2    0    0 -0.67110251985E+03 -0.20308251928E+03  0.32315990551E+04  0.33103240336E+04  0.15294330000E+03 0.  0.
<mgrwt>
<rscale>  0 0.89403870E+03</rscale>
<asrwt>0</asrwt>
<pdfrwt beam="1">  1        2 0.61691436E+00 0.96199340E+03</pdfrwt>
<pdfrwt beam="2">  1       -2 0.54221372E-01 0.96199340E+03</pdfrwt>
<totfact> 0.11428227E+00</totfact>
</mgrwt>
</event>
<event>
 4    1  0.4497281E-007  0.7570637E+03  0.7818608E-02  0.9812769E-01
         -2   -1    0    0    0  501 -0.00000000000E+00  0.00000000000E+00  0.12780460792E+04  0.12780460792E+04  0.25500000000E-02 0.  1.
          2   -1    0    0  501    0  0.00000000000E+00 -0.00000000000E+00 -0.15557534003E+04  0.15557534003E+04  0.25500000000E-02 0. -1.
    8880023    1    1    2    0    0 -0.28670268872E+03  0.23903319573E+03  0.11351706590E+04  0.13644625065E+04  0.65864270000E+03 0.  1.
    8880022    1    1    2    0    0  0.28670268872E+03 -0.23903319573E+03 -0.14128779801E+04  0.14693369730E+04  0.15294330000E+03 0.  0.
<mgrwt>
<rscale>  0 0.64681751E+03</rscale>
<asrwt>0</asrwt>
<pdfrwt beam="1">  1        2 0.23934668E+00 0.75706374E+03</pdfrwt>
<pdfrwt beam="2">  1       -2 0.19662247E+00 0.75706374E+03</pdfrwt>
<totfact> 0.17054954E+00</totfact>
</mgrwt>
</event>
<event>
 4    1  0.3057048E-007  0.6894281E+03  0.7818608E-02  0.1004426E+00
          2   -1    0    0  501    0  0.00000000000E+00  0.00000000000E+00  0.16814624170E+04  0.16814624170E+04  0.25500000000E-02 0. -1.
         -2   -1    0    0    0  501 -0.00000000000E+00 -0.00000000000E+00 -0.84560051004E+03  0.84560051005E+03  0.25500000000E-02 0.  1.
    8880023    1    1    2    0    0  0.16120020793E+03 -0.12456081783E+03 -0.69276183929E+03  0.97735872463E+03  0.65864270000E+03 0.  1.
    8880022    1    1    2    0    0 -0.16120020793E+03  0.12456081783E+03  0.15286237463E+04  0.15497042024E+04  0.15294330000E+03 0.  0.
<mgrwt>
<rscale>  0 0.53751563E+03</rscale>
<asrwt>0</asrwt>
<pdfrwt beam="1">  1        2 0.25868652E+00 0.68942810E+03</pdfrwt>
<pdfrwt beam="2">  1       -2 0.13009239E+00 0.68942810E+03</pdfrwt>
<totfact> 0.45262203E+00</totfact>
</mgrwt>
</event>
<event>
 4    1  0.3057048E-007  0.6940884E+03  0.7818608E-02  0.1002267E+00
          2   -1    0    0  501    0  0.00000000000E+00  0.00000000000E+00  0.32747194178E+04  0.32747194178E+04  0.25500000000E-02 0. -1.
         -2   -1    0    0    0  501 -0.00000000000E+00 -0.00000000000E+00 -0.16487802064E+03  0.16487802066E+03  0.25500000000E-02 0.  1.
    8880023    1    1    2    0    0  0.21878340203E+03 -0.90744658859E+01  0.60558106999E+03  0.92113362849E+03  0.65864270000E+03 0.  1.
    8880022    1    1    2    0    0 -0.21878340203E+03  0.90744658859E+01  0.25042603271E+04  0.25184638099E+04  0.15294330000E+03 0.  0.
<mgrwt>
<rscale>  0 0.54667331E+03</rscale>
<asrwt>0</asrwt>
<pdfrwt beam="1">  1        2 0.50380297E+00 0.69408842E+03</pdfrwt>
<pdfrwt beam="2">  1       -2 0.25365850E-01 0.69408842E+03</pdfrwt>
<totfact> 0.17456035E+01</totfact>
</mgrwt>
</event>
<event>
 4    1  0.3057048E-007  0.8551043E+03  0.7818608E-02  0.9602332E-01
          2   -1    0    0  501    0  0.00000000000E+00  0.00000000000E+00  0.43144801510E+04  0.43144801510E+04  0.25500000000E-02 0. -1.
         -2   -1    0    0    0  501 -0.00000000000E+00 -0.00000000000E+00 -0.14045692219E+03  0.14045692221E+03  0.25500000000E-02 0.  1.
    8880023    1    1    2    0    0 -0.42830489309E+03 -0.33756208041E+03  0.33332759800E+04  0.34412108631E+04  0.65864270000E+03 0. -1.
    8880022    1    1    2    0    0  0.42830489309E+03  0.33756208041E+03  0.84074724887E+03  0.10137262101E+04  0.15294330000E+03 0.  0.
<mgrwt>
<rscale>  0 0.77142032E+03</rscale>
<asrwt>0</asrwt>
<pdfrwt beam="1">  1        2 0.66376614E+00 0.85510435E+03</pdfrwt>
<pdfrwt beam="2">  1       -2 0.21608758E-01 0.85510435E+03</pdfrwt>
<totfact> 0.37555146E+00</totfact>
</mgrwt>
</event>
<event>
 4    1  0.3057048E-007  0.1158004E+04  0.7818608E-02  0.9199068E-01
         -2   -1    0    0    0  501 -0.00000000000E+00  0.00000000000E+00  0.25348268482E+04  0.25348268482E+04  0.25500000000E-02 0.  1.
          2   -1    0    0  501    0  0.00000000000E+00 -0.00000000000E+00 -0.11784729274E+04  0.11784729274E+04  0.25500000000E-02 0. -1.
    8880023    1    1    2    0    0  0.92840949397E+03  0.21264516633E+03  0.21645451390E+04  0.24548376770E+04  0.65864270000E+03 0.  0.
    8880022    1    1    2    0    0 -0.92840949397E+03 -0.21264516633E+03 -0.80819121826E+03  0.12584620986E+04  0.15294330000E+03 0.  0.
<mgrwt>
<rscale>  0 0.11063056E+04</rscale>
<asrwt>0</asrwt>
<pdfrwt beam="1">  1        2 0.18130353E+00 0.11580036E+04</pdfrwt>
<pdfrwt beam="2">  1       -2 0.38997336E+00 0.11580036E+04</pdfrwt>
<totfact> 0.16672879E-01</totfact>
</mgrwt>
</event>
<event>
 4    1  0.3057048E-007  0.1107360E+04  0.7818608E-02  0.9252905E-01
          2   -1    0    0  501    0  0.00000000000E+00  0.00000000000E+00  0.12775983448E+04  0.12775983448E+04  0.25500000000E-02 0. -1.
         -2   -1    0    0    0  501 -0.00000000000E+00 -0.00000000000E+00 -0.82197169557E+03  0.82197169557E+03  0.25500000000E-02 0.  1.
    8880023    1    1    2    0    0  0.75846702193E+03  0.46600927603E+03  0.47411949973E+02  0.11083749221E+04  0.65864270000E+03 0.  0.
    8880022    1    1    2    0    0 -0.75846702193E+03 -0.46600927603E+03  0.40821469922E+03  0.99119511822E+03  0.15294330000E+03 0.  0.
<mgrwt>
<rscale>  0 0.10523655E+04</rscale>
<asrwt>0</asrwt>
<pdfrwt beam="1">  1        2 0.19655359E+00 0.11073604E+04</pdfrwt>
<pdfrwt beam="2">  1       -2 0.12645718E+00 0.11073604E+04</pdfrwt>
<totfact> 0.77966622E+00</totfact>
</mgrwt>
</event>
<event>
 4    1  0.3057048E-007  0.7271364E+03  0.7818608E-02  0.9899139E-01
          2   -1    0    0  501    0  0.00000000000E+00  0.00000000000E+00  0.26737330095E+03  0.26737330096E+03  0.25500000000E-02 0. -1.
         -2   -1    0    0    0  501 -0.00000000000E+00 -0.00000000000E+00 -0.11477282131E+04  0.11477282131E+04  0.25500000000E-02 0.  1.
    8880023    1    1    2    0    0  0.57622639378E+02  0.30264953655E+03 -0.41761570217E+03  0.83852858717E+03  0.65864270000E+03 0. -1.
    8880022    1    1    2    0    0 -0.57622639378E+02 -0.30264953655E+03 -0.46273920995E+03  0.57657292685E+03  0.15294330000E+03 0.  1.
<mgrwt>
<rscale>  0 0.60303014E+03</rscale>
<asrwt>0</asrwt>
<pdfrwt beam="1">  1        2 0.41134355E-01 0.72713638E+03</pdfrwt>
<pdfrwt beam="2">  1       -2 0.17657357E+00 0.72713638E+03</pdfrwt>
<totfact> 0.24287452E+01</totfact>
</mgrwt>
</event>
<event>
 4    1  0.3057048E-007  0.1269792E+04  0.7818608E-02  0.9092095E-01
         -2   -1    0    0    0  501 -0.00000000000E+00  0.00000000000E+00  0.21990230653E+04  0.21990230653E+04  0.25500000000E-02 0.  1.
          2   -1    0    0  501    0  0.00000000000E+00 -0.00000000000E+00 -0.92468778045E+03  0.92468778045E+03  0.25500000000E-02 0. -1.
    8880023    1    1    2    0    0  0.10805462578E+04  0.10479190949E+03 -0.20102165290E+03  0.12856054880E+04  0.65864270000E+03 0.  0.
    8880022    1    1    2    0    0 -0.10805462578E+04 -0.10479190949E+03  0.14753569377E+04  0.18381053578E+04  0.15294330000E+03 0.  0.
<mgrwt>
<rscale>  0 0.12240112E+04</rscale>
<asrwt>0</asrwt>
<pdfrwt beam="1">  1        2 0.14225966E+00 0.12697920E+04</pdfrwt>
<pdfrwt beam="2">  1       -2 0.33831124E+00 0.12697920E+04</pdfrwt>
<totfact> 0.50653452E-01</totfact>
</mgrwt>
</event>
<event>
 4    1  0.3057048E-007  0.6744401E+03  0.7818608E-02  0.1012661E+00
         -2   -1    0    0    0  501 -0.00000000000E+00  0.00000000000E+00  0.25353699669E+03  0.25353699670E+03  0.25500000000E-02 0.  1.
          2   -1    0    0  501    0  0.00000000000E+00 -0.00000000000E+00 -0.94505221919E+03  0.94505221920E+03  0.25500000000E-02 0. -1.
    8880023    1    1    2    0    0 -0.94398684791E+02  0.11021878886E+03 -0.26845543455E+03  0.72590482827E+03  0.65864270000E+03 0.  1.
    8880022    1    1    2    0    0  0.94398684791E+02 -0.11021878886E+03 -0.42305978795E+03  0.47268438763E+03  0.15294330000E+03 0.  0.
<mgrwt>
<rscale>  0 0.50430431E+03</rscale>
<asrwt>0</asrwt>
<pdfrwt beam="1">  1        2 0.14539265E+00 0.67444014E+03</pdfrwt>
<pdfrwt beam="2">  1       -2 0.39005692E-01 0.67444014E+03</pdfrwt>
<totfact> 0.17259229E+02</totfact>
</mgrwt>
</event>
<event>
 4    1  0.3057048E-007  0.1185200E+04  0.7818608E-02  0.9171645E-01
          2   -1    0    0  501    0  0.00000000000E+00  0.00000000000E+00  0.12473142821E+04  0.12473142821E+04  0.25500000000E-02 0. -1.
         -2   -1    0    0    0  501 -0.00000000000E+00 -0.00000000000E+00 -0.14612760098E+04  0.14612760098E+04  0.25500000000E-02 0.  1.
    8880023    1    1    2    0    0 -0.56168295619E+03  0.80956808324E+03 -0.90855747848E+03  0.14933770866E+04  0.65864270000E+03 0.  1.
    8880022    1    1    2    0    0  0.56168295619E+03 -0.80956808324E+03  0.69459575077E+03  0.12152132054E+04  0.15294330000E+03 0.  0.
<mgrwt>
<rscale>  0 0.11350951E+04</rscale>
<asrwt>0</asrwt>
<pdfrwt beam="1">  1        2 0.19189450E+00 0.11851997E+04</pdfrwt>
<pdfrwt beam="2">  1       -2 0.22481169E+00 0.11851997E+04</pdfrwt>
<totfact> 0.15914480E+00</totfact>
</mgrwt>
</event>
<event>
 4    1  0.3057048E-007  0.7627531E+03  0.7818608E-02  0.9798032E-01
         -2   -1    0    0    0  501 -0.00000000000E+00  0.00000000000E+00  0.50492976221E+03  0.50492976221E+03  0.25500000000E-02 0.  1.
          2   -1    0    0  501    0  0.00000000000E+00 -0.00000000000E+00 -0.10300347831E+04  0.10300347831E+04  0.25500000000E-02 0. -1.
    8880023    1    1    2    0    0 -0.26548213394E+03 -0.27839049574E+03  0.11629964224E+03  0.77156843158E+03  0.65864270000E+03 0.  1.
    8880022    1    1    2    0    0  0.26548213394E+03  0.27839049574E+03 -0.64140466310E+03  0.76339611371E+03  0.15294330000E+03 0.  0.
<mgrwt>
<rscale>  0 0.65468289E+03</rscale>
<asrwt>0</asrwt>
<pdfrwt beam="1">  1        2 0.15846689E+00 0.76275306E+03</pdfrwt>
<pdfrwt beam="2">  1       -2 0.77681502E-01 0.76275306E+03</pdfrwt>
<totfact> 0.36120738E+01</totfact>
</mgrwt>
</event>
<event>
 4    1  0.3057048E-007  0.6970615E+03  0.7818608E-02  0.1000962E+00
         -2   -1    0    0    0  501 -0.00000000000E+00  0.00000000000E+00  0.50904373131E+03  0.50904373131E+03  0.25500000000E-02 0.  1.
          2   -1    0    0  501    0  0.00000000000E+00 -0.00000000000E+00 -0.80241590410E+03  0.80241590411E+03  0.25500000000E-02 0. -1.
    8880023    1    1    2    0    0  0.13796215324E+03  0.18179923772E+03  0.21851418866E+03  0.73050884695E+03  0.65864270000E+03 0.  0.
    8880022    1    1    2    0    0 -0.13796215324E+03 -0.18179923772E+03 -0.51188636146E+03  0.58095078847E+03  0.15294330000E+03 0.  0.
<mgrwt>
<rscale>  0 0.55230573E+03</rscale>
<asrwt>0</asrwt>
<pdfrwt beam="1">  1        2 0.12344860E+00 0.69706149E+03</pdfrwt>
<pdfrwt beam="2">  1       -2 0.78314421E-01 0.69706149E+03</pdfrwt>
<totfact> 0.50645917E+01</totfact>
</mgrwt>
</event>
<event>
 4    1  0.3057048E-007  0.7279415E+03  0.7818608E-02  0.9896577E-01
          2   -1    0    0  501    0  0.00000000000E+00  0.00000000000E+00  0.10936094717E+04  0.10936094717E+04  0.25500000000E-02 0. -1.
         -2   -1    0    0    0  501 -0.00000000000E+00 -0.00000000000E+00 -0.65163541012E+03  0.65163541012E+03  0.25500000000E-02 0.  1.
    8880023    1    1    2    0    0 -0.22008093244E+03 -0.21829571156E+03 -0.40317971577E+03  0.83213744296E+03  0.65864270000E+03 0.  1.
    8880022    1    1    2    0    0  0.22008093244E+03  0.21829571156E+03  0.84515377737E+03  0.91310743888E+03  0.15294330000E+03 0.  0.
<mgrwt>
<rscale>  0 0.60427468E+03</rscale>
<asrwt>0</asrwt>
<pdfrwt beam="1">  1        2 0.16824761E+00 0.72794151E+03</pdfrwt>
<pdfrwt beam="2">  1       -2 0.10025160E+00 0.72794151E+03</pdfrwt>
<totfact> 0.18417252E+01</totfact>
</mgrwt>
</event>
<event>
 4    1  0.3057048E-007  0.9811091E+03  0.7818608E-02  0.9406701E-01
          2   -1    0    0  501    0  0.00000000000E+00  0.00000000000E+00  0.30533793690E+04  0.30533793690E+04  0.25500000000E-02 0. -1.
         -2   -1    0    0    0  501 -0.00000000000E+00 -0.00000000000E+00 -0.33217631578E+03  0.33217631579E+03  0.25500000000E-02 0.  1.
    8880023    1    1    2    0    0 -0.36025120711E+03 -0.63165173104E+03  0.62927472352E+03  0.11655735607E+04  0.65864270000E+03 0.  0.
    8880022    1    1    2    0    0  0.36025120711E+03  0.63165173104E+03  0.20919283297E+04  0.22199821241E+04  0.15294330000E+03 0.  0.
<mgrwt>
<rscale>  0 0.91526267E+03</rscale>
<asrwt>0</asrwt>
<pdfrwt beam="1">  1        2 0.46975067E+00 0.98110909E+03</pdfrwt>
<pdfrwt beam="2">  1       -2 0.51104048E-01 0.98110909E+03</pdfrwt>
<totfact> 0.59897014E+00</totfact>
</mgrwt>
</event>
<event>
 4    1  0.3057048E-007  0.6781506E+03  0.7818608E-02  0.1010390E+00
         -2   -1    0    0    0  501 -0.00000000000E+00  0.00000000000E+00  0.16429419124E+03  0.16429419126E+03  0.25500000000E-02 0.  1.
          2   -1    0    0  501    0  0.00000000000E+00 -0.00000000000E+00 -0.13402168932E+04  0.13402168932E+04  0.25500000000E-02 0. -1.
    8880023    1    1    2    0    0  0.54695867671E+02  0.15194188196E+03 -0.67690072814E+03  0.95816636106E+03  0.65864270000E+03 0. -1.
    8880022    1    1    2    0    0 -0.54695867671E+02 -0.15194188196E+03 -0.49902197377E+03  0.54634472337E+03  0.15294330000E+03 0.  0.
<mgrwt>
<rscale>  0 0.51320032E+03</rscale>
<asrwt>0</asrwt>
<pdfrwt beam="1">  1        2 0.20618721E+00 0.67815056E+03</pdfrwt>
<pdfrwt beam="2">  1       -2 0.25276030E-01 0.67815056E+03</pdfrwt>
<totfact> 0.22395041E+02</totfact>
</mgrwt>
</event>
<event>
 4    1  0.3057048E-007  0.6791539E+03  0.7818608E-02  0.1009806E+00
          2   -1    0    0  501    0  0.00000000000E+00  0.00000000000E+00  0.87847371283E+03  0.87847371283E+03  0.25500000000E-02 0. -1.
         -2   -1    0    0    0  501 -0.00000000000E+00 -0.00000000000E+00 -0.28914573469E+03  0.28914573470E+03  0.25500000000E-02 0.  1.
    8880023    1    1    2    0    0 -0.80375090630E+02 -0.14484365192E+03  0.18372418482E+03  0.70356564800E+03  0.65864270000E+03 0.  1.
    8880022    1    1    2    0    0  0.80375090630E+02  0.14484365192E+03  0.40560379331E+03  0.46405379953E+03  0.15294330000E+03 0.  0.
<mgrwt>
<rscale>  0 0.51551673E+03</rscale>
<asrwt>0</asrwt>
<pdfrwt beam="1">  1        2 0.13514980E+00 0.67915392E+03</pdfrwt>
<pdfrwt beam="2">  1       -2 0.44483960E-01 0.67915392E+03</pdfrwt>
<totfact> 0.14765668E+02</totfact>
</mgrwt>
</event>
<event>
 4    1  0.3057048E-007  0.8347419E+03  0.7818608E-02  0.9640176E-01
          2   -1    0    0  501    0  0.00000000000E+00  0.00000000000E+00  0.49681248182E+03  0.49681248183E+03  0.25500000000E-02 0. -1.
         -2   -1    0    0    0  501 -0.00000000000E+00 -0.00000000000E+00 -0.14262966407E+04  0.14262966407E+04  0.25500000000E-02 0.  1.
    8880023    1    1    2    0    0 -0.43605761660E+03  0.26988437531E+03 -0.10820821178E+04  0.13666366514E+04  0.65864270000E+03 0.  0.
    8880022    1    1    2    0    0  0.43605761660E+03 -0.26988437531E+03  0.15259795892E+03  0.55647247112E+03  0.15294330000E+03 0.  0.
<mgrwt>
<rscale>  0 0.74693212E+03</rscale>
<asrwt>0</asrwt>
<pdfrwt beam="1">  1        2 0.76432690E-01 0.83474189E+03</pdfrwt>
<pdfrwt beam="2">  1       -2 0.21943025E+00 0.83474189E+03</pdfrwt>
<totfact> 0.62633400E+00</totfact>
</mgrwt>
</event>
<event>
 4    1  0.3057048E-007  0.8588352E+03  0.7818608E-02  0.9595639E-01
         -2   -1    0    0    0  501 -0.00000000000E+00  0.00000000000E+00  0.84379323844E+03  0.84379323844E+03  0.25500000000E-02 0.  1.
          2   -1    0    0  501    0  0.00000000000E+00 -0.00000000000E+00 -0.31561363677E+04  0.31561363677E+04  0.25500000000E-02 0. -1.
    8880023    1    1    2    0    0 -0.40270236477E+03  0.37632235446E+03  0.58986455875E+03  0.10418916033E+04  0.65864270000E+03 0.  0.
    8880022    1    1    2    0    0  0.40270236477E+03 -0.37632235446E+03 -0.29022076880E+04  0.29580380028E+04  0.15294330000E+03 0.  0.
<mgrwt>
<rscale>  0 0.77585510E+03</rscale>
<asrwt>0</asrwt>
<pdfrwt beam="1">  1        2 0.48555943E+00 0.85883521E+03</pdfrwt>
<pdfrwt beam="2">  1       -2 0.12981435E+00 0.85883521E+03</pdfrwt>
<totfact> 0.63326320E-01</totfact>
</mgrwt>
</event>
<event>
 4    1  0.3057048E-007  0.1192594E+04  0.7818608E-02  0.9164355E-01
          2   -1    0    0  501    0  0.00000000000E+00  0.00000000000E+00  0.39005524943E+04  0.39005524943E+04  0.25500000000E-02 0. -1.
         -2   -1    0    0    0  501 -0.00000000000E+00 -0.00000000000E+00 -0.40451761265E+03  0.40451761266E+03  0.25500000000E-02 0.  1.
    8880023    1    1    2    0    0 -0.99393022585E+03  0.23948021037E+02  0.29004435997E+04  0.31360570917E+04  0.65864270000E+03 0. -1.
    8880022    1    1    2    0    0  0.99393022585E+03 -0.23948021037E+02  0.59559128201E+03  0.11690130152E+04  0.15294330000E+03 0.  0.
<mgrwt>
<rscale>  0 0.11429039E+04</rscale>
<asrwt>0</asrwt>
<pdfrwt beam="1">  1        2 0.60008498E+00 0.11925942E+04</pdfrwt>
<pdfrwt beam="2">  1       -2 0.62233480E-01 0.11925942E+04</pdfrwt>
<totfact> 0.10014574E+00</totfact>
</mgrwt>
</event>
<event>
 4    1  0.3057048E-007  0.6598823E+03  0.7818608E-02  0.1024277E+00
          2   -1    0    0  501    0  0.00000000000E+00  0.00000000000E+00  0.39865668462E+03  0.39865668463E+03  0.25500000000E-02 0. -1.
         -2   -1    0    0    0  501 -0.00000000000E+00 -0.00000000000E+00 -0.56247764197E+03  0.56247764198E+03  0.25500000000E-02 0.  1.
    8880023    1    1    2    0    0  0.36008882266E+02  0.18378392204E+02 -0.32475560090E+03  0.73546639045E+03  0.65864270000E+03 0.  1.
    8880022    1    1    2    0    0 -0.36008882266E+02 -0.18378392204E+02  0.16093464355E+03  0.22566793616E+03  0.15294330000E+03 0.  0.
<mgrwt>
<rscale>  0 0.46174149E+03</rscale>
<asrwt>0</asrwt>
<pdfrwt beam="1">  1        2 0.61331798E-01 0.65988227E+03</pdfrwt>
<pdfrwt beam="2">  1       -2 0.86535022E-01 0.65988227E+03</pdfrwt>
<totfact> 0.93748159E+01</totfact>
</mgrwt>
</event>
<event>
 4    1  0.3057048E-007  0.7855715E+03  0.7818608E-02  0.9742908E-01
          2   -1    0    0  501    0  0.00000000000E+00  0.00000000000E+00  0.57676825673E+03  0.57676825673E+03  0.25500000000E-02 0. -1.
         -2   -1    0    0    0  501 -0.00000000000E+00 -0.00000000000E+00 -0.13118988009E+04  0.13118988009E+04  0.25500000000E-02 0.  1.
    8880023    1    1    2    0    0 -0.34910657055E+03  0.24786485812E+03 -0.10675629536E+04  0.13254483210E+04  0.65864270000E+03 0.  1.
    8880022    1    1    2    0    0  0.34910657055E+03 -0.24786485812E+03  0.33243240939E+03  0.56321873665E+03  0.15294330000E+03 0.  0.
<mgrwt>
<rscale>  0 0.68518510E+03</rscale>
<asrwt>0</asrwt>
<pdfrwt beam="1">  1        2 0.88733578E-01 0.78557151E+03</pdfrwt>
<pdfrwt beam="2">  1       -2 0.20183058E+00 0.78557151E+03</pdfrwt>
<totfact> 0.68377355E+00</totfact>
</mgrwt>
</event>
<event>
 4    1  0.3057048E-007  0.9504511E+03  0.7818608E-02  0.9449465E-01
          2   -1    0    0  501    0  0.00000000000E+00  0.00000000000E+00  0.27762710767E+04  0.27762710767E+04  0.25500000000E-02 0. -1.
         -2   -1    0    0    0  501 -0.00000000000E+00 -0.00000000000E+00 -0.35791083403E+03  0.35791083404E+03  0.25500000000E-02 0.  1.
    8880023    1    1    2    0    0  0.68076753964E+03 -0.78119261555E+02  0.46425707432E+03  0.10577768665E+04  0.65864270000E+03 0.  1.
    8880022    1    1    2    0    0 -0.68076753964E+03  0.78119261555E+02  0.19541031683E+04  0.20764050442E+04  0.15294330000E+03 0.  0.
<mgrwt>
<rscale>  0 0.88114310E+03</rscale>
<asrwt>0</asrwt>
<pdfrwt beam="1">  1        2 0.42711862E+00 0.95045109E+03</pdfrwt>
<pdfrwt beam="2">  1       -2 0.55063207E-01 0.95045109E+03</pdfrwt>
<totfact> 0.75952404E+00</totfact>
</mgrwt>
</event>
<event>
 4    1  0.3057048E-007  0.6769584E+03  0.7818608E-02  0.1011099E+00
          2   -1    0    0  501    0  0.00000000000E+00  0.00000000000E+00  0.10850643956E+04  0.10850643956E+04  0.25500000000E-02 0. -1.
         -2   -1    0    0    0  501 -0.00000000000E+00 -0.00000000000E+00 -0.35716455214E+03  0.35716455215E+03  0.25500000000E-02 0.  1.
    8880023    1    1    2    0    0 -0.61915605417E+02  0.14362772411E+03 -0.54157377596E+01  0.67698006012E+03  0.65864270000E+03 0.  1.
    8880022    1    1    2    0    0  0.61915605417E+02 -0.14362772411E+03  0.73331558120E+03  0.76524888760E+03  0.15294330000E+03 0.  0.
<mgrwt>
<rscale>  0 0.51040086E+03</rscale>
<asrwt>0</asrwt>
<pdfrwt beam="1">  1        2 0.16693298E+00 0.67695840E+03</pdfrwt>
<pdfrwt beam="2">  1       -2 0.54948393E-01 0.67695840E+03</pdfrwt>
<totfact> 0.70853034E+01</totfact>
</mgrwt>
</event>
<event>
 4    1  0.3057048E-007  0.1006747E+04  0.7818608E-02  0.9372783E-01
          2   -1    0    0  501    0  0.00000000000E+00  0.00000000000E+00  0.13306687636E+04  0.13306687636E+04  0.25500000000E-02 0. -1.
         -2   -1    0    0    0  501 -0.00000000000E+00 -0.00000000000E+00 -0.60971113320E+03  0.60971113320E+03  0.25500000000E-02 0.  1.
    8880023    1    1    2    0    0 -0.27359218464E+03 -0.71054720641E+03  0.54217795399E+03  0.11434584190E+04  0.65864270000E+03 0.  1.
    8880022    1    1    2    0    0  0.27359218464E+03  0.71054720641E+03  0.17877967644E+03  0.79692147778E+03  0.15294330000E+03 0. -1.
<mgrwt>
<rscale>  0 0.94349801E+03</rscale>
<asrwt>0</asrwt>
<pdfrwt beam="1">  1        2 0.20471827E+00 0.10067473E+04</pdfrwt>
<pdfrwt beam="2">  1       -2 0.93801715E-01 0.10067473E+04</pdfrwt>
<totfact> 0.15147396E+01</totfact>
</mgrwt>
</event>
<event>
 4    1  0.3057048E-007  0.7658673E+03  0.7818608E-02  0.9790148E-01
         -2   -1    0    0    0  501 -0.00000000000E+00  0.00000000000E+00  0.16421019308E+03  0.16421019310E+03  0.25500000000E-02 0.  1.
          2   -1    0    0  501    0  0.00000000000E+00 -0.00000000000E+00 -0.25086912807E+04  0.25086912807E+04  0.25500000000E-02 0. -1.
    8880023    1    1    2    0    0  0.10625987273E+03 -0.37610025448E+03 -0.19576801382E+04  0.21021570569E+04  0.65864270000E+03 0.  0.
    8880022    1    1    2    0    0 -0.10625987273E+03  0.37610025448E+03 -0.38680094940E+03  0.57074441691E+03  0.15294330000E+03 0.  0.
<mgrwt>
<rscale>  0 0.65893962E+03</rscale>
<asrwt>0</asrwt>
<pdfrwt beam="1">  1        2 0.38595248E+00 0.76586733E+03</pdfrwt>
<pdfrwt beam="2">  1       -2 0.25263108E-01 0.76586733E+03</pdfrwt>
<totfact> 0.50271889E+01</totfact>
</mgrwt>
</event>
<event>
 4    1  0.3057048E-007  0.8360006E+03  0.7818608E-02  0.9637768E-01
         -2   -1    0    0    0  501 -0.00000000000E+00  0.00000000000E+00  0.98043039905E+03  0.98043039905E+03  0.25500000000E-02 0.  1.
          2   -1    0    0  501    0  0.00000000000E+00 -0.00000000000E+00 -0.11208962406E+04  0.11208962406E+04  0.25500000000E-02 0. -1.
    8880023    1    1    2    0    0 -0.51063373313E+03 -0.65878369149E+02  0.70909303404E+03  0.10962252990E+04  0.65864270000E+03 0.  0.
    8880022    1    1    2    0    0  0.51063373313E+03  0.65878369149E+02 -0.84955887564E+03  0.10051013407E+04  0.15294330000E+03 0.  0.
<mgrwt>
<rscale>  0 0.74846087E+03</rscale>
<asrwt>0</asrwt>
<pdfrwt beam="1">  1        2 0.17244558E+00 0.83600058E+03</pdfrwt>
<pdfrwt beam="2">  1       -2 0.15083545E+00 0.83600058E+03</pdfrwt>
<totfact> 0.63011417E+00</totfact>
</mgrwt>
</event>
<event>
 4    1  0.3057048E-007  0.7408715E+03  0.7818608E-02  0.9857416E-01
         -2   -1    0    0    0  501 -0.00000000000E+00  0.00000000000E+00  0.16665809276E+04  0.16665809276E+04  0.25500000000E-02 0.  1.
          2   -1    0    0  501    0  0.00000000000E+00 -0.00000000000E+00 -0.43433978404E+03  0.43433978405E+03  0.25500000000E-02 0. -1.
    8880023    1    1    2    0    0  0.92730472734E+02 -0.32631487948E+03  0.14791624215E+04  0.16543312899E+04  0.65864270000E+03 0.  1.
    8880022    1    1    2    0    0 -0.92730472734E+02  0.32631487948E+03 -0.24692127794E+03  0.44658942179E+03  0.15294330000E+03 0.  0.
<mgrwt>
<rscale>  0 0.62370238E+03</rscale>
<asrwt>0</asrwt>
<pdfrwt beam="1">  1        2 0.66821506E-01 0.74087148E+03</pdfrwt>
<pdfrwt beam="2">  1       -2 0.25639706E+00 0.74087148E+03</pdfrwt>
<totfact> 0.43846638E+00</totfact>
</mgrwt>
</event>
<event>
 4    1  0.3057048E-007  0.8964744E+03  0.7818608E-02  0.9531715E-01
         -2   -1    0    0    0  501 -0.00000000000E+00  0.00000000000E+00  0.61294861142E+03  0.61294861142E+03  0.25500000000E-02 0.  1.
          2   -1    0    0  501    0  0.00000000000E+00 -0.00000000000E+00 -0.12424821794E+04  0.12424821794E+04  0.25500000000E-02 0. -1.
    8880023    1    1    2    0    0  0.60810401392E+03  0.81017681447E+01  0.89999089006E+02  0.90098067275E+03  0.65864270000E+03 0.  1.
    8880022    1    1    2    0    0 -0.60810401392E+03 -0.81017681447E+01 -0.71953265698E+03  0.95445011806E+03  0.15294330000E+03 0.  0.
<mgrwt>
<rscale>  0 0.81985434E+03</rscale>
<asrwt>0</asrwt>
<pdfrwt beam="1">  1        2 0.19115110E+00 0.89647439E+03</pdfrwt>
<pdfrwt beam="2">  1       -2 0.94299787E-01 0.89647439E+03</pdfrwt>
<totfact> 0.17015672E+01</totfact>
</mgrwt>
</event>
<event>
 4    1  0.3402083E-007  0.6991807E+03  0.7818608E-02  0.1000062E+00
         -2   -1    0    0    0  501 -0.00000000000E+00  0.00000000000E+00  0.11784113943E+04  0.11784113943E+04  0.25500000000E-02 0.  1.
          2   -1    0    0  501    0  0.00000000000E+00 -0.00000000000E+00 -0.13482979029E+04  0.13482979029E+04  0.25500000000E-02 0. -1.
    8880023    1    1    2    0    0  0.19015884356E+03  0.13741562623E+03  0.10575210168E+04  0.12677556339E+04  0.65864270000E+03 0.  1.
    8880022    1    1    2    0    0 -0.19015884356E+03 -0.13741562623E+03 -0.12274075254E+04  0.12589536634E+04  0.15294330000E+03 0.  0.
<mgrwt>
<rscale>  0 0.55623188E+03</rscale>
<asrwt>0</asrwt>
<pdfrwt beam="1">  1        2 0.20743045E+00 0.69918070E+03</pdfrwt>
<pdfrwt beam="2">  1       -2 0.18129406E+00 0.69918070E+03</pdfrwt>
<totfact> 0.28509524E+00</totfact>
</mgrwt>
</event>
<event>
 4    1  0.3057048E-007  0.7284338E+03  0.7818608E-02  0.9895018E-01
          2   -1    0    0  501    0  0.00000000000E+00  0.00000000000E+00  0.98262610342E+03  0.98262610342E+03  0.25500000000E-02 0. -1.
         -2   -1    0    0    0  501 -0.00000000000E+00 -0.00000000000E+00 -0.49331611926E+03  0.49331611926E+03  0.25500000000E-02 0.  1.
    8880023    1    1    2    0    0 -0.27819869105E+03  0.13932383186E+03 -0.15457348719E+03  0.74465348387E+03  0.65864270000E+03 0.  0.
    8880022    1    1    2    0    0  0.27819869105E+03 -0.13932383186E+03  0.64388347136E+03  0.73128873882E+03  0.15294330000E+03 0.  0.
<mgrwt>
<rscale>  0 0.60503349E+03</rscale>
<asrwt>0</asrwt>
<pdfrwt beam="1">  1        2 0.15117324E+00 0.72843383E+03</pdfrwt>
<pdfrwt beam="2">  1       -2 0.75894789E-01 0.72843383E+03</pdfrwt>
<totfact> 0.40908354E+01</totfact>
</mgrwt>
</event>
<event>
 4    1  0.3057048E-007  0.7474901E+03  0.7818608E-02  0.9838643E-01
         -2   -1    0    0    0  501 -0.00000000000E+00  0.00000000000E+00  0.83088007451E+03  0.83088007452E+03  0.25500000000E-02 0.  1.
          2   -1    0    0  501    0  0.00000000000E+00 -0.00000000000E+00 -0.88405688421E+03  0.88405688421E+03  0.25500000000E-02 0. -1.
    8880023    1    1    2    0    0  0.10278763502E+03 -0.33818036780E+03  0.59876503841E+03  0.95773745701E+03  0.65864270000E+03 0.  0.
    8880022    1    1    2    0    0 -0.10278763502E+03  0.33818036780E+03 -0.65194184810E+03  0.75719950172E+03  0.15294330000E+03 0.  0.
<mgrwt>
<rscale>  0 0.63329363E+03</rscale>
<asrwt>0</asrwt>
<pdfrwt beam="1">  1        2 0.13600875E+00 0.74749011E+03</pdfrwt>
<pdfrwt beam="2">  1       -2 0.12782770E+00 0.74749011E+03</pdfrwt>
<totfact> 0.13845001E+01</totfact>
</mgrwt>
</event>
<event>
 4    1  0.3057048E-007  0.7554907E+03  0.7818608E-02  0.9816924E-01
         -2   -1    0    0    0  501 -0.00000000000E+00  0.00000000000E+00  0.76449324081E+03  0.76449324082E+03  0.25500000000E-02 0.  1.
          2   -1    0    0  501    0  0.00000000000E+00 -0.00000000000E+00 -0.16615412792E+04  0.16615412792E+04  0.25500000000E-02 0. -1.
    8880023    1    1    2    0    0  0.35237377098E+03 -0.11308747026E+03  0.54362309008E+03  0.93074825852E+03  0.65864270000E+03 0.  1.
    8880022    1    1    2    0    0 -0.35237377098E+03  0.11308747026E+03 -0.14406711285E+04  0.14952862615E+04  0.15294330000E+03 0.  0.
<mgrwt>
<rscale>  0 0.64462137E+03</rscale>
<asrwt>0</asrwt>
<pdfrwt beam="1">  1        2 0.25562173E+00 0.75549074E+03</pdfrwt>
<pdfrwt beam="2">  1       -2 0.11761434E+00 0.75549074E+03</pdfrwt>
<totfact> 0.59077465E+00</totfact>
</mgrwt>
</event>
<event>
 4    1  0.3057048E-007  0.9778471E+03  0.7818608E-02  0.9411132E-01
         -2   -1    0    0    0  501 -0.00000000000E+00  0.00000000000E+00  0.61195507223E+03  0.61195507223E+03  0.25500000000E-02 0.  1.
          2   -1    0    0  501    0  0.00000000000E+00 -0.00000000000E+00 -0.19582722933E+04  0.19582722933E+04  0.25500000000E-02 0. -1.
    8880023    1    1    2    0    0 -0.62860892607E+03  0.35668687522E+03  0.62099915947E+02  0.97981698021E+03  0.65864270000E+03 0.  1.
    8880022    1    1    2    0    0  0.62860892607E+03 -0.35668687522E+03 -0.14084171370E+04  0.15904103853E+04  0.15294330000E+03 0. -1.
<mgrwt>
<rscale>  0 0.91165193E+03</rscale>
<asrwt>0</asrwt>
<pdfrwt beam="1">  1        2 0.30127266E+00 0.97784708E+03</pdfrwt>
<pdfrwt beam="2">  1       -2 0.94146935E-01 0.97784708E+03</pdfrwt>
<totfact> 0.67292827E+00</totfact>
</mgrwt>
</event>
<event>
 4    1  0.3057048E-007  0.1101347E+04  0.7818608E-02  0.9259558E-01
          2   -1    0    0  501    0  0.00000000000E+00  0.00000000000E+00  0.32786096041E+04  0.32786096041E+04  0.25500000000E-02 0. -1.
         -2   -1    0    0    0  501 -0.00000000000E+00 -0.00000000000E+00 -0.33656042217E+03  0.33656042217E+03  0.25500000000E-02 0.  1.
    8880023    1    1    2    0    0  0.64335532486E+03  0.60435884104E+03  0.10495937523E+04  0.15213852023E+04  0.65864270000E+03 0. -1.
    8880022    1    1    2    0    0 -0.64335532486E+03 -0.60435884104E+03  0.18924554296E+04  0.20937848239E+04  0.15294330000E+03 0.  0.
<mgrwt>
<rscale>  0 0.10459286E+04</rscale>
<asrwt>0</asrwt>
<pdfrwt beam="1">  1        2 0.50440148E+00 0.11013473E+04</pdfrwt>
<pdfrwt beam="2">  1       -2 0.51778526E-01 0.11013473E+04</pdfrwt>
<totfact> 0.41183548E+00</totfact>
</mgrwt>
</event>
<event>
 4    1  0.3057048E-007  0.1436680E+04  0.7818608E-02  0.8955693E-01
          2   -1    0    0  501    0  0.00000000000E+00  0.00000000000E+00  0.21280733057E+04  0.21280733057E+04  0.25500000000E-02 0. -1.
         -2   -1    0    0    0  501 -0.00000000000E+00 -0.00000000000E+00 -0.87404769789E+03  0.87404769789E+03  0.25500000000E-02 0.  1.
    8880023    1    1    2    0    0  0.25320116812E+03  0.12514504714E+04  0.57045830875E+03  0.15457917073E+04  0.65864270000E+03 0.  1.
    8880022    1    1    2    0    0 -0.25320116812E+03 -0.12514504714E+04  0.68356729906E+03  0.14563292963E+04  0.15294330000E+03 0. -1.
<mgrwt>
<rscale>  0 0.13974132E+04</rscale>
<asrwt>0</asrwt>
<pdfrwt beam="1">  1        2 0.32739589E+00 0.14366800E+04</pdfrwt>
<pdfrwt beam="2">  1       -2 0.13446888E+00 0.14366800E+04</pdfrwt>
<totfact> 0.21505651E+00</totfact>
</mgrwt>
</event>
<event>
 4    1  0.3057048E-007  0.9668859E+03  0.7818608E-02  0.9426224E-01
          2   -1    0    0  501    0  0.00000000000E+00  0.00000000000E+00  0.16790759307E+04  0.16790759307E+04  0.25500000000E-02 0. -1.
         -2   -1    0    0    0  501 -0.00000000000E+00 -0.00000000000E+00 -0.53851747675E+03  0.53851747676E+03  0.25500000000E-02 0.  1.
    8880023    1    1    2    0    0  0.69062439744E+03  0.15522922945E+03  0.13183642520E+03  0.97583257852E+03  0.65864270000E+03 0.  1.
    8880022    1    1    2    0    0 -0.69062439744E+03 -0.15522922945E+03  0.10087220288E+04  0.12417608290E+04  0.15294330000E+03 0.  0.
<mgrwt>
<rscale>  0 0.89948602E+03</rscale>
<asrwt>0</asrwt>
<pdfrwt beam="1">  1        2 0.25831937E+00 0.96688592E+03</pdfrwt>
<pdfrwt beam="2">  1       -2 0.82848844E-01 0.96688592E+03</pdfrwt>
<totfact> 0.12888199E+01</totfact>
</mgrwt>
</event>
<event>
 4    1  0.3057048E-007  0.7881591E+03  0.7818608E-02  0.9737009E-01
          2   -1    0    0  501    0  0.00000000000E+00  0.00000000000E+00  0.41057530043E+03  0.41057530044E+03  0.25500000000E-02 0. -1.
         -2   -1    0    0    0  501 -0.00000000000E+00 -0.00000000000E+00 -0.24482564587E+04  0.24482564587E+04  0.25500000000E-02 0.  1.
    8880023    1    1    2    0    0 -0.40668766476E+01 -0.43286025533E+03 -0.22269017322E+04  0.23622629132E+04  0.65864270000E+03 0.  0.
    8880022    1    1    2    0    0  0.40668766476E+01  0.43286025533E+03  0.18922057392E+03  0.49656884592E+03  0.15294330000E+03 0.  0.
<mgrwt>
<rscale>  0 0.68855417E+03</rscale>
<asrwt>0</asrwt>
<pdfrwt beam="1">  1        2 0.63165433E-01 0.78815909E+03</pdfrwt>
<pdfrwt beam="2">  1       -2 0.37665483E+00 0.78815909E+03</pdfrwt>
<totfact> 0.85463812E-01</totfact>
</mgrwt>
</event>
<event>
 4    1  0.3057048E-007  0.8285920E+03  0.7818608E-02  0.9652078E-01
         -2   -1    0    0    0  501 -0.00000000000E+00  0.00000000000E+00  0.14732070355E+04  0.14732070355E+04  0.25500000000E-02 0.  1.
          2   -1    0    0  501    0  0.00000000000E+00 -0.00000000000E+00 -0.97739152020E+03  0.97739152020E+03  0.25500000000E-02 0. -1.
    8880023    1    1    2    0    0  0.30505463344E+03  0.39962013099E+03  0.12691074322E+04  0.15156511668E+04  0.65864270000E+03 0.  0.
    8880022    1    1    2    0    0 -0.30505463344E+03 -0.39962013099E+03 -0.77329191688E+03  0.93494738900E+03  0.15294330000E+03 0.  0.
<mgrwt>
<rscale>  0 0.73943152E+03</rscale>
<asrwt>0</asrwt>
<pdfrwt beam="1">  1        2 0.15036793E+00 0.82859205E+03</pdfrwt>
<pdfrwt beam="2">  1       -2 0.22664724E+00 0.82859205E+03</pdfrwt>
<totfact> 0.23766266E+00</totfact>
</mgrwt>
</event>
<event>
 4    1  0.3057048E-007  0.6836777E+03  0.7818608E-02  0.1007315E+00
         -2   -1    0    0    0  501 -0.00000000000E+00  0.00000000000E+00  0.36382006311E+03  0.36382006312E+03  0.25500000000E-02 0.  1.
          2   -1    0    0  501    0  0.00000000000E+00 -0.00000000000E+00 -0.13047139128E+04  0.13047139128E+04  0.25500000000E-02 0. -1.
    8880023    1    1    2    0    0  0.58015510837E+02 -0.17389418316E+03  0.14430869178E+02  0.68382998083E+03  0.65864270000E+03 0.  1.
    8880022    1    1    2    0    0 -0.58015510837E+02  0.17389418316E+03 -0.95532471885E+03  0.98470399506E+03  0.15294330000E+03 0.  0.
<mgrwt>
<rscale>  0 0.52555687E+03</rscale>
<asrwt>0</asrwt>
<pdfrwt beam="1">  1        2 0.20072522E+00 0.68367770E+03</pdfrwt>
<pdfrwt beam="2">  1       -2 0.55972318E-01 0.68367770E+03</pdfrwt>
<totfact> 0.50517202E+01</totfact>
</mgrwt>
</event>
<event>
 4    1  0.3057048E-007  0.9037852E+03  0.7818608E-02  0.9519982E-01
         -2   -1    0    0    0  501 -0.00000000000E+00  0.00000000000E+00  0.32919814601E+03  0.32919814602E+03  0.25500000000E-02 0.  1.
          2   -1    0    0  501    0  0.00000000000E+00 -0.00000000000E+00 -0.24391034135E+04  0.24391034135E+04  0.25500000000E-02 0. -1.
    8880023    1    1    2    0    0  0.61338841948E+03 -0.82293116733E+02 -0.49132811086E+03  0.10287035671E+04  0.65864270000E+03 0.  0.
    8880022    1    1    2    0    0 -0.61338841948E+03  0.82293116733E+02 -0.16185771566E+04  0.17395979924E+04  0.15294330000E+03 0.  0.
<mgrwt>
<rscale>  0 0.82826510E+03</rscale>
<asrwt>0</asrwt>
<pdfrwt beam="1">  1        2 0.37524667E+00 0.90378522E+03</pdfrwt>
<pdfrwt beam="2">  1       -2 0.50645870E-01 0.90378522E+03</pdfrwt>
<totfact> 0.14235273E+01</totfact>
</mgrwt>
</event>
<event>
 4    1  0.3057048E-007  0.8052619E+03  0.7818608E-02  0.9699532E-01
          2   -1    0    0  501    0  0.00000000000E+00  0.00000000000E+00  0.77047957170E+03  0.77047957171E+03  0.25500000000E-02 0. -1.
         -2   -1    0    0    0  501 -0.00000000000E+00 -0.00000000000E+00 -0.72212885556E+03  0.72212885556E+03  0.25500000000E-02 0.  1.
    8880023    1    1    2    0    0 -0.17465985703E+03  0.42910426366E+03 -0.33497114098E+03  0.87215388912E+03  0.65864270000E+03 0.  0.
    8880022    1    1    2    0    0  0.17465985703E+03 -0.42910426366E+03  0.38332185712E+03  0.62045453815E+03  0.15294330000E+03 0.  0.
<mgrwt>
<rscale>  0 0.71044656E+03</rscale>
<asrwt>0</asrwt>
<pdfrwt beam="1">  1        2 0.11853532E+00 0.80526191E+03</pdfrwt>
<pdfrwt beam="2">  1       -2 0.11109675E+00 0.80526191E+03</pdfrwt>
<totfact> 0.23433458E+01</totfact>
</mgrwt>
</event>
<event>
 4    1  0.3057048E-007  0.1083693E+04  0.7818608E-02  0.9279432E-01
          2   -1    0    0  501    0  0.00000000000E+00  0.00000000000E+00  0.34354234591E+04  0.34354234591E+04  0.25500000000E-02 0. -1.
         -2   -1    0    0    0  501 -0.00000000000E+00 -0.00000000000E+00 -0.56416238119E+03  0.56416238120E+03  0.25500000000E-02 0.  1.
    8880023    1    1    2    0    0  0.70182982183E+03 -0.49801197219E+03  0.93690549576E+02  0.10877357899E+04  0.65864270000E+03 0.  0.
    8880022    1    1    2    0    0 -0.70182982183E+03  0.49801197219E+03  0.27775705283E+04  0.29118500504E+04  0.15294330000E+03 0.  0.
<mgrwt>
<rscale>  0 0.10269860E+04</rscale>
<asrwt>0</asrwt>
<pdfrwt beam="1">  1        2 0.52852668E+00 0.10836933E+04</pdfrwt>
<pdfrwt beam="2">  1       -2 0.86794213E-01 0.10836933E+04</pdfrwt>
<totfact> 0.10547228E+00</totfact>
</mgrwt>
</event>
<event>
 4    1  0.3057048E-007  0.7861574E+03  0.7818608E-02  0.9741567E-01
         -2   -1    0    0    0  501 -0.00000000000E+00  0.00000000000E+00  0.13395948588E+04  0.13395948588E+04  0.25500000000E-02 0.  1.
          2   -1    0    0  501    0  0.00000000000E+00 -0.00000000000E+00 -0.47670844236E+03  0.47670844237E+03  0.25500000000E-02 0. -1.
    8880023    1    1    2    0    0 -0.60912948805E+02  0.42487976870E+03  0.10601031242E+04  0.13197962136E+04  0.65864270000E+03 0.  0.
    8880022    1    1    2    0    0  0.60912948805E+02 -0.42487976870E+03 -0.19721670777E+03  0.49650708758E+03  0.15294330000E+03 0.  0.
<mgrwt>
<rscale>  0 0.68594933E+03</rscale>
<asrwt>0</asrwt>
<pdfrwt beam="1">  1        2 0.73339761E-01 0.78615737E+03</pdfrwt>
<pdfrwt beam="2">  1       -2 0.20609151E+00 0.78615737E+03</pdfrwt>
<totfact> 0.80267988E+00</totfact>
</mgrwt>
</event>
<event>
 4    1  0.3057048E-007  0.6967109E+03  0.7818608E-02  0.1001113E+00
          2   -1    0    0  501    0  0.00000000000E+00  0.00000000000E+00  0.17799329022E+04  0.17799329022E+04  0.25500000000E-02 0. -1.
         -2   -1    0    0    0  501 -0.00000000000E+00 -0.00000000000E+00 -0.29671303552E+03  0.29671303553E+03  0.25500000000E-02 0.  1.
    8880023    1    1    2    0    0 -0.17809400156E+03  0.14099085146E+03  0.14621788697E+03  0.71188887498E+03  0.65864270000E+03 0.  1.
    8880022    1    1    2    0    0  0.17809400156E+03 -0.14099085146E+03  0.13370019798E+04  0.13647570628E+04  0.15294330000E+03 0.  0.
<mgrwt>
<rscale>  0 0.55164934E+03</rscale>
<asrwt>0</asrwt>
<pdfrwt beam="1">  1        2 0.27383583E+00 0.69671092E+03</pdfrwt>
<pdfrwt beam="2">  1       -2 0.45648159E-01 0.69671092E+03</pdfrwt>
<totfact> 0.41644164E+01</totfact>
</mgrwt>
</event>
<event>
 4    1  0.3057048E-007  0.7150130E+03  0.7818608E-02  0.9939836E-01
         -2   -1    0    0    0  501 -0.00000000000E+00  0.00000000000E+00  0.21621952279E+04  0.21621952279E+04  0.25500000000E-02 0.  1.
          2   -1    0    0  501    0  0.00000000000E+00 -0.00000000000E+00 -0.25163664965E+03  0.25163664966E+03  0.25500000000E-02 0. -1.
    8880023    1    1    2    0    0  0.20615271358E+03  0.18690773138E+03  0.19655624359E+04  0.20915734118E+04  0.65864270000E+03 0.  1.
    8880022    1    1    2    0    0 -0.20615271358E+03 -0.18690773138E+03 -0.55003857650E+02  0.32225846573E+03  0.15294330000E+03 0.  0.
<mgrwt>
<rscale>  0 0.58368906E+03</rscale>
<asrwt>0</asrwt>
<pdfrwt beam="1">  1        2 0.38713331E-01 0.71501304E+03</pdfrwt>
<pdfrwt beam="2">  1       -2 0.33264542E+00 0.71501304E+03</pdfrwt>
<totfact> 0.28107016E+00</totfact>
</mgrwt>
</event>
<event>
 4    1  0.3057048E-007  0.1113328E+04  0.7818608E-02  0.9246361E-01
          2   -1    0    0  501    0  0.00000000000E+00  0.00000000000E+00  0.17476179683E+04  0.17476179683E+04  0.25500000000E-02 0. -1.
         -2   -1    0    0    0  501 -0.00000000000E+00 -0.00000000000E+00 -0.10297089147E+04  0.10297089147E+04  0.25500000000E-02 0.  1.
    8880023    1    1    2    0    0 -0.69889139445E+03  0.56323975880E+03 -0.52959494418E+03  0.12328703169E+04  0.65864270000E+03 0.  0.
    8880022    1    1    2    0    0  0.69889139445E+03 -0.56323975880E+03  0.12475039978E+04  0.15444565661E+04  0.15294330000E+03 0.  0.
<mgrwt>
<rscale>  0 0.10587460E+04</rscale>
<asrwt>0</asrwt>
<pdfrwt beam="1">  1        2 0.26886430E+00 0.11133276E+04</pdfrwt>
<pdfrwt beam="2">  1       -2 0.15841676E+00 0.11133276E+04</pdfrwt>
<totfact> 0.23425903E+00</totfact>
</mgrwt>
</event>
<event>
 4    1  0.3057048E-007  0.6749475E+03  0.7818608E-02  0.1012339E+00
         -2   -1    0    0    0  501 -0.00000000000E+00  0.00000000000E+00  0.11697048908E+03  0.11697048910E+03  0.25500000000E-02 0.  1.
          2   -1    0    0  501    0  0.00000000000E+00 -0.00000000000E+00 -0.16833172403E+04  0.16833172403E+04  0.25500000000E-02 0. -1.
    8880023    1    1    2    0    0 -0.58172779783E+01 -0.14734330045E+03 -0.12006612267E+04  0.13773675894E+04  0.65864270000E+03 0.  0.
    8880022    1    1    2    0    0  0.58172779783E+01  0.14734330045E+03 -0.36568552449E+03  0.42292013992E+03  0.15294330000E+03 0. -1.
<mgrwt>
<rscale>  0 0.50555373E+03</rscale>
<asrwt>0</asrwt>
<pdfrwt beam="1">  1        2 0.25897187E+00 0.67494748E+03</pdfrwt>
<pdfrwt beam="2">  1       -2 0.17995461E-01 0.67494748E+03</pdfrwt>
<totfact> 0.26288633E+02</totfact>
</mgrwt>
</event>
<event>
 4    1  0.3057048E-007  0.6642468E+03  0.7818608E-02  0.1020174E+00
         -2   -1    0    0    0  501 -0.00000000000E+00  0.00000000000E+00  0.52107459671E+03  0.52107459672E+03  0.25500000000E-02 0.  1.
          2   -1    0    0  501    0  0.00000000000E+00 -0.00000000000E+00 -0.35630576249E+03  0.35630576249E+03  0.25500000000E-02 0. -1.
    8880023    1    1    2    0    0 -0.69243841392E+02 -0.51174542268E+02  0.20905085295E+03  0.69636628920E+03  0.65864270000E+03 0.  1.
    8880022    1    1    2    0    0  0.69243841392E+02  0.51174542268E+02 -0.44282018722E+02  0.18101407002E+03  0.15294330000E+03 0.  1.
<mgrwt>
<rscale>  0 0.47623913E+03</rscale>
<asrwt>0</asrwt>
<pdfrwt beam="1">  1        2 0.54816271E-01 0.66424675E+03</pdfrwt>
<pdfrwt beam="2">  1       -2 0.80165322E-01 0.66424675E+03</pdfrwt>
<totfact> 0.12634907E+02</totfact>
</mgrwt>
</event>
<event>
 4    1  0.3057048E-007  0.7064516E+03  0.7818608E-02  0.9971421E-01
         -2   -1    0    0    0  501 -0.00000000000E+00  0.00000000000E+00  0.13644805117E+03  0.13644805119E+03  0.25500000000E-02 0.  1.
          2   -1    0    0  501    0  0.00000000000E+00 -0.00000000000E+00 -0.19462908759E+04  0.19462908759E+04  0.25500000000E-02 0. -1.
    8880023    1    1    2    0    0 -0.98613088253E+02  0.23566742768E+03 -0.10393055527E+04  0.12566741486E+04  0.65864270000E+03 0.  1.
    8880022    1    1    2    0    0  0.98613088253E+02 -0.23566742768E+03 -0.77053727197E+03  0.82606477842E+03  0.15294330000E+03 0.  0.
<mgrwt>
<rscale>  0 0.56921315E+03</rscale>
<asrwt>0</asrwt>
<pdfrwt beam="1">  1        2 0.29942935E+00 0.70645161E+03</pdfrwt>
<pdfrwt beam="2">  1       -2 0.20992009E-01 0.70645161E+03</pdfrwt>
<totfact> 0.14418488E+02</totfact>
</mgrwt>
</event>
<event>
 4    1  0.3057048E-007  0.1602042E+04  0.7818608E-02  0.8840751E-01
         -2   -1    0    0    0  501 -0.00000000000E+00  0.00000000000E+00  0.24468101556E+04  0.24468101556E+04  0.25500000000E-02 0.  1.
          2   -1    0    0  501    0  0.00000000000E+00 -0.00000000000E+00 -0.14386788606E+04  0.14386788606E+04  0.25500000000E-02 0. -1.
    8880023    1    1    2    0    0 -0.14580061791E+04  0.83339476249E+02  0.16348656269E+04  0.22889568172E+04  0.65864270000E+03 0.  0.
    8880022    1    1    2    0    0  0.14580061791E+04 -0.83339476249E+02 -0.62673433195E+03  0.15965321990E+04  0.15294330000E+03 0.  0.
<mgrwt>
<rscale>  0 0.15675249E+04</rscale>
<asrwt>0</asrwt>
<pdfrwt beam="1">  1        2 0.22133521E+00 0.16020417E+04</pdfrwt>
<pdfrwt beam="2">  1       -2 0.37643233E+00 0.16020417E+04</pdfrwt>
<totfact> 0.13535264E-01</totfact>
</mgrwt>
</event>
<event>
 4    1  0.3057048E-007  0.8582570E+03  0.7818608E-02  0.9596671E-01
         -2   -1    0    0    0  501 -0.00000000000E+00  0.00000000000E+00  0.55154800168E+03  0.55154800168E+03  0.25500000000E-02 0.  1.
          2   -1    0    0  501    0  0.00000000000E+00 -0.00000000000E+00 -0.15508549553E+04  0.15508549553E+04  0.25500000000E-02 0. -1.
    8880023    1    1    2    0    0 -0.51719679826E+03  0.18788934544E+03  0.99526225523E+02  0.86400845487E+03  0.65864270000E+03 0.  1.
    8880022    1    1    2    0    0  0.51719679826E+03 -0.18788934544E+03 -0.10988331792E+04  0.12383945021E+04  0.15294330000E+03 0.  0.
<mgrwt>
<rscale>  0 0.77516881E+03</rscale>
<asrwt>0</asrwt>
<pdfrwt beam="1">  1        2 0.23859307E+00 0.85825704E+03</pdfrwt>
<pdfrwt beam="2">  1       -2 0.84853539E-01 0.85825704E+03</pdfrwt>
<totfact> 0.14545207E+01</totfact>
</mgrwt>
</event>
<event>
 4    1  0.3057048E-007  0.9590539E+03  0.7818608E-02  0.9437205E-01
          2   -1    0    0  501    0  0.00000000000E+00  0.00000000000E+00  0.28129380540E+04  0.28129380540E+04  0.25500000000E-02 0. -1.
         -2   -1    0    0    0  501 -0.00000000000E+00 -0.00000000000E+00 -0.37301659573E+03  0.37301659574E+03  0.25500000000E-02 0.  1.
    8880023    1    1    2    0    0 -0.20169089521E+03  0.66730419607E+03  0.42618329691E+03  0.10494839285E+04  0.65864270000E+03 0.  0.
    8880022    1    1    2    0    0  0.20169089521E+03 -0.66730419607E+03  0.20137381613E+04  0.21364707213E+04  0.15294330000E+03 0.  0.
<mgrwt>
<rscale>  0 0.89076054E+03</rscale>
<asrwt>0</asrwt>
<pdfrwt beam="1">  1        2 0.43275969E+00 0.95905386E+03</pdfrwt>
<pdfrwt beam="2">  1       -2 0.57387171E-01 0.95905386E+03</pdfrwt>
<totfact> 0.66169460E+00</totfact>
</mgrwt>
</event>
<event>
 4    1  0.3057048E-007  0.6653886E+03  0.7818608E-02  0.1019210E+00
          2   -1    0    0  501    0  0.00000000000E+00  0.00000000000E+00  0.32440824246E+04  0.32440824246E+04  0.25500000000E-02 0. -1.
         -2   -1    0    0    0  501 -0.00000000000E+00 -0.00000000000E+00 -0.57785759634E+02  0.57785759690E+02  0.25500000000E-02 0.  1.
    8880023    1    1    2    0    0  0.63213556973E+02 -0.70255157657E+02  0.21676116443E+04  0.22674395665E+04  0.65864270000E+03 0.  0.
    8880022    1    1    2    0    0 -0.63213556973E+02  0.70255157657E+02  0.10186850207E+04  0.10344286178E+04  0.15294330000E+03 0.  0.
<mgrwt>
<rscale>  0 0.47972916E+03</rscale>
<asrwt>0</asrwt>
<pdfrwt beam="1">  1        2 0.49908959E+00 0.66538857E+03</pdfrwt>
<pdfrwt beam="2">  1       -2 0.88901172E-02 0.66538857E+03</pdfrwt>
<totfact> 0.10857082E+02</totfact>
</mgrwt>
</event>
<event>
 4    1  0.3057048E-007  0.6618424E+03  0.7818608E-02  0.1022343E+00
          2   -1    0    0  501    0  0.00000000000E+00  0.00000000000E+00  0.17959179165E+04  0.17959179165E+04  0.25500000000E-02 0. -1.
         -2   -1    0    0    0  501 -0.00000000000E+00 -0.00000000000E+00 -0.52949353843E+03  0.52949353844E+03  0.25500000000E-02 0.  1.
    8880023    1    1    2    0    0 -0.10427159200E+02  0.64159661762E+02 -0.31661308143E+03  0.73367515798E+03  0.65864270000E+03 0.  1.
    8880022    1    1    2    0    0  0.10427159200E+02 -0.64159661762E+02  0.15830374595E+04  0.15917362969E+04  0.15294330000E+03 0.  0.
<mgrwt>
<rscale>  0 0.46850335E+03</rscale>
<asrwt>0</asrwt>
<pdfrwt beam="1">  1        2 0.27629506E+00 0.66184242E+03</pdfrwt>
<pdfrwt beam="2">  1       -2 0.81460546E-01 0.66184242E+03</pdfrwt>
<totfact> 0.12021165E+01</totfact>
</mgrwt>
</event>
<event>
 4    1  0.3057048E-007  0.6709283E+03  0.7818608E-02  0.1015006E+00
          2   -1    0    0  501    0  0.00000000000E+00  0.00000000000E+00  0.22828592171E+04  0.22828592171E+04  0.25500000000E-02 0. -1.
         -2   -1    0    0    0  501 -0.00000000000E+00 -0.00000000000E+00 -0.87595147086E+02  0.87595147123E+02  0.25500000000E-02 0.  1.
    8880023    1    1    2    0    0 -0.61105437545E+02  0.11225292823E+03  0.14285744710E+04  0.15782806530E+04  0.65864270000E+03 0.  0.
    8880022    1    1    2    0    0  0.61105437545E+02 -0.11225292823E+03  0.76668959909E+03  0.79217371123E+03  0.15294330000E+03 0.  0.
<mgrwt>
<rscale>  0 0.49532675E+03</rscale>
<asrwt>0</asrwt>
<pdfrwt beam="1">  1        2 0.35120912E+00 0.67092831E+03</pdfrwt>
<pdfrwt beam="2">  1       -2 0.13476176E-01 0.67092831E+03</pdfrwt>
<totfact> 0.20223411E+02</totfact>
</mgrwt>
</event>
<event>
 4    1  0.3057048E-007  0.8543636E+03  0.7818608E-02  0.9603669E-01
         -2   -1    0    0    0  501 -0.00000000000E+00  0.00000000000E+00  0.31447806663E+03  0.31447806664E+03  0.25500000000E-02 0.  1.
          2   -1    0    0  501    0  0.00000000000E+00 -0.00000000000E+00 -0.23338242992E+04  0.23338242992E+04  0.25500000000E-02 0. -1.
    8880023    1    1    2    0    0 -0.43160156962E+03  0.33143182792E+03 -0.18816255981E+04  0.20665072149E+04  0.65864270000E+03 0. -1.
    8880022    1    1    2    0    0  0.43160156962E+03 -0.33143182792E+03 -0.13772063439E+03  0.58179515090E+03  0.15294330000E+03 0.  0.
<mgrwt>
<rscale>  0 0.77053803E+03</rscale>
<asrwt>0</asrwt>
<pdfrwt beam="1">  1        2 0.35904988E+00 0.85436361E+03</pdfrwt>
<pdfrwt beam="2">  1       -2 0.48381243E-01 0.85436361E+03</pdfrwt>
<totfact> 0.18024021E+01</totfact>
</mgrwt>
</event>
<event>
 4    1  0.3057048E-007  0.7656826E+03  0.7818608E-02  0.9790612E-01
          2   -1    0    0  501    0  0.00000000000E+00  0.00000000000E+00  0.28099762296E+04  0.28099762296E+04  0.25500000000E-02 0. -1.
         -2   -1    0    0    0  501 -0.00000000000E+00 -0.00000000000E+00 -0.27113426141E+03  0.27113426143E+03  0.25500000000E-02 0.  1.
    8880023    1    1    2    0    0  0.12448227755E+03  0.37008623077E+03  0.33162815643E+03  0.83441422329E+03  0.65864270000E+03 0.  1.
    8880022    1    1    2    0    0 -0.12448227755E+03 -0.37008623077E+03  0.22072138117E+04  0.22466962677E+04  0.15294330000E+03 0.  0.
<mgrwt>
<rscale>  0 0.65868806E+03</rscale>
<asrwt>0</asrwt>
<pdfrwt beam="1">  1        2 0.43230401E+00 0.76568261E+03</pdfrwt>
<pdfrwt beam="2">  1       -2 0.41712966E-01 0.76568261E+03</pdfrwt>
<totfact> 0.13082493E+01</totfact>
</mgrwt>
</event>
<event>
 4    1  0.3057048E-007  0.7508290E+03  0.7818608E-02  0.9829456E-01
          2   -1    0    0  501    0  0.00000000000E+00  0.00000000000E+00  0.18512919754E+04  0.18512919754E+04  0.25500000000E-02 0. -1.
         -2   -1    0    0    0  501 -0.00000000000E+00 -0.00000000000E+00 -0.29091084455E+03  0.29091084457E+03  0.25500000000E-02 0.  1.
    8880023    1    1    2    0    0 -0.33582239049E+03 -0.13098609872E+03  0.27680354967E+03  0.80022774720E+03  0.65864270000E+03 0.  1.
    8880022    1    1    2    0    0  0.33582239049E+03  0.13098609872E+03  0.12835775811E+04  0.13419750727E+04  0.15294330000E+03 0.  0.
<mgrwt>
<rscale>  0 0.63805433E+03</rscale>
<asrwt>0</asrwt>
<pdfrwt beam="1">  1        2 0.28481415E+00 0.75082904E+03</pdfrwt>
<pdfrwt beam="2">  1       -2 0.44755515E-01 0.75082904E+03</pdfrwt>
<totfact> 0.39346262E+01</totfact>
</mgrwt>
</event>
<event>
 4    1  0.3057048E-007  0.7204055E+03  0.7818608E-02  0.9921216E-01
          2   -1    0    0  501    0  0.00000000000E+00  0.00000000000E+00  0.22942940541E+03  0.22942940542E+03  0.25500000000E-02 0. -1.
         -2   -1    0    0    0  501 -0.00000000000E+00 -0.00000000000E+00 -0.16374505284E+04  0.16374505284E+04  0.25500000000E-02 0.  1.
    8880023    1    1    2    0    0 -0.18298523552E+03 -0.22735508973E+03 -0.13529810860E+04  0.15328215678E+04  0.65864270000E+03 0.  1.
    8880022    1    1    2    0    0  0.18298523552E+03  0.22735508973E+03 -0.55040036975E+02  0.33405836605E+03  0.15294330000E+03 0.  0.
<mgrwt>
<rscale>  0 0.59243991E+03</rscale>
<asrwt>0</asrwt>
<pdfrwt beam="1">  1        2 0.35296833E-01 0.72040554E+03</pdfrwt>
<pdfrwt beam="2">  1       -2 0.25191546E+00 0.72040554E+03</pdfrwt>
<totfact> 0.95455566E+00</totfact>
</mgrwt>
</event>
<event>
 4    1  0.3057048E-007  0.6641182E+03  0.7818608E-02  0.1020285E+00
         -2   -1    0    0    0  501 -0.00000000000E+00  0.00000000000E+00  0.15778890030E+03  0.15778890032E+03  0.25500000000E-02 0.  1.
          2   -1    0    0  501    0  0.00000000000E+00 -0.00000000000E+00 -0.15421264834E+04  0.15421264834E+04  0.25500000000E-02 0. -1.
    8880023    1    1    2    0    0  0.82244748045E+02 -0.21876806246E+02 -0.59586160764E+03  0.89224663348E+03  0.65864270000E+03 0.  1.
    8880022    1    1    2    0    0 -0.82244748045E+02  0.21876806246E+02 -0.78847597542E+03  0.80766875021E+03  0.15294330000E+03 0.  0.
<mgrwt>
<rscale>  0 0.47583929E+03</rscale>
<asrwt>0</asrwt>
<pdfrwt beam="1">  1        2 0.23725022E+00 0.66411821E+03</pdfrwt>
<pdfrwt beam="2">  1       -2 0.24275217E-01 0.66411821E+03</pdfrwt>
<totfact> 0.18585062E+02</totfact>
</mgrwt>
</event>
<event>
 4    1  0.3057048E-007  0.8157229E+03  0.7818608E-02  0.9677777E-01
         -2   -1    0    0    0  501 -0.00000000000E+00  0.00000000000E+00  0.40928091901E+03  0.40928091902E+03  0.25500000000E-02 0.  1.
          2   -1    0    0  501    0  0.00000000000E+00 -0.00000000000E+00 -0.12507635287E+04  0.12507635287E+04  0.25500000000E-02 0. -1.
    8880023    1    1    2    0    0  0.46667200765E+03 -0.11751954203E+03 -0.19317293338E+03  0.83828371924E+03  0.65864270000E+03 0.  0.
    8880022    1    1    2    0    0 -0.46667200765E+03  0.11751954203E+03 -0.64830967634E+03  0.82176072852E+03  0.15294330000E+03 0.  0.
<mgrwt>
<rscale>  0 0.72355469E+03</rscale>
<asrwt>0</asrwt>
<pdfrwt beam="1">  1        2 0.19242516E+00 0.81572288E+03</pdfrwt>
<pdfrwt beam="2">  1       -2 0.62966295E-01 0.81572288E+03</pdfrwt>
<totfact> 0.41810123E+01</totfact>
</mgrwt>
</event>
<event>
 4    1  0.3057048E-007  0.9039641E+03  0.7818608E-02  0.9519698E-01
          2   -1    0    0  501    0  0.00000000000E+00  0.00000000000E+00  0.11520319429E+04  0.11520319429E+04  0.25500000000E-02 0. -1.
         -2   -1    0    0    0  501 -0.00000000000E+00 -0.00000000000E+00 -0.86484516324E+03  0.86484516324E+03  0.25500000000E-02 0.  1.
    8880023    1    1    2    0    0 -0.19382470557E+03 -0.58802455000E+03 -0.47654221826E+03  0.10218823709E+04  0.65864270000E+03 0.  1.
    8880022    1    1    2    0    0  0.19382470557E+03  0.58802455000E+03  0.76372899791E+03  0.99499473524E+03  0.15294330000E+03 0.  0.
<mgrwt>
<rscale>  0 0.82847041E+03</rscale>
<asrwt>0</asrwt>
<pdfrwt beam="1">  1        2 0.17723568E+00 0.90396410E+03</pdfrwt>
<pdfrwt beam="2">  1       -2 0.13305310E+00 0.90396410E+03</pdfrwt>
<totfact> 0.83009060E+00</totfact>
</mgrwt>
</event>
<event>
 4    1  0.3057048E-007  0.7436977E+03  0.7818608E-02  0.9849304E-01
         -2   -1    0    0    0  501 -0.00000000000E+00  0.00000000000E+00  0.46987365944E+03  0.46987365944E+03  0.25500000000E-02 0.  1.
          2   -1    0    0  501    0  0.00000000000E+00 -0.00000000000E+00 -0.41068350451E+04  0.41068350451E+04  0.25500000000E-02 0. -1.
    8880023    1    1    2    0    0 -0.17275244583E+03  0.29905283809E+03  0.16024238066E+03  0.76076529517E+03  0.65864270000E+03 0.  1.
    8880022    1    1    2    0    0  0.17275244583E+03 -0.29905283809E+03 -0.37972037663E+04  0.38159434094E+04  0.15294330000E+03 0.  0.
<mgrwt>
<rscale>  0 0.62782413E+03</rscale>
<asrwt>0</asrwt>
<pdfrwt beam="1">  1        2 0.63182075E+00 0.74369766E+03</pdfrwt>
<pdfrwt beam="2">  1       -2 0.72288258E-01 0.74369766E+03</pdfrwt>
<totfact> 0.54251971E-01</totfact>
</mgrwt>
</event>
<event>
 4    1  0.3057048E-007  0.6628324E+03  0.7818608E-02  0.1021426E+00
         -2   -1    0    0    0  501 -0.00000000000E+00  0.00000000000E+00  0.83526702584E+02  0.83526702623E+02  0.25500000000E-02 0.  1.
          2   -1    0    0  501    0  0.00000000000E+00 -0.00000000000E+00 -0.51714125360E+04  0.51714125360E+04  0.25500000000E-02 0. -1.
    8880023    1    1    2    0    0 -0.68480978599E+02 -0.29102732144E+02 -0.12638006357E+04  0.14270735322E+04  0.65864270000E+03 0.  1.
    8880022    1    1    2    0    0  0.68480978599E+02  0.29102732144E+02 -0.38240851978E+04  0.38278657064E+04  0.15294330000E+03 0.  0.
<mgrwt>
<rscale>  0 0.47175673E+03</rscale>
<asrwt>0</asrwt>
<pdfrwt beam="1">  1        2 0.79560168E+00 0.66283242E+03</pdfrwt>
<pdfrwt beam="2">  1       -2 0.12850266E-01 0.66283242E+03</pdfrwt>
<totfact> 0.11229103E+00</totfact>
</mgrwt>
</event>
<event>
 4    1  0.3057048E-007  0.7134415E+03  0.7818608E-02  0.9945437E-01
          2   -1    0    0  501    0  0.00000000000E+00  0.00000000000E+00  0.11343383315E+04  0.11343383315E+04  0.25500000000E-02 0. -1.
         -2   -1    0    0    0  501 -0.00000000000E+00 -0.00000000000E+00 -0.39429525655E+03  0.39429525656E+03  0.25500000000E-02 0.  1.
    8880023    1    1    2    0    0 -0.14761925223E+03  0.23107817853E+03 -0.12146634219E+02  0.71354489362E+03  0.65864270000E+03 0.  1.
    8880022    1    1    2    0    0  0.14761925223E+03 -0.23107817853E+03  0.75218970916E+03  0.81508869444E+03  0.15294330000E+03 0.  0.
<mgrwt>
<rscale>  0 0.58108879E+03</rscale>
<asrwt>0</asrwt>
<pdfrwt beam="1">  1        2 0.17451359E+00 0.71344150E+03</pdfrwt>
<pdfrwt beam="2">  1       -2 0.60660810E-01 0.71344150E+03</pdfrwt>
<totfact> 0.53578621E+01</totfact>
</mgrwt>
</event>
<event>
 4    1  0.3057048E-007  0.1049200E+04  0.7818608E-02  0.9319844E-01
         -2   -1    0    0    0  501 -0.00000000000E+00  0.00000000000E+00  0.12535820782E+04  0.12535820782E+04  0.25500000000E-02 0.  1.
          2   -1    0    0  501    0  0.00000000000E+00 -0.00000000000E+00 -0.10030814647E+04  0.10030814647E+04  0.25500000000E-02 0. -1.
    8880023    1    1    2    0    0 -0.80685210701E+03  0.12648941778E+03  0.74770001895E+03  0.12883615254E+04  0.65864270000E+03 0.  0.
    8880022    1    1    2    0    0  0.80685210701E+03 -0.12648941778E+03 -0.49719940546E+03  0.96830201756E+03  0.15294330000E+03 0.  0.
<mgrwt>
<rscale>  0 0.98976331E+03</rscale>
<asrwt>0</asrwt>
<pdfrwt beam="1">  1        2 0.15432023E+00 0.10491997E+04</pdfrwt>
<pdfrwt beam="2">  1       -2 0.19285878E+00 0.10491997E+04</pdfrwt>
<totfact> 0.36692722E+00</totfact>
</mgrwt>
</event>
<event>
 4    1  0.3057048E-007  0.1102307E+04  0.7818608E-02  0.9258492E-01
         -2   -1    0    0    0  501 -0.00000000000E+00  0.00000000000E+00  0.60084916911E+03  0.60084916911E+03  0.25500000000E-02 0.  1.
          2   -1    0    0  501    0  0.00000000000E+00 -0.00000000000E+00 -0.22046278139E+04  0.22046278139E+04  0.25500000000E-02 0. -1.
    8880023    1    1    2    0    0 -0.86021833848E+03  0.20321000408E+03 -0.15563796331E+04  0.19071962836E+04  0.65864270000E+03 0.  0.
    8880022    1    1    2    0    0  0.86021833848E+03 -0.20321000408E+03 -0.47399011695E+02  0.89828069942E+03  0.15294330000E+03 0.  0.
<mgrwt>
<rscale>  0 0.10469562E+04</rscale>
<asrwt>0</asrwt>
<pdfrwt beam="1">  1        2 0.33917351E+00 0.11023067E+04</pdfrwt>
<pdfrwt beam="2">  1       -2 0.92438335E-01 0.11023067E+04</pdfrwt>
<totfact> 0.50574819E+00</totfact>
</mgrwt>
</event>
<event>
 4    1  0.3286627E-007  0.1060014E+04  0.7818608E-02  0.9306939E-01
          2   -1    0    0  501    0  0.00000000000E+00  0.00000000000E+00  0.25695386620E+04  0.25695386620E+04  0.25500000000E-02 0. -1.
         -2   -1    0    0    0  501 -0.00000000000E+00 -0.00000000000E+00 -0.12847896637E+04  0.12847896637E+04  0.25500000000E-02 0.  1.
    8880023    1    1    2    0    0 -0.82367157030E+03  0.10669726451E+03 -0.97605370274E+03  0.14409407340E+04  0.65864270000E+03 0.  0.
    8880022    1    1    2    0    0  0.82367157030E+03 -0.10669726451E+03  0.22608027011E+04  0.24133875918E+04  0.15294330000E+03 0.  0.
<mgrwt>
<rscale>  0 0.10014653E+04</rscale>
<asrwt>0</asrwt>
<pdfrwt beam="1">  1        2 0.39531364E+00 0.10600139E+04</pdfrwt>
<pdfrwt beam="2">  1       -2 0.19765995E+00 0.10600139E+04</pdfrwt>
<totfact> 0.43599200E-01</totfact>
</mgrwt>
</event>
<event>
 4    1  0.3057048E-007  0.6984808E+03  0.7818608E-02  0.1000356E+00
         -2   -1    0    0    0  501 -0.00000000000E+00  0.00000000000E+00  0.14141110824E+03  0.14141110826E+03  0.25500000000E-02 0.  1.
          2   -1    0    0  501    0  0.00000000000E+00 -0.00000000000E+00 -0.24853679658E+04  0.24853679658E+04  0.25500000000E-02 0. -1.
    8880023    1    1    2    0    0  0.22343255696E+03  0.64367416094E+02 -0.81795098273E+03  0.10756018260E+04  0.65864270000E+03 0.  0.
    8880022    1    1    2    0    0 -0.22343255696E+03 -0.64367416094E+02 -0.15260058748E+04  0.15511772480E+04  0.15294330000E+03 0.  0.
<mgrwt>
<rscale>  0 0.55494303E+03</rscale>
<asrwt>0</asrwt>
<pdfrwt beam="1">  1        2 0.38236427E+00 0.69848084E+03</pdfrwt>
<pdfrwt beam="2">  1       -2 0.21755557E-01 0.69848084E+03</pdfrwt>
<totfact> 0.68302315E+01</totfact>
</mgrwt>
</event>
<event>
 4    1  0.3057048E-007  0.7785587E+03  0.7818608E-02  0.9759234E-01
          2   -1    0    0  501    0  0.00000000000E+00  0.00000000000E+00  0.83650220539E+03  0.83650220539E+03  0.25500000000E-02 0. -1.
         -2   -1    0    0    0  501 -0.00000000000E+00 -0.00000000000E+00 -0.45912225480E+03  0.45912225481E+03  0.25500000000E-02 0.  1.
    8880023    1    1    2    0    0  0.33610624018E+03 -0.24367196687E+03  0.34633813562E+03  0.85211721176E+03  0.65864270000E+03 0.  0.
    8880022    1    1    2    0    0 -0.33610624018E+03  0.24367196687E+03  0.31041814971E+02  0.44350724844E+03  0.15294330000E+03 0. -1.
<mgrwt>
<rscale>  0 0.67596950E+03</rscale>
<asrwt>0</asrwt>
<pdfrwt beam="1">  1        2 0.12869265E+00 0.77855869E+03</pdfrwt>
<pdfrwt beam="2">  1       -2 0.70634193E-01 0.77855869E+03</pdfrwt>
<totfact> 0.59803085E+01</totfact>
</mgrwt>
</event>
<event>
 4    1  0.3057048E-007  0.1110065E+04  0.7818608E-02  0.9249932E-01
          2   -1    0    0  501    0  0.00000000000E+00  0.00000000000E+00  0.12495802097E+04  0.12495802097E+04  0.25500000000E-02 0. -1.
         -2   -1    0    0    0  501 -0.00000000000E+00 -0.00000000000E+00 -0.91863179186E+03  0.91863179187E+03  0.25500000000E-02 0.  1.
    8880023    1    1    2    0    0 -0.80691373223E+03 -0.38382926404E+03  0.54515084549E+03  0.12367030063E+04  0.65864270000E+03 0.  0.
    8880022    1    1    2    0    0  0.80691373223E+03  0.38382926404E+03 -0.21420242767E+03  0.93150899525E+03  0.15294330000E+03 0.  0.
<mgrwt>
<rscale>  0 0.10552586E+04</rscale>
<asrwt>0</asrwt>
<pdfrwt beam="1">  1        2 0.19224311E+00 0.11100653E+04</pdfrwt>
<pdfrwt beam="2">  1       -2 0.14132797E+00 0.11100653E+04</pdfrwt>
<totfact> 0.60856146E+00</totfact>
</mgrwt>
</event>
<event>
 4    1  0.3057048E-007  0.7160603E+03  0.7818608E-02  0.9936149E-01
         -2   -1    0    0    0  501 -0.00000000000E+00  0.00000000000E+00  0.19137056537E+03  0.19137056539E+03  0.25500000000E-02 0.  1.
          2   -1    0    0  501    0  0.00000000000E+00 -0.00000000000E+00 -0.16597528446E+04  0.16597528446E+04  0.25500000000E-02 0. -1.
    8880023    1    1    2    0    0  0.61394051520E+02  0.27415844069E+03 -0.62986279089E+03  0.95366106231E+03  0.65864270000E+03 0.  0.
    8880022    1    1    2    0    0 -0.61394051520E+02 -0.27415844069E+03 -0.83851948832E+03  0.89746234766E+03  0.15294330000E+03 0.  0.
<mgrwt>
<rscale>  0 0.58540877E+03</rscale>
<asrwt>0</asrwt>
<pdfrwt beam="1">  1        2 0.25534658E+00 0.71606025E+03</pdfrwt>
<pdfrwt beam="2">  1       -2 0.29441627E-01 0.71606025E+03</pdfrwt>
<totfact> 0.11216548E+02</totfact>
</mgrwt>
</event>
<event>
 4    1  0.3057048E-007  0.8061212E+03  0.7818608E-02  0.9697714E-01
         -2   -1    0    0    0  501 -0.00000000000E+00  0.00000000000E+00  0.24691205617E+03  0.24691205618E+03  0.25500000000E-02 0.  1.
          2   -1    0    0  501    0  0.00000000000E+00 -0.00000000000E+00 -0.23416434806E+04  0.23416434806E+04  0.25500000000E-02 0. -1.
    8880023    1    1    2    0    0 -0.37669061440E+02 -0.46325176661E+03 -0.57012571718E+03  0.98735743128E+03  0.65864270000E+03 0.  0.
    8880022    1    1    2    0    0  0.37669061440E+02  0.46325176661E+03 -0.15246057072E+04  0.16011981055E+04  0.15294330000E+03 0.  0.
<mgrwt>
<rscale>  0 0.71153075E+03</rscale>
<asrwt>0</asrwt>
<pdfrwt beam="1">  1        2 0.36025283E+00 0.80612118E+03</pdfrwt>
<pdfrwt beam="2">  1       -2 0.37986472E-01 0.80612118E+03</pdfrwt>
<totfact> 0.28983021E+01</totfact>
</mgrwt>
</event>
<event>
 4    1  0.3057048E-007  0.1735819E+04  0.7818608E-02  0.8758895E-01
         -2   -1    0    0    0  501 -0.00000000000E+00  0.00000000000E+00  0.11196298158E+04  0.11196298158E+04  0.25500000000E-02 0.  1.
          2   -1    0    0  501    0  0.00000000000E+00 -0.00000000000E+00 -0.32519181091E+04  0.32519181091E+04  0.25500000000E-02 0. -1.
    8880023    1    1    2    0    0 -0.15003214931E+04 -0.57296959422E+03 -0.48830808101E+02  0.17365060877E+04  0.65864270000E+03 0.  0.
    8880022    1    1    2    0    0  0.15003214931E+04  0.57296959422E+03 -0.20834574852E+04  0.26350418373E+04  0.15294330000E+03 0.  0.
<mgrwt>
<rscale>  0 0.17043366E+04</rscale>
<asrwt>0</asrwt>
<pdfrwt beam="1">  1        2 0.50029509E+00 0.17358194E+04</pdfrwt>
<pdfrwt beam="2">  1       -2 0.17225074E+00 0.17358194E+04</pdfrwt>
<totfact> 0.22708690E-01</totfact>
</mgrwt>
</event>
<event>
 4    1  0.3057048E-007  0.1696637E+04  0.7818608E-02  0.8781976E-01
          2   -1    0    0  501    0  0.00000000000E+00  0.00000000000E+00  0.50770013918E+04  0.50770013918E+04  0.25500000000E-02 0. -1.
         -2   -1    0    0    0  501 -0.00000000000E+00 -0.00000000000E+00 -0.95961625437E+03  0.95961625437E+03  0.25500000000E-02 0.  1.
    8880023    1    1    2    0    0  0.14661605170E+04  0.54326740423E+03  0.73440448101E+02  0.16982254973E+04  0.65864270000E+03 0.  0.
    8880022    1    1    2    0    0 -0.14661605170E+04 -0.54326740423E+03  0.40439446894E+04  0.43383921489E+04  0.15294330000E+03 0.  0.
<mgrwt>
<rscale>  0 0.16643255E+04</rscale>
<asrwt>0</asrwt>
<pdfrwt beam="1">  1        2 0.78107717E+00 0.16966368E+04</pdfrwt>
<pdfrwt beam="2">  1       -2 0.14763326E+00 0.16966368E+04</pdfrwt>
<totfact> 0.81639570E-03</totfact>
</mgrwt>
</event>
<event>
 4    1  0.3057048E-007  0.6887859E+03  0.7818608E-02  0.1004735E+00
          2   -1    0    0  501    0  0.00000000000E+00  0.00000000000E+00  0.71817538108E+03  0.71817538109E+03  0.25500000000E-02 0. -1.
         -2   -1    0    0    0  501 -0.00000000000E+00 -0.00000000000E+00 -0.63211004214E+03  0.63211004215E+03  0.25500000000E-02 0.  1.
    8880023    1    1    2    0    0  0.20143812122E+03  0.62075703974E+01 -0.40417424714E+03  0.79861309714E+03  0.65864270000E+03 0.  1.
    8880022    1    1    2    0    0 -0.20143812122E+03 -0.62075703974E+01  0.49023958608E+03  0.55167232610E+03  0.15294330000E+03 0.  0.
<mgrwt>
<rscale>  0 0.53621883E+03</rscale>
<asrwt>0</asrwt>
<pdfrwt beam="1">  1        2 0.11048852E+00 0.68878593E+03</pdfrwt>
<pdfrwt beam="2">  1       -2 0.97247699E-01 0.68878593E+03</pdfrwt>
<totfact> 0.35642553E+01</totfact>
</mgrwt>
</event>
<event>
 4    1  0.3057048E-007  0.7016723E+03  0.7818608E-02  0.9990333E-01
         -2   -1    0    0    0  501 -0.00000000000E+00  0.00000000000E+00  0.21052539467E+03  0.21052539469E+03  0.25500000000E-02 0.  1.
          2   -1    0    0  501    0  0.00000000000E+00 -0.00000000000E+00 -0.12252676625E+04  0.12252676625E+04  0.25500000000E-02 0. -1.
    8880023    1    1    2    0    0  0.97810256513E+02  0.22128468213E+03 -0.55676449402E+03  0.89572912473E+03  0.65864270000E+03 0.  1.
    8880022    1    1    2    0    0 -0.97810256513E+02 -0.22128468213E+03 -0.45797777379E+03  0.54006393244E+03  0.15294330000E+03 0. -1.
<mgrwt>
<rscale>  0 0.56076133E+03</rscale>
<asrwt>0</asrwt>
<pdfrwt beam="1">  1        2 0.18850271E+00 0.70167226E+03</pdfrwt>
<pdfrwt beam="2">  1       -2 0.32388523E-01 0.70167226E+03</pdfrwt>
<totfact> 0.16505750E+02</totfact>
</mgrwt>
</event>
<event>
 4    1  0.3057048E-007  0.1110720E+04  0.7818608E-02  0.9249213E-01
          2   -1    0    0  501    0  0.00000000000E+00  0.00000000000E+00  0.35386413616E+04  0.35386413616E+04  0.25500000000E-02 0. -1.
         -2   -1    0    0    0  501 -0.00000000000E+00 -0.00000000000E+00 -0.45241536887E+03  0.45241536888E+03  0.25500000000E-02 0.  1.
    8880023    1    1    2    0    0  0.75155305802E+03  0.48482739457E+03  0.28421138097E+04  0.30514440377E+04  0.65864270000E+03 0.  0.
    8880022    1    1    2    0    0 -0.75155305802E+03 -0.48482739457E+03  0.24411218302E+03  0.93961269279E+03  0.15294330000E+03 0.  0.
<mgrwt>
<rscale>  0 0.10559591E+04</rscale>
<asrwt>0</asrwt>
<pdfrwt beam="1">  1        2 0.54440635E+00 0.11107204E+04</pdfrwt>
<pdfrwt beam="2">  1       -2 0.69602366E-01 0.11107204E+04</pdfrwt>
<totfact> 0.14647308E+00</totfact>
</mgrwt>
</event>
<event>
 4    1  0.3057048E-007  0.6939445E+03  0.7818608E-02  0.1002331E+00
         -2   -1    0    0    0  501 -0.00000000000E+00  0.00000000000E+00  0.53234741089E+03  0.53234741089E+03  0.25500000000E-02 0.  1.
          2   -1    0    0  501    0  0.00000000000E+00 -0.00000000000E+00 -0.93066393937E+03  0.93066393938E+03  0.25500000000E-02 0. -1.
    8880023    1    1    2    0    0  0.21651180018E+03  0.29519571569E+02  0.26908337805E+03  0.74428813999E+03  0.65864270000E+03 0.  1.
    8880022    1    1    2    0    0 -0.21651180018E+03 -0.29519571569E+02 -0.66739990654E+03  0.71872321028E+03  0.15294330000E+03 0.  0.
<mgrwt>
<rscale>  0 0.54639675E+03</rscale>
<asrwt>0</asrwt>
<pdfrwt beam="1">  1        2 0.14317907E+00 0.69394450E+03</pdfrwt>
<pdfrwt beam="2">  1       -2 0.81899601E-01 0.69394450E+03</pdfrwt>
<totfact> 0.37410678E+01</totfact>
</mgrwt>
</event>
<event>
 4    1  0.3057048E-007  0.7144196E+03  0.7818608E-02  0.9941941E-01
          2   -1    0    0  501    0  0.00000000000E+00  0.00000000000E+00  0.20989101333E+04  0.20989101333E+04  0.25500000000E-02 0. -1.
         -2   -1    0    0    0  501 -0.00000000000E+00 -0.00000000000E+00 -0.55731909510E+03  0.55731909511E+03  0.25500000000E-02 0.  1.
    8880023    1    1    2    0    0  0.24295674746E+03 -0.13250367232E+03 -0.30931798372E+03  0.77850692073E+03  0.65864270000E+03 0.  1.
    8880022    1    1    2    0    0 -0.24295674746E+03  0.13250367232E+03  0.18509090219E+04  0.18777223077E+04  0.15294330000E+03 0.  0.
<mgrwt>
<rscale>  0 0.58271000E+03</rscale>
<asrwt>0</asrwt>
<pdfrwt beam="1">  1        2 0.32290925E+00 0.71441963E+03</pdfrwt>
<pdfrwt beam="2">  1       -2 0.85741399E-01 0.71441963E+03</pdfrwt>
<totfact> 0.72586449E+00</totfact>
</mgrwt>
</event>
<event>
 4    1  0.3057048E-007  0.8031655E+03  0.7818608E-02  0.9703993E-01
         -2   -1    0    0    0  501 -0.00000000000E+00  0.00000000000E+00  0.19548664649E+04  0.19548664649E+04  0.25500000000E-02 0.  1.
          2   -1    0    0  501    0  0.00000000000E+00 -0.00000000000E+00 -0.32970706276E+03  0.32970706277E+03  0.25500000000E-02 0. -1.
    8880023    1    1    2    0    0 -0.30093439213E+03  0.34742346115E+03  0.16108190949E+04  0.17999480360E+04  0.65864270000E+03 0.  1.
    8880022    1    1    2    0    0  0.30093439213E+03 -0.34742346115E+03  0.14340307264E+02  0.48462549165E+03  0.15294330000E+03 0.  0.
<mgrwt>
<rscale>  0 0.70779548E+03</rscale>
<asrwt>0</asrwt>
<pdfrwt beam="1">  1        2 0.50724163E-01 0.80316547E+03</pdfrwt>
<pdfrwt beam="2">  1       -2 0.30074869E+00 0.80316547E+03</pdfrwt>
<totfact> 0.32088849E+00</totfact>
</mgrwt>
</event>
<event>
 4    1  0.3057048E-007  0.8879721E+03  0.7818608E-02  0.9545623E-01
         -2   -1    0    0    0  501 -0.00000000000E+00  0.00000000000E+00  0.39202366963E+03  0.39202366964E+03  0.25500000000E-02 0.  1.
          2   -1    0    0  501    0  0.00000000000E+00 -0.00000000000E+00 -0.21984470661E+04  0.21984470661E+04  0.25500000000E-02 0. -1.
    8880023    1    1    2    0    0 -0.32274421215E+03  0.50052011086E+03 -0.25840516777E+03  0.92480681488E+03  0.65864270000E+03 0.  1.
    8880022    1    1    2    0    0  0.32274421215E+03 -0.50052011086E+03 -0.15480182287E+04  0.16656639209E+04  0.15294330000E+03 0.  0.
<mgrwt>
<rscale>  0 0.81002207E+03</rscale>
<asrwt>0</asrwt>
<pdfrwt beam="1">  1        2 0.33822262E+00 0.88797208E+03</pdfrwt>
<pdfrwt beam="2">  1       -2 0.60311335E-01 0.88797208E+03</pdfrwt>
<totfact> 0.13519826E+01</totfact>
</mgrwt>
</event>
<event>
 4    1  0.3057048E-007  0.8365340E+03  0.7818608E-02  0.9636751E-01
         -2   -1    0    0    0  501 -0.00000000000E+00  0.00000000000E+00  0.68398671976E+03  0.68398671976E+03  0.25500000000E-02 0.  1.
          2   -1    0    0  501    0  0.00000000000E+00 -0.00000000000E+00 -0.14044775050E+04  0.14044775050E+04  0.25500000000E-02 0. -1.
    8880023    1    1    2    0    0 -0.40364265318E+03  0.32101640802E+03  0.33712107444E+03  0.90190894816E+03  0.65864270000E+03 0.  1.
    8880022    1    1    2    0    0  0.40364265318E+03 -0.32101640802E+03 -0.10576118597E+04  0.11865552766E+04  0.15294330000E+03 0.  0.
<mgrwt>
<rscale>  0 0.74910810E+03</rscale>
<asrwt>0</asrwt>
<pdfrwt beam="1">  1        2 0.21607346E+00 0.83653400E+03</pdfrwt>
<pdfrwt beam="2">  1       -2 0.10522873E+00 0.83653400E+03</pdfrwt>
<totfact> 0.10645621E+01</totfact>
</mgrwt>
</event>
<event>
 4    1  0.3057048E-007  0.6903917E+03  0.7818608E-02  0.1003967E+00
          2   -1    0    0  501    0  0.00000000000E+00  0.00000000000E+00  0.70886047004E+03  0.70886047005E+03  0.25500000000E-02 0. -1.
         -2   -1    0    0    0  501 -0.00000000000E+00 -0.00000000000E+00 -0.15957041729E+04  0.15957041729E+04  0.25500000000E-02 0.  1.
    8880023    1    1    2    0    0 -0.18011201489E+03 -0.10193229362E+03 -0.14936275261E+04  0.16454676913E+04  0.65864270000E+03 0.  0.
    8880022    1    1    2    0    0  0.18011201489E+03  0.10193229362E+03  0.60678382324E+03  0.65909695156E+03  0.15294330000E+03 0. -1.
<mgrwt>
<rscale>  0 0.53944494E+03</rscale>
<asrwt>0</asrwt>
<pdfrwt beam="1">  1        2 0.10905546E+00 0.69039173E+03</pdfrwt>
<pdfrwt beam="2">  1       -2 0.24549295E+00 0.69039173E+03</pdfrwt>
<totfact> 0.28712177E+00</totfact>
</mgrwt>
</event>
<event>
 4    1  0.3057048E-007  0.1075234E+04  0.7818608E-02  0.9289144E-01
         -2   -1    0    0    0  501 -0.00000000000E+00  0.00000000000E+00  0.81242211479E+03  0.81242211479E+03  0.25500000000E-02 0.  1.
          2   -1    0    0  501    0  0.00000000000E+00 -0.00000000000E+00 -0.21176004401E+04  0.21176004401E+04  0.25500000000E-02 0. -1.
    8880023    1    1    2    0    0 -0.78287730033E+03  0.33078778828E+03  0.29214599376E+03  0.11142158302E+04  0.65864270000E+03 0.  0.
    8880022    1    1    2    0    0  0.78287730033E+03 -0.33078778828E+03 -0.15973243191E+04  0.18158067247E+04  0.15294330000E+03 0.  0.
<mgrwt>
<rscale>  0 0.10178841E+04</rscale>
<asrwt>0</asrwt>
<pdfrwt beam="1">  1        2 0.32578468E+00 0.10752338E+04</pdfrwt>
<pdfrwt beam="2">  1       -2 0.12498802E+00 0.10752338E+04</pdfrwt>
<totfact> 0.27294219E+00</totfact>
</mgrwt>
</event>
<event>
 4    1  0.3057048E-007  0.6885449E+03  0.7818608E-02  0.1004852E+00
         -2   -1    0    0    0  501 -0.00000000000E+00  0.00000000000E+00  0.72343421477E+03  0.72343421477E+03  0.25500000000E-02 0.  1.
          2   -1    0    0  501    0  0.00000000000E+00 -0.00000000000E+00 -0.56715056424E+03  0.56715056425E+03  0.25500000000E-02 0. -1.
    8880023    1    1    2    0    0 -0.57260890921E+02  0.19236687476E+03  0.50945558392E+03  0.85652730393E+03  0.65864270000E+03 0.  1.
    8880022    1    1    2    0    0  0.57260890921E+02 -0.19236687476E+03 -0.35317193339E+03  0.43405747509E+03  0.15294330000E+03 0.  0.
<mgrwt>
<rscale>  0 0.53572968E+03</rscale>
<asrwt>0</asrwt>
<pdfrwt beam="1">  1        2 0.87253933E-01 0.68854486E+03</pdfrwt>
<pdfrwt beam="2">  1       -2 0.11129757E+00 0.68854486E+03</pdfrwt>
<totfact> 0.34485140E+01</totfact>
</mgrwt>
</event>
<event>
 4    1  0.3057048E-007  0.9216157E+03  0.7818608E-02  0.9492186E-01
          2   -1    0    0  501    0  0.00000000000E+00  0.00000000000E+00  0.36909307760E+04  0.36909307760E+04  0.25500000000E-02 0. -1.
         -2   -1    0    0    0  501 -0.00000000000E+00 -0.00000000000E+00 -0.41593041432E+03  0.41593041433E+03  0.25500000000E-02 0.  1.
    8880023    1    1    2    0    0  0.57875985858E+03  0.28390562310E+03  0.17655792437E+03  0.93837534263E+03  0.65864270000E+03 0.  0.
    8880022    1    1    2    0    0 -0.57875985858E+03 -0.28390562310E+03  0.30984424373E+04  0.31684858477E+04  0.15294330000E+03 0.  0.
<mgrwt>
<rscale>  0 0.84862372E+03</rscale>
<asrwt>0</asrwt>
<pdfrwt beam="1">  1        2 0.56783549E+00 0.92161575E+03</pdfrwt>
<pdfrwt beam="2">  1       -2 0.63989296E-01 0.92161575E+03</pdfrwt>
<totfact> 0.14155998E+00</totfact>
</mgrwt>
</event>
<event>
 4    1  0.3057048E-007  0.8121946E+03  0.7818608E-02  0.9685024E-01
         -2   -1    0    0    0  501 -0.00000000000E+00  0.00000000000E+00  0.40945443767E+03  0.40945443768E+03  0.25500000000E-02 0.  1.
          2   -1    0    0  501    0  0.00000000000E+00 -0.00000000000E+00 -0.11612929011E+04  0.11612929011E+04  0.25500000000E-02 0. -1.
    8880023    1    1    2    0    0 -0.36641601450E+03 -0.30263704379E+03 -0.69372403265E+03  0.10681353452E+04  0.65864270000E+03 0.  1.
    8880022    1    1    2    0    0  0.36641601450E+03  0.30263704379E+03 -0.58114430739E+02  0.50261199352E+03  0.15294330000E+03 0. -1.
<mgrwt>
<rscale>  0 0.71915520E+03</rscale>
<asrwt>0</asrwt>
<pdfrwt beam="1">  1        2 0.17866044E+00 0.81219461E+03</pdfrwt>
<pdfrwt beam="2">  1       -2 0.62992991E-01 0.81219461E+03</pdfrwt>
<totfact> 0.47211820E+01</totfact>
</mgrwt>
</event>
<event>
 4    1  0.3057048E-007  0.1036259E+04  0.7818608E-02  0.9335586E-01
         -2   -1    0    0    0  501 -0.00000000000E+00  0.00000000000E+00  0.17559472395E+04  0.17559472395E+04  0.25500000000E-02 0.  1.
          2   -1    0    0  501    0  0.00000000000E+00 -0.00000000000E+00 -0.11118598148E+04  0.11118598148E+04  0.25500000000E-02 0. -1.
    8880023    1    1    2    0    0  0.74199142882E+03 -0.29911595826E+03  0.14099460624E+04  0.17497941999E+04  0.65864270000E+03 0.  0.
    8880022    1    1    2    0    0 -0.74199142882E+03  0.29911595826E+03 -0.76585863763E+03  0.11180128545E+04  0.15294330000E+03 0.  0.
<mgrwt>
<rscale>  0 0.97571757E+03</rscale>
<asrwt>0</asrwt>
<pdfrwt beam="1">  1        2 0.17105536E+00 0.10362586E+04</pdfrwt>
<pdfrwt beam="2">  1       -2 0.27014573E+00 0.10362586E+04</pdfrwt>
<totfact> 0.10304419E+00</totfact>
</mgrwt>
</event>
<event>
 4    1  0.3057048E-007  0.1152881E+04  0.7818608E-02  0.9204345E-01
          2   -1    0    0  501    0  0.00000000000E+00  0.00000000000E+00  0.19612147150E+04  0.19612147150E+04  0.25500000000E-02 0. -1.
         -2   -1    0    0    0  501 -0.00000000000E+00 -0.00000000000E+00 -0.92328972663E+03  0.92328972664E+03  0.25500000000E-02 0.  1.
    8880023    1    1    2    0    0  0.47956053432E+03  0.81568682032E+03  0.14403781351E+04  0.18449451681E+04  0.65864270000E+03 0.  0.
    8880022    1    1    2    0    0 -0.47956053432E+03 -0.81568682032E+03 -0.40245314673E+03  0.10395592736E+04  0.15294330000E+03 0.  0.
<mgrwt>
<rscale>  0 0.11008695E+04</rscale>
<asrwt>0</asrwt>
<pdfrwt beam="1">  1        2 0.30172534E+00 0.11528805E+04</pdfrwt>
<pdfrwt beam="2">  1       -2 0.14204457E+00 0.11528805E+04</pdfrwt>
<totfact> 0.23771690E+00</totfact>
</mgrwt>
</event>
<event>
 4    1  0.3057048E-007  0.7085668E+03  0.7818608E-02  0.9963362E-01
         -2   -1    0    0    0  501 -0.00000000000E+00  0.00000000000E+00  0.34057618585E+03  0.34057618586E+03  0.25500000000E-02 0.  1.
          2   -1    0    0  501    0  0.00000000000E+00 -0.00000000000E+00 -0.96826708177E+03  0.96826708178E+03  0.25500000000E-02 0. -1.
    8880023    1    1    2    0    0  0.26096713183E+03  0.12365338336E+02 -0.12132097859E+03  0.71887810622E+03  0.65864270000E+03 0. -1.
    8880022    1    1    2    0    0 -0.26096713183E+03 -0.12365338336E+02 -0.50636991734E+03  0.58996516142E+03  0.15294330000E+03 0.  0.
<mgrwt>
<rscale>  0 0.57286359E+03</rscale>
<asrwt>0</asrwt>
<pdfrwt beam="1">  1        2 0.14896417E+00 0.70856683E+03</pdfrwt>
<pdfrwt beam="2">  1       -2 0.52396337E-01 0.70856683E+03</pdfrwt>
<totfact> 0.92314369E+01</totfact>
</mgrwt>
</event>
<event>
 4    1  0.3057048E-007  0.9690149E+03  0.7818608E-02  0.9423268E-01
          2   -1    0    0  501    0  0.00000000000E+00  0.00000000000E+00  0.80322742343E+03  0.80322742343E+03  0.25500000000E-02 0. -1.
         -2   -1    0    0    0  501 -0.00000000000E+00 -0.00000000000E+00 -0.20563133070E+04  0.20563133070E+04  0.25500000000E-02 0.  1.
    8880023    1    1    2    0    0  0.69490613713E+03 -0.14928193898E+03 -0.17350223830E+04  0.19872826957E+04  0.65864270000E+03 0.  0.
    8880022    1    1    2    0    0 -0.69490613713E+03  0.14928193898E+03  0.48193649942E+03  0.87225803477E+03  0.15294330000E+03 0.  0.
<mgrwt>
<rscale>  0 0.90185306E+03</rscale>
<asrwt>0</asrwt>
<pdfrwt beam="1">  1        2 0.12357345E+00 0.96901488E+03</pdfrwt>
<pdfrwt beam="2">  1       -2 0.31635589E+00 0.96901488E+03</pdfrwt>
<totfact> 0.87388933E-01</totfact>
</mgrwt>
</event>
<event>
 4    1  0.3057048E-007  0.8079876E+03  0.7818608E-02  0.9693784E-01
         -2   -1    0    0    0  501 -0.00000000000E+00  0.00000000000E+00  0.34486091567E+03  0.34486091568E+03  0.25500000000E-02 0.  1.
          2   -1    0    0  501    0  0.00000000000E+00 -0.00000000000E+00 -0.14430708520E+04  0.14430708520E+04  0.25500000000E-02 0. -1.
    8880023    1    1    2    0    0 -0.37846355900E+03  0.27531627138E+03 -0.32422851341E+03  0.87061360542E+03  0.65864270000E+03 0.  1.
    8880022    1    1    2    0    0  0.37846355900E+03 -0.27531627138E+03 -0.77398142297E+03  0.91731816230E+03  0.15294330000E+03 0.  0.
<mgrwt>
<rscale>  0 0.71388091E+03</rscale>
<asrwt>0</asrwt>
<pdfrwt beam="1">  1        2 0.22201090E+00 0.80798757E+03</pdfrwt>
<pdfrwt beam="2">  1       -2 0.53055526E-01 0.80798757E+03</pdfrwt>
<totfact> 0.46504350E+01</totfact>
</mgrwt>
</event>
<event>
 4    1  0.3057048E-007  0.8088358E+03  0.7818608E-02  0.9692007E-01
         -2   -1    0    0    0  501 -0.00000000000E+00  0.00000000000E+00  0.32166683140E+03  0.32166683141E+03  0.25500000000E-02 0.  1.
          2   -1    0    0  501    0  0.00000000000E+00 -0.00000000000E+00 -0.20655042081E+04  0.20655042081E+04  0.25500000000E-02 0. -1.
    8880023    1    1    2    0    0 -0.36892520237E+03 -0.29034356955E+03 -0.30240888456E+03  0.86351985099E+03  0.65864270000E+03 0.  1.
    8880022    1    1    2    0    0  0.36892520237E+03  0.29034356955E+03 -0.14414284922E+04  0.15236511886E+04  0.15294330000E+03 0.  0.
<mgrwt>
<rscale>  0 0.71494691E+03</rscale>
<asrwt>0</asrwt>
<pdfrwt beam="1">  1        2 0.31776987E+00 0.80883583E+03</pdfrwt>
<pdfrwt beam="2">  1       -2 0.49487206E-01 0.80883583E+03</pdfrwt>
<totfact> 0.24375383E+01</totfact>
</mgrwt>
</event>
<event>
 4    1  0.3057048E-007  0.6664809E+03  0.7818608E-02  0.1018322E+00
          2   -1    0    0  501    0  0.00000000000E+00  0.00000000000E+00  0.11055980485E+04  0.11055980485E+04  0.25500000000E-02 0. -1.
         -2   -1    0    0    0  501 -0.00000000000E+00 -0.00000000000E+00 -0.62627237849E+03  0.62627237849E+03  0.25500000000E-02 0.  1.
    8880023    1    1    2    0    0 -0.32941956833E+01  0.10186136966E+03 -0.43721076600E+03  0.79708848349E+03  0.65864270000E+03 0.  1.
    8880022    1    1    2    0    0  0.32941956833E+01 -0.10186136966E+03  0.91653643597E+03  0.93478194347E+03  0.15294330000E+03 0.  0.
<mgrwt>
<rscale>  0 0.48297029E+03</rscale>
<asrwt>0</asrwt>
<pdfrwt beam="1">  1        2 0.17009201E+00 0.66648090E+03</pdfrwt>
<pdfrwt beam="2">  1       -2 0.96349598E-01 0.66648090E+03</pdfrwt>
<totfact> 0.20028420E+01</totfact>
</mgrwt>
</event>
<event>
 4    1  0.3057048E-007  0.1003767E+04  0.7818608E-02  0.9376646E-01
          2   -1    0    0  501    0  0.00000000000E+00  0.00000000000E+00  0.16107016775E+04  0.16107016775E+04  0.25500000000E-02 0. -1.
         -2   -1    0    0    0  501 -0.00000000000E+00 -0.00000000000E+00 -0.69497792503E+03  0.69497792503E+03  0.25500000000E-02 0.  1.
    8880023    1    1    2    0    0  0.24063121884E+03 -0.71821643567E+03 -0.12275162924E+03  0.10112449756E+04  0.65864270000E+03 0.  1.
    8880022    1    1    2    0    0 -0.24063121884E+03  0.71821643567E+03  0.10384753817E+04  0.12944346269E+04  0.15294330000E+03 0.  0.
<mgrwt>
<rscale>  0 0.94022832E+03</rscale>
<asrwt>0</asrwt>
<pdfrwt beam="1">  1        2 0.24780026E+00 0.10037671E+04</pdfrwt>
<pdfrwt beam="2">  1       -2 0.10691968E+00 0.10037671E+04</pdfrwt>
<totfact> 0.77045449E+00</totfact>
</mgrwt>
</event>
<event>
 4    1  0.3057048E-007  0.7534598E+03  0.7818608E-02  0.9822343E-01
         -2   -1    0    0    0  501 -0.00000000000E+00  0.00000000000E+00  0.18410903543E+03  0.18410903545E+03  0.25500000000E-02 0.  1.
          2   -1    0    0  501    0  0.00000000000E+00 -0.00000000000E+00 -0.18075642980E+04  0.18075642980E+04  0.25500000000E-02 0. -1.
    8880023    1    1    2    0    0  0.14869214683E+03  0.33433824481E+03 -0.98613320477E+03  0.12410319578E+04  0.65864270000E+03 0.  0.
    8880022    1    1    2    0    0 -0.14869214683E+03 -0.33433824481E+03 -0.63732205779E+03  0.75064137565E+03  0.15294330000E+03 0.  1.
<mgrwt>
<rscale>  0 0.64177131E+03</rscale>
<asrwt>0</asrwt>
<pdfrwt beam="1">  1        2 0.27808680E+00 0.75345977E+03</pdfrwt>
<pdfrwt beam="2">  1       -2 0.28324468E-01 0.75345977E+03</pdfrwt>
<totfact> 0.99657627E+01</totfact>
</mgrwt>
</event>
<event>
 4    1  0.3057048E-007  0.7078758E+03  0.7818608E-02  0.9965975E-01
          2   -1    0    0  501    0  0.00000000000E+00  0.00000000000E+00  0.22111309526E+04  0.22111309526E+04  0.25500000000E-02 0. -1.
         -2   -1    0    0    0  501 -0.00000000000E+00 -0.00000000000E+00 -0.20009265979E+03  0.20009265981E+03  0.25500000000E-02 0.  1.
    8880023    1    1    2    0    0 -0.25936599539E+03  0.26888163592E+01  0.49062267568E+03  0.86127740331E+03  0.65864270000E+03 0.  1.
    8880022    1    1    2    0    0  0.25936599539E+03 -0.26888163592E+01  0.15204156171E+04  0.15499462091E+04  0.15294330000E+03 0.  0.
<mgrwt>
<rscale>  0 0.57167673E+03</rscale>
<asrwt>0</asrwt>
<pdfrwt beam="1">  1        2 0.34017399E+00 0.70787581E+03</pdfrwt>
<pdfrwt beam="2">  1       -2 0.30783486E-01 0.70787581E+03</pdfrwt>
<totfact> 0.51687302E+01</totfact>
</mgrwt>
</event>
<event>
 4    1  0.3057048E-007  0.6843824E+03  0.7818608E-02  0.1006946E+00
          2   -1    0    0  501    0  0.00000000000E+00  0.00000000000E+00  0.16726838602E+04  0.16726838602E+04  0.25500000000E-02 0. -1.
         -2   -1    0    0    0  501 -0.00000000000E+00 -0.00000000000E+00 -0.18610559952E+03  0.18610559953E+03  0.25500000000E-02 0.  1.
    8880023    1    1    2    0    0 -0.18576405574E+03 -0.77926028389E+01  0.51143890379E+03  0.85437050958E+03  0.65864270000E+03 0.  1.
    8880022    1    1    2    0    0  0.18576405574E+03  0.77926028389E+01  0.97513935693E+03  0.10044189502E+04  0.15294330000E+03 0.  0.
<mgrwt>
<rscale>  0 0.52706694E+03</rscale>
<asrwt>0</asrwt>
<pdfrwt beam="1">  1        2 0.25733599E+00 0.68438236E+03</pdfrwt>
<pdfrwt beam="2">  1       -2 0.28631630E-01 0.68438236E+03</pdfrwt>
<totfact> 0.11654790E+02</totfact>
</mgrwt>
</event>
<event>
 4    1  0.3057048E-007  0.1517039E+04  0.7818608E-02  0.8897697E-01
          2   -1    0    0  501    0  0.00000000000E+00  0.00000000000E+00  0.31963380793E+04  0.31963380793E+04  0.25500000000E-02 0. -1.
         -2   -1    0    0    0  501 -0.00000000000E+00 -0.00000000000E+00 -0.75155060660E+03  0.75155060661E+03  0.25500000000E-02 0.  1.
    8880023    1    1    2    0    0  0.11272512784E+04  0.77259460263E+03  0.19841598763E+04  0.24976586007E+04  0.65864270000E+03 0. -1.
    8880022    1    1    2    0    0 -0.11272512784E+04 -0.77259460263E+03  0.46062759645E+03  0.14502300853E+04  0.15294330000E+03 0.  1.
<mgrwt>
<rscale>  0 0.14802455E+04</rscale>
<asrwt>0</asrwt>
<pdfrwt beam="1">  1        2 0.49174433E+00 0.15170392E+04</pdfrwt>
<pdfrwt beam="2">  1       -2 0.11562317E+00 0.15170392E+04</pdfrwt>
<totfact> 0.72343891E-01</totfact>
</mgrwt>
</event>
<event>
 4    1  0.3057048E-007  0.1177108E+04  0.7818608E-02  0.9179703E-01
         -2   -1    0    0    0  501 -0.00000000000E+00  0.00000000000E+00  0.12348242857E+04  0.12348242857E+04  0.25500000000E-02 0.  1.
          2   -1    0    0  501    0  0.00000000000E+00 -0.00000000000E+00 -0.14703120270E+04  0.14703120270E+04  0.25500000000E-02 0. -1.
    8880023    1    1    2    0    0 -0.56217335774E+03 -0.79732914446E+03 -0.92807492520E+03  0.14989682858E+04  0.65864270000E+03 0.  0.
    8880022    1    1    2    0    0  0.56217335774E+03  0.79732914446E+03  0.69258718392E+03  0.12061680269E+04  0.15294330000E+03 0.  0.
<mgrwt>
<rscale>  0 0.11265408E+04</rscale>
<asrwt>0</asrwt>
<pdfrwt beam="1">  1        2 0.22620185E+00 0.11771078E+04</pdfrwt>
<pdfrwt beam="2">  1       -2 0.18997297E+00 0.11771078E+04</pdfrwt>
<totfact> 0.19899557E+00</totfact>
</mgrwt>
</event>
<event>
 4    1  0.3101846E-007  0.6759748E+03  0.7818608E-02  0.1011699E+00
         -2   -1    0    0    0  501 -0.00000000000E+00  0.00000000000E+00  0.97492324515E+03  0.97492324515E+03  0.25500000000E-02 0.  1.
          2   -1    0    0  501    0  0.00000000000E+00 -0.00000000000E+00 -0.15195796281E+04  0.15195796281E+04  0.25500000000E-02 0. -1.
    8880023    1    1    2    0    0  0.14374141693E+03  0.49700084599E+02  0.84844393320E+03  0.10848036723E+04  0.65864270000E+03 0.  1.
    8880022    1    1    2    0    0 -0.14374141693E+03 -0.49700084599E+02 -0.13931003161E+04  0.14096992009E+04  0.15294330000E+03 0.  0.
<mgrwt>
<rscale>  0 0.50805033E+03</rscale>
<asrwt>0</asrwt>
<pdfrwt beam="1">  1        2 0.23378148E+00 0.67597478E+03</pdfrwt>
<pdfrwt beam="2">  1       -2 0.14998819E+00 0.67597478E+03</pdfrwt>
<totfact> 0.38558521E+00</totfact>
</mgrwt>
</event>
<event>
 4    1  0.3057048E-007  0.6660271E+03  0.7818608E-02  0.1018687E+00
         -2   -1    0    0    0  501 -0.00000000000E+00  0.00000000000E+00  0.85919972064E+02  0.85919972102E+02  0.25500000000E-02 0.  1.
          2   -1    0    0  501    0  0.00000000000E+00 -0.00000000000E+00 -0.20974594600E+04  0.20974594600E+04  0.25500000000E-02 0. -1.
    8880023    1    1    2    0    0  0.29536859370E+02 -0.94390277856E+02 -0.16189615735E+04  0.17506081039E+04  0.65864270000E+03 0.  0.
    8880022    1    1    2    0    0 -0.29536859370E+02  0.94390277856E+02 -0.39257791434E+03  0.43277132814E+03  0.15294330000E+03 0. -1.
<mgrwt>
<rscale>  0 0.48163499E+03</rscale>
<asrwt>0</asrwt>
<pdfrwt beam="1">  1        2 0.32268603E+00 0.66602714E+03</pdfrwt>
<pdfrwt beam="2">  1       -2 0.13218459E-01 0.66602714E+03</pdfrwt>
<totfact> 0.26414229E+02</totfact>
</mgrwt>
</event>
<event>
 4    1  0.3057048E-007  0.8460456E+03  0.7818608E-02  0.9618884E-01
          2   -1    0    0  501    0  0.00000000000E+00  0.00000000000E+00  0.18058273736E+04  0.18058273736E+04  0.25500000000E-02 0. -1.
         -2   -1    0    0    0  501 -0.00000000000E+00 -0.00000000000E+00 -0.50099860738E+03  0.50099860739E+03  0.25500000000E-02 0.  1.
    8880023    1    1    2    0    0 -0.45604686489E+03  0.27203714797E+03 -0.46040952315E+02  0.84729742618E+03  0.65864270000E+03 0.  1.
    8880022    1    1    2    0    0  0.45604686489E+03 -0.27203714797E+03  0.13508697185E+04  0.14595285548E+04  0.15294330000E+03 0.  0.
<mgrwt>
<rscale>  0 0.76058796E+03</rscale>
<asrwt>0</asrwt>
<pdfrwt beam="1">  1        2 0.27781959E+00 0.84604560E+03</pdfrwt>
<pdfrwt beam="2">  1       -2 0.77076709E-01 0.84604560E+03</pdfrwt>
<totfact> 0.13096318E+01</totfact>
</mgrwt>
</event>
<event>
 4    1  0.3057048E-007  0.8016989E+03  0.7818608E-02  0.9707135E-01
         -2   -1    0    0    0  501 -0.00000000000E+00  0.00000000000E+00  0.61174649085E+03  0.61174649086E+03  0.25500000000E-02 0.  1.
          2   -1    0    0  501    0  0.00000000000E+00 -0.00000000000E+00 -0.14609257901E+04  0.14609257901E+04  0.25500000000E-02 0. -1.
    8880023    1    1    2    0    0  0.44137994306E+03 -0.11872125305E+03  0.27658700590E+03  0.84806931801E+03  0.65864270000E+03 0.  1.
    8880022    1    1    2    0    0 -0.44137994306E+03  0.11872125305E+03 -0.11257663051E+04  0.12246029629E+04  0.15294330000E+03 0.  0.
<mgrwt>
<rscale>  0 0.70593587E+03</rscale>
<asrwt>0</asrwt>
<pdfrwt beam="1">  1        2 0.22475781E+00 0.80169894E+03</pdfrwt>
<pdfrwt beam="2">  1       -2 0.94114845E-01 0.80169894E+03</pdfrwt>
<totfact> 0.12942933E+01</totfact>
</mgrwt>
</event>
<event>
 4    1  0.3057048E-007  0.9165850E+03  0.7818608E-02  0.9499915E-01
          2   -1    0    0  501    0  0.00000000000E+00  0.00000000000E+00  0.11194517620E+04  0.11194517620E+04  0.25500000000E-02 0. -1.
         -2   -1    0    0    0  501 -0.00000000000E+00 -0.00000000000E+00 -0.17135267161E+04  0.17135267161E+04  0.25500000000E-02 0.  1.
    8880023    1    1    2    0    0 -0.57232263064E+03  0.28065039895E+03 -0.14739856310E+04  0.17357308797E+04  0.65864270000E+03 0.  0.
    8880022    1    1    2    0    0  0.57232263064E+03 -0.28065039895E+03  0.87991067688E+03  0.10972475984E+04  0.15294330000E+03 0.  0.
<mgrwt>
<rscale>  0 0.84290072E+03</rscale>
<asrwt>0</asrwt>
<pdfrwt beam="1">  1        2 0.17222335E+00 0.91658499E+03</pdfrwt>
<pdfrwt beam="2">  1       -2 0.26361949E+00 0.91658499E+03</pdfrwt>
<totfact> 0.11355240E+00</totfact>
</mgrwt>
</event>
<event>
 4    1  0.3057048E-007  0.8582905E+03  0.7818608E-02  0.9596612E-01
         -2   -1    0    0    0  501 -0.00000000000E+00  0.00000000000E+00  0.19548726454E+03  0.19548726455E+03  0.25500000000E-02 0.  1.
          2   -1    0    0  501    0  0.00000000000E+00 -0.00000000000E+00 -0.36328036234E+04  0.36328036234E+04  0.25500000000E-02 0. -1.
    8880023    1    1    2    0    0 -0.13907266592E+02 -0.55014452271E+03 -0.96771129557E+03  0.12934944011E+04  0.65864270000E+03 0.  0.
    8880022    1    1    2    0    0  0.13907266592E+02  0.55014452271E+03 -0.24696050633E+04  0.25347964868E+04  0.15294330000E+03 0.  0.
<mgrwt>
<rscale>  0 0.77520857E+03</rscale>
<asrwt>0</asrwt>
<pdfrwt beam="1">  1        2 0.55889281E+00 0.85829052E+03</pdfrwt>
<pdfrwt beam="2">  1       -2 0.30074966E-01 0.85829052E+03</pdfrwt>
<totfact> 0.71025635E+00</totfact>
</mgrwt>
</event>
<event>
 4    1  0.3057048E-007  0.6806476E+03  0.7818608E-02  0.1008960E+00
          2   -1    0    0  501    0  0.00000000000E+00  0.00000000000E+00  0.17564603599E+04  0.17564603599E+04  0.25500000000E-02 0. -1.
         -2   -1    0    0    0  501 -0.00000000000E+00 -0.00000000000E+00 -0.24658158640E+03  0.24658158642E+03  0.25500000000E-02 0.  1.
    8880023    1    1    2    0    0 -0.13530318221E+03 -0.10566013256E+03  0.25432501233E+03  0.72661023451E+03  0.65864270000E+03 0.  0.
    8880022    1    1    2    0    0  0.13530318221E+03  0.10566013256E+03  0.12555537611E+04  0.12764317118E+04  0.15294330000E+03 0.  0.
<mgrwt>
<rscale>  0 0.51890206E+03</rscale>
<asrwt>0</asrwt>
<pdfrwt beam="1">  1        2 0.27022468E+00 0.68064765E+03</pdfrwt>
<pdfrwt beam="2">  1       -2 0.37935627E-01 0.68064765E+03</pdfrwt>
<totfact> 0.61789821E+01</totfact>
</mgrwt>
</event>
<event>
 4    1  0.3057048E-007  0.8252948E+03  0.7818608E-02  0.9658557E-01
          2   -1    0    0  501    0  0.00000000000E+00  0.00000000000E+00  0.15261942384E+04  0.15261942384E+04  0.25500000000E-02 0. -1.
         -2   -1    0    0    0  501 -0.00000000000E+00 -0.00000000000E+00 -0.45643822195E+03  0.45643822196E+03  0.25500000000E-02 0.  1.
    8880023    1    1    2    0    0 -0.41969589796E+03 -0.26675214650E+03  0.36880621126E+02  0.82611847874E+03  0.65864270000E+03 0.  1.
    8880022    1    1    2    0    0  0.41969589796E+03  0.26675214650E+03  0.10328753953E+04  0.11565139816E+04  0.15294330000E+03 0.  0.
<mgrwt>
<rscale>  0 0.73538789E+03</rscale>
<asrwt>0</asrwt>
<pdfrwt beam="1">  1        2 0.23479912E+00 0.82529483E+03</pdfrwt>
<pdfrwt beam="2">  1       -2 0.70221263E-01 0.82529483E+03</pdfrwt>
<totfact> 0.22999564E+01</totfact>
</mgrwt>
</event>
<event>
 4    1  0.3057048E-007  0.7260955E+03  0.7818608E-02  0.9902476E-01
         -2   -1    0    0    0  501 -0.00000000000E+00  0.00000000000E+00  0.26973735073E+03  0.26973735075E+03  0.25500000000E-02 0.  1.
          2   -1    0    0  501    0  0.00000000000E+00 -0.00000000000E+00 -0.18361122203E+04  0.18361122203E+04  0.25500000000E-02 0. -1.
    8880023    1    1    2    0    0 -0.30469303349E+03  0.23802505978E+02 -0.28557005500E+03  0.78023385374E+03  0.65864270000E+03 0.  1.
    8880022    1    1    2    0    0  0.30469303349E+03 -0.23802505978E+02 -0.12808048145E+04  0.13256157173E+04  0.15294330000E+03 0.  0.
<mgrwt>
<rscale>  0 0.60141438E+03</rscale>
<asrwt>0</asrwt>
<pdfrwt beam="1">  1        2 0.28247880E+00 0.72609546E+03</pdfrwt>
<pdfrwt beam="2">  1       -2 0.41498055E-01 0.72609546E+03</pdfrwt>
<totfact> 0.46703013E+01</totfact>
</mgrwt>
</event>
<event>
 4    1  0.3057048E-007  0.7613478E+03  0.7818608E-02  0.9801631E-01
         -2   -1    0    0    0  501 -0.00000000000E+00  0.00000000000E+00  0.16501538304E+03  0.16501538306E+03  0.25500000000E-02 0.  1.
          2   -1    0    0  501    0  0.00000000000E+00 -0.00000000000E+00 -0.24044200803E+04  0.24044200803E+04  0.25500000000E-02 0. -1.
    8880023    1    1    2    0    0 -0.38065174545E+03  0.30731820663E+02 -0.95843022311E+03  0.12240256921E+04  0.65864270000E+03 0.  0.
    8880022    1    1    2    0    0  0.38065174545E+03 -0.30731820663E+02 -0.12809744741E+04  0.13454097712E+04  0.15294330000E+03 0.  0.
<mgrwt>
<rscale>  0 0.65275103E+03</rscale>
<asrwt>0</asrwt>
<pdfrwt beam="1">  1        2 0.36991076E+00 0.76134775E+03</pdfrwt>
<pdfrwt beam="2">  1       -2 0.25386984E-01 0.76134775E+03</pdfrwt>
<totfact> 0.57094851E+01</totfact>
</mgrwt>
</event>
<event>
 4    1  0.3057048E-007  0.6602864E+03  0.7818608E-02  0.1023865E+00
          2   -1    0    0  501    0  0.00000000000E+00  0.00000000000E+00  0.26420417184E+04  0.26420417184E+04  0.25500000000E-02 0. -1.
         -2   -1    0    0    0  501 -0.00000000000E+00 -0.00000000000E+00 -0.95086941237E+02  0.95086941271E+02  0.25500000000E-02 0.  1.
    8880023    1    1    2    0    0  0.41561958130E+02 -0.20987567424E+02  0.11117384419E+04  0.12930353606E+04  0.65864270000E+03 0.  1.
    8880022    1    1    2    0    0 -0.41561958130E+02  0.20987567424E+02  0.14352163353E+04  0.14440932991E+04  0.15294330000E+03 0. -1.
<mgrwt>
<rscale>  0 0.46317312E+03</rscale>
<asrwt>0</asrwt>
<pdfrwt beam="1">  1        2 0.40646797E+00 0.66028636E+03</pdfrwt>
<pdfrwt beam="2">  1       -2 0.14628760E-01 0.66028636E+03</pdfrwt>
<totfact> 0.11078009E+02</totfact>
</mgrwt>
</event>
<event>
 4    1  0.3057048E-007  0.8115892E+03  0.7818608E-02  0.9686276E-01
         -2   -1    0    0    0  501 -0.00000000000E+00  0.00000000000E+00  0.12430766861E+04  0.12430766861E+04  0.25500000000E-02 0.  1.
          2   -1    0    0  501    0  0.00000000000E+00 -0.00000000000E+00 -0.94834792754E+03  0.94834792755E+03  0.25500000000E-02 0. -1.
    8880023    1    1    2    0    0 -0.25781654747E+03  0.39799173246E+03  0.10249789556E+04  0.13073862692E+04  0.65864270000E+03 0.  0.
    8880022    1    1    2    0    0  0.25781654747E+03 -0.39799173246E+03 -0.73025019700E+03  0.88403834447E+03  0.15294330000E+03 0.  0.
<mgrwt>
<rscale>  0 0.71839812E+03</rscale>
<asrwt>0</asrwt>
<pdfrwt beam="1">  1        2 0.14589968E+00 0.81158918E+03</pdfrwt>
<pdfrwt beam="2">  1       -2 0.19124257E+00 0.81158918E+03</pdfrwt>
<totfact> 0.41956476E+00</totfact>
</mgrwt>
</event>
<event>
 4    1  0.3057048E-007  0.7955133E+03  0.7818608E-02  0.9720582E-01
          2   -1    0    0  501    0  0.00000000000E+00  0.00000000000E+00  0.10150953271E+04  0.10150953272E+04  0.25500000000E-02 0. -1.
         -2   -1    0    0    0  501 -0.00000000000E+00 -0.00000000000E+00 -0.14623573763E+04  0.14623573763E+04  0.25500000000E-02 0.  1.
    8880023    1    1    2    0    0 -0.29357891986E+01 -0.44611948096E+03 -0.12877709308E+04  0.15136695104E+04  0.65864270000E+03 0.  1.
    8880022    1    1    2    0    0  0.29357891986E+01  0.44611948096E+03  0.84050888164E+03  0.96378319309E+03  0.15294330000E+03 0.  0.
<mgrwt>
<rscale>  0 0.69804435E+03</rscale>
<asrwt>0</asrwt>
<pdfrwt beam="1">  1        2 0.15616851E+00 0.79551330E+03</pdfrwt>
<pdfrwt beam="2">  1       -2 0.22497806E+00 0.79551330E+03</pdfrwt>
<totfact> 0.23135477E+00</totfact>
</mgrwt>
</event>
<event>
 4    1  0.3057048E-007  0.8030655E+03  0.7818608E-02  0.9704207E-01
         -2   -1    0    0    0  501 -0.00000000000E+00  0.00000000000E+00  0.24805138146E+03  0.24805138148E+03  0.25500000000E-02 0.  1.
          2   -1    0    0  501    0  0.00000000000E+00 -0.00000000000E+00 -0.20422587294E+04  0.20422587294E+04  0.25500000000E-02 0. -1.
    8880023    1    1    2    0    0  0.45894552931E+03  0.21748483880E+02 -0.60243559640E+03  0.10039137660E+04  0.65864270000E+03 0.  1.
    8880022    1    1    2    0    0 -0.45894552931E+03 -0.21748483880E+02 -0.11917717516E+04  0.12863963449E+04  0.15294330000E+03 0. -1.
<mgrwt>
<rscale>  0 0.70766884E+03</rscale>
<asrwt>0</asrwt>
<pdfrwt beam="1">  1        2 0.31419364E+00 0.80306550E+03</pdfrwt>
<pdfrwt beam="2">  1       -2 0.38161753E-01 0.80306550E+03</pdfrwt>
<totfact> 0.42059223E+01</totfact>
</mgrwt>
</event>
<event>
 4    1  0.3057048E-007  0.7311467E+03  0.7818608E-02  0.9886530E-01
          2   -1    0    0  501    0  0.00000000000E+00  0.00000000000E+00  0.40312604332E+03  0.40312604333E+03  0.25500000000E-02 0. -1.
         -2   -1    0    0    0  501 -0.00000000000E+00 -0.00000000000E+00 -0.16049584773E+04  0.16049584773E+04  0.25500000000E-02 0.  1.
    8880023    1    1    2    0    0  0.12352905244E+03  0.29241391818E+03 -0.14175055220E+04  0.15949600112E+04  0.65864270000E+03 0.  1.
    8880022    1    1    2    0    0 -0.12352905244E+03 -0.29241391818E+03  0.21567308801E+03  0.41312450938E+03  0.15294330000E+03 0.  0.
<mgrwt>
<rscale>  0 0.60918583E+03</rscale>
<asrwt>0</asrwt>
<pdfrwt beam="1">  1        2 0.62019392E-01 0.73114672E+03</pdfrwt>
<pdfrwt beam="2">  1       -2 0.24691668E+00 0.73114672E+03</pdfrwt>
<totfact> 0.54510328E+00</totfact>
</mgrwt>
</event>
<event>
 4    1  0.3057048E-007  0.8382224E+03  0.7818608E-02  0.9633541E-01
         -2   -1    0    0    0  501 -0.00000000000E+00  0.00000000000E+00  0.50504613798E+03  0.50504613799E+03  0.25500000000E-02 0.  1.
          2   -1    0    0  501    0  0.00000000000E+00 -0.00000000000E+00 -0.28208183082E+04  0.28208183082E+04  0.25500000000E-02 0. -1.
    8880023    1    1    2    0    0  0.45576053563E+03 -0.24716169869E+03  0.10563683109E+03  0.84485260104E+03  0.65864270000E+03 0.  0.
    8880022    1    1    2    0    0 -0.45576053563E+03  0.24716169869E+03 -0.24214090013E+04  0.24810118452E+04  0.15294330000E+03 0.  0.
<mgrwt>
<rscale>  0 0.75115427E+03</rscale>
<asrwt>0</asrwt>
<pdfrwt beam="1">  1        2 0.43397204E+00 0.83822239E+03</pdfrwt>
<pdfrwt beam="2">  1       -2 0.77699407E-01 0.83822239E+03</pdfrwt>
<totfact> 0.34590464E+00</totfact>
</mgrwt>
</event>
<event>
 4    1  0.3057048E-007  0.7041688E+03  0.7818608E-02  0.9980328E-01
          2   -1    0    0  501    0  0.00000000000E+00  0.00000000000E+00  0.10077905723E+04  0.10077905723E+04  0.25500000000E-02 0. -1.
         -2   -1    0    0    0  501 -0.00000000000E+00 -0.00000000000E+00 -0.28889339917E+03  0.28889339918E+03  0.25500000000E-02 0.  1.
    8880023    1    1    2    0    0  0.21826809245E+03 -0.12001076114E+03  0.25606417666E+03  0.74928139694E+03  0.65864270000E+03 0.  0.
    8880022    1    1    2    0    0 -0.21826809245E+03  0.12001076114E+03  0.46283299645E+03  0.54740257452E+03  0.15294330000E+03 0.  0.
<mgrwt>
<rscale>  0 0.56521308E+03</rscale>
<asrwt>0</asrwt>
<pdfrwt beam="1">  1        2 0.15504470E+00 0.70416884E+03</pdfrwt>
<pdfrwt beam="2">  1       -2 0.44445139E-01 0.70416884E+03</pdfrwt>
<totfact> 0.12146682E+02</totfact>
</mgrwt>
</event>
<event>
 4    1  0.3057048E-007  0.8480538E+03  0.7818608E-02  0.9615177E-01
         -2   -1    0    0    0  501 -0.00000000000E+00  0.00000000000E+00  0.39339828536E+03  0.39339828537E+03  0.25500000000E-02 0.  1.
          2   -1    0    0  501    0  0.00000000000E+00 -0.00000000000E+00 -0.20252740868E+04  0.20252740868E+04  0.25500000000E-02 0. -1.
    8880023    1    1    2    0    0 -0.15538120178E+03  0.51111803962E+03 -0.18394190700E+03  0.86777289639E+03  0.65864270000E+03 0.  0.
    8880022    1    1    2    0    0  0.15538120178E+03 -0.51111803962E+03 -0.14479338944E+04  0.15508994758E+04  0.15294330000E+03 0.  0.
<mgrwt>
<rscale>  0 0.76299745E+03</rscale>
<asrwt>0</asrwt>
<pdfrwt beam="1">  1        2 0.31158062E+00 0.84805376E+03</pdfrwt>
<pdfrwt beam="2">  1       -2 0.60522814E-01 0.84805376E+03</pdfrwt>
<totfact> 0.16801826E+01</totfact>
</mgrwt>
</event>
<event>
 4    1  0.3057048E-007  0.9499733E+03  0.7818608E-02  0.9450152E-01
         -2   -1    0    0    0  501 -0.00000000000E+00  0.00000000000E+00  0.55977605544E+03  0.55977605545E+03  0.25500000000E-02 0.  1.
          2   -1    0    0  501    0  0.00000000000E+00 -0.00000000000E+00 -0.16341442240E+04  0.16341442240E+04  0.25500000000E-02 0. -1.
    8880023    1    1    2    0    0  0.44950865493E+03 -0.51631487532E+03 -0.48556521658E+02  0.95121344786E+03  0.65864270000E+03 0.  0.
    8880022    1    1    2    0    0 -0.44950865493E+03  0.51631487532E+03 -0.10258116469E+04  0.12427068316E+04  0.15294330000E+03 0.  0.
<mgrwt>
<rscale>  0 0.88060791E+03</rscale>
<asrwt>0</asrwt>
<pdfrwt beam="1">  1        2 0.25140680E+00 0.94997331E+03</pdfrwt>
<pdfrwt beam="2">  1       -2 0.86119394E-01 0.94997331E+03</pdfrwt>
<totfact> 0.12515618E+01</totfact>
</mgrwt>
</event>
<event>
 4    1  0.3057048E-007  0.8129012E+03  0.7818608E-02  0.9683565E-01
         -2   -1    0    0    0  501 -0.00000000000E+00  0.00000000000E+00  0.71731135503E+03  0.71731135504E+03  0.25500000000E-02 0.  1.
          2   -1    0    0  501    0  0.00000000000E+00 -0.00000000000E+00 -0.15138250800E+04  0.15138250800E+04  0.25500000000E-02 0. -1.
    8880023    1    1    2    0    0  0.35613447462E+03  0.31649066411E+03  0.42053364757E+03  0.91523595837E+03  0.65864270000E+03 0.  0.
    8880022    1    1    2    0    0 -0.35613447462E+03 -0.31649066411E+03 -0.12170473725E+04  0.13159004766E+04  0.15294330000E+03 0.  0.
<mgrwt>
<rscale>  0 0.72003794E+03</rscale>
<asrwt>0</asrwt>
<pdfrwt beam="1">  1        2 0.23289617E+00 0.81290117E+03</pdfrwt>
<pdfrwt beam="2">  1       -2 0.11035559E+00 0.81290117E+03</pdfrwt>
<totfact> 0.82618530E+00</totfact>
</mgrwt>
</event>
<event>
 4    1  0.3057048E-007  0.6697373E+03  0.7818608E-02  0.1015852E+00
          2   -1    0    0  501    0  0.00000000000E+00  0.00000000000E+00  0.12790428200E+04  0.12790428200E+04  0.25500000000E-02 0. -1.
         -2   -1    0    0    0  501 -0.00000000000E+00 -0.00000000000E+00 -0.26308526757E+03  0.26308526758E+03  0.25500000000E-02 0.  1.
    8880023    1    1    2    0    0 -0.55429095851E+02 -0.10800686274E+03  0.19396326516E+03  0.69725879095E+03  0.65864270000E+03 0.  1.
    8880022    1    1    2    0    0  0.55429095851E+02  0.10800686274E+03  0.82199428725E+03  0.84486929661E+03  0.15294330000E+03 0.  0.
<mgrwt>
<rscale>  0 0.49213703E+03</rscale>
<asrwt>0</asrwt>
<pdfrwt beam="1">  1        2 0.19677582E+00 0.66973732E+03</pdfrwt>
<pdfrwt beam="2">  1       -2 0.40474657E-01 0.66973732E+03</pdfrwt>
<totfact> 0.10053654E+02</totfact>
</mgrwt>
</event>
<event>
 4    1  0.3057048E-007  0.6841523E+03  0.7818608E-02  0.1007066E+00
          2   -1    0    0  501    0  0.00000000000E+00  0.00000000000E+00  0.23763938935E+04  0.23763938935E+04  0.25500000000E-02 0. -1.
         -2   -1    0    0    0  501 -0.00000000000E+00 -0.00000000000E+00 -0.11200451967E+03  0.11200451970E+03  0.25500000000E-02 0.  1.
    8880023    1    1    2    0    0 -0.64603929670E+02 -0.17343742274E+03  0.10693424453E+04  0.12694714171E+04  0.65864270000E+03 0.  1.
    8880022    1    1    2    0    0  0.64603929670E+02  0.17343742274E+03  0.11950469285E+04  0.12189269960E+04  0.15294330000E+03 0.  0.
<mgrwt>
<rscale>  0 0.52657547E+03</rscale>
<asrwt>0</asrwt>
<pdfrwt beam="1">  1        2 0.36559905E+00 0.68415233E+03</pdfrwt>
<pdfrwt beam="2">  1       -2 0.17231465E-01 0.68415233E+03</pdfrwt>
<totfact> 0.11820773E+02</totfact>
</mgrwt>
</event>
<event>
 4    1  0.3057048E-007  0.1159205E+04  0.7818608E-02  0.9197835E-01
          2   -1    0    0  501    0  0.00000000000E+00  0.00000000000E+00  0.31700192312E+04  0.31700192312E+04  0.25500000000E-02 0. -1.
         -2   -1    0    0    0  501 -0.00000000000E+00 -0.00000000000E+00 -0.57516095842E+03  0.57516095842E+03  0.25500000000E-02 0.  1.
    8880023    1    1    2    0    0  0.71867873126E+03  0.62725426722E+03  0.21805565251E+03  0.11795361412E+04  0.65864270000E+03 0.  0.
    8880022    1    1    2    0    0 -0.71867873126E+03 -0.62725426722E+03  0.23768026202E+04  0.25656440484E+04  0.15294330000E+03 0.  0.
<mgrwt>
<rscale>  0 0.11075803E+04</rscale>
<asrwt>0</asrwt>
<pdfrwt beam="1">  1        2 0.48769527E+00 0.11592054E+04</pdfrwt>
<pdfrwt beam="2">  1       -2 0.88486301E-01 0.11592054E+04</pdfrwt>
<totfact> 0.14918354E+00</totfact>
</mgrwt>
</event>
<event>
 4    1  0.3057048E-007  0.6751058E+03  0.7818608E-02  0.1012240E+00
         -2   -1    0    0    0  501 -0.00000000000E+00  0.00000000000E+00  0.56654648556E+03  0.56654648556E+03  0.25500000000E-02 0.  1.
          2   -1    0    0  501    0  0.00000000000E+00 -0.00000000000E+00 -0.10112371555E+04  0.10112371555E+04  0.25500000000E-02 0. -1.
    8880023    1    1    2    0    0  0.13255661856E+03 -0.66230131007E+02  0.34621899365E+03  0.75870645523E+03  0.65864270000E+03 0.  1.
    8880022    1    1    2    0    0 -0.13255661856E+03  0.66230131007E+02 -0.79090966355E+03  0.81907718580E+03  0.15294330000E+03 0.  0.
<mgrwt>
<rscale>  0 0.50594146E+03</rscale>
<asrwt>0</asrwt>
<pdfrwt beam="1">  1        2 0.15557495E+00 0.67510584E+03</pdfrwt>
<pdfrwt beam="2">  1       -2 0.87160998E-01 0.67510584E+03</pdfrwt>
<totfact> 0.28867251E+01</totfact>
</mgrwt>
</event>
<event>
 4    1  0.3057048E-007  0.9080690E+03  0.7818608E-02  0.9513200E-01
          2   -1    0    0  501    0  0.00000000000E+00  0.00000000000E+00  0.11639027283E+04  0.11639027283E+04  0.25500000000E-02 0. -1.
         -2   -1    0    0    0  501 -0.00000000000E+00 -0.00000000000E+00 -0.12163171835E+04  0.12163171835E+04  0.25500000000E-02 0.  1.
    8880023    1    1    2    0    0 -0.60915360110E+03  0.14039558949E+03 -0.92483482267E+03  0.12961129144E+04  0.65864270000E+03 0.  0.
    8880022    1    1    2    0    0  0.60915360110E+03 -0.14039558949E+03  0.87242036749E+03  0.10841069974E+04  0.15294330000E+03 0.  0.
<mgrwt>
<rscale>  0 0.83317560E+03</rscale>
<asrwt>0</asrwt>
<pdfrwt beam="1">  1        2 0.17906196E+00 0.90806896E+03</pdfrwt>
<pdfrwt beam="2">  1       -2 0.18712572E+00 0.90806896E+03</pdfrwt>
<totfact> 0.32353111E+00</totfact>
</mgrwt>
</event>
<event>
 4    1  0.3057048E-007  0.7641810E+03  0.7818608E-02  0.9794401E-01
          2   -1    0    0  501    0  0.00000000000E+00  0.00000000000E+00  0.25332068154E+03  0.25332068156E+03  0.25500000000E-02 0. -1.
         -2   -1    0    0    0  501 -0.00000000000E+00 -0.00000000000E+00 -0.16007488424E+04  0.16007488425E+04  0.25500000000E-02 0.  1.
    8880023    1    1    2    0    0 -0.38588102988E+03 -0.35471161913E+02 -0.11783879182E+04  0.14044823476E+04  0.65864270000E+03 0.  1.
    8880022    1    1    2    0    0  0.38588102988E+03  0.35471161913E+02 -0.16904024266E+03  0.44958717642E+03  0.15294330000E+03 0.  0.
<mgrwt>
<rscale>  0 0.65663875E+03</rscale>
<asrwt>0</asrwt>
<pdfrwt beam="1">  1        2 0.38972414E-01 0.76418099E+03</pdfrwt>
<pdfrwt beam="2">  1       -2 0.24626905E+00 0.76418099E+03</pdfrwt>
<totfact> 0.92028099E+00</totfact>
</mgrwt>
</event>
<event>
 4    1  0.3057048E-007  0.7446849E+03  0.7818608E-02  0.9846505E-01
         -2   -1    0    0    0  501 -0.00000000000E+00  0.00000000000E+00  0.76535284974E+03  0.76535284974E+03  0.25500000000E-02 0.  1.
          2   -1    0    0  501    0  0.00000000000E+00 -0.00000000000E+00 -0.11739303050E+04  0.11739303050E+04  0.25500000000E-02 0. -1.
    8880023    1    1    2    0    0  0.25427570486E+03 -0.23683158582E+03  0.53847112808E+03  0.91897045446E+03  0.65864270000E+03 0.  1.
    8880022    1    1    2    0    0 -0.25427570486E+03  0.23683158582E+03 -0.94704858335E+03  0.10203127003E+04  0.15294330000E+03 0.  0.
<mgrwt>
<rscale>  0 0.62925449E+03</rscale>
<asrwt>0</asrwt>
<pdfrwt beam="1">  1        2 0.18060466E+00 0.74468486E+03</pdfrwt>
<pdfrwt beam="2">  1       -2 0.11774659E+00 0.74468486E+03</pdfrwt>
<totfact> 0.11146500E+01</totfact>
</mgrwt>
</event>
<event>
 4    1  0.3057048E-007  0.8063310E+03  0.7818608E-02  0.9697271E-01
         -2   -1    0    0    0  501 -0.00000000000E+00  0.00000000000E+00  0.20287653994E+04  0.20287653994E+04  0.25500000000E-02 0.  1.
          2   -1    0    0  501    0  0.00000000000E+00 -0.00000000000E+00 -0.77347949542E+03  0.77347949542E+03  0.25500000000E-02 0. -1.
    8880023    1    1    2    0    0 -0.30646000328E+03 -0.34991668453E+03  0.18581667647E+04  0.20255748200E+04  0.65864270000E+03 0.  1.
    8880022    1    1    2    0    0  0.30646000328E+03  0.34991668453E+03 -0.60288086078E+03  0.77667007476E+03  0.15294330000E+03 0.  0.
<mgrwt>
<rscale>  0 0.71179523E+03</rscale>
<asrwt>0</asrwt>
<pdfrwt beam="1">  1        2 0.11899684E+00 0.80633097E+03</pdfrwt>
<pdfrwt beam="2">  1       -2 0.31211776E+00 0.80633097E+03</pdfrwt>
<totfact> 0.99986561E-01</totfact>
</mgrwt>
</event>
<event>
 4    1  0.3057048E-007  0.7363010E+03  0.7818608E-02  0.9870856E-01
          2   -1    0    0  501    0  0.00000000000E+00  0.00000000000E+00  0.55545007813E+03  0.55545007813E+03  0.25500000000E-02 0. -1.
         -2   -1    0    0    0  501 -0.00000000000E+00 -0.00000000000E+00 -0.91164347744E+03  0.91164347745E+03  0.25500000000E-02 0.  1.
    8880023    1    1    2    0    0  0.28480482727E+03  0.16497031760E+03 -0.66379357022E+03  0.99134308161E+03  0.65864270000E+03 0.  1.
    8880022    1    1    2    0    0 -0.28480482727E+03 -0.16497031760E+03  0.30760017090E+03  0.47575047397E+03  0.15294330000E+03 0.  0.
<mgrwt>
<rscale>  0 0.61694761E+03</rscale>
<asrwt>0</asrwt>
<pdfrwt beam="1">  1        2 0.85453858E-01 0.73630103E+03</pdfrwt>
<pdfrwt beam="2">  1       -2 0.14025284E+00 0.73630103E+03</pdfrwt>
<totfact> 0.19736340E+01</totfact>
</mgrwt>
</event>
<event>
 4    1  0.3057048E-007  0.6664754E+03  0.7818608E-02  0.1018326E+00
          2   -1    0    0  501    0  0.00000000000E+00  0.00000000000E+00  0.55660098481E+03  0.55660098481E+03  0.25500000000E-02 0. -1.
         -2   -1    0    0    0  501 -0.00000000000E+00 -0.00000000000E+00 -0.79465161217E+03  0.79465161218E+03  0.25500000000E-02 0.  1.
    8880023    1    1    2    0    0 -0.98254065488E+02  0.26932913482E+02 -0.63078582663E+03  0.91764928407E+03  0.65864270000E+03 0.  1.
    8880022    1    1    2    0    0  0.98254065488E+02 -0.26932913482E+02  0.39273519927E+03  0.43360331292E+03  0.15294330000E+03 0.  0.
<mgrwt>
<rscale>  0 0.48295416E+03</rscale>
<asrwt>0</asrwt>
<pdfrwt beam="1">  1        2 0.85630920E-01 0.66647539E+03</pdfrwt>
<pdfrwt beam="2">  1       -2 0.12225410E+00 0.66647539E+03</pdfrwt>
<totfact> 0.28063393E+01</totfact>
</mgrwt>
</event>
<event>
 4    1  0.3057048E-007  0.6709601E+03  0.7818608E-02  0.1014984E+00
          2   -1    0    0  501    0  0.00000000000E+00  0.00000000000E+00  0.26346413011E+04  0.26346413011E+04  0.25500000000E-02 0. -1.
         -2   -1    0    0    0  501 -0.00000000000E+00 -0.00000000000E+00 -0.91717234619E+02  0.91717234655E+02  0.25500000000E-02 0.  1.
    8880023    1    1    2    0    0 -0.20312190277E+02 -0.12635120411E+03  0.12551203730E+04  0.14232057366E+04  0.65864270000E+03 0.  1.
    8880022    1    1    2    0    0  0.20312190277E+02  0.12635120411E+03  0.12878036935E+04  0.13031527991E+04  0.15294330000E+03 0.  0.
<mgrwt>
<rscale>  0 0.49541073E+03</rscale>
<asrwt>0</asrwt>
<pdfrwt beam="1">  1        2 0.40532940E+00 0.67096007E+03</pdfrwt>
<pdfrwt beam="2">  1       -2 0.14110345E-01 0.67096007E+03</pdfrwt>
<totfact> 0.11869543E+02</totfact>
</mgrwt>
</event>
<event>
 4    1  0.3057048E-007  0.7132351E+03  0.7818608E-02  0.9946178E-01
         -2   -1    0    0    0  501 -0.00000000000E+00  0.00000000000E+00  0.43791320740E+03  0.43791320740E+03  0.25500000000E-02 0.  1.
          2   -1    0    0  501    0  0.00000000000E+00 -0.00000000000E+00 -0.18898056177E+04  0.18898056177E+04  0.25500000000E-02 0. -1.
    8880023    1    1    2    0    0  0.90442565540E+02  0.25829108636E+03  0.12140143188E+03  0.72349337031E+03  0.65864270000E+03 0.  1.
    8880022    1    1    2    0    0 -0.90442565540E+02 -0.25829108636E+03 -0.15732938421E+04  0.16042254548E+04  0.15294330000E+03 0.  0.
<mgrwt>
<rscale>  0 0.58074555E+03</rscale>
<asrwt>0</asrwt>
<pdfrwt beam="1">  1        2 0.29073932E+00 0.71323513E+03</pdfrwt>
<pdfrwt beam="2">  1       -2 0.67371264E-01 0.71323513E+03</pdfrwt>
<totfact> 0.16127347E+01</totfact>
</mgrwt>
</event>
<event>
 4    1  0.3057048E-007  0.6909486E+03  0.7818608E-02  0.1003705E+00
          2   -1    0    0  501    0  0.00000000000E+00  0.00000000000E+00  0.24957827618E+04  0.24957827618E+04  0.25500000000E-02 0. -1.
         -2   -1    0    0    0  501 -0.00000000000E+00 -0.00000000000E+00 -0.10844349705E+03  0.10844349708E+03  0.25500000000E-02 0.  1.
    8880023    1    1    2    0    0  0.88403497454E+02  0.18916824710E+03  0.11624892295E+04  0.13523280737E+04  0.65864270000E+03 0.  1.
    8880022    1    1    2    0    0 -0.88403497454E+02 -0.18916824710E+03  0.12248500353E+04  0.12518981852E+04  0.15294330000E+03 0.  0.
<mgrwt>
<rscale>  0 0.54055109E+03</rscale>
<asrwt>0</asrwt>
<pdfrwt beam="1">  1        2 0.38396660E+00 0.69094863E+03</pdfrwt>
<pdfrwt beam="2">  1       -2 0.16683614E-01 0.69094863E+03</pdfrwt>
<totfact> 0.10697251E+02</totfact>
</mgrwt>
</event>
<event>
 4    1  0.3057048E-007  0.8129975E+03  0.7818608E-02  0.9683367E-01
          2   -1    0    0  501    0  0.00000000000E+00  0.00000000000E+00  0.14995719489E+04  0.14995719489E+04  0.25500000000E-02 0. -1.
         -2   -1    0    0    0  501 -0.00000000000E+00 -0.00000000000E+00 -0.58893992667E+03  0.58893992668E+03  0.25500000000E-02 0.  1.
    8880023    1    1    2    0    0 -0.17136264983E+03  0.44473544798E+03 -0.22829728810E+03  0.84444338737E+03  0.65864270000E+03 0.  0.
    8880022    1    1    2    0    0  0.17136264983E+03 -0.44473544798E+03  0.11389293104E+04  0.12440684883E+04  0.15294330000E+03 0.  0.
<mgrwt>
<rscale>  0 0.72015826E+03</rscale>
<asrwt>0</asrwt>
<pdfrwt beam="1">  1        2 0.23070337E+00 0.81299753E+03</pdfrwt>
<pdfrwt beam="2">  1       -2 0.90606144E-01 0.81299753E+03</pdfrwt>
<totfact> 0.13432427E+01</totfact>
</mgrwt>
</event>
<event>
 4    1  0.3057048E-007  0.6686974E+03  0.7818608E-02  0.1016614E+00
         -2   -1    0    0    0  501 -0.00000000000E+00  0.00000000000E+00  0.35964802262E+03  0.35964802263E+03  0.25500000000E-02 0.  1.
          2   -1    0    0  501    0  0.00000000000E+00 -0.00000000000E+00 -0.16538769542E+04  0.16538769542E+04  0.25500000000E-02 0. -1.
    8880023    1    1    2    0    0  0.10847695897E+03 -0.39733662228E+02  0.35896933266E+02  0.66966022028E+03  0.65864270000E+03 0.  1.
    8880022    1    1    2    0    0 -0.10847695897E+03  0.39733662228E+02 -0.13301258648E+04  0.13438647565E+04  0.15294330000E+03 0.  0.
<mgrwt>
<rscale>  0 0.48928418E+03</rscale>
<asrwt>0</asrwt>
<pdfrwt beam="1">  1        2 0.25444260E+00 0.66869741E+03</pdfrwt>
<pdfrwt beam="2">  1       -2 0.55330466E-01 0.66869741E+03</pdfrwt>
<totfact> 0.33102436E+01</totfact>
</mgrwt>
</event>
<event>
 4    1  0.3057048E-007  0.9047648E+03  0.7818608E-02  0.9518425E-01
         -2   -1    0    0    0  501 -0.00000000000E+00  0.00000000000E+00  0.79761776907E+03  0.79761776907E+03  0.25500000000E-02 0.  1.
          2   -1    0    0  501    0  0.00000000000E+00 -0.00000000000E+00 -0.11090516123E+04  0.11090516123E+04  0.25500000000E-02 0. -1.
    8880023    1    1    2    0    0 -0.36204762651E+03 -0.50369696792E+03 -0.71310279563E+03  0.11520047408E+04  0.65864270000E+03 0. -1.
    8880022    1    1    2    0    0  0.36204762651E+03  0.50369696792E+03  0.40166895244E+03  0.75466464056E+03  0.15294330000E+03 0.  0.
<mgrwt>
<rscale>  0 0.82938912E+03</rscale>
<asrwt>0</asrwt>
<pdfrwt beam="1">  1        2 0.17062333E+00 0.90476479E+03</pdfrwt>
<pdfrwt beam="2">  1       -2 0.12271043E+00 0.90476479E+03</pdfrwt>
<totfact> 0.10816653E+01</totfact>
</mgrwt>
</event>
<event>
 4    1  0.3057048E-007  0.7902203E+03  0.7818608E-02  0.9732355E-01
          2   -1    0    0  501    0  0.00000000000E+00  0.00000000000E+00  0.45547577199E+03  0.45547577199E+03  0.25500000000E-02 0. -1.
         -2   -1    0    0    0  501 -0.00000000000E+00 -0.00000000000E+00 -0.22698060995E+04  0.22698060995E+04  0.25500000000E-02 0.  1.
    8880023    1    1    2    0    0 -0.43325319420E+03  0.54125714751E+02 -0.20565002523E+04  0.22030981407E+04  0.65864270000E+03 0.  1.
    8880022    1    1    2    0    0  0.43325319420E+03 -0.54125714751E+02  0.24216992479E+03  0.52218373086E+03  0.15294330000E+03 0.  0.
<mgrwt>
<rscale>  0 0.69122647E+03</rscale>
<asrwt>0</asrwt>
<pdfrwt beam="1">  1        2 0.70073197E-01 0.79022030E+03</pdfrwt>
<pdfrwt beam="2">  1       -2 0.34920093E+00 0.79022030E+03</pdfrwt>
<totfact> 0.11296952E+00</totfact>
</mgrwt>
</event>
<event>
 4    1  0.3057048E-007  0.7427116E+03  0.7818608E-02  0.9852118E-01
          2   -1    0    0  501    0  0.00000000000E+00  0.00000000000E+00  0.39597605698E+03  0.39597605699E+03  0.25500000000E-02 0. -1.
         -2   -1    0    0    0  501 -0.00000000000E+00 -0.00000000000E+00 -0.95504057356E+03  0.95504057356E+03  0.25500000000E-02 0.  1.
    8880023    1    1    2    0    0  0.24378042966E+03 -0.24162231367E+03 -0.62354372611E+03  0.96975627092E+03  0.65864270000E+03 0. -1.
    8880022    1    1    2    0    0 -0.24378042966E+03  0.24162231367E+03  0.64479209535E+02  0.38126035963E+03  0.15294330000E+03 0.  0.
<mgrwt>
<rscale>  0 0.62639055E+03</rscale>
<asrwt>0</asrwt>
<pdfrwt beam="1">  1        2 0.60919394E-01 0.74271155E+03</pdfrwt>
<pdfrwt beam="2">  1       -2 0.14692932E+00 0.74271155E+03</pdfrwt>
<totfact> 0.25790380E+01</totfact>
</mgrwt>
</event>
<event>
 4    1  0.3057048E-007  0.8661399E+03  0.7818608E-02  0.9582734E-01
         -2   -1    0    0    0  501 -0.00000000000E+00  0.00000000000E+00  0.70334447579E+03  0.70334447579E+03  0.25500000000E-02 0.  1.
          2   -1    0    0  501    0  0.00000000000E+00 -0.00000000000E+00 -0.76191457197E+03  0.76191457197E+03  0.25500000000E-02 0. -1.
    8880023    1    1    2    0    0  0.55335415014E+03 -0.10093192858E+03  0.67877614370E+02  0.86879551477E+03  0.65864270000E+03 0.  0.
    8880022    1    1    2    0    0 -0.55335415014E+03  0.10093192858E+03 -0.12644771055E+03  0.59646353300E+03  0.15294330000E+03 0.  0.
<mgrwt>
<rscale>  0 0.78449595E+03</rscale>
<asrwt>0</asrwt>
<pdfrwt beam="1">  1        2 0.11721763E+00 0.86613987E+03</pdfrwt>
<pdfrwt beam="2">  1       -2 0.10820684E+00 0.86613987E+03</pdfrwt>
<totfact> 0.25220014E+01</totfact>
</mgrwt>
</event>
<event>
 4    1  0.3057048E-007  0.8197630E+03  0.7818608E-02  0.9669589E-01
         -2   -1    0    0    0  501 -0.00000000000E+00  0.00000000000E+00  0.49398144321E+03  0.49398144321E+03  0.25500000000E-02 0.  1.
          2   -1    0    0  501    0  0.00000000000E+00 -0.00000000000E+00 -0.19995980228E+04  0.19995980228E+04  0.25500000000E-02 0. -1.
    8880023    1    1    2    0    0  0.38055491702E+03  0.30557984814E+03  0.83669474690E+02  0.82402176896E+03  0.65864270000E+03 0.  1.
    8880022    1    1    2    0    0 -0.38055491702E+03 -0.30557984814E+03 -0.15892860543E+04  0.16695576971E+04  0.15294330000E+03 0.  0.
<mgrwt>
<rscale>  0 0.72856688E+03</rscale>
<asrwt>0</asrwt>
<pdfrwt beam="1">  1        2 0.30763046E+00 0.81976295E+03</pdfrwt>
<pdfrwt beam="2">  1       -2 0.75997146E-01 0.81976295E+03</pdfrwt>
<totfact> 0.10624461E+01</totfact>
</mgrwt>
</event>
<event>
 4    1  0.3057048E-007  0.6592432E+03  0.7818608E-02  0.1024946E+00
         -2   -1    0    0    0  501 -0.00000000000E+00  0.00000000000E+00  0.70152195177E+03  0.70152195177E+03  0.25500000000E-02 0.  1.
          2   -1    0    0  501    0  0.00000000000E+00 -0.00000000000E+00 -0.40186055341E+03  0.40186055342E+03  0.25500000000E-02 0. -1.
    8880023    1    1    2    0    0  0.21282701479E+02 -0.18395505327E+02  0.51584547639E+03  0.83707712295E+03  0.65864270000E+03 0.  1.
    8880022    1    1    2    0    0 -0.21282701479E+02  0.18395505327E+02 -0.21618407803E+03  0.26630538224E+03  0.15294330000E+03 0.  0.
<mgrwt>
<rscale>  0 0.45943386E+03</rscale>
<asrwt>0</asrwt>
<pdfrwt beam="1">  1        2 0.61824702E-01 0.65924317E+03</pdfrwt>
<pdfrwt beam="2">  1       -2 0.10792645E+00 0.65924317E+03</pdfrwt>
<totfact> 0.55348407E+01</totfact>
</mgrwt>
</event>
<event>
 4    1  0.3057048E-007  0.7634793E+03  0.7818608E-02  0.9796182E-01
          2   -1    0    0  501    0  0.00000000000E+00  0.00000000000E+00  0.11993986474E+04  0.11993986474E+04  0.25500000000E-02 0. -1.
         -2   -1    0    0    0  501 -0.00000000000E+00 -0.00000000000E+00 -0.37706991768E+03  0.37706991769E+03  0.25500000000E-02 0.  1.
    8880023    1    1    2    0    0 -0.13361885118E+03  0.36226575597E+03  0.87107743237E+03  0.11583076339E+04  0.65864270000E+03 0. -1.
    8880022    1    1    2    0    0  0.13361885118E+03 -0.36226575597E+03 -0.48748702641E+02  0.41816093118E+03  0.15294330000E+03 0.  0.
<mgrwt>
<rscale>  0 0.65567855E+03</rscale>
<asrwt>0</asrwt>
<pdfrwt beam="1">  1        2 0.18452287E+00 0.76347933E+03</pdfrwt>
<pdfrwt beam="2">  1       -2 0.58010756E-01 0.76347933E+03</pdfrwt>
<totfact> 0.53573196E+01</totfact>
</mgrwt>
</event>
<event>
 4    1  0.3057048E-007  0.7763115E+03  0.7818608E-02  0.9764574E-01
         -2   -1    0    0    0  501 -0.00000000000E+00  0.00000000000E+00  0.43136875120E+03  0.43136875121E+03  0.25500000000E-02 0.  1.
          2   -1    0    0  501    0  0.00000000000E+00 -0.00000000000E+00 -0.94765387357E+03  0.94765387357E+03  0.25500000000E-02 0. -1.
    8880023    1    1    2    0    0 -0.38561486966E+03  0.14195229756E+03 -0.11523893676E+03  0.78481813263E+03  0.65864270000E+03 0.  1.
    8880022    1    1    2    0    0  0.38561486966E+03 -0.14195229756E+03 -0.40104618561E+03  0.59420449216E+03  0.15294330000E+03 0.  0.
<mgrwt>
<rscale>  0 0.67298864E+03</rscale>
<asrwt>0</asrwt>
<pdfrwt beam="1">  1        2 0.14579290E+00 0.77631146E+03</pdfrwt>
<pdfrwt beam="2">  1       -2 0.66364423E-01 0.77631146E+03</pdfrwt>
<totfact> 0.57590933E+01</totfact>
</mgrwt>
</event>
<event>
 4    1  0.3057048E-007  0.7142134E+03  0.7818608E-02  0.9942675E-01
         -2   -1    0    0    0  501 -0.00000000000E+00  0.00000000000E+00  0.38140891095E+03  0.38140891096E+03  0.25500000000E-02 0.  1.
          2   -1    0    0  501    0  0.00000000000E+00 -0.00000000000E+00 -0.83584687399E+03  0.83584687399E+03  0.25500000000E-02 0. -1.
    8880023    1    1    2    0    0  0.14804514605E+03  0.23318069977E+03 -0.66829554611E+02  0.71733325564E+03  0.65864270000E+03 0.  1.
    8880022    1    1    2    0    0 -0.14804514605E+03 -0.23318069977E+03 -0.38760840842E+03  0.49992252931E+03  0.15294330000E+03 0.  0.
<mgrwt>
<rscale>  0 0.58236899E+03</rscale>
<asrwt>0</asrwt>
<pdfrwt beam="1">  1        2 0.12859183E+00 0.71421342E+03</pdfrwt>
<pdfrwt beam="2">  1       -2 0.58678294E-01 0.71421342E+03</pdfrwt>
<totfact> 0.89515831E+01</totfact>
</mgrwt>
</event>
<event>
 4    1  0.3057048E-007  0.6803265E+03  0.7818608E-02  0.1009140E+00
         -2   -1    0    0    0  501 -0.00000000000E+00  0.00000000000E+00  0.60718136428E+03  0.60718136429E+03  0.25500000000E-02 0.  1.
          2   -1    0    0  501    0  0.00000000000E+00 -0.00000000000E+00 -0.51939481686E+03  0.51939481687E+03  0.25500000000E-02 0. -1.
    8880023    1    1    2    0    0 -0.16309474369E+03 -0.49335515117E+02  0.36094630472E+03  0.77014695327E+03  0.65864270000E+03 0.  1.
    8880022    1    1    2    0    0  0.16309474369E+03  0.49335515117E+02 -0.27315975730E+03  0.35642922789E+03  0.15294330000E+03 0.  0.
<mgrwt>
<rscale>  0 0.51818029E+03</rscale>
<asrwt>0</asrwt>
<pdfrwt beam="1">  1        2 0.79906895E-01 0.68032646E+03</pdfrwt>
<pdfrwt beam="2">  1       -2 0.93412517E-01 0.68032646E+03</pdfrwt>
<totfact> 0.58038969E+01</totfact>
</mgrwt>
</event>
<event>
 4    1  0.3057048E-007  0.6668165E+03  0.7818608E-02  0.1018056E+00
         -2   -1    0    0    0  501 -0.00000000000E+00  0.00000000000E+00  0.58685602516E+03  0.58685602516E+03  0.25500000000E-02 0.  1.
          2   -1    0    0  501    0  0.00000000000E+00 -0.00000000000E+00 -0.69095317801E+03  0.69095317801E+03  0.25500000000E-02 0. -1.
    8880023    1    1    2    0    0 -0.77665480398E+02 -0.69297231223E+02  0.37444107122E+03  0.76475509490E+03  0.65864270000E+03 0.  1.
    8880022    1    1    2    0    0  0.77665480398E+02  0.69297231223E+02 -0.47853822407E+03  0.51305410827E+03  0.15294330000E+03 0.  0.
<mgrwt>
<rscale>  0 0.48394808E+03</rscale>
<asrwt>0</asrwt>
<pdfrwt beam="1">  1        2 0.10630049E+00 0.66681650E+03</pdfrwt>
<pdfrwt beam="2">  1       -2 0.90285542E-01 0.66681650E+03</pdfrwt>
<totfact> 0.44567569E+01</totfact>
</mgrwt>
</event>
<event>
 4    1  0.3057048E-007  0.6977647E+03  0.7818608E-02  0.1000660E+00
          2   -1    0    0  501    0  0.00000000000E+00  0.00000000000E+00  0.50072984317E+04  0.50072984317E+04  0.25500000000E-02 0. -1.
         -2   -1    0    0    0  501 -0.00000000000E+00 -0.00000000000E+00 -0.41690311309E+03  0.41690311310E+03  0.25500000000E-02 0.  1.
    8880023    1    1    2    0    0  0.18990246354E+03 -0.13039347462E+03 -0.11801890322E+03  0.70767511731E+03  0.65864270000E+03 0.  1.
    8880022    1    1    2    0    0 -0.18990246354E+03  0.13039347462E+03  0.47084142219E+04  0.47165264275E+04  0.15294330000E+03 0.  0.
<mgrwt>
<rscale>  0 0.55361641E+03</rscale>
<asrwt>0</asrwt>
<pdfrwt beam="1">  1        2 0.77035358E+00 0.69776472E+03</pdfrwt>
<pdfrwt beam="2">  1       -2 0.64138943E-01 0.69776472E+03</pdfrwt>
<totfact> 0.91061467E-02</totfact>
</mgrwt>
</event>
<event>
 4    1  0.3057048E-007  0.1365180E+04  0.7818608E-02  0.9011222E-01
          2   -1    0    0  501    0  0.00000000000E+00  0.00000000000E+00  0.16455506389E+04  0.16455506389E+04  0.25500000000E-02 0. -1.
         -2   -1    0    0    0  501 -0.00000000000E+00 -0.00000000000E+00 -0.13956067846E+04  0.13956067846E+04  0.25500000000E-02 0.  1.
    8880023    1    1    2    0    0 -0.46524498097E+03  0.11015683313E+04 -0.67380111264E+03  0.15224072473E+04  0.65864270000E+03 0.  0.
    8880022    1    1    2    0    0  0.46524498097E+03 -0.11015683313E+04  0.92374496691E+03  0.15187501762E+04  0.15294330000E+03 0.  0.
<mgrwt>
<rscale>  0 0.13233865E+04</rscale>
<asrwt>0</asrwt>
<pdfrwt beam="1">  1        2 0.25316164E+00 0.13651798E+04</pdfrwt>
<pdfrwt beam="2">  1       -2 0.21470874E+00 0.13651798E+04</pdfrwt>
<totfact> 0.10702277E+00</totfact>
</mgrwt>
</event>
<event>
 4    1  0.3057048E-007  0.7551361E+03  0.7818608E-02  0.9817866E-01
         -2   -1    0    0    0  501 -0.00000000000E+00  0.00000000000E+00  0.47102842000E+03  0.47102842000E+03  0.25500000000E-02 0.  1.
          2   -1    0    0  501    0  0.00000000000E+00 -0.00000000000E+00 -0.12761372108E+04  0.12761372108E+04  0.25500000000E-02 0. -1.
    8880023    1    1    2    0    0 -0.29247659654E+03 -0.22556095845E+03  0.96142315193E+02  0.76123180210E+03  0.65864270000E+03 0.  0.
    8880022    1    1    2    0    0  0.29247659654E+03  0.22556095845E+03 -0.90125110595E+03  0.98593382866E+03  0.15294330000E+03 0.  0.
<mgrwt>
<rscale>  0 0.64412489E+03</rscale>
<asrwt>0</asrwt>
<pdfrwt beam="1">  1        2 0.19632880E+00 0.75513609E+03</pdfrwt>
<pdfrwt beam="2">  1       -2 0.72465911E-01 0.75513609E+03</pdfrwt>
<totfact> 0.29977896E+01</totfact>
</mgrwt>
</event>
<event>
 4    1  0.3057048E-007  0.6679738E+03  0.7818608E-02  0.1017159E+00
          2   -1    0    0  501    0  0.00000000000E+00  0.00000000000E+00  0.31774116792E+03  0.31774116793E+03  0.25500000000E-02 0. -1.
         -2   -1    0    0    0  501 -0.00000000000E+00 -0.00000000000E+00 -0.82237336702E+03  0.82237336703E+03  0.25500000000E-02 0.  1.
    8880023    1    1    2    0    0  0.92928740477E+02 -0.61180650177E+02 -0.62594459007E+03  0.91542102819E+03  0.65864270000E+03 0.  1.
    8880022    1    1    2    0    0 -0.92928740477E+02  0.61180650177E+02  0.12131239096E+03  0.22469350676E+03  0.15294330000E+03 0.  0.
<mgrwt>
<rscale>  0 0.48725934E+03</rscale>
<asrwt>0</asrwt>
<pdfrwt beam="1">  1        2 0.48883257E-01 0.66797382E+03</pdfrwt>
<pdfrwt beam="2">  1       -2 0.12651898E+00 0.66797382E+03</pdfrwt>
<totfact> 0.48660591E+01</totfact>
</mgrwt>
</event>
<event>
 4    1  0.3057048E-007  0.7182511E+03  0.7818608E-02  0.9928548E-01
          2   -1    0    0  501    0  0.00000000000E+00  0.00000000000E+00  0.35363803892E+04  0.35363803892E+04  0.25500000000E-02 0. -1.
         -2   -1    0    0    0  501 -0.00000000000E+00 -0.00000000000E+00 -0.10220084812E+03  0.10220084816E+03  0.25500000000E-02 0.  1.
    8880023    1    1    2    0    0  0.24180806588E+01  0.28647628121E+03  0.13492968265E+04  0.15285570448E+04  0.65864270000E+03 0.  1.
    8880022    1    1    2    0    0 -0.24180806588E+01 -0.28647628121E+03  0.20848827146E+04  0.21100241926E+04  0.15294330000E+03 0.  0.
<mgrwt>
<rscale>  0 0.58897436E+03</rscale>
<asrwt>0</asrwt>
<pdfrwt beam="1">  1        2 0.54405854E+00 0.71825115E+03</pdfrwt>
<pdfrwt beam="2">  1       -2 0.15723207E-01 0.71825115E+03</pdfrwt>
<totfact> 0.26859716E+01</totfact>
</mgrwt>
</event>
<event>
 4    1  0.3057048E-007  0.9317680E+03  0.7818608E-02  0.9476846E-01
         -2   -1    0    0    0  501 -0.00000000000E+00  0.00000000000E+00  0.98606594135E+03  0.98606594136E+03  0.25500000000E-02 0.  1.
          2   -1    0    0  501    0  0.00000000000E+00 -0.00000000000E+00 -0.75428607089E+03  0.75428607090E+03  0.25500000000E-02 0. -1.
    8880023    1    1    2    0    0  0.65455780154E+03  0.77042666000E+02  0.44278266770E+03  0.10316240522E+04  0.65864270000E+03 0.  0.
    8880022    1    1    2    0    0 -0.65455780154E+03 -0.77042666000E+02 -0.21100279724E+03  0.70872796008E+03  0.15294330000E+03 0.  0.
<mgrwt>
<rscale>  0 0.86012614E+03</rscale>
<asrwt>0</asrwt>
<pdfrwt beam="1">  1        2 0.11604401E+00 0.93176805E+03</pdfrwt>
<pdfrwt beam="2">  1       -2 0.15170245E+00 0.93176805E+03</pdfrwt>
<totfact> 0.10800903E+01</totfact>
</mgrwt>
</event>
<event>
 4    1  0.3057048E-007  0.6594085E+03  0.7818608E-02  0.1024771E+00
          2   -1    0    0  501    0  0.00000000000E+00  0.00000000000E+00  0.59211869547E+03  0.59211869547E+03  0.25500000000E-02 0. -1.
         -2   -1    0    0    0  501 -0.00000000000E+00 -0.00000000000E+00 -0.67933778171E+03  0.67933778171E+03  0.25500000000E-02 0.  1.
    8880023    1    1    2    0    0 -0.13628983994E+02 -0.28699059085E+02 -0.50166780592E+03  0.82854702882E+03  0.65864270000E+03 0.  1.
    8880022    1    1    2    0    0  0.13628983994E+02  0.28699059085E+02  0.41444871968E+03  0.44290944837E+03  0.15294330000E+03 0.  0.
<mgrwt>
<rscale>  0 0.46003614E+03</rscale>
<asrwt>0</asrwt>
<pdfrwt beam="1">  1        2 0.91095184E-01 0.65940852E+03</pdfrwt>
<pdfrwt beam="2">  1       -2 0.10451350E+00 0.65940852E+03</pdfrwt>
<totfact> 0.38208951E+01</totfact>
</mgrwt>
</event>
<event>
 4    1  0.3057048E-007  0.7555691E+03  0.7818608E-02  0.9816717E-01
         -2   -1    0    0    0  501 -0.00000000000E+00  0.00000000000E+00  0.62829892340E+03  0.62829892341E+03  0.25500000000E-02 0.  1.
          2   -1    0    0  501    0  0.00000000000E+00 -0.00000000000E+00 -0.21611722576E+04  0.21611722576E+04  0.25500000000E-02 0. -1.
    8880023    1    1    2    0    0  0.30154610238E+03 -0.21481261404E+03  0.37252983392E+03  0.84241509627E+03  0.65864270000E+03 0.  1.
    8880022    1    1    2    0    0 -0.30154610238E+03  0.21481261404E+03 -0.19054031681E+04  0.19470560848E+04  0.15294330000E+03 0.  0.
<mgrwt>
<rscale>  0 0.64473106E+03</rscale>
<asrwt>0</asrwt>
<pdfrwt beam="1">  1        2 0.33248804E+00 0.75556913E+03</pdfrwt>
<pdfrwt beam="2">  1       -2 0.96661374E-01 0.75556913E+03</pdfrwt>
<totfact> 0.50498076E+00</totfact>
</mgrwt>
</event>
<event>
 4    1  0.3057048E-007  0.1088322E+04  0.7818608E-02  0.9274171E-01
          2   -1    0    0  501    0  0.00000000000E+00  0.00000000000E+00  0.21019641958E+04  0.21019641958E+04  0.25500000000E-02 0. -1.
         -2   -1    0    0    0  501 -0.00000000000E+00 -0.00000000000E+00 -0.60189507584E+03  0.60189507585E+03  0.25500000000E-02 0.  1.
    8880023    1    1    2    0    0 -0.53785394288E+03  0.67922544996E+03  0.14628478002E+04  0.18232849390E+04  0.65864270000E+03 0.  0.
    8880022    1    1    2    0    0  0.53785394288E+03 -0.67922544996E+03  0.37221319741E+02  0.88057433270E+03  0.15294330000E+03 0.  0.
<mgrwt>
<rscale>  0 0.10319589E+04</rscale>
<asrwt>0</asrwt>
<pdfrwt beam="1">  1        2 0.32337910E+00 0.10883218E+04</pdfrwt>
<pdfrwt beam="2">  1       -2 0.92599244E-01 0.10883218E+04</pdfrwt>
<totfact> 0.57536869E+00</totfact>
</mgrwt>
</event>
<event>
 4    1  0.3057048E-007  0.6863709E+03  0.7818608E-02  0.1005927E+00
          2   -1    0    0  501    0  0.00000000000E+00  0.00000000000E+00  0.18416691535E+04  0.18416691535E+04  0.25500000000E-02 0. -1.
         -2   -1    0    0    0  501 -0.00000000000E+00 -0.00000000000E+00 -0.38608346787E+03  0.38608346788E+03  0.25500000000E-02 0.  1.
    8880023    1    1    2    0    0  0.13115012392E+03  0.14175509033E+03 -0.63054943414E+02  0.68926119345E+03  0.65864270000E+03 0.  1.
    8880022    1    1    2    0    0 -0.13115012392E+03 -0.14175509033E+03  0.15186406290E+04  0.15384914279E+04  0.15294330000E+03 0.  0.
<mgrwt>
<rscale>  0 0.53125825E+03</rscale>
<asrwt>0</asrwt>
<pdfrwt beam="1">  1        2 0.28333372E+00 0.68637094E+03</pdfrwt>
<pdfrwt beam="2">  1       -2 0.59397456E-01 0.68637094E+03</pdfrwt>
<totfact> 0.22499210E+01</totfact>
</mgrwt>
</event>
<event>
 4    1  0.3057048E-007  0.6804907E+03  0.7818608E-02  0.1009047E+00
          2   -1    0    0  501    0  0.00000000000E+00  0.00000000000E+00  0.41805504197E+03  0.41805504198E+03  0.25500000000E-02 0. -1.
         -2   -1    0    0    0  501 -0.00000000000E+00 -0.00000000000E+00 -0.10930791267E+04  0.10930791267E+04  0.25500000000E-02 0.  1.
    8880023    1    1    2    0    0  0.17104593091E+03 -0.84841943935E+00 -0.94010107006E+03  0.11605419676E+04  0.65864270000E+03 0.  1.
    8880022    1    1    2    0    0 -0.17104593091E+03  0.84841943935E+00  0.26507698535E+03  0.35059220110E+03  0.15294330000E+03 0.  0.
<mgrwt>
<rscale>  0 0.51854985E+03</rscale>
<asrwt>0</asrwt>
<pdfrwt beam="1">  1        2 0.64316161E-01 0.68049073E+03</pdfrwt>
<pdfrwt beam="2">  1       -2 0.16816602E+00 0.68049073E+03</pdfrwt>
<totfact> 0.16967471E+01</totfact>
</mgrwt>
</event>
<event>
 4    1  0.3057048E-007  0.8374460E+03  0.7818608E-02  0.9635015E-01
          2   -1    0    0  501    0  0.00000000000E+00  0.00000000000E+00  0.33100966791E+03  0.33100966792E+03  0.25500000000E-02 0. -1.
         -2   -1    0    0    0  501 -0.00000000000E+00 -0.00000000000E+00 -0.17607574880E+04  0.17607574880E+04  0.25500000000E-02 0.  1.
    8880023    1    1    2    0    0 -0.27904591705E+03 -0.43547554471E+03 -0.12841920442E+04  0.15331226260E+04  0.65864270000E+03 0.  1.
    8880022    1    1    2    0    0  0.27904591705E+03  0.43547554471E+03 -0.14555577593E+03  0.55864452990E+03  0.15294330000E+03 0.  0.
<mgrwt>
<rscale>  0 0.75021381E+03</rscale>
<asrwt>0</asrwt>
<pdfrwt beam="1">  1        2 0.50924565E-01 0.83744599E+03</pdfrwt>
<pdfrwt beam="2">  1       -2 0.27088576E+00 0.83744599E+03</pdfrwt>
<totfact> 0.48113583E+00</totfact>
</mgrwt>
</event>
<event>
 4    1  0.3057048E-007  0.7121073E+03  0.7818608E-02  0.9950258E-01
          2   -1    0    0  501    0  0.00000000000E+00  0.00000000000E+00  0.37883101774E+04  0.37883101774E+04  0.25500000000E-02 0. -1.
         -2   -1    0    0    0  501 -0.00000000000E+00 -0.00000000000E+00 -0.77917804688E+02  0.77917804730E+02  0.25500000000E-02 0.  1.
    8880023    1    1    2    0    0  0.20878892331E+03  0.17231867002E+03  0.18946186811E+04  0.20240248742E+04  0.65864270000E+03 0.  0.
    8880022    1    1    2    0    0 -0.20878892331E+03 -0.17231867002E+03  0.18157736916E+04  0.18422031079E+04  0.15294330000E+03 0.  0.
<mgrwt>
<rscale>  0 0.57886211E+03</rscale>
<asrwt>0</asrwt>
<pdfrwt beam="1">  1        2 0.58281709E+00 0.71210726E+03</pdfrwt>
<pdfrwt beam="2">  1       -2 0.11987352E-01 0.71210726E+03</pdfrwt>
<totfact> 0.28034224E+01</totfact>
</mgrwt>
</event>
<event>
 4    1  0.3057048E-007  0.7496189E+03  0.7818608E-02  0.9832765E-01
         -2   -1    0    0    0  501 -0.00000000000E+00  0.00000000000E+00  0.36135694187E+03  0.36135694188E+03  0.25500000000E-02 0.  1.
          2   -1    0    0  501    0  0.00000000000E+00 -0.00000000000E+00 -0.49200159497E+04  0.49200159497E+04  0.25500000000E-02 0. -1.
    8880023    1    1    2    0    0 -0.15839727062E+03 -0.32098059590E+03 -0.45007320610E+02  0.75096877662E+03  0.65864270000E+03 0.  1.
    8880022    1    1    2    0    0  0.15839727062E+03  0.32098059590E+03 -0.45136516872E+04  0.45304041149E+04  0.15294330000E+03 0. -1.
<mgrwt>
<rscale>  0 0.63633455E+03</rscale>
<asrwt>0</asrwt>
<pdfrwt beam="1">  1        2 0.75692548E+00 0.74961887E+03</pdfrwt>
<pdfrwt beam="2">  1       -2 0.55593379E-01 0.74961887E+03</pdfrwt>
<totfact> 0.15411279E-01</totfact>
</mgrwt>
</event>
<event>
 4    1  0.3057048E-007  0.8602417E+03  0.7818608E-02  0.9593134E-01
          2   -1    0    0  501    0  0.00000000000E+00  0.00000000000E+00  0.26378576082E+04  0.26378576082E+04  0.25500000000E-02 0. -1.
         -2   -1    0    0    0  501 -0.00000000000E+00 -0.00000000000E+00 -0.26152935389E+03  0.26152935391E+03  0.25500000000E-02 0.  1.
    8880023    1    1    2    0    0  0.16414150290E+03 -0.52845361827E+03  0.64453931781E+03  0.10749171122E+04  0.65864270000E+03 0.  0.
    8880022    1    1    2    0    0 -0.16414150290E+03  0.52845361827E+03  0.17317889365E+04  0.18244698499E+04  0.15294330000E+03 0.  0.
<mgrwt>
<rscale>  0 0.77752318E+03</rscale>
<asrwt>0</asrwt>
<pdfrwt beam="1">  1        2 0.40582424E+00 0.86024175E+03</pdfrwt>
<pdfrwt beam="2">  1       -2 0.40235286E-01 0.86024175E+03</pdfrwt>
<totfact> 0.17458097E+01</totfact>
</mgrwt>
</event>
<event>
 4    1  0.3057048E-007  0.7080646E+03  0.7818608E-02  0.9965259E-01
          2   -1    0    0  501    0  0.00000000000E+00  0.00000000000E+00  0.10538759417E+04  0.10538759417E+04  0.25500000000E-02 0. -1.
         -2   -1    0    0    0  501 -0.00000000000E+00 -0.00000000000E+00 -0.35052268501E+03  0.35052268501E+03  0.25500000000E-02 0.  1.
    8880023    1    1    2    0    0 -0.23813880612E+02 -0.25880152987E+03  0.80806544334E+02  0.71266067426E+03  0.65864270000E+03 0.  1.
    8880022    1    1    2    0    0  0.23813880612E+02  0.25880152987E+03  0.62254671233E+03  0.69173795242E+03  0.15294330000E+03 0.  0.
<mgrwt>
<rscale>  0 0.57200161E+03</rscale>
<asrwt>0</asrwt>
<pdfrwt beam="1">  1        2 0.16213476E+00 0.70806464E+03</pdfrwt>
<pdfrwt beam="2">  1       -2 0.53926567E-01 0.70806464E+03</pdfrwt>
<totfact> 0.76785221E+01</totfact>
</mgrwt>
</event>
<event>
 4    1  0.3057048E-007  0.7743556E+03  0.7818608E-02  0.9769267E-01
         -2   -1    0    0    0  501 -0.00000000000E+00  0.00000000000E+00  0.16549633868E+03  0.16549633870E+03  0.25500000000E-02 0.  1.
          2   -1    0    0  501    0  0.00000000000E+00 -0.00000000000E+00 -0.28207186943E+04  0.28207186943E+04  0.25500000000E-02 0. -1.
    8880023    1    1    2    0    0 -0.13629450585E+03 -0.38371896405E+03 -0.94601587309E+03  0.12225271670E+04  0.65864270000E+03 0.  1.
    8880022    1    1    2    0    0  0.13629450585E+03  0.38371896405E+03 -0.17092064825E+04  0.17636878660E+04  0.15294330000E+03 0.  0.
<mgrwt>
<rscale>  0 0.67038271E+03</rscale>
<asrwt>0</asrwt>
<pdfrwt beam="1">  1        2 0.43395669E+00 0.77435563E+03</pdfrwt>
<pdfrwt beam="2">  1       -2 0.25460977E-01 0.77435563E+03</pdfrwt>
<totfact> 0.32636982E+01</totfact>
</mgrwt>
</event>
<event>
 4    1  0.3057048E-007  0.7623585E+03  0.7818608E-02  0.9799039E-01
          2   -1    0    0  501    0  0.00000000000E+00  0.00000000000E+00  0.32068602190E+04  0.32068602190E+04  0.25500000000E-02 0. -1.
         -2   -1    0    0    0  501 -0.00000000000E+00 -0.00000000000E+00 -0.37593942742E+03  0.37593942743E+03  0.25500000000E-02 0.  1.
    8880023    1    1    2    0    0 -0.13198401938E+03 -0.36050028167E+03  0.42091606434E+02  0.76351957673E+03  0.65864270000E+03 0.  1.
    8880022    1    1    2    0    0  0.13198401938E+03  0.36050028167E+03  0.27888291852E+04  0.28192800697E+04  0.15294330000E+03 0.  0.
<mgrwt>
<rscale>  0 0.65414115E+03</rscale>
<asrwt>0</asrwt>
<pdfrwt beam="1">  1        2 0.49336313E+00 0.76235847E+03</pdfrwt>
<pdfrwt beam="2">  1       -2 0.57836833E-01 0.76235847E+03</pdfrwt>
<totfact> 0.38482990E+00</totfact>
</mgrwt>
</event>
<event>
 4    1  0.3057048E-007  0.7599046E+03  0.7818608E-02  0.9805355E-01
          2   -1    0    0  501    0  0.00000000000E+00  0.00000000000E+00  0.88429426663E+03  0.88429426664E+03  0.25500000000E-02 0. -1.
         -2   -1    0    0    0  501 -0.00000000000E+00 -0.00000000000E+00 -0.12254170644E+04  0.12254170644E+04  0.25500000000E-02 0.  1.
    8880023    1    1    2    0    0  0.16300604420E+03 -0.34216051591E+03 -0.10472095785E+04  0.12938712829E+04  0.65864270000E+03 0.  1.
    8880022    1    1    2    0    0 -0.16300604420E+03  0.34216051591E+03  0.70608678078E+03  0.81584004811E+03  0.15294330000E+03 0.  0.
<mgrwt>
<rscale>  0 0.65075979E+03</rscale>
<asrwt>0</asrwt>
<pdfrwt beam="1">  1        2 0.13604527E+00 0.75990460E+03</pdfrwt>
<pdfrwt beam="2">  1       -2 0.18852570E+00 0.75990460E+03</pdfrwt>
<totfact> 0.48598971E+00</totfact>
</mgrwt>
</event>
<event>
 4    1  0.3057048E-007  0.1161442E+04  0.7818608E-02  0.9195546E-01
          2   -1    0    0  501    0  0.00000000000E+00  0.00000000000E+00  0.51363208321E+04  0.51363208321E+04  0.25500000000E-02 0. -1.
         -2   -1    0    0    0  501 -0.00000000000E+00 -0.00000000000E+00 -0.25498353619E+03  0.25498353620E+03  0.25500000000E-02 0.  1.
    8880023    1    1    2    0    0  0.25154257125E+03 -0.92296487614E+03  0.16493905053E+04  0.20172845791E+04  0.65864270000E+03 0. -1.
    8880022    1    1    2    0    0 -0.25154257125E+03  0.92296487614E+03  0.32319467907E+04  0.33740197893E+04  0.15294330000E+03 0.  1.
<mgrwt>
<rscale>  0 0.11099520E+04</rscale>
<asrwt>0</asrwt>
<pdfrwt beam="1">  1        2 0.79020317E+00 0.11614422E+04</pdfrwt>
<pdfrwt beam="2">  1       -2 0.39228238E-01 0.11614422E+04</pdfrwt>
<totfact> 0.15001285E-01</totfact>
</mgrwt>
</event>
<event>
 4    1  0.3057048E-007  0.8009985E+03  0.7818608E-02  0.9708641E-01
         -2   -1    0    0    0  501 -0.00000000000E+00  0.00000000000E+00  0.42806437530E+03  0.42806437531E+03  0.25500000000E-02 0.  1.
          2   -1    0    0  501    0  0.00000000000E+00 -0.00000000000E+00 -0.22451413190E+04  0.22451413190E+04  0.25500000000E-02 0. -1.
    8880023    1    1    2    0    0 -0.45019116993E+03  0.71528746365E+02 -0.77011073447E+01  0.80103555749E+03  0.65864270000E+03 0.  0.
    8880022    1    1    2    0    0  0.45019116993E+03 -0.71528746365E+02 -0.18093758364E+04  0.18721701369E+04  0.15294330000E+03 0.  0.
<mgrwt>
<rscale>  0 0.70504624E+03</rscale>
<asrwt>0</asrwt>
<pdfrwt beam="1">  1        2 0.34540635E+00 0.80099854E+03</pdfrwt>
<pdfrwt beam="2">  1       -2 0.65856059E-01 0.80099854E+03</pdfrwt>
<totfact> 0.10681318E+01</totfact>
</mgrwt>
</event>
<event>
 4    1  0.3057048E-007  0.7062868E+03  0.7818608E-02  0.9972057E-01
          2   -1    0    0  501    0  0.00000000000E+00  0.00000000000E+00  0.41650022193E+03  0.41650022194E+03  0.25500000000E-02 0. -1.
         -2   -1    0    0    0  501 -0.00000000000E+00 -0.00000000000E+00 -0.10826524503E+04  0.10826524503E+04  0.25500000000E-02 0.  1.
    8880023    1    1    2    0    0 -0.24173090264E+03 -0.81222295320E+02 -0.88329363535E+03  0.11309503716E+04  0.65864270000E+03 0.  1.
    8880022    1    1    2    0    0  0.24173090264E+03  0.81222295320E+02  0.21714140698E+03  0.36820230063E+03  0.15294330000E+03 0.  0.
<mgrwt>
<rscale>  0 0.56892656E+03</rscale>
<asrwt>0</asrwt>
<pdfrwt beam="1">  1        2 0.64076958E-01 0.70628684E+03</pdfrwt>
<pdfrwt beam="2">  1       -2 0.16656191E+00 0.70628684E+03</pdfrwt>
<totfact> 0.17450905E+01</totfact>
</mgrwt>
</event>
<event>
 4    1  0.3057048E-007  0.1070600E+04  0.7818608E-02  0.9294518E-01
          2   -1    0    0  501    0  0.00000000000E+00  0.00000000000E+00  0.27824056689E+04  0.27824056689E+04  0.25500000000E-02 0. -1.
         -2   -1    0    0    0  501 -0.00000000000E+00 -0.00000000000E+00 -0.51633785973E+03  0.51633785974E+03  0.25500000000E-02 0.  1.
    8880023    1    1    2    0    0  0.74945088867E+03  0.38819694033E+03  0.23799442688E+03  0.10967338111E+04  0.65864270000E+03 0.  0.
    8880022    1    1    2    0    0 -0.74945088867E+03 -0.38819694033E+03  0.20280733823E+04  0.22020097175E+04  0.15294330000E+03 0.  0.
<mgrwt>
<rscale>  0 0.10128911E+04</rscale>
<asrwt>0</asrwt>
<pdfrwt beam="1">  1        2 0.42806241E+00 0.10705997E+04</pdfrwt>
<pdfrwt beam="2">  1       -2 0.79436594E-01 0.10705997E+04</pdfrwt>
<totfact> 0.33490835E+00</totfact>
</mgrwt>
</event>
<event>
 4    1  0.3057048E-007  0.9324710E+03  0.7818608E-02  0.9475796E-01
         -2   -1    0    0    0  501 -0.00000000000E+00  0.00000000000E+00  0.12381901743E+04  0.12381901743E+04  0.25500000000E-02 0.  1.
          2   -1    0    0  501    0  0.00000000000E+00 -0.00000000000E+00 -0.78160912619E+03  0.78160912619E+03  0.25500000000E-02 0. -1.
    8880023    1    1    2    0    0 -0.59886563009E+03 -0.27758212204E+03 -0.32308852967E+03  0.98685778187E+03  0.65864270000E+03 0. -1.
    8880022    1    1    2    0    0  0.59886563009E+03  0.27758212204E+03  0.77966957782E+03  0.10329415187E+04  0.15294330000E+03 0.  0.
<mgrwt>
<rscale>  0 0.86092030E+03</rscale>
<asrwt>0</asrwt>
<pdfrwt beam="1">  1        2 0.12024756E+00 0.93247096E+03</pdfrwt>
<pdfrwt beam="2">  1       -2 0.19049080E+00 0.93247096E+03</pdfrwt>
<totfact> 0.54603124E+00</totfact>
</mgrwt>
</event>
<event>
 4    1  0.3057048E-007  0.7438144E+03  0.7818608E-02  0.9848972E-01
          2   -1    0    0  501    0  0.00000000000E+00  0.00000000000E+00  0.10371511430E+04  0.10371511430E+04  0.25500000000E-02 0. -1.
         -2   -1    0    0    0  501 -0.00000000000E+00 -0.00000000000E+00 -0.51082308371E+03  0.51082308372E+03  0.25500000000E-02 0.  1.
    8880023    1    1    2    0    0  0.29438910586E+03 -0.18106531757E+03 -0.16333944053E+03  0.76153763792E+03  0.65864270000E+03 0.  1.
    8880022    1    1    2    0    0 -0.29438910586E+03  0.18106531757E+03  0.68966749979E+03  0.78643658877E+03  0.15294330000E+03 0.  0.
<mgrwt>
<rscale>  0 0.62799346E+03</rscale>
<asrwt>0</asrwt>
<pdfrwt beam="1">  1        2 0.15956171E+00 0.74381436E+03</pdfrwt>
<pdfrwt beam="2">  1       -2 0.78588167E-01 0.74381436E+03</pdfrwt>
<totfact> 0.34896637E+01</totfact>
</mgrwt>
</event>
<event>
 4    1  0.3057048E-007  0.7167060E+03  0.7818608E-02  0.9933893E-01
          2   -1    0    0  501    0  0.00000000000E+00  0.00000000000E+00  0.27424300604E+03  0.27424300605E+03  0.25500000000E-02 0. -1.
         -2   -1    0    0    0  501 -0.00000000000E+00 -0.00000000000E+00 -0.11971456450E+04  0.11971456450E+04  0.25500000000E-02 0.  1.
    8880023    1    1    2    0    0 -0.24597301248E+03  0.13912063474E+03 -0.89822388096E+03  0.11491186277E+04  0.65864270000E+03 0.  1.
    8880022    1    1    2    0    0  0.24597301248E+03 -0.13912063474E+03 -0.24678758042E+02  0.32227002341E+03  0.15294330000E+03 0. -1.
<mgrwt>
<rscale>  0 0.58646415E+03</rscale>
<asrwt>0</asrwt>
<pdfrwt beam="1">  1        2 0.42191232E-01 0.71670599E+03</pdfrwt>
<pdfrwt beam="2">  1       -2 0.18417625E+00 0.71670599E+03</pdfrwt>
<totfact> 0.20961616E+01</totfact>
</mgrwt>
</event>
<event>
 4    1  0.3057048E-007  0.7757607E+03  0.7818608E-02  0.9765891E-01
         -2   -1    0    0    0  501 -0.00000000000E+00  0.00000000000E+00  0.34752694541E+03  0.34752694542E+03  0.25500000000E-02 0.  1.
          2   -1    0    0  501    0  0.00000000000E+00 -0.00000000000E+00 -0.19473765201E+04  0.19473765201E+04  0.25500000000E-02 0. -1.
    8880023    1    1    2    0    0  0.40423288822E+03 -0.67751650463E+02 -0.16269355724E+03  0.79263731548E+03  0.65864270000E+03 0.  0.
    8880022    1    1    2    0    0 -0.40423288822E+03  0.67751650463E+02 -0.14371560174E+04  0.15022661500E+04  0.15294330000E+03 0.  0.
<mgrwt>
<rscale>  0 0.67225596E+03</rscale>
<asrwt>0</asrwt>
<pdfrwt beam="1">  1        2 0.29959638E+00 0.77576074E+03</pdfrwt>
<pdfrwt beam="2">  1       -2 0.53465685E-01 0.77576074E+03</pdfrwt>
<totfact> 0.24243024E+01</totfact>
</mgrwt>
</event>
<event>
 4    1  0.3057048E-007  0.7012048E+03  0.7818608E-02  0.9992240E-01
         -2   -1    0    0    0  501 -0.00000000000E+00  0.00000000000E+00  0.13794513223E+04  0.13794513223E+04  0.25500000000E-02 0.  1.
          2   -1    0    0  501    0  0.00000000000E+00 -0.00000000000E+00 -0.77515388717E+03  0.77515388718E+03  0.25500000000E-02 0. -1.
    8880023    1    1    2    0    0 -0.28310517503E+02  0.23890677695E+03  0.12586810166E+04  0.14408213079E+04  0.65864270000E+03 0.  0.
    8880022    1    1    2    0    0  0.28310517503E+02 -0.23890677695E+03 -0.65438358146E+03  0.71378390159E+03  0.15294330000E+03 0.  0.
<mgrwt>
<rscale>  0 0.55991829E+03</rscale>
<asrwt>0</asrwt>
<pdfrwt beam="1">  1        2 0.11925445E+00 0.70120478E+03</pdfrwt>
<pdfrwt beam="2">  1       -2 0.21222328E+00 0.70120478E+03</pdfrwt>
<totfact> 0.41023296E+00</totfact>
</mgrwt>
</event>
<event>
 4    1  0.3057048E-007  0.7772099E+03  0.7818608E-02  0.9762432E-01
          2   -1    0    0  501    0  0.00000000000E+00  0.00000000000E+00  0.10288649907E+04  0.10288649907E+04  0.25500000000E-02 0. -1.
         -2   -1    0    0    0  501 -0.00000000000E+00 -0.00000000000E+00 -0.58262257118E+03  0.58262257119E+03  0.25500000000E-02 0.  1.
    8880023    1    1    2    0    0  0.38883017646E+03  0.13804407901E+03 -0.22476823163E+03  0.80905873587E+03  0.65864270000E+03 0.  0.
    8880022    1    1    2    0    0 -0.38883017646E+03 -0.13804407901E+03  0.67101065114E+03  0.80242882603E+03  0.15294330000E+03 0.  0.
<mgrwt>
<rscale>  0 0.67418211E+03</rscale>
<asrwt>0</asrwt>
<pdfrwt beam="1">  1        2 0.15828692E+00 0.77720993E+03</pdfrwt>
<pdfrwt beam="2">  1       -2 0.89634243E-01 0.77720993E+03</pdfrwt>
<totfact> 0.26110368E+01</totfact>
</mgrwt>
</event>
<event>
 4    1  0.3057048E-007  0.6624872E+03  0.7818608E-02  0.1021741E+00
          2   -1    0    0  501    0  0.00000000000E+00  0.00000000000E+00  0.17030852577E+04  0.17030852577E+04  0.25500000000E-02 0. -1.
         -2   -1    0    0    0  501 -0.00000000000E+00 -0.00000000000E+00 -0.10649733098E+03  0.10649733101E+03  0.25500000000E-02 0.  1.
    8880023    1    1    2    0    0  0.69181284724E+02 -0.17119328478E+02  0.10889606094E+04  0.12746468282E+04  0.65864270000E+03 0.  1.
    8880022    1    1    2    0    0 -0.69181284724E+02  0.17119328478E+02  0.50762731725E+03  0.53493576044E+03  0.15294330000E+03 0.  0.
<mgrwt>
<rscale>  0 0.47063372E+03</rscale>
<asrwt>0</asrwt>
<pdfrwt beam="1">  1        2 0.26201309E+00 0.66248723E+03</pdfrwt>
<pdfrwt beam="2">  1       -2 0.16384207E-01 0.66248723E+03</pdfrwt>
<totfact> 0.30147033E+02</totfact>
</mgrwt>
</event>
<event>
 4    1  0.3057048E-007  0.6795418E+03  0.7818608E-02  0.1009584E+00
          2   -1    0    0  501    0  0.00000000000E+00  0.00000000000E+00  0.73373309123E+03  0.73373309124E+03  0.25500000000E-02 0. -1.
         -2   -1    0    0    0  501 -0.00000000000E+00 -0.00000000000E+00 -0.39550271196E+03  0.39550271197E+03  0.25500000000E-02 0.  1.
    8880023    1    1    2    0    0  0.12932129938E+03 -0.10603236103E+03 -0.48206164137E+02  0.68124951419E+03  0.65864270000E+03 0.  1.
    8880022    1    1    2    0    0 -0.12932129938E+03  0.10603236103E+03  0.38643654341E+03  0.44798628902E+03  0.15294330000E+03 0.  0.
<mgrwt>
<rscale>  0 0.51640292E+03</rscale>
<asrwt>0</asrwt>
<pdfrwt beam="1">  1        2 0.11288201E+00 0.67954181E+03</pdfrwt>
<pdfrwt beam="2">  1       -2 0.60846571E-01 0.67954181E+03</pdfrwt>
<totfact> 0.98624980E+01</totfact>
</mgrwt>
</event>
<event>
 4    1  0.3057048E-007  0.7006230E+03  0.7818608E-02  0.9994627E-01
         -2   -1    0    0    0  501 -0.00000000000E+00  0.00000000000E+00  0.15443064459E+03  0.15443064461E+03  0.25500000000E-02 0.  1.
          2   -1    0    0  501    0  0.00000000000E+00 -0.00000000000E+00 -0.37215657105E+04  0.37215657105E+04  0.25500000000E-02 0. -1.
    8880023    1    1    2    0    0 -0.23835317743E+03 -0.15814597800E+02 -0.68468975862E+03  0.97962881262E+03  0.65864270000E+03 0.  0.
    8880022    1    1    2    0    0  0.23835317743E+03  0.15814597800E+02 -0.28824453073E+04  0.28963675425E+04  0.15294330000E+03 0.  0.
<mgrwt>
<rscale>  0 0.55886476E+03</rscale>
<asrwt>0</asrwt>
<pdfrwt beam="1">  1        2 0.57254850E+00 0.70062297E+03</pdfrwt>
<pdfrwt beam="2">  1       -2 0.23758564E-01 0.70062297E+03</pdfrwt>
<totfact> 0.97236441E+00</totfact>
</mgrwt>
</event>
<event>
 4    1  0.3057048E-007  0.7564049E+03  0.7818608E-02  0.9814505E-01
         -2   -1    0    0    0  501 -0.00000000000E+00  0.00000000000E+00  0.26732927075E+03  0.26732927077E+03  0.25500000000E-02 0.  1.
          2   -1    0    0  501    0  0.00000000000E+00 -0.00000000000E+00 -0.22136708901E+04  0.22136708901E+04  0.25500000000E-02 0. -1.
    8880023    1    1    2    0    0 -0.34012550342E+03  0.15050841190E+03 -0.34759401995E+03  0.83244816601E+03  0.65864270000E+03 0.  1.
    8880022    1    1    2    0    0  0.34012550342E+03 -0.15050841190E+03 -0.15987475993E+04  0.16485519948E+04  0.15294330000E+03 0.  0.
<mgrwt>
<rscale>  0 0.64589883E+03</rscale>
<asrwt>0</asrwt>
<pdfrwt beam="1">  1        2 0.34056474E+00 0.75640488E+03</pdfrwt>
<pdfrwt beam="2">  1       -2 0.41127582E-01 0.75640488E+03</pdfrwt>
<totfact> 0.29435709E+01</totfact>
</mgrwt>
</event>
<event>
 4    1  0.3057048E-007  0.1184375E+04  0.7818608E-02  0.9172462E-01
          2   -1    0    0  501    0  0.00000000000E+00  0.00000000000E+00  0.31556348530E+04  0.31556348530E+04  0.25500000000E-02 0. -1.
         -2   -1    0    0    0  501 -0.00000000000E+00 -0.00000000000E+00 -0.49386480548E+03  0.49386480549E+03  0.25500000000E-02 0.  1.
    8880023    1    1    2    0    0  0.55021658725E+03  0.81620864611E+03  0.53219046907E+03  0.12984497482E+04  0.65864270000E+03 0.  1.
    8880022    1    1    2    0    0 -0.55021658725E+03 -0.81620864611E+03  0.21295795785E+04  0.23510499104E+04  0.15294330000E+03 0.  0.
<mgrwt>
<rscale>  0 0.11342241E+04</rscale>
<asrwt>0</asrwt>
<pdfrwt beam="1">  1        2 0.48548229E+00 0.11843754E+04</pdfrwt>
<pdfrwt beam="2">  1       -2 0.75979201E-01 0.11843754E+04</pdfrwt>
<totfact> 0.21477269E+00</totfact>
</mgrwt>
</event>
<event>
 4    1  0.3057048E-007  0.7206235E+03  0.7818608E-02  0.9920482E-01
         -2   -1    0    0    0  501 -0.00000000000E+00  0.00000000000E+00  0.61984549656E+03  0.61984549657E+03  0.25500000000E-02 0.  1.
          2   -1    0    0  501    0  0.00000000000E+00 -0.00000000000E+00 -0.10768195729E+04  0.10768195729E+04  0.25500000000E-02 0. -1.
    8880023    1    1    2    0    0  0.39946320529E+01 -0.29235602106E+03  0.36727638474E+03  0.80882022056E+03  0.65864270000E+03 0.  0.
    8880022    1    1    2    0    0 -0.39946320529E+01  0.29235602106E+03 -0.82425046104E+03  0.88784484887E+03  0.15294330000E+03 0.  0.
<mgrwt>
<rscale>  0 0.59278834E+03</rscale>
<asrwt>0</asrwt>
<pdfrwt beam="1">  1        2 0.16566455E+00 0.72062348E+03</pdfrwt>
<pdfrwt beam="2">  1       -2 0.95360846E-01 0.72062348E+03</pdfrwt>
<totfact> 0.21232444E+01</totfact>
</mgrwt>
</event>
<event>
 4    1  0.3057048E-007  0.1218483E+04  0.7818608E-02  0.9139362E-01
          2   -1    0    0  501    0  0.00000000000E+00  0.00000000000E+00  0.19691189105E+04  0.19691189105E+04  0.25500000000E-02 0. -1.
         -2   -1    0    0    0  501 -0.00000000000E+00 -0.00000000000E+00 -0.82999499999E+03  0.82999499999E+03  0.25500000000E-02 0.  1.
    8880023    1    1    2    0    0  0.84552276797E+03 -0.57963921575E+03  0.12633649559E+04  0.17552183880E+04  0.65864270000E+03 0.  0.
    8880022    1    1    2    0    0 -0.84552276797E+03  0.57963921575E+03 -0.12424104532E+03  0.10438955225E+04  0.15294330000E+03 0.  0.
<mgrwt>
<rscale>  0 0.11701846E+04</rscale>
<asrwt>0</asrwt>
<pdfrwt beam="1">  1        2 0.30294136E+00 0.12184829E+04</pdfrwt>
<pdfrwt beam="2">  1       -2 0.12769154E+00 0.12184829E+04</pdfrwt>
<totfact> 0.30745851E+00</totfact>
</mgrwt>
</event>
<event>
 4    1  0.3057048E-007  0.6972004E+03  0.7818608E-02  0.1000902E+00
         -2   -1    0    0    0  501 -0.00000000000E+00  0.00000000000E+00  0.25551550068E+03  0.25551550070E+03  0.25500000000E-02 0.  1.
          2   -1    0    0  501    0  0.00000000000E+00 -0.00000000000E+00 -0.23527182466E+04  0.23527182466E+04  0.25500000000E-02 0. -1.
    8880023    1    1    2    0    0 -0.22595876576E+03  0.34940490394E+02 -0.25000998854E+03  0.74067091365E+03  0.65864270000E+03 0.  1.
    8880022    1    1    2    0    0  0.22595876576E+03 -0.34940490394E+02 -0.18471927574E+04  0.18675628336E+04  0.15294330000E+03 0.  0.
<mgrwt>
<rscale>  0 0.55256527E+03</rscale>
<asrwt>0</asrwt>
<pdfrwt beam="1">  1        2 0.36195664E+00 0.69720041E+03</pdfrwt>
<pdfrwt beam="2">  1       -2 0.39310079E-01 0.69720041E+03</pdfrwt>
<totfact> 0.27153028E+01</totfact>
</mgrwt>
</event>
<event>
 4    1  0.3057048E-007  0.8323437E+03  0.7818608E-02  0.9644789E-01
          2   -1    0    0  501    0  0.00000000000E+00  0.00000000000E+00  0.43020160031E+04  0.43020160031E+04  0.25500000000E-02 0. -1.
         -2   -1    0    0    0  501 -0.00000000000E+00 -0.00000000000E+00 -0.11663550313E+03  0.11663550316E+03  0.25500000000E-02 0.  1.
    8880023    1    1    2    0    0 -0.49716866401E+03 -0.10866996366E+03  0.31054698655E+04  0.32150799575E+04  0.65864270000E+03 0.  0.
    8880022    1    1    2    0    0  0.49716866401E+03  0.10866996366E+03  0.10799106345E+04  0.12035715487E+04  0.15294330000E+03 0. -1.
<mgrwt>
<rscale>  0 0.74401345E+03</rscale>
<asrwt>0</asrwt>
<pdfrwt beam="1">  1        2 0.66184857E+00 0.83234371E+03</pdfrwt>
<pdfrwt beam="2">  1       -2 0.17943925E-01 0.83234371E+03</pdfrwt>
<totfact> 0.53574847E+00</totfact>
</mgrwt>
</event>
<event>
 4    1  0.3057048E-007  0.8389477E+03  0.7818608E-02  0.9632168E-01
         -2   -1    0    0    0  501 -0.00000000000E+00  0.00000000000E+00  0.45399688758E+03  0.45399688758E+03  0.25500000000E-02 0.  1.
          2   -1    0    0  501    0  0.00000000000E+00 -0.00000000000E+00 -0.11513560723E+04  0.11513560723E+04  0.25500000000E-02 0. -1.
    8880023    1    1    2    0    0  0.46650803095E+03 -0.22889581568E+03 -0.18363672348E+03  0.85881062514E+03  0.65864270000E+03 0.  0.
    8880022    1    1    2    0    0 -0.46650803095E+03  0.22889581568E+03 -0.51372246125E+03  0.74654233476E+03  0.15294330000E+03 0.  0.
<mgrwt>
<rscale>  0 0.75203213E+03</rscale>
<asrwt>0</asrwt>
<pdfrwt beam="1">  1        2 0.17713170E+00 0.83894770E+03</pdfrwt>
<pdfrwt beam="2">  1       -2 0.69845675E-01 0.83894770E+03</pdfrwt>
<totfact> 0.38205242E+01</totfact>
</mgrwt>
</event>
<event>
 4    1  0.3057048E-007  0.7383687E+03  0.7818608E-02  0.9864725E-01
          2   -1    0    0  501    0  0.00000000000E+00  0.00000000000E+00  0.27937609344E+04  0.27937609344E+04  0.25500000000E-02 0. -1.
         -2   -1    0    0    0  501 -0.00000000000E+00 -0.00000000000E+00 -0.24090070446E+03  0.24090070447E+03  0.25500000000E-02 0.  1.
    8880023    1    1    2    0    0 -0.25430852211E+03  0.21611414076E+03  0.37887898765E+03  0.82990218689E+03  0.65864270000E+03 0.  1.
    8880022    1    1    2    0    0  0.25430852211E+03 -0.21611414076E+03  0.21739812422E+04  0.22047594519E+04  0.15294330000E+03 0.  0.
<mgrwt>
<rscale>  0 0.62001763E+03</rscale>
<asrwt>0</asrwt>
<pdfrwt beam="1">  1        2 0.42980936E+00 0.73836871E+03</pdfrwt>
<pdfrwt beam="2">  1       -2 0.37061648E-01 0.73836871E+03</pdfrwt>
<totfact> 0.16906968E+01</totfact>
</mgrwt>
</event>
<event>
 4    1  0.3057048E-007  0.1052992E+04  0.7818608E-02  0.9315294E-01
         -2   -1    0    0    0  501 -0.00000000000E+00  0.00000000000E+00  0.60225179284E+03  0.60225179285E+03  0.25500000000E-02 0.  1.
          2   -1    0    0  501    0  0.00000000000E+00 -0.00000000000E+00 -0.21885756222E+04  0.21885756222E+04  0.25500000000E-02 0. -1.
    8880023    1    1    2    0    0 -0.40294134532E+03  0.71597465696E+03 -0.16449202747E+04  0.19530884142E+04  0.65864270000E+03 0.  0.
    8880022    1    1    2    0    0  0.40294134532E+03 -0.71597465696E+03  0.58596445346E+02  0.83773900088E+03  0.15294330000E+03 0.  0.
<mgrwt>
<rscale>  0 0.99387019E+03</rscale>
<asrwt>0</asrwt>
<pdfrwt beam="1">  1        2 0.33670394E+00 0.10529918E+04</pdfrwt>
<pdfrwt beam="2">  1       -2 0.92654123E-01 0.10529918E+04</pdfrwt>
<totfact> 0.51638774E+00</totfact>
</mgrwt>
</event>
<event>
 4    1  0.3057048E-007  0.6690849E+03  0.7818608E-02  0.1016328E+00
          2   -1    0    0  501    0  0.00000000000E+00  0.00000000000E+00  0.46671209392E+03  0.46671209393E+03  0.25500000000E-02 0. -1.
         -2   -1    0    0    0  501 -0.00000000000E+00 -0.00000000000E+00 -0.73694931526E+03  0.73694931526E+03  0.25500000000E-02 0.  1.
    8880023    1    1    2    0    0  0.10935358360E+03 -0.43659405950E+02 -0.54838560799E+03  0.86510191960E+03  0.65864270000E+03 0.  1.
    8880022    1    1    2    0    0 -0.10935358360E+03  0.43659405950E+02  0.27814838666E+03  0.33855948959E+03  0.15294330000E+03 0.  0.
<mgrwt>
<rscale>  0 0.49035481E+03</rscale>
<asrwt>0</asrwt>
<pdfrwt beam="1">  1        2 0.71801861E-01 0.66908486E+03</pdfrwt>
<pdfrwt beam="2">  1       -2 0.11337682E+00 0.66908486E+03</pdfrwt>
<totfact> 0.41438594E+01</totfact>
</mgrwt>
</event>
<event>
 4    1  0.3057048E-007  0.1151693E+04  0.7818608E-02  0.9205574E-01
          2   -1    0    0  501    0  0.00000000000E+00  0.00000000000E+00  0.86449076575E+03  0.86449076575E+03  0.25500000000E-02 0. -1.
         -2   -1    0    0    0  501 -0.00000000000E+00 -0.00000000000E+00 -0.21647483066E+04  0.21647483066E+04  0.25500000000E-02 0.  1.
    8880023    1    1    2    0    0 -0.72255227990E+03  0.60869011925E+03 -0.16483514430E+04  0.20108351858E+04  0.65864270000E+03 0.  0.
    8880022    1    1    2    0    0  0.72255227990E+03 -0.60869011925E+03  0.34809390216E+03  0.10184038866E+04  0.15294330000E+03 0.  0.
<mgrwt>
<rscale>  0 0.10996082E+04</rscale>
<asrwt>0</asrwt>
<pdfrwt beam="1">  1        2 0.13299858E+00 0.11516925E+04</pdfrwt>
<pdfrwt beam="2">  1       -2 0.33303820E+00 0.11516925E+04</pdfrwt>
<totfact> 0.60934744E-01</totfact>
</mgrwt>
</event>
<event>
 4    1  0.3057048E-007  0.6617125E+03  0.7818608E-02  0.1022467E+00
          2   -1    0    0  501    0  0.00000000000E+00  0.00000000000E+00  0.13259274848E+04  0.13259274848E+04  0.25500000000E-02 0. -1.
         -2   -1    0    0    0  501 -0.00000000000E+00 -0.00000000000E+00 -0.54627888400E+03  0.54627888401E+03  0.25500000000E-02 0.  1.
    8880023    1    1    2    0    0 -0.92984293997E+01 -0.62982096163E+02 -0.33752017854E+03  0.74282116449E+03  0.65864270000E+03 0.  0.
    8880022    1    1    2    0    0  0.92984293997E+01  0.62982096163E+02  0.11171687793E+04  0.11293852043E+04  0.15294330000E+03 0.  0.
<mgrwt>
<rscale>  0 0.46806872E+03</rscale>
<asrwt>0</asrwt>
<pdfrwt beam="1">  1        2 0.20398884E+00 0.66171248E+03</pdfrwt>
<pdfrwt beam="2">  1       -2 0.84042906E-01 0.66171248E+03</pdfrwt>
<totfact> 0.20377020E+01</totfact>
</mgrwt>
</event>
<event>
 4    1  0.3057048E-007  0.6922668E+03  0.7818608E-02  0.1003093E+00
          2   -1    0    0  501    0  0.00000000000E+00  0.00000000000E+00  0.31514347952E+04  0.31514347952E+04  0.25500000000E-02 0. -1.
         -2   -1    0    0    0  501 -0.00000000000E+00 -0.00000000000E+00 -0.12786092904E+03  0.12786092907E+03  0.25500000000E-02 0.  1.
    8880023    1    1    2    0    0 -0.20765063940E+02 -0.21211295718E+03  0.87964957662E+03  0.11193822754E+04  0.65864270000E+03 0.  1.
    8880022    1    1    2    0    0  0.20765063940E+02  0.21211295718E+03  0.21439242895E+04  0.21599134489E+04  0.15294330000E+03 0.  0.
<mgrwt>
<rscale>  0 0.54314441E+03</rscale>
<asrwt>0</asrwt>
<pdfrwt beam="1">  1        2 0.48483612E+00 0.69226678E+03</pdfrwt>
<pdfrwt beam="2">  1       -2 0.19670912E-01 0.69226678E+03</pdfrwt>
<totfact> 0.32848979E+01</totfact>
</mgrwt>
</event>
<event>
 4    1  0.3057048E-007  0.8348617E+03  0.7818608E-02  0.9639946E-01
          2   -1    0    0  501    0  0.00000000000E+00  0.00000000000E+00  0.19146955135E+04  0.19146955135E+04  0.25500000000E-02 0. -1.
         -2   -1    0    0    0  501 -0.00000000000E+00 -0.00000000000E+00 -0.40317989953E+03  0.40317989954E+03  0.25500000000E-02 0.  1.
    8880023    1    1    2    0    0  0.38027098615E+03  0.34435138213E+03  0.14121626594E+03  0.84672081427E+03  0.65864270000E+03 0.  1.
    8880022    1    1    2    0    0 -0.38027098615E+03 -0.34435138213E+03  0.13702993481E+04  0.14711545988E+04  0.15294330000E+03 0.  0.
<mgrwt>
<rscale>  0 0.74707776E+03</rscale>
<asrwt>0</asrwt>
<pdfrwt beam="1">  1        2 0.29456854E+00 0.83486173E+03</pdfrwt>
<pdfrwt beam="2">  1       -2 0.62027676E-01 0.83486173E+03</pdfrwt>
<totfact> 0.18363502E+01</totfact>
</mgrwt>
</event>
<event>
 4    1  0.3057048E-007  0.7323583E+03  0.7818608E-02  0.9882793E-01
          2   -1    0    0  501    0  0.00000000000E+00  0.00000000000E+00  0.26228521207E+04  0.26228521207E+04  0.25500000000E-02 0. -1.
         -2   -1    0    0    0  501 -0.00000000000E+00 -0.00000000000E+00 -0.18131847747E+03  0.18131847748E+03  0.25500000000E-02 0.  1.
    8880023    1    1    2    0    0  0.53260877488E+02  0.31575588379E+03  0.65436603108E+03  0.98211181039E+03  0.65864270000E+03 0.  1.
    8880022    1    1    2    0    0 -0.53260877488E+02 -0.31575588379E+03  0.17871676121E+04  0.18220587878E+04  0.15294330000E+03 0.  0.
<mgrwt>
<rscale>  0 0.61102493E+03</rscale>
<asrwt>0</asrwt>
<pdfrwt beam="1">  1        2 0.40351570E+00 0.73235832E+03</pdfrwt>
<pdfrwt beam="2">  1       -2 0.27895151E-01 0.73235832E+03</pdfrwt>
<totfact> 0.36283199E+01</totfact>
</mgrwt>
</event>
<event>
 4    1  0.3057048E-007  0.9782141E+03  0.7818608E-02  0.9410632E-01
         -2   -1    0    0    0  501 -0.00000000000E+00  0.00000000000E+00  0.65495609697E+03  0.65495609697E+03  0.25500000000E-02 0.  1.
          2   -1    0    0  501    0  0.00000000000E+00 -0.00000000000E+00 -0.14040148549E+04  0.14040148549E+04  0.25500000000E-02 0. -1.
    8880023    1    1    2    0    0 -0.64267698767E+03 -0.33175115846E+03  0.38298778666E+02  0.97896350510E+03  0.65864270000E+03 0.  1.
    8880022    1    1    2    0    0  0.64267698767E+03  0.33175115846E+03 -0.78735753658E+03  0.10800074468E+04  0.15294330000E+03 0. -1.
<mgrwt>
<rscale>  0 0.91205836E+03</rscale>
<asrwt>0</asrwt>
<pdfrwt beam="1">  1        2 0.21600228E+00 0.97821406E+03</pdfrwt>
<pdfrwt beam="2">  1       -2 0.10076248E+00 0.97821406E+03</pdfrwt>
<totfact> 0.11641306E+01</totfact>
</mgrwt>
</event>
<event>
 4    1  0.3057048E-007  0.7684117E+03  0.7818608E-02  0.9783798E-01
         -2   -1    0    0    0  501 -0.00000000000E+00  0.00000000000E+00  0.69575752135E+03  0.69575752135E+03  0.25500000000E-02 0.  1.
          2   -1    0    0  501    0  0.00000000000E+00 -0.00000000000E+00 -0.65768363535E+03  0.65768363535E+03  0.25500000000E-02 0. -1.
    8880023    1    1    2    0    0  0.31262161464E+03 -0.24272233369E+03  0.33221246816E+03  0.83715096337E+03  0.65864270000E+03 0.  0.
    8880022    1    1    2    0    0 -0.31262161464E+03  0.24272233369E+03 -0.29413858215E+03  0.51629019334E+03  0.15294330000E+03 0.  0.
<mgrwt>
<rscale>  0 0.66239346E+03</rscale>
<asrwt>0</asrwt>
<pdfrwt beam="1">  1        2 0.10118210E+00 0.76841175E+03</pdfrwt>
<pdfrwt beam="2">  1       -2 0.10703962E+00 0.76841175E+03</pdfrwt>
<totfact> 0.31458119E+01</totfact>
</mgrwt>
</event>
<event>
 4    1  0.3057048E-007  0.8530613E+03  0.7818608E-02  0.9606027E-01
         -2   -1    0    0    0  501 -0.00000000000E+00  0.00000000000E+00  0.23699580428E+03  0.23699580429E+03  0.25500000000E-02 0.  1.
          2   -1    0    0  501    0  0.00000000000E+00 -0.00000000000E+00 -0.28269596900E+04  0.28269596900E+04  0.25500000000E-02 0. -1.
    8880023    1    1    2    0    0 -0.35785516372E+03 -0.40723838110E+03 -0.73722888713E+03  0.11274839491E+04  0.65864270000E+03 0.  1.
    8880022    1    1    2    0    0  0.35785516372E+03  0.40723838110E+03 -0.18527349986E+04  0.19364715452E+04  0.15294330000E+03 0.  0.
<mgrwt>
<rscale>  0 0.76898542E+03</rscale>
<asrwt>0</asrwt>
<pdfrwt beam="1">  1        2 0.43491685E+00 0.85306132E+03</pdfrwt>
<pdfrwt beam="2">  1       -2 0.36460895E-01 0.85306132E+03</pdfrwt>
<totfact> 0.16380064E+01</totfact>
</mgrwt>
</event>
<event>
 4    1  0.3057048E-007  0.7312268E+03  0.7818608E-02  0.9886281E-01
          2   -1    0    0  501    0  0.00000000000E+00  0.00000000000E+00  0.14920386600E+04  0.14920386600E+04  0.25500000000E-02 0. -1.
         -2   -1    0    0    0  501 -0.00000000000E+00 -0.00000000000E+00 -0.70953982600E+03  0.70953982601E+03  0.25500000000E-02 0.  1.
    8880023    1    1    2    0    0 -0.11510620482E+03  0.29602876507E+03 -0.49061055141E+03  0.88056310822E+03  0.65864270000E+03 0.  1.
    8880022    1    1    2    0    0  0.11510620482E+03 -0.29602876507E+03  0.12731093854E+04  0.13210153778E+04  0.15294330000E+03 0.  0.
<mgrwt>
<rscale>  0 0.60930771E+03</rscale>
<asrwt>0</asrwt>
<pdfrwt beam="1">  1        2 0.22954441E+00 0.73122683E+03</pdfrwt>
<pdfrwt beam="2">  1       -2 0.10915997E+00 0.73122683E+03</pdfrwt>
<totfact> 0.88197360E+00</totfact>
</mgrwt>
</event>
<event>
 4    1  0.3057048E-007  0.9654998E+03  0.7818608E-02  0.9428155E-01
         -2   -1    0    0    0  501 -0.00000000000E+00  0.00000000000E+00  0.66563709141E+03  0.66563709141E+03  0.25500000000E-02 0.  1.
          2   -1    0    0  501    0  0.00000000000E+00 -0.00000000000E+00 -0.14509961941E+04  0.14509961941E+04  0.25500000000E-02 0. -1.
    8880023    1    1    2    0    0 -0.42399625592E+02  0.70468564000E+03  0.10377780894E+03  0.97106107911E+03  0.65864270000E+03 0.  1.
    8880022    1    1    2    0    0  0.42399625592E+02 -0.70468564000E+03 -0.88913691166E+03  0.11455722064E+04  0.15294330000E+03 0.  0.
<mgrwt>
<rscale>  0 0.89794377E+03</rscale>
<asrwt>0</asrwt>
<pdfrwt beam="1">  1        2 0.22323018E+00 0.96549976E+03</pdfrwt>
<pdfrwt beam="2">  1       -2 0.10240571E+00 0.96549976E+03</pdfrwt>
<totfact> 0.10545666E+01</totfact>
</mgrwt>
</event>
<event>
 4    1  0.3057048E-007  0.1113120E+04  0.7818608E-02  0.9246588E-01
          2   -1    0    0  501    0  0.00000000000E+00  0.00000000000E+00  0.44728334151E+03  0.44728334151E+03  0.25500000000E-02 0. -1.
         -2   -1    0    0    0  501 -0.00000000000E+00 -0.00000000000E+00 -0.35799496566E+04  0.35799496566E+04  0.25500000000E-02 0.  1.
    8880023    1    1    2    0    0  0.15379948138E+02  0.89721169275E+03 -0.28722995408E+04  0.30804448093E+04  0.65864270000E+03 0.  0.
    8880022    1    1    2    0    0 -0.15379948138E+02 -0.89721169275E+03 -0.26036677428E+03  0.94678818886E+03  0.15294330000E+03 0.  0.
<mgrwt>
<rscale>  0 0.10585238E+04</rscale>
<asrwt>0</asrwt>
<pdfrwt beam="1">  1        2 0.68812824E-01 0.11131197E+04</pdfrwt>
<pdfrwt beam="2">  1       -2 0.55076147E+00 0.11131197E+04</pdfrwt>
<totfact> 0.58148800E-02</totfact>
</mgrwt>
</event>
<event>
 4    1  0.3057048E-007  0.7034563E+03  0.7818608E-02  0.9983154E-01
          2   -1    0    0  501    0  0.00000000000E+00  0.00000000000E+00  0.95529360216E+03  0.95529360217E+03  0.25500000000E-02 0. -1.
         -2   -1    0    0    0  501 -0.00000000000E+00 -0.00000000000E+00 -0.36661463283E+03  0.36661463284E+03  0.25500000000E-02 0.  1.
    8880023    1    1    2    0    0 -0.50620814233E+02 -0.24182235612E+03  0.44319284279E+02  0.70485099417E+03  0.65864270000E+03 0.  1.
    8880022    1    1    2    0    0  0.50620814233E+02  0.24182235612E+03  0.54435968505E+03  0.61705724084E+03  0.15294330000E+03 0.  0.
<mgrwt>
<rscale>  0 0.56395094E+03</rscale>
<asrwt>0</asrwt>
<pdfrwt beam="1">  1        2 0.14696824E+00 0.70345627E+03</pdfrwt>
<pdfrwt beam="2">  1       -2 0.56402252E-01 0.70345627E+03</pdfrwt>
<totfact> 0.80850630E+01</totfact>
</mgrwt>
</event>
<event>
 4    1  0.4098579E-007  0.1225318E+04  0.7818608E-02  0.9132896E-01
         -2   -1    0    0    0  501 -0.00000000000E+00  0.00000000000E+00  0.19869288187E+04  0.19869288187E+04  0.25500000000E-02 0.  1.
          2   -1    0    0  501    0  0.00000000000E+00 -0.00000000000E+00 -0.24356003817E+04  0.24356003817E+04  0.25500000000E-02 0. -1.
    8880023    1    1    2    0    0 -0.18649436493E+03 -0.10162748948E+04  0.16635815422E+04  0.20661337236E+04  0.65864270000E+03 0.  0.
    8880022    1    1    2    0    0  0.18649436493E+03  0.10162748948E+04 -0.21122531052E+04  0.23563954768E+04  0.15294330000E+03 0.  0.
<mgrwt>
<rscale>  0 0.11773731E+04</rscale>
<asrwt>0</asrwt>
<pdfrwt beam="1">  1        2 0.37470775E+00 0.12253183E+04</pdfrwt>
<pdfrwt beam="2">  1       -2 0.30568136E+00 0.12253183E+04</pdfrwt>
<totfact> 0.10869240E-01</totfact>
</mgrwt>
</event>
<event>
 4    1  0.3057048E-007  0.8946695E+03  0.7818608E-02  0.9534644E-01
         -2   -1    0    0    0  501 -0.00000000000E+00  0.00000000000E+00  0.11183761992E+04  0.11183761992E+04  0.25500000000E-02 0.  1.
          2   -1    0    0  501    0  0.00000000000E+00 -0.00000000000E+00 -0.11944473237E+04  0.11944473237E+04  0.25500000000E-02 0. -1.
    8880023    1    1    2    0    0 -0.63030501450E+02  0.60220460755E+03  0.82466925261E+03  0.12167632539E+04  0.65864270000E+03 0.  0.
    8880022    1    1    2    0    0  0.63030501450E+02 -0.60220460755E+03 -0.90074037705E+03  0.10960602690E+04  0.15294330000E+03 0.  0.
<mgrwt>
<rscale>  0 0.81777176E+03</rscale>
<asrwt>0</asrwt>
<pdfrwt beam="1">  1        2 0.18376113E+00 0.89466946E+03</pdfrwt>
<pdfrwt beam="2">  1       -2 0.17205788E+00 0.89466946E+03</pdfrwt>
<totfact> 0.39470694E+00</totfact>
</mgrwt>
</event>
<event>
 4    1  0.3057048E-007  0.8593014E+03  0.7818608E-02  0.9594807E-01
          2   -1    0    0  501    0  0.00000000000E+00  0.00000000000E+00  0.19515967577E+04  0.19515967577E+04  0.25500000000E-02 0. -1.
         -2   -1    0    0    0  501 -0.00000000000E+00 -0.00000000000E+00 -0.45287595140E+03  0.45287595141E+03  0.25500000000E-02 0.  1.
    8880023    1    1    2    0    0 -0.23761918224E+03  0.49812228807E+03  0.66353775682E+02  0.86185945458E+03  0.65864270000E+03 0.  0.
    8880022    1    1    2    0    0  0.23761918224E+03 -0.49812228807E+03  0.14323670307E+04  0.15426132546E+04  0.15294330000E+03 0.  0.
<mgrwt>
<rscale>  0 0.77640821E+03</rscale>
<asrwt>0</asrwt>
<pdfrwt beam="1">  1        2 0.30024565E+00 0.85930140E+03</pdfrwt>
<pdfrwt beam="2">  1       -2 0.69673224E-01 0.85930140E+03</pdfrwt>
<totfact> 0.13599902E+01</totfact>
</mgrwt>
</event>
<event>
 4    1  0.3057048E-007  0.9855423E+03  0.7818608E-02  0.9400722E-01
          2   -1    0    0  501    0  0.00000000000E+00  0.00000000000E+00  0.86917653962E+03  0.86917653962E+03  0.25500000000E-02 0. -1.
         -2   -1    0    0    0  501 -0.00000000000E+00 -0.00000000000E+00 -0.10641729201E+04  0.10641729201E+04  0.25500000000E-02 0.  1.
    8880023    1    1    2    0    0  0.37470713937E+02  0.73217440254E+03 -0.52304409242E+03  0.11157368592E+04  0.65864270000E+03 0. -1.
    8880022    1    1    2    0    0 -0.37470713937E+02 -0.73217440254E+03  0.32804771196E+03  0.81761260049E+03  0.15294330000E+03 0.  1.
<mgrwt>
<rscale>  0 0.92016290E+03</rscale>
<asrwt>0</asrwt>
<pdfrwt beam="1">  1        2 0.13371947E+00 0.98554230E+03</pdfrwt>
<pdfrwt beam="2">  1       -2 0.16371891E+00 0.98554230E+03</pdfrwt>
<totfact> 0.72284063E+00</totfact>
</mgrwt>
</event>
<event>
 4    1  0.3057048E-007  0.1003999E+04  0.7818608E-02  0.9376344E-01
          2   -1    0    0  501    0  0.00000000000E+00  0.00000000000E+00  0.19263570158E+04  0.19263570158E+04  0.25500000000E-02 0. -1.
         -2   -1    0    0    0  501 -0.00000000000E+00 -0.00000000000E+00 -0.12206669679E+04  0.12206669679E+04  0.25500000000E-02 0.  1.
    8880023    1    1    2    0    0  0.75569434382E+03  0.55952808682E+02 -0.91056401380E+03  0.13554119992E+04  0.65864270000E+03 0.  0.
    8880022    1    1    2    0    0 -0.75569434382E+03 -0.55952808682E+02  0.16162540617E+04  0.17916119845E+04  0.15294330000E+03 0.  0.
<mgrwt>
<rscale>  0 0.94048330E+03</rscale>
<asrwt>0</asrwt>
<pdfrwt beam="1">  1        2 0.29636262E+00 0.10039994E+04</pdfrwt>
<pdfrwt beam="2">  1       -2 0.18779492E+00 0.10039994E+04</pdfrwt>
<totfact> 0.11734746E+00</totfact>
</mgrwt>
</event>
<event>
 4    1  0.3057048E-007  0.1086153E+04  0.7818608E-02  0.9276632E-01
          2   -1    0    0  501    0  0.00000000000E+00  0.00000000000E+00  0.22717154335E+04  0.22717154335E+04  0.25500000000E-02 0. -1.
         -2   -1    0    0    0  501 -0.00000000000E+00 -0.00000000000E+00 -0.72373188831E+03  0.72373188831E+03  0.25500000000E-02 0.  1.
    8880023    1    1    2    0    0 -0.85252413853E+03 -0.13827726372E+03 -0.13807493887E+03  0.10948940147E+04  0.65864270000E+03 0.  0.
    8880022    1    1    2    0    0  0.85252413853E+03  0.13827726372E+03  0.16860584841E+04  0.19005533071E+04  0.15294330000E+03 0.  0.
<mgrwt>
<rscale>  0 0.10296293E+04</rscale>
<asrwt>0</asrwt>
<pdfrwt beam="1">  1        2 0.34949468E+00 0.10861529E+04</pdfrwt>
<pdfrwt beam="2">  1       -2 0.11134337E+00 0.10861529E+04</pdfrwt>
<totfact> 0.29787573E+00</totfact>
</mgrwt>
</event>
<event>
 4    1  0.3057048E-007  0.6861981E+03  0.7818608E-02  0.1006015E+00
          2   -1    0    0  501    0  0.00000000000E+00  0.00000000000E+00  0.13309499626E+04  0.13309499626E+04  0.25500000000E-02 0. -1.
         -2   -1    0    0    0  501 -0.00000000000E+00 -0.00000000000E+00 -0.29263269011E+03  0.29263269012E+03  0.25500000000E-02 0.  1.
    8880023    1    1    2    0    0  0.16326852402E+03  0.10198540003E+03  0.15071083658E+03  0.70255362449E+03  0.65864270000E+03 0.  1.
    8880022    1    1    2    0    0 -0.16326852402E+03 -0.10198540003E+03  0.88760643591E+03  0.92102902823E+03  0.15294330000E+03 0.  0.
<mgrwt>
<rscale>  0 0.53089793E+03</rscale>
<asrwt>0</asrwt>
<pdfrwt beam="1">  1        2 0.20476154E+00 0.68619810E+03</pdfrwt>
<pdfrwt beam="2">  1       -2 0.45020413E-01 0.68619810E+03</pdfrwt>
<totfact> 0.75983723E+01</totfact>
</mgrwt>
</event>
<event>
 4    1  0.3057048E-007  0.9498787E+03  0.7818608E-02  0.9450289E-01
          2   -1    0    0  501    0  0.00000000000E+00  0.00000000000E+00  0.18137107970E+04  0.18137107970E+04  0.25500000000E-02 0. -1.
         -2   -1    0    0    0  501 -0.00000000000E+00 -0.00000000000E+00 -0.48425718816E+03  0.48425718816E+03  0.25500000000E-02 0.  1.
    8880023    1    1    2    0    0  0.54175806175E+03  0.41827928749E+03  0.20345703628E+03  0.97142386819E+03  0.65864270000E+03 0.  0.
    8880022    1    1    2    0    0 -0.54175806175E+03 -0.41827928749E+03  0.11259965725E+04  0.13265441170E+04  0.15294330000E+03 0.  0.
<mgrwt>
<rscale>  0 0.88050193E+03</rscale>
<asrwt>0</asrwt>
<pdfrwt beam="1">  1        2 0.27903243E+00 0.94987871E+03</pdfrwt>
<pdfrwt beam="2">  1       -2 0.74501106E-01 0.94987871E+03</pdfrwt>
<totfact> 0.13819239E+01</totfact>
</mgrwt>
</event>
<event>
 4    1  0.3057048E-007  0.9776835E+03  0.7818608E-02  0.9411355E-01
          2   -1    0    0  501    0  0.00000000000E+00  0.00000000000E+00  0.48173212228E+03  0.48173212229E+03  0.25500000000E-02 0. -1.
         -2   -1    0    0    0  501 -0.00000000000E+00 -0.00000000000E+00 -0.16608215559E+04  0.16608215559E+04  0.25500000000E-02 0.  1.
    8880023    1    1    2    0    0  0.68508343415E+03 -0.22959877733E+03 -0.96474474211E+03  0.13735346861E+04  0.65864270000E+03 0.  1.
    8880022    1    1    2    0    0 -0.68508343415E+03  0.22959877733E+03 -0.21434469146E+03  0.76901899201E+03  0.15294330000E+03 0.  0.
<mgrwt>
<rscale>  0 0.91147079E+03</rscale>
<asrwt>0</asrwt>
<pdfrwt beam="1">  1        2 0.74112635E-01 0.97768355E+03</pdfrwt>
<pdfrwt beam="2">  1       -2 0.25551101E+00 0.97768355E+03</pdfrwt>
<totfact> 0.38343607E+00</totfact>
</mgrwt>
</event>
<event>
 4    1  0.3057048E-007  0.7237681E+03  0.7818608E-02  0.9910036E-01
         -2   -1    0    0    0  501 -0.00000000000E+00  0.00000000000E+00  0.34353491171E+03  0.34353491172E+03  0.25500000000E-02 0.  1.
          2   -1    0    0  501    0  0.00000000000E+00 -0.00000000000E+00 -0.24275046923E+04  0.24275046923E+04  0.25500000000E-02 0. -1.
    8880023    1    1    2    0    0 -0.29017589229E+03  0.76340956417E+02 -0.67801573082E+02  0.72693689524E+03  0.65864270000E+03 0.  1.
    8880022    1    1    2    0    0  0.29017589229E+03 -0.76340956417E+02 -0.20161682075E+04  0.20441027088E+04  0.15294330000E+03 0.  0.
<mgrwt>
<rscale>  0 0.59777335E+03</rscale>
<asrwt>0</asrwt>
<pdfrwt beam="1">  1        2 0.37346225E+00 0.72376805E+03</pdfrwt>
<pdfrwt beam="2">  1       -2 0.52851527E-01 0.72376805E+03</pdfrwt>
<totfact> 0.13591994E+01</totfact>
</mgrwt>
</event>
<event>
 4    1  0.3057048E-007  0.9302506E+03  0.7818608E-02  0.9479117E-01
         -2   -1    0    0    0  501 -0.00000000000E+00  0.00000000000E+00  0.31501519202E+03  0.31501519203E+03  0.25500000000E-02 0.  1.
          2   -1    0    0  501    0  0.00000000000E+00 -0.00000000000E+00 -0.30364173421E+04  0.30364173421E+04  0.25500000000E-02 0. -1.
    8880023    1    1    2    0    0 -0.15022648790E+03 -0.63952166928E+03 -0.55675170598E+03  0.10841303573E+04  0.65864270000E+03 0.  1.
    8880022    1    1    2    0    0  0.15022648790E+03  0.63952166928E+03 -0.21646504441E+04  0.22673021769E+04  0.15294330000E+03 0.  0.
<mgrwt>
<rscale>  0 0.85841074E+03</rscale>
<asrwt>0</asrwt>
<pdfrwt beam="1">  1        2 0.46714111E+00 0.93025059E+03</pdfrwt>
<pdfrwt beam="2">  1       -2 0.48463878E-01 0.93025059E+03</pdfrwt>
<totfact> 0.68895313E+00</totfact>
</mgrwt>
</event>
<event>
 4    1  0.4444139E-007  0.7759235E+03  0.7818608E-02  0.9765501E-01
         -2   -1    0    0    0  501 -0.00000000000E+00  0.00000000000E+00  0.11251359460E+04  0.11251359460E+04  0.25500000000E-02 0.  1.
          2   -1    0    0  501    0  0.00000000000E+00 -0.00000000000E+00 -0.21489141461E+04  0.21489141461E+04  0.25500000000E-02 0. -1.
    8880023    1    1    2    0    0  0.39689240813E+03 -0.10355433499E+03  0.96466056366E+03  0.12379932525E+04  0.65864270000E+03 0.  0.
    8880022    1    1    2    0    0 -0.39689240813E+03  0.10355433499E+03 -0.19884387637E+04  0.20360568396E+04  0.15294330000E+03 0.  0.
<mgrwt>
<rscale>  0 0.67247260E+03</rscale>
<asrwt>0</asrwt>
<pdfrwt beam="1">  1        2 0.33060218E+00 0.77592351E+03</pdfrwt>
<pdfrwt beam="2">  1       -2 0.17309784E+00 0.77592351E+03</pdfrwt>
<totfact> 0.11611867E+00</totfact>
</mgrwt>
</event>
<event>
 4    1  0.3057048E-007  0.6816344E+03  0.7818608E-02  0.1008414E+00
         -2   -1    0    0    0  501 -0.00000000000E+00  0.00000000000E+00  0.57357463802E+03  0.57357463803E+03  0.25500000000E-02 0.  1.
          2   -1    0    0  501    0  0.00000000000E+00 -0.00000000000E+00 -0.91348951381E+03  0.91348951381E+03  0.25500000000E-02 0. -1.
    8880023    1    1    2    0    0 -0.10637857982E+03  0.13963851505E+03  0.34477723946E+03  0.76386966705E+03  0.65864270000E+03 0.  1.
    8880022    1    1    2    0    0  0.10637857982E+03 -0.13963851505E+03 -0.68469211524E+03  0.72319448478E+03  0.15294330000E+03 0.  0.
<mgrwt>
<rscale>  0 0.52109936E+03</rscale>
<asrwt>0</asrwt>
<pdfrwt beam="1">  1        2 0.14053685E+00 0.68163445E+03</pdfrwt>
<pdfrwt beam="2">  1       -2 0.88242252E-01 0.68163445E+03</pdfrwt>
<totfact> 0.32449631E+01</totfact>
</mgrwt>
</event>
<event>
 4    1  0.3057048E-007  0.8010229E+03  0.7818608E-02  0.9708589E-01
         -2   -1    0    0    0  501 -0.00000000000E+00  0.00000000000E+00  0.98893416047E+03  0.98893416047E+03  0.25500000000E-02 0.  1.
          2   -1    0    0  501    0  0.00000000000E+00 -0.00000000000E+00 -0.41890353568E+03  0.41890353569E+03  0.25500000000E-02 0. -1.
    8880023    1    1    2    0    0 -0.44098014499E+03 -0.11560291190E+03  0.29323616605E+03  0.85300948228E+03  0.65864270000E+03 0. -1.
    8880022    1    1    2    0    0  0.44098014499E+03  0.11560291190E+03  0.27679445874E+03  0.55482821388E+03  0.15294330000E+03 0.  1.
<mgrwt>
<rscale>  0 0.70507723E+03</rscale>
<asrwt>0</asrwt>
<pdfrwt beam="1">  1        2 0.64446699E-01 0.80102293E+03</pdfrwt>
<pdfrwt beam="2">  1       -2 0.15214371E+00 0.80102293E+03</pdfrwt>
<totfact> 0.21971713E+01</totfact>
</mgrwt>
</event>
<event>
 4    1  0.3057048E-007  0.7451656E+03  0.7818608E-02  0.9845148E-01
         -2   -1    0    0    0  501 -0.00000000000E+00  0.00000000000E+00  0.70571901966E+03  0.70571901967E+03  0.25500000000E-02 0.  1.
          2   -1    0    0  501    0  0.00000000000E+00 -0.00000000000E+00 -0.11107765678E+04  0.11107765678E+04  0.25500000000E-02 0. -1.
    8880023    1    1    2    0    0 -0.14795160550E+03  0.31555015126E+03  0.45701386360E+03  0.87414727210E+03  0.65864270000E+03 0.  0.
    8880022    1    1    2    0    0  0.14795160550E+03 -0.31555015126E+03 -0.86207141172E+03  0.94234831535E+03  0.15294330000E+03 0. -1.
<mgrwt>
<rscale>  0 0.62994934E+03</rscale>
<asrwt>0</asrwt>
<pdfrwt beam="1">  1        2 0.17088870E+00 0.74516561E+03</pdfrwt>
<pdfrwt beam="2">  1       -2 0.10857216E+00 0.74516561E+03</pdfrwt>
<totfact> 0.14822299E+01</totfact>
</mgrwt>
</event>
<event>
 4    1  0.3057048E-007  0.7052319E+03  0.7818608E-02  0.9976152E-01
         -2   -1    0    0    0  501 -0.00000000000E+00  0.00000000000E+00  0.15642374362E+03  0.15642374365E+03  0.25500000000E-02 0.  1.
          2   -1    0    0  501    0  0.00000000000E+00 -0.00000000000E+00 -0.19257613066E+04  0.19257613066E+04  0.25500000000E-02 0. -1.
    8880023    1    1    2    0    0  0.65832684064E+02  0.24332664657E+03 -0.78792536309E+03  0.10574395412E+04  0.65864270000E+03 0.  1.
    8880022    1    1    2    0    0 -0.65832684064E+02 -0.24332664657E+03 -0.98141219990E+03  0.10247455091E+04  0.15294330000E+03 0.  0.
<mgrwt>
<rscale>  0 0.56708390E+03</rscale>
<asrwt>0</asrwt>
<pdfrwt beam="1">  1        2 0.29627095E+00 0.70523188E+03</pdfrwt>
<pdfrwt beam="2">  1       -2 0.24065193E-01 0.70523188E+03</pdfrwt>
<totfact> 0.11608484E+02</totfact>
</mgrwt>
</event>
<event>
 4    1  0.3057048E-007  0.9660584E+03  0.7818608E-02  0.9427377E-01
         -2   -1    0    0    0  501 -0.00000000000E+00  0.00000000000E+00  0.88043618244E+03  0.88043618245E+03  0.25500000000E-02 0.  1.
          2   -1    0    0  501    0  0.00000000000E+00 -0.00000000000E+00 -0.12505620419E+04  0.12505620419E+04  0.25500000000E-02 0. -1.
    8880023    1    1    2    0    0  0.63543486383E+03  0.30932364516E+03  0.42573688250E+03  0.10557086165E+04  0.65864270000E+03 0.  1.
    8880022    1    1    2    0    0 -0.63543486383E+03 -0.30932364516E+03 -0.79586274191E+03  0.10752896078E+04  0.15294330000E+03 0.  0.
<mgrwt>
<rscale>  0 0.89856540E+03</rscale>
<asrwt>0</asrwt>
<pdfrwt beam="1">  1        2 0.19239416E+00 0.96605838E+03</pdfrwt>
<pdfrwt beam="2">  1       -2 0.13545172E+00 0.96605838E+03</pdfrwt>
<totfact> 0.68818268E+00</totfact>
</mgrwt>
</event>
<event>
 4    1  0.3057048E-007  0.7757117E+03  0.7818608E-02  0.9766008E-01
          2   -1    0    0  501    0  0.00000000000E+00  0.00000000000E+00  0.33830133583E+04  0.33830133583E+04  0.25500000000E-02 0. -1.
         -2   -1    0    0    0  501 -0.00000000000E+00 -0.00000000000E+00 -0.17423545087E+03  0.17423545089E+03  0.25500000000E-02 0.  1.
    8880023    1    1    2    0    0  0.13951922867E+03 -0.38529567712E+03  0.82006033517E+03  0.11288168733E+04  0.65864270000E+03 0.  0.
    8880022    1    1    2    0    0 -0.13951922867E+03  0.38529567712E+03  0.23887175723E+04  0.24284319359E+04  0.15294330000E+03 0.  0.
<mgrwt>
<rscale>  0 0.67219063E+03</rscale>
<asrwt>0</asrwt>
<pdfrwt beam="1">  1        2 0.52046356E+00 0.77571166E+03</pdfrwt>
<pdfrwt beam="2">  1       -2 0.26805456E-01 0.77571166E+03</pdfrwt>
<totfact> 0.13216007E+01</totfact>
</mgrwt>
</event>
<event>
 4    1  0.3057048E-007  0.6753281E+03  0.7818608E-02  0.1012100E+00
          2   -1    0    0  501    0  0.00000000000E+00  0.00000000000E+00  0.40374142774E+03  0.40374142775E+03  0.25500000000E-02 0. -1.
         -2   -1    0    0    0  501 -0.00000000000E+00 -0.00000000000E+00 -0.63724346361E+03  0.63724346361E+03  0.25500000000E-02 0.  1.
    8880023    1    1    2    0    0  0.13138516230E+03 -0.70680842037E+02 -0.38658282789E+03  0.77814801380E+03  0.65864270000E+03 0.  0.
    8880022    1    1    2    0    0 -0.13138516230E+03  0.70680842037E+02  0.15308079202E+03  0.26283687756E+03  0.15294330000E+03 0.  0.
<mgrwt>
<rscale>  0 0.50648387E+03</rscale>
<asrwt>0</asrwt>
<pdfrwt beam="1">  1        2 0.62114066E-01 0.67532810E+03</pdfrwt>
<pdfrwt beam="2">  1       -2 0.98037456E-01 0.67532810E+03</pdfrwt>
<totfact> 0.69157673E+01</totfact>
</mgrwt>
</event>
<event>
 4    1  0.3057048E-007  0.7115949E+03  0.7818608E-02  0.9952126E-01
         -2   -1    0    0    0  501 -0.00000000000E+00  0.00000000000E+00  0.46854682087E+03  0.46854682088E+03  0.25500000000E-02 0.  1.
          2   -1    0    0  501    0  0.00000000000E+00 -0.00000000000E+00 -0.16846329814E+04  0.16846329814E+04  0.25500000000E-02 0. -1.
    8880023    1    1    2    0    0  0.15608306996E+03  0.21953395756E+03  0.17106227748E+03  0.73186719580E+03  0.65864270000E+03 0.  1.
    8880022    1    1    2    0    0 -0.15608306996E+03 -0.21953395756E+03 -0.13871484380E+04  0.14213126065E+04  0.15294330000E+03 0.  0.
<mgrwt>
<rscale>  0 0.57800224E+03</rscale>
<asrwt>0</asrwt>
<pdfrwt beam="1">  1        2 0.25917430E+00 0.71159489E+03</pdfrwt>
<pdfrwt beam="2">  1       -2 0.72084127E-01 0.71159489E+03</pdfrwt>
<totfact> 0.18007982E+01</totfact>
</mgrwt>
</event>
<event>
 4    1  0.3057048E-007  0.7390909E+03  0.7818608E-02  0.9862603E-01
          2   -1    0    0  501    0  0.00000000000E+00  0.00000000000E+00  0.24810861710E+04  0.24810861710E+04  0.25500000000E-02 0. -1.
         -2   -1    0    0    0  501 -0.00000000000E+00 -0.00000000000E+00 -0.12464906168E+03  0.12464906171E+03  0.25500000000E-02 0.  1.
    8880023    1    1    2    0    0 -0.30891538126E+03 -0.13044707440E+03  0.14577387705E+04  0.16343982627E+04  0.65864270000E+03 0.  0.
    8880022    1    1    2    0    0  0.30891538126E+03  0.13044707440E+03  0.89869833880E+03  0.97133696994E+03  0.15294330000E+03 0.  0.
<mgrwt>
<rscale>  0 0.62108433E+03</rscale>
<asrwt>0</asrwt>
<pdfrwt beam="1">  1        2 0.38170553E+00 0.73909090E+03</pdfrwt>
<pdfrwt beam="2">  1       -2 0.19176780E-01 0.73909090E+03</pdfrwt>
<totfact> 0.85248281E+01</totfact>
</mgrwt>
</event>
<event>
 4    1  0.3057048E-007  0.6723776E+03  0.7818608E-02  0.1014013E+00
         -2   -1    0    0    0  501 -0.00000000000E+00  0.00000000000E+00  0.21945539138E+03  0.21945539140E+03  0.25500000000E-02 0.  1.
          2   -1    0    0  501    0  0.00000000000E+00 -0.00000000000E+00 -0.12676213268E+04  0.12676213268E+04  0.25500000000E-02 0. -1.
    8880023    1    1    2    0    0  0.37735808128E+02  0.12983626993E+03 -0.34668023108E+03  0.75649113484E+03  0.65864270000E+03 0.  1.
    8880022    1    1    2    0    0 -0.37735808128E+02 -0.12983626993E+03 -0.70148570433E+03  0.73058558335E+03  0.15294330000E+03 0.  0.
<mgrwt>
<rscale>  0 0.49910499E+03</rscale>
<asrwt>0</asrwt>
<pdfrwt beam="1">  1        2 0.19501866E+00 0.67237761E+03</pdfrwt>
<pdfrwt beam="2">  1       -2 0.33762369E-01 0.67237761E+03</pdfrwt>
<totfact> 0.14454200E+02</totfact>
</mgrwt>
</event>
<event>
 4    1  0.3057048E-007  0.7027538E+03  0.7818608E-02  0.9985963E-01
         -2   -1    0    0    0  501 -0.00000000000E+00  0.00000000000E+00  0.18510830610E+04  0.18510830610E+04  0.25500000000E-02 0.  1.
          2   -1    0    0  501    0  0.00000000000E+00 -0.00000000000E+00 -0.34059638906E+03  0.34059638907E+03  0.25500000000E-02 0. -1.
    8880023    1    1    2    0    0 -0.72238132267E+02  0.23416749863E+03  0.17045124857E+04  0.18436989411E+04  0.65864270000E+03 0.  1.
    8880022    1    1    2    0    0  0.72238132267E+02 -0.23416749863E+03 -0.19402581381E+03  0.34798050895E+03  0.15294330000E+03 0.  0.
<mgrwt>
<rscale>  0 0.56270022E+03</rscale>
<asrwt>0</asrwt>
<pdfrwt beam="1">  1        2 0.52399445E-01 0.70275385E+03</pdfrwt>
<pdfrwt beam="2">  1       -2 0.28478201E+00 0.70275385E+03</pdfrwt>
<totfact> 0.39127523E+00</totfact>
</mgrwt>
</event>
<event>
 4    1  0.3057048E-007  0.7043671E+03  0.7818608E-02  0.9979545E-01
          2   -1    0    0  501    0  0.00000000000E+00  0.00000000000E+00  0.22807812592E+04  0.22807812592E+04  0.25500000000E-02 0. -1.
         -2   -1    0    0    0  501 -0.00000000000E+00 -0.00000000000E+00 -0.30620287602E+03  0.30620287603E+03  0.25500000000E-02 0.  1.
    8880023    1    1    2    0    0  0.22777416982E+03 -0.10218498612E+03  0.12622507380E+03  0.71558774399E+03  0.65864270000E+03 0.  0.
    8880022    1    1    2    0    0 -0.22777416982E+03  0.10218498612E+03  0.18483533093E+04  0.18713963912E+04  0.15294330000E+03 0.  0.
<mgrwt>
<rscale>  0 0.56556314E+03</rscale>
<asrwt>0</asrwt>
<pdfrwt beam="1">  1        2 0.35088943E+00 0.70436713E+03</pdfrwt>
<pdfrwt beam="2">  1       -2 0.47108134E-01 0.70436713E+03</pdfrwt>
<totfact> 0.20798222E+01</totfact>
</mgrwt>
</event>
<event>
 4    1  0.3057048E-007  0.6786152E+03  0.7818608E-02  0.1010118E+00
         -2   -1    0    0    0  501 -0.00000000000E+00  0.00000000000E+00  0.85180593877E+02  0.85180593915E+02  0.25500000000E-02 0.  1.
          2   -1    0    0  501    0  0.00000000000E+00 -0.00000000000E+00 -0.32748428619E+04  0.32748428619E+04  0.25500000000E-02 0. -1.
    8880023    1    1    2    0    0 -0.14252986314E+02  0.16280410614E+03 -0.13933560180E+04  0.15498256431E+04  0.65864270000E+03 0.  1.
    8880022    1    1    2    0    0  0.14252986314E+02 -0.16280410614E+03 -0.17963062500E+04  0.18101978128E+04  0.15294330000E+03 0.  0.
<mgrwt>
<rscale>  0 0.51427730E+03</rscale>
<asrwt>0</asrwt>
<pdfrwt beam="1">  1        2 0.50382188E+00 0.67861516E+03</pdfrwt>
<pdfrwt beam="2">  1       -2 0.13104709E-01 0.67861516E+03</pdfrwt>
<totfact> 0.54863370E+01</totfact>
</mgrwt>
</event>
<event>
 4    1  0.3166412E-007  0.1080144E+04  0.7818608E-02  0.9283492E-01
         -2   -1    0    0    0  501 -0.00000000000E+00  0.00000000000E+00  0.10953447192E+04  0.10953447192E+04  0.25500000000E-02 0.  1.
          2   -1    0    0  501    0  0.00000000000E+00 -0.00000000000E+00 -0.28022109344E+04  0.28022109344E+04  0.25500000000E-02 0. -1.
    8880023    1    1    2    0    0  0.84730181061E+03  0.12239673829E+03  0.73430455365E+03  0.13061066969E+04  0.65864270000E+03 0.  1.
    8880022    1    1    2    0    0 -0.84730181061E+03 -0.12239673829E+03 -0.24411707688E+04  0.25914489568E+04  0.15294330000E+03 0.  0.
<mgrwt>
<rscale>  0 0.10231695E+04</rscale>
<asrwt>0</asrwt>
<pdfrwt beam="1">  1        2 0.43110937E+00 0.10801442E+04</pdfrwt>
<pdfrwt beam="2">  1       -2 0.16851457E+00 0.10801442E+04</pdfrwt>
<totfact> 0.50271545E-01</totfact>
</mgrwt>
</event>
<event>
 4    1  0.3057048E-007  0.9094901E+03  0.7818608E-02  0.9510965E-01
         -2   -1    0    0    0  501 -0.00000000000E+00  0.00000000000E+00  0.44025398645E+03  0.44025398646E+03  0.25500000000E-02 0.  1.
          2   -1    0    0  501    0  0.00000000000E+00 -0.00000000000E+00 -0.16219975067E+04  0.16219975067E+04  0.25500000000E-02 0. -1.
    8880023    1    1    2    0    0 -0.60070735184E+03 -0.18031306352E+03 -0.27687153306E+03  0.95069983460E+03  0.65864270000E+03 0.  0.
    8880022    1    1    2    0    0  0.60070735184E+03  0.18031306352E+03 -0.90487198720E+03  0.11115516586E+04  0.15294330000E+03 0.  0.
<mgrwt>
<rscale>  0 0.83480193E+03</rscale>
<asrwt>0</asrwt>
<pdfrwt beam="1">  1        2 0.24953808E+00 0.90949015E+03</pdfrwt>
<pdfrwt beam="2">  1       -2 0.67731383E-01 0.90949015E+03</pdfrwt>
<totfact> 0.21820324E+01</totfact>
</mgrwt>
</event>
<event>
 4    1  0.3057048E-007  0.7578934E+03  0.7818608E-02  0.9810592E-01
          2   -1    0    0  501    0  0.00000000000E+00  0.00000000000E+00  0.41471755587E+04  0.41471755587E+04  0.25500000000E-02 0. -1.
         -2   -1    0    0    0  501 -0.00000000000E+00 -0.00000000000E+00 -0.82002837203E+02  0.82002837243E+02  0.25500000000E-02 0.  1.
    8880023    1    1    2    0    0 -0.18412624093E+03 -0.32663382033E+03  0.28015280239E+04  0.29022338983E+04  0.65864270000E+03 0.  1.
    8880022    1    1    2    0    0  0.18412624093E+03  0.32663382033E+03  0.12636446976E+04  0.13269444977E+04  0.15294330000E+03 0. -1.
<mgrwt>
<rscale>  0 0.64797192E+03</rscale>
<asrwt>0</asrwt>
<pdfrwt beam="1">  1        2 0.63802692E+00 0.75789335E+03</pdfrwt>
<pdfrwt beam="2">  1       -2 0.12615823E-01 0.75789335E+03</pdfrwt>
<totfact> 0.13394738E+01</totfact>
</mgrwt>
</event>
<event>
 4    1  0.3057048E-007  0.1043673E+04  0.7818608E-02  0.9326527E-01
         -2   -1    0    0    0  501 -0.00000000000E+00  0.00000000000E+00  0.51024672228E+04  0.51024672228E+04  0.25500000000E-02 0.  1.
          2   -1    0    0  501    0  0.00000000000E+00 -0.00000000000E+00 -0.38584230129E+03  0.38584230130E+03  0.25500000000E-02 0. -1.
    8880023    1    1    2    0    0 -0.26698375425E+03 -0.76430476892E+03  0.45231327345E+04  0.46419804012E+04  0.65864270000E+03 0.  1.
    8880022    1    1    2    0    0  0.26698375425E+03  0.76430476892E+03  0.19349218699E+03  0.84632912290E+03  0.15294330000E+03 0.  0.
<mgrwt>
<rscale>  0 0.98377009E+03</rscale>
<asrwt>0</asrwt>
<pdfrwt beam="1">  1        2 0.59360360E-01 0.10436725E+04</pdfrwt>
<pdfrwt beam="2">  1       -2 0.78499488E+00 0.10436725E+04</pdfrwt>
<totfact> 0.84025685E-03</totfact>
</mgrwt>
</event>
<event>
 4    1  0.3057048E-007  0.6681175E+03  0.7818608E-02  0.1017050E+00
          2   -1    0    0  501    0  0.00000000000E+00  0.00000000000E+00  0.17516614943E+04  0.17516614943E+04  0.25500000000E-02 0. -1.
         -2   -1    0    0    0  501 -0.00000000000E+00 -0.00000000000E+00 -0.79634718754E+03  0.79634718754E+03  0.25500000000E-02 0.  1.
    8880023    1    1    2    0    0  0.87972118520E+02 -0.69510525293E+02 -0.64964163219E+03  0.93188801006E+03  0.65864270000E+03 0.  1.
    8880022    1    1    2    0    0 -0.87972118520E+02  0.69510525293E+02  0.16049559389E+04  0.16161206718E+04  0.15294330000E+03 0.  0.
<mgrwt>
<rscale>  0 0.48766413E+03</rscale>
<asrwt>0</asrwt>
<pdfrwt beam="1">  1        2 0.26948638E+00 0.66811751E+03</pdfrwt>
<pdfrwt beam="2">  1       -2 0.12251495E+00 0.66811751E+03</pdfrwt>
<totfact> 0.48360511E+00</totfact>
</mgrwt>
</event>
<event>
 4    1  0.3057048E-007  0.7414052E+03  0.7818608E-02  0.9855873E-01
          2   -1    0    0  501    0  0.00000000000E+00  0.00000000000E+00  0.37320741956E+04  0.37320741956E+04  0.25500000000E-02 0. -1.
         -2   -1    0    0    0  501 -0.00000000000E+00 -0.00000000000E+00 -0.11127581799E+03  0.11127581802E+03  0.25500000000E-02 0.  1.
    8880023    1    1    2    0    0  0.20704902665E+03  0.27018906045E+03  0.13329523916E+04  0.15252684067E+04  0.65864270000E+03 0.  1.
    8880022    1    1    2    0    0 -0.20704902665E+03 -0.27018906045E+03  0.22878459860E+04  0.23180816070E+04  0.15294330000E+03 0.  0.
<mgrwt>
<rscale>  0 0.62448385E+03</rscale>
<asrwt>0</asrwt>
<pdfrwt beam="1">  1        2 0.57416537E+00 0.74140518E+03</pdfrwt>
<pdfrwt beam="2">  1       -2 0.17119353E-01 0.74140518E+03</pdfrwt>
<totfact> 0.16825947E+01</totfact>
</mgrwt>
</event>
<event>
 4    1  0.3057048E-007  0.1169958E+04  0.7818608E-02  0.9186893E-01
         -2   -1    0    0    0  501 -0.00000000000E+00  0.00000000000E+00  0.69225623087E+03  0.69225623088E+03  0.25500000000E-02 0.  1.
          2   -1    0    0  501    0  0.00000000000E+00 -0.00000000000E+00 -0.25619438368E+04  0.25619438368E+04  0.25500000000E-02 0. -1.
    8880023    1    1    2    0    0 -0.89148408799E+03 -0.37449610212E+03 -0.30103777102E+02  0.11703451001E+04  0.65864270000E+03 0.  1.
    8880022    1    1    2    0    0  0.89148408799E+03  0.37449610212E+03 -0.18395838289E+04  0.20838549676E+04  0.15294330000E+03 0.  0.
<mgrwt>
<rscale>  0 0.11189741E+04</rscale>
<asrwt>0</asrwt>
<pdfrwt beam="1">  1        2 0.39414520E+00 0.11699579E+04</pdfrwt>
<pdfrwt beam="2">  1       -2 0.10650096E+00 0.11699579E+04</pdfrwt>
<totfact> 0.22458802E+00</totfact>
</mgrwt>
</event>
<event>
 4    1  0.3057048E-007  0.7078582E+03  0.7818608E-02  0.9966042E-01
          2   -1    0    0  501    0  0.00000000000E+00  0.00000000000E+00  0.71563724161E+03  0.71563724162E+03  0.25500000000E-02 0. -1.
         -2   -1    0    0    0  501 -0.00000000000E+00 -0.00000000000E+00 -0.13696908075E+04  0.13696908075E+04  0.25500000000E-02 0.  1.
    8880023    1    1    2    0    0 -0.20030298250E+03  0.16471701720E+03 -0.12392834317E+04  0.14271953654E+04  0.65864270000E+03 0.  1.
    8880022    1    1    2    0    0  0.20030298250E+03 -0.16471701720E+03  0.58522986583E+03  0.65813268375E+03  0.15294330000E+03 0.  0.
<mgrwt>
<rscale>  0 0.57164637E+03</rscale>
<asrwt>0</asrwt>
<pdfrwt beam="1">  1        2 0.11009804E+00 0.70785817E+03</pdfrwt>
<pdfrwt beam="2">  1       -2 0.21072166E+00 0.70785817E+03</pdfrwt>
<totfact> 0.46430789E+00</totfact>
</mgrwt>
</event>
<event>
 4    1  0.3057048E-007  0.7966176E+03  0.7818608E-02  0.9718158E-01
         -2   -1    0    0    0  501 -0.00000000000E+00  0.00000000000E+00  0.59697091269E+03  0.59697091269E+03  0.25500000000E-02 0.  1.
          2   -1    0    0  501    0  0.00000000000E+00 -0.00000000000E+00 -0.15969507794E+04  0.15969507794E+04  0.25500000000E-02 0. -1.
    8880023    1    1    2    0    0 -0.36677757798E+03 -0.25741714389E+03 -0.13755529283E+04  0.15895739815E+04  0.65864270000E+03 0. -1.
    8880022    1    1    2    0    0  0.36677757798E+03  0.25741714389E+03  0.37557306163E+03  0.60434771061E+03  0.15294330000E+03 0.  0.
<mgrwt>
<rscale>  0 0.69945902E+03</rscale>
<asrwt>0</asrwt>
<pdfrwt beam="1">  1        2 0.24568473E+00 0.79661759E+03</pdfrwt>
<pdfrwt beam="2">  1       -2 0.91841679E-01 0.79661759E+03</pdfrwt>
<totfact> 0.11516821E+01</totfact>
</mgrwt>
</event>
<event>
 4    1  0.3057048E-007  0.8152627E+03  0.7818608E-02  0.9678717E-01
          2   -1    0    0  501    0  0.00000000000E+00  0.00000000000E+00  0.36002801944E+04  0.36002801944E+04  0.25500000000E-02 0. -1.
         -2   -1    0    0    0  501 -0.00000000000E+00 -0.00000000000E+00 -0.34108615716E+03  0.34108615717E+03  0.25500000000E-02 0.  1.
    8880023    1    1    2    0    0 -0.42635032139E+03  0.22151390425E+03  0.19804953853E+03  0.83897367795E+03  0.65864270000E+03 0.  1.
    8880022    1    1    2    0    0  0.42635032139E+03 -0.22151390425E+03  0.30611444987E+04  0.31023926737E+04  0.15294330000E+03 0.  0.
<mgrwt>
<rscale>  0 0.72298204E+03</rscale>
<asrwt>0</asrwt>
<pdfrwt beam="1">  1        2 0.55388928E+00 0.81526266E+03</pdfrwt>
<pdfrwt beam="2">  1       -2 0.52474792E-01 0.81526266E+03</pdfrwt>
<totfact> 0.25443416E+00</totfact>
</mgrwt>
</event>
<event>
 4    1  0.3057048E-007  0.6630649E+03  0.7818608E-02  0.1021215E+00
          2   -1    0    0  501    0  0.00000000000E+00  0.00000000000E+00  0.17438720193E+04  0.17438720193E+04  0.25500000000E-02 0. -1.
         -2   -1    0    0    0  501 -0.00000000000E+00 -0.00000000000E+00 -0.22777025209E+03  0.22777025210E+03  0.25500000000E-02 0.  1.
    8880023    1    1    2    0    0 -0.69545626272E+02  0.31753755605E+02  0.27337758806E+03  0.71721015543E+03  0.65864270000E+03 0.  1.
    8880022    1    1    2    0    0  0.69545626272E+02 -0.31753755605E+02  0.12427241791E+04  0.12544321160E+04  0.15294330000E+03 0.  0.
<mgrwt>
<rscale>  0 0.47250652E+03</rscale>
<asrwt>0</asrwt>
<pdfrwt beam="1">  1        2 0.26828799E+00 0.66306493E+03</pdfrwt>
<pdfrwt beam="2">  1       -2 0.35041578E-01 0.66306493E+03</pdfrwt>
<totfact> 0.73226016E+01</totfact>
</mgrwt>
</event>
<event>
 4    1  0.3057048E-007  0.1062729E+04  0.7818608E-02  0.9303734E-01
         -2   -1    0    0    0  501 -0.00000000000E+00  0.00000000000E+00  0.85234929024E+03  0.85234929024E+03  0.25500000000E-02 0.  1.
          2   -1    0    0  501    0  0.00000000000E+00 -0.00000000000E+00 -0.13272796817E+04  0.13272796817E+04  0.25500000000E-02 0. -1.
    8880023    1    1    2    0    0 -0.81806642846E+03 -0.16232668088E+03  0.21766946741E+03  0.10847916095E+04  0.65864270000E+03 0.  0.
    8880022    1    1    2    0    0  0.81806642846E+03  0.16232668088E+03 -0.69259985886E+03  0.10948373624E+04  0.15294330000E+03 0.  0.
<mgrwt>
<rscale>  0 0.10043985E+04</rscale>
<asrwt>0</asrwt>
<pdfrwt beam="1">  1        2 0.20419687E+00 0.10627290E+04</pdfrwt>
<pdfrwt beam="2">  1       -2 0.13113066E+00 0.10627290E+04</pdfrwt>
<totfact> 0.66784625E+00</totfact>
</mgrwt>
</event>
<event>
 4    1  0.3057048E-007  0.9403015E+03  0.7818608E-02  0.9464208E-01
          2   -1    0    0  501    0  0.00000000000E+00  0.00000000000E+00  0.25200088411E+04  0.25200088411E+04  0.25500000000E-02 0. -1.
         -2   -1    0    0    0  501 -0.00000000000E+00 -0.00000000000E+00 -0.59739073894E+03  0.59739073895E+03  0.25500000000E-02 0.  1.
    8880023    1    1    2    0    0 -0.66921093377E+03  0.50134544564E+02 -0.13295263348E+03  0.94965433472E+03  0.65864270000E+03 0.  0.
    8880022    1    1    2    0    0  0.66921093377E+03 -0.50134544564E+02  0.20555707357E+04  0.21677452453E+04  0.15294330000E+03 0.  0.
<mgrwt>
<rscale>  0 0.86974877E+03</rscale>
<asrwt>0</asrwt>
<pdfrwt beam="1">  1        2 0.38769367E+00 0.94030152E+03</pdfrwt>
<pdfrwt beam="2">  1       -2 0.91906266E-01 0.94030152E+03</pdfrwt>
<totfact> 0.34744755E+00</totfact>
</mgrwt>
</event>
<event>
 4    1  0.3057048E-007  0.1112662E+04  0.7818608E-02  0.9247088E-01
         -2   -1    0    0    0  501 -0.00000000000E+00  0.00000000000E+00  0.61331007969E+03  0.61331007970E+03  0.25500000000E-02 0.  1.
          2   -1    0    0  501    0  0.00000000000E+00 -0.00000000000E+00 -0.25723837449E+04  0.25723837449E+04  0.25500000000E-02 0. -1.
    8880023    1    1    2    0    0  0.68948349080E+03 -0.57342802321E+03 -0.10145578234E+03  0.11172782393E+04  0.65864270000E+03 0.  0.
    8880022    1    1    2    0    0 -0.68948349080E+03  0.57342802321E+03 -0.18576178829E+04  0.20684155854E+04  0.15294330000E+03 0.  0.
<mgrwt>
<rscale>  0 0.10580349E+04</rscale>
<asrwt>0</asrwt>
<pdfrwt beam="1">  1        2 0.39575134E+00 0.11126623E+04</pdfrwt>
<pdfrwt beam="2">  1       -2 0.94355398E-01 0.11126623E+04</pdfrwt>
<totfact> 0.29778335E+00</totfact>
</mgrwt>
</event>
<event>
 4    1  0.3057048E-007  0.7981416E+03  0.7818608E-02  0.9714829E-01
         -2   -1    0    0    0  501 -0.00000000000E+00  0.00000000000E+00  0.27185317281E+03  0.27185317282E+03  0.25500000000E-02 0.  1.
          2   -1    0    0  501    0  0.00000000000E+00 -0.00000000000E+00 -0.25061274488E+04  0.25061274488E+04  0.25500000000E-02 0. -1.
    8880023    1    1    2    0    0  0.37641659144E+03 -0.24805299344E+03 -0.41922321002E+03  0.90154203671E+03  0.65864270000E+03 0.  1.
    8880022    1    1    2    0    0 -0.37641659144E+03  0.24805299344E+03 -0.18150510660E+04  0.18764385850E+04  0.15294330000E+03 0.  0.
<mgrwt>
<rscale>  0 0.70140710E+03</rscale>
<asrwt>0</asrwt>
<pdfrwt beam="1">  1        2 0.38555805E+00 0.79814156E+03</pdfrwt>
<pdfrwt beam="2">  1       -2 0.41823567E-01 0.79814156E+03</pdfrwt>
<totfact> 0.19426835E+01</totfact>
</mgrwt>
</event>
<event>
 4    1  0.3057048E-007  0.7417183E+03  0.7818608E-02  0.9854970E-01
         -2   -1    0    0    0  501 -0.00000000000E+00  0.00000000000E+00  0.15607035803E+03  0.15607035805E+03  0.25500000000E-02 0.  1.
          2   -1    0    0  501    0  0.00000000000E+00 -0.00000000000E+00 -0.26704898849E+04  0.26704898849E+04  0.25500000000E-02 0. -1.
    8880023    1    1    2    0    0 -0.24748303847E+03 -0.23470815823E+03 -0.88453355404E+03  0.11543593844E+04  0.65864270000E+03 0.  1.
    8880022    1    1    2    0    0  0.24748303847E+03  0.23470815823E+03 -0.16298859728E+04  0.16722008585E+04  0.15294330000E+03 0.  0.
<mgrwt>
<rscale>  0 0.62494160E+03</rscale>
<asrwt>0</asrwt>
<pdfrwt beam="1">  1        2 0.41084456E+00 0.74171826E+03</pdfrwt>
<pdfrwt beam="2">  1       -2 0.24010826E-01 0.74171826E+03</pdfrwt>
<totfact> 0.44637627E+01</totfact>
</mgrwt>
</event>
<event>
 4    1  0.3057048E-007  0.7173912E+03  0.7818608E-02  0.9931514E-01
         -2   -1    0    0    0  501 -0.00000000000E+00  0.00000000000E+00  0.23065550436E+03  0.23065550437E+03  0.25500000000E-02 0.  1.
          2   -1    0    0  501    0  0.00000000000E+00 -0.00000000000E+00 -0.21456651406E+04  0.21456651406E+04  0.25500000000E-02 0. -1.
    8880023    1    1    2    0    0 -0.24381696867E+03 -0.14626410723E+03 -0.38807862416E+03  0.81563173557E+03  0.65864270000E+03 0.  1.
    8880022    1    1    2    0    0  0.24381696867E+03  0.14626410723E+03 -0.15269310121E+04  0.15606889094E+04  0.15294330000E+03 0.  0.
<mgrwt>
<rscale>  0 0.58757990E+03</rscale>
<asrwt>0</asrwt>
<pdfrwt beam="1">  1        2 0.33010232E+00 0.71739118E+03</pdfrwt>
<pdfrwt beam="2">  1       -2 0.35485464E-01 0.71739118E+03</pdfrwt>
<totfact> 0.42900881E+01</totfact>
</mgrwt>
</event>
<event>
 4    1  0.3057048E-007  0.9472926E+03  0.7818608E-02  0.9454020E-01
         -2   -1    0    0    0  501 -0.00000000000E+00  0.00000000000E+00  0.45108532725E+03  0.45108532726E+03  0.25500000000E-02 0.  1.
          2   -1    0    0  501    0  0.00000000000E+00 -0.00000000000E+00 -0.30226264693E+04  0.30226264693E+04  0.25500000000E-02 0. -1.
    8880023    1    1    2    0    0  0.62856097047E+03 -0.26165666592E+03 -0.26082354449E+04  0.27749334131E+04  0.65864270000E+03 0. -1.
    8880022    1    1    2    0    0 -0.62856097047E+03  0.26165666592E+03  0.36694302855E+02  0.69877838353E+03  0.15294330000E+03 0.  0.
<mgrwt>
<rscale>  0 0.87760296E+03</rscale>
<asrwt>0</asrwt>
<pdfrwt beam="1">  1        2 0.46501944E+00 0.94729262E+03</pdfrwt>
<pdfrwt beam="2">  1       -2 0.69397745E-01 0.94729262E+03</pdfrwt>
<totfact> 0.32908770E+00</totfact>
</mgrwt>
</event>
<event>
 4    1  0.3057048E-007  0.7169991E+03  0.7818608E-02  0.9932874E-01
         -2   -1    0    0    0  501 -0.00000000000E+00  0.00000000000E+00  0.63859870815E+03  0.63859870815E+03  0.25500000000E-02 0.  1.
          2   -1    0    0  501    0  0.00000000000E+00 -0.00000000000E+00 -0.87804524172E+03  0.87804524172E+03  0.25500000000E-02 0. -1.
    8880023    1    1    2    0    0  0.27693842650E+03  0.59854945055E+02  0.38518310016E+03  0.81391260798E+03  0.65864270000E+03 0.  1.
    8880022    1    1    2    0    0 -0.27693842650E+03 -0.59854945055E+02 -0.62462963373E+03  0.70273134189E+03  0.15294330000E+03 0.  0.
<mgrwt>
<rscale>  0 0.58694196E+03</rscale>
<asrwt>0</asrwt>
<pdfrwt beam="1">  1        2 0.13508388E+00 0.71699910E+03</pdfrwt>
<pdfrwt beam="2">  1       -2 0.98245955E-01 0.71699910E+03</pdfrwt>
<totfact> 0.26616459E+01</totfact>
</mgrwt>
</event>
<event>
 4    1  0.3057048E-007  0.6814071E+03  0.7818608E-02  0.1008539E+00
         -2   -1    0    0    0  501 -0.00000000000E+00  0.00000000000E+00  0.64960683143E+03  0.64960683144E+03  0.25500000000E-02 0.  1.
          2   -1    0    0  501    0  0.00000000000E+00 -0.00000000000E+00 -0.92857028052E+03  0.92857028052E+03  0.25500000000E-02 0. -1.
    8880023    1    1    2    0    0  0.22135939533E+02 -0.17324949783E+03  0.44770447409E+03  0.81532502151E+03  0.65864270000E+03 0.  1.
    8880022    1    1    2    0    0 -0.22135939533E+02  0.17324949783E+03 -0.72666792318E+03  0.76285209045E+03  0.15294330000E+03 0.  0.
<mgrwt>
<rscale>  0 0.52059572E+03</rscale>
<asrwt>0</asrwt>
<pdfrwt beam="1">  1        2 0.14285697E+00 0.68140707E+03</pdfrwt>
<pdfrwt beam="2">  1       -2 0.99939513E-01 0.68140707E+03</pdfrwt>
<totfact> 0.23735286E+01</totfact>
</mgrwt>
</event>
<event>
 4    1  0.3057048E-007  0.9652448E+03  0.7818608E-02  0.9428511E-01
         -2   -1    0    0    0  501 -0.00000000000E+00  0.00000000000E+00  0.12683879127E+04  0.12683879127E+04  0.25500000000E-02 0.  1.
          2   -1    0    0  501    0  0.00000000000E+00 -0.00000000000E+00 -0.58128892311E+03  0.58128892311E+03  0.25500000000E-02 0. -1.
    8880023    1    1    2    0    0  0.49806203513E+03  0.49982150113E+03  0.56196581923E+03  0.11169167883E+04  0.65864270000E+03 0. -1.
    8880022    1    1    2    0    0 -0.49806203513E+03 -0.49982150113E+03  0.12513317036E+03  0.73276004747E+03  0.15294330000E+03 0.  1.
<mgrwt>
<rscale>  0 0.89766001E+03</rscale>
<asrwt>0</asrwt>
<pdfrwt beam="1">  1        2 0.89429065E-01 0.96524480E+03</pdfrwt>
<pdfrwt beam="2">  1       -2 0.19513660E+00 0.96524480E+03</pdfrwt>
<totfact> 0.73601495E+00</totfact>
</mgrwt>
</event>
<event>
 4    1  0.3057048E-007  0.1208570E+04  0.7818608E-02  0.9148837E-01
          2   -1    0    0  501    0  0.00000000000E+00  0.00000000000E+00  0.28004453998E+04  0.28004453998E+04  0.25500000000E-02 0. -1.
         -2   -1    0    0    0  501 -0.00000000000E+00 -0.00000000000E+00 -0.63942078343E+03  0.63942078343E+03  0.25500000000E-02 0.  1.
    8880023    1    1    2    0    0 -0.47265557340E+03  0.89634118776E+03  0.19695580083E+03  0.12245132134E+04  0.65864270000E+03 0.  0.
    8880022    1    1    2    0    0  0.47265557340E+03 -0.89634118776E+03  0.19640688156E+04  0.22153529699E+04  0.15294330000E+03 0.  0.
<mgrwt>
<rscale>  0 0.11597489E+04</rscale>
<asrwt>0</asrwt>
<pdfrwt beam="1">  1        2 0.43083775E+00 0.12085698E+04</pdfrwt>
<pdfrwt beam="2">  1       -2 0.98372429E-01 0.12085698E+04</pdfrwt>
<totfact> 0.19577008E+00</totfact>
</mgrwt>
</event>
<event>
 4    1  0.3057048E-007  0.7938164E+03  0.7818608E-02  0.9724329E-01
          2   -1    0    0  501    0  0.00000000000E+00  0.00000000000E+00  0.35988139323E+04  0.35988139323E+04  0.25500000000E-02 0. -1.
         -2   -1    0    0    0  501 -0.00000000000E+00 -0.00000000000E+00 -0.21574164145E+03  0.21574164147E+03  0.25500000000E-02 0.  1.
    8880023    1    1    2    0    0  0.21003728735E+03  0.39015194158E+03  0.60729057816E+03  0.99947298722E+03  0.65864270000E+03 0.  1.
    8880022    1    1    2    0    0 -0.21003728735E+03 -0.39015194158E+03  0.27757817127E+04  0.28150825866E+04  0.15294330000E+03 0.  0.
<mgrwt>
<rscale>  0 0.69586529E+03</rscale>
<asrwt>0</asrwt>
<pdfrwt beam="1">  1        2 0.55366364E+00 0.79381636E+03</pdfrwt>
<pdfrwt beam="2">  1       -2 0.33191024E-01 0.79381636E+03</pdfrwt>
<totfact> 0.63135492E+00</totfact>
</mgrwt>
</event>
<event>
 4    1  0.4343153E-007  0.7578157E+03  0.7818608E-02  0.9810796E-01
         -2   -1    0    0    0  501 -0.00000000000E+00  0.00000000000E+00  0.15368448281E+04  0.15368448281E+04  0.25500000000E-02 0.  1.
          2   -1    0    0  501    0  0.00000000000E+00 -0.00000000000E+00 -0.13126868476E+04  0.13126868476E+04  0.25500000000E-02 0. -1.
    8880023    1    1    2    0    0  0.41193847953E+01  0.37477653565E+03  0.14076766748E+04  0.15986989235E+04  0.65864270000E+03 0.  1.
    8880022    1    1    2    0    0 -0.41193847953E+01 -0.37477653565E+03 -0.11835186943E+04  0.12508327522E+04  0.15294330000E+03 0.  0.
<mgrwt>
<rscale>  0 0.64786397E+03</rscale>
<asrwt>0</asrwt>
<pdfrwt beam="1">  1        2 0.20195182E+00 0.75781569E+03</pdfrwt>
<pdfrwt beam="2">  1       -2 0.23643766E+00 0.75781569E+03</pdfrwt>
<totfact> 0.13102376E+00</totfact>
</mgrwt>
</event>
<event>
 4    1  0.3057048E-007  0.9455183E+03  0.7818608E-02  0.9456592E-01
          2   -1    0    0  501    0  0.00000000000E+00  0.00000000000E+00  0.27995473020E+03  0.27995473022E+03  0.25500000000E-02 0. -1.
         -2   -1    0    0    0  501 -0.00000000000E+00 -0.00000000000E+00 -0.29381839665E+04  0.29381839665E+04  0.25500000000E-02 0.  1.
    8880023    1    1    2    0    0 -0.62798643510E+03 -0.25656889004E+03 -0.21741125326E+04  0.23708163296E+04  0.65864270000E+03 0.  1.
    8880022    1    1    2    0    0  0.62798643510E+03  0.25656889004E+03 -0.48411670369E+03  0.84732236711E+03  0.15294330000E+03 0.  0.
<mgrwt>
<rscale>  0 0.87561194E+03</rscale>
<asrwt>0</asrwt>
<pdfrwt beam="1">  1        2 0.43069960E-01 0.94551825E+03</pdfrwt>
<pdfrwt beam="2">  1       -2 0.45202828E+00 0.94551825E+03</pdfrwt>
<totfact> 0.41159674E-01</totfact>
</mgrwt>
</event>
<event>
 4    1  0.9390962E-007  0.8577754E+03  0.7818608E-02  0.9597533E-01
         -2   -1    0    0    0  501 -0.00000000000E+00  0.00000000000E+00  0.17158534644E+04  0.17158534644E+04  0.25500000000E-02 0.  1.
          2   -1    0    0  501    0  0.00000000000E+00 -0.00000000000E+00 -0.21877802652E+04  0.21877802652E+04  0.25500000000E-02 0. -1.
    8880023    1    1    2    0    0  0.10209794647E+03 -0.53994863241E+03  0.15670058155E+04  0.17864170701E+04  0.65864270000E+03 0.  1.
    8880022    1    1    2    0    0 -0.10209794647E+03  0.53994863241E+03 -0.20389326163E+04  0.21172166595E+04  0.15294330000E+03 0.  0.
<mgrwt>
<rscale>  0 0.77459691E+03</rscale>
<asrwt>0</asrwt>
<pdfrwt beam="1">  1        2 0.33658158E+00 0.85777545E+03</pdfrwt>
<pdfrwt beam="2">  1       -2 0.26397745E+00 0.85777545E+03</pdfrwt>
<totfact> 0.28681809E-01</totfact>
</mgrwt>
</event>
<event>
 4    1  0.3057048E-007  0.7708693E+03  0.7818608E-02  0.9777739E-01
          2   -1    0    0  501    0  0.00000000000E+00  0.00000000000E+00  0.30603952937E+04  0.30603952937E+04  0.25500000000E-02 0. -1.
         -2   -1    0    0    0  501 -0.00000000000E+00 -0.00000000000E+00 -0.13369327088E+03  0.13369327090E+03  0.25500000000E-02 0.  1.
    8880023    1    1    2    0    0 -0.20965147916E+03  0.34128507352E+03  0.12956755424E+04  0.15076520028E+04  0.65864270000E+03 0.  1.
    8880022    1    1    2    0    0  0.20965147916E+03 -0.34128507352E+03  0.16310264804E+04  0.16864365618E+04  0.15294330000E+03 0.  0.
<mgrwt>
<rscale>  0 0.66570975E+03</rscale>
<asrwt>0</asrwt>
<pdfrwt beam="1">  1        2 0.47083009E+00 0.77086928E+03</pdfrwt>
<pdfrwt beam="2">  1       -2 0.20568194E-01 0.77086928E+03</pdfrwt>
<totfact> 0.34193792E+01</totfact>
</mgrwt>
</event>
<event>
 4    1  0.3057048E-007  0.7128533E+03  0.7818608E-02  0.9947554E-01
          2   -1    0    0  501    0  0.00000000000E+00  0.00000000000E+00  0.96352621663E+03  0.96352621663E+03  0.25500000000E-02 0. -1.
         -2   -1    0    0    0  501 -0.00000000000E+00 -0.00000000000E+00 -0.37153364702E+03  0.37153364703E+03  0.25500000000E-02 0.  1.
    8880023    1    1    2    0    0 -0.37188314585E+02  0.27012351477E+03  0.56633266976E+02  0.71509944565E+03  0.65864270000E+03 0.  1.
    8880022    1    1    2    0    0  0.37188314585E+02 -0.27012351477E+03  0.53535930263E+03  0.61996041801E+03  0.15294330000E+03 0.  0.
<mgrwt>
<rscale>  0 0.58010943E+03</rscale>
<asrwt>0</asrwt>
<pdfrwt beam="1">  1        2 0.14823480E+00 0.71285334E+03</pdfrwt>
<pdfrwt beam="2">  1       -2 0.57159023E-01 0.71285334E+03</pdfrwt>
<totfact> 0.77610677E+01</totfact>
</mgrwt>
</event>
<event>
 4    1  0.3057048E-007  0.1305049E+04  0.7818608E-02  0.9061212E-01
          2   -1    0    0  501    0  0.00000000000E+00  0.00000000000E+00  0.20024956376E+04  0.20024956376E+04  0.25500000000E-02 0. -1.
         -2   -1    0    0    0  501 -0.00000000000E+00 -0.00000000000E+00 -0.97655531554E+03  0.97655531554E+03  0.25500000000E-02 0.  1.
    8880023    1    1    2    0    0  0.10984005196E+04  0.25071652746E+03 -0.18488225903E+03  0.13180797148E+04  0.65864270000E+03 0.  0.
    8880022    1    1    2    0    0 -0.10984005196E+04 -0.25071652746E+03  0.12108225811E+04  0.16609712384E+04  0.15294330000E+03 0.  0.
<mgrwt>
<rscale>  0 0.12608364E+04</rscale>
<asrwt>0</asrwt>
<pdfrwt beam="1">  1        2 0.30807625E+00 0.13050489E+04</pdfrwt>
<pdfrwt beam="2">  1       -2 0.15023928E+00 0.13050489E+04</pdfrwt>
<totfact> 0.19122268E+00</totfact>
</mgrwt>
</event>
<event>
 4    1  0.3057048E-007  0.6592304E+03  0.7818608E-02  0.1024959E+00
          2   -1    0    0  501    0  0.00000000000E+00  0.00000000000E+00  0.18498905602E+04  0.18498905602E+04  0.25500000000E-02 0. -1.
         -2   -1    0    0    0  501 -0.00000000000E+00 -0.00000000000E+00 -0.17452675588E+03  0.17452675590E+03  0.25500000000E-02 0.  1.
    8880023    1    1    2    0    0  0.21858036547E+02  0.17226977204E+02  0.47133844715E+03  0.81039785324E+03  0.65864270000E+03 0.  1.
    8880022    1    1    2    0    0 -0.21858036547E+02 -0.17226977204E+02  0.12040253572E+04  0.12140194629E+04  0.15294330000E+03 0.  0.
<mgrwt>
<rscale>  0 0.45938728E+03</rscale>
<asrwt>0</asrwt>
<pdfrwt beam="1">  1        2 0.28459855E+00 0.65923042E+03</pdfrwt>
<pdfrwt beam="2">  1       -2 0.26850270E-01 0.65923042E+03</pdfrwt>
<totfact> 0.10527003E+02</totfact>
</mgrwt>
</event>
<event>
 4    1  0.4397816E-007  0.7702938E+03  0.7818608E-02  0.9779152E-01
          2   -1    0    0  501    0  0.00000000000E+00  0.00000000000E+00  0.22952231343E+04  0.22952231343E+04  0.25500000000E-02 0. -1.
         -2   -1    0    0    0  501 -0.00000000000E+00 -0.00000000000E+00 -0.10290518532E+04  0.10290518533E+04  0.25500000000E-02 0.  1.
    8880023    1    1    2    0    0 -0.21759496073E+03  0.33495486773E+03 -0.86056516657E+03  0.11549566843E+04  0.65864270000E+03 0.  1.
    8880022    1    1    2    0    0  0.21759496073E+03 -0.33495486773E+03  0.21267364477E+04  0.21693183033E+04  0.15294330000E+03 0.  0.
<mgrwt>
<rscale>  0 0.66493486E+03</rscale>
<asrwt>0</asrwt>
<pdfrwt beam="1">  1        2 0.35311125E+00 0.77029380E+03</pdfrwt>
<pdfrwt beam="2">  1       -2 0.15831567E+00 0.77029380E+03</pdfrwt>
<totfact> 0.12330151E+00</totfact>
</mgrwt>
</event>
<event>
 4    1  0.3057048E-007  0.8086342E+03  0.7818608E-02  0.9692429E-01
         -2   -1    0    0    0  501 -0.00000000000E+00  0.00000000000E+00  0.19901572167E+03  0.19901572169E+03  0.25500000000E-02 0.  1.
          2   -1    0    0  501    0  0.00000000000E+00 -0.00000000000E+00 -0.21798415082E+04  0.21798415082E+04  0.25500000000E-02 0. -1.
    8880023    1    1    2    0    0  0.91874211972E+02  0.46004144102E+03 -0.13998363000E+04  0.16166109214E+04  0.65864270000E+03 0.  0.
    8880022    1    1    2    0    0 -0.91874211972E+02 -0.46004144102E+03 -0.58098948659E+03  0.76224630850E+03  0.15294330000E+03 0.  1.
<mgrwt>
<rscale>  0 0.71469359E+03</rscale>
<asrwt>0</asrwt>
<pdfrwt beam="1">  1        2 0.33536021E+00 0.80863416E+03</pdfrwt>
<pdfrwt beam="2">  1       -2 0.30617805E-01 0.80863416E+03</pdfrwt>
<totfact> 0.53658193E+01</totfact>
</mgrwt>
</event>
<event>
 4    1  0.3057048E-007  0.6735619E+03  0.7818608E-02  0.1013228E+00
         -2   -1    0    0    0  501 -0.00000000000E+00  0.00000000000E+00  0.67584375690E+03  0.67584375691E+03  0.25500000000E-02 0.  1.
          2   -1    0    0  501    0  0.00000000000E+00 -0.00000000000E+00 -0.18703716627E+04  0.18703716627E+04  0.25500000000E-02 0. -1.
    8880023    1    1    2    0    0  0.11542093197E+03 -0.80953347749E+02  0.50006849400E+03  0.83890055489E+03  0.65864270000E+03 0.  1.
    8880022    1    1    2    0    0 -0.11542093197E+03  0.80953347749E+02 -0.16945963998E+04  0.17073148647E+04  0.15294330000E+03 0.  0.
<mgrwt>
<rscale>  0 0.50211460E+03</rscale>
<asrwt>0</asrwt>
<pdfrwt beam="1">  1        2 0.28774948E+00 0.67356191E+03</pdfrwt>
<pdfrwt beam="2">  1       -2 0.10397596E+00 0.67356191E+03</pdfrwt>
<totfact> 0.62086317E+00</totfact>
</mgrwt>
</event>
<event>
 4    1  0.3057048E-007  0.2027578E+04  0.7818608E-02  0.8606108E-01
          2   -1    0    0  501    0  0.00000000000E+00  0.00000000000E+00  0.16291921412E+04  0.16291921412E+04  0.25500000000E-02 0. -1.
         -2   -1    0    0    0  501 -0.00000000000E+00 -0.00000000000E+00 -0.26289926759E+04  0.26289926759E+04  0.25500000000E-02 0.  1.
    8880023    1    1    2    0    0  0.18910062999E+04 -0.31836480898E+03 -0.11458201689E+04  0.23289429026E+04  0.65864270000E+03 0.  0.
    8880022    1    1    2    0    0 -0.18910062999E+04  0.31836480898E+03  0.14601963425E+03  0.19292419145E+04  0.15294330000E+03 0.  0.
<mgrwt>
<rscale>  0 0.20010960E+04</rscale>
<asrwt>0</asrwt>
<pdfrwt beam="1">  1        2 0.25064495E+00 0.20275777E+04</pdfrwt>
<pdfrwt beam="2">  1       -2 0.40446041E+00 0.20275777E+04</pdfrwt>
<totfact> 0.66259152E-02</totfact>
</mgrwt>
</event>
<event>
 4    1  0.3057048E-007  0.6741243E+03  0.7818608E-02  0.1012864E+00
         -2   -1    0    0    0  501 -0.00000000000E+00  0.00000000000E+00  0.12479973342E+03  0.12479973344E+03  0.25500000000E-02 0.  1.
          2   -1    0    0  501    0  0.00000000000E+00 -0.00000000000E+00 -0.22898884947E+04  0.22898884947E+04  0.25500000000E-02 0. -1.
    8880023    1    1    2    0    0  0.14247969001E+03 -0.18246300416E+02 -0.85941434740E+03  0.10922621555E+04  0.65864270000E+03 0.  1.
    8880022    1    1    2    0    0 -0.14247969001E+03  0.18246300416E+02 -0.13056744139E+04  0.13224260726E+04  0.15294330000E+03 0.  0.
<mgrwt>
<rscale>  0 0.50352086E+03</rscale>
<asrwt>0</asrwt>
<pdfrwt beam="1">  1        2 0.35229051E+00 0.67412432E+03</pdfrwt>
<pdfrwt beam="2">  1       -2 0.19199961E-01 0.67412432E+03</pdfrwt>
<totfact> 0.10968222E+02</totfact>
</mgrwt>
</event>
<event>
 4    1  0.3057048E-007  0.7502915E+03  0.7818608E-02  0.9830923E-01
         -2   -1    0    0    0  501 -0.00000000000E+00  0.00000000000E+00  0.59906794248E+03  0.59906794248E+03  0.25500000000E-02 0.  1.
          2   -1    0    0  501    0  0.00000000000E+00 -0.00000000000E+00 -0.10056084042E+04  0.10056084042E+04  0.25500000000E-02 0. -1.
    8880023    1    1    2    0    0  0.19971382491E+03  0.29873329132E+03  0.29140761749E+03  0.80489489811E+03  0.65864270000E+03 0.  1.
    8880022    1    1    2    0    0 -0.19971382491E+03 -0.29873329132E+03 -0.69794807924E+03  0.79978144860E+03  0.15294330000E+03 0.  0.
<mgrwt>
<rscale>  0 0.63729128E+03</rscale>
<asrwt>0</asrwt>
<pdfrwt beam="1">  1        2 0.15470898E+00 0.75029154E+03</pdfrwt>
<pdfrwt beam="2">  1       -2 0.92164299E-01 0.75029154E+03</pdfrwt>
<totfact> 0.25393823E+01</totfact>
</mgrwt>
</event>
<event>
 4    1  0.3057048E-007  0.8118889E+03  0.7818608E-02  0.9685656E-01
          2   -1    0    0  501    0  0.00000000000E+00  0.00000000000E+00  0.39334459062E+04  0.39334459062E+04  0.25500000000E-02 0. -1.
         -2   -1    0    0    0  501 -0.00000000000E+00 -0.00000000000E+00 -0.13323399481E+03  0.13323399484E+03  0.25500000000E-02 0.  1.
    8880023    1    1    2    0    0 -0.16469862424E+03  0.44522781625E+03  0.14285386011E+04  0.16431330398E+04  0.65864270000E+03 0.  1.
    8880022    1    1    2    0    0  0.16469862424E+03 -0.44522781625E+03  0.23716733103E+04  0.24235468613E+04  0.15294330000E+03 0. -1.
<mgrwt>
<rscale>  0 0.71877305E+03</rscale>
<asrwt>0</asrwt>
<pdfrwt beam="1">  1        2 0.60514548E+00 0.81188894E+03</pdfrwt>
<pdfrwt beam="2">  1       -2 0.20497539E-01 0.81188894E+03</pdfrwt>
<totfact> 0.85828143E+00</totfact>
</mgrwt>
</event>
<event>
 4    1  0.3057048E-007  0.1015782E+04  0.7818608E-02  0.9361195E-01
          2   -1    0    0  501    0  0.00000000000E+00  0.00000000000E+00  0.27779885650E+04  0.27779885650E+04  0.25500000000E-02 0. -1.
         -2   -1    0    0    0  501 -0.00000000000E+00 -0.00000000000E+00 -0.35942908209E+03  0.35942908210E+03  0.25500000000E-02 0.  1.
    8880023    1    1    2    0    0  0.61588226057E+03  0.46764439864E+03  0.66301382875E+03  0.12130126899E+04  0.65864270000E+03 0.  1.
    8880022    1    1    2    0    0 -0.61588226057E+03 -0.46764439864E+03  0.17555456542E+04  0.19244049573E+04  0.15294330000E+03 0.  0.
<mgrwt>
<rscale>  0 0.95339124E+03</rscale>
<asrwt>0</asrwt>
<pdfrwt beam="1">  1        2 0.42738286E+00 0.10157817E+04</pdfrwt>
<pdfrwt beam="2">  1       -2 0.55296782E-01 0.10157817E+04</pdfrwt>
<totfact> 0.74448836E+00</totfact>
</mgrwt>
</event>
<event>
 4    1  0.3057048E-007  0.6950238E+03  0.7818608E-02  0.1001851E+00
         -2   -1    0    0    0  501 -0.00000000000E+00  0.00000000000E+00  0.34619821987E+03  0.34619821988E+03  0.25500000000E-02 0.  1.
          2   -1    0    0  501    0  0.00000000000E+00 -0.00000000000E+00 -0.67795691794E+03  0.67795691794E+03  0.25500000000E-02 0. -1.
    8880023    1    1    2    0    0  0.21316111457E+03 -0.61726811992E+02 -0.19464405709E+03  0.72176476452E+03  0.65864270000E+03 0.  0.
    8880022    1    1    2    0    0 -0.21316111457E+03  0.61726811992E+02 -0.13711464097E+03  0.30239037330E+03  0.15294330000E+03 0.  1.
<mgrwt>
<rscale>  0 0.54846178E+03</rscale>
<asrwt>0</asrwt>
<pdfrwt beam="1">  1        2 0.10430106E+00 0.69502379E+03</pdfrwt>
<pdfrwt beam="2">  1       -2 0.53261264E-01 0.69502379E+03</pdfrwt>
<totfact> 0.14374195E+02</totfact>
</mgrwt>
</event>
<event>
 4    1  0.3057048E-007  0.1144541E+04  0.7818608E-02  0.9213013E-01
         -2   -1    0    0    0  501 -0.00000000000E+00  0.00000000000E+00  0.86706720604E+03  0.86706720604E+03  0.25500000000E-02 0.  1.
          2   -1    0    0  501    0  0.00000000000E+00 -0.00000000000E+00 -0.14880322784E+04  0.14880322784E+04  0.25500000000E-02 0. -1.
    8880023    1    1    2    0    0  0.89288309517E+03 -0.28093421008E+03  0.12098941313E+03  0.11509182840E+04  0.65864270000E+03 0.  0.
    8880022    1    1    2    0    0 -0.89288309517E+03  0.28093421008E+03 -0.74195448550E+03  0.12041812005E+04  0.15294330000E+03 0.  0.
<mgrwt>
<rscale>  0 0.10920112E+04</rscale>
<asrwt>0</asrwt>
<pdfrwt beam="1">  1        2 0.22892804E+00 0.11445412E+04</pdfrwt>
<pdfrwt beam="2">  1       -2 0.13339495E+00 0.11445412E+04</pdfrwt>
<totfact> 0.51321091E+00</totfact>
</mgrwt>
</event>
<event>
 4    1  0.3057048E-007  0.7951265E+03  0.7818608E-02  0.9721434E-01
         -2   -1    0    0    0  501 -0.00000000000E+00  0.00000000000E+00  0.10456639419E+04  0.10456639419E+04  0.25500000000E-02 0.  1.
          2   -1    0    0  501    0  0.00000000000E+00 -0.00000000000E+00 -0.45905227674E+03  0.45905227675E+03  0.25500000000E-02 0. -1.
    8880023    1    1    2    0    0  0.37477956638E+03 -0.24074108443E+03  0.65325241814E+03  0.10290602126E+04  0.65864270000E+03 0.  0.
    8880022    1    1    2    0    0 -0.37477956638E+03  0.24074108443E+03 -0.66640752981E+02  0.47565600604E+03  0.15294330000E+03 0.  0.
<mgrwt>
<rscale>  0 0.69754824E+03</rscale>
<asrwt>0</asrwt>
<pdfrwt beam="1">  1        2 0.70623428E-01 0.79512653E+03</pdfrwt>
<pdfrwt beam="2">  1       -2 0.16087137E+00 0.79512653E+03</pdfrwt>
<totfact> 0.17044185E+01</totfact>
</mgrwt>
</event>
<event>
 4    1  0.3057048E-007  0.7589289E+03  0.7818608E-02  0.9807888E-01
          2   -1    0    0  501    0  0.00000000000E+00  0.00000000000E+00  0.18585069105E+04  0.18585069105E+04  0.25500000000E-02 0. -1.
         -2   -1    0    0    0  501 -0.00000000000E+00 -0.00000000000E+00 -0.52409315980E+03  0.52409315980E+03  0.25500000000E-02 0.  1.
    8880023    1    1    2    0    0  0.37446092751E+03  0.44066570557E+02 -0.20841033776E+03  0.78702472898E+03  0.65864270000E+03 0.  1.
    8880022    1    1    2    0    0 -0.37446092751E+03 -0.44066570557E+02  0.15428240885E+04  0.15955753413E+04  0.15294330000E+03 0.  0.
<mgrwt>
<rscale>  0 0.64940920E+03</rscale>
<asrwt>0</asrwt>
<pdfrwt beam="1">  1        2 0.28592415E+00 0.75892889E+03</pdfrwt>
<pdfrwt beam="2">  1       -2 0.80629715E-01 0.75892889E+03</pdfrwt>
<totfact> 0.11207373E+01</totfact>
</mgrwt>
</event>
<event>
 4    1  0.3057048E-007  0.8458886E+03  0.7818608E-02  0.9619175E-01
         -2   -1    0    0    0  501 -0.00000000000E+00  0.00000000000E+00  0.28950894582E+03  0.28950894583E+03  0.25500000000E-02 0.  1.
          2   -1    0    0  501    0  0.00000000000E+00 -0.00000000000E+00 -0.22426530859E+04  0.22426530859E+04  0.25500000000E-02 0. -1.
    8880023    1    1    2    0    0  0.45285531522E+03  0.27683807040E+03 -0.51196473619E+03  0.98875444429E+03  0.65864270000E+03 0.  0.
    8880022    1    1    2    0    0 -0.45285531522E+03 -0.27683807040E+03 -0.14411794039E+04  0.15434075874E+04  0.15294330000E+03 0. -1.
<mgrwt>
<rscale>  0 0.76039933E+03</rscale>
<asrwt>0</asrwt>
<pdfrwt beam="1">  1        2 0.34502354E+00 0.84588856E+03</pdfrwt>
<pdfrwt beam="2">  1       -2 0.44539839E-01 0.84588856E+03</pdfrwt>
<totfact> 0.23951616E+01</totfact>
</mgrwt>
</event>
<event>
 4    1  0.3057048E-007  0.7485267E+03  0.7818608E-02  0.9835771E-01
          2   -1    0    0  501    0  0.00000000000E+00  0.00000000000E+00  0.43906410806E+04  0.43906410806E+04  0.25500000000E-02 0. -1.
         -2   -1    0    0    0  501 -0.00000000000E+00 -0.00000000000E+00 -0.15262830035E+03  0.15262830037E+03  0.25500000000E-02 0.  1.
    8880023    1    1    2    0    0 -0.18287964433E+03 -0.30501967482E+03  0.84751185259E+03  0.11307380390E+04  0.65864270000E+03 0.  1.
    8880022    1    1    2    0    0  0.18287964433E+03  0.30501967482E+03  0.33905009276E+04  0.34125313419E+04  0.15294330000E+03 0. -1.
<mgrwt>
<rscale>  0 0.63477689E+03</rscale>
<asrwt>0</asrwt>
<pdfrwt beam="1">  1        2 0.67548309E+00 0.74852667E+03</pdfrwt>
<pdfrwt beam="2">  1       -2 0.23481282E-01 0.74852667E+03</pdfrwt>
<totfact> 0.28329873E+00</totfact>
</mgrwt>
</event>
<event>
 4    1  0.3057048E-007  0.1009301E+04  0.7818608E-02  0.9369488E-01
         -2   -1    0    0    0  501 -0.00000000000E+00  0.00000000000E+00  0.11304734040E+04  0.11304734040E+04  0.25500000000E-02 0.  1.
          2   -1    0    0  501    0  0.00000000000E+00 -0.00000000000E+00 -0.11600741481E+04  0.11600741481E+04  0.25500000000E-02 0. -1.
    8880023    1    1    2    0    0  0.48059168644E+02  0.76326239235E+03  0.69542414820E+03  0.12256851616E+04  0.65864270000E+03 0.  1.
    8880022    1    1    2    0    0 -0.48059168644E+02 -0.76326239235E+03 -0.72502489233E+03  0.10648623905E+04  0.15294330000E+03 0. -1.
<mgrwt>
<rscale>  0 0.94629771E+03</rscale>
<asrwt>0</asrwt>
<pdfrwt beam="1">  1        2 0.17847295E+00 0.10093014E+04</pdfrwt>
<pdfrwt beam="2">  1       -2 0.17391899E+00 0.10093014E+04</pdfrwt>
<totfact> 0.39636777E+00</totfact>
</mgrwt>
</event>
<event>
 4    1  0.3057048E-007  0.7747815E+03  0.7818608E-02  0.9768241E-01
          2   -1    0    0  501    0  0.00000000000E+00  0.00000000000E+00  0.12066561504E+04  0.12066561504E+04  0.25500000000E-02 0. -1.
         -2   -1    0    0    0  501 -0.00000000000E+00 -0.00000000000E+00 -0.50553329583E+03  0.50553329584E+03  0.25500000000E-02 0.  1.
    8880023    1    1    2    0    0  0.36300275543E+03 -0.18629310557E+03 -0.11864268000E+03  0.78381274129E+03  0.65864270000E+03 0.  1.
    8880022    1    1    2    0    0 -0.36300275543E+03  0.18629310557E+03  0.81976553460E+03  0.92837670498E+03  0.15294330000E+03 0.  0.
<mgrwt>
<rscale>  0 0.67095103E+03</rscale>
<asrwt>0</asrwt>
<pdfrwt beam="1">  1        2 0.18563941E+00 0.77478147E+03</pdfrwt>
<pdfrwt beam="2">  1       -2 0.77774354E-01 0.77478147E+03</pdfrwt>
<totfact> 0.28087485E+01</totfact>
</mgrwt>
</event>
<event>
 4    1  0.3057048E-007  0.6844297E+03  0.7818608E-02  0.1006921E+00
         -2   -1    0    0    0  501 -0.00000000000E+00  0.00000000000E+00  0.53581080708E+03  0.53581080709E+03  0.25500000000E-02 0.  1.
          2   -1    0    0  501    0  0.00000000000E+00 -0.00000000000E+00 -0.70972860151E+03  0.70972860152E+03  0.25500000000E-02 0. -1.
    8880023    1    1    2    0    0 -0.17310453508E+03  0.68326989785E+02  0.27377578218E+03  0.73715476175E+03  0.65864270000E+03 0.  1.
    8880022    1    1    2    0    0  0.17310453508E+03 -0.68326989785E+02 -0.44769357662E+03  0.50838464685E+03  0.15294330000E+03 0.  0.
<mgrwt>
<rscale>  0 0.52716782E+03</rscale>
<asrwt>0</asrwt>
<pdfrwt beam="1">  1        2 0.10918902E+00 0.68442966E+03</pdfrwt>
<pdfrwt beam="2">  1       -2 0.82432432E-01 0.68442966E+03</pdfrwt>
<totfact> 0.52953520E+01</totfact>
</mgrwt>
</event>
<event>
 4    1  0.3057048E-007  0.7550626E+03  0.7818608E-02  0.9818062E-01
          2   -1    0    0  501    0  0.00000000000E+00  0.00000000000E+00  0.13666445740E+04  0.13666445740E+04  0.25500000000E-02 0. -1.
         -2   -1    0    0    0  501 -0.00000000000E+00 -0.00000000000E+00 -0.32259930547E+03  0.32259930548E+03  0.25500000000E-02 0.  1.
    8880023    1    1    2    0    0 -0.10495899866E+03 -0.35396746380E+03  0.24156279628E+03  0.79276235256E+03  0.65864270000E+03 0.  1.
    8880022    1    1    2    0    0  0.10495899866E+03  0.35396746380E+03  0.80248247224E+03  0.89648152691E+03  0.15294330000E+03 0.  0.
<mgrwt>
<rscale>  0 0.64402198E+03</rscale>
<asrwt>0</asrwt>
<pdfrwt beam="1">  1        2 0.21025301E+00 0.75506262E+03</pdfrwt>
<pdfrwt beam="2">  1       -2 0.49630662E-01 0.75506262E+03</pdfrwt>
<totfact> 0.59193338E+01</totfact>
</mgrwt>
</event>
<event>
 4    1  0.3057048E-007  0.1027334E+04  0.7818608E-02  0.9346639E-01
          2   -1    0    0  501    0  0.00000000000E+00  0.00000000000E+00  0.65062440831E+03  0.65062440832E+03  0.25500000000E-02 0. -1.
         -2   -1    0    0    0  501 -0.00000000000E+00 -0.00000000000E+00 -0.16667748654E+04  0.16667748654E+04  0.25500000000E-02 0.  1.
    8880023    1    1    2    0    0  0.47107917169E+03  0.63220943956E+03 -0.65868669744E+01  0.10273548338E+04  0.65864270000E+03 0.  0.
    8880022    1    1    2    0    0 -0.47107917169E+03 -0.63220943956E+03 -0.10095635902E+04  0.12900444400E+04  0.15294330000E+03 0.  0.
<mgrwt>
<rscale>  0 0.96600258E+03</rscale>
<asrwt>0</asrwt>
<pdfrwt beam="1">  1        2 0.10009606E+00 0.10273337E+04</pdfrwt>
<pdfrwt beam="2">  1       -2 0.25642690E+00 0.10273337E+04</pdfrwt>
<totfact> 0.26255578E+00</totfact>
</mgrwt>
</event>
<event>
 4    1  0.3057048E-007  0.1537882E+04  0.7818608E-02  0.8883339E-01
          2   -1    0    0  501    0  0.00000000000E+00  0.00000000000E+00  0.23260920810E+04  0.23260920810E+04  0.25500000000E-02 0. -1.
         -2   -1    0    0    0  501 -0.00000000000E+00 -0.00000000000E+00 -0.12167263608E+04  0.12167263608E+04  0.25500000000E-02 0.  1.
    8880023    1    1    2    0    0 -0.11524610902E+04 -0.77659847857E+03 -0.28969763883E+03  0.15649302507E+04  0.65864270000E+03 0.  0.
    8880022    1    1    2    0    0  0.11524610902E+04  0.77659847857E+03  0.13990633590E+04  0.19778881912E+04  0.15294330000E+03 0.  0.
<mgrwt>
<rscale>  0 0.15016763E+04</rscale>
<asrwt>0</asrwt>
<pdfrwt beam="1">  1        2 0.35786032E+00 0.15378823E+04</pdfrwt>
<pdfrwt beam="2">  1       -2 0.18718867E+00 0.15378823E+04</pdfrwt>
<totfact> 0.66439998E-01</totfact>
</mgrwt>
</event>
<event>
 4    1  0.3057048E-007  0.6768376E+03  0.7818608E-02  0.1011172E+00
          2   -1    0    0  501    0  0.00000000000E+00  0.00000000000E+00  0.75722618492E+03  0.75722618492E+03  0.25500000000E-02 0. -1.
         -2   -1    0    0    0  501 -0.00000000000E+00 -0.00000000000E+00 -0.31086753902E+03  0.31086753903E+03  0.25500000000E-02 0.  1.
    8880023    1    1    2    0    0  0.14505571630E+03 -0.57077126046E+02  0.13885433738E+03  0.69093392768E+03  0.65864270000E+03 0.  0.
    8880022    1    1    2    0    0 -0.14505571630E+03  0.57077126046E+02  0.30750430852E+03  0.37715979627E+03  0.15294330000E+03 0.  0.
<mgrwt>
<rscale>  0 0.51011428E+03</rscale>
<asrwt>0</asrwt>
<pdfrwt beam="1">  1        2 0.11649634E+00 0.67683762E+03</pdfrwt>
<pdfrwt beam="2">  1       -2 0.47825775E-01 0.67683762E+03</pdfrwt>
<totfact> 0.15570925E+02</totfact>
</mgrwt>
</event>
<event>
 4    1  0.3057048E-007  0.6674798E+03  0.7818608E-02  0.1017538E+00
          2   -1    0    0  501    0  0.00000000000E+00  0.00000000000E+00  0.12754963326E+04  0.12754963326E+04  0.25500000000E-02 0. -1.
         -2   -1    0    0    0  501 -0.00000000000E+00 -0.00000000000E+00 -0.14498429213E+03  0.14498429216E+03  0.25500000000E-02 0.  1.
    8880023    1    1    2    0    0 -0.58485717890E+02  0.91095895494E+02  0.81415277354E+03  0.10527934205E+04  0.65864270000E+03 0.  1.
    8880022    1    1    2    0    0  0.58485717890E+02 -0.91095895494E+02  0.31635926693E+03  0.36768720423E+03  0.15294330000E+03 0.  1.
<mgrwt>
<rscale>  0 0.48585705E+03</rscale>
<asrwt>0</asrwt>
<pdfrwt beam="1">  1        2 0.19623020E+00 0.66747977E+03</pdfrwt>
<pdfrwt beam="2">  1       -2 0.22305276E-01 0.66747977E+03</pdfrwt>
<totfact> 0.30527159E+02</totfact>
</mgrwt>
</event>
<event>
 4    1  0.3057048E-007  0.7076488E+03  0.7818608E-02  0.9966838E-01
         -2   -1    0    0    0  501 -0.00000000000E+00  0.00000000000E+00  0.42544979671E+03  0.42544979672E+03  0.25500000000E-02 0.  1.
          2   -1    0    0  501    0  0.00000000000E+00 -0.00000000000E+00 -0.93543409211E+03  0.93543409211E+03  0.25500000000E-02 0. -1.
    8880023    1    1    2    0    0 -0.46880263639E+02  0.25447751001E+03  0.66476666990E+02  0.71076431800E+03  0.65864270000E+03 0.  0.
    8880022    1    1    2    0    0  0.46880263639E+02 -0.25447751001E+03 -0.57646096238E+03  0.65011957084E+03  0.15294330000E+03 0.  0.
<mgrwt>
<rscale>  0 0.57128558E+03</rscale>
<asrwt>0</asrwt>
<pdfrwt beam="1">  1        2 0.14391294E+00 0.70764876E+03</pdfrwt>
<pdfrwt beam="2">  1       -2 0.65453815E-01 0.70764876E+03</pdfrwt>
<totfact> 0.60780275E+01</totfact>
</mgrwt>
</event>
<event>
 4    1  0.3057048E-007  0.8728462E+03  0.7818608E-02  0.9571109E-01
          2   -1    0    0  501    0  0.00000000000E+00  0.00000000000E+00  0.30096230295E+04  0.30096230295E+04  0.25500000000E-02 0. -1.
         -2   -1    0    0    0  501 -0.00000000000E+00 -0.00000000000E+00 -0.20516853873E+03  0.20516853875E+03  0.25500000000E-02 0.  1.
    8880023    1    1    2    0    0 -0.56341473808E+03  0.10302454341E+03  0.22060776044E+04  0.23724752531E+04  0.65864270000E+03 0. -1.
    8880022    1    1    2    0    0  0.56341473808E+03 -0.10302454341E+03  0.59837688638E+03  0.84231631517E+03  0.15294330000E+03 0.  0.
<mgrwt>
<rscale>  0 0.79238267E+03</rscale>
<asrwt>0</asrwt>
<pdfrwt beam="1">  1        2 0.46301892E+00 0.87284617E+03</pdfrwt>
<pdfrwt beam="2">  1       -2 0.31564391E-01 0.87284617E+03</pdfrwt>
<totfact> 0.16648882E+01</totfact>
</mgrwt>
</event>
<event>
 4    1  0.3057048E-007  0.1035851E+04  0.7818608E-02  0.9336087E-01
         -2   -1    0    0    0  501 -0.00000000000E+00  0.00000000000E+00  0.63542269923E+03  0.63542269924E+03  0.25500000000E-02 0.  1.
          2   -1    0    0  501    0  0.00000000000E+00 -0.00000000000E+00 -0.15824658578E+04  0.15824658578E+04  0.25500000000E-02 0. -1.
    8880023    1    1    2    0    0 -0.37544379253E+03 -0.70584590265E+03 -0.94760957378E+03  0.14039054777E+04  0.65864270000E+03 0. -1.
    8880022    1    1    2    0    0  0.37544379253E+03  0.70584590265E+03  0.56641523525E+00  0.81398307935E+03  0.15294330000E+03 0.  1.
<mgrwt>
<rscale>  0 0.97527410E+03</rscale>
<asrwt>0</asrwt>
<pdfrwt beam="1">  1        2 0.24345628E+00 0.10358507E+04</pdfrwt>
<pdfrwt beam="2">  1       -2 0.97757339E-01 0.10358507E+04</pdfrwt>
<totfact> 0.98679070E+00</totfact>
</mgrwt>
</event>
<event>
 4    1  0.3057048E-007  0.1053191E+04  0.7818608E-02  0.9315056E-01
         -2   -1    0    0    0  501 -0.00000000000E+00  0.00000000000E+00  0.90135221449E+03  0.90135221450E+03  0.25500000000E-02 0.  1.
          2   -1    0    0  501    0  0.00000000000E+00 -0.00000000000E+00 -0.42898427498E+04  0.42898427498E+04  0.25500000000E-02 0. -1.
    8880023    1    1    2    0    0 -0.12090597821E+03  0.81288499593E+03  0.53385001971E+03  0.11807651426E+04  0.65864270000E+03 0.  1.
    8880022    1    1    2    0    0  0.12090597821E+03 -0.81288499593E+03 -0.39223405551E+04  0.40104298217E+04  0.15294330000E+03 0.  0.
<mgrwt>
<rscale>  0 0.99408546E+03</rscale>
<asrwt>0</asrwt>
<pdfrwt beam="1">  1        2 0.65997579E+00 0.10531906E+04</pdfrwt>
<pdfrwt beam="2">  1       -2 0.13866957E+00 0.10531906E+04</pdfrwt>
<totfact> 0.74736632E-02</totfact>
</mgrwt>
</event>
<event>
 4    1  0.3057048E-007  0.9248182E+03  0.7818608E-02  0.9487310E-01
         -2   -1    0    0    0  501 -0.00000000000E+00  0.00000000000E+00  0.17038028787E+04  0.17038028787E+04  0.25500000000E-02 0.  1.
          2   -1    0    0  501    0  0.00000000000E+00 -0.00000000000E+00 -0.52497161253E+03  0.52497161254E+03  0.25500000000E-02 0. -1.
    8880023    1    1    2    0    0 -0.14020869548E+03 -0.63389281336E+03  0.12533721770E+04  0.15576362212E+04  0.65864270000E+03 0.  1.
    8880022    1    1    2    0    0  0.14020869548E+03  0.63389281336E+03 -0.74540910870E+02  0.67113827005E+03  0.15294330000E+03 0.  0.
<mgrwt>
<rscale>  0 0.85225873E+03</rscale>
<asrwt>0</asrwt>
<pdfrwt beam="1">  1        2 0.80764861E-01 0.92481824E+03</pdfrwt>
<pdfrwt beam="2">  1       -2 0.26212353E+00 0.92481824E+03</pdfrwt>
<totfact> 0.31798081E+00</totfact>
</mgrwt>
</event>
<event>
 4    1  0.3057048E-007  0.6638161E+03  0.7818608E-02  0.1020548E+00
         -2   -1    0    0    0  501 -0.00000000000E+00  0.00000000000E+00  0.98429778084E+03  0.98429778085E+03  0.25500000000E-02 0.  1.
          2   -1    0    0  501    0  0.00000000000E+00 -0.00000000000E+00 -0.48792069458E+03  0.48792069459E+03  0.25500000000E-02 0. -1.
    8880023    1    1    2    0    0  0.21657943661E+02  0.79828387377E+02  0.84980085259E+03  0.10783382277E+04  0.65864270000E+03 0.  1.
    8880022    1    1    2    0    0 -0.21657943661E+02 -0.79828387377E+02 -0.35342376632E+03  0.39388024775E+03  0.15294330000E+03 0.  0.
<mgrwt>
<rscale>  0 0.47489383E+03</rscale>
<asrwt>0</asrwt>
<pdfrwt beam="1">  1        2 0.75064723E-01 0.66381612E+03</pdfrwt>
<pdfrwt beam="2">  1       -2 0.15143043E+00 0.66381612E+03</pdfrwt>
<totfact> 0.18914662E+01</totfact>
</mgrwt>
</event>
<event>
 4    1  0.3057048E-007  0.8475429E+03  0.7818608E-02  0.9616118E-01
         -2   -1    0    0    0  501 -0.00000000000E+00  0.00000000000E+00  0.24268809346E+03  0.24268809347E+03  0.25500000000E-02 0.  1.
          2   -1    0    0  501    0  0.00000000000E+00 -0.00000000000E+00 -0.20660594756E+04  0.20660594756E+04  0.25500000000E-02 0. -1.
    8880023    1    1    2    0    0 -0.52291142658E+03 -0.10527275675E+03 -0.94116176747E+03  0.12665363762E+04  0.65864270000E+03 0.  0.
    8880022    1    1    2    0    0  0.52291142658E+03  0.10527275675E+03 -0.88220961469E+03  0.10422111929E+04  0.15294330000E+03 0.  0.
<mgrwt>
<rscale>  0 0.76238492E+03</rscale>
<asrwt>0</asrwt>
<pdfrwt beam="1">  1        2 0.31785529E+00 0.84754287E+03</pdfrwt>
<pdfrwt beam="2">  1       -2 0.37336631E-01 0.84754287E+03</pdfrwt>
<totfact> 0.42360203E+01</totfact>
</mgrwt>
</event>
<event>
 4    1  0.3057048E-007  0.1160268E+04  0.7818608E-02  0.9196747E-01
         -2   -1    0    0    0  501 -0.00000000000E+00  0.00000000000E+00  0.48476619730E+03  0.48476619730E+03  0.25500000000E-02 0.  1.
          2   -1    0    0  501    0  0.00000000000E+00 -0.00000000000E+00 -0.28410979614E+04  0.28410979614E+04  0.25500000000E-02 0. -1.
    8880023    1    1    2    0    0  0.95492091614E+03 -0.23182201837E+02 -0.56614236187E+03  0.12910223665E+04  0.65864270000E+03 0.  0.
    8880022    1    1    2    0    0 -0.95492091614E+03  0.23182201837E+02 -0.17901894023E+04  0.20348417923E+04  0.15294330000E+03 0.  0.
<mgrwt>
<rscale>  0 0.11087069E+04</rscale>
<asrwt>0</asrwt>
<pdfrwt beam="1">  1        2 0.43709199E+00 0.11602679E+04</pdfrwt>
<pdfrwt beam="2">  1       -2 0.74579416E-01 0.11602679E+04</pdfrwt>
<totfact> 0.35176599E+00</totfact>
</mgrwt>
</event>
<event>
 4    1  0.3057048E-007  0.1136563E+04  0.7818608E-02  0.9221400E-01
          2   -1    0    0  501    0  0.00000000000E+00  0.00000000000E+00  0.13409210594E+04  0.13409210594E+04  0.25500000000E-02 0. -1.
         -2   -1    0    0    0  501 -0.00000000000E+00 -0.00000000000E+00 -0.92968606467E+03  0.92968606467E+03  0.25500000000E-02 0.  1.
    8880023    1    1    2    0    0  0.53881047129E+03  0.75342438834E+03 -0.19486727897E+03  0.11531472133E+04  0.65864270000E+03 0.  1.
    8880022    1    1    2    0    0 -0.53881047129E+03 -0.75342438834E+03  0.60610227368E+03  0.11174599107E+04  0.15294330000E+03 0.  0.
<mgrwt>
<rscale>  0 0.10835253E+04</rscale>
<asrwt>0</asrwt>
<pdfrwt beam="1">  1        2 0.20629555E+00 0.11365629E+04</pdfrwt>
<pdfrwt beam="2">  1       -2 0.14302863E+00 0.11365629E+04</pdfrwt>
<totfact> 0.52018272E+00</totfact>
</mgrwt>
</event>
<event>
 4    1  0.3057048E-007  0.7150534E+03  0.7818608E-02  0.9939693E-01
         -2   -1    0    0    0  501 -0.00000000000E+00  0.00000000000E+00  0.19923750900E+03  0.19923750901E+03  0.25500000000E-02 0.  1.
          2   -1    0    0  501    0  0.00000000000E+00 -0.00000000000E+00 -0.27124608759E+04  0.27124608759E+04  0.25500000000E-02 0. -1.
    8880023    1    1    2    0    0 -0.22634491667E+03  0.16204679912E+03 -0.49747885254E+03  0.87108357888E+03  0.65864270000E+03 0.  1.
    8880022    1    1    2    0    0  0.22634491667E+03 -0.16204679912E+03 -0.20157445144E+04  0.20406148061E+04  0.15294330000E+03 0.  0.
<mgrwt>
<rscale>  0 0.58375556E+03</rscale>
<asrwt>0</asrwt>
<pdfrwt beam="1">  1        2 0.41730164E+00 0.71505342E+03</pdfrwt>
<pdfrwt beam="2">  1       -2 0.30651927E-01 0.71505342E+03</pdfrwt>
<totfact> 0.27124097E+01</totfact>
</mgrwt>
</event>
<event>
 4    1  0.3057048E-007  0.6658502E+03  0.7818608E-02  0.1018831E+00
          2   -1    0    0  501    0  0.00000000000E+00  0.00000000000E+00  0.12004976512E+04  0.12004976512E+04  0.25500000000E-02 0. -1.
         -2   -1    0    0    0  501 -0.00000000000E+00 -0.00000000000E+00 -0.41865261727E+03  0.41865261727E+03  0.25500000000E-02 0.  1.
    8880023    1    1    2    0    0 -0.34905145650E+02 -0.91257222440E+02 -0.13932641117E+03  0.68027075856E+03  0.65864270000E+03 0.  1.
    8880022    1    1    2    0    0  0.34905145650E+02  0.91257222440E+02  0.92117144515E+03  0.93887950995E+03  0.15294330000E+03 0.  0.
<mgrwt>
<rscale>  0 0.48111000E+03</rscale>
<asrwt>0</asrwt>
<pdfrwt beam="1">  1        2 0.18469194E+00 0.66585018E+03</pdfrwt>
<pdfrwt beam="2">  1       -2 0.64408096E-01 0.66585018E+03</pdfrwt>
<totfact> 0.43279355E+01</totfact>
</mgrwt>
</event>
<event>
 4    1  0.3057048E-007  0.8687634E+03  0.7818608E-02  0.9578161E-01
          2   -1    0    0  501    0  0.00000000000E+00  0.00000000000E+00  0.10650428989E+04  0.10650428989E+04  0.25500000000E-02 0. -1.
         -2   -1    0    0    0  501 -0.00000000000E+00 -0.00000000000E+00 -0.55472841471E+03  0.55472841472E+03  0.25500000000E-02 0.  1.
    8880023    1    1    2    0    0  0.55720333477E+03 -0.10229416043E+03  0.43346026414E+02  0.86984408707E+03  0.65864270000E+03 0.  0.
    8880022    1    1    2    0    0 -0.55720333477E+03  0.10229416043E+03  0.46696845776E+03  0.74992722654E+03  0.15294330000E+03 0.  0.
<mgrwt>
<rscale>  0 0.78758639E+03</rscale>
<asrwt>0</asrwt>
<pdfrwt beam="1">  1        2 0.16385275E+00 0.86876341E+03</pdfrwt>
<pdfrwt beam="2">  1       -2 0.85342834E-01 0.86876341E+03</pdfrwt>
<totfact> 0.27503678E+01</totfact>
</mgrwt>
</event>
<event>
 4    1  0.3057048E-007  0.6648549E+03  0.7818608E-02  0.1019656E+00
         -2   -1    0    0    0  501 -0.00000000000E+00  0.00000000000E+00  0.27013795800E+03  0.27013795801E+03  0.25500000000E-02 0.  1.
          2   -1    0    0  501    0  0.00000000000E+00 -0.00000000000E+00 -0.10917150970E+04  0.10917150970E+04  0.25500000000E-02 0. -1.
    8880023    1    1    2    0    0  0.87001357669E+02  0.25544851216E+02 -0.16971076092E+03  0.68617324656E+03  0.65864270000E+03 0.  1.
    8880022    1    1    2    0    0 -0.87001357669E+02 -0.25544851216E+02 -0.65186637805E+03  0.67567980842E+03  0.15294330000E+03 0.  0.
<mgrwt>
<rscale>  0 0.47811138E+03</rscale>
<asrwt>0</asrwt>
<pdfrwt beam="1">  1        2 0.16795617E+00 0.66485486E+03</pdfrwt>
<pdfrwt beam="2">  1       -2 0.41559686E-01 0.66485486E+03</pdfrwt>
<totfact> 0.12333602E+02</totfact>
</mgrwt>
</event>
<event>
 4    1  0.3057048E-007  0.6655248E+03  0.7818608E-02  0.1019097E+00
         -2   -1    0    0    0  501 -0.00000000000E+00  0.00000000000E+00  0.18527391878E+03  0.18527391880E+03  0.25500000000E-02 0.  1.
          2   -1    0    0  501    0  0.00000000000E+00 -0.00000000000E+00 -0.18706135604E+04  0.18706135604E+04  0.25500000000E-02 0. -1.
    8880023    1    1    2    0    0  0.87606639070E+02  0.37922893846E+02 -0.44059170933E+03  0.79815056830E+03  0.65864270000E+03 0.  1.
    8880022    1    1    2    0    0 -0.87606639070E+02 -0.37922893846E+02 -0.12447479323E+04  0.12577369109E+04  0.15294330000E+03 0.  0.
<mgrwt>
<rscale>  0 0.48013846E+03</rscale>
<asrwt>0</asrwt>
<pdfrwt beam="1">  1        2 0.28778669E+00 0.66552481E+03</pdfrwt>
<pdfrwt beam="2">  1       -2 0.28503681E-01 0.66552481E+03</pdfrwt>
<totfact> 0.91893150E+01</totfact>
</mgrwt>
</event>
<event>
 4    1  0.3057048E-007  0.6953244E+03  0.7818608E-02  0.1001718E+00
         -2   -1    0    0    0  501 -0.00000000000E+00  0.00000000000E+00  0.31754143449E+03  0.31754143450E+03  0.25500000000E-02 0.  1.
          2   -1    0    0  501    0  0.00000000000E+00 -0.00000000000E+00 -0.20200458477E+04  0.20200458477E+04  0.25500000000E-02 0. -1.
    8880023    1    1    2    0    0  0.92912857245E+02  0.20256604878E+03 -0.88298691102E+02  0.70090845927E+03  0.65864270000E+03 0.  1.
    8880022    1    1    2    0    0 -0.92912857245E+02 -0.20256604878E+03 -0.16142057221E+04  0.16366788230E+04  0.15294330000E+03 0.  0.
<mgrwt>
<rscale>  0 0.54903328E+03</rscale>
<asrwt>0</asrwt>
<pdfrwt beam="1">  1        2 0.31077628E+00 0.69532439E+03</pdfrwt>
<pdfrwt beam="2">  1       -2 0.48852529E-01 0.69532439E+03</pdfrwt>
<totfact> 0.26903074E+01</totfact>
</mgrwt>
</event>
<event>
 4    1  0.3057048E-007  0.6928354E+03  0.7818608E-02  0.1002833E+00
         -2   -1    0    0    0  501 -0.00000000000E+00  0.00000000000E+00  0.10128775307E+04  0.10128775307E+04  0.25500000000E-02 0.  1.
          2   -1    0    0  501    0  0.00000000000E+00 -0.00000000000E+00 -0.10984940743E+04  0.10984940743E+04  0.25500000000E-02 0. -1.
    8880023    1    1    2    0    0  0.93238404036E+02  0.19369364454E+03  0.87448553192E+03  0.11156817556E+04  0.65864270000E+03 0.  0.
    8880022    1    1    2    0    0 -0.93238404036E+02 -0.19369364454E+03 -0.96010207551E+03  0.99568984947E+03  0.15294330000E+03 0.  0.
<mgrwt>
<rscale>  0 0.54425254E+03</rscale>
<asrwt>0</asrwt>
<pdfrwt beam="1">  1        2 0.16899909E+00 0.69283536E+03</pdfrwt>
<pdfrwt beam="2">  1       -2 0.15582731E+00 0.69283536E+03</pdfrwt>
<totfact> 0.60763052E+00</totfact>
</mgrwt>
</event>
<event>
 4    1  0.3057048E-007  0.1046488E+04  0.7818608E-02  0.9323115E-01
         -2   -1    0    0    0  501 -0.00000000000E+00  0.00000000000E+00  0.75337050980E+03  0.75337050980E+03  0.25500000000E-02 0.  1.
          2   -1    0    0  501    0  0.00000000000E+00 -0.00000000000E+00 -0.19606640807E+04  0.19606640807E+04  0.25500000000E-02 0. -1.
    8880023    1    1    2    0    0 -0.25861767951E+02  0.81280859531E+03  0.21518694110E+03  0.10683830163E+04  0.65864270000E+03 0.  0.
    8880022    1    1    2    0    0  0.25861767951E+02 -0.81280859531E+03 -0.14224805120E+04  0.16456515742E+04  0.15294330000E+03 0.  0.
<mgrwt>
<rscale>  0 0.98682385E+03</rscale>
<asrwt>0</asrwt>
<pdfrwt beam="1">  1        2 0.30164063E+00 0.10464879E+04</pdfrwt>
<pdfrwt beam="2">  1       -2 0.11590316E+00 0.10464879E+04</pdfrwt>
<totfact> 0.40368087E+00</totfact>
</mgrwt>
</event>
<event>
 4    1  0.3057048E-007  0.6622615E+03  0.7818608E-02  0.1021950E+00
          2   -1    0    0  501    0  0.00000000000E+00  0.00000000000E+00  0.15546536071E+04  0.15546536071E+04  0.25500000000E-02 0. -1.
         -2   -1    0    0    0  501 -0.00000000000E+00 -0.00000000000E+00 -0.22133304777E+03  0.22133304779E+03  0.25500000000E-02 0.  1.
    8880023    1    1    2    0    0 -0.38239495234E+02 -0.57600549465E+02  0.29639047142E+03  0.72556019744E+03  0.65864270000E+03 0.  1.
    8880022    1    1    2    0    0  0.38239495234E+02  0.57600549465E+02  0.10369300879E+04  0.10504264574E+04  0.15294330000E+03 0.  0.
<mgrwt>
<rscale>  0 0.46989284E+03</rscale>
<asrwt>0</asrwt>
<pdfrwt beam="1">  1        2 0.23917747E+00 0.66226150E+03</pdfrwt>
<pdfrwt beam="2">  1       -2 0.34051239E-01 0.66226150E+03</pdfrwt>
<totfact> 0.98133579E+01</totfact>
</mgrwt>
</event>
<event>
 4    1  0.3057048E-007  0.1460276E+04  0.7818608E-02  0.8938208E-01
         -2   -1    0    0    0  501 -0.00000000000E+00  0.00000000000E+00  0.12872355745E+04  0.12872355745E+04  0.25500000000E-02 0.  1.
          2   -1    0    0  501    0  0.00000000000E+00 -0.00000000000E+00 -0.25089874451E+04  0.25089874451E+04  0.25500000000E-02 0. -1.
    8880023    1    1    2    0    0 -0.11822769645E+04 -0.54846819100E+03  0.57660928906E+03  0.15699951133E+04  0.65864270000E+03 0.  0.
    8880022    1    1    2    0    0  0.11822769645E+04  0.54846819100E+03 -0.17983611596E+04  0.22262279063E+04  0.15294330000E+03 0.  0.
<mgrwt>
<rscale>  0 0.14217721E+04</rscale>
<asrwt>0</asrwt>
<pdfrwt beam="1">  1        2 0.38599807E+00 0.14602761E+04</pdfrwt>
<pdfrwt beam="2">  1       -2 0.19803624E+00 0.14602761E+04</pdfrwt>
<totfact> 0.44494962E-01</totfact>
</mgrwt>
</event>
<event>
 4    1  0.3057048E-007  0.8709932E+03  0.7818608E-02  0.9574300E-01
          2   -1    0    0  501    0  0.00000000000E+00  0.00000000000E+00  0.43775676798E+04  0.43775676798E+04  0.25500000000E-02 0. -1.
         -2   -1    0    0    0  501 -0.00000000000E+00 -0.00000000000E+00 -0.41346243862E+03  0.41346243863E+03  0.25500000000E-02 0.  1.
    8880023    1    1    2    0    0  0.39454575550E+03  0.41128158382E+03  0.93835166508E+02  0.87603318379E+03  0.65864270000E+03 0.  1.
    8880022    1    1    2    0    0 -0.39454575550E+03 -0.41128158382E+03  0.38702700747E+04  0.39149969347E+04  0.15294330000E+03 0.  0.
<mgrwt>
<rscale>  0 0.79020778E+03</rscale>
<asrwt>0</asrwt>
<pdfrwt beam="1">  1        2 0.67347197E+00 0.87099317E+03</pdfrwt>
<pdfrwt beam="2">  1       -2 0.63609604E-01 0.87099317E+03</pdfrwt>
<totfact> 0.40541157E-01</totfact>
</mgrwt>
</event>
<event>
 4    1  0.3057048E-007  0.1005696E+04  0.7818608E-02  0.9374143E-01
          2   -1    0    0  501    0  0.00000000000E+00  0.00000000000E+00  0.44656453572E+04  0.44656453572E+04  0.25500000000E-02 0. -1.
         -2   -1    0    0    0  501 -0.00000000000E+00 -0.00000000000E+00 -0.26483835470E+03  0.26483835471E+03  0.25500000000E-02 0.  1.
    8880023    1    1    2    0    0  0.19881624022E+03 -0.73354410420E+03  0.93249482139E+03  0.13714851980E+04  0.65864270000E+03 0.  1.
    8880022    1    1    2    0    0 -0.19881624022E+03  0.73354410420E+03  0.32683121811E+04  0.33589985139E+04  0.15294330000E+03 0.  0.
<mgrwt>
<rscale>  0 0.94234523E+03</rscale>
<asrwt>0</asrwt>
<pdfrwt beam="1">  1        2 0.68702234E+00 0.10056963E+04</pdfrwt>
<pdfrwt beam="2">  1       -2 0.40744364E-01 0.10056963E+04</pdfrwt>
<totfact> 0.81385768E-01</totfact>
</mgrwt>
</event>
<event>
 4    1  0.3057048E-007  0.7753884E+03  0.7818608E-02  0.9766783E-01
         -2   -1    0    0    0  501 -0.00000000000E+00  0.00000000000E+00  0.23452635224E+03  0.23452635225E+03  0.25500000000E-02 0.  1.
          2   -1    0    0  501    0  0.00000000000E+00 -0.00000000000E+00 -0.16941280749E+04  0.16941280749E+04  0.25500000000E-02 0. -1.
    8880023    1    1    2    0    0 -0.36068566908E+03  0.19319123750E+03 -0.66320131797E+03  0.10203250465E+04  0.65864270000E+03 0.  0.
    8880022    1    1    2    0    0  0.36068566908E+03 -0.19319123750E+03 -0.79640040470E+03  0.90832938065E+03  0.15294330000E+03 0.  1.
<mgrwt>
<rscale>  0 0.67176016E+03</rscale>
<asrwt>0</asrwt>
<pdfrwt beam="1">  1        2 0.26063508E+00 0.77538843E+03</pdfrwt>
<pdfrwt beam="2">  1       -2 0.36080978E-01 0.77538843E+03</pdfrwt>
<totfact> 0.72830243E+01</totfact>
</mgrwt>
</event>
<event>
 4    1  0.3057048E-007  0.6696441E+03  0.7818608E-02  0.1015919E+00
         -2   -1    0    0    0  501 -0.00000000000E+00  0.00000000000E+00  0.47549922841E+03  0.47549922842E+03  0.25500000000E-02 0.  1.
          2   -1    0    0  501    0  0.00000000000E+00 -0.00000000000E+00 -0.87273660092E+03  0.87273660092E+03  0.25500000000E-02 0. -1.
    8880023    1    1    2    0    0 -0.47120033407E+02  0.11132242687E+03  0.21690319075E+03  0.70389642753E+03  0.65864270000E+03 0.  1.
    8880022    1    1    2    0    0  0.47120033407E+02 -0.11132242687E+03 -0.61414056326E+03  0.64433940181E+03  0.15294330000E+03 0.  0.
<mgrwt>
<rscale>  0 0.49188388E+03</rscale>
<asrwt>0</asrwt>
<pdfrwt beam="1">  1        2 0.13426717E+00 0.66964407E+03</pdfrwt>
<pdfrwt beam="2">  1       -2 0.73153727E-01 0.66964407E+03</pdfrwt>
<totfact> 0.52740428E+01</totfact>
</mgrwt>
</event>
<event>
 4    1  0.3057048E-007  0.9589567E+03  0.7818608E-02  0.9437343E-01
         -2   -1    0    0    0  501 -0.00000000000E+00  0.00000000000E+00  0.23890865262E+04  0.23890865263E+04  0.25500000000E-02 0.  1.
          2   -1    0    0  501    0  0.00000000000E+00 -0.00000000000E+00 -0.43812643754E+03  0.43812643755E+03  0.25500000000E-02 0. -1.
    8880023    1    1    2    0    0 -0.68505999262E+03  0.12837630815E+03  0.18795902405E+04  0.21100846780E+04  0.65864270000E+03 0.  0.
    8880022    1    1    2    0    0  0.68505999262E+03 -0.12837630815E+03  0.71369848186E+02  0.71712828576E+03  0.15294330000E+03 0.  0.
<mgrwt>
<rscale>  0 0.89065207E+03</rscale>
<asrwt>0</asrwt>
<pdfrwt beam="1">  1        2 0.67404069E-01 0.95895666E+03</pdfrwt>
<pdfrwt beam="2">  1       -2 0.36755176E+00 0.95895666E+03</pdfrwt>
<totfact> 0.88328842E-01</totfact>
</mgrwt>
</event>
<event>
 4    1  0.3057048E-007  0.8371421E+03  0.7818608E-02  0.9635593E-01
         -2   -1    0    0    0  501 -0.00000000000E+00  0.00000000000E+00  0.98982939835E+03  0.98982939836E+03  0.25500000000E-02 0.  1.
          2   -1    0    0  501    0  0.00000000000E+00 -0.00000000000E+00 -0.14311008431E+04  0.14311008431E+04  0.25500000000E-02 0. -1.
    8880023    1    1    2    0    0 -0.16991775345E+03  0.48798020934E+03  0.74332384609E+03  0.11195254683E+04  0.65864270000E+03 0.  0.
    8880022    1    1    2    0    0  0.16991775345E+03 -0.48798020934E+03 -0.11845952908E+04  0.13014047732E+04  0.15294330000E+03 0.  0.
<mgrwt>
<rscale>  0 0.74984552E+03</rscale>
<asrwt>0</asrwt>
<pdfrwt beam="1">  1        2 0.22016936E+00 0.83714212E+03</pdfrwt>
<pdfrwt beam="2">  1       -2 0.15228145E+00 0.83714212E+03</pdfrwt>
<totfact> 0.40482274E+00</totfact>
</mgrwt>
</event>
<event>
 4    1  0.3057048E-007  0.6771226E+03  0.7818608E-02  0.1011000E+00
         -2   -1    0    0    0  501 -0.00000000000E+00  0.00000000000E+00  0.30170967552E+03  0.30170967553E+03  0.25500000000E-02 0.  1.
          2   -1    0    0  501    0  0.00000000000E+00 -0.00000000000E+00 -0.23290588307E+04  0.23290588307E+04  0.25500000000E-02 0. -1.
    8880023    1    1    2    0    0  0.13363584143E+03 -0.82621260195E+02 -0.92355934284E+02  0.68339200728E+03  0.65864270000E+03 0.  1.
    8880022    1    1    2    0    0 -0.13363584143E+03  0.82621260195E+02 -0.19349932209E+04  0.19473764990E+04  0.15294330000E+03 0.  0.
<mgrwt>
<rscale>  0 0.51078960E+03</rscale>
<asrwt>0</asrwt>
<pdfrwt beam="1">  1        2 0.35831673E+00 0.67712260E+03</pdfrwt>
<pdfrwt beam="2">  1       -2 0.46416875E-01 0.67712260E+03</pdfrwt>
<totfact> 0.20232728E+01</totfact>
</mgrwt>
</event>
<event>
 4    1  0.3057048E-007  0.7047697E+03  0.7818608E-02  0.9977962E-01
         -2   -1    0    0    0  501 -0.00000000000E+00  0.00000000000E+00  0.38327375423E+03  0.38327375424E+03  0.25500000000E-02 0.  1.
          2   -1    0    0  501    0  0.00000000000E+00 -0.00000000000E+00 -0.89560347046E+03  0.89560347046E+03  0.25500000000E-02 0. -1.
    8880023    1    1    2    0    0 -0.21835209678E+03  0.12333901001E+03 -0.19367027919E+02  0.70503577043E+03  0.65864270000E+03 0.  1.
    8880022    1    1    2    0    0  0.21835209678E+03 -0.12333901001E+03 -0.49296268831E+03  0.57384145427E+03  0.15294330000E+03 0.  0.
<mgrwt>
<rscale>  0 0.56627231E+03</rscale>
<asrwt>0</asrwt>
<pdfrwt beam="1">  1        2 0.13778515E+00 0.70476972E+03</pdfrwt>
<pdfrwt beam="2">  1       -2 0.58965193E-01 0.70476972E+03</pdfrwt>
<totfact> 0.80677430E+01</totfact>
</mgrwt>
</event>
<event>
 4    1  0.3057048E-007  0.1081395E+04  0.7818608E-02  0.9282059E-01
          2   -1    0    0  501    0  0.00000000000E+00  0.00000000000E+00  0.30784714127E+04  0.30784714127E+04  0.25500000000E-02 0. -1.
         -2   -1    0    0    0  501 -0.00000000000E+00 -0.00000000000E+00 -0.76707849616E+03  0.76707849617E+03  0.25500000000E-02 0.  1.
    8880023    1    1    2    0    0 -0.61791288081E+03  0.59480062826E+03 -0.27546594279E+03  0.11159282269E+04  0.65864270000E+03 0.  1.
    8880022    1    1    2    0    0  0.61791288081E+03 -0.59480062826E+03  0.25868588593E+04  0.27296216820E+04  0.15294330000E+03 0.  0.
<mgrwt>
<rscale>  0 0.10245144E+04</rscale>
<asrwt>0</asrwt>
<pdfrwt beam="1">  1        2 0.47361099E+00 0.10813946E+04</pdfrwt>
<pdfrwt beam="2">  1       -2 0.11801208E+00 0.10813946E+04</pdfrwt>
<totfact> 0.86550468E-01</totfact>
</mgrwt>
</event>
<event>
 4    1  0.3057048E-007  0.6703075E+03  0.7818608E-02  0.1015443E+00
          2   -1    0    0  501    0  0.00000000000E+00  0.00000000000E+00  0.33940020659E+04  0.33940020659E+04  0.25500000000E-02 0. -1.
         -2   -1    0    0    0  501 -0.00000000000E+00 -0.00000000000E+00 -0.99723193847E+02  0.99723193880E+02  0.25500000000E-02 0.  1.
    8880023    1    1    2    0    0  0.38947436181E+02  0.11825808760E+03  0.10829116717E+04  0.12735814749E+04  0.65864270000E+03 0.  1.
    8880022    1    1    2    0    0 -0.38947436181E+02 -0.11825808760E+03  0.22113672003E+04  0.22201437849E+04  0.15294330000E+03 0.  0.
<mgrwt>
<rscale>  0 0.49367395E+03</rscale>
<asrwt>0</asrwt>
<pdfrwt beam="1">  1        2 0.52215409E+00 0.67030746E+03</pdfrwt>
<pdfrwt beam="2">  1       -2 0.15342032E-01 0.67030746E+03</pdfrwt>
<totfact> 0.35243661E+01</totfact>
</mgrwt>
</event>
<event>
 4    1  0.3057048E-007  0.6828616E+03  0.7818608E-02  0.1007749E+00
         -2   -1    0    0    0  501 -0.00000000000E+00  0.00000000000E+00  0.94819157667E+03  0.94819157668E+03  0.25500000000E-02 0.  1.
          2   -1    0    0  501    0  0.00000000000E+00 -0.00000000000E+00 -0.91118469591E+03  0.91118469591E+03  0.25500000000E-02 0. -1.
    8880023    1    1    2    0    0  0.35045072273E+02  0.17680961506E+03  0.80512158002E+03  0.10557086539E+04  0.65864270000E+03 0.  1.
    8880022    1    1    2    0    0 -0.35045072273E+02 -0.17680961506E+03 -0.76811469926E+03  0.80366761867E+03  0.15294330000E+03 0.  0.
<mgrwt>
<rscale>  0 0.52379095E+03</rscale>
<asrwt>0</asrwt>
<pdfrwt beam="1">  1        2 0.14018226E+00 0.68286163E+03</pdfrwt>
<pdfrwt beam="2">  1       -2 0.14587563E+00 0.68286163E+03</pdfrwt>
<totfact> 0.95316989E+00</totfact>
</mgrwt>
</event>
<event>
 4    1  0.3057048E-007  0.8024582E+03  0.7818608E-02  0.9705506E-01
         -2   -1    0    0    0  501 -0.00000000000E+00  0.00000000000E+00  0.18465297264E+03  0.18465297266E+03  0.25500000000E-02 0.  1.
          2   -1    0    0  501    0  0.00000000000E+00 -0.00000000000E+00 -0.36742871454E+04  0.36742871454E+04  0.25500000000E-02 0. -1.
    8880023    1    1    2    0    0  0.18108023279E+03 -0.42111626422E+03 -0.82520668385E+03  0.11510452798E+04  0.65864270000E+03 0.  0.
    8880022    1    1    2    0    0 -0.18108023279E+03  0.42111626422E+03 -0.26644274889E+04  0.27078948383E+04  0.15294330000E+03 0.  0.
<mgrwt>
<rscale>  0 0.70689916E+03</rscale>
<asrwt>0</asrwt>
<pdfrwt beam="1">  1        2 0.56527489E+00 0.80245820E+03</pdfrwt>
<pdfrwt beam="2">  1       -2 0.28408152E-01 0.80245820E+03</pdfrwt>
<totfact> 0.74500137E+00</totfact>
</mgrwt>
</event>
<event>
 4    1  0.3057048E-007  0.7044819E+03  0.7818608E-02  0.9979093E-01
          2   -1    0    0  501    0  0.00000000000E+00  0.00000000000E+00  0.18610929930E+04  0.18610929930E+04  0.25500000000E-02 0. -1.
         -2   -1    0    0    0  501 -0.00000000000E+00 -0.00000000000E+00 -0.16602007238E+03  0.16602007240E+03  0.25500000000E-02 0.  1.
    8880023    1    1    2    0    0 -0.38542239171E+02  0.24697992164E+03  0.71331915758E+03  0.10025562392E+04  0.65864270000E+03 0.  1.
    8880022    1    1    2    0    0  0.38542239171E+02 -0.24697992164E+03  0.98175376300E+03  0.10245568262E+04  0.15294330000E+03 0.  0.
<mgrwt>
<rscale>  0 0.56576558E+03</rscale>
<asrwt>0</asrwt>
<pdfrwt beam="1">  1        2 0.28632199E+00 0.70448193E+03</pdfrwt>
<pdfrwt beam="2">  1       -2 0.25541550E-01 0.70448193E+03</pdfrwt>
<totfact> 0.11309064E+02</totfact>
</mgrwt>
</event>
<event>
 4    1  0.3057048E-007  0.8983318E+03  0.7818608E-02  0.9528715E-01
         -2   -1    0    0    0  501 -0.00000000000E+00  0.00000000000E+00  0.13079352100E+04  0.13079352100E+04  0.25500000000E-02 0.  1.
          2   -1    0    0  501    0  0.00000000000E+00 -0.00000000000E+00 -0.12928513826E+04  0.12928513826E+04  0.25500000000E-02 0. -1.
    8880023    1    1    2    0    0  0.13515304161E+03  0.59575451478E+03  0.10546312032E+04  0.13853688922E+04  0.65864270000E+03 0.  1.
    8880022    1    1    2    0    0 -0.13515304161E+03 -0.59575451478E+03 -0.10395473759E+04  0.12154177003E+04  0.15294330000E+03 0.  0.
<mgrwt>
<rscale>  0 0.82199490E+03</rscale>
<asrwt>0</asrwt>
<pdfrwt beam="1">  1        2 0.19890021E+00 0.89833178E+03</pdfrwt>
<pdfrwt beam="2">  1       -2 0.20122080E+00 0.89833178E+03</pdfrwt>
<totfact> 0.21921467E+00</totfact>
</mgrwt>
</event>
<event>
 4    1  0.3057048E-007  0.7014449E+03  0.7818608E-02  0.9991259E-01
          2   -1    0    0  501    0  0.00000000000E+00  0.00000000000E+00  0.96072005525E+03  0.96072005526E+03  0.25500000000E-02 0. -1.
         -2   -1    0    0    0  501 -0.00000000000E+00 -0.00000000000E+00 -0.31331223610E+03  0.31331223611E+03  0.25500000000E-02 0.  1.
    8880023    1    1    2    0    0 -0.14183908997E+03  0.19518299634E+03  0.17659717103E+03  0.72333359979E+03  0.65864270000E+03 0.  1.
    8880022    1    1    2    0    0  0.14183908997E+03 -0.19518299634E+03  0.47081064812E+03  0.55069869158E+03  0.15294330000E+03 0.  0.
<mgrwt>
<rscale>  0 0.56035169E+03</rscale>
<asrwt>0</asrwt>
<pdfrwt beam="1">  1        2 0.14780308E+00 0.70144489E+03</pdfrwt>
<pdfrwt beam="2">  1       -2 0.48201883E-01 0.70144489E+03</pdfrwt>
<totfact> 0.11070495E+02</totfact>
</mgrwt>
</event>
<event>
 4    1  0.3057048E-007  0.6785095E+03  0.7818608E-02  0.1010180E+00
          2   -1    0    0  501    0  0.00000000000E+00  0.00000000000E+00  0.13344999460E+03  0.13344999463E+03  0.25500000000E-02 0. -1.
         -2   -1    0    0    0  501 -0.00000000000E+00 -0.00000000000E+00 -0.29521434429E+04  0.29521434429E+04  0.25500000000E-02 0.  1.
    8880023    1    1    2    0    0  0.16223979287E+03  0.15593185523E+02 -0.27764142031E+04  0.28581201744E+04  0.65864270000E+03 0.  1.
    8880022    1    1    2    0    0 -0.16223979287E+03 -0.15593185523E+02 -0.42279245117E+02  0.22747326306E+03  0.15294330000E+03 0.  0.
<mgrwt>
<rscale>  0 0.51403299E+03</rscale>
<asrwt>0</asrwt>
<pdfrwt beam="1">  1        2 0.20530771E-01 0.67850947E+03</pdfrwt>
<pdfrwt beam="2">  1       -2 0.45417587E+00 0.67850947E+03</pdfrwt>
<totfact> 0.96617868E-01</totfact>
</mgrwt>
</event>
<event>
 4    1  0.3057048E-007  0.9282475E+03  0.7818608E-02  0.9482127E-01
          2   -1    0    0  501    0  0.00000000000E+00  0.00000000000E+00  0.88699573136E+03  0.88699573136E+03  0.25500000000E-02 0. -1.
         -2   -1    0    0    0  501 -0.00000000000E+00 -0.00000000000E+00 -0.12811949087E+04  0.12811949087E+04  0.25500000000E-02 0.  1.
    8880023    1    1    2    0    0 -0.58082762565E+03 -0.30078649324E+03 -0.92621029949E+03  0.13113004882E+04  0.65864270000E+03 0.  0.
    8880022    1    1    2    0    0  0.58082762565E+03  0.30078649324E+03  0.53201112215E+03  0.85689015185E+03  0.15294330000E+03 0.  0.
<mgrwt>
<rscale>  0 0.85614432E+03</rscale>
<asrwt>0</asrwt>
<pdfrwt beam="1">  1        2 0.13646088E+00 0.92824752E+03</pdfrwt>
<pdfrwt beam="2">  1       -2 0.19710691E+00 0.92824752E+03</pdfrwt>
<totfact> 0.41586933E+00</totfact>
</mgrwt>
</event>
<event>
 4    1  0.3057048E-007  0.9070786E+03  0.7818608E-02  0.9514762E-01
         -2   -1    0    0    0  501 -0.00000000000E+00  0.00000000000E+00  0.72165372432E+03  0.72165372432E+03  0.25500000000E-02 0.  1.
          2   -1    0    0  501    0  0.00000000000E+00 -0.00000000000E+00 -0.21946443947E+04  0.21946443947E+04  0.25500000000E-02 0. -1.
    8880023    1    1    2    0    0 -0.64844408150E+01 -0.62365000240E+03  0.35860533163E+03  0.97539190257E+03  0.65864270000E+03 0.  1.
    8880022    1    1    2    0    0  0.64844408150E+01  0.62365000240E+03 -0.18315960020E+04  0.19409062164E+04  0.15294330000E+03 0.  0.
<mgrwt>
<rscale>  0 0.83204147E+03</rscale>
<asrwt>0</asrwt>
<pdfrwt beam="1">  1        2 0.33763760E+00 0.90707860E+03</pdfrwt>
<pdfrwt beam="2">  1       -2 0.11102365E+00 0.90707860E+03</pdfrwt>
<totfact> 0.33920653E+00</totfact>
</mgrwt>
</event>
<event>
 4    1  0.3057048E-007  0.9515775E+03  0.7818608E-02  0.9447848E-01
         -2   -1    0    0    0  501 -0.00000000000E+00  0.00000000000E+00  0.68381113209E+03  0.68381113209E+03  0.25500000000E-02 0.  1.
          2   -1    0    0  501    0  0.00000000000E+00 -0.00000000000E+00 -0.12222800097E+04  0.12222800097E+04  0.25500000000E-02 0. -1.
    8880023    1    1    2    0    0  0.20687663595E+03 -0.65489819345E+03  0.98911657585E+02  0.95670439978E+03  0.65864270000E+03 0.  1.
    8880022    1    1    2    0    0 -0.20687663595E+03  0.65489819345E+03 -0.63738053524E+03  0.94938674206E+03  0.15294330000E+03 0.  0.
<mgrwt>
<rscale>  0 0.88240445E+03</rscale>
<asrwt>0</asrwt>
<pdfrwt beam="1">  1        2 0.18804308E+00 0.95157753E+03</pdfrwt>
<pdfrwt beam="2">  1       -2 0.10520171E+00 0.95157753E+03</pdfrwt>
<totfact> 0.13417411E+01</totfact>
</mgrwt>
</event>
<event>
 4    1  0.3057048E-007  0.7798721E+03  0.7818608E-02  0.9756138E-01
         -2   -1    0    0    0  501 -0.00000000000E+00  0.00000000000E+00  0.33656055091E+03  0.33656055092E+03  0.25500000000E-02 0.  1.
          2   -1    0    0  501    0  0.00000000000E+00 -0.00000000000E+00 -0.31415158631E+04  0.31415158631E+04  0.25500000000E-02 0. -1.
    8880023    1    1    2    0    0 -0.34062910954E+03 -0.24158241886E+03 -0.16015627128E+03  0.79614728088E+03  0.65864270000E+03 0.  0.
    8880022    1    1    2    0    0  0.34062910954E+03  0.24158241886E+03 -0.26447990409E+04  0.26819291332E+04  0.15294330000E+03 0.  0.
<mgrwt>
<rscale>  0 0.67770525E+03</rscale>
<asrwt>0</asrwt>
<pdfrwt beam="1">  1        2 0.48331011E+00 0.77987208E+03</pdfrwt>
<pdfrwt beam="2">  1       -2 0.51778549E-01 0.77987208E+03</pdfrwt>
<totfact> 0.53071724E+00</totfact>
</mgrwt>
</event>
<event>
 4    1  0.3057048E-007  0.7923750E+03  0.7818608E-02  0.9727532E-01
         -2   -1    0    0    0  501 -0.00000000000E+00  0.00000000000E+00  0.76630572222E+03  0.76630572223E+03  0.25500000000E-02 0.  1.
          2   -1    0    0  501    0  0.00000000000E+00 -0.00000000000E+00 -0.13224871642E+04  0.13224871642E+04  0.25500000000E-02 0. -1.
    8880023    1    1    2    0    0 -0.10201385087E+03  0.42853374457E+03  0.49814428113E+03  0.93595188289E+03  0.65864270000E+03 0.  1.
    8880022    1    1    2    0    0  0.10201385087E+03 -0.42853374457E+03 -0.10543257231E+04  0.11528410036E+04  0.15294330000E+03 0.  0.
<mgrwt>
<rscale>  0 0.69400953E+03</rscale>
<asrwt>0</asrwt>
<pdfrwt beam="1">  1        2 0.20345956E+00 0.79237504E+03</pdfrwt>
<pdfrwt beam="2">  1       -2 0.11789319E+00 0.79237504E+03</pdfrwt>
<totfact> 0.90438085E+00</totfact>
</mgrwt>
</event>
<event>
 4    1  0.3057048E-007  0.7127818E+03  0.7818608E-02  0.9947813E-01
          2   -1    0    0  501    0  0.00000000000E+00  0.00000000000E+00  0.16175912922E+04  0.16175912922E+04  0.25500000000E-02 0. -1.
         -2   -1    0    0    0  501 -0.00000000000E+00 -0.00000000000E+00 -0.17671116967E+03  0.17671116969E+03  0.25500000000E-02 0.  1.
    8880023    1    1    2    0    0 -0.17022548295E+03 -0.21276960556E+03  0.74275663615E+03  0.10294392876E+04  0.65864270000E+03 0. -1.
    8880022    1    1    2    0    0  0.17022548295E+03  0.21276960556E+03  0.69812348639E+03  0.76486317427E+03  0.15294330000E+03 0.  0.
<mgrwt>
<rscale>  0 0.57998999E+03</rscale>
<asrwt>0</asrwt>
<pdfrwt beam="1">  1        2 0.24886019E+00 0.71278175E+03</pdfrwt>
<pdfrwt beam="2">  1       -2 0.27186335E-01 0.71278175E+03</pdfrwt>
<totfact> 0.13700202E+02</totfact>
</mgrwt>
</event>
<event>
 4    1  0.3057048E-007  0.6607081E+03  0.7818608E-02  0.1023442E+00
          2   -1    0    0  501    0  0.00000000000E+00  0.00000000000E+00  0.13093198326E+04  0.13093198326E+04  0.25500000000E-02 0. -1.
         -2   -1    0    0    0  501 -0.00000000000E+00 -0.00000000000E+00 -0.25150398941E+03  0.25150398943E+03  0.25500000000E-02 0.  1.
    8880023    1    1    2    0    0  0.42736776216E+02 -0.29976460729E+02  0.20347133258E+03  0.69132901696E+03  0.65864270000E+03 0.  1.
    8880022    1    1    2    0    0 -0.42736776216E+02  0.29976460729E+02  0.85434451065E+03  0.86949480512E+03  0.15294330000E+03 0.  0.
<mgrwt>
<rscale>  0 0.46464575E+03</rscale>
<asrwt>0</asrwt>
<pdfrwt beam="1">  1        2 0.20143382E+00 0.66070813E+03</pdfrwt>
<pdfrwt beam="2">  1       -2 0.38692921E-01 0.66070813E+03</pdfrwt>
<totfact> 0.10550300E+02</totfact>
</mgrwt>
</event>
<event>
 4    1  0.3057048E-007  0.9488164E+03  0.7818608E-02  0.9451819E-01
          2   -1    0    0  501    0  0.00000000000E+00  0.00000000000E+00  0.43291171071E+03  0.43291171072E+03  0.25500000000E-02 0. -1.
         -2   -1    0    0    0  501 -0.00000000000E+00 -0.00000000000E+00 -0.17928320118E+04  0.17928320118E+04  0.25500000000E-02 0.  1.
    8880023    1    1    2    0    0  0.35953113719E+03 -0.58067179345E+03 -0.11584981676E+04  0.14974547008E+04  0.65864270000E+03 0.  1.
    8880022    1    1    2    0    0 -0.35953113719E+03  0.58067179345E+03 -0.20142213349E+03  0.72828902174E+03  0.15294330000E+03 0. -1.
<mgrwt>
<rscale>  0 0.87931151E+03</rscale>
<asrwt>0</asrwt>
<pdfrwt beam="1">  1        2 0.66601803E-01 0.94881641E+03</pdfrwt>
<pdfrwt beam="2">  1       -2 0.27582031E+00 0.94881641E+03</pdfrwt>
<totfact> 0.32782824E+00</totfact>
</mgrwt>
</event>
<event>
 4    1  0.3057048E-007  0.8144223E+03  0.7818608E-02  0.9680438E-01
         -2   -1    0    0    0  501 -0.00000000000E+00  0.00000000000E+00  0.20276293644E+03  0.20276293646E+03  0.25500000000E-02 0.  1.
          2   -1    0    0  501    0  0.00000000000E+00 -0.00000000000E+00 -0.26186702158E+04  0.26186702158E+04  0.25500000000E-02 0. -1.
    8880023    1    1    2    0    0 -0.14488185809E+03 -0.45659909756E+03 -0.85186111591E+03  0.11785376769E+04  0.65864270000E+03 0.  1.
    8880022    1    1    2    0    0  0.14488185809E+03  0.45659909756E+03 -0.15640461634E+04  0.16428954754E+04  0.15294330000E+03 0.  0.
<mgrwt>
<rscale>  0 0.72193545E+03</rscale>
<asrwt>0</asrwt>
<pdfrwt beam="1">  1        2 0.40287232E+00 0.81442231E+03</pdfrwt>
<pdfrwt beam="2">  1       -2 0.31194300E-01 0.81442231E+03</pdfrwt>
<totfact> 0.29322208E+01</totfact>
</mgrwt>
</event>
<event>
 4    1  0.3057048E-007  0.6869784E+03  0.7818608E-02  0.1005623E+00
          2   -1    0    0  501    0  0.00000000000E+00  0.00000000000E+00  0.14781523385E+04  0.14781523385E+04  0.25500000000E-02 0. -1.
         -2   -1    0    0    0  501 -0.00000000000E+00 -0.00000000000E+00 -0.76629500945E+03  0.76629500946E+03  0.25500000000E-02 0.  1.
    8880023    1    1    2    0    0  0.80575522416E+02  0.17786710448E+03 -0.59831745715E+03  0.91100115667E+03  0.65864270000E+03 0.  1.
    8880022    1    1    2    0    0 -0.80575522416E+02 -0.17786710448E+03  0.13101747862E+04  0.13334461913E+04  0.15294330000E+03 0.  0.
<mgrwt>
<rscale>  0 0.53251891E+03</rscale>
<asrwt>0</asrwt>
<pdfrwt beam="1">  1        2 0.22740805E+00 0.68697840E+03</pdfrwt>
<pdfrwt beam="2">  1       -2 0.11789154E+00 0.68697840E+03</pdfrwt>
<totfact> 0.74942096E+00</totfact>
</mgrwt>
</event>
<event>
 4    1  0.3057048E-007  0.7231850E+03  0.7818608E-02  0.9911953E-01
         -2   -1    0    0    0  501 -0.00000000000E+00  0.00000000000E+00  0.85908648184E+03  0.85908648184E+03  0.25500000000E-02 0.  1.
          2   -1    0    0  501    0  0.00000000000E+00 -0.00000000000E+00 -0.52321564914E+03  0.52321564915E+03  0.25500000000E-02 0. -1.
    8880023    1    1    2    0    0 -0.38657794845E+01 -0.29861575720E+03  0.61229309187E+03  0.94757551220E+03  0.65864270000E+03 0.  1.
    8880022    1    1    2    0    0  0.38657794845E+01  0.29861575720E+03 -0.27642225918E+03  0.43472661879E+03  0.15294330000E+03 0.  0.
<mgrwt>
<rscale>  0 0.59685485E+03</rscale>
<asrwt>0</asrwt>
<pdfrwt beam="1">  1        2 0.80494715E-01 0.72318498E+03</pdfrwt>
<pdfrwt beam="2">  1       -2 0.13216715E+00 0.72318498E+03</pdfrwt>
<totfact> 0.24685400E+01</totfact>
</mgrwt>
</event>
<event>
 4    1  0.3057048E-007  0.7137741E+03  0.7818608E-02  0.9944244E-01
         -2   -1    0    0    0  501 -0.00000000000E+00  0.00000000000E+00  0.24488739436E+03  0.24488739438E+03  0.25500000000E-02 0.  1.
          2   -1    0    0  501    0  0.00000000000E+00 -0.00000000000E+00 -0.14674381794E+04  0.14674381794E+04  0.25500000000E-02 0. -1.
    8880023    1    1    2    0    0 -0.10805552275E+03  0.25295698242E+03 -0.37091561603E+03  0.80439532037E+03  0.65864270000E+03 0.  0.
    8880022    1    1    2    0    0  0.10805552275E+03 -0.25295698242E+03 -0.85163516903E+03  0.90793025343E+03  0.15294330000E+03 0.  0.
<mgrwt>
<rscale>  0 0.58164107E+03</rscale>
<asrwt>0</asrwt>
<pdfrwt beam="1">  1        2 0.22575971E+00 0.71377408E+03</pdfrwt>
<pdfrwt beam="2">  1       -2 0.37674985E-01 0.71377408E+03</pdfrwt>
<totfact> 0.89964177E+01</totfact>
</mgrwt>
</event>
<event>
 4    1  0.3057048E-007  0.8314481E+03  0.7818608E-02  0.9646521E-01
          2   -1    0    0  501    0  0.00000000000E+00  0.00000000000E+00  0.30609424324E+04  0.30609424324E+04  0.25500000000E-02 0. -1.
         -2   -1    0    0    0  501 -0.00000000000E+00 -0.00000000000E+00 -0.35439154246E+03  0.35439154247E+03  0.25500000000E-02 0.  1.
    8880023    1    1    2    0    0  0.40808652370E+03  0.30159759724E+03  0.20242110109E+03  0.85573373775E+03  0.65864270000E+03 0.  0.
    8880022    1    1    2    0    0 -0.40808652370E+03 -0.30159759724E+03  0.25041297889E+04  0.25596002372E+04  0.15294330000E+03 0.  0.
<mgrwt>
<rscale>  0 0.74292142E+03</rscale>
<asrwt>0</asrwt>
<pdfrwt beam="1">  1        2 0.47091423E+00 0.83144809E+03</pdfrwt>
<pdfrwt beam="2">  1       -2 0.54521774E-01 0.83144809E+03</pdfrwt>
<totfact> 0.53078772E+00</totfact>
</mgrwt>
</event>
<event>
 4    1  0.3057048E-007  0.7194986E+03  0.7818608E-02  0.9924286E-01
          2   -1    0    0  501    0  0.00000000000E+00  0.00000000000E+00  0.33441833322E+04  0.33441833322E+04  0.25500000000E-02 0. -1.
         -2   -1    0    0    0  501 -0.00000000000E+00 -0.00000000000E+00 -0.17539075909E+03  0.17539075911E+03  0.25500000000E-02 0.  1.
    8880023    1    1    2    0    0  0.21141598373E+03  0.19791747732E+03  0.61985732342E+03  0.94968487072E+03  0.65864270000E+03 0.  1.
    8880022    1    1    2    0    0 -0.21141598373E+03 -0.19791747732E+03  0.25489352497E+04  0.25698892206E+04  0.15294330000E+03 0.  0.
<mgrwt>
<rscale>  0 0.59098579E+03</rscale>
<asrwt>0</asrwt>
<pdfrwt beam="1">  1        2 0.51448974E+00 0.71949861E+03</pdfrwt>
<pdfrwt beam="2">  1       -2 0.26983194E-01 0.71949861E+03</pdfrwt>
<totfact> 0.13992622E+01</totfact>
</mgrwt>
</event>
<event>
 4    1  0.3057048E-007  0.7751506E+03  0.7818608E-02  0.9767354E-01
          2   -1    0    0  501    0  0.00000000000E+00  0.00000000000E+00  0.22350789189E+04  0.22350789189E+04  0.25500000000E-02 0. -1.
         -2   -1    0    0    0  501 -0.00000000000E+00 -0.00000000000E+00 -0.18374303100E+03  0.18374303102E+03  0.25500000000E-02 0.  1.
    8880023    1    1    2    0    0  0.20021490807E+02  0.40822473653E+03  0.90134984757E+03  0.11888187623E+04  0.65864270000E+03 0.  1.
    8880022    1    1    2    0    0 -0.20021490807E+02 -0.40822473653E+03  0.11499860403E+04  0.12300031876E+04  0.15294330000E+03 0.  0.
<mgrwt>
<rscale>  0 0.67144329E+03</rscale>
<asrwt>0</asrwt>
<pdfrwt beam="1">  1        2 0.34385827E+00 0.77515063E+03</pdfrwt>
<pdfrwt beam="2">  1       -2 0.28268161E-01 0.77515063E+03</pdfrwt>
<totfact> 0.58215201E+01</totfact>
</mgrwt>
</event>
<event>
 4    1  0.3057048E-007  0.1120342E+04  0.7818608E-02  0.9238739E-01
          2   -1    0    0  501    0  0.00000000000E+00  0.00000000000E+00  0.11286017167E+04  0.11286017167E+04  0.25500000000E-02 0. -1.
         -2   -1    0    0    0  501 -0.00000000000E+00 -0.00000000000E+00 -0.11207086332E+04  0.11207086332E+04  0.25500000000E-02 0.  1.
    8880023    1    1    2    0    0  0.90543421475E+03 -0.39295671689E+02 -0.46817763035E+03  0.12142305246E+04  0.65864270000E+03 0.  1.
    8880022    1    1    2    0    0 -0.90543421475E+03  0.39295671689E+02  0.47607071394E+03  0.10350798253E+04  0.15294330000E+03 0.  0.
<mgrwt>
<rscale>  0 0.10662369E+04</rscale>
<asrwt>0</asrwt>
<pdfrwt beam="1">  1        2 0.17363103E+00 0.11203417E+04</pdfrwt>
<pdfrwt beam="2">  1       -2 0.17241671E+00 0.11203417E+04</pdfrwt>
<totfact> 0.41976746E+00</totfact>
</mgrwt>
</event>
<event>
 4    1  0.3057048E-007  0.9500715E+03  0.7818608E-02  0.9450011E-01
          2   -1    0    0  501    0  0.00000000000E+00  0.00000000000E+00  0.66600012704E+03  0.66600012705E+03  0.25500000000E-02 0. -1.
         -2   -1    0    0    0  501 -0.00000000000E+00 -0.00000000000E+00 -0.12836419437E+04  0.12836419437E+04  0.25500000000E-02 0.  1.
    8880023    1    1    2    0    0  0.20362582994E+03  0.65372939711E+03 -0.78032186532E+03  0.12294462262E+04  0.65864270000E+03 0.  1.
    8880022    1    1    2    0    0 -0.20362582994E+03 -0.65372939711E+03  0.16268004869E+03  0.72019584456E+03  0.15294330000E+03 0. -1.
<mgrwt>
<rscale>  0 0.88071788E+03</rscale>
<asrwt>0</asrwt>
<pdfrwt beam="1">  1        2 0.10246156E+00 0.95007148E+03</pdfrwt>
<pdfrwt beam="2">  1       -2 0.19748338E+00 0.95007148E+03</pdfrwt>
<totfact> 0.60175616E+00</totfact>
</mgrwt>
</event>
<event>
 4    1  0.3057048E-007  0.1178013E+04  0.7818608E-02  0.9178797E-01
         -2   -1    0    0    0  501 -0.00000000000E+00  0.00000000000E+00  0.82185564432E+03  0.82185564433E+03  0.25500000000E-02 0.  1.
          2   -1    0    0  501    0  0.00000000000E+00 -0.00000000000E+00 -0.14902099916E+04  0.14902099916E+04  0.25500000000E-02 0. -1.
    8880023    1    1    2    0    0 -0.72700365487E+03  0.65220449407E+03 -0.12666976122E+03  0.11848039715E+04  0.65864270000E+03 0.  0.
    8880022    1    1    2    0    0  0.72700365487E+03 -0.65220449407E+03 -0.54168458609E+03  0.11272616644E+04  0.15294330000E+03 0.  0.
<mgrwt>
<rscale>  0 0.11274984E+04</rscale>
<asrwt>0</asrwt>
<pdfrwt beam="1">  1        2 0.22926307E+00 0.11780133E+04</pdfrwt>
<pdfrwt beam="2">  1       -2 0.12643933E+00 0.11780133E+04</pdfrwt>
<totfact> 0.58471374E+00</totfact>
</mgrwt>
</event>
<event>
 4    1  0.3057048E-007  0.7452051E+03  0.7818608E-02  0.9845036E-01
          2   -1    0    0  501    0  0.00000000000E+00  0.00000000000E+00  0.13634674591E+04  0.13634674591E+04  0.25500000000E-02 0. -1.
         -2   -1    0    0    0  501 -0.00000000000E+00 -0.00000000000E+00 -0.48461806464E+03  0.48461806465E+03  0.25500000000E-02 0.  1.
    8880023    1    1    2    0    0  0.32627647314E+03 -0.12273614116E+03 -0.14196051349E+03  0.75860628189E+03  0.65864270000E+03 0.  1.
    8880022    1    1    2    0    0 -0.32627647314E+03  0.12273614116E+03  0.10208099080E+04  0.10894792419E+04  0.15294330000E+03 0.  0.
<mgrwt>
<rscale>  0 0.63000643E+03</rscale>
<asrwt>0</asrwt>
<pdfrwt beam="1">  1        2 0.20976422E+00 0.74520514E+03</pdfrwt>
<pdfrwt beam="2">  1       -2 0.74556626E-01 0.74520514E+03</pdfrwt>
<totfact> 0.25110856E+01</totfact>
</mgrwt>
</event>
<event>
 4    1  0.3057048E-007  0.1080165E+04  0.7818608E-02  0.9283468E-01
         -2   -1    0    0    0  501 -0.00000000000E+00  0.00000000000E+00  0.94930732675E+03  0.94930732675E+03  0.25500000000E-02 0.  1.
          2   -1    0    0  501    0  0.00000000000E+00 -0.00000000000E+00 -0.32411396392E+04  0.32411396392E+04  0.25500000000E-02 0. -1.
    8880023    1    1    2    0    0 -0.57218696104E+03 -0.63682697440E+03  0.55452784523E+03  0.12141902038E+04  0.65864270000E+03 0.  0.
    8880022    1    1    2    0    0  0.57218696104E+03  0.63682697440E+03 -0.28463601577E+04  0.29762567621E+04  0.15294330000E+03 0.  0.
<mgrwt>
<rscale>  0 0.10231920E+04</rscale>
<asrwt>0</asrwt>
<pdfrwt beam="1">  1        2 0.49863686E+00 0.10801651E+04</pdfrwt>
<pdfrwt beam="2">  1       -2 0.14604728E+00 0.10801651E+04</pdfrwt>
<totfact> 0.39525530E-01</totfact>
</mgrwt>
</event>
<event>
 4    1  0.3057048E-007  0.8355545E+03  0.7818608E-02  0.9638620E-01
         -2   -1    0    0    0  501 -0.00000000000E+00  0.00000000000E+00  0.12973836486E+04  0.12973836486E+04  0.25500000000E-02 0.  1.
          2   -1    0    0  501    0  0.00000000000E+00 -0.00000000000E+00 -0.91872314035E+03  0.91872314035E+03  0.25500000000E-02 0. -1.
    8880023    1    1    2    0    0  0.51136527649E+03  0.53353729561E+02  0.10595098504E+04  0.13493377619E+04  0.65864270000E+03 0.  1.
    8880022    1    1    2    0    0 -0.51136527649E+03 -0.53353729561E+02 -0.68084934215E+03  0.86676902701E+03  0.15294330000E+03 0.  0.
<mgrwt>
<rscale>  0 0.74791928E+03</rscale>
<asrwt>0</asrwt>
<pdfrwt beam="1">  1        2 0.14134202E+00 0.83555447E+03</pdfrwt>
<pdfrwt beam="2">  1       -2 0.19959748E+00 0.83555447E+03</pdfrwt>
<totfact> 0.38547166E+00</totfact>
</mgrwt>
</event>
<event>
 4    1  0.3057048E-007  0.6777991E+03  0.7818608E-02  0.1010597E+00
         -2   -1    0    0    0  501 -0.00000000000E+00  0.00000000000E+00  0.76762068385E+03  0.76762068385E+03  0.25500000000E-02 0.  1.
          2   -1    0    0  501    0  0.00000000000E+00 -0.00000000000E+00 -0.69324603548E+03  0.69324603548E+03  0.25500000000E-02 0. -1.
    8880023    1    1    2    0    0  0.11581499864E+03 -0.11040073626E+03  0.59071330131E+03  0.89908500549E+03  0.65864270000E+03 0.  1.
    8880022    1    1    2    0    0 -0.11581499864E+03  0.11040073626E+03 -0.51633865294E+03  0.56178171385E+03  0.15294330000E+03 0.  0.
<mgrwt>
<rscale>  0 0.51238051E+03</rscale>
<asrwt>0</asrwt>
<pdfrwt beam="1">  1        2 0.10665324E+00 0.67779912E+03</pdfrwt>
<pdfrwt beam="2">  1       -2 0.11809549E+00 0.67779912E+03</pdfrwt>
<totfact> 0.23389016E+01</totfact>
</mgrwt>
</event>
<event>
 4    1  0.3057048E-007  0.7679124E+03  0.7818608E-02  0.9785038E-01
          2   -1    0    0  501    0  0.00000000000E+00  0.00000000000E+00  0.19453061841E+04  0.19453061841E+04  0.25500000000E-02 0. -1.
         -2   -1    0    0    0  501 -0.00000000000E+00 -0.00000000000E+00 -0.58595047341E+03  0.58595047341E+03  0.25500000000E-02 0.  1.
    8880023    1    1    2    0    0  0.32267625271E+03  0.22750660175E+03 -0.29571717960E+03  0.82288399819E+03  0.65864270000E+03 0.  0.
    8880022    1    1    2    0    0 -0.32267625271E+03 -0.22750660175E+03  0.16550728903E+04  0.17083726593E+04  0.15294330000E+03 0.  0.
<mgrwt>
<rscale>  0 0.66171727E+03</rscale>
<asrwt>0</asrwt>
<pdfrwt beam="1">  1        2 0.29927788E+00 0.76791238E+03</pdfrwt>
<pdfrwt beam="2">  1       -2 0.90146224E-01 0.76791238E+03</pdfrwt>
<totfact> 0.77825809E+00</totfact>
</mgrwt>
</event>
<event>
 4    1  0.3057048E-007  0.7068834E+03  0.7818608E-02  0.9969761E-01
         -2   -1    0    0    0  501 -0.00000000000E+00  0.00000000000E+00  0.34652213044E+03  0.34652213045E+03  0.25500000000E-02 0.  1.
          2   -1    0    0  501    0  0.00000000000E+00 -0.00000000000E+00 -0.99006532827E+03  0.99006532827E+03  0.25500000000E-02 0. -1.
    8880023    1    1    2    0    0  0.17032666258E+03  0.19199688336E+03 -0.96725875428E+02  0.71347044539E+03  0.65864270000E+03 0.  1.
    8880022    1    1    2    0    0 -0.17032666258E+03 -0.19199688336E+03 -0.54681732240E+03  0.62311701333E+03  0.15294330000E+03 0.  0.
<mgrwt>
<rscale>  0 0.56996263E+03</rscale>
<asrwt>0</asrwt>
<pdfrwt beam="1">  1        2 0.15231774E+00 0.70688343E+03</pdfrwt>
<pdfrwt beam="2">  1       -2 0.53311097E-01 0.70688343E+03</pdfrwt>
<totfact> 0.86266867E+01</totfact>
</mgrwt>
</event>
<event>
 4    1  0.3057048E-007  0.1875326E+04  0.7818608E-02  0.8681975E-01
          2   -1    0    0  501    0  0.00000000000E+00  0.00000000000E+00  0.23130997328E+04  0.23130997328E+04  0.25500000000E-02 0. -1.
         -2   -1    0    0    0  501 -0.00000000000E+00 -0.00000000000E+00 -0.14492437515E+04  0.14492437515E+04  0.25500000000E-02 0.  1.
    8880023    1    1    2    0    0  0.67243278466E+03  0.16219962807E+04  0.23024889922E+03  0.18894079884E+04  0.65864270000E+03 0.  0.
    8880022    1    1    2    0    0 -0.67243278466E+03 -0.16219962807E+04  0.63360708210E+03  0.18729354960E+04  0.15294330000E+03 0.  0.
<mgrwt>
<rscale>  0 0.18464616E+04</rscale>
<asrwt>0</asrwt>
<pdfrwt beam="1">  1        2 0.35586149E+00 0.18753261E+04</pdfrwt>
<pdfrwt beam="2">  1       -2 0.22296058E+00 0.18753261E+04</pdfrwt>
<totfact> 0.38126561E-01</totfact>
</mgrwt>
</event>
<event>
 4    1  0.3057048E-007  0.1477344E+04  0.7818608E-02  0.8925802E-01
         -2   -1    0    0    0  501 -0.00000000000E+00  0.00000000000E+00  0.15357844187E+04  0.15357844187E+04  0.25500000000E-02 0.  1.
          2   -1    0    0  501    0  0.00000000000E+00 -0.00000000000E+00 -0.16630229810E+04  0.16630229811E+04  0.25500000000E-02 0. -1.
    8880023    1    1    2    0    0  0.65558845701E+01  0.13223817626E+04  0.69655014082E+03  0.16333183433E+04  0.65864270000E+03 0.  1.
    8880022    1    1    2    0    0 -0.65558845701E+01 -0.13223817626E+04 -0.82378870314E+03  0.15654890565E+04  0.15294330000E+03 0.  0.
<mgrwt>
<rscale>  0 0.14393726E+04</rscale>
<asrwt>0</asrwt>
<pdfrwt beam="1">  1        2 0.25584969E+00 0.14773445E+04</pdfrwt>
<pdfrwt beam="2">  1       -2 0.23627453E+00 0.14773445E+04</pdfrwt>
<totfact> 0.75638590E-01</totfact>
</mgrwt>
</event>
<event>
 4    1  0.3057048E-007  0.7393296E+03  0.7818608E-02  0.9861904E-01
          2   -1    0    0  501    0  0.00000000000E+00  0.00000000000E+00  0.10132026900E+04  0.10132026900E+04  0.25500000000E-02 0. -1.
         -2   -1    0    0    0  501 -0.00000000000E+00 -0.00000000000E+00 -0.44192224509E+03  0.44192224510E+03  0.25500000000E-02 0.  1.
    8880023    1    1    2    0    0  0.41599165781E+02 -0.33326790300E+03 -0.40739940459E+02  0.74045116975E+03  0.65864270000E+03 0.  1.
    8880022    1    1    2    0    0 -0.41599165781E+02  0.33326790300E+03  0.61202038534E+03  0.71467376533E+03  0.15294330000E+03 0. -1.
<mgrwt>
<rscale>  0 0.62143622E+03</rscale>
<asrwt>0</asrwt>
<pdfrwt beam="1">  1        2 0.15587734E+00 0.73932956E+03</pdfrwt>
<pdfrwt beam="2">  1       -2 0.67988038E-01 0.73932956E+03</pdfrwt>
<totfact> 0.49743488E+01</totfact>
</mgrwt>
</event>
<event>
 4    1  0.3057048E-007  0.1070780E+04  0.7818608E-02  0.9294308E-01
          2   -1    0    0  501    0  0.00000000000E+00  0.00000000000E+00  0.11254753313E+04  0.11254753313E+04  0.25500000000E-02 0. -1.
         -2   -1    0    0    0  501 -0.00000000000E+00 -0.00000000000E+00 -0.10134608187E+04  0.10134608187E+04  0.25500000000E-02 0.  1.
    8880023    1    1    2    0    0 -0.84360961282E+03 -0.32901169433E+02  0.51828459549E+03  0.11896170787E+04  0.65864270000E+03 0. -1.
    8880022    1    1    2    0    0  0.84360961282E+03  0.32901169433E+02 -0.40627008289E+03  0.94931907126E+03  0.15294330000E+03 0.  0.
<mgrwt>
<rscale>  0 0.10130855E+04</rscale>
<asrwt>0</asrwt>
<pdfrwt beam="1">  1        2 0.17315005E+00 0.10707800E+04</pdfrwt>
<pdfrwt beam="2">  1       -2 0.15591705E+00 0.10707800E+04</pdfrwt>
<totfact> 0.55887545E+00</totfact>
</mgrwt>
</event>
<event>
 4    1  0.3057048E-007  0.6660491E+03  0.7818608E-02  0.1018669E+00
          2   -1    0    0  501    0  0.00000000000E+00  0.00000000000E+00  0.30544917914E+04  0.30544917914E+04  0.25500000000E-02 0. -1.
         -2   -1    0    0    0  501 -0.00000000000E+00 -0.00000000000E+00 -0.39433539979E+03  0.39433539980E+03  0.25500000000E-02 0.  1.
    8880023    1    1    2    0    0  0.32149383132E+02  0.93688760551E+02 -0.10794094641E+03  0.67473892793E+03  0.65864270000E+03 0.  1.
    8880022    1    1    2    0    0 -0.32149383132E+02 -0.93688760551E+02  0.27680973380E+04  0.27740882633E+04  0.15294330000E+03 0.  0.
<mgrwt>
<rscale>  0 0.48169989E+03</rscale>
<asrwt>0</asrwt>
<pdfrwt beam="1">  1        2 0.46992180E+00 0.66604908E+03</pdfrwt>
<pdfrwt beam="2">  1       -2 0.60666987E-01 0.66604908E+03</pdfrwt>
<totfact> 0.44254608E+00</totfact>
</mgrwt>
</event>
<event>
 4    1  0.3057048E-007  0.7141278E+03  0.7818608E-02  0.9942981E-01
         -2   -1    0    0    0  501 -0.00000000000E+00  0.00000000000E+00  0.25230019679E+03  0.25230019681E+03  0.25500000000E-02 0.  1.
          2   -1    0    0  501    0  0.00000000000E+00 -0.00000000000E+00 -0.26521986932E+04  0.26521986932E+04  0.25500000000E-02 0. -1.
    8880023    1    1    2    0    0 -0.26621536640E+03  0.72785264171E+02 -0.28939256428E+03  0.77053655235E+03  0.65864270000E+03 0.  1.
    8880022    1    1    2    0    0  0.26621536640E+03 -0.72785264171E+02 -0.21105059322E+04  0.21339623377E+04  0.15294330000E+03 0.  0.
<mgrwt>
<rscale>  0 0.58222728E+03</rscale>
<asrwt>0</asrwt>
<pdfrwt beam="1">  1        2 0.40803055E+00 0.71412781E+03</pdfrwt>
<pdfrwt beam="2">  1       -2 0.38815417E-01 0.71412781E+03</pdfrwt>
<totfact> 0.18778553E+01</totfact>
</mgrwt>
</event>
<event>
 4    1  0.3057048E-007  0.7411188E+03  0.7818608E-02  0.9856700E-01
         -2   -1    0    0    0  501 -0.00000000000E+00  0.00000000000E+00  0.10406691444E+04  0.10406691444E+04  0.25500000000E-02 0.  1.
          2   -1    0    0  501    0  0.00000000000E+00 -0.00000000000E+00 -0.47508290231E+03  0.47508290232E+03  0.25500000000E-02 0. -1.
    8880023    1    1    2    0    0  0.26634068413E+03 -0.21097274296E+03  0.78804100061E+03  0.10817881878E+04  0.65864270000E+03 0.  0.
    8880022    1    1    2    0    0 -0.26634068413E+03  0.21097274296E+03 -0.22245475850E+03  0.43396385896E+03  0.15294330000E+03 0.  0.
<mgrwt>
<rscale>  0 0.62406469E+03</rscale>
<asrwt>0</asrwt>
<pdfrwt beam="1">  1        2 0.73089677E-01 0.74111879E+03</pdfrwt>
<pdfrwt beam="2">  1       -2 0.16010295E+00 0.74111879E+03</pdfrwt>
<totfact> 0.16678411E+01</totfact>
</mgrwt>
</event>
<event>
 4    1  0.3057048E-007  0.7500776E+03  0.7818608E-02  0.9831508E-01
         -2   -1    0    0    0  501 -0.00000000000E+00  0.00000000000E+00  0.13537492932E+04  0.13537492932E+04  0.25500000000E-02 0.  1.
          2   -1    0    0  501    0  0.00000000000E+00 -0.00000000000E+00 -0.88513075531E+03  0.88513075531E+03  0.25500000000E-02 0. -1.
    8880023    1    1    2    0    0 -0.13039510852E+03  0.33437010470E+03  0.11970031644E+04  0.14125979730E+04  0.65864270000E+03 0.  1.
    8880022    1    1    2    0    0  0.13039510852E+03 -0.33437010470E+03 -0.72838462653E+03  0.82628207558E+03  0.15294330000E+03 0.  0.
<mgrwt>
<rscale>  0 0.63698726E+03</rscale>
<asrwt>0</asrwt>
<pdfrwt beam="1">  1        2 0.13617396E+00 0.75007763E+03</pdfrwt>
<pdfrwt beam="2">  1       -2 0.20826912E+00 0.75007763E+03</pdfrwt>
<totfact> 0.36113686E+00</totfact>
</mgrwt>
</event>
<event>
 4    1  0.3057048E-007  0.7682587E+03  0.7818608E-02  0.9784177E-01
          2   -1    0    0  501    0  0.00000000000E+00  0.00000000000E+00  0.11556952312E+04  0.11556952312E+04  0.25500000000E-02 0. -1.
         -2   -1    0    0    0  501 -0.00000000000E+00 -0.00000000000E+00 -0.45010943538E+03  0.45010943539E+03  0.25500000000E-02 0.  1.
    8880023    1    1    2    0    0  0.12811255567E+03 -0.37416353480E+03 -0.16483670880E+02  0.76843548549E+03  0.65864270000E+03 0.  0.
    8880022    1    1    2    0    0 -0.12811255567E+03  0.37416353480E+03  0.72206946668E+03  0.83736918108E+03  0.15294330000E+03 0.  0.
<mgrwt>
<rscale>  0 0.66218626E+03</rscale>
<asrwt>0</asrwt>
<pdfrwt beam="1">  1        2 0.17779926E+00 0.76825867E+03</pdfrwt>
<pdfrwt beam="2">  1       -2 0.69247606E-01 0.76825867E+03</pdfrwt>
<totfact> 0.38945287E+01</totfact>
</mgrwt>
</event>
<event>
 4    1  0.3057048E-007  0.6624089E+03  0.7818608E-02  0.1021814E+00
         -2   -1    0    0    0  501 -0.00000000000E+00  0.00000000000E+00  0.35282540886E+03  0.35282540886E+03  0.25500000000E-02 0.  1.
          2   -1    0    0  501    0  0.00000000000E+00 -0.00000000000E+00 -0.56172182022E+03  0.56172182023E+03  0.25500000000E-02 0. -1.
    8880023    1    1    2    0    0 -0.18924748901E+02  0.67949619083E+02 -0.21741234553E+02  0.66276555764E+03  0.65864270000E+03 0.  1.
    8880022    1    1    2    0    0  0.18924748901E+02 -0.67949619083E+02 -0.18715517681E+03  0.25178167145E+03  0.15294330000E+03 0.  0.
<mgrwt>
<rscale>  0 0.47037711E+03</rscale>
<asrwt>0</asrwt>
<pdfrwt beam="1">  1        2 0.86418741E-01 0.66240886E+03</pdfrwt>
<pdfrwt beam="2">  1       -2 0.54280832E-01 0.66240886E+03</pdfrwt>
<totfact> 0.17397918E+02</totfact>
</mgrwt>
</event>
<event>
 4    1  0.3057048E-007  0.7870411E+03  0.7818608E-02  0.9739550E-01
         -2   -1    0    0    0  501 -0.00000000000E+00  0.00000000000E+00  0.76389068137E+03  0.76389068137E+03  0.25500000000E-02 0.  1.
          2   -1    0    0  501    0  0.00000000000E+00 -0.00000000000E+00 -0.90398571095E+03  0.90398571095E+03  0.25500000000E-02 0. -1.
    8880023    1    1    2    0    0 -0.43083312686E+03  0.25249072656E+01 -0.62234016075E+03  0.10033648590E+04  0.65864270000E+03 0. -1.
    8880022    1    1    2    0    0  0.43083312686E+03 -0.25249072656E+01  0.48224513117E+03  0.66451153331E+03  0.15294330000E+03 0.  0.
<mgrwt>
<rscale>  0 0.68710058E+03</rscale>
<asrwt>0</asrwt>
<pdfrwt beam="1">  1        2 0.13907472E+00 0.78704115E+03</pdfrwt>
<pdfrwt beam="2">  1       -2 0.11752164E+00 0.78704115E+03</pdfrwt>
<totfact> 0.16486579E+01</totfact>
</mgrwt>
</event>
<event>
 4    1  0.3057048E-007  0.7632567E+03  0.7818608E-02  0.9796748E-01
         -2   -1    0    0    0  501 -0.00000000000E+00  0.00000000000E+00  0.23935845947E+04  0.23935845947E+04  0.25500000000E-02 0.  1.
          2   -1    0    0  501    0  0.00000000000E+00 -0.00000000000E+00 -0.19828755228E+03  0.19828755229E+03  0.25500000000E-02 0. -1.
    8880023    1    1    2    0    0  0.26729951104E+03 -0.27803156473E+03  0.68481119860E+03  0.10254399854E+04  0.65864270000E+03 0.  0.
    8880022    1    1    2    0    0 -0.26729951104E+03  0.27803156473E+03  0.15104858438E+04  0.15664321616E+04  0.15294330000E+03 0.  1.
<mgrwt>
<rscale>  0 0.65537353E+03</rscale>
<asrwt>0</asrwt>
<pdfrwt beam="1">  1        2 0.30505777E-01 0.76325670E+03</pdfrwt>
<pdfrwt beam="2">  1       -2 0.36824378E+00 0.76325670E+03</pdfrwt>
<totfact> 0.21909891E+00</totfact>
</mgrwt>
</event>
<event>
 4    1  0.3057048E-007  0.1715496E+04  0.7818608E-02  0.8770780E-01
          2   -1    0    0  501    0  0.00000000000E+00  0.00000000000E+00  0.19944698719E+04  0.19944698719E+04  0.25500000000E-02 0. -1.
         -2   -1    0    0    0  501 -0.00000000000E+00 -0.00000000000E+00 -0.24434663115E+04  0.24434663115E+04  0.25500000000E-02 0.  1.
    8880023    1    1    2    0    0 -0.16960534396E+02 -0.15839278226E+04 -0.16989095815E+04  0.24143775552E+04  0.65864270000E+03 0.  0.
    8880022    1    1    2    0    0  0.16960534396E+02  0.15839278226E+04  0.12499131419E+04  0.20235586283E+04  0.15294330000E+03 0.  0.
<mgrwt>
<rscale>  0 0.16835888E+04</rscale>
<asrwt>0</asrwt>
<pdfrwt beam="1">  1        2 0.30684152E+00 0.17154956E+04</pdfrwt>
<pdfrwt beam="2">  1       -2 0.37591789E+00 0.17154956E+04</pdfrwt>
<totfact> 0.65487117E-02</totfact>
</mgrwt>
</event>
<event>
 4    1  0.3057048E-007  0.6701462E+03  0.7818608E-02  0.1015558E+00
         -2   -1    0    0    0  501 -0.00000000000E+00  0.00000000000E+00  0.81151551055E+03  0.81151551055E+03  0.25500000000E-02 0.  1.
          2   -1    0    0  501    0  0.00000000000E+00 -0.00000000000E+00 -0.84808407538E+03  0.84808407538E+03  0.25500000000E-02 0. -1.
    8880023    1    1    2    0    0  0.47634548771E+02  0.11409082034E+03  0.65712452829E+03  0.93856732176E+03  0.65864270000E+03 0.  1.
    8880022    1    1    2    0    0 -0.47634548771E+02 -0.11409082034E+03 -0.69369309312E+03  0.72103226417E+03  0.15294330000E+03 0.  0.
<mgrwt>
<rscale>  0 0.49324123E+03</rscale>
<asrwt>0</asrwt>
<pdfrwt beam="1">  1        2 0.13047447E+00 0.67014623E+03</pdfrwt>
<pdfrwt beam="2">  1       -2 0.12484854E+00 0.67014623E+03</pdfrwt>
<totfact> 0.15684548E+01</totfact>
</mgrwt>
</event>
<event>
 4    1  0.3057048E-007  0.7417785E+03  0.7818608E-02  0.9854796E-01
          2   -1    0    0  501    0  0.00000000000E+00  0.00000000000E+00  0.13712616708E+04  0.13712616708E+04  0.25500000000E-02 0. -1.
         -2   -1    0    0    0  501 -0.00000000000E+00 -0.00000000000E+00 -0.27479664057E+03  0.27479664058E+03  0.25500000000E-02 0.  1.
    8880023    1    1    2    0    0  0.33540606050E+03 -0.62672777404E+02  0.36983382800E+03  0.82886209290E+03  0.65864270000E+03 0.  1.
    8880022    1    1    2    0    0 -0.33540606050E+03  0.62672777404E+02  0.72663120226E+03  0.81719621852E+03  0.15294330000E+03 0.  1.
<mgrwt>
<rscale>  0 0.62502958E+03</rscale>
<asrwt>0</asrwt>
<pdfrwt beam="1">  1        2 0.21096333E+00 0.74177848E+03</pdfrwt>
<pdfrwt beam="2">  1       -2 0.42276406E-01 0.74177848E+03</pdfrwt>
<totfact> 0.81200512E+01</totfact>
</mgrwt>
</event>
<event>
 4    1  0.3057048E-007  0.7911625E+03  0.7818608E-02  0.9730241E-01
         -2   -1    0    0    0  501 -0.00000000000E+00  0.00000000000E+00  0.36819557029E+03  0.36819557030E+03  0.25500000000E-02 0.  1.
          2   -1    0    0  501    0  0.00000000000E+00 -0.00000000000E+00 -0.23294645982E+04  0.23294645982E+04  0.25500000000E-02 0. -1.
    8880023    1    1    2    0    0  0.41518089140E+03  0.14054449534E+03 -0.12176307990E+03  0.80047759597E+03  0.65864270000E+03 0.  1.
    8880022    1    1    2    0    0 -0.41518089140E+03 -0.14054449534E+03 -0.18395059480E+04  0.18971825725E+04  0.15294330000E+03 0.  1.
<mgrwt>
<rscale>  0 0.69244474E+03</rscale>
<asrwt>0</asrwt>
<pdfrwt beam="1">  1        2 0.35837916E+00 0.79116252E+03</pdfrwt>
<pdfrwt beam="2">  1       -2 0.56645473E-01 0.79116252E+03</pdfrwt>
<totfact> 0.13219346E+01</totfact>
</mgrwt>
</event>
<event>
 4    1  0.3057048E-007  0.6971703E+03  0.7818608E-02  0.1000915E+00
          2   -1    0    0  501    0  0.00000000000E+00  0.00000000000E+00  0.95003783853E+03  0.95003783853E+03  0.25500000000E-02 0. -1.
         -2   -1    0    0    0  501 -0.00000000000E+00 -0.00000000000E+00 -0.42097164584E+03  0.42097164585E+03  0.25500000000E-02 0.  1.
    8880023    1    1    2    0    0  0.12340094795E+03  0.19237565255E+03 -0.80965441547E+02  0.70185596431E+03  0.65864270000E+03 0.  1.
    8880022    1    1    2    0    0 -0.12340094795E+03 -0.19237565255E+03  0.61003163423E+03  0.66915352008E+03  0.15294330000E+03 0.  0.
<mgrwt>
<rscale>  0 0.55250900E+03</rscale>
<asrwt>0</asrwt>
<pdfrwt beam="1">  1        2 0.14615967E+00 0.69717027E+03</pdfrwt>
<pdfrwt beam="2">  1       -2 0.64764869E-01 0.69717027E+03</pdfrwt>
<totfact> 0.60876740E+01</totfact>
</mgrwt>
</event>
<event>
 4    1  0.3057048E-007  0.8462921E+03  0.7818608E-02  0.9618428E-01
         -2   -1    0    0    0  501 -0.00000000000E+00  0.00000000000E+00  0.21267489179E+03  0.21267489180E+03  0.25500000000E-02 0.  1.
          2   -1    0    0  501    0  0.00000000000E+00 -0.00000000000E+00 -0.27195020368E+04  0.27195020368E+04  0.25500000000E-02 0. -1.
    8880023    1    1    2    0    0  0.51294567931E+03  0.13887678846E+03 -0.91184824023E+03  0.12440568523E+04  0.65864270000E+03 0.  0.
    8880022    1    1    2    0    0 -0.51294567931E+03 -0.13887678846E+03 -0.15949789048E+04  0.16881200763E+04  0.15294330000E+03 0.  0.
<mgrwt>
<rscale>  0 0.76088392E+03</rscale>
<asrwt>0</asrwt>
<pdfrwt beam="1">  1        2 0.41838490E+00 0.84629205E+03</pdfrwt>
<pdfrwt beam="2">  1       -2 0.32719216E-01 0.84629205E+03</pdfrwt>
<totfact> 0.23321110E+01</totfact>
</mgrwt>
</event>
<event>
 4    1  0.3057048E-007  0.6731464E+03  0.7818608E-02  0.1013501E+00
          2   -1    0    0  501    0  0.00000000000E+00  0.00000000000E+00  0.30340347604E+04  0.30340347604E+04  0.25500000000E-02 0. -1.
         -2   -1    0    0    0  501 -0.00000000000E+00 -0.00000000000E+00 -0.12997847381E+03  0.12997847384E+03  0.25500000000E-02 0.  1.
    8880023    1    1    2    0    0  0.76417310790E+02 -0.11608744062E+03  0.78158278958E+03  0.10315026721E+04  0.65864270000E+03 0.  1.
    8880022    1    1    2    0    0 -0.76417310790E+02  0.11608744062E+03  0.21224734970E+04  0.21325105622E+04  0.15294330000E+03 0.  0.
<mgrwt>
<rscale>  0 0.50106635E+03</rscale>
<asrwt>0</asrwt>
<pdfrwt beam="1">  1        2 0.46677458E+00 0.67314642E+03</pdfrwt>
<pdfrwt beam="2">  1       -2 0.19996688E-01 0.67314642E+03</pdfrwt>
<totfact> 0.37880892E+01</totfact>
</mgrwt>
</event>
<event>
 4    1  0.3057048E-007  0.8425568E+03  0.7818608E-02  0.9625378E-01
          2   -1    0    0  501    0  0.00000000000E+00  0.00000000000E+00  0.10857553830E+04  0.10857553830E+04  0.25500000000E-02 0. -1.
         -2   -1    0    0    0  501 -0.00000000000E+00 -0.00000000000E+00 -0.69749032774E+03  0.69749032774E+03  0.25500000000E-02 0.  1.
    8880023    1    1    2    0    0 -0.41636929752E+03 -0.32051276985E+03 -0.30850342786E+03  0.89726049663E+03  0.65864270000E+03 0.  1.
    8880022    1    1    2    0    0  0.41636929752E+03  0.32051276985E+03  0.69676848314E+03  0.88598521413E+03  0.15294330000E+03 0.  0.
<mgrwt>
<rscale>  0 0.75639041E+03</rscale>
<asrwt>0</asrwt>
<pdfrwt beam="1">  1        2 0.16703929E+00 0.84255684E+03</pdfrwt>
<pdfrwt beam="2">  1       -2 0.10730620E+00 0.84255684E+03</pdfrwt>
<totfact> 0.15632331E+01</totfact>
</mgrwt>
</event>
<event>
 4    1  0.3057048E-007  0.6986920E+03  0.7818608E-02  0.1000267E+00
         -2   -1    0    0    0  501 -0.00000000000E+00  0.00000000000E+00  0.13196642410E+04  0.13196642410E+04  0.25500000000E-02 0.  1.
          2   -1    0    0  501    0  0.00000000000E+00 -0.00000000000E+00 -0.34948901787E+03  0.34948901788E+03  0.25500000000E-02 0. -1.
    8880023    1    1    2    0    0 -0.23353823370E+02 -0.23198036535E+03  0.11440596962E+04  0.13405383567E+04  0.65864270000E+03 0.  1.
    8880022    1    1    2    0    0  0.23353823370E+02  0.23198036535E+03 -0.17388447306E+03  0.32861490222E+03  0.15294330000E+03 0.  0.
<mgrwt>
<rscale>  0 0.55533268E+03</rscale>
<asrwt>0</asrwt>
<pdfrwt beam="1">  1        2 0.53767542E-01 0.69869199E+03</pdfrwt>
<pdfrwt beam="2">  1       -2 0.20302526E+00 0.69869199E+03</pdfrwt>
<totfact> 0.12041970E+01</totfact>
</mgrwt>
</event>
<event>
 4    1  0.3057048E-007  0.8455303E+03  0.7818608E-02  0.9619839E-01
          2   -1    0    0  501    0  0.00000000000E+00  0.00000000000E+00  0.24133498057E+04  0.24133498057E+04  0.25500000000E-02 0. -1.
         -2   -1    0    0    0  501 -0.00000000000E+00 -0.00000000000E+00 -0.30639901411E+03  0.30639901412E+03  0.25500000000E-02 0.  1.
    8880023    1    1    2    0    0 -0.52858008317E+03  0.41405047416E+02  0.41853730921E+03  0.94344844466E+03  0.65864270000E+03 0.  0.
    8880022    1    1    2    0    0  0.52858008317E+03 -0.41405047416E+02  0.16884134824E+04  0.17763003752E+04  0.15294330000E+03 0.  0.
<mgrwt>
<rscale>  0 0.75996889E+03</rscale>
<asrwt>0</asrwt>
<pdfrwt beam="1">  1        2 0.37128458E+00 0.84553030E+03</pdfrwt>
<pdfrwt beam="2">  1       -2 0.47138311E-01 0.84553030E+03</pdfrwt>
<totfact> 0.17161530E+01</totfact>
</mgrwt>
</event>
<event>
 4    1  0.3057048E-007  0.8015664E+03  0.7818608E-02  0.9707419E-01
         -2   -1    0    0    0  501 -0.00000000000E+00  0.00000000000E+00  0.14214499087E+04  0.14214499087E+04  0.25500000000E-02 0.  1.
          2   -1    0    0  501    0  0.00000000000E+00 -0.00000000000E+00 -0.83394422131E+03  0.83394422131E+03  0.25500000000E-02 0. -1.
    8880023    1    1    2    0    0  0.45867257149E+02  0.45452695865E+03  0.12203426585E+04  0.14600496471E+04  0.65864270000E+03 0.  0.
    8880022    1    1    2    0    0 -0.45867257149E+02 -0.45452695865E+03 -0.63283697116E+03  0.79534448291E+03  0.15294330000E+03 0.  0.
<mgrwt>
<rscale>  0 0.70576765E+03</rscale>
<asrwt>0</asrwt>
<pdfrwt beam="1">  1        2 0.12829911E+00 0.80156645E+03</pdfrwt>
<pdfrwt beam="2">  1       -2 0.21868460E+00 0.80156645E+03</pdfrwt>
<totfact> 0.33414147E+00</totfact>
</mgrwt>
</event>
<event>
 4    1  0.3057048E-007  0.7218008E+03  0.7818608E-02  0.9916539E-01
         -2   -1    0    0    0  501 -0.00000000000E+00  0.00000000000E+00  0.11641153131E+03  0.11641153134E+03  0.25500000000E-02 0.  1.
          2   -1    0    0  501    0  0.00000000000E+00 -0.00000000000E+00 -0.31627370472E+04  0.31627370472E+04  0.25500000000E-02 0. -1.
    8880023    1    1    2    0    0  0.69105550977E+00 -0.29527238769E+03 -0.11786754964E+04  0.13821260408E+04  0.65864270000E+03 0.  1.
    8880022    1    1    2    0    0 -0.69105550977E+00  0.29527238769E+03 -0.18676500195E+04  0.18970225378E+04  0.15294330000E+03 0.  0.
<mgrwt>
<rscale>  0 0.59466392E+03</rscale>
<asrwt>0</asrwt>
<pdfrwt beam="1">  1        2 0.48657486E+00 0.72180085E+03</pdfrwt>
<pdfrwt beam="2">  1       -2 0.17909469E-01 0.72180085E+03</pdfrwt>
<totfact> 0.37835810E+01</totfact>
</mgrwt>
</event>
<event>
 4    1  0.3057048E-007  0.7155568E+03  0.7818608E-02  0.9937917E-01
          2   -1    0    0  501    0  0.00000000000E+00  0.00000000000E+00  0.46824875175E+03  0.46824875176E+03  0.25500000000E-02 0. -1.
         -2   -1    0    0    0  501 -0.00000000000E+00 -0.00000000000E+00 -0.89985819673E+03  0.89985819673E+03  0.25500000000E-02 0.  1.
    8880023    1    1    2    0    0  0.27103272661E+03  0.68939065425E+02 -0.66199523156E+03  0.97481240580E+03  0.65864270000E+03 0.  1.
    8880022    1    1    2    0    0 -0.27103272661E+03 -0.68939065425E+02  0.23038578658E+03  0.39329454269E+03  0.15294330000E+03 0.  0.
<mgrwt>
<rscale>  0 0.58458329E+03</rscale>
<asrwt>0</asrwt>
<pdfrwt beam="1">  1        2 0.72038270E-01 0.71555680E+03</pdfrwt>
<pdfrwt beam="2">  1       -2 0.13843972E+00 0.71555680E+03</pdfrwt>
<totfact> 0.24950938E+01</totfact>
</mgrwt>
</event>
<event>
 4    1  0.3057048E-007  0.6674629E+03  0.7818608E-02  0.1017551E+00
         -2   -1    0    0    0  501 -0.00000000000E+00  0.00000000000E+00  0.99751488764E+02  0.99751488797E+02  0.25500000000E-02 0.  1.
          2   -1    0    0  501    0  0.00000000000E+00 -0.00000000000E+00 -0.27192908794E+04  0.27192908794E+04  0.25500000000E-02 0. -1.
    8880023    1    1    2    0    0  0.88303094563E+02  0.62442628907E+02 -0.10903633014E+04  0.12784360968E+04  0.65864270000E+03 0.  1.
    8880022    1    1    2    0    0 -0.88303094563E+02 -0.62442628907E+02 -0.15291760892E+04  0.15406062713E+04  0.15294330000E+03 0.  0.
<mgrwt>
<rscale>  0 0.48580887E+03</rscale>
<asrwt>0</asrwt>
<pdfrwt beam="1">  1        2 0.41835239E+00 0.66746290E+03</pdfrwt>
<pdfrwt beam="2">  1       -2 0.15346385E-01 0.66746290E+03</pdfrwt>
<totfact> 0.92097264E+01</totfact>
</mgrwt>
</event>
<event>
 4    1  0.3057048E-007  0.6769157E+03  0.7818608E-02  0.1011125E+00
          2   -1    0    0  501    0  0.00000000000E+00  0.00000000000E+00  0.16069917526E+04  0.16069917527E+04  0.25500000000E-02 0. -1.
         -2   -1    0    0    0  501 -0.00000000000E+00 -0.00000000000E+00 -0.34690729139E+03  0.34690729140E+03  0.25500000000E-02 0.  1.
    8880023    1    1    2    0    0 -0.18925523760E+02 -0.15506939382E+03  0.19577499957E+01  0.67691855596E+03  0.65864270000E+03 0.  1.
    8880022    1    1    2    0    0  0.18925523760E+02  0.15506939382E+03  0.12581267113E+04  0.12769804881E+04  0.15294330000E+03 0.  0.
<mgrwt>
<rscale>  0 0.51029967E+03</rscale>
<asrwt>0</asrwt>
<pdfrwt beam="1">  1        2 0.24722950E+00 0.67691572E+03</pdfrwt>
<pdfrwt beam="2">  1       -2 0.53370352E-01 0.67691572E+03</pdfrwt>
<totfact> 0.37796538E+01</totfact>
</mgrwt>
</event>
<event>
 4    1  0.3057048E-007  0.7679833E+03  0.7818608E-02  0.9784861E-01
         -2   -1    0    0    0  501 -0.00000000000E+00  0.00000000000E+00  0.84647688266E+03  0.84647688266E+03  0.25500000000E-02 0.  1.
          2   -1    0    0  501    0  0.00000000000E+00 -0.00000000000E+00 -0.57137133397E+03  0.57137133398E+03  0.25500000000E-02 0. -1.
    8880023    1    1    2    0    0  0.38186683094E+03 -0.10082598546E+03  0.52107502445E+03  0.92807194941E+03  0.65864270000E+03 0.  1.
    8880022    1    1    2    0    0 -0.38186683094E+03  0.10082598546E+03 -0.24596947576E+03  0.48977626723E+03  0.15294330000E+03 0.  1.
<mgrwt>
<rscale>  0 0.66181336E+03</rscale>
<asrwt>0</asrwt>
<pdfrwt beam="1">  1        2 0.87903282E-01 0.76798331E+03</pdfrwt>
<pdfrwt beam="2">  1       -2 0.13022721E+00 0.76798331E+03</pdfrwt>
<totfact> 0.23008301E+01</totfact>
</mgrwt>
</event>
<event>
 4    1  0.3057048E-007  0.6983840E+03  0.7818608E-02  0.1000397E+00
         -2   -1    0    0    0  501 -0.00000000000E+00  0.00000000000E+00  0.66750003456E+03  0.66750003456E+03  0.25500000000E-02 0.  1.
          2   -1    0    0  501    0  0.00000000000E+00 -0.00000000000E+00 -0.58092713593E+03  0.58092713593E+03  0.25500000000E-02 0. -1.
    8880023    1    1    2    0    0  0.13913364123E+03 -0.18593504639E+03  0.41946894916E+03  0.81467442403E+03  0.65864270000E+03 0.  0.
    8880022    1    1    2    0    0 -0.13913364123E+03  0.18593504639E+03 -0.33289605053E+03  0.43375274647E+03  0.15294330000E+03 0.  0.
<mgrwt>
<rscale>  0 0.55476412E+03</rscale>
<asrwt>0</asrwt>
<pdfrwt beam="1">  1        2 0.89373405E-01 0.69838400E+03</pdfrwt>
<pdfrwt beam="2">  1       -2 0.10269231E+00 0.69838400E+03</pdfrwt>
<totfact> 0.40637365E+01</totfact>
</mgrwt>
</event>
<event>
 4    1  0.3057048E-007  0.7049234E+03  0.7818608E-02  0.9977359E-01
          2   -1    0    0  501    0  0.00000000000E+00  0.00000000000E+00  0.17638336150E+04  0.17638336150E+04  0.25500000000E-02 0. -1.
         -2   -1    0    0    0  501 -0.00000000000E+00 -0.00000000000E+00 -0.26677240915E+03  0.26677240917E+03  0.25500000000E-02 0.  1.
    8880023    1    1    2    0    0 -0.14761680458E+03 -0.20326352057E+03  0.24782731441E+03  0.74721841775E+03  0.65864270000E+03 0.  1.
    8880022    1    1    2    0    0  0.14761680458E+03  0.20326352057E+03  0.12492338914E+04  0.12833876064E+04  0.15294330000E+03 0.  0.
<mgrwt>
<rscale>  0 0.56654247E+03</rscale>
<asrwt>0</asrwt>
<pdfrwt beam="1">  1        2 0.27135902E+00 0.70492339E+03</pdfrwt>
<pdfrwt beam="2">  1       -2 0.41041908E-01 0.70492339E+03</pdfrwt>
<totfact> 0.52386711E+01</totfact>
</mgrwt>
</event>
<event>
 4    1  0.3057048E-007  0.8883352E+03  0.7818608E-02  0.9545023E-01
         -2   -1    0    0    0  501 -0.00000000000E+00  0.00000000000E+00  0.19812899314E+04  0.19812899314E+04  0.25500000000E-02 0.  1.
          2   -1    0    0  501    0  0.00000000000E+00 -0.00000000000E+00 -0.36571744097E+03  0.36571744098E+03  0.25500000000E-02 0. -1.
    8880023    1    1    2    0    0  0.58449732015E+03 -0.11701321419E+03  0.37908206997E+03  0.96583778741E+03  0.65864270000E+03 0.  0.
    8880022    1    1    2    0    0 -0.58449732015E+03  0.11701321419E+03  0.12364904204E+04  0.13811695850E+04  0.15294330000E+03 0.  0.
<mgrwt>
<rscale>  0 0.81044315E+03</rscale>
<asrwt>0</asrwt>
<pdfrwt beam="1">  1        2 0.56264221E-01 0.88833519E+03</pdfrwt>
<pdfrwt beam="2">  1       -2 0.30481384E+00 0.88833519E+03</pdfrwt>
<totfact> 0.26709253E+00</totfact>
</mgrwt>
</event>
<event>
 4    1  0.3057048E-007  0.7272983E+03  0.7818608E-02  0.9898623E-01
         -2   -1    0    0    0  501 -0.00000000000E+00  0.00000000000E+00  0.37868934795E+03  0.37868934796E+03  0.25500000000E-02 0.  1.
          2   -1    0    0  501    0  0.00000000000E+00 -0.00000000000E+00 -0.18427069369E+04  0.18427069369E+04  0.25500000000E-02 0. -1.
    8880023    1    1    2    0    0 -0.60360578191E+02 -0.30250486090E+03 -0.10205132914E+02  0.72736987927E+03  0.65864270000E+03 0.  1.
    8880022    1    1    2    0    0  0.60360578191E+02  0.30250486090E+03 -0.14538124560E+04  0.14940264056E+04  0.15294330000E+03 0.  0.
<mgrwt>
<rscale>  0 0.60328077E+03</rscale>
<asrwt>0</asrwt>
<pdfrwt beam="1">  1        2 0.28349337E+00 0.72729829E+03</pdfrwt>
<pdfrwt beam="2">  1       -2 0.58259901E-01 0.72729829E+03</pdfrwt>
<totfact> 0.23268132E+01</totfact>
</mgrwt>
</event>
<event>
 4    1  0.3057048E-007  0.8132300E+03  0.7818608E-02  0.9682888E-01
         -2   -1    0    0    0  501 -0.00000000000E+00  0.00000000000E+00  0.27025300678E+03  0.27025300679E+03  0.25500000000E-02 0.  1.
          2   -1    0    0  501    0  0.00000000000E+00 -0.00000000000E+00 -0.44732555088E+04  0.44732555088E+04  0.25500000000E-02 0. -1.
    8880023    1    1    2    0    0 -0.16831842341E+03 -0.44632020031E+03 -0.39750031516E+03  0.90517927488E+03  0.65864270000E+03 0.  0.
    8880022    1    1    2    0    0  0.16831842341E+03  0.44632020031E+03 -0.38055021869E+04  0.38383292407E+04  0.15294330000E+03 0.  0.
<mgrwt>
<rscale>  0 0.72044846E+03</rscale>
<asrwt>0</asrwt>
<pdfrwt beam="1">  1        2 0.68819310E+00 0.81322999E+03</pdfrwt>
<pdfrwt beam="2">  1       -2 0.41577389E-01 0.81322999E+03</pdfrwt>
<totfact> 0.80230014E-01</totfact>
</mgrwt>
</event>
<event>
 4    1  0.3057048E-007  0.7409022E+03  0.7818608E-02  0.9857327E-01
          2   -1    0    0  501    0  0.00000000000E+00  0.00000000000E+00  0.15709054653E+04  0.15709054653E+04  0.25500000000E-02 0. -1.
         -2   -1    0    0    0  501 -0.00000000000E+00 -0.00000000000E+00 -0.20004701864E+03  0.20004701866E+03  0.25500000000E-02 0.  1.
    8880023    1    1    2    0    0  0.88643237386E+02  0.32751833506E+03  0.10094803793E+04  0.12521927670E+04  0.65864270000E+03 0.  0.
    8880022    1    1    2    0    0 -0.88643237386E+02 -0.32751833506E+03  0.36137806738E+03  0.51875971695E+03  0.15294330000E+03 0. -1.
<mgrwt>
<rscale>  0 0.62374742E+03</rscale>
<asrwt>0</asrwt>
<pdfrwt beam="1">  1        2 0.24167777E+00 0.74090221E+03</pdfrwt>
<pdfrwt beam="2">  1       -2 0.30776464E-01 0.74090221E+03</pdfrwt>
<totfact> 0.11533594E+02</totfact>
</mgrwt>
</event>
<event>
 4    1  0.3057048E-007  0.6849125E+03  0.7818608E-02  0.1006671E+00
          2   -1    0    0  501    0  0.00000000000E+00  0.00000000000E+00  0.18721252982E+04  0.18721252982E+04  0.25500000000E-02 0. -1.
         -2   -1    0    0    0  501 -0.00000000000E+00 -0.00000000000E+00 -0.11512590894E+03  0.11512590896E+03  0.25500000000E-02 0.  1.
    8880023    1    1    2    0    0 -0.77982259339E+02 -0.17091999651E+03  0.12498255940E+04  0.14251908994E+04  0.65864270000E+03 0.  1.
    8880022    1    1    2    0    0  0.77982259339E+02  0.17091999651E+03  0.50717379524E+03  0.56206030777E+03  0.15294330000E+03 0. -1.
<mgrwt>
<rscale>  0 0.52819417E+03</rscale>
<asrwt>0</asrwt>
<pdfrwt beam="1">  1        2 0.28801925E+00 0.68491246E+03</pdfrwt>
<pdfrwt beam="2">  1       -2 0.17711680E-01 0.68491246E+03</pdfrwt>
<totfact> 0.21308052E+02</totfact>
</mgrwt>
</event>
<event>
 4    1  0.3057048E-007  0.6760669E+03  0.7818608E-02  0.1011642E+00
          2   -1    0    0  501    0  0.00000000000E+00  0.00000000000E+00  0.13650985348E+04  0.13650985348E+04  0.25500000000E-02 0. -1.
         -2   -1    0    0    0  501 -0.00000000000E+00 -0.00000000000E+00 -0.25268805148E+03  0.25268805149E+03  0.25500000000E-02 0.  1.
    8880023    1    1    2    0    0  0.13869197505E+03  0.63409166709E+02  0.23743488853E+03  0.71654847632E+03  0.65864270000E+03 0.  1.
    8880022    1    1    2    0    0 -0.13869197505E+03 -0.63409166709E+02  0.87497559484E+03  0.90123811001E+03  0.15294330000E+03 0.  0.
<mgrwt>
<rscale>  0 0.50827199E+03</rscale>
<asrwt>0</asrwt>
<pdfrwt beam="1">  1        2 0.21001516E+00 0.67606686E+03</pdfrwt>
<pdfrwt beam="2">  1       -2 0.38875085E-01 0.67606686E+03</pdfrwt>
<totfact> 0.97027415E+01</totfact>
</mgrwt>
</event>
<event>
 4    1  0.3057048E-007  0.7544490E+03  0.7818608E-02  0.9819696E-01
         -2   -1    0    0    0  501 -0.00000000000E+00  0.00000000000E+00  0.37276421876E+03  0.37276421877E+03  0.25500000000E-02 0.  1.
          2   -1    0    0  501    0  0.00000000000E+00 -0.00000000000E+00 -0.13105251548E+04  0.13105251549E+04  0.25500000000E-02 0. -1.
    8880023    1    1    2    0    0  0.28309139405E+03 -0.23503699066E+03 -0.10711577746E+03  0.76201517072E+03  0.65864270000E+03 0.  1.
    8880022    1    1    2    0    0 -0.28309139405E+03  0.23503699066E+03 -0.83064515863E+03  0.92127420290E+03  0.15294330000E+03 0.  0.
<mgrwt>
<rscale>  0 0.64316161E+03</rscale>
<asrwt>0</asrwt>
<pdfrwt beam="1">  1        2 0.20161925E+00 0.75444902E+03</pdfrwt>
<pdfrwt beam="2">  1       -2 0.57348342E-01 0.75444902E+03</pdfrwt>
<totfact> 0.47307226E+01</totfact>
</mgrwt>
</event>
<event>
 4    1  0.3057048E-007  0.9897343E+03  0.7818608E-02  0.9395113E-01
         -2   -1    0    0    0  501 -0.00000000000E+00  0.00000000000E+00  0.34274552582E+03  0.34274552583E+03  0.25500000000E-02 0.  1.
          2   -1    0    0  501    0  0.00000000000E+00 -0.00000000000E+00 -0.33688035508E+04  0.33688035508E+04  0.25500000000E-02 0. -1.
    8880023    1    1    2    0    0  0.67117208137E+02  0.73570316994E+03 -0.27251781847E+04  0.28993396177E+04  0.65864270000E+03 0. -1.
    8880022    1    1    2    0    0 -0.67117208137E+02 -0.73570316994E+03 -0.30087984024E+03  0.81220945892E+03  0.15294330000E+03 0.  0.
<mgrwt>
<rscale>  0 0.92478942E+03</rscale>
<asrwt>0</asrwt>
<pdfrwt beam="1">  1        2 0.51827745E+00 0.98973435E+03</pdfrwt>
<pdfrwt beam="2">  1       -2 0.52730083E-01 0.98973435E+03</pdfrwt>
<totfact> 0.35149143E+00</totfact>
</mgrwt>
</event>
<event>
 4    1  0.3057048E-007  0.6624887E+03  0.7818608E-02  0.1021740E+00
         -2   -1    0    0    0  501 -0.00000000000E+00  0.00000000000E+00  0.61613973308E+02  0.61613973361E+02  0.25500000000E-02 0.  1.
          2   -1    0    0  501    0  0.00000000000E+00 -0.00000000000E+00 -0.28817694737E+04  0.28817694737E+04  0.25500000000E-02 0. -1.
    8880023    1    1    2    0    0 -0.43914906082E+02  0.56147044702E+02 -0.20283592029E+04  0.21338069903E+04  0.65864270000E+03 0.  0.
    8880022    1    1    2    0    0  0.43914906082E+02 -0.56147044702E+02 -0.79179629744E+03  0.80957645671E+03  0.15294330000E+03 0.  1.
<mgrwt>
<rscale>  0 0.47063838E+03</rscale>
<asrwt>0</asrwt>
<pdfrwt beam="1">  1        2 0.44334905E+00 0.66248865E+03</pdfrwt>
<pdfrwt beam="2">  1       -2 0.94790751E-02 0.66248865E+03</pdfrwt>
<totfact> 0.16392911E+02</totfact>
</mgrwt>
</event>
<event>
 4    1  0.3057048E-007  0.6860780E+03  0.7818608E-02  0.1006075E+00
         -2   -1    0    0    0  501 -0.00000000000E+00  0.00000000000E+00  0.31785178727E+03  0.31785178728E+03  0.25500000000E-02 0.  1.
          2   -1    0    0  501    0  0.00000000000E+00 -0.00000000000E+00 -0.19571601387E+04  0.19571601387E+04  0.25500000000E-02 0. -1.
    8880023    1    1    2    0    0  0.18577629254E+03 -0.48784944160E+02 -0.73424672436E+02  0.68999579016E+03  0.65864270000E+03 0.  1.
    8880022    1    1    2    0    0 -0.18577629254E+03  0.48784944160E+02 -0.15658836790E+04  0.15850161358E+04  0.15294330000E+03 0.  0.
<mgrwt>
<rscale>  0 0.53064708E+03</rscale>
<asrwt>0</asrwt>
<pdfrwt beam="1">  1        2 0.30110155E+00 0.68607799E+03</pdfrwt>
<pdfrwt beam="2">  1       -2 0.48900276E-01 0.68607799E+03</pdfrwt>
<totfact> 0.29090077E+01</totfact>
</mgrwt>
</event>
<event>
 4    1  0.3057048E-007  0.6897343E+03  0.7818608E-02  0.1004279E+00
         -2   -1    0    0    0  501 -0.00000000000E+00  0.00000000000E+00  0.25463909474E+03  0.25463909475E+03  0.25500000000E-02 0.  1.
          2   -1    0    0  501    0  0.00000000000E+00 -0.00000000000E+00 -0.23117264343E+04  0.23117264343E+04  0.25500000000E-02 0. -1.
    8880023    1    1    2    0    0  0.10004505194E+03 -0.17864530149E+03 -0.23834443144E+03  0.72975436307E+03  0.65864270000E+03 0.  1.
    8880022    1    1    2    0    0 -0.10004505194E+03  0.17864530149E+03 -0.18187429081E+04  0.18366111660E+04  0.15294330000E+03 0.  0.
<mgrwt>
<rscale>  0 0.53813075E+03</rscale>
<asrwt>0</asrwt>
<pdfrwt beam="1">  1        2 0.35565021E+00 0.68973427E+03</pdfrwt>
<pdfrwt beam="2">  1       -2 0.39175247E-01 0.68973427E+03</pdfrwt>
<totfact> 0.28840047E+01</totfact>
</mgrwt>
</event>
<event>
 4    1  0.3057048E-007  0.7805194E+03  0.7818608E-02  0.9754618E-01
          2   -1    0    0  501    0  0.00000000000E+00  0.00000000000E+00  0.14142243972E+04  0.14142243972E+04  0.25500000000E-02 0. -1.
         -2   -1    0    0    0  501 -0.00000000000E+00 -0.00000000000E+00 -0.79122835178E+03  0.79122835178E+03  0.25500000000E-02 0.  1.
    8880023    1    1    2    0    0 -0.40467456841E+03 -0.10788335771E+03 -0.54717960689E+03  0.95321354042E+03  0.65864270000E+03 0.  1.
    8880022    1    1    2    0    0  0.40467456841E+03  0.10788335771E+03  0.11701756523E+04  0.12522392085E+04  0.15294330000E+03 0.  0.
<mgrwt>
<rscale>  0 0.67855903E+03</rscale>
<asrwt>0</asrwt>
<pdfrwt beam="1">  1        2 0.21757298E+00 0.78051940E+03</pdfrwt>
<pdfrwt beam="2">  1       -2 0.12172744E+00 0.78051940E+03</pdfrwt>
<totfact> 0.74175531E+00</totfact>
</mgrwt>
</event>
<event>
 4    1  0.3057048E-007  0.8610139E+03  0.7818608E-02  0.9591762E-01
          2   -1    0    0  501    0  0.00000000000E+00  0.00000000000E+00  0.38848382799E+03  0.38848382800E+03  0.25500000000E-02 0. -1.
         -2   -1    0    0    0  501 -0.00000000000E+00 -0.00000000000E+00 -0.15020843534E+04  0.15020843534E+04  0.25500000000E-02 0.  1.
    8880023    1    1    2    0    0 -0.44352483737E+03  0.33289715767E+03 -0.97126226783E+03  0.12979581650E+04  0.65864270000E+03 0.  1.
    8880022    1    1    2    0    0  0.44352483737E+03 -0.33289715767E+03 -0.14233825759E+03  0.59261001639E+03  0.15294330000E+03 0.  0.
<mgrwt>
<rscale>  0 0.77843808E+03</rscale>
<asrwt>0</asrwt>
<pdfrwt beam="1">  1        2 0.59766744E-01 0.86101394E+03</pdfrwt>
<pdfrwt beam="2">  1       -2 0.23108990E+00 0.86101394E+03</pdfrwt>
<totfact> 0.70007584E+00</totfact>
</mgrwt>
</event>
<event>
 4    1  0.3057048E-007  0.1374234E+04  0.7818608E-02  0.9003967E-01
          2   -1    0    0  501    0  0.00000000000E+00  0.00000000000E+00  0.11841575703E+04  0.11841575703E+04  0.25500000000E-02 0. -1.
         -2   -1    0    0    0  501 -0.00000000000E+00 -0.00000000000E+00 -0.16340669580E+04  0.16340669580E+04  0.25500000000E-02 0.  1.
    8880023    1    1    2    0    0 -0.72037898600E+02 -0.12039597265E+04  0.27677869177E+03  0.14018292094E+04  0.65864270000E+03 0.  0.
    8880022    1    1    2    0    0  0.72037898600E+02  0.12039597265E+04 -0.72668807948E+03  0.14163953190E+04  0.15294330000E+03 0.  0.
<mgrwt>
<rscale>  0 0.13327800E+04</rscale>
<asrwt>0</asrwt>
<pdfrwt beam="1">  1        2 0.18217809E+00 0.13742339E+04</pdfrwt>
<pdfrwt beam="2">  1       -2 0.25139492E+00 0.13742339E+04</pdfrwt>
<totfact> 0.11653762E+00</totfact>
</mgrwt>
</event>
<event>
 4    1  0.3057048E-007  0.6694021E+03  0.7818608E-02  0.1016095E+00
          2   -1    0    0  501    0  0.00000000000E+00  0.00000000000E+00  0.42669068392E+03  0.42669068392E+03  0.25500000000E-02 0. -1.
         -2   -1    0    0    0  501 -0.00000000000E+00 -0.00000000000E+00 -0.11377767943E+04  0.11377767943E+04  0.25500000000E-02 0.  1.
    8880023    1    1    2    0    0 -0.17958501505E+02 -0.11817955403E+03 -0.10078229119E+04  0.12098785653E+04  0.65864270000E+03 0.  1.
    8880022    1    1    2    0    0  0.17958501505E+02  0.11817955403E+03  0.29673680153E+03  0.35458891291E+03  0.15294330000E+03 0.  0.
<mgrwt>
<rscale>  0 0.49122444E+03</rscale>
<asrwt>0</asrwt>
<pdfrwt beam="1">  1        2 0.65644721E-01 0.66940206E+03</pdfrwt>
<pdfrwt beam="2">  1       -2 0.17504258E+00 0.66940206E+03</pdfrwt>
<totfact> 0.14850895E+01</totfact>
</mgrwt>
</event>
<event>
 4    1  0.3057048E-007  0.1470251E+04  0.7818608E-02  0.8930934E-01
         -2   -1    0    0    0  501 -0.00000000000E+00  0.00000000000E+00  0.12162965843E+04  0.12162965843E+04  0.25500000000E-02 0.  1.
          2   -1    0    0  501    0  0.00000000000E+00 -0.00000000000E+00 -0.16824753289E+04  0.16824753289E+04  0.25500000000E-02 0. -1.
    8880023    1    1    2    0    0  0.39908151619E+03  0.12524218891E+04  0.67683225046E+02  0.14718076878E+04  0.65864270000E+03 0.  0.
    8880022    1    1    2    0    0 -0.39908151619E+03 -0.12524218891E+04 -0.53386196968E+03  0.14269642254E+04  0.15294330000E+03 0.  0.
<mgrwt>
<rscale>  0 0.14320595E+04</rscale>
<asrwt>0</asrwt>
<pdfrwt beam="1">  1        2 0.25884236E+00 0.14702506E+04</pdfrwt>
<pdfrwt beam="2">  1       -2 0.18712255E+00 0.14702506E+04</pdfrwt>
<totfact> 0.15352018E+00</totfact>
</mgrwt>
</event>
<event>
 4    1  0.4045083E-007  0.7356162E+03  0.7818608E-02  0.9872906E-01
         -2   -1    0    0    0  501 -0.00000000000E+00  0.00000000000E+00  0.76952951439E+03  0.76952951439E+03  0.25500000000E-02 0.  1.
          2   -1    0    0  501    0  0.00000000000E+00 -0.00000000000E+00 -0.28286860824E+04  0.28286860824E+04  0.25500000000E-02 0. -1.
    8880023    1    1    2    0    0 -0.19644852091E+03 -0.26216207414E+03  0.57853592497E+03  0.93586056505E+03  0.65864270000E+03 0.  1.
    8880022    1    1    2    0    0  0.19644852091E+03  0.26216207414E+03 -0.26376924929E+04  0.26623550317E+04  0.15294330000E+03 0.  0.
<mgrwt>
<rscale>  0 0.61592545E+03</rscale>
<asrwt>0</asrwt>
<pdfrwt beam="1">  1        2 0.43518247E+00 0.73561619E+03</pdfrwt>
<pdfrwt beam="2">  1       -2 0.11838916E+00 0.73561619E+03</pdfrwt>
<totfact> 0.12994292E+00</totfact>
</mgrwt>
</event>
<event>
 4    1  0.3057048E-007  0.9752624E+03  0.7818608E-02  0.9414662E-01
         -2   -1    0    0    0  501 -0.00000000000E+00  0.00000000000E+00  0.29096792148E+03  0.29096792149E+03  0.25500000000E-02 0.  1.
          2   -1    0    0  501    0  0.00000000000E+00 -0.00000000000E+00 -0.34773537934E+04  0.34773537934E+04  0.25500000000E-02 0. -1.
    8880023    1    1    2    0    0  0.15736114025E+03 -0.70182900785E+03 -0.77019499414E+03  0.12427135712E+04  0.65864270000E+03 0.  0.
    8880022    1    1    2    0    0 -0.15736114025E+03  0.70182900785E+03 -0.24161908777E+04  0.25256081437E+04  0.15294330000E+03 0.  0.
<mgrwt>
<rscale>  0 0.90878776E+03</rscale>
<asrwt>0</asrwt>
<pdfrwt beam="1">  1        2 0.53497748E+00 0.97526237E+03</pdfrwt>
<pdfrwt beam="2">  1       -2 0.44764298E-01 0.97526237E+03</pdfrwt>
<totfact> 0.41519157E+00</totfact>
</mgrwt>
</event>
<event>
 4    1  0.3057048E-007  0.7585750E+03  0.7818608E-02  0.9808811E-01
         -2   -1    0    0    0  501 -0.00000000000E+00  0.00000000000E+00  0.66387530079E+03  0.66387530079E+03  0.25500000000E-02 0.  1.
          2   -1    0    0  501    0  0.00000000000E+00 -0.00000000000E+00 -0.14728627911E+04  0.14728627911E+04  0.25500000000E-02 0. -1.
    8880023    1    1    2    0    0  0.37625288820E+03  0.77223803076E+01  0.40265128458E+03  0.85881554147E+03  0.65864270000E+03 0.  0.
    8880022    1    1    2    0    0 -0.37625288820E+03 -0.77223803076E+01 -0.12116387749E+04  0.12779225505E+04  0.15294330000E+03 0.  0.
<mgrwt>
<rscale>  0 0.64891852E+03</rscale>
<asrwt>0</asrwt>
<pdfrwt beam="1">  1        2 0.22659427E+00 0.75857503E+03</pdfrwt>
<pdfrwt beam="2">  1       -2 0.10213466E+00 0.75857503E+03</pdfrwt>
<totfact> 0.10566818E+01</totfact>
</mgrwt>
</event>
<event>
 4    1  0.3057048E-007  0.7173862E+03  0.7818608E-02  0.9931531E-01
          2   -1    0    0  501    0  0.00000000000E+00  0.00000000000E+00  0.95998016818E+03  0.95998016819E+03  0.25500000000E-02 0. -1.
         -2   -1    0    0    0  501 -0.00000000000E+00 -0.00000000000E+00 -0.31723230888E+03  0.31723230889E+03  0.25500000000E-02 0.  1.
    8880023    1    1    2    0    0 -0.26236296614E+03 -0.10953730871E+03  0.23031274633E+03  0.75345000855E+03  0.65864270000E+03 0.  0.
    8880022    1    1    2    0    0  0.26236296614E+03  0.10953730871E+03  0.41243511298E+03  0.52376246852E+03  0.15294330000E+03 0.  0.
<mgrwt>
<rscale>  0 0.58757179E+03</rscale>
<asrwt>0</asrwt>
<pdfrwt beam="1">  1        2 0.14768925E+00 0.71738620E+03</pdfrwt>
<pdfrwt beam="2">  1       -2 0.48804972E-01 0.71738620E+03</pdfrwt>
<totfact> 0.10794877E+02</totfact>
</mgrwt>
</event>
<event>
 4    1  0.3057048E-007  0.6627789E+03  0.7818608E-02  0.1021474E+00
          2   -1    0    0  501    0  0.00000000000E+00  0.00000000000E+00  0.12744114265E+04  0.12744114265E+04  0.25500000000E-02 0. -1.
         -2   -1    0    0    0  501 -0.00000000000E+00 -0.00000000000E+00 -0.24828820004E+03  0.24828820005E+03  0.25500000000E-02 0.  1.
    8880023    1    1    2    0    0  0.73900969268E+02 -0.20800507252E+01  0.21919574797E+03  0.69808499630E+03  0.65864270000E+03 0.  1.
    8880022    1    1    2    0    0 -0.73900969268E+02  0.20800507252E+01  0.80692747845E+03  0.82461463021E+03  0.15294330000E+03 0.  0.
<mgrwt>
<rscale>  0 0.47158343E+03</rscale>
<asrwt>0</asrwt>
<pdfrwt beam="1">  1        2 0.19606329E+00 0.66277891E+03</pdfrwt>
<pdfrwt beam="2">  1       -2 0.38198185E-01 0.66277891E+03</pdfrwt>
<totfact> 0.11325659E+02</totfact>
</mgrwt>
</event>
<event>
 4    1  0.3057048E-007  0.6671457E+03  0.7818608E-02  0.1017797E+00
         -2   -1    0    0    0  501 -0.00000000000E+00  0.00000000000E+00  0.15427344433E+04  0.15427344433E+04  0.25500000000E-02 0.  1.
          2   -1    0    0  501    0  0.00000000000E+00 -0.00000000000E+00 -0.18233952559E+03  0.18233952560E+03  0.25500000000E-02 0. -1.
    8880023    1    1    2    0    0  0.10074735782E+03  0.33513078131E+02  0.13849658313E+04  0.15372747694E+04  0.65864270000E+03 0.  1.
    8880022    1    1    2    0    0 -0.10074735782E+03 -0.33513078131E+02 -0.24570913612E+02  0.18779919948E+03  0.15294330000E+03 0.  0.
<mgrwt>
<rscale>  0 0.48489936E+03</rscale>
<asrwt>0</asrwt>
<pdfrwt beam="1">  1        2 0.28052235E-01 0.66714568E+03</pdfrwt>
<pdfrwt beam="2">  1       -2 0.23734375E+00 0.66714568E+03</pdfrwt>
<totfact> 0.15244402E+01</totfact>
</mgrwt>
</event>
<event>
 4    1  0.3057048E-007  0.7607862E+03  0.7818608E-02  0.9803076E-01
          2   -1    0    0  501    0  0.00000000000E+00  0.00000000000E+00  0.27307181810E+04  0.27307181810E+04  0.25500000000E-02 0. -1.
         -2   -1    0    0    0  501 -0.00000000000E+00 -0.00000000000E+00 -0.21027551601E+03  0.21027551603E+03  0.25500000000E-02 0.  1.
    8880023    1    1    2    0    0  0.37158986114E+03 -0.83104698211E+02  0.23934510663E+04  0.25114544848E+04  0.65864270000E+03 0. -1.
    8880022    1    1    2    0    0 -0.37158986114E+03  0.83104698211E+02  0.12699159869E+03  0.42953921232E+03  0.15294330000E+03 0.  0.
<mgrwt>
<rscale>  0 0.65197709E+03</rscale>
<asrwt>0</asrwt>
<pdfrwt beam="1">  1        2 0.42011047E+00 0.76078619E+03</pdfrwt>
<pdfrwt beam="2">  1       -2 0.32350081E-01 0.76078619E+03</pdfrwt>
<totfact> 0.23758926E+01</totfact>
</mgrwt>
</event>
<event>
 4    1  0.3057048E-007  0.1063556E+04  0.7818608E-02  0.9302759E-01
         -2   -1    0    0    0  501 -0.00000000000E+00  0.00000000000E+00  0.79648096186E+03  0.79648096186E+03  0.25500000000E-02 0.  1.
          2   -1    0    0  501    0  0.00000000000E+00 -0.00000000000E+00 -0.27444908600E+04  0.27444908600E+04  0.25500000000E-02 0. -1.
    8880023    1    1    2    0    0 -0.27508313053E+03  0.78846144607E+03 -0.23664707118E+04  0.25944818398E+04  0.65864270000E+03 0.  0.
    8880022    1    1    2    0    0  0.27508313053E+03 -0.78846144607E+03  0.41846081368E+03  0.94648998211E+03  0.15294330000E+03 0.  0.
<mgrwt>
<rscale>  0 0.10052921E+04</rscale>
<asrwt>0</asrwt>
<pdfrwt beam="1">  1        2 0.42222936E+00 0.10635565E+04</pdfrwt>
<pdfrwt beam="2">  1       -2 0.12253553E+00 0.10635565E+04</pdfrwt>
<totfact> 0.12616430E+00</totfact>
</mgrwt>
</event>
<event>
 4    1  0.3057048E-007  0.6946672E+03  0.7818608E-02  0.1002009E+00
         -2   -1    0    0    0  501 -0.00000000000E+00  0.00000000000E+00  0.59175126682E+03  0.59175126683E+03  0.25500000000E-02 0.  1.
          2   -1    0    0  501    0  0.00000000000E+00 -0.00000000000E+00 -0.20962120352E+04  0.20962120352E+04  0.25500000000E-02 0. -1.
    8880023    1    1    2    0    0  0.13471539264E+03 -0.17494027574E+03  0.37498943396E+03  0.78941726541E+03  0.65864270000E+03 0.  1.
    8880022    1    1    2    0    0 -0.13471539264E+03  0.17494027574E+03 -0.18794502024E+04  0.18985460367E+04  0.15294330000E+03 0.  0.
<mgrwt>
<rscale>  0 0.54778183E+03</rscale>
<asrwt>0</asrwt>
<pdfrwt beam="1">  1        2 0.32249416E+00 0.69466722E+03</pdfrwt>
<pdfrwt beam="2">  1       -2 0.91038657E-01 0.69466722E+03</pdfrwt>
<totfact> 0.63689455E+00</totfact>
</mgrwt>
</event>
<event>
 4    1  0.3057048E-007  0.8190084E+03  0.7818608E-02  0.9671109E-01
         -2   -1    0    0    0  501 -0.00000000000E+00  0.00000000000E+00  0.29752111422E+03  0.29752111423E+03  0.25500000000E-02 0.  1.
          2   -1    0    0  501    0  0.00000000000E+00 -0.00000000000E+00 -0.24272303117E+04  0.24272303117E+04  0.25500000000E-02 0. -1.
    8880023    1    1    2    0    0 -0.33904398801E+03 -0.34930473076E+03 -0.38131858929E+03  0.90342608637E+03  0.65864270000E+03 0.  1.
    8880022    1    1    2    0    0  0.33904398801E+03  0.34930473076E+03 -0.17483906082E+04  0.18213253396E+04  0.15294330000E+03 0.  0.
<mgrwt>
<rscale>  0 0.72763284E+03</rscale>
<asrwt>0</asrwt>
<pdfrwt beam="1">  1        2 0.37342004E+00 0.81900844E+03</pdfrwt>
<pdfrwt beam="2">  1       -2 0.45772481E-01 0.81900844E+03</pdfrwt>
<totfact> 0.17946486E+01</totfact>
</mgrwt>
</event>
<event>
 4    1  0.3057048E-007  0.7683429E+03  0.7818608E-02  0.9783968E-01
          2   -1    0    0  501    0  0.00000000000E+00  0.00000000000E+00  0.13344537915E+04  0.13344537915E+04  0.25500000000E-02 0. -1.
         -2   -1    0    0    0  501 -0.00000000000E+00 -0.00000000000E+00 -0.44927931638E+03  0.44927931638E+03  0.25500000000E-02 0.  1.
    8880023    1    1    2    0    0  0.37849910368E+03  0.11523459786E+03 -0.36418718294E+02  0.76920550787E+03  0.65864270000E+03 0.  1.
    8880022    1    1    2    0    0 -0.37849910368E+03 -0.11523459786E+03  0.92159319345E+03  0.10145276000E+04  0.15294330000E+03 0.  0.
<mgrwt>
<rscale>  0 0.66230026E+03</rscale>
<asrwt>0</asrwt>
<pdfrwt beam="1">  1        2 0.20530058E+00 0.76834289E+03</pdfrwt>
<pdfrwt beam="2">  1       -2 0.69119895E-01 0.76834289E+03</pdfrwt>
<totfact> 0.30727057E+01</totfact>
</mgrwt>
</event>
<event>
 4    1  0.3057048E-007  0.1178589E+04  0.7818608E-02  0.9178221E-01
          2   -1    0    0  501    0  0.00000000000E+00  0.00000000000E+00  0.10003589320E+04  0.10003589320E+04  0.25500000000E-02 0. -1.
         -2   -1    0    0    0  501 -0.00000000000E+00 -0.00000000000E+00 -0.17185927939E+04  0.17185927939E+04  0.25500000000E-02 0.  1.
    8880023    1    1    2    0    0  0.77785651244E+03  0.59177854209E+03 -0.11434961240E+04  0.16421498679E+04  0.65864270000E+03 0.  1.
    8880022    1    1    2    0    0 -0.77785651244E+03 -0.59177854209E+03  0.42526226215E+03  0.10768018580E+04  0.15294330000E+03 0.  0.
<mgrwt>
<rscale>  0 0.11281076E+04</rscale>
<asrwt>0</asrwt>
<pdfrwt beam="1">  1        2 0.15390137E+00 0.11785893E+04</pdfrwt>
<pdfrwt beam="2">  1       -2 0.26439889E+00 0.11785893E+04</pdfrwt>
<totfact> 0.12905073E+00</totfact>
</mgrwt>
</event>
<event>
 4    1  0.3484512E-007  0.6719403E+03  0.7818608E-02  0.1014308E+00
          2   -1    0    0  501    0  0.00000000000E+00  0.00000000000E+00  0.17657813303E+04  0.17657813303E+04  0.25500000000E-02 0. -1.
         -2   -1    0    0    0  501 -0.00000000000E+00 -0.00000000000E+00 -0.87393410606E+03  0.87393410607E+03  0.25500000000E-02 0.  1.
    8880023    1    1    2    0    0  0.40642258107E+02  0.12665621756E+03 -0.73756141829E+03  0.99774778506E+03  0.65864270000E+03 0.  1.
    8880022    1    1    2    0    0 -0.40642258107E+02 -0.12665621756E+03  0.16294086426E+04  0.16419676513E+04  0.15294330000E+03 0.  0.
<mgrwt>
<rscale>  0 0.49797640E+03</rscale>
<asrwt>0</asrwt>
<pdfrwt beam="1">  1        2 0.27165866E+00 0.67194032E+03</pdfrwt>
<pdfrwt beam="2">  1       -2 0.13445140E+00 0.67194032E+03</pdfrwt>
<totfact> 0.37571767E+00</totfact>
</mgrwt>
</event>
<event>
 4    1  0.3057048E-007  0.6603523E+03  0.7818608E-02  0.1023798E+00
          2   -1    0    0  501    0  0.00000000000E+00  0.00000000000E+00  0.13851260782E+04  0.13851260782E+04  0.25500000000E-02 0. -1.
         -2   -1    0    0    0  501 -0.00000000000E+00 -0.00000000000E+00 -0.47467411039E+03  0.47467411040E+03  0.25500000000E-02 0.  1.
    8880023    1    1    2    0    0 -0.38561211415E+02  0.27712576073E+02 -0.23672338222E+03  0.70150061999E+03  0.65864270000E+03 0.  1.
    8880022    1    1    2    0    0  0.38561211415E+02 -0.27712576073E+02  0.11471753500E+04  0.11582995686E+04  0.15294330000E+03 0.  0.
<mgrwt>
<rscale>  0 0.46340478E+03</rscale>
<asrwt>0</asrwt>
<pdfrwt beam="1">  1        2 0.21309632E+00 0.66035230E+03</pdfrwt>
<pdfrwt beam="2">  1       -2 0.73026786E-01 0.66035230E+03</pdfrwt>
<totfact> 0.25818844E+01</totfact>
</mgrwt>
</event>
<event>
 4    1  0.3057048E-007  0.8141253E+03  0.7818608E-02  0.9681047E-01
          2   -1    0    0  501    0  0.00000000000E+00  0.00000000000E+00  0.25286652745E+03  0.25286652746E+03  0.25500000000E-02 0. -1.
         -2   -1    0    0    0  501 -0.00000000000E+00 -0.00000000000E+00 -0.17293105965E+04  0.17293105965E+04  0.25500000000E-02 0.  1.
    8880023    1    1    2    0    0  0.27569800234E+03 -0.39112704259E+03 -0.81942363942E+03  0.11550995884E+04  0.65864270000E+03 0.  0.
    8880022    1    1    2    0    0 -0.27569800234E+03  0.39112704259E+03 -0.65702042964E+03  0.82707753561E+03  0.15294330000E+03 0.  0.
<mgrwt>
<rscale>  0 0.72156523E+03</rscale>
<asrwt>0</asrwt>
<pdfrwt beam="1">  1        2 0.38902544E-01 0.81412527E+03</pdfrwt>
<pdfrwt beam="2">  1       -2 0.26604778E+00 0.81412527E+03</pdfrwt>
<totfact> 0.69658908E+00</totfact>
</mgrwt>
</event>
<event>
 4    1  0.3057048E-007  0.7291678E+03  0.7818608E-02  0.9892704E-01
          2   -1    0    0  501    0  0.00000000000E+00  0.00000000000E+00  0.84984039057E+03  0.84984039057E+03  0.25500000000E-02 0. -1.
         -2   -1    0    0    0  501 -0.00000000000E+00 -0.00000000000E+00 -0.83721640415E+03  0.83721640415E+03  0.25500000000E-02 0.  1.
    8880023    1    1    2    0    0  0.23838309815E+03  0.20260547951E+03 -0.62510899528E+03  0.96044101539E+03  0.65864270000E+03 0.  1.
    8880022    1    1    2    0    0 -0.23838309815E+03 -0.20260547951E+03  0.63773298170E+03  0.72661577933E+03  0.15294330000E+03 0.  0.
<mgrwt>
<rscale>  0 0.60616172E+03</rscale>
<asrwt>0</asrwt>
<pdfrwt beam="1">  1        2 0.13074467E+00 0.72916781E+03</pdfrwt>
<pdfrwt beam="2">  1       -2 0.12880252E+00 0.72916781E+03</pdfrwt>
<totfact> 0.14365690E+01</totfact>
</mgrwt>
</event>
<event>
 4    1  0.3057048E-007  0.7438864E+03  0.7818608E-02  0.9848768E-01
         -2   -1    0    0    0  501 -0.00000000000E+00  0.00000000000E+00  0.41651432261E+03  0.41651432261E+03  0.25500000000E-02 0.  1.
          2   -1    0    0  501    0  0.00000000000E+00 -0.00000000000E+00 -0.27055159850E+04  0.27055159850E+04  0.25500000000E-02 0. -1.
    8880023    1    1    2    0    0  0.34576837725E+03 -0.97154418830E+00  0.56709057692E+02  0.74604479630E+03  0.65864270000E+03 0.  0.
    8880022    1    1    2    0    0 -0.34576837725E+03  0.97154418830E+00 -0.23457107201E+04  0.23759855113E+04  0.15294330000E+03 0. -1.
<mgrwt>
<rscale>  0 0.62809791E+03</rscale>
<asrwt>0</asrwt>
<pdfrwt beam="1">  1        2 0.41623322E+00 0.74388636E+03</pdfrwt>
<pdfrwt beam="2">  1       -2 0.64079128E-01 0.74388636E+03</pdfrwt>
<totfact> 0.62708607E+00</totfact>
</mgrwt>
</event>
<event>
 4    1  0.3690032E-007  0.1000363E+04  0.7818608E-02  0.9381083E-01
         -2   -1    0    0    0  501 -0.00000000000E+00  0.00000000000E+00  0.10941085742E+04  0.10941085742E+04  0.25500000000E-02 0.  1.
          2   -1    0    0  501    0  0.00000000000E+00 -0.00000000000E+00 -0.20178995526E+04  0.20178995526E+04  0.25500000000E-02 0. -1.
    8880023    1    1    2    0    0 -0.65913178593E+03 -0.36395242197E+03  0.76322879512E+03  0.12582704307E+04  0.65864270000E+03 0.  0.
    8880022    1    1    2    0    0  0.65913178593E+03  0.36395242197E+03 -0.16870197736E+04  0.18537376961E+04  0.15294330000E+03 0.  0.
<mgrwt>
<rscale>  0 0.93648979E+03</rscale>
<asrwt>0</asrwt>
<pdfrwt beam="1">  1        2 0.31044608E+00 0.10003631E+04</pdfrwt>
<pdfrwt beam="2">  1       -2 0.16832440E+00 0.10003631E+04</pdfrwt>
<totfact> 0.14273880E+00</totfact>
</mgrwt>
</event>
<event>
 4    1  0.3057048E-007  0.6641484E+03  0.7818608E-02  0.1020259E+00
         -2   -1    0    0    0  501 -0.00000000000E+00  0.00000000000E+00  0.11997908141E+03  0.11997908144E+03  0.25500000000E-02 0.  1.
          2   -1    0    0  501    0  0.00000000000E+00 -0.00000000000E+00 -0.24671660057E+04  0.24671660057E+04  0.25500000000E-02 0. -1.
    8880023    1    1    2    0    0 -0.69146564458E+02  0.50016143223E+02 -0.84491074721E+03  0.10746940211E+04  0.65864270000E+03 0.  1.
    8880022    1    1    2    0    0  0.69146564458E+02 -0.50016143223E+02 -0.15022761771E+04  0.15124510661E+04  0.15294330000E+03 0.  0.
<mgrwt>
<rscale>  0 0.47593325E+03</rscale>
<asrwt>0</asrwt>
<pdfrwt beam="1">  1        2 0.37956396E+00 0.66414838E+03</pdfrwt>
<pdfrwt beam="2">  1       -2 0.18458322E-01 0.66414838E+03</pdfrwt>
<totfact> 0.93644943E+01</totfact>
</mgrwt>
</event>
<event>
 4    1  0.3057048E-007  0.6608667E+03  0.7818608E-02  0.1023286E+00
         -2   -1    0    0    0  501 -0.00000000000E+00  0.00000000000E+00  0.68032217191E+03  0.68032217192E+03  0.25500000000E-02 0.  1.
          2   -1    0    0  501    0  0.00000000000E+00 -0.00000000000E+00 -0.41456810859E+03  0.41456810860E+03  0.25500000000E-02 0. -1.
    8880023    1    1    2    0    0  0.18223783828E+02 -0.51014318749E+02  0.48671634712E+03  0.82075427250E+03  0.65864270000E+03 0.  1.
    8880022    1    1    2    0    0 -0.18223783828E+02  0.51014318749E+02 -0.22096228379E+03  0.27413600801E+03  0.15294330000E+03 0.  0.
<mgrwt>
<rscale>  0 0.46519384E+03</rscale>
<asrwt>0</asrwt>
<pdfrwt beam="1">  1        2 0.63779710E-01 0.66086668E+03</pdfrwt>
<pdfrwt beam="2">  1       -2 0.10466495E+00 0.66086668E+03</pdfrwt>
<totfact> 0.57523342E+01</totfact>
</mgrwt>
</event>
<event>
 4    1  0.3057048E-007  0.1014426E+04  0.7818608E-02  0.9362923E-01
         -2   -1    0    0    0  501 -0.00000000000E+00  0.00000000000E+00  0.60955930690E+03  0.60955930691E+03  0.25500000000E-02 0.  1.
          2   -1    0    0  501    0  0.00000000000E+00 -0.00000000000E+00 -0.24465452547E+04  0.24465452547E+04  0.25500000000E-02 0. -1.
    8880023    1    1    2    0    0 -0.74832006752E+03 -0.18779270110E+03  0.45979974547E+02  0.10154670779E+04  0.65864270000E+03 0.  0.
    8880022    1    1    2    0    0  0.74832006752E+03  0.18779270110E+03 -0.18829659224E+04  0.20406374837E+04  0.15294330000E+03 0.  0.
<mgrwt>
<rscale>  0 0.95190794E+03</rscale>
<asrwt>0</asrwt>
<pdfrwt beam="1">  1        2 0.37639157E+00 0.10144256E+04</pdfrwt>
<pdfrwt beam="2">  1       -2 0.93778356E-01 0.10144256E+04</pdfrwt>
<totfact> 0.36127441E+00</totfact>
</mgrwt>
</event>
<event>
 4    1  0.3057048E-007  0.1169528E+04  0.7818608E-02  0.9187327E-01
         -2   -1    0    0    0  501 -0.00000000000E+00  0.00000000000E+00  0.15985928943E+04  0.15985928943E+04  0.25500000000E-02 0.  1.
          2   -1    0    0  501    0  0.00000000000E+00 -0.00000000000E+00 -0.79713011600E+03  0.79713011600E+03  0.25500000000E-02 0. -1.
    8880023    1    1    2    0    0  0.51073967588E+03 -0.82044602848E+03  0.65468410207E+02  0.11713594756E+04  0.65864270000E+03 0. -1.
    8880022    1    1    2    0    0 -0.51073967588E+03  0.82044602848E+03  0.73599436812E+03  0.12243635347E+04  0.15294330000E+03 0.  0.
<mgrwt>
<rscale>  0 0.11185195E+04</rscale>
<asrwt>0</asrwt>
<pdfrwt beam="1">  1        2 0.12263540E+00 0.11695285E+04</pdfrwt>
<pdfrwt beam="2">  1       -2 0.24593737E+00 0.11695285E+04</pdfrwt>
<totfact> 0.23074571E+00</totfact>
</mgrwt>
</event>
<event>
 4    1  0.3057048E-007  0.7379087E+03  0.7818608E-02  0.9866081E-01
         -2   -1    0    0    0  501 -0.00000000000E+00  0.00000000000E+00  0.44464740750E+03  0.44464740750E+03  0.25500000000E-02 0.  1.
          2   -1    0    0  501    0  0.00000000000E+00 -0.00000000000E+00 -0.71649103501E+03  0.71649103501E+03  0.25500000000E-02 0. -1.
    8880023    1    1    2    0    0 -0.35969565020E+02 -0.33076463977E+03 -0.65477643622E+02  0.74080806192E+03  0.65864270000E+03 0. -1.
    8880022    1    1    2    0    0  0.35969565020E+02  0.33076463977E+03 -0.20636598389E+03  0.42033038060E+03  0.15294330000E+03 0.  1.
<mgrwt>
<rscale>  0 0.61933670E+03</rscale>
<asrwt>0</asrwt>
<pdfrwt beam="1">  1        2 0.11022939E+00 0.73790871E+03</pdfrwt>
<pdfrwt beam="2">  1       -2 0.68407294E-01 0.73790871E+03</pdfrwt>
<totfact> 0.78777407E+01</totfact>
</mgrwt>
</event>
<event>
 4    1  0.3057048E-007  0.8027685E+03  0.7818608E-02  0.9704842E-01
         -2   -1    0    0    0  501 -0.00000000000E+00  0.00000000000E+00  0.62813085551E+03  0.62813085551E+03  0.25500000000E-02 0.  1.
          2   -1    0    0  501    0  0.00000000000E+00 -0.00000000000E+00 -0.78213970734E+03  0.78213970735E+03  0.25500000000E-02 0. -1.
    8880023    1    1    2    0    0 -0.12648624262E+03 -0.44116688970E+03  0.17962925923E+03  0.82262012568E+03  0.65864270000E+03 0.  1.
    8880022    1    1    2    0    0  0.12648624262E+03  0.44116688970E+03 -0.33363811107E+03  0.58765043718E+03  0.15294330000E+03 0.  0.
<mgrwt>
<rscale>  0 0.70729247E+03</rscale>
<asrwt>0</asrwt>
<pdfrwt beam="1">  1        2 0.12032919E+00 0.80276846E+03</pdfrwt>
<pdfrwt beam="2">  1       -2 0.96635517E-01 0.80276846E+03</pdfrwt>
<totfact> 0.32084064E+01</totfact>
</mgrwt>
</event>
<event>
 4    1  0.3057048E-007  0.8744079E+03  0.7818608E-02  0.9568431E-01
          2   -1    0    0  501    0  0.00000000000E+00  0.00000000000E+00  0.30198053799E+04  0.30198053799E+04  0.25500000000E-02 0. -1.
         -2   -1    0    0    0  501 -0.00000000000E+00 -0.00000000000E+00 -0.21894949749E+03  0.21894949750E+03  0.25500000000E-02 0.  1.
    8880023    1    1    2    0    0 -0.57369700726E+03 -0.40628316120E+02  0.23010728707E+04  0.24616103426E+04  0.65864270000E+03 0. -1.
    8880022    1    1    2    0    0  0.57369700726E+03  0.40628316120E+02  0.49978301177E+03  0.77714453487E+03  0.15294330000E+03 0.  0.
<mgrwt>
<rscale>  0 0.79421320E+03</rscale>
<asrwt>0</asrwt>
<pdfrwt beam="1">  1        2 0.46458543E+00 0.87440787E+03</pdfrwt>
<pdfrwt beam="2">  1       -2 0.33684539E-01 0.87440787E+03</pdfrwt>
<totfact> 0.14513041E+01</totfact>
</mgrwt>
</event>
<event>
 4    1  0.3057048E-007  0.6899025E+03  0.7818608E-02  0.1004199E+00
         -2   -1    0    0    0  501 -0.00000000000E+00  0.00000000000E+00  0.29890100694E+03  0.29890100695E+03  0.25500000000E-02 0.  1.
          2   -1    0    0  501    0  0.00000000000E+00 -0.00000000000E+00 -0.11708594809E+04  0.11708594809E+04  0.25500000000E-02 0. -1.
    8880023    1    1    2    0    0  0.16632638835E+03 -0.12037786014E+03 -0.15311968521E+03  0.70669027228E+03  0.65864270000E+03 0.  1.
    8880022    1    1    2    0    0 -0.16632638835E+03  0.12037786014E+03 -0.71883878875E+03  0.76307021558E+03  0.15294330000E+03 0.  0.
<mgrwt>
<rscale>  0 0.53846796E+03</rscale>
<asrwt>0</asrwt>
<pdfrwt beam="1">  1        2 0.18013223E+00 0.68990253E+03</pdfrwt>
<pdfrwt beam="2">  1       -2 0.45984771E-01 0.68990253E+03</pdfrwt>
<totfact> 0.90246476E+01</totfact>
</mgrwt>
</event>
<event>
 4    1  0.3057048E-007  0.1241270E+04  0.7818608E-02  0.9118013E-01
          2   -1    0    0  501    0  0.00000000000E+00  0.00000000000E+00  0.22384245560E+04  0.22384245560E+04  0.25500000000E-02 0. -1.
         -2   -1    0    0    0  501 -0.00000000000E+00 -0.00000000000E+00 -0.12710873070E+04  0.12710873070E+04  0.25500000000E-02 0.  1.
    8880023    1    1    2    0    0 -0.11939460596E+03 -0.10453165911E+04  0.17808846562E+04  0.21707837784E+04  0.65864270000E+03 0. -1.
    8880022    1    1    2    0    0  0.11939460596E+03  0.10453165911E+04 -0.81354740723E+03  0.13387280846E+04  0.15294330000E+03 0.  0.
<mgrwt>
<rscale>  0 0.11941272E+04</rscale>
<asrwt>0</asrwt>
<pdfrwt beam="1">  1        2 0.34437301E+00 0.12412703E+04</pdfrwt>
<pdfrwt beam="2">  1       -2 0.19555190E+00 0.12412703E+04</pdfrwt>
<totfact> 0.67666771E-01</totfact>
</mgrwt>
</event>
<event>
 4    1  0.3057048E-007  0.1234578E+04  0.7818608E-02  0.9124221E-01
          2   -1    0    0  501    0  0.00000000000E+00  0.00000000000E+00  0.22348996996E+04  0.22348996996E+04  0.25500000000E-02 0. -1.
         -2   -1    0    0    0  501 -0.00000000000E+00 -0.00000000000E+00 -0.72997916948E+03  0.72997916949E+03  0.25500000000E-02 0.  1.
    8880023    1    1    2    0    0  0.65906651655E+03 -0.80994133213E+03  0.14435495440E+03  0.12429892171E+04  0.65864270000E+03 0.  0.
    8880022    1    1    2    0    0 -0.65906651655E+03  0.80994133213E+03  0.13605655757E+04  0.17218896520E+04  0.15294330000E+03 0.  0.
<mgrwt>
<rscale>  0 0.11871025E+04</rscale>
<asrwt>0</asrwt>
<pdfrwt beam="1">  1        2 0.34383071E+00 0.12345784E+04</pdfrwt>
<pdfrwt beam="2">  1       -2 0.11230449E+00 0.12345784E+04</pdfrwt>
<totfact> 0.30071143E+00</totfact>
</mgrwt>
</event>
<event>
 4    1  0.3057048E-007  0.7368016E+03  0.7818608E-02  0.9869364E-01
          2   -1    0    0  501    0  0.00000000000E+00  0.00000000000E+00  0.84766646959E+03  0.84766646960E+03  0.25500000000E-02 0. -1.
         -2   -1    0    0    0  501 -0.00000000000E+00 -0.00000000000E+00 -0.12912737050E+04  0.12912737050E+04  0.25500000000E-02 0.  1.
    8880023    1    1    2    0    0 -0.10524693586E+03  0.31303274400E+03 -0.11375660725E+04  0.13553350847E+04  0.65864270000E+03 0.  1.
    8880022    1    1    2    0    0  0.10524693586E+03 -0.31303274400E+03  0.69395883708E+03  0.78360508989E+03  0.15294330000E+03 0.  0.
<mgrwt>
<rscale>  0 0.61769307E+03</rscale>
<asrwt>0</asrwt>
<pdfrwt beam="1">  1        2 0.13041023E+00 0.73680162E+03</pdfrwt>
<pdfrwt beam="2">  1       -2 0.19865749E+00 0.73680162E+03</pdfrwt>
<totfact> 0.44282071E+00</totfact>
</mgrwt>
</event>
<event>
 4    1  0.3057048E-007  0.9015656E+03  0.7818608E-02  0.9523523E-01
          2   -1    0    0  501    0  0.00000000000E+00  0.00000000000E+00  0.19536417460E+04  0.19536417460E+04  0.25500000000E-02 0. -1.
         -2   -1    0    0    0  501 -0.00000000000E+00 -0.00000000000E+00 -0.35178749135E+03  0.35178749136E+03  0.25500000000E-02 0.  1.
    8880023    1    1    2    0    0  0.43636538300E+03  0.43427600283E+03  0.49199083423E+03  0.10270713614E+04  0.65864270000E+03 0.  0.
    8880022    1    1    2    0    0 -0.43636538300E+03 -0.43427600283E+03  0.11098634204E+04  0.12783578760E+04  0.15294330000E+03 0.  0.
<mgrwt>
<rscale>  0 0.82571569E+03</rscale>
<asrwt>0</asrwt>
<pdfrwt beam="1">  1        2 0.30056027E+00 0.90156564E+03</pdfrwt>
<pdfrwt beam="2">  1       -2 0.54121153E-01 0.90156564E+03</pdfrwt>
<totfact> 0.23104809E+01</totfact>
</mgrwt>
</event>
<event>
 4    1  0.3057048E-007  0.6899363E+03  0.7818608E-02  0.1004183E+00
         -2   -1    0    0    0  501 -0.00000000000E+00  0.00000000000E+00  0.12441119004E+03  0.12441119007E+03  0.25500000000E-02 0.  1.
          2   -1    0    0  501    0  0.00000000000E+00 -0.00000000000E+00 -0.41031070821E+04  0.41031070821E+04  0.25500000000E-02 0. -1.
    8880023    1    1    2    0    0 -0.98151001692E+02 -0.18046681378E+03 -0.87981842839E+03  0.11180753835E+04  0.65864270000E+03 0.  1.
    8880022    1    1    2    0    0  0.98151001692E+02  0.18046681378E+03 -0.30988774637E+04  0.31094428887E+04  0.15294330000E+03 0.  0.
<mgrwt>
<rscale>  0 0.53853556E+03</rscale>
<asrwt>0</asrwt>
<pdfrwt beam="1">  1        2 0.63124714E+00 0.68993630E+03</pdfrwt>
<pdfrwt beam="2">  1       -2 0.19140186E-01 0.68993630E+03</pdfrwt>
<totfact> 0.72786292E+00</totfact>
</mgrwt>
</event>
<event>
 4    1  0.3057048E-007  0.7213823E+03  0.7818608E-02  0.9917936E-01
         -2   -1    0    0    0  501 -0.00000000000E+00  0.00000000000E+00  0.98329717207E+02  0.98329717240E+02  0.25500000000E-02 0.  1.
          2   -1    0    0  501    0  0.00000000000E+00 -0.00000000000E+00 -0.36241698836E+04  0.36241698836E+04  0.25500000000E-02 0. -1.
    8880023    1    1    2    0    0  0.20509051315E+03 -0.21099776992E+03 -0.14413448552E+04  0.16117901152E+04  0.65864270000E+03 0.  0.
    8880022    1    1    2    0    0 -0.20509051315E+03  0.21099776992E+03 -0.20844953112E+04  0.21107094856E+04  0.15294330000E+03 0.  0.
<mgrwt>
<rscale>  0 0.59399839E+03</rscale>
<asrwt>0</asrwt>
<pdfrwt beam="1">  1        2 0.55756450E+00 0.72138227E+03</pdfrwt>
<pdfrwt beam="2">  1       -2 0.15127652E-01 0.72138227E+03</pdfrwt>
<totfact> 0.24900424E+01</totfact>
</mgrwt>
</event>
<event>
 4    1  0.3057048E-007  0.7007462E+03  0.7818608E-02  0.9994120E-01
          2   -1    0    0  501    0  0.00000000000E+00  0.00000000000E+00  0.16583869627E+04  0.16583869627E+04  0.25500000000E-02 0. -1.
         -2   -1    0    0    0  501 -0.00000000000E+00 -0.00000000000E+00 -0.24667187602E+03  0.24667187604E+03  0.25500000000E-02 0.  1.
    8880023    1    1    2    0    0  0.16333459253E+03 -0.17480497756E+03  0.30807640128E+03  0.76547778843E+03  0.65864270000E+03 0.  1.
    8880022    1    1    2    0    0 -0.16333459253E+03  0.17480497756E+03  0.11036386854E+04  0.11395810503E+04  0.15294330000E+03 0.  0.
<mgrwt>
<rscale>  0 0.55908823E+03</rscale>
<asrwt>0</asrwt>
<pdfrwt beam="1">  1        2 0.25513645E+00 0.70074616E+03</pdfrwt>
<pdfrwt beam="2">  1       -2 0.37949521E-01 0.70074616E+03</pdfrwt>
<totfact> 0.69682112E+01</totfact>
</mgrwt>
</event>
<event>
 4    1  0.3057048E-007  0.7766060E+03  0.7818608E-02  0.9763871E-01
         -2   -1    0    0    0  501 -0.00000000000E+00  0.00000000000E+00  0.28946054240E+03  0.28946054242E+03  0.25500000000E-02 0.  1.
          2   -1    0    0  501    0  0.00000000000E+00 -0.00000000000E+00 -0.20488327273E+04  0.20488327273E+04  0.25500000000E-02 0. -1.
    8880023    1    1    2    0    0 -0.17402314966E+03 -0.37285734211E+03 -0.33137891251E+03  0.84435113792E+03  0.65864270000E+03 0.  0.
    8880022    1    1    2    0    0  0.17402314966E+03  0.37285734211E+03 -0.14279932724E+04  0.14939421318E+04  0.15294330000E+03 0.  0.
<mgrwt>
<rscale>  0 0.67338012E+03</rscale>
<asrwt>0</asrwt>
<pdfrwt beam="1">  1        2 0.31520503E+00 0.77660599E+03</pdfrwt>
<pdfrwt beam="2">  1       -2 0.44532393E-01 0.77660599E+03</pdfrwt>
<totfact> 0.30905941E+01</totfact>
</mgrwt>
</event>
<event>
 4    1  0.3057048E-007  0.1083940E+04  0.7818608E-02  0.9279151E-01
          2   -1    0    0  501    0  0.00000000000E+00  0.00000000000E+00  0.15531589549E+04  0.15531589549E+04  0.25500000000E-02 0. -1.
         -2   -1    0    0    0  501 -0.00000000000E+00 -0.00000000000E+00 -0.83348965658E+03  0.83348965659E+03  0.25500000000E-02 0.  1.
    8880023    1    1    2    0    0 -0.75757691251E+03  0.40889358247E+03 -0.21683858097E+03  0.11054166258E+04  0.65864270000E+03 0.  0.
    8880022    1    1    2    0    0  0.75757691251E+03 -0.40889358247E+03  0.93650787928E+03  0.12812319857E+04  0.15294330000E+03 0. -1.
<mgrwt>
<rscale>  0 0.10272517E+04</rscale>
<asrwt>0</asrwt>
<pdfrwt beam="1">  1        2 0.23894753E+00 0.10839405E+04</pdfrwt>
<pdfrwt beam="2">  1       -2 0.12822918E+00 0.10839405E+04</pdfrwt>
<totfact> 0.52475366E+00</totfact>
</mgrwt>
</event>
<event>
 4    1  0.3057048E-007  0.8169585E+03  0.7818608E-02  0.9675261E-01
         -2   -1    0    0    0  501 -0.00000000000E+00  0.00000000000E+00  0.78119299620E+03  0.78119299621E+03  0.25500000000E-02 0.  1.
          2   -1    0    0  501    0  0.00000000000E+00 -0.00000000000E+00 -0.20796850523E+04  0.20796850523E+04  0.25500000000E-02 0. -1.
    8880023    1    1    2    0    0 -0.33109613546E+03 -0.35211686426E+03  0.52308555776E+03  0.97007197878E+03  0.65864270000E+03 0.  1.
    8880022    1    1    2    0    0  0.33109613546E+03  0.35211686426E+03 -0.18215776139E+04  0.18908060697E+04  0.15294330000E+03 0.  0.
<mgrwt>
<rscale>  0 0.72509043E+03</rscale>
<asrwt>0</asrwt>
<pdfrwt beam="1">  1        2 0.31995155E+00 0.81695847E+03</pdfrwt>
<pdfrwt beam="2">  1       -2 0.12018354E+00 0.81695847E+03</pdfrwt>
<totfact> 0.32764611E+00</totfact>
</mgrwt>
</event>
<event>
 4    1  0.3869954E-007  0.1004126E+04  0.7818608E-02  0.9376180E-01
          2   -1    0    0  501    0  0.00000000000E+00  0.00000000000E+00  0.21568839522E+04  0.21568839522E+04  0.25500000000E-02 0. -1.
         -2   -1    0    0    0  501 -0.00000000000E+00 -0.00000000000E+00 -0.99179870388E+03  0.99179870389E+03  0.25500000000E-02 0.  1.
    8880023    1    1    2    0    0 -0.75249430892E+03 -0.90610623756E+02 -0.63603085370E+03  0.11886140767E+04  0.65864270000E+03 0.  1.
    8880022    1    1    2    0    0  0.75249430892E+03  0.90610623756E+02  0.18011161020E+04  0.19600685794E+04  0.15294330000E+03 0. -1.
<mgrwt>
<rscale>  0 0.94062175E+03</rscale>
<asrwt>0</asrwt>
<pdfrwt beam="1">  1        2 0.33182830E+00 0.10041256E+04</pdfrwt>
<pdfrwt beam="2">  1       -2 0.15258442E+00 0.10041256E+04</pdfrwt>
<totfact> 0.15621630E+00</totfact>
</mgrwt>
</event>
<event>
 4    1  0.3057048E-007  0.1057344E+04  0.7818608E-02  0.9310104E-01
          2   -1    0    0  501    0  0.00000000000E+00  0.00000000000E+00  0.99372129837E+03  0.99372129838E+03  0.25500000000E-02 0. -1.
         -2   -1    0    0    0  501 -0.00000000000E+00 -0.00000000000E+00 -0.13843677350E+04  0.13843677350E+04  0.25500000000E-02 0.  1.
    8880023    1    1    2    0    0 -0.76509602605E+02 -0.82359780037E+03 -0.90531238526E+03  0.13919654368E+04  0.65864270000E+03 0.  0.
    8880022    1    1    2    0    0  0.76509602605E+02  0.82359780037E+03  0.51466594862E+03  0.98612359659E+03  0.15294330000E+03 0.  0.
<mgrwt>
<rscale>  0 0.99857956E+03</rscale>
<asrwt>0</asrwt>
<pdfrwt beam="1">  1        2 0.15288020E+00 0.10573444E+04</pdfrwt>
<pdfrwt beam="2">  1       -2 0.21297965E+00 0.10573444E+04</pdfrwt>
<totfact> 0.27488316E+00</totfact>
</mgrwt>
</event>
<event>
 4    1  0.3057048E-007  0.7414032E+03  0.7818608E-02  0.9855878E-01
          2   -1    0    0  501    0  0.00000000000E+00  0.00000000000E+00  0.67128932825E+03  0.67128932825E+03  0.25500000000E-02 0. -1.
         -2   -1    0    0    0  501 -0.00000000000E+00 -0.00000000000E+00 -0.48431939655E+03  0.48431939655E+03  0.25500000000E-02 0.  1.
    8880023    1    1    2    0    0  0.32476815349E+03 -0.10195142092E+03  0.73139726958E+01  0.74143923973E+03  0.65864270000E+03 0.  0.
    8880022    1    1    2    0    0 -0.32476815349E+03  0.10195142092E+03  0.17965595901E+03  0.41416948508E+03  0.15294330000E+03 0.  1.
<mgrwt>
<rscale>  0 0.62448091E+03</rscale>
<asrwt>0</asrwt>
<pdfrwt beam="1">  1        2 0.10327528E+00 0.74140316E+03</pdfrwt>
<pdfrwt beam="2">  1       -2 0.74510676E-01 0.74140316E+03</pdfrwt>
<totfact> 0.70884438E+01</totfact>
</mgrwt>
</event>
<event>
 4    1  0.3057048E-007  0.7551882E+03  0.7818608E-02  0.9817728E-01
         -2   -1    0    0    0  501 -0.00000000000E+00  0.00000000000E+00  0.71349763141E+03  0.71349763141E+03  0.25500000000E-02 0.  1.
          2   -1    0    0  501    0  0.00000000000E+00 -0.00000000000E+00 -0.46809458472E+03  0.46809458473E+03  0.25500000000E-02 0. -1.
    8880023    1    1    2    0    0 -0.36755905990E+03 -0.37407703440E+02  0.18099620199E+03  0.77657506410E+03  0.65864270000E+03 0. -1.
    8880022    1    1    2    0    0  0.36755905990E+03  0.37407703440E+02  0.64406844702E+02  0.40501715204E+03  0.15294330000E+03 0.  1.
<mgrwt>
<rscale>  0 0.64419786E+03</rscale>
<asrwt>0</asrwt>
<pdfrwt beam="1">  1        2 0.72014552E-01 0.75518819E+03</pdfrwt>
<pdfrwt beam="2">  1       -2 0.10976887E+00 0.75518819E+03</pdfrwt>
<totfact> 0.44391444E+01</totfact>
</mgrwt>
</event>
<event>
 4    1  0.3057048E-007  0.7033490E+03  0.7818608E-02  0.9983582E-01
          2   -1    0    0  501    0  0.00000000000E+00  0.00000000000E+00  0.17879392099E+04  0.17879392099E+04  0.25500000000E-02 0. -1.
         -2   -1    0    0    0  501 -0.00000000000E+00 -0.00000000000E+00 -0.24272436973E+03  0.24272436974E+03  0.25500000000E-02 0.  1.
    8880023    1    1    2    0    0  0.60397945295E+02 -0.23925233776E+03  0.32214866315E+03  0.77361460712E+03  0.65864270000E+03 0.  1.
    8880022    1    1    2    0    0 -0.60397945295E+02  0.23925233776E+03  0.12230661770E+04  0.12570489725E+04  0.15294330000E+03 0.  0.
<mgrwt>
<rscale>  0 0.56376034E+03</rscale>
<asrwt>0</asrwt>
<pdfrwt beam="1">  1        2 0.27506757E+00 0.70334899E+03</pdfrwt>
<pdfrwt beam="2">  1       -2 0.37342211E-01 0.70334899E+03</pdfrwt>
<totfact> 0.61066133E+01</totfact>
</mgrwt>
</event>
<event>
 4    1  0.3057048E-007  0.9878630E+03  0.7818608E-02  0.9397612E-01
          2   -1    0    0  501    0  0.00000000000E+00  0.00000000000E+00  0.88172001553E+03  0.88172001554E+03  0.25500000000E-02 0. -1.
         -2   -1    0    0    0  501 -0.00000000000E+00 -0.00000000000E+00 -0.10236362679E+04  0.10236362679E+04  0.25500000000E-02 0.  1.
    8880023    1    1    2    0    0 -0.14187555257E+03 -0.72245030203E+03 -0.45897435661E+03  0.10892799354E+04  0.65864270000E+03 0.  1.
    8880022    1    1    2    0    0  0.14187555257E+03  0.72245030203E+03  0.31705810428E+03  0.81607634803E+03  0.15294330000E+03 0.  0.
<mgrwt>
<rscale>  0 0.92272497E+03</rscale>
<asrwt>0</asrwt>
<pdfrwt beam="1">  1        2 0.13564923E+00 0.98786301E+03</pdfrwt>
<pdfrwt beam="2">  1       -2 0.15748250E+00 0.98786301E+03</pdfrwt>
<totfact> 0.78766042E+00</totfact>
</mgrwt>
</event>
<event>
 4    1  0.3057048E-007  0.7488668E+03  0.7818608E-02  0.9834833E-01
          2   -1    0    0  501    0  0.00000000000E+00  0.00000000000E+00  0.98654027252E+03  0.98654027252E+03  0.25500000000E-02 0. -1.
         -2   -1    0    0    0  501 -0.00000000000E+00 -0.00000000000E+00 -0.15715847771E+04  0.15715847771E+04  0.25500000000E-02 0.  1.
    8880023    1    1    2    0    0  0.35392166155E+03  0.41601475615E+02 -0.14379129599E+04  0.16212325903E+04  0.65864270000E+03 0.  1.
    8880022    1    1    2    0    0 -0.35392166155E+03 -0.41601475615E+02  0.85286845531E+03  0.93689245934E+03  0.15294330000E+03 0.  0.
<mgrwt>
<rscale>  0 0.63526250E+03</rscale>
<asrwt>0</asrwt>
<pdfrwt beam="1">  1        2 0.15177543E+00 0.74886676E+03</pdfrwt>
<pdfrwt beam="2">  1       -2 0.24178227E+00 0.74886676E+03</pdfrwt>
<totfact> 0.19155707E+00</totfact>
</mgrwt>
</event>
<event>
 4    1  0.3057048E-007  0.6658106E+03  0.7818608E-02  0.1018863E+00
          2   -1    0    0  501    0  0.00000000000E+00  0.00000000000E+00  0.39131033907E+04  0.39131033907E+04  0.25500000000E-02 0. -1.
         -2   -1    0    0    0  501 -0.00000000000E+00 -0.00000000000E+00 -0.96115657803E+02  0.96115657837E+02  0.25500000000E-02 0.  1.
    8880023    1    1    2    0    0 -0.39396208573E+02 -0.89114859042E+02  0.10973508304E+04  0.12835429758E+04  0.65864270000E+03 0.  1.
    8880022    1    1    2    0    0  0.39396208573E+02  0.89114859042E+02  0.27196369025E+04  0.27256760728E+04  0.15294330000E+03 0.  0.
<mgrwt>
<rscale>  0 0.48099220E+03</rscale>
<asrwt>0</asrwt>
<pdfrwt beam="1">  1        2 0.60201592E+00 0.66581058E+03</pdfrwt>
<pdfrwt beam="2">  1       -2 0.14787024E-01 0.66581058E+03</pdfrwt>
<totfact> 0.16069024E+01</totfact>
</mgrwt>
</event>
<event>
 4    1  0.3057048E-007  0.7595431E+03  0.7818608E-02  0.9806292E-01
          2   -1    0    0  501    0  0.00000000000E+00  0.00000000000E+00  0.10203870255E+04  0.10203870255E+04  0.25500000000E-02 0. -1.
         -2   -1    0    0    0  501 -0.00000000000E+00 -0.00000000000E+00 -0.38133639012E+03  0.38133639013E+03  0.25500000000E-02 0.  1.
    8880023    1    1    2    0    0  0.33008286235E+03  0.18477235209E+03  0.16684570718E+03  0.77765237374E+03  0.65864270000E+03 0.  0.
    8880022    1    1    2    0    0 -0.33008286235E+03 -0.18477235209E+03  0.47220492822E+03  0.62407104192E+03  0.15294330000E+03 0.  0.
<mgrwt>
<rscale>  0 0.65025981E+03</rscale>
<asrwt>0</asrwt>
<pdfrwt beam="1">  1        2 0.15698262E+00 0.75954310E+03</pdfrwt>
<pdfrwt beam="2">  1       -2 0.58667137E-01 0.75954310E+03</pdfrwt>
<totfact> 0.67324076E+01</totfact>
</mgrwt>
</event>
<event>
 4    1  0.3057048E-007  0.6923324E+03  0.7818608E-02  0.1003063E+00
          2   -1    0    0  501    0  0.00000000000E+00  0.00000000000E+00  0.11463927391E+04  0.11463927392E+04  0.25500000000E-02 0. -1.
         -2   -1    0    0    0  501 -0.00000000000E+00 -0.00000000000E+00 -0.97313956344E+03  0.97313956345E+03  0.25500000000E-02 0.  1.
    8880023    1    1    2    0    0 -0.17291091477E+03  0.12496280496E+03 -0.83095782295E+03  0.10815798615E+04  0.65864270000E+03 0.  1.
    8880022    1    1    2    0    0  0.17291091477E+03 -0.12496280496E+03  0.10042109987E+04  0.10379524411E+04  0.15294330000E+03 0.  0.
<mgrwt>
<rscale>  0 0.54327252E+03</rscale>
<asrwt>0</asrwt>
<pdfrwt beam="1">  1        2 0.17636811E+00 0.69233236E+03</pdfrwt>
<pdfrwt beam="2">  1       -2 0.14971378E+00 0.69233236E+03</pdfrwt>
<totfact> 0.63216909E+00</totfact>
</mgrwt>
</event>
<event>
 4    1  0.3057048E-007  0.8333737E+03  0.7818608E-02  0.9642804E-01
          2   -1    0    0  501    0  0.00000000000E+00  0.00000000000E+00  0.22980399264E+04  0.22980399264E+04  0.25500000000E-02 0. -1.
         -2   -1    0    0    0  501 -0.00000000000E+00 -0.00000000000E+00 -0.24243798488E+03  0.24243798490E+03  0.25500000000E-02 0.  1.
    8880023    1    1    2    0    0 -0.35092888454E+03 -0.37087799602E+03  0.17182517139E+04  0.19096860288E+04  0.65864270000E+03 0.  0.
    8880022    1    1    2    0    0  0.35092888454E+03  0.37087799602E+03  0.33735022758E+03  0.63079188248E+03  0.15294330000E+03 0.  0.
<mgrwt>
<rscale>  0 0.74526798E+03</rscale>
<asrwt>0</asrwt>
<pdfrwt beam="1">  1        2 0.35354459E+00 0.83337373E+03</pdfrwt>
<pdfrwt beam="2">  1       -2 0.37298153E-01 0.83337373E+03</pdfrwt>
<totfact> 0.31645199E+01</totfact>
</mgrwt>
</event>
<event>
 4    1  0.3057048E-007  0.7074917E+03  0.7818608E-02  0.9967436E-01
         -2   -1    0    0    0  501 -0.00000000000E+00  0.00000000000E+00  0.92836248938E+02  0.92836248973E+02  0.25500000000E-02 0.  1.
          2   -1    0    0  501    0  0.00000000000E+00 -0.00000000000E+00 -0.42560785314E+04  0.42560785314E+04  0.25500000000E-02 0. -1.
    8880023    1    1    2    0    0 -0.24758501361E+03 -0.73729152483E+02 -0.13921694376E+04  0.15616274448E+04  0.65864270000E+03 0.  1.
    8880022    1    1    2    0    0  0.24758501361E+03  0.73729152483E+02 -0.27710728448E+04  0.27872873356E+04  0.15294330000E+03 0.  0.
<mgrwt>
<rscale>  0 0.57101468E+03</rscale>
<asrwt>0</asrwt>
<pdfrwt beam="1">  1        2 0.65478116E+00 0.70749172E+03</pdfrwt>
<pdfrwt beam="2">  1       -2 0.14282503E-01 0.70749172E+03</pdfrwt>
<totfact> 0.88988231E+00</totfact>
</mgrwt>
</event>
<event>
 4    1  0.3057048E-007  0.9360470E+03  0.7818608E-02  0.9470480E-01
          2   -1    0    0  501    0  0.00000000000E+00  0.00000000000E+00  0.16570974690E+04  0.16570974690E+04  0.25500000000E-02 0. -1.
         -2   -1    0    0    0  501 -0.00000000000E+00 -0.00000000000E+00 -0.55561850109E+03  0.55561850109E+03  0.25500000000E-02 0.  1.
    8880023    1    1    2    0    0 -0.63713340359E+03  0.19087888344E+03  0.22866240929E+02  0.93632622165E+03  0.65864270000E+03 0.  1.
    8880022    1    1    2    0    0  0.63713340359E+03 -0.19087888344E+03  0.10786127270E+04  0.12763897484E+04  0.15294330000E+03 0.  0.
<mgrwt>
<rscale>  0 0.86495623E+03</rscale>
<asrwt>0</asrwt>
<pdfrwt beam="1">  1        2 0.25493807E+00 0.93604697E+03</pdfrwt>
<pdfrwt beam="2">  1       -2 0.85479770E-01 0.93604697E+03</pdfrwt>
<totfact> 0.12382549E+01</totfact>
</mgrwt>
</event>
<event>
 4    1  0.3057048E-007  0.1069905E+04  0.7818608E-02  0.9295327E-01
          2   -1    0    0  501    0  0.00000000000E+00  0.00000000000E+00  0.16302702112E+04  0.16302702112E+04  0.25500000000E-02 0. -1.
         -2   -1    0    0    0  501 -0.00000000000E+00 -0.00000000000E+00 -0.10955735637E+04  0.10955735637E+04  0.25500000000E-02 0.  1.
    8880023    1    1    2    0    0 -0.60528833272E+03 -0.58695119228E+03 -0.65888957985E+03  0.12565155600E+04  0.65864270000E+03 0.  1.
    8880022    1    1    2    0    0  0.60528833272E+03  0.58695119228E+03  0.11935862274E+04  0.14693282149E+04  0.15294330000E+03 0.  0.
<mgrwt>
<rscale>  0 0.10121417E+04</rscale>
<asrwt>0</asrwt>
<pdfrwt beam="1">  1        2 0.25081080E+00 0.10699046E+04</pdfrwt>
<pdfrwt beam="2">  1       -2 0.16854978E+00 0.10699046E+04</pdfrwt>
<totfact> 0.23061146E+00</totfact>
</mgrwt>
</event>
<event>
 4    1  0.3057048E-007  0.7917399E+03  0.7818608E-02  0.9728949E-01
         -2   -1    0    0    0  501 -0.00000000000E+00  0.00000000000E+00  0.25658240043E+04  0.25658240043E+04  0.25500000000E-02 0.  1.
          2   -1    0    0  501    0  0.00000000000E+00 -0.00000000000E+00 -0.58351936269E+03  0.58351936270E+03  0.25500000000E-02 0. -1.
    8880023    1    1    2    0    0  0.14174644010E+03  0.41587241086E+03 -0.27992867965E+03  0.83976912741E+03  0.65864270000E+03 0. -1.
    8880022    1    1    2    0    0 -0.14174644010E+03 -0.41587241086E+03  0.22622333213E+04  0.23095742396E+04  0.15294330000E+03 0.  0.
<mgrwt>
<rscale>  0 0.69319032E+03</rscale>
<asrwt>0</asrwt>
<pdfrwt beam="1">  1        2 0.89772210E-01 0.79173993E+03</pdfrwt>
<pdfrwt beam="2">  1       -2 0.39474215E+00 0.79173993E+03</pdfrwt>
<totfact> 0.43473684E-01</totfact>
</mgrwt>
</event>
<event>
 4    1  0.3057048E-007  0.6611190E+03  0.7818608E-02  0.1023038E+00
         -2   -1    0    0    0  501 -0.00000000000E+00  0.00000000000E+00  0.25953945725E+03  0.25953945727E+03  0.25500000000E-02 0.  1.
          2   -1    0    0  501    0  0.00000000000E+00 -0.00000000000E+00 -0.16147492222E+04  0.16147492222E+04  0.25500000000E-02 0. -1.
    8880023    1    1    2    0    0 -0.45180644513E+02  0.35025783887E+02 -0.17643169967E+03  0.68425612682E+03  0.65864270000E+03 0.  1.
    8880022    1    1    2    0    0  0.45180644513E+02 -0.35025783887E+02 -0.11787780653E+04  0.11900325527E+04  0.15294330000E+03 0.  0.
<mgrwt>
<rscale>  0 0.46605989E+03</rscale>
<asrwt>0</asrwt>
<pdfrwt beam="1">  1        2 0.24842295E+00 0.66111898E+03</pdfrwt>
<pdfrwt beam="2">  1       -2 0.39929148E-01 0.66111898E+03</pdfrwt>
<totfact> 0.67017548E+01</totfact>
</mgrwt>
</event>
<event>
 4    1  0.3057048E-007  0.1042579E+04  0.7818608E-02  0.9327856E-01
         -2   -1    0    0    0  501 -0.00000000000E+00  0.00000000000E+00  0.39657120746E+03  0.39657120747E+03  0.25500000000E-02 0.  1.
          2   -1    0    0  501    0  0.00000000000E+00 -0.00000000000E+00 -0.28665595705E+04  0.28665595705E+04  0.25500000000E-02 0. -1.
    8880023    1    1    2    0    0  0.42041680638E+03 -0.69022517274E+03 -0.55976607162E+03  0.11833466700E+04  0.65864270000E+03 0.  1.
    8880022    1    1    2    0    0 -0.42041680638E+03  0.69022517274E+03 -0.19102222915E+04  0.20797841080E+04  0.15294330000E+03 0.  0.
<mgrwt>
<rscale>  0 0.98258354E+03</rscale>
<asrwt>0</asrwt>
<pdfrwt beam="1">  1        2 0.44100915E+00 0.10425792E+04</pdfrwt>
<pdfrwt beam="2">  1       -2 0.61010957E-01 0.10425792E+04</pdfrwt>
<totfact> 0.53367498E+00</totfact>
</mgrwt>
</event>
<event>
 4    1  0.3057048E-007  0.7405427E+03  0.7818608E-02  0.9858369E-01
          2   -1    0    0  501    0  0.00000000000E+00  0.00000000000E+00  0.55343576368E+03  0.55343576368E+03  0.25500000000E-02 0. -1.
         -2   -1    0    0    0  501 -0.00000000000E+00 -0.00000000000E+00 -0.21882028271E+04  0.21882028271E+04  0.25500000000E-02 0.  1.
    8880023    1    1    2    0    0  0.28588427424E+03  0.18128286739E+03 -0.20528709203E+04  0.21823571014E+04  0.65864270000E+03 0.  0.
    8880022    1    1    2    0    0 -0.28588427424E+03 -0.18128286739E+03  0.41810385686E+03  0.55928148942E+03  0.15294330000E+03 0. -1.
<mgrwt>
<rscale>  0 0.62322024E+03</rscale>
<asrwt>0</asrwt>
<pdfrwt beam="1">  1        2 0.85143965E-01 0.74054271E+03</pdfrwt>
<pdfrwt beam="2">  1       -2 0.33664659E+00 0.74054271E+03</pdfrwt>
<totfact> 0.10858543E+00</totfact>
</mgrwt>
</event>
<event>
 4    1  0.3057048E-007  0.1285992E+04  0.7818608E-02  0.9077752E-01
         -2   -1    0    0    0  501 -0.00000000000E+00  0.00000000000E+00  0.10006224187E+04  0.10006224187E+04  0.25500000000E-02 0.  1.
          2   -1    0    0  501    0  0.00000000000E+00 -0.00000000000E+00 -0.16114840066E+04  0.16114840066E+04  0.25500000000E-02 0. -1.
    8880023    1    1    2    0    0  0.49987716317E+03  0.98493076532E+03  0.99763788726E+02  0.12898561201E+04  0.65864270000E+03 0.  1.
    8880022    1    1    2    0    0 -0.49987716317E+03 -0.98493076532E+03 -0.71062537666E+03  0.13222503052E+04  0.15294330000E+03 0.  0.
<mgrwt>
<rscale>  0 0.12409471E+04</rscale>
<asrwt>0</asrwt>
<pdfrwt beam="1">  1        2 0.24792062E+00 0.12859922E+04</pdfrwt>
<pdfrwt beam="2">  1       -2 0.15394191E+00 0.12859922E+04</pdfrwt>
<totfact> 0.29606274E+00</totfact>
</mgrwt>
</event>
<event>
 4    1  0.3057048E-007  0.2203886E+04  0.7818608E-02  0.8526926E-01
          2   -1    0    0  501    0  0.00000000000E+00  0.00000000000E+00  0.23643334082E+04  0.23643334082E+04  0.25500000000E-02 0. -1.
         -2   -1    0    0    0  501 -0.00000000000E+00 -0.00000000000E+00 -0.21438828890E+04  0.21438828890E+04  0.25500000000E-02 0.  1.
    8880023    1    1    2    0    0  0.28774865000E+03 -0.20833874745E+04 -0.53564204237E+03  0.22680443687E+04  0.65864270000E+03 0.  0.
    8880022    1    1    2    0    0 -0.28774865000E+03  0.20833874745E+04  0.75609256164E+03  0.22401719285E+04  0.15294330000E+03 0.  0.
<mgrwt>
<rscale>  0 0.21796988E+04</rscale>
<asrwt>0</asrwt>
<pdfrwt beam="1">  1        2 0.36374360E+00 0.22038859E+04</pdfrwt>
<pdfrwt beam="2">  1       -2 0.32982813E+00 0.22038859E+04</pdfrwt>
<totfact> 0.75355124E-02</totfact>
</mgrwt>
</event>
<event>
 4    1  0.3057048E-007  0.6669451E+03  0.7818608E-02  0.1017954E+00
         -2   -1    0    0    0  501 -0.00000000000E+00  0.00000000000E+00  0.20488811894E+03  0.20488811895E+03  0.25500000000E-02 0.  1.
          2   -1    0    0  501    0  0.00000000000E+00 -0.00000000000E+00 -0.14400067104E+04  0.14400067104E+04  0.25500000000E-02 0. -1.
    8880023    1    1    2    0    0  0.57616551836E+02 -0.87669058655E+02 -0.37527332379E+03  0.76527498633E+03  0.65864270000E+03 0.  1.
    8880022    1    1    2    0    0 -0.57616551836E+02  0.87669058655E+02 -0.85984526771E+03  0.87961984306E+03  0.15294330000E+03 0.  0.
<mgrwt>
<rscale>  0 0.48432057E+03</rscale>
<asrwt>0</asrwt>
<pdfrwt beam="1">  1        2 0.22153949E+00 0.66694508E+03</pdfrwt>
<pdfrwt beam="2">  1       -2 0.31521250E-01 0.66694508E+03</pdfrwt>
<totfact> 0.13129933E+02</totfact>
</mgrwt>
</event>
<event>
 4    1  0.3057048E-007  0.6728331E+03  0.7818608E-02  0.1013708E+00
         -2   -1    0    0    0  501 -0.00000000000E+00  0.00000000000E+00  0.39999647136E+03  0.39999647136E+03  0.25500000000E-02 0.  1.
          2   -1    0    0  501    0  0.00000000000E+00 -0.00000000000E+00 -0.59339812460E+03  0.59339812461E+03  0.25500000000E-02 0. -1.
    8880023    1    1    2    0    0 -0.37539303640E+02  0.13223055881E+03  0.50081537114E+02  0.67469436534E+03  0.65864270000E+03 0.  1.
    8880022    1    1    2    0    0  0.37539303640E+02 -0.13223055881E+03 -0.24348319036E+03  0.31870023063E+03  0.15294330000E+03 0.  0.
<mgrwt>
<rscale>  0 0.50027036E+03</rscale>
<asrwt>0</asrwt>
<pdfrwt beam="1">  1        2 0.91292019E-01 0.67283306E+03</pdfrwt>
<pdfrwt beam="2">  1       -2 0.61537919E-01 0.67283306E+03</pdfrwt>
<totfact> 0.12526219E+02</totfact>
</mgrwt>
</event>
<event>
 4    1  0.4638279E-007  0.7055382E+03  0.7818608E-02  0.9974958E-01
          2   -1    0    0  501    0  0.00000000000E+00  0.00000000000E+00  0.17477341273E+04  0.17477341273E+04  0.25500000000E-02 0. -1.
         -2   -1    0    0    0  501 -0.00000000000E+00 -0.00000000000E+00 -0.11023693359E+04  0.11023693359E+04  0.25500000000E-02 0.  1.
    8880023    1    1    2    0    0  0.19453303931E+03 -0.16165032090E+03 -0.97472236171E+03  0.12032737919E+04  0.65864270000E+03 0.  1.
    8880022    1    1    2    0    0 -0.19453303931E+03  0.16165032090E+03  0.16200871531E+04  0.16468296713E+04  0.15294330000E+03 0.  0.
<mgrwt>
<rscale>  0 0.56762033E+03</rscale>
<asrwt>0</asrwt>
<pdfrwt beam="1">  1        2 0.26888217E+00 0.70553819E+03</pdfrwt>
<pdfrwt beam="2">  1       -2 0.16959528E+00 0.70553819E+03</pdfrwt>
<totfact> 0.20627346E+00</totfact>
</mgrwt>
</event>
<event>
 4    1  0.3057048E-007  0.1494028E+04  0.7818608E-02  0.8913864E-01
          2   -1    0    0  501    0  0.00000000000E+00  0.00000000000E+00  0.14968674147E+04  0.14968674147E+04  0.25500000000E-02 0. -1.
         -2   -1    0    0    0  501 -0.00000000000E+00 -0.00000000000E+00 -0.19696581329E+04  0.19696581329E+04  0.25500000000E-02 0.  1.
    8880023    1    1    2    0    0  0.44711188264E+03 -0.12642787247E+04 -0.12154513575E+04  0.19259911573E+04  0.65864270000E+03 0.  0.
    8880022    1    1    2    0    0 -0.44711188264E+03  0.12642787247E+04  0.74266063924E+03  0.15405343902E+04  0.15294330000E+03 0.  0.
<mgrwt>
<rscale>  0 0.14565611E+04</rscale>
<asrwt>0</asrwt>
<pdfrwt beam="1">  1        2 0.23028729E+00 0.14940281E+04</pdfrwt>
<pdfrwt beam="2">  1       -2 0.30302433E+00 0.14940281E+04</pdfrwt>
<totfact> 0.36551996E-01</totfact>
</mgrwt>
</event>
<event>
 4    1  0.3057048E-007  0.6832153E+03  0.7818608E-02  0.1007560E+00
          2   -1    0    0  501    0  0.00000000000E+00  0.00000000000E+00  0.12423631198E+04  0.12423631198E+04  0.25500000000E-02 0. -1.
         -2   -1    0    0    0  501 -0.00000000000E+00 -0.00000000000E+00 -0.13121325687E+04  0.13121325687E+04  0.25500000000E-02 0.  1.
    8880023    1    1    2    0    0  0.16364414688E+02 -0.18084572144E+03 -0.12101345095E+04  0.13896793538E+04  0.65864270000E+03 0.  1.
    8880022    1    1    2    0    0 -0.16364414688E+02  0.18084572144E+03  0.11403650606E+04  0.11648163347E+04  0.15294330000E+03 0.  0.
<mgrwt>
<rscale>  0 0.52455861E+03</rscale>
<asrwt>0</asrwt>
<pdfrwt beam="1">  1        2 0.19113279E+00 0.68321532E+03</pdfrwt>
<pdfrwt beam="2">  1       -2 0.20186655E+00 0.68321532E+03</pdfrwt>
<totfact> 0.24033142E+00</totfact>
</mgrwt>
</event>
<event>
 4    1  0.3057048E-007  0.6748559E+03  0.7818608E-02  0.1012397E+00
          2   -1    0    0  501    0  0.00000000000E+00  0.00000000000E+00  0.26584831795E+03  0.26584831796E+03  0.25500000000E-02 0. -1.
         -2   -1    0    0    0  501 -0.00000000000E+00 -0.00000000000E+00 -0.11713274699E+04  0.11713274699E+04  0.25500000000E-02 0.  1.
    8880023    1    1    2    0    0 -0.33778904408E+02  0.14310575672E+03 -0.99878438574E+03  0.12054047982E+04  0.65864270000E+03 0.  1.
    8880022    1    1    2    0    0  0.33778904408E+02 -0.14310575672E+03  0.93305233799E+02  0.23177098968E+03  0.15294330000E+03 0. -1.
<mgrwt>
<rscale>  0 0.50532901E+03</rscale>
<asrwt>0</asrwt>
<pdfrwt beam="1">  1        2 0.40899742E-01 0.67485589E+03</pdfrwt>
<pdfrwt beam="2">  1       -2 0.18020422E+00 0.67485589E+03</pdfrwt>
<totfact> 0.23173167E+01</totfact>
</mgrwt>
</event>
<event>
 4    1  0.3057048E-007  0.7320191E+03  0.7818608E-02  0.9883836E-01
         -2   -1    0    0    0  501 -0.00000000000E+00  0.00000000000E+00  0.51281271958E+03  0.51281271959E+03  0.25500000000E-02 0.  1.
          2   -1    0    0  501    0  0.00000000000E+00 -0.00000000000E+00 -0.20534016679E+04  0.20534016679E+04  0.25500000000E-02 0. -1.
    8880023    1    1    2    0    0 -0.22894403374E+03 -0.22276990436E+03  0.22471445163E+03  0.76573402165E+03  0.65864270000E+03 0.  1.
    8880022    1    1    2    0    0  0.22894403374E+03  0.22276990436E+03 -0.17653034000E+04  0.18004803659E+04  0.15294330000E+03 0.  0.
<mgrwt>
<rscale>  0 0.61051100E+03</rscale>
<asrwt>0</asrwt>
<pdfrwt beam="1">  1        2 0.31590794E+00 0.73201913E+03</pdfrwt>
<pdfrwt beam="2">  1       -2 0.78894266E-01 0.73201913E+03</pdfrwt>
<totfact> 0.92511928E+00</totfact>
</mgrwt>
</event>
<event>
 4    1  0.3057048E-007  0.8974499E+03  0.7818608E-02  0.9530138E-01
         -2   -1    0    0    0  501 -0.00000000000E+00  0.00000000000E+00  0.55105750874E+03  0.55105750875E+03  0.25500000000E-02 0.  1.
          2   -1    0    0  501    0  0.00000000000E+00 -0.00000000000E+00 -0.21388389573E+04  0.21388389573E+04  0.25500000000E-02 0. -1.
    8880023    1    1    2    0    0 -0.51887414736E+03 -0.31996207499E+03  0.86434002514E+02  0.90160254729E+03  0.65864270000E+03 0.  1.
    8880022    1    1    2    0    0  0.51887414736E+03  0.31996207499E+03 -0.16742154511E+04  0.17882939188E+04  0.15294330000E+03 0.  0.
<mgrwt>
<rscale>  0 0.82097889E+03</rscale>
<asrwt>0</asrwt>
<pdfrwt beam="1">  1        2 0.32905214E+00 0.89744990E+03</pdfrwt>
<pdfrwt beam="2">  1       -2 0.84778079E-01 0.89744990E+03</pdfrwt>
<totfact> 0.68886461E+00</totfact>
</mgrwt>
</event>
<event>
 4    1  0.3057048E-007  0.6795109E+03  0.7818608E-02  0.1009602E+00
         -2   -1    0    0    0  501 -0.00000000000E+00  0.00000000000E+00  0.12988915414E+03  0.12988915416E+03  0.25500000000E-02 0.  1.
          2   -1    0    0  501    0  0.00000000000E+00 -0.00000000000E+00 -0.23696518992E+04  0.23696518992E+04  0.25500000000E-02 0. -1.
    8880023    1    1    2    0    0  0.14076775309E+03  0.90051988277E+02 -0.83462105790E+03  0.10762562137E+04  0.65864270000E+03 0.  1.
    8880022    1    1    2    0    0 -0.14076775309E+03 -0.90051988277E+02 -0.14051416872E+04  0.14232848397E+04  0.15294330000E+03 0.  0.
<mgrwt>
<rscale>  0 0.51633260E+03</rscale>
<asrwt>0</asrwt>
<pdfrwt beam="1">  1        2 0.36456180E+00 0.67951095E+03</pdfrwt>
<pdfrwt beam="2">  1       -2 0.19982948E-01 0.67951095E+03</pdfrwt>
<totfact> 0.92322116E+01</totfact>
</mgrwt>
</event>
<event>
 4    1  0.3057048E-007  0.7021998E+03  0.7818608E-02  0.9988195E-01
          2   -1    0    0  501    0  0.00000000000E+00  0.00000000000E+00  0.21006940044E+04  0.21006940044E+04  0.25500000000E-02 0. -1.
         -2   -1    0    0    0  501 -0.00000000000E+00 -0.00000000000E+00 -0.24562017600E+03  0.24562017602E+03  0.25500000000E-02 0.  1.
    8880023    1    1    2    0    0 -0.22733620665E+03 -0.87135820138E+02  0.29782913371E+03  0.76274950092E+03  0.65864270000E+03 0.  1.
    8880022    1    1    2    0    0  0.22733620665E+03  0.87135820138E+02  0.15572446947E+04  0.15835646795E+04  0.15294330000E+03 0.  0.
<mgrwt>
<rscale>  0 0.56170908E+03</rscale>
<asrwt>0</asrwt>
<pdfrwt beam="1">  1        2 0.32318369E+00 0.70219983E+03</pdfrwt>
<pdfrwt beam="2">  1       -2 0.37787719E-01 0.70219983E+03</pdfrwt>
<totfact> 0.40330759E+01</totfact>
</mgrwt>
</event>
<event>
 4    1  0.3057048E-007  0.6906234E+03  0.7818608E-02  0.1003858E+00
          2   -1    0    0  501    0  0.00000000000E+00  0.00000000000E+00  0.26214981759E+04  0.26214981759E+04  0.25500000000E-02 0. -1.
         -2   -1    0    0    0  501 -0.00000000000E+00 -0.00000000000E+00 -0.23109056302E+03  0.23109056303E+03  0.25500000000E-02 0.  1.
    8880023    1    1    2    0    0  0.13455688642E+03  0.15825590131E+03  0.31130230655E+03  0.75754195812E+03  0.65864270000E+03 0.  0.
    8880022    1    1    2    0    0 -0.13455688642E+03 -0.15825590131E+03  0.20791053063E+04  0.20950467808E+04  0.15294330000E+03 0.  0.
<mgrwt>
<rscale>  0 0.53990589E+03</rscale>
<asrwt>0</asrwt>
<pdfrwt beam="1">  1        2 0.40330745E+00 0.69062341E+03</pdfrwt>
<pdfrwt beam="2">  1       -2 0.35552391E-01 0.69062341E+03</pdfrwt>
<totfact> 0.23247171E+01</totfact>
</mgrwt>
</event>
<event>
 4    1  0.3057048E-007  0.7714911E+03  0.7818608E-02  0.9776218E-01
          2   -1    0    0  501    0  0.00000000000E+00  0.00000000000E+00  0.25730562430E+04  0.25730562430E+04  0.25500000000E-02 0. -1.
         -2   -1    0    0    0  501 -0.00000000000E+00 -0.00000000000E+00 -0.49099358605E+03  0.49099358605E+03  0.25500000000E-02 0.  1.
    8880023    1    1    2    0    0 -0.38915946304E+03  0.99715469567E+02 -0.15428244193E+03  0.78676650964E+03  0.65864270000E+03 0.  0.
    8880022    1    1    2    0    0  0.38915946304E+03 -0.99715469567E+02  0.22363450988E+04  0.22772833194E+04  0.15294330000E+03 0.  0.
<mgrwt>
<rscale>  0 0.66654584E+03</rscale>
<asrwt>0</asrwt>
<pdfrwt beam="1">  1        2 0.39585480E+00 0.77149107E+03</pdfrwt>
<pdfrwt beam="2">  1       -2 0.75537477E-01 0.77149107E+03</pdfrwt>
<totfact> 0.51984715E+00</totfact>
</mgrwt>
</event>
<event>
 4    1  0.3057048E-007  0.7393811E+03  0.7818608E-02  0.9861753E-01
         -2   -1    0    0    0  501 -0.00000000000E+00  0.00000000000E+00  0.65180340156E+03  0.65180340156E+03  0.25500000000E-02 0.  1.
          2   -1    0    0  501    0  0.00000000000E+00 -0.00000000000E+00 -0.22810484097E+04  0.22810484097E+04  0.25500000000E-02 0. -1.
    8880023    1    1    2    0    0 -0.20140627346E+03 -0.26890479356E+03  0.42018986232E+03  0.85043753542E+03  0.65864270000E+03 0.  1.
    8880022    1    1    2    0    0  0.20140627346E+03  0.26890479356E+03 -0.20494348704E+04  0.20824142758E+04  0.15294330000E+03 0.  0.
<mgrwt>
<rscale>  0 0.62151224E+03</rscale>
<asrwt>0</asrwt>
<pdfrwt beam="1">  1        2 0.35093052E+00 0.73938115E+03</pdfrwt>
<pdfrwt beam="2">  1       -2 0.10027745E+00 0.73938115E+03</pdfrwt>
<totfact> 0.39875529E+00</totfact>
</mgrwt>
</event>
<event>
 4    1  0.3057048E-007  0.1092564E+04  0.7818608E-02  0.9269380E-01
         -2   -1    0    0    0  501 -0.00000000000E+00  0.00000000000E+00  0.27773835616E+04  0.27773835616E+04  0.25500000000E-02 0.  1.
          2   -1    0    0  501    0  0.00000000000E+00 -0.00000000000E+00 -0.41327495893E+03  0.41327495894E+03  0.25500000000E-02 0. -1.
    8880023    1    1    2    0    0  0.29111967039E+02 -0.87122832324E+03  0.18989744005E+04  0.21908446494E+04  0.65864270000E+03 0.  0.
    8880022    1    1    2    0    0 -0.29111967039E+02  0.87122832324E+03  0.46513420214E+03  0.99981387111E+03  0.15294330000E+03 0.  0.
<mgrwt>
<rscale>  0 0.10365129E+04</rscale>
<asrwt>0</asrwt>
<pdfrwt beam="1">  1        2 0.63580764E-01 0.10925642E+04</pdfrwt>
<pdfrwt beam="2">  1       -2 0.42728977E+00 0.10925642E+04</pdfrwt>
<totfact> 0.37966643E-01</totfact>
</mgrwt>
</event>
<event>
 4    1  0.3057048E-007  0.6969684E+03  0.7818608E-02  0.1001002E+00
         -2   -1    0    0    0  501 -0.00000000000E+00  0.00000000000E+00  0.25376249671E+03  0.25376249673E+03  0.25500000000E-02 0.  1.
          2   -1    0    0  501    0  0.00000000000E+00 -0.00000000000E+00 -0.22760948754E+04  0.22760948754E+04  0.25500000000E-02 0. -1.
    8880023    1    1    2    0    0 -0.21760527631E+03  0.67842786142E+02 -0.25626841660E+03  0.74258898963E+03  0.65864270000E+03 0.  1.
    8880022    1    1    2    0    0  0.21760527631E+03 -0.67842786142E+02 -0.17660639621E+04  0.17872683825E+04  0.15294330000E+03 0.  0.
<mgrwt>
<rscale>  0 0.55213157E+03</rscale>
<asrwt>0</asrwt>
<pdfrwt beam="1">  1        2 0.35016843E+00 0.69696837E+03</pdfrwt>
<pdfrwt beam="2">  1       -2 0.39040386E-01 0.69696837E+03</pdfrwt>
<totfact> 0.30349943E+01</totfact>
</mgrwt>
</event>
<event>
 4    1  0.3057048E-007  0.7613596E+03  0.7818608E-02  0.9801600E-01
         -2   -1    0    0    0  501 -0.00000000000E+00  0.00000000000E+00  0.23580815549E+03  0.23580815550E+03  0.25500000000E-02 0.  1.
          2   -1    0    0  501    0  0.00000000000E+00 -0.00000000000E+00 -0.22755874531E+04  0.22755874531E+04  0.25500000000E-02 0. -1.
    8880023    1    1    2    0    0  0.27288957386E+03  0.26718817102E+03 -0.48408416958E+03  0.90222277058E+03  0.65864270000E+03 0.  1.
    8880022    1    1    2    0    0 -0.27288957386E+03 -0.26718817102E+03 -0.15556951280E+04  0.16091728380E+04  0.15294330000E+03 0.  0.
<mgrwt>
<rscale>  0 0.65276735E+03</rscale>
<asrwt>0</asrwt>
<pdfrwt beam="1">  1        2 0.35009036E+00 0.76135960E+03</pdfrwt>
<pdfrwt beam="2">  1       -2 0.36278179E-01 0.76135960E+03</pdfrwt>
<totfact> 0.34669694E+01</totfact>
</mgrwt>
</event>
<event>
 4    1  0.3057048E-007  0.6710539E+03  0.7818608E-02  0.1014918E+00
         -2   -1    0    0    0  501 -0.00000000000E+00  0.00000000000E+00  0.18741968742E+04  0.18741968742E+04  0.25500000000E-02 0.  1.
          2   -1    0    0  501    0  0.00000000000E+00 -0.00000000000E+00 -0.57559689146E+03  0.57559689146E+03  0.25500000000E-02 0. -1.
    8880023    1    1    2    0    0  0.81383307938E+02  0.99397592318E+02  0.17941319998E+04  0.19155215904E+04  0.65864270000E+03 0.  1.
    8880022    1    1    2    0    0 -0.81383307938E+02 -0.99397592318E+02 -0.49553201715E+03  0.53427217521E+03  0.15294330000E+03 0.  0.
<mgrwt>
<rscale>  0 0.49565850E+03</rscale>
<asrwt>0</asrwt>
<pdfrwt beam="1">  1        2 0.88553370E-01 0.67105390E+03</pdfrwt>
<pdfrwt beam="2">  1       -2 0.28833798E+00 0.67105390E+03</pdfrwt>
<totfact> 0.20564207E+00</totfact>
</mgrwt>
</event>
<event>
 4    1  0.3057048E-007  0.7166767E+03  0.7818608E-02  0.9933996E-01
          2   -1    0    0  501    0  0.00000000000E+00  0.00000000000E+00  0.93476288719E+03  0.93476288719E+03  0.25500000000E-02 0. -1.
         -2   -1    0    0    0  501 -0.00000000000E+00 -0.00000000000E+00 -0.73459748637E+03  0.73459748638E+03  0.25500000000E-02 0.  1.
    8880023    1    1    2    0    0 -0.86034274251E+02  0.26909727993E+03 -0.51688914745E+03  0.88362879051E+03  0.65864270000E+03 0.  1.
    8880022    1    1    2    0    0  0.86034274251E+02 -0.26909727993E+03  0.71705454826E+03  0.78573158306E+03  0.15294330000E+03 0.  0.
<mgrwt>
<rscale>  0 0.58641631E+03</rscale>
<asrwt>0</asrwt>
<pdfrwt beam="1">  1        2 0.14380968E+00 0.71667667E+03</pdfrwt>
<pdfrwt beam="2">  1       -2 0.11301500E+00 0.71667667E+03</pdfrwt>
<totfact> 0.17431410E+01</totfact>
</mgrwt>
</event>
<event>
 4    1  0.3057048E-007  0.2229119E+04  0.7818608E-02  0.8516256E-01
          2   -1    0    0  501    0  0.00000000000E+00  0.00000000000E+00  0.19174946757E+04  0.19174946757E+04  0.25500000000E-02 0. -1.
         -2   -1    0    0    0  501 -0.00000000000E+00 -0.00000000000E+00 -0.27862248498E+04  0.27862248498E+04  0.25500000000E-02 0.  1.
    8880023    1    1    2    0    0  0.68219350091E+03 -0.20173680773E+04 -0.12181355176E+04  0.25402413817E+04  0.65864270000E+03 0.  0.
    8880022    1    1    2    0    0 -0.68219350091E+03  0.20173680773E+04  0.34940534353E+03  0.21634781439E+04  0.15294330000E+03 0.  0.
<mgrwt>
<rscale>  0 0.22052272E+04</rscale>
<asrwt>0</asrwt>
<pdfrwt beam="1">  1        2 0.29499918E+00 0.22291191E+04</pdfrwt>
<pdfrwt beam="2">  1       -2 0.42864998E+00 0.22291191E+04</pdfrwt>
<totfact> 0.30909092E-02</totfact>
</mgrwt>
</event>
<event>
 4    1  0.3057048E-007  0.6815948E+03  0.7818608E-02  0.1008436E+00
          2   -1    0    0  501    0  0.00000000000E+00  0.00000000000E+00  0.14142885115E+04  0.14142885115E+04  0.25500000000E-02 0. -1.
         -2   -1    0    0    0  501 -0.00000000000E+00 -0.00000000000E+00 -0.30752433113E+03  0.30752433114E+03  0.25500000000E-02 0.  1.
    8880023    1    1    2    0    0 -0.10471404484E+03  0.14069922147E+03  0.10046749302E+03  0.68895952387E+03  0.65864270000E+03 0.  1.
    8880022    1    1    2    0    0  0.10471404484E+03 -0.14069922147E+03  0.10062966873E+04  0.10328533188E+04  0.15294330000E+03 0.  0.
<mgrwt>
<rscale>  0 0.52101171E+03</rscale>
<asrwt>0</asrwt>
<pdfrwt beam="1">  1        2 0.21758285E+00 0.68159483E+03</pdfrwt>
<pdfrwt beam="2">  1       -2 0.47311435E-01 0.68159483E+03</pdfrwt>
<totfact> 0.61743708E+01</totfact>
</mgrwt>
</event>
<event>
 4    1  0.3057048E-007  0.8793474E+03  0.7818608E-02  0.9560034E-01
          2   -1    0    0  501    0  0.00000000000E+00  0.00000000000E+00  0.13028071682E+04  0.13028071682E+04  0.25500000000E-02 0. -1.
         -2   -1    0    0    0  501 -0.00000000000E+00 -0.00000000000E+00 -0.50949095423E+03  0.50949095424E+03  0.25500000000E-02 0.  1.
    8880023    1    1    2    0    0 -0.88713887259E+02 -0.57582247424E+03  0.86440500427E+02  0.88358578645E+03  0.65864270000E+03 0.  0.
    8880022    1    1    2    0    0  0.88713887259E+02  0.57582247424E+03  0.70687571357E+03  0.92871233602E+03  0.15294330000E+03 0.  0.
<mgrwt>
<rscale>  0 0.79998854E+03</rscale>
<asrwt>0</asrwt>
<pdfrwt beam="1">  1        2 0.20043187E+00 0.87934742E+03</pdfrwt>
<pdfrwt beam="2">  1       -2 0.78383224E-01 0.87934742E+03</pdfrwt>
<totfact> 0.23998872E+01</totfact>
</mgrwt>
</event>
<event>
 4    1  0.3057048E-007  0.1629326E+04  0.7818608E-02  0.8823331E-01
          2   -1    0    0  501    0  0.00000000000E+00  0.00000000000E+00  0.22428119992E+04  0.22428119992E+04  0.25500000000E-02 0. -1.
         -2   -1    0    0    0  501 -0.00000000000E+00 -0.00000000000E+00 -0.16214346283E+04  0.16214346283E+04  0.25500000000E-02 0.  1.
    8880023    1    1    2    0    0 -0.12975355672E+04 -0.73300331063E+03  0.14246970672E+04  0.21643623405E+04  0.65864270000E+03 0. -1.
    8880022    1    1    2    0    0  0.12975355672E+04  0.73300331063E+03 -0.80331969639E+03  0.16998842870E+04  0.15294330000E+03 0.  0.
<mgrwt>
<rscale>  0 0.15954775E+04</rscale>
<asrwt>0</asrwt>
<pdfrwt beam="1">  1        2 0.34504800E+00 0.16293258E+04</pdfrwt>
<pdfrwt beam="2">  1       -2 0.24945148E+00 0.16293258E+04</pdfrwt>
<totfact> 0.29231603E-01</totfact>
</mgrwt>
</event>
<event>
 4    1  0.3057048E-007  0.7938570E+03  0.7818608E-02  0.9724239E-01
          2   -1    0    0  501    0  0.00000000000E+00  0.00000000000E+00  0.44949425356E+03  0.44949425356E+03  0.25500000000E-02 0. -1.
         -2   -1    0    0    0  501 -0.00000000000E+00 -0.00000000000E+00 -0.13901567545E+04  0.13901567545E+04  0.25500000000E-02 0.  1.
    8880023    1    1    2    0    0 -0.37229413713E+03  0.24040742666E+03 -0.10892581246E+04  0.13478472182E+04  0.65864270000E+03 0.  1.
    8880022    1    1    2    0    0  0.37229413713E+03 -0.24040742666E+03  0.14859562366E+03  0.49180378986E+03  0.15294330000E+03 0.  0.
<mgrwt>
<rscale>  0 0.69591750E+03</rscale>
<asrwt>0</asrwt>
<pdfrwt beam="1">  1        2 0.69152963E-01 0.79385695E+03</pdfrwt>
<pdfrwt beam="2">  1       -2 0.21387027E+00 0.79385695E+03</pdfrwt>
<totfact> 0.76543443E+00</totfact>
</mgrwt>
</event>
<event>
 4    1  0.3057048E-007  0.7398082E+03  0.7818608E-02  0.9860506E-01
          2   -1    0    0  501    0  0.00000000000E+00  0.00000000000E+00  0.15157217219E+04  0.15157217219E+04  0.25500000000E-02 0. -1.
         -2   -1    0    0    0  501 -0.00000000000E+00 -0.00000000000E+00 -0.28376764623E+03  0.28376764624E+03  0.25500000000E-02 0.  1.
    8880023    1    1    2    0    0  0.31058319747E+03 -0.13055306792E+03  0.30280075625E+03  0.79937758934E+03  0.65864270000E+03 0.  1.
    8880022    1    1    2    0    0 -0.31058319747E+03  0.13055306792E+03  0.92915331941E+03  0.10001117788E+04  0.15294330000E+03 0.  0.
<mgrwt>
<rscale>  0 0.62214109E+03</rscale>
<asrwt>0</asrwt>
<pdfrwt beam="1">  1        2 0.23318795E+00 0.73980824E+03</pdfrwt>
<pdfrwt beam="2">  1       -2 0.43656562E-01 0.73980824E+03</pdfrwt>
<totfact> 0.63238135E+01</totfact>
</mgrwt>
</event>
<event>
 4    1  0.3057048E-007  0.7114733E+03  0.7818608E-02  0.9952570E-01
          2   -1    0    0  501    0  0.00000000000E+00  0.00000000000E+00  0.23566256056E+04  0.23566256056E+04  0.25500000000E-02 0. -1.
         -2   -1    0    0    0  501 -0.00000000000E+00 -0.00000000000E+00 -0.15349737180E+03  0.15349737182E+03  0.25500000000E-02 0.  1.
    8880023    1    1    2    0    0  0.23814343001E+03  0.12518682038E+03  0.78850154041E+03  0.10620399798E+04  0.65864270000E+03 0.  1.
    8880022    1    1    2    0    0 -0.23814343001E+03 -0.12518682038E+03  0.14146266934E+04  0.14480829976E+04  0.15294330000E+03 0.  0.
<mgrwt>
<rscale>  0 0.57779777E+03</rscale>
<asrwt>0</asrwt>
<pdfrwt beam="1">  1        2 0.36255781E+00 0.71147329E+03</pdfrwt>
<pdfrwt beam="2">  1       -2 0.23614979E-01 0.71147329E+03</pdfrwt>
<totfact> 0.69596152E+01</totfact>
</mgrwt>
</event>
<event>
 4    1  0.3057048E-007  0.6807370E+03  0.7818608E-02  0.1008910E+00
          2   -1    0    0  501    0  0.00000000000E+00  0.00000000000E+00  0.10332043478E+04  0.10332043478E+04  0.25500000000E-02 0. -1.
         -2   -1    0    0    0  501 -0.00000000000E+00 -0.00000000000E+00 -0.20773750318E+03  0.20773750320E+03  0.25500000000E-02 0.  1.
    8880023    1    1    2    0    0  0.16093794668E+03  0.60758839711E+02  0.51079493213E+03  0.85106658273E+03  0.65864270000E+03 0.  1.
    8880022    1    1    2    0    0 -0.16093794668E+03 -0.60758839711E+02  0.31467191248E+03  0.38987526826E+03  0.15294330000E+03 0. -1.
<mgrwt>
<rscale>  0 0.51910227E+03</rscale>
<asrwt>0</asrwt>
<pdfrwt beam="1">  1        2 0.15895452E+00 0.68073700E+03</pdfrwt>
<pdfrwt beam="2">  1       -2 0.31959616E-01 0.68073700E+03</pdfrwt>
<totfact> 0.22144156E+02</totfact>
</mgrwt>
</event>
<event>
 4    1  0.3057048E-007  0.7198829E+03  0.7818608E-02  0.9922982E-01
          2   -1    0    0  501    0  0.00000000000E+00  0.00000000000E+00  0.76551445246E+03  0.76551445247E+03  0.25500000000E-02 0. -1.
         -2   -1    0    0    0  501 -0.00000000000E+00 -0.00000000000E+00 -0.49659010979E+03  0.49659010980E+03  0.25500000000E-02 0.  1.
    8880023    1    1    2    0    0 -0.18018601916E+03 -0.22793465506E+03 -0.14440921341E+03  0.73422437692E+03  0.65864270000E+03 0.  1.
    8880022    1    1    2    0    0  0.18018601916E+03  0.22793465506E+03  0.41333355609E+03  0.52788018535E+03  0.15294330000E+03 0.  0.
<mgrwt>
<rscale>  0 0.59160280E+03</rscale>
<asrwt>0</asrwt>
<pdfrwt beam="1">  1        2 0.11777145E+00 0.71988292E+03</pdfrwt>
<pdfrwt beam="2">  1       -2 0.76398479E-01 0.71988292E+03</pdfrwt>
<totfact> 0.56827149E+01</totfact>
</mgrwt>
</event>
<event>
 4    1  0.3057048E-007  0.1080923E+04  0.7818608E-02  0.9282600E-01
          2   -1    0    0  501    0  0.00000000000E+00  0.00000000000E+00  0.13807201311E+04  0.13807201311E+04  0.25500000000E-02 0. -1.
         -2   -1    0    0    0  501 -0.00000000000E+00 -0.00000000000E+00 -0.17280061099E+04  0.17280061100E+04  0.25500000000E-02 0.  1.
    8880023    1    1    2    0    0  0.82261694147E+03  0.24059221486E+03 -0.13832570671E+04  0.17555037927E+04  0.65864270000E+03 0.  0.
    8880022    1    1    2    0    0 -0.82261694147E+03 -0.24059221486E+03  0.10359710882E+04  0.13532224484E+04  0.15294330000E+03 0.  0.
<mgrwt>
<rscale>  0 0.10240066E+04</rscale>
<asrwt>0</asrwt>
<pdfrwt beam="1">  1        2 0.21241848E+00 0.10809225E+04</pdfrwt>
<pdfrwt beam="2">  1       -2 0.26584709E+00 0.10809225E+04</pdfrwt>
<totfact> 0.75367193E-01</totfact>
</mgrwt>
</event>
<event>
 4    1  0.3057048E-007  0.7613890E+03  0.7818608E-02  0.9801525E-01
         -2   -1    0    0    0  501 -0.00000000000E+00  0.00000000000E+00  0.33770916113E+03  0.33770916114E+03  0.25500000000E-02 0.  1.
          2   -1    0    0  501    0  0.00000000000E+00 -0.00000000000E+00 -0.10523853769E+04  0.10523853769E+04  0.25500000000E-02 0. -1.
    8880023    1    1    2    0    0  0.36826585677E+03  0.10140647677E+03 -0.34093014759E+03  0.83423413176E+03  0.65864270000E+03 0. -1.
    8880022    1    1    2    0    0 -0.36826585677E+03 -0.10140647677E+03 -0.37374606820E+03  0.55586040631E+03  0.15294330000E+03 0.  1.
<mgrwt>
<rscale>  0 0.65280784E+03</rscale>
<asrwt>0</asrwt>
<pdfrwt beam="1">  1        2 0.16190544E+00 0.76138901E+03</pdfrwt>
<pdfrwt beam="2">  1       -2 0.51955256E-01 0.76138901E+03</pdfrwt>
<totfact> 0.82720133E+01</totfact>
</mgrwt>
</event>
<event>
 4    1  0.3057048E-007  0.9019914E+03  0.7818608E-02  0.9522842E-01
          2   -1    0    0  501    0  0.00000000000E+00  0.00000000000E+00  0.34575139357E+04  0.34575139357E+04  0.25500000000E-02 0. -1.
         -2   -1    0    0    0  501 -0.00000000000E+00 -0.00000000000E+00 -0.60070835426E+03  0.60070835427E+03  0.25500000000E-02 0.  1.
    8880023    1    1    2    0    0  0.29770797087E+03 -0.53958158959E+03 -0.21021590816E+03  0.92616373393E+03  0.65864270000E+03 0.  1.
    8880022    1    1    2    0    0 -0.29770797087E+03  0.53958158959E+03  0.30670214896E+04  0.31320585560E+04  0.15294330000E+03 0.  0.
<mgrwt>
<rscale>  0 0.82620502E+03</rscale>
<asrwt>0</asrwt>
<pdfrwt beam="1">  1        2 0.53192523E+00 0.90199143E+03</pdfrwt>
<pdfrwt beam="2">  1       -2 0.92416669E-01 0.90199143E+03</pdfrwt>
<totfact> 0.90971947E-01</totfact>
</mgrwt>
</event>
<event>
 4    1  0.3057048E-007  0.9395252E+03  0.7818608E-02  0.9465348E-01
          2   -1    0    0  501    0  0.00000000000E+00  0.00000000000E+00  0.13563257708E+04  0.13563257708E+04  0.25500000000E-02 0. -1.
         -2   -1    0    0    0  501 -0.00000000000E+00 -0.00000000000E+00 -0.72942170598E+03  0.72942170599E+03  0.25500000000E-02 0.  1.
    8880023    1    1    2    0    0  0.61398300911E+03 -0.26818316807E+03 -0.24944029539E+03  0.97207407862E+03  0.65864270000E+03 0.  0.
    8880022    1    1    2    0    0 -0.61398300911E+03  0.26818316807E+03  0.87634436024E+03  0.11136733982E+04  0.15294330000E+03 0.  0.
<mgrwt>
<rscale>  0 0.86887499E+03</rscale>
<asrwt>0</asrwt>
<pdfrwt beam="1">  1        2 0.20866550E+00 0.93952517E+03</pdfrwt>
<pdfrwt beam="2">  1       -2 0.11221872E+00 0.93952517E+03</pdfrwt>
<totfact> 0.95952807E+00</totfact>
</mgrwt>
</event>
<event>
 4    1  0.3057048E-007  0.1490806E+04  0.7818608E-02  0.8916156E-01
          2   -1    0    0  501    0  0.00000000000E+00  0.00000000000E+00  0.19325662780E+04  0.19325662780E+04  0.25500000000E-02 0. -1.
         -2   -1    0    0    0  501 -0.00000000000E+00 -0.00000000000E+00 -0.11158362672E+04  0.11158362672E+04  0.25500000000E-02 0.  1.
    8880023    1    1    2    0    0  0.58038015095E+02 -0.13361601562E+04  0.33900201330E+02  0.14911914042E+04  0.65864270000E+03 0.  0.
    8880022    1    1    2    0    0 -0.58038015095E+02  0.13361601562E+04  0.78282980949E+03  0.15572111410E+04  0.15294330000E+03 0.  0.
<mgrwt>
<rscale>  0 0.14532427E+04</rscale>
<asrwt>0</asrwt>
<pdfrwt beam="1">  1        2 0.29731788E+00 0.14908060E+04</pdfrwt>
<pdfrwt beam="2">  1       -2 0.17166712E+00 0.14908060E+04</pdfrwt>
<totfact> 0.14244050E+00</totfact>
</mgrwt>
</event>
<event>
 4    1  0.3057048E-007  0.1356077E+04  0.7818608E-02  0.9018586E-01
         -2   -1    0    0    0  501 -0.00000000000E+00  0.00000000000E+00  0.90972456490E+03  0.90972456490E+03  0.25500000000E-02 0.  1.
          2   -1    0    0  501    0  0.00000000000E+00 -0.00000000000E+00 -0.28189204445E+04  0.28189204445E+04  0.25500000000E-02 0. -1.
    8880023    1    1    2    0    0  0.45302489533E+02  0.11845182043E+04  0.13281384821E+03  0.13625657476E+04  0.65864270000E+03 0.  1.
    8880022    1    1    2    0    0 -0.45302489533E+02 -0.11845182043E+04 -0.20420097278E+04  0.23660792619E+04  0.15294330000E+03 0.  0.
<mgrwt>
<rscale>  0 0.13139367E+04</rscale>
<asrwt>0</asrwt>
<pdfrwt beam="1">  1        2 0.43368006E+00 0.13560774E+04</pdfrwt>
<pdfrwt beam="2">  1       -2 0.13995763E+00 0.13560774E+04</pdfrwt>
<totfact> 0.77999345E-01</totfact>
</mgrwt>
</event>
<event>
 4    1  0.3057048E-007  0.9117498E+03  0.7818608E-02  0.9507427E-01
         -2   -1    0    0    0  501 -0.00000000000E+00  0.00000000000E+00  0.31632429470E+03  0.31632429471E+03  0.25500000000E-02 0.  1.
          2   -1    0    0  501    0  0.00000000000E+00 -0.00000000000E+00 -0.21131177576E+04  0.21131177576E+04  0.25500000000E-02 0. -1.
    8880023    1    1    2    0    0  0.55583272263E+03 -0.29753559387E+03 -0.67816866763E+03  0.11363099899E+04  0.65864270000E+03 0.  0.
    8880022    1    1    2    0    0 -0.55583272263E+03  0.29753559387E+03 -0.11186247953E+04  0.12931320624E+04  0.15294330000E+03 0.  0.
<mgrwt>
<rscale>  0 0.83738491E+03</rscale>
<asrwt>0</asrwt>
<pdfrwt beam="1">  1        2 0.32509503E+00 0.91174977E+03</pdfrwt>
<pdfrwt beam="2">  1       -2 0.48665278E-01 0.91174977E+03</pdfrwt>
<totfact> 0.23453819E+01</totfact>
</mgrwt>
</event>
<event>
 4    1  0.3057048E-007  0.7419586E+03  0.7818608E-02  0.9854278E-01
         -2   -1    0    0    0  501 -0.00000000000E+00  0.00000000000E+00  0.97938878953E+03  0.97938878953E+03  0.25500000000E-02 0.  1.
          2   -1    0    0  501    0  0.00000000000E+00 -0.00000000000E+00 -0.35337445022E+03  0.35337445023E+03  0.25500000000E-02 0. -1.
    8880023    1    1    2    0    0  0.29476705700E+03 -0.17264070248E+03  0.20566986147E+03  0.76993683392E+03  0.65864270000E+03 0. -1.
    8880022    1    1    2    0    0 -0.29476705700E+03  0.17264070248E+03  0.42034447784E+03  0.56282640584E+03  0.15294330000E+03 0.  1.
<mgrwt>
<rscale>  0 0.62529272E+03</rscale>
<asrwt>0</asrwt>
<pdfrwt beam="1">  1        2 0.54365301E-01 0.74195865E+03</pdfrwt>
<pdfrwt beam="2">  1       -2 0.15067520E+00 0.74195865E+03</pdfrwt>
<totfact> 0.27420256E+01</totfact>
</mgrwt>
</event>
<event>
 4    1  0.3057048E-007  0.8560889E+03  0.7818608E-02  0.9600559E-01
         -2   -1    0    0    0  501 -0.00000000000E+00  0.00000000000E+00  0.46224374432E+03  0.46224374432E+03  0.25500000000E-02 0.  1.
          2   -1    0    0  501    0  0.00000000000E+00 -0.00000000000E+00 -0.12763126109E+04  0.12763126109E+04  0.25500000000E-02 0. -1.
    8880023    1    1    2    0    0  0.31020302281E+03 -0.45039107537E+03 -0.15745493959E+03  0.87044833299E+03  0.65864270000E+03 0. -1.
    8880022    1    1    2    0    0 -0.31020302281E+03  0.45039107537E+03 -0.65661392700E+03  0.86810802224E+03  0.15294330000E+03 0.  0.
<mgrwt>
<rscale>  0 0.77259211E+03</rscale>
<asrwt>0</asrwt>
<pdfrwt beam="1">  1        2 0.19635579E+00 0.85608892E+03</pdfrwt>
<pdfrwt beam="2">  1       -2 0.71114423E-01 0.85608892E+03</pdfrwt>
<totfact> 0.30925580E+01</totfact>
</mgrwt>
</event>
<event>
 4    1  0.3057048E-007  0.8660426E+03  0.7818608E-02  0.9582904E-01
         -2   -1    0    0    0  501 -0.00000000000E+00  0.00000000000E+00  0.82184688606E+03  0.82184688606E+03  0.25500000000E-02 0.  1.
          2   -1    0    0  501    0  0.00000000000E+00 -0.00000000000E+00 -0.13755057711E+04  0.13755057711E+04  0.25500000000E-02 0. -1.
    8880023    1    1    2    0    0  0.54022766013E+03  0.15612065771E+03  0.49508859374E+03  0.99756829663E+03  0.65864270000E+03 0.  1.
    8880022    1    1    2    0    0 -0.54022766013E+03 -0.15612065771E+03 -0.10487474788E+04  0.11997843605E+04  0.15294330000E+03 0.  0.
<mgrwt>
<rscale>  0 0.78438124E+03</rscale>
<asrwt>0</asrwt>
<pdfrwt beam="1">  1        2 0.21161627E+00 0.86604260E+03</pdfrwt>
<pdfrwt beam="2">  1       -2 0.12643798E+00 0.86604260E+03</pdfrwt>
<totfact> 0.70176225E+00</totfact>
</mgrwt>
</event>
<event>
 4    1  0.3057048E-007  0.9679583E+03  0.7818608E-02  0.9424734E-01
          2   -1    0    0  501    0  0.00000000000E+00  0.00000000000E+00  0.24694505675E+04  0.24694505675E+04  0.25500000000E-02 0. -1.
         -2   -1    0    0    0  501 -0.00000000000E+00 -0.00000000000E+00 -0.30161519941E+03  0.30161519942E+03  0.25500000000E-02 0.  1.
    8880023    1    1    2    0    0 -0.18114630265E+03  0.68579814245E+03  0.14981266866E+04  0.17836274417E+04  0.65864270000E+03 0. -1.
    8880022    1    1    2    0    0  0.18114630265E+03 -0.68579814245E+03  0.66970868141E+03  0.98743832522E+03  0.15294330000E+03 0. -1.
<mgrwt>
<rscale>  0 0.90067858E+03</rscale>
<asrwt>0</asrwt>
<pdfrwt beam="1">  1        2 0.37991547E+00 0.96795831E+03</pdfrwt>
<pdfrwt beam="2">  1       -2 0.46402339E-01 0.96795831E+03</pdfrwt>
<totfact> 0.16211687E+01</totfact>
</mgrwt>
</event>
<event>
 4    1  0.3057048E-007  0.7895619E+03  0.7818608E-02  0.9733837E-01
          2   -1    0    0  501    0  0.00000000000E+00  0.00000000000E+00  0.21163694952E+04  0.21163694952E+04  0.25500000000E-02 0. -1.
         -2   -1    0    0    0  501 -0.00000000000E+00 -0.00000000000E+00 -0.30528436025E+03  0.30528436026E+03  0.25500000000E-02 0.  1.
    8880023    1    1    2    0    0 -0.43154656485E+03 -0.58011132810E+02  0.30496350839E+03  0.84641046595E+03  0.65864270000E+03 0.  1.
    8880022    1    1    2    0    0  0.43154656485E+03  0.58011132810E+02  0.15061216265E+04  0.15752433895E+04  0.15294330000E+03 0.  0.
<mgrwt>
<rscale>  0 0.69037390E+03</rscale>
<asrwt>0</asrwt>
<pdfrwt beam="1">  1        2 0.32559532E+00 0.78956186E+03</pdfrwt>
<pdfrwt beam="2">  1       -2 0.46966823E-01 0.78956186E+03</pdfrwt>
<totfact> 0.25469864E+01</totfact>
</mgrwt>
</event>
<event>
 4    1  0.3057048E-007  0.9781556E+03  0.7818608E-02  0.9410712E-01
         -2   -1    0    0    0  501 -0.00000000000E+00  0.00000000000E+00  0.86193494783E+03  0.86193494783E+03  0.25500000000E-02 0.  1.
          2   -1    0    0  501    0  0.00000000000E+00 -0.00000000000E+00 -0.96482720850E+03  0.96482720851E+03  0.25500000000E-02 0. -1.
    8880023    1    1    2    0    0 -0.32655450789E+03 -0.64524437301E+03  0.24715489763E+03  0.10088973670E+04  0.65864270000E+03 0.  1.
    8880022    1    1    2    0    0  0.32655450789E+03  0.64524437301E+03 -0.35004715830E+03  0.81786478930E+03  0.15294330000E+03 0.  0.
<mgrwt>
<rscale>  0 0.91199360E+03</rscale>
<asrwt>0</asrwt>
<pdfrwt beam="1">  1        2 0.14843495E+00 0.97815559E+03</pdfrwt>
<pdfrwt beam="2">  1       -2 0.13260538E+00 0.97815559E+03</pdfrwt>
<totfact> 0.10895638E+01</totfact>
</mgrwt>
</event>
<event>
 4    1  0.3057048E-007  0.7242607E+03  0.7818608E-02  0.9908424E-01
         -2   -1    0    0    0  501 -0.00000000000E+00  0.00000000000E+00  0.21618117904E+03  0.21618117906E+03  0.25500000000E-02 0.  1.
          2   -1    0    0  501    0  0.00000000000E+00 -0.00000000000E+00 -0.26668516511E+04  0.26668516511E+04  0.25500000000E-02 0. -1.
    8880023    1    1    2    0    0 -0.23755397796E+03  0.18523339481E+03 -0.44703124467E+03  0.85111129882E+03  0.65864270000E+03 0.  1.
    8880022    1    1    2    0    0  0.23755397796E+03 -0.18523339481E+03 -0.20036392274E+04  0.20319215314E+04  0.15294330000E+03 0.  0.
<mgrwt>
<rscale>  0 0.59854734E+03</rscale>
<asrwt>0</asrwt>
<pdfrwt beam="1">  1        2 0.41028485E+00 0.72426066E+03</pdfrwt>
<pdfrwt beam="2">  1       -2 0.33258645E-01 0.72426066E+03</pdfrwt>
<totfact> 0.24704311E+01</totfact>
</mgrwt>
</event>
<event>
 4    1  0.3057048E-007  0.6649795E+03  0.7818608E-02  0.1019551E+00
          2   -1    0    0  501    0  0.00000000000E+00  0.00000000000E+00  0.10895856222E+04  0.10895856222E+04  0.25500000000E-02 0. -1.
         -2   -1    0    0    0  501 -0.00000000000E+00 -0.00000000000E+00 -0.35067864814E+03  0.35067864815E+03  0.25500000000E-02 0.  1.
    8880023    1    1    2    0    0  0.67500540165E+02  0.61896678094E+02 -0.15420632129E+02  0.66515826977E+03  0.65864270000E+03 0.  1.
    8880022    1    1    2    0    0 -0.67500540165E+02 -0.61896678094E+02  0.75432760623E+03  0.77510600063E+03  0.15294330000E+03 0.  0.
<mgrwt>
<rscale>  0 0.47849127E+03</rscale>
<asrwt>0</asrwt>
<pdfrwt beam="1">  1        2 0.16762856E+00 0.66497949E+03</pdfrwt>
<pdfrwt beam="2">  1       -2 0.53950561E-01 0.66497949E+03</pdfrwt>
<totfact> 0.73202916E+01</totfact>
</mgrwt>
</event>
<event>
 4    1  0.3057048E-007  0.7086928E+03  0.7818608E-02  0.9962887E-01
          2   -1    0    0  501    0  0.00000000000E+00  0.00000000000E+00  0.24119445302E+04  0.24119445302E+04  0.25500000000E-02 0. -1.
         -2   -1    0    0    0  501 -0.00000000000E+00 -0.00000000000E+00 -0.12571285699E+03  0.12571285702E+03  0.25500000000E-02 0.  1.
    8880023    1    1    2    0    0  0.26159765811E+03  0.13945777637E+01  0.10639495723E+04  0.12783716902E+04  0.65864270000E+03 0.  1.
    8880022    1    1    2    0    0 -0.26159765811E+03 -0.13945777637E+01  0.12222821009E+04  0.12592856971E+04  0.15294330000E+03 0.  0.
<mgrwt>
<rscale>  0 0.57307937E+03</rscale>
<asrwt>0</asrwt>
<pdfrwt beam="1">  1        2 0.37106839E+00 0.70869280E+03</pdfrwt>
<pdfrwt beam="2">  1       -2 0.19340439E-01 0.70869280E+03</pdfrwt>
<totfact> 0.92216191E+01</totfact>
</mgrwt>
</event>
<event>
 4    1  0.3057048E-007  0.1177486E+04  0.7818608E-02  0.9179324E-01
          2   -1    0    0  501    0  0.00000000000E+00  0.00000000000E+00  0.15001648000E+04  0.15001648000E+04  0.25500000000E-02 0. -1.
         -2   -1    0    0    0  501 -0.00000000000E+00 -0.00000000000E+00 -0.12333615684E+04  0.12333615684E+04  0.25500000000E-02 0.  1.
    8880023    1    1    2    0    0 -0.19821010049E+03 -0.95570740192E+03 -0.68452470863E+03  0.13620015290E+04  0.65864270000E+03 0.  0.
    8880022    1    1    2    0    0  0.19821010049E+03  0.95570740192E+03  0.95132794029E+03  0.13715248394E+04  0.15294330000E+03 0.  0.
<mgrwt>
<rscale>  0 0.11269411E+04</rscale>
<asrwt>0</asrwt>
<pdfrwt beam="1">  1        2 0.23079458E+00 0.11774863E+04</pdfrwt>
<pdfrwt beam="2">  1       -2 0.18974793E+00 0.11774863E+04</pdfrwt>
<totfact> 0.19205660E+00</totfact>
</mgrwt>
</event>
<event>
 4    1  0.3057048E-007  0.9142546E+03  0.7818608E-02  0.9503525E-01
          2   -1    0    0  501    0  0.00000000000E+00  0.00000000000E+00  0.36840236351E+03  0.36840236352E+03  0.25500000000E-02 0. -1.
         -2   -1    0    0    0  501 -0.00000000000E+00 -0.00000000000E+00 -0.24098855545E+04  0.24098855545E+04  0.25500000000E-02 0.  1.
    8880023    1    1    2    0    0  0.62013576503E+03 -0.13222308955E+03 -0.19033808359E+04  0.21115681673E+04  0.65864270000E+03 0.  0.
    8880022    1    1    2    0    0 -0.62013576503E+03  0.13222308955E+03 -0.13810235507E+03  0.66671975070E+03  0.15294330000E+03 0.  0.
<mgrwt>
<rscale>  0 0.84024424E+03</rscale>
<asrwt>0</asrwt>
<pdfrwt beam="1">  1        2 0.56677288E-01 0.91425462E+03</pdfrwt>
<pdfrwt beam="2">  1       -2 0.37075161E+00 0.91425462E+03</pdfrwt>
<totfact> 0.10325192E+00</totfact>
</mgrwt>
</event>
<event>
 4    1  0.3057048E-007  0.1744627E+04  0.7818608E-02  0.8753801E-01
         -2   -1    0    0    0  501 -0.00000000000E+00  0.00000000000E+00  0.88041491632E+03  0.88041491633E+03  0.25500000000E-02 0.  1.
          2   -1    0    0  501    0  0.00000000000E+00 -0.00000000000E+00 -0.34493050790E+04  0.34493050790E+04  0.25500000000E-02 0. -1.
    8880023    1    1    2    0    0 -0.14922581017E+04  0.61893412911E+03 -0.18858633401E+04  0.25690863050E+04  0.65864270000E+03 0.  0.
    8880022    1    1    2    0    0  0.14922581017E+04 -0.61893412911E+03 -0.68302682254E+03  0.17606336904E+04  0.15294330000E+03 0.  0.
<mgrwt>
<rscale>  0 0.17133245E+04</rscale>
<asrwt>0</asrwt>
<pdfrwt beam="1">  1        2 0.53066231E+00 0.17446272E+04</pdfrwt>
<pdfrwt beam="2">  1       -2 0.13544845E+00 0.17446272E+04</pdfrwt>
<totfact> 0.32037293E-01</totfact>
</mgrwt>
</event>
<event>
 4    1  0.3057048E-007  0.7192267E+03  0.7818608E-02  0.9925211E-01
          2   -1    0    0  501    0  0.00000000000E+00  0.00000000000E+00  0.95921580201E+03  0.95921580202E+03  0.25500000000E-02 0. -1.
         -2   -1    0    0    0  501 -0.00000000000E+00 -0.00000000000E+00 -0.38787054637E+03  0.38787054638E+03  0.25500000000E-02 0.  1.
    8880023    1    1    2    0    0 -0.28883230090E+03  0.72633930500E+01  0.36382381444E+02  0.72014633156E+03  0.65864270000E+03 0.  1.
    8880022    1    1    2    0    0  0.28883230090E+03 -0.72633930500E+01  0.53496287420E+03  0.62694001683E+03  0.15294330000E+03 0.  0.
<mgrwt>
<rscale>  0 0.59054850E+03</rscale>
<asrwt>0</asrwt>
<pdfrwt beam="1">  1        2 0.14757166E+00 0.71922671E+03</pdfrwt>
<pdfrwt beam="2">  1       -2 0.59672392E-01 0.71922671E+03</pdfrwt>
<totfact> 0.71330465E+01</totfact>
</mgrwt>
</event>
<event>
 4    1  0.3057048E-007  0.6697267E+03  0.7818608E-02  0.1015860E+00
          2   -1    0    0  501    0  0.00000000000E+00  0.00000000000E+00  0.79679421010E+03  0.79679421010E+03  0.25500000000E-02 0. -1.
         -2   -1    0    0    0  501 -0.00000000000E+00 -0.00000000000E+00 -0.37014871853E+03  0.37014871853E+03  0.25500000000E-02 0.  1.
    8880023    1    1    2    0    0 -0.74986109291E+02  0.95397651929E+02 -0.29912503932E+02  0.67039435613E+03  0.65864270000E+03 0.  1.
    8880022    1    1    2    0    0  0.74986109291E+02 -0.95397651929E+02  0.45655799551E+03  0.49654857251E+03  0.15294330000E+03 0.  0.
<mgrwt>
<rscale>  0 0.49210819E+03</rscale>
<asrwt>0</asrwt>
<pdfrwt beam="1">  1        2 0.12258372E+00 0.66972669E+03</pdfrwt>
<pdfrwt beam="2">  1       -2 0.56945957E-01 0.66972669E+03</pdfrwt>
<totfact> 0.10191581E+02</totfact>
</mgrwt>
</event>
<event>
 4    1  0.3057048E-007  0.8261058E+03  0.7818608E-02  0.9656957E-01
          2   -1    0    0  501    0  0.00000000000E+00  0.00000000000E+00  0.28154562533E+04  0.28154562533E+04  0.25500000000E-02 0. -1.
         -2   -1    0    0    0  501 -0.00000000000E+00 -0.00000000000E+00 -0.31149784514E+03  0.31149784515E+03  0.25500000000E-02 0.  1.
    8880023    1    1    2    0    0 -0.82078462302E+02  0.49183708749E+03  0.32713721330E+03  0.88852099423E+03  0.65864270000E+03 0.  1.
    8880022    1    1    2    0    0  0.82078462302E+02 -0.49183708749E+03  0.21768211948E+04  0.22384331042E+04  0.15294330000E+03 0.  0.
<mgrwt>
<rscale>  0 0.73638393E+03</rscale>
<asrwt>0</asrwt>
<pdfrwt beam="1">  1        2 0.43314709E+00 0.82610580E+03</pdfrwt>
<pdfrwt beam="2">  1       -2 0.47922748E-01 0.82610580E+03</pdfrwt>
<totfact> 0.97508462E+00</totfact>
</mgrwt>
</event>
<event>
 4    1  0.3057048E-007  0.6679919E+03  0.7818608E-02  0.1017145E+00
         -2   -1    0    0    0  501 -0.00000000000E+00  0.00000000000E+00  0.52621986117E+03  0.52621986118E+03  0.25500000000E-02 0.  1.
          2   -1    0    0  501    0  0.00000000000E+00 -0.00000000000E+00 -0.36006482594E+03  0.36006482595E+03  0.25500000000E-02 0. -1.
    8880023    1    1    2    0    0  0.10026659120E+03 -0.48472058247E+02  0.19271393429E+03  0.69523506562E+03  0.65864270000E+03 0.  1.
    8880022    1    1    2    0    0 -0.10026659120E+03  0.48472058247E+02 -0.26558899055E+02  0.19104962150E+03  0.15294330000E+03 0.  1.
<mgrwt>
<rscale>  0 0.48731025E+03</rscale>
<asrwt>0</asrwt>
<pdfrwt beam="1">  1        2 0.55394589E-01 0.66799187E+03</pdfrwt>
<pdfrwt beam="2">  1       -2 0.80956902E-01 0.66799187E+03</pdfrwt>
<totfact> 0.12212841E+02</totfact>
</mgrwt>
</event>
<event>
 4    1  0.3057048E-007  0.1171526E+04  0.7818608E-02  0.9185310E-01
         -2   -1    0    0    0  501 -0.00000000000E+00  0.00000000000E+00  0.91775504492E+03  0.91775504493E+03  0.25500000000E-02 0.  1.
          2   -1    0    0  501    0  0.00000000000E+00 -0.00000000000E+00 -0.34207893879E+04  0.34207893879E+04  0.25500000000E-02 0. -1.
    8880023    1    1    2    0    0 -0.27448215914E+03 -0.92915210558E+03  0.42837814691E+03  0.12473901290E+04  0.65864270000E+03 0.  0.
    8880022    1    1    2    0    0  0.27448215914E+03  0.92915210558E+03 -0.29314124899E+04  0.30911543038E+04  0.15294330000E+03 0.  0.
<mgrwt>
<rscale>  0 0.11206348E+04</rscale>
<asrwt>0</asrwt>
<pdfrwt beam="1">  1        2 0.52627528E+00 0.11715265E+04</pdfrwt>
<pdfrwt beam="2">  1       -2 0.14119309E+00 0.11715265E+04</pdfrwt>
<totfact> 0.32357526E-01</totfact>
</mgrwt>
</event>
<event>
 4    1  0.3057048E-007  0.9031498E+03  0.7818608E-02  0.9520994E-01
         -2   -1    0    0    0  501 -0.00000000000E+00  0.00000000000E+00  0.57076719769E+03  0.57076719769E+03  0.25500000000E-02 0.  1.
          2   -1    0    0  501    0  0.00000000000E+00 -0.00000000000E+00 -0.16055790587E+04  0.16055790587E+04  0.25500000000E-02 0. -1.
    8880023    1    1    2    0    0  0.41296580247E+03  0.45970480925E+03  0.65100464416E+02  0.90549298307E+03  0.65864270000E+03 0.  1.
    8880022    1    1    2    0    0 -0.41296580247E+03 -0.45970480925E+03 -0.10999123254E+04  0.12708532733E+04  0.15294330000E+03 0.  0.
<mgrwt>
<rscale>  0 0.82753556E+03</rscale>
<asrwt>0</asrwt>
<pdfrwt beam="1">  1        2 0.24701216E+00 0.90314975E+03</pdfrwt>
<pdfrwt beam="2">  1       -2 0.87810339E-01 0.90314975E+03</pdfrwt>
<totfact> 0.12476328E+01</totfact>
</mgrwt>
</event>
<event>
 4    1  0.3057048E-007  0.7109667E+03  0.7818608E-02  0.9954428E-01
          2   -1    0    0  501    0  0.00000000000E+00  0.00000000000E+00  0.28130273890E+04  0.28130273890E+04  0.25500000000E-02 0. -1.
         -2   -1    0    0    0  501 -0.00000000000E+00 -0.00000000000E+00 -0.53847080612E+03  0.53847080612E+03  0.25500000000E-02 0.  1.
    8880023    1    1    2    0    0 -0.86274862540E+02  0.25341696675E+03 -0.29046584622E+03  0.76801310212E+03  0.65864270000E+03 0.  1.
    8880022    1    1    2    0    0  0.86274862540E+02 -0.25341696675E+03  0.25650224291E+04  0.25834850930E+04  0.15294330000E+03 0.  0.
<mgrwt>
<rscale>  0 0.57694436E+03</rscale>
<asrwt>0</asrwt>
<pdfrwt beam="1">  1        2 0.43277345E+00 0.71096675E+03</pdfrwt>
<pdfrwt beam="2">  1       -2 0.82841662E-01 0.71096675E+03</pdfrwt>
<totfact> 0.31005225E+00</totfact>
</mgrwt>
</event>
<event>
 4    1  0.3057048E-007  0.6725497E+03  0.7818608E-02  0.1013897E+00
          2   -1    0    0  501    0  0.00000000000E+00  0.00000000000E+00  0.43947948246E+04  0.43947948246E+04  0.25500000000E-02 0. -1.
         -2   -1    0    0    0  501 -0.00000000000E+00 -0.00000000000E+00 -0.40336230031E+03  0.40336230032E+03  0.25500000000E-02 0.  1.
    8880023    1    1    2    0    0  0.11809436227E+03 -0.67577002101E+02 -0.11868789651E+03  0.68294212980E+03  0.65864270000E+03 0.  1.
    8880022    1    1    2    0    0 -0.11809436227E+03  0.67577002101E+02  0.41101204208E+04  0.41152149951E+04  0.15294330000E+03 0.  0.
<mgrwt>
<rscale>  0 0.49954658E+03</rscale>
<asrwt>0</asrwt>
<pdfrwt beam="1">  1        2 0.67612229E+00 0.67254973E+03</pdfrwt>
<pdfrwt beam="2">  1       -2 0.62055738E-01 0.67254973E+03</pdfrwt>
<totfact> 0.43517681E-01</totfact>
</mgrwt>
</event>
<event>
 4    1  0.3057048E-007  0.6985893E+03  0.7818608E-02  0.1000310E+00
         -2   -1    0    0    0  501 -0.00000000000E+00  0.00000000000E+00  0.53560173648E+03  0.53560173648E+03  0.25500000000E-02 0.  1.
          2   -1    0    0  501    0  0.00000000000E+00 -0.00000000000E+00 -0.17280518493E+04  0.17280518493E+04  0.25500000000E-02 0. -1.
    8880023    1    1    2    0    0 -0.11306097709E+03  0.20355343478E+03  0.28916825737E+03  0.75607226684E+03  0.65864270000E+03 0.  1.
    8880022    1    1    2    0    0  0.11306097709E+03 -0.20355343478E+03 -0.14816183702E+04  0.15075813189E+04  0.15294330000E+03 0.  0.
<mgrwt>
<rscale>  0 0.55514324E+03</rscale>
<asrwt>0</asrwt>
<pdfrwt beam="1">  1        2 0.26585413E+00 0.69858929E+03</pdfrwt>
<pdfrwt beam="2">  1       -2 0.82400268E-01 0.69858929E+03</pdfrwt>
<totfact> 0.12680616E+01</totfact>
</mgrwt>
</event>
<event>
 4    1  0.3057048E-007  0.9111506E+03  0.7818608E-02  0.9508363E-01
          2   -1    0    0  501    0  0.00000000000E+00  0.00000000000E+00  0.16195476512E+04  0.16195476512E+04  0.25500000000E-02 0. -1.
         -2   -1    0    0    0  501 -0.00000000000E+00 -0.00000000000E+00 -0.60833511245E+03  0.60833511246E+03  0.25500000000E-02 0.  1.
    8880023    1    1    2    0    0 -0.20251077803E+03  0.59613305149E+03 -0.12523802068E+03  0.91971734700E+03  0.65864270000E+03 0.  1.
    8880022    1    1    2    0    0  0.20251077803E+03 -0.59613305149E+03  0.11364505594E+04  0.13081654167E+04  0.15294330000E+03 0.  0.
<mgrwt>
<rscale>  0 0.83670034E+03</rscale>
<asrwt>0</asrwt>
<pdfrwt beam="1">  1        2 0.24916117E+00 0.91115061E+03</pdfrwt>
<pdfrwt beam="2">  1       -2 0.93590018E-01 0.91115061E+03</pdfrwt>
<totfact> 0.10563158E+01</totfact>
</mgrwt>
</event>
<event>
 4    1  0.3057048E-007  0.6982454E+03  0.7818608E-02  0.1000456E+00
         -2   -1    0    0    0  501 -0.00000000000E+00  0.00000000000E+00  0.13742285729E+04  0.13742285729E+04  0.25500000000E-02 0.  1.
          2   -1    0    0  501    0  0.00000000000E+00 -0.00000000000E+00 -0.11412850207E+04  0.11412850207E+04  0.25500000000E-02 0. -1.
    8880023    1    1    2    0    0  0.17294986020E+03 -0.15435269726E+03  0.12659947708E+04  0.14457833085E+04  0.65864270000E+03 0.  1.
    8880022    1    1    2    0    0 -0.17294986020E+03  0.15435269726E+03 -0.10330512187E+04  0.10697302850E+04  0.15294330000E+03 0.  0.
<mgrwt>
<rscale>  0 0.55450773E+03</rscale>
<asrwt>0</asrwt>
<pdfrwt beam="1">  1        2 0.17558231E+00 0.69824538E+03</pdfrwt>
<pdfrwt beam="2">  1       -2 0.21141978E+00 0.69824538E+03</pdfrwt>
<totfact> 0.23897781E+00</totfact>
</mgrwt>
</event>
<event>
 4    1  0.3057048E-007  0.6951210E+03  0.7818608E-02  0.1001808E+00
         -2   -1    0    0    0  501 -0.00000000000E+00  0.00000000000E+00  0.40853850751E+03  0.40853850752E+03  0.25500000000E-02 0.  1.
          2   -1    0    0  501    0  0.00000000000E+00 -0.00000000000E+00 -0.14696607248E+04  0.14696607248E+04  0.25500000000E-02 0. -1.
    8880023    1    1    2    0    0  0.22211475399E+03 -0.69332460694E+01  0.85418289345E+02  0.70034957290E+03  0.65864270000E+03 0.  1.
    8880022    1    1    2    0    0 -0.22211475399E+03  0.69332460694E+01 -0.11465405067E+04  0.11778496594E+04  0.15294330000E+03 0.  0.
<mgrwt>
<rscale>  0 0.54864681E+03</rscale>
<asrwt>0</asrwt>
<pdfrwt beam="1">  1        2 0.22610165E+00 0.69512103E+03</pdfrwt>
<pdfrwt beam="2">  1       -2 0.62852079E-01 0.69512103E+03</pdfrwt>
<totfact> 0.31891056E+01</totfact>
</mgrwt>
</event>
<event>
 4    1  0.3057048E-007  0.7272241E+03  0.7818608E-02  0.9898859E-01
         -2   -1    0    0    0  501 -0.00000000000E+00  0.00000000000E+00  0.28977227855E+03  0.28977227856E+03  0.25500000000E-02 0.  1.
          2   -1    0    0  501    0  0.00000000000E+00 -0.00000000000E+00 -0.12264078951E+04  0.12264078951E+04  0.25500000000E-02 0. -1.
    8880023    1    1    2    0    0 -0.30801390188E+03 -0.13122256669E+02 -0.28853202826E+03  0.78237183932E+03  0.65864270000E+03 0. -1.
    8880022    1    1    2    0    0  0.30801390188E+03  0.13122256669E+02 -0.64810358832E+03  0.73380833436E+03  0.15294330000E+03 0.  0.
<mgrwt>
<rscale>  0 0.60316603E+03</rscale>
<asrwt>0</asrwt>
<pdfrwt beam="1">  1        2 0.18867813E+00 0.72722415E+03</pdfrwt>
<pdfrwt beam="2">  1       -2 0.44580351E-01 0.72722415E+03</pdfrwt>
<totfact> 0.88724847E+01</totfact>
</mgrwt>
</event>
<event>
 4    1  0.3057048E-007  0.1070334E+04  0.7818608E-02  0.9294828E-01
         -2   -1    0    0    0  501 -0.00000000000E+00  0.00000000000E+00  0.67275492875E+03  0.67275492875E+03  0.25500000000E-02 0.  1.
          2   -1    0    0  501    0  0.00000000000E+00 -0.00000000000E+00 -0.23340519965E+04  0.23340519965E+04  0.25500000000E-02 0. -1.
    8880023    1    1    2    0    0 -0.42637617489E+02 -0.84260659203E+03  0.72282291111E+02  0.10727715373E+04  0.65864270000E+03 0.  0.
    8880022    1    1    2    0    0  0.42637617489E+02  0.84260659203E+03 -0.17335793588E+04  0.19340353879E+04  0.15294330000E+03 0.  0.
<mgrwt>
<rscale>  0 0.10126042E+04</rscale>
<asrwt>0</asrwt>
<pdfrwt beam="1">  1        2 0.35908492E+00 0.10703336E+04</pdfrwt>
<pdfrwt beam="2">  1       -2 0.10350076E+00 0.10703336E+04</pdfrwt>
<totfact> 0.32864788E+00</totfact>
</mgrwt>
</event>
<event>
 4    1  0.3782137E-007  0.7372874E+03  0.7818608E-02  0.9867920E-01
          2   -1    0    0  501    0  0.00000000000E+00  0.00000000000E+00  0.17036916272E+04  0.17036916272E+04  0.25500000000E-02 0. -1.
         -2   -1    0    0    0  501 -0.00000000000E+00 -0.00000000000E+00 -0.11437809089E+04  0.11437809089E+04  0.25500000000E-02 0.  1.
    8880023    1    1    2    0    0  0.27316547641E+02 -0.33020651001E+03 -0.10017032560E+04  0.12437854125E+04  0.65864270000E+03 0.  1.
    8880022    1    1    2    0    0 -0.27316547641E+02  0.33020651001E+03  0.15616139743E+04  0.16036871237E+04  0.15294330000E+03 0.  0.
<mgrwt>
<rscale>  0 0.61841516E+03</rscale>
<asrwt>0</asrwt>
<pdfrwt beam="1">  1        2 0.26210640E+00 0.73728742E+03</pdfrwt>
<pdfrwt beam="2">  1       -2 0.17596629E+00 0.73728742E+03</pdfrwt>
<totfact> 0.19554555E+00</totfact>
</mgrwt>
</event>
<event>
 4    1  0.3057048E-007  0.7550853E+03  0.7818608E-02  0.9818001E-01
          2   -1    0    0  501    0  0.00000000000E+00  0.00000000000E+00  0.27870687747E+04  0.27870687747E+04  0.25500000000E-02 0. -1.
         -2   -1    0    0    0  501 -0.00000000000E+00 -0.00000000000E+00 -0.19627630701E+03  0.19627630703E+03  0.25500000000E-02 0.  1.
    8880023    1    1    2    0    0  0.28433920540E+03 -0.23557329142E+03  0.63341294721E+03  0.98557887930E+03  0.65864270000E+03 0.  1.
    8880022    1    1    2    0    0 -0.28433920540E+03  0.23557329142E+03  0.19573795205E+04  0.19977662024E+04  0.15294330000E+03 0.  0.
<mgrwt>
<rscale>  0 0.64405370E+03</rscale>
<asrwt>0</asrwt>
<pdfrwt beam="1">  1        2 0.42877981E+00 0.75508527E+03</pdfrwt>
<pdfrwt beam="2">  1       -2 0.30196355E-01 0.75508527E+03</pdfrwt>
<totfact> 0.25062141E+01</totfact>
</mgrwt>
</event>
<event>
 4    1  0.3057048E-007  0.6882381E+03  0.7818608E-02  0.1005001E+00
         -2   -1    0    0    0  501 -0.00000000000E+00  0.00000000000E+00  0.19736681485E+03  0.19736681487E+03  0.25500000000E-02 0.  1.
          2   -1    0    0  501    0  0.00000000000E+00 -0.00000000000E+00 -0.18313475522E+04  0.18313475522E+04  0.25500000000E-02 0. -1.
    8880023    1    1    2    0    0  0.15037175220E+03  0.13133878927E+03 -0.45932582952E+03  0.82743698573E+03  0.65864270000E+03 0.  1.
    8880022    1    1    2    0    0 -0.15037175220E+03 -0.13133878927E+03 -0.11746549078E+04  0.12012773813E+04  0.15294330000E+03 0.  0.
<mgrwt>
<rscale>  0 0.53510544E+03</rscale>
<asrwt>0</asrwt>
<pdfrwt beam="1">  1        2 0.28174577E+00 0.68823815E+03</pdfrwt>
<pdfrwt beam="2">  1       -2 0.30364127E-01 0.68823815E+03</pdfrwt>
<totfact> 0.85653061E+01</totfact>
</mgrwt>
</event>
<event>
 4    1  0.3057048E-007  0.7017878E+03  0.7818608E-02  0.9989864E-01
          2   -1    0    0  501    0  0.00000000000E+00  0.00000000000E+00  0.91892147073E+03  0.91892147074E+03  0.25500000000E-02 0. -1.
         -2   -1    0    0    0  501 -0.00000000000E+00 -0.00000000000E+00 -0.11732466647E+04  0.11732466647E+04  0.25500000000E-02 0.  1.
    8880023    1    1    2    0    0  0.14981274624E+03  0.19039963261E+03 -0.10407064506E+04  0.12552195033E+04  0.65864270000E+03 0.  1.
    8880022    1    1    2    0    0 -0.14981274624E+03 -0.19039963261E+03  0.78638125660E+03  0.83694863211E+03  0.15294330000E+03 0.  0.
<mgrwt>
<rscale>  0 0.56096918E+03</rscale>
<asrwt>0</asrwt>
<pdfrwt beam="1">  1        2 0.14137253E+00 0.70178778E+03</pdfrwt>
<pdfrwt beam="2">  1       -2 0.18049949E+00 0.70178778E+03</pdfrwt>
<totfact> 0.52617169E+00</totfact>
</mgrwt>
</event>
<event>
 4    1  0.3057048E-007  0.1317052E+04  0.7818608E-02  0.9050972E-01
          2   -1    0    0  501    0  0.00000000000E+00  0.00000000000E+00  0.44980265611E+04  0.44980265611E+04  0.25500000000E-02 0. -1.
         -2   -1    0    0    0  501 -0.00000000000E+00 -0.00000000000E+00 -0.48576118662E+03  0.48576118663E+03  0.25500000000E-02 0.  1.
    8880023    1    1    2    0    0 -0.88075201967E+03  0.72463230013E+03  0.34702749005E+04  0.37117966246E+04  0.65864270000E+03 0. -1.
    8880022    1    1    2    0    0  0.88075201967E+03 -0.72463230013E+03  0.54199047392E+03  0.12719911232E+04  0.15294330000E+03 0.  1.
<mgrwt>
<rscale>  0 0.12733469E+04</rscale>
<asrwt>0</asrwt>
<pdfrwt beam="1">  1        2 0.69200408E+00 0.13170521E+04</pdfrwt>
<pdfrwt beam="2">  1       -2 0.74732491E-01 0.13170521E+04</pdfrwt>
<totfact> 0.20166136E-01</totfact>
</mgrwt>
</event>
<event>
 4    1  0.3057048E-007  0.9735391E+03  0.7818608E-02  0.9417026E-01
         -2   -1    0    0    0  501 -0.00000000000E+00  0.00000000000E+00  0.34580816180E+03  0.34580816181E+03  0.25500000000E-02 0.  1.
          2   -1    0    0  501    0  0.00000000000E+00 -0.00000000000E+00 -0.43242045785E+04  0.43242045785E+04  0.25500000000E-02 0. -1.
    8880023    1    1    2    0    0  0.65754331060E+03 -0.28566587901E+03 -0.46123554482E+03  0.10772727760E+04  0.65864270000E+03 0.  0.
    8880022    1    1    2    0    0 -0.65754331060E+03  0.28566587901E+03 -0.35171608718E+04  0.35927399643E+04  0.15294330000E+03 0.  0.
<mgrwt>
<rscale>  0 0.90687662E+03</rscale>
<asrwt>0</asrwt>
<pdfrwt beam="1">  1        2 0.66526220E+00 0.97353911E+03</pdfrwt>
<pdfrwt beam="2">  1       -2 0.53201259E-01 0.97353911E+03</pdfrwt>
<totfact> 0.64510031E-01</totfact>
</mgrwt>
</event>
<event>
 4    1  0.3057048E-007  0.8719081E+03  0.7818608E-02  0.9572722E-01
          2   -1    0    0  501    0  0.00000000000E+00  0.00000000000E+00  0.71783780560E+03  0.71783780560E+03  0.25500000000E-02 0. -1.
         -2   -1    0    0    0  501 -0.00000000000E+00 -0.00000000000E+00 -0.14516785688E+04  0.14516785688E+04  0.25500000000E-02 0.  1.
    8880023    1    1    2    0    0  0.17427998060E+02  0.57106030091E+03 -0.11523067994E+04  0.14450033801E+04  0.65864270000E+03 0.  1.
    8880022    1    1    2    0    0 -0.17427998060E+02 -0.57106030091E+03  0.41846603620E+03  0.72451299426E+03  0.15294330000E+03 0. -1.
<mgrwt>
<rscale>  0 0.79128210E+03</rscale>
<asrwt>0</asrwt>
<pdfrwt beam="1">  1        2 0.11043659E+00 0.87190814E+03</pdfrwt>
<pdfrwt beam="2">  1       -2 0.22333516E+00 0.87190814E+03</pdfrwt>
<totfact> 0.37707059E+00</totfact>
</mgrwt>
</event>
<event>
 4    1  0.3057048E-007  0.6949802E+03  0.7818608E-02  0.1001870E+00
          2   -1    0    0  501    0  0.00000000000E+00  0.00000000000E+00  0.18385937803E+04  0.18385937803E+04  0.25500000000E-02 0. -1.
         -2   -1    0    0    0  501 -0.00000000000E+00 -0.00000000000E+00 -0.49768128430E+03  0.49768128430E+03  0.25500000000E-02 0.  1.
    8880023    1    1    2    0    0 -0.14810224253E+03  0.16508476505E+03 -0.23795472798E+03  0.73458826068E+03  0.65864270000E+03 0.  1.
    8880022    1    1    2    0    0  0.14810224253E+03 -0.16508476505E+03  0.15788672240E+04  0.16016868039E+04  0.15294330000E+03 0.  0.
<mgrwt>
<rscale>  0 0.54837875E+03</rscale>
<asrwt>0</asrwt>
<pdfrwt beam="1">  1        2 0.28286058E+00 0.69498019E+03</pdfrwt>
<pdfrwt beam="2">  1       -2 0.76566352E-01 0.69498019E+03</pdfrwt>
<totfact> 0.13023570E+01</totfact>
</mgrwt>
</event>
<event>
 4    1  0.3057048E-007  0.6599126E+03  0.7818608E-02  0.1024246E+00
         -2   -1    0    0    0  501 -0.00000000000E+00  0.00000000000E+00  0.44753357271E+03  0.44753357271E+03  0.25500000000E-02 0.  1.
          2   -1    0    0  501    0  0.00000000000E+00 -0.00000000000E+00 -0.70480645648E+03  0.70480645649E+03  0.25500000000E-02 0. -1.
    8880023    1    1    2    0    0 -0.19359734668E+02  0.36051250900E+02  0.18270959358E+03  0.68473899689E+03  0.65864270000E+03 0.  1.
    8880022    1    1    2    0    0  0.19359734668E+02 -0.36051250900E+02 -0.43998247736E+03  0.46760103231E+03  0.15294330000E+03 0.  0.
<mgrwt>
<rscale>  0 0.46184982E+03</rscale>
<asrwt>0</asrwt>
<pdfrwt beam="1">  1        2 0.10843176E+00 0.65991264E+03</pdfrwt>
<pdfrwt beam="2">  1       -2 0.68851319E-01 0.65991264E+03</pdfrwt>
<totfact> 0.79756056E+01</totfact>
</mgrwt>
</event>
<event>
 4    1  0.3057048E-007  0.9060604E+03  0.7818608E-02  0.9516372E-01
          2   -1    0    0  501    0  0.00000000000E+00  0.00000000000E+00  0.18203925081E+04  0.18203925081E+04  0.25500000000E-02 0. -1.
         -2   -1    0    0    0  501 -0.00000000000E+00 -0.00000000000E+00 -0.43101717085E+03  0.43101717086E+03  0.25500000000E-02 0.  1.
    8880023    1    1    2    0    0 -0.56543851214E+03  0.25964312246E+03  0.24291877203E+03  0.93805916558E+03  0.65864270000E+03 0.  1.
    8880022    1    1    2    0    0  0.56543851214E+03 -0.25964312246E+03  0.11464565652E+04  0.13133505134E+04  0.15294330000E+03 0.  0.
<mgrwt>
<rscale>  0 0.83087477E+03</rscale>
<asrwt>0</asrwt>
<pdfrwt beam="1">  1        2 0.28006038E+00 0.90606041E+03</pdfrwt>
<pdfrwt beam="2">  1       -2 0.66310334E-01 0.90606041E+03</pdfrwt>
<totfact> 0.17772833E+01</totfact>
</mgrwt>
</event>
<event>
 4    1  0.3057048E-007  0.7479983E+03  0.7818608E-02  0.9837233E-01
          2   -1    0    0  501    0  0.00000000000E+00  0.00000000000E+00  0.26188927161E+03  0.26188927162E+03  0.25500000000E-02 0. -1.
         -2   -1    0    0    0  501 -0.00000000000E+00 -0.00000000000E+00 -0.16681317607E+04  0.16681317607E+04  0.25500000000E-02 0.  1.
    8880023    1    1    2    0    0  0.32007771471E+03 -0.15245162514E+03 -0.13451114546E+04  0.15390991759E+04  0.65864270000E+03 0. -1.
    8880022    1    1    2    0    0 -0.32007771471E+03  0.15245162514E+03 -0.61131034418E+02  0.39092185644E+03  0.15294330000E+03 0.  0.
<mgrwt>
<rscale>  0 0.63402142E+03</rscale>
<asrwt>0</asrwt>
<pdfrwt beam="1">  1        2 0.40290658E-01 0.74799829E+03</pdfrwt>
<pdfrwt beam="2">  1       -2 0.25663565E+00 0.74799829E+03</pdfrwt>
<totfact> 0.76879576E+00</totfact>
</mgrwt>
</event>
<event>
 4    1  0.3057048E-007  0.9960235E+03  0.7818608E-02  0.9386779E-01
         -2   -1    0    0    0  501 -0.00000000000E+00  0.00000000000E+00  0.44392818969E+03  0.44392818970E+03  0.25500000000E-02 0.  1.
          2   -1    0    0  501    0  0.00000000000E+00 -0.00000000000E+00 -0.26351300770E+04  0.26351300770E+04  0.25500000000E-02 0. -1.
    8880023    1    1    2    0    0 -0.45040035736E+03 -0.59614772015E+03 -0.30055181334E+03  0.10403817496E+04  0.65864270000E+03 0.  1.
    8880022    1    1    2    0    0  0.45040035736E+03  0.59614772015E+03 -0.18906500740E+04  0.20386765171E+04  0.15294330000E+03 0.  0.
<mgrwt>
<rscale>  0 0.93171774E+03</rscale>
<asrwt>0</asrwt>
<pdfrwt beam="1">  1        2 0.40540462E+00 0.99602349E+03</pdfrwt>
<pdfrwt beam="2">  1       -2 0.68296646E-01 0.99602349E+03</pdfrwt>
<totfact> 0.57737606E+00</totfact>
</mgrwt>
</event>
<event>
 4    1  0.3057048E-007  0.6610743E+03  0.7818608E-02  0.1023082E+00
         -2   -1    0    0    0  501 -0.00000000000E+00  0.00000000000E+00  0.23775352738E+03  0.23775352739E+03  0.25500000000E-02 0.  1.
          2   -1    0    0  501    0  0.00000000000E+00 -0.00000000000E+00 -0.27643474926E+04  0.27643474926E+04  0.25500000000E-02 0. -1.
    8880023    1    1    2    0    0  0.85718319169E+01 -0.55996489455E+02 -0.23032804000E+03  0.70005020921E+03  0.65864270000E+03 0.  1.
    8880022    1    1    2    0    0 -0.85718319169E+01  0.55996489455E+02 -0.22962659252E+04  0.23020508108E+04  0.15294330000E+03 0.  0.
<mgrwt>
<rscale>  0 0.46590721E+03</rscale>
<asrwt>0</asrwt>
<pdfrwt beam="1">  1        2 0.42528421E+00 0.66107434E+03</pdfrwt>
<pdfrwt beam="2">  1       -2 0.36577468E-01 0.66107434E+03</pdfrwt>
<totfact> 0.18290219E+01</totfact>
</mgrwt>
</event>
<event>
 4    1  0.3057048E-007  0.7224442E+03  0.7818608E-02  0.9914401E-01
         -2   -1    0    0    0  501 -0.00000000000E+00  0.00000000000E+00  0.58581467429E+03  0.58581467429E+03  0.25500000000E-02 0.  1.
          2   -1    0    0  501    0  0.00000000000E+00 -0.00000000000E+00 -0.81827496424E+03  0.81827496424E+03  0.25500000000E-02 0. -1.
    8880023    1    1    2    0    0  0.29280796241E+03 -0.48773582715E+02  0.29455840660E+03  0.78018602037E+03  0.65864270000E+03 0.  1.
    8880022    1    1    2    0    0 -0.29280796241E+03  0.48773582715E+02 -0.52701869656E+03  0.62390361816E+03  0.15294330000E+03 0.  0.
<mgrwt>
<rscale>  0 0.59568408E+03</rscale>
<asrwt>0</asrwt>
<pdfrwt beam="1">  1        2 0.12588846E+00 0.72244416E+03</pdfrwt>
<pdfrwt beam="2">  1       -2 0.90125335E-01 0.72244416E+03</pdfrwt>
<totfact> 0.35789914E+01</totfact>
</mgrwt>
</event>
<event>
 4    1  0.3057048E-007  0.7887721E+03  0.7818608E-02  0.9735621E-01
         -2   -1    0    0    0  501 -0.00000000000E+00  0.00000000000E+00  0.23209018627E+03  0.23209018628E+03  0.25500000000E-02 0.  1.
          2   -1    0    0  501    0  0.00000000000E+00 -0.00000000000E+00 -0.22478540399E+04  0.22478540399E+04  0.25500000000E-02 0. -1.
    8880023    1    1    2    0    0  0.19394166902E+03 -0.38824962282E+03 -0.59931624735E+03  0.99062672647E+03  0.65864270000E+03 0.  1.
    8880022    1    1    2    0    0 -0.19394166902E+03  0.38824962282E+03 -0.14164476063E+04  0.14893174997E+04  0.15294330000E+03 0.  1.
<mgrwt>
<rscale>  0 0.68934990E+03</rscale>
<asrwt>0</asrwt>
<pdfrwt beam="1">  1        2 0.34582368E+00 0.78877205E+03</pdfrwt>
<pdfrwt beam="2">  1       -2 0.35706184E-01 0.78877205E+03</pdfrwt>
<totfact> 0.36897759E+01</totfact>
</mgrwt>
</event>
<event>
 4    1  0.3057048E-007  0.7158452E+03  0.7818608E-02  0.9936904E-01
          2   -1    0    0  501    0  0.00000000000E+00  0.00000000000E+00  0.14529143354E+04  0.14529143354E+04  0.25500000000E-02 0. -1.
         -2   -1    0    0    0  501 -0.00000000000E+00 -0.00000000000E+00 -0.23555077741E+03  0.23555077742E+03  0.25500000000E-02 0.  1.
    8880023    1    1    2    0    0  0.85150243679E+02  0.26715830712E+03  0.42106893872E+03  0.83050188590E+03  0.65864270000E+03 0.  0.
    8880022    1    1    2    0    0 -0.85150243679E+02 -0.26715830712E+03  0.79629461924E+03  0.85796322690E+03  0.15294330000E+03 0.  1.
<mgrwt>
<rscale>  0 0.58505642E+03</rscale>
<asrwt>0</asrwt>
<pdfrwt beam="1">  1        2 0.22352529E+00 0.71584519E+03</pdfrwt>
<pdfrwt beam="2">  1       -2 0.36238580E-01 0.71584519E+03</pdfrwt>
<totfact> 0.98749494E+01</totfact>
</mgrwt>
</event>
<event>
 4    1  0.3057048E-007  0.6949736E+03  0.7818608E-02  0.1001873E+00
         -2   -1    0    0    0  501 -0.00000000000E+00  0.00000000000E+00  0.46205506126E+03  0.46205506127E+03  0.25500000000E-02 0.  1.
          2   -1    0    0  501    0  0.00000000000E+00 -0.00000000000E+00 -0.58368580789E+03  0.58368580790E+03  0.25500000000E-02 0. -1.
    8880023    1    1    2    0    0  0.14102241493E+03 -0.17114533123E+03  0.93180576142E+02  0.70119246427E+03  0.65864270000E+03 0.  1.
    8880022    1    1    2    0    0 -0.14102241493E+03  0.17114533123E+03 -0.21481132277E+03  0.34454840490E+03  0.15294330000E+03 0. -1.
<mgrwt>
<rscale>  0 0.54836614E+03</rscale>
<asrwt>0</asrwt>
<pdfrwt beam="1">  1        2 0.89797816E-01 0.69497356E+03</pdfrwt>
<pdfrwt beam="2">  1       -2 0.71085394E-01 0.69497356E+03</pdfrwt>
<totfact> 0.93526732E+01</totfact>
</mgrwt>
</event>
<event>
 4    1  0.3057048E-007  0.8014006E+03  0.7818608E-02  0.9707776E-01
         -2   -1    0    0    0  501 -0.00000000000E+00  0.00000000000E+00  0.33413806854E+03  0.33413806855E+03  0.25500000000E-02 0.  1.
          2   -1    0    0  501    0  0.00000000000E+00 -0.00000000000E+00 -0.18189608206E+04  0.18189608206E+04  0.25500000000E-02 0. -1.
    8880023    1    1    2    0    0 -0.16896594559E+02 -0.45623147157E+03 -0.26888894917E+03  0.84530711804E+03  0.65864270000E+03 0.  0.
    8880022    1    1    2    0    0  0.16896594559E+02  0.45623147157E+03 -0.12159338029E+04  0.13077917711E+04  0.15294330000E+03 0.  0.
<mgrwt>
<rscale>  0 0.70555699E+03</rscale>
<asrwt>0</asrwt>
<pdfrwt beam="1">  1        2 0.27984012E+00 0.80140056E+03</pdfrwt>
<pdfrwt beam="2">  1       -2 0.51405858E-01 0.80140056E+03</pdfrwt>
<totfact> 0.30790706E+01</totfact>
</mgrwt>
</event>
<event>
 4    1  0.3057048E-007  0.7497736E+03  0.7818608E-02  0.9832340E-01
         -2   -1    0    0    0  501 -0.00000000000E+00  0.00000000000E+00  0.30701860299E+03  0.30701860300E+03  0.25500000000E-02 0.  1.
          2   -1    0    0  501    0  0.00000000000E+00 -0.00000000000E+00 -0.12250929518E+04  0.12250929518E+04  0.25500000000E-02 0. -1.
    8880023    1    1    2    0    0  0.34788891338E+03 -0.85577717816E+02 -0.31298830936E+03  0.81247900274E+03  0.65864270000E+03 0.  0.
    8880022    1    1    2    0    0 -0.34788891338E+03  0.85577717816E+02 -0.60508603944E+03  0.71963255205E+03  0.15294330000E+03 0.  0.
<mgrwt>
<rscale>  0 0.63655480E+03</rscale>
<asrwt>0</asrwt>
<pdfrwt beam="1">  1        2 0.18847584E+00 0.74977360E+03</pdfrwt>
<pdfrwt beam="2">  1       -2 0.47233632E-01 0.74977360E+03</pdfrwt>
<totfact> 0.79019301E+01</totfact>
</mgrwt>
</event>
<event>
 4    1  0.3057048E-007  0.1176908E+04  0.7818608E-02  0.9179902E-01
         -2   -1    0    0    0  501 -0.00000000000E+00  0.00000000000E+00  0.58147985742E+03  0.58147985742E+03  0.25500000000E-02 0.  1.
          2   -1    0    0  501    0  0.00000000000E+00 -0.00000000000E+00 -0.23306111789E+04  0.23306111789E+04  0.25500000000E-02 0. -1.
    8880023    1    1    2    0    0 -0.84921375195E+03  0.47972805560E+03 -0.14759344465E+04  0.18877223579E+04  0.65864270000E+03 0.  1.
    8880022    1    1    2    0    0  0.84921375195E+03 -0.47972805560E+03 -0.27319687497E+03  0.10243686784E+04  0.15294330000E+03 0.  0.
<mgrwt>
<rscale>  0 0.11263297E+04</rscale>
<asrwt>0</asrwt>
<pdfrwt beam="1">  1        2 0.35855556E+00 0.11769083E+04</pdfrwt>
<pdfrwt beam="2">  1       -2 0.89458441E-01 0.11769083E+04</pdfrwt>
<totfact> 0.45999007E+00</totfact>
</mgrwt>
</event>
<event>
 4    1  0.3057048E-007  0.1044663E+04  0.7818608E-02  0.9325325E-01
          2   -1    0    0  501    0  0.00000000000E+00  0.00000000000E+00  0.14351224535E+04  0.14351224535E+04  0.25500000000E-02 0. -1.
         -2   -1    0    0    0  501 -0.00000000000E+00 -0.00000000000E+00 -0.12291923917E+04  0.12291923917E+04  0.25500000000E-02 0.  1.
    8880023    1    1    2    0    0  0.36975204508E+03  0.72166035937E+03 -0.83402567259E+03  0.13367570003E+04  0.65864270000E+03 0.  0.
    8880022    1    1    2    0    0 -0.36975204508E+03 -0.72166035937E+03  0.10399557344E+04  0.13275578449E+04  0.15294330000E+03 0.  0.
<mgrwt>
<rscale>  0 0.98484453E+03</rscale>
<asrwt>0</asrwt>
<pdfrwt beam="1">  1        2 0.22078807E+00 0.10446628E+04</pdfrwt>
<pdfrwt beam="2">  1       -2 0.18910652E+00 0.10446628E+04</pdfrwt>
<totfact> 0.21436739E+00</totfact>
</mgrwt>
</event>
<event>
 4    1  0.3057048E-007  0.9732861E+03  0.7818608E-02  0.9417374E-01
         -2   -1    0    0    0  501 -0.00000000000E+00  0.00000000000E+00  0.26569982301E+03  0.26569982303E+03  0.25500000000E-02 0.  1.
          2   -1    0    0  501    0  0.00000000000E+00 -0.00000000000E+00 -0.40394098717E+04  0.40394098717E+04  0.25500000000E-02 0. -1.
    8880023    1    1    2    0    0  0.52464889545E+03  0.48807707853E+03 -0.85390914365E+03  0.12947767105E+04  0.65864270000E+03 0. -1.
    8880022    1    1    2    0    0 -0.52464889545E+03 -0.48807707853E+03 -0.29198009051E+04  0.30103329843E+04  0.15294330000E+03 0.  0.
<mgrwt>
<rscale>  0 0.90659596E+03</rscale>
<asrwt>0</asrwt>
<pdfrwt beam="1">  1        2 0.62144763E+00 0.97328614E+03</pdfrwt>
<pdfrwt beam="2">  1       -2 0.40876899E-01 0.97328614E+03</pdfrwt>
<totfact> 0.19112174E+00</totfact>
</mgrwt>
</event>
<event>
 4    1  0.3057048E-007  0.1001156E+04  0.7818608E-02  0.9380047E-01
          2   -1    0    0  501    0  0.00000000000E+00  0.00000000000E+00  0.10621700293E+04  0.10621700293E+04  0.25500000000E-02 0. -1.
         -2   -1    0    0    0  501 -0.00000000000E+00 -0.00000000000E+00 -0.11348852595E+04  0.11348852595E+04  0.25500000000E-02 0.  1.
    8880023    1    1    2    0    0  0.49114913676E+03 -0.57207924324E+03 -0.68561705797E+03  0.12134179377E+04  0.65864270000E+03 0.  1.
    8880022    1    1    2    0    0 -0.49114913676E+03  0.57207924324E+03  0.61290182768E+03  0.98363735110E+03  0.15294330000E+03 0.  0.
<mgrwt>
<rscale>  0 0.93736045E+03</rscale>
<asrwt>0</asrwt>
<pdfrwt beam="1">  1        2 0.16341077E+00 0.10011555E+04</pdfrwt>
<pdfrwt beam="2">  1       -2 0.17459773E+00 0.10011555E+04</pdfrwt>
<totfact> 0.45078547E+00</totfact>
</mgrwt>
</event>
<event>
 4    1  0.3057048E-007  0.6961649E+03  0.7818608E-02  0.1001350E+00
          2   -1    0    0  501    0  0.00000000000E+00  0.00000000000E+00  0.25789488890E+04  0.25789488890E+04  0.25500000000E-02 0. -1.
         -2   -1    0    0    0  501 -0.00000000000E+00 -0.00000000000E+00 -0.21276421784E+03  0.21276421786E+03  0.25500000000E-02 0.  1.
    8880023    1    1    2    0    0  0.20615875665E+03  0.91290431917E+02  0.39225028040E+03  0.79906561973E+03  0.65864270000E+03 0.  0.
    8880022    1    1    2    0    0 -0.20615875665E+03 -0.91290431917E+02  0.19739343907E+04  0.19926474871E+04  0.15294330000E+03 0.  0.
<mgrwt>
<rscale>  0 0.55062301E+03</rscale>
<asrwt>0</asrwt>
<pdfrwt beam="1">  1        2 0.39676133E+00 0.69616491E+03</pdfrwt>
<pdfrwt beam="2">  1       -2 0.32732960E-01 0.69616491E+03</pdfrwt>
<totfact> 0.28727557E+01</totfact>
</mgrwt>
</event>
<event>
 4    1  0.3057048E-007  0.1046436E+04  0.7818608E-02  0.9323178E-01
         -2   -1    0    0    0  501 -0.00000000000E+00  0.00000000000E+00  0.36183654194E+03  0.36183654195E+03  0.25500000000E-02 0.  1.
          2   -1    0    0  501    0  0.00000000000E+00 -0.00000000000E+00 -0.29060726416E+04  0.29060726416E+04  0.25500000000E-02 0. -1.
    8880023    1    1    2    0    0  0.77656846317E+03 -0.24116229018E+03 -0.73595513193E+03  0.12793193466E+04  0.65864270000E+03 0.  0.
    8880022    1    1    2    0    0 -0.77656846317E+03  0.24116229018E+03 -0.18082809677E+04  0.19885898369E+04  0.15294330000E+03 0.  0.
<mgrwt>
<rscale>  0 0.98676748E+03</rscale>
<asrwt>0</asrwt>
<pdfrwt beam="1">  1        2 0.44708808E+00 0.10464359E+04</pdfrwt>
<pdfrwt beam="2">  1       -2 0.55667162E-01 0.10464359E+04</pdfrwt>
<totfact> 0.61250680E+00</totfact>
</mgrwt>
</event>
<event>
 4    1  0.3057048E-007  0.6650035E+03  0.7818608E-02  0.1019530E+00
         -2   -1    0    0    0  501 -0.00000000000E+00  0.00000000000E+00  0.27202559400E+03  0.27202559401E+03  0.25500000000E-02 0.  1.
          2   -1    0    0  501    0  0.00000000000E+00 -0.00000000000E+00 -0.67212387578E+03  0.67212387579E+03  0.25500000000E-02 0. -1.
    8880023    1    1    2    0    0  0.16574260258E+02 -0.90248227268E+02 -0.24798653826E+03  0.70973725987E+03  0.65864270000E+03 0.  1.
    8880022    1    1    2    0    0 -0.16574260258E+02  0.90248227268E+02 -0.15211174353E+03  0.23441220993E+03  0.15294330000E+03 0. -1.
<mgrwt>
<rscale>  0 0.47856429E+03</rscale>
<asrwt>0</asrwt>
<pdfrwt beam="1">  1        2 0.10340367E+00 0.66500350E+03</pdfrwt>
<pdfrwt beam="2">  1       -2 0.41850092E-01 0.66500350E+03</pdfrwt>
<totfact> 0.23628566E+02</totfact>
</mgrwt>
</event>
<event>
 4    1  0.3057048E-007  0.8093790E+03  0.7818608E-02  0.9690872E-01
         -2   -1    0    0    0  501 -0.00000000000E+00  0.00000000000E+00  0.98670344955E+03  0.98670344956E+03  0.25500000000E-02 0.  1.
          2   -1    0    0  501    0  0.00000000000E+00 -0.00000000000E+00 -0.71443754490E+03  0.71443754490E+03  0.25500000000E-02 0. -1.
    8880023    1    1    2    0    0 -0.24118455646E+03  0.40387398997E+03  0.68233575330E+03  0.10586200813E+04  0.65864270000E+03 0.  0.
    8880022    1    1    2    0    0  0.24118455646E+03 -0.40387398997E+03 -0.41006984865E+03  0.64252091315E+03  0.15294330000E+03 0.  0.
<mgrwt>
<rscale>  0 0.71562885E+03</rscale>
<asrwt>0</asrwt>
<pdfrwt beam="1">  1        2 0.10991347E+00 0.80937902E+03</pdfrwt>
<pdfrwt beam="2">  1       -2 0.15180053E+00 0.80937902E+03</pdfrwt>
<totfact> 0.11696170E+01</totfact>
</mgrwt>
</event>
<event>
 4    1  0.3057048E-007  0.9914432E+03  0.7818608E-02  0.9392839E-01
          2   -1    0    0  501    0  0.00000000000E+00  0.00000000000E+00  0.22113114663E+04  0.22113114663E+04  0.25500000000E-02 0. -1.
         -2   -1    0    0    0  501 -0.00000000000E+00 -0.00000000000E+00 -0.44982733932E+03  0.44982733933E+03  0.25500000000E-02 0.  1.
    8880023    1    1    2    0    0 -0.71639349762E+03 -0.18955150030E+03  0.33520567409E+03  0.10465765452E+04  0.65864270000E+03 0.  1.
    8880022    1    1    2    0    0  0.71639349762E+03  0.18955150030E+03  0.14262784529E+04  0.16145622605E+04  0.15294330000E+03 0.  0.
<mgrwt>
<rscale>  0 0.92667343E+03</rscale>
<asrwt>0</asrwt>
<pdfrwt beam="1">  1        2 0.34020176E+00 0.99144320E+03</pdfrwt>
<pdfrwt beam="2">  1       -2 0.69204207E-01 0.99144320E+03</pdfrwt>
<totfact> 0.97674244E+00</totfact>
</mgrwt>
</event>
<event>
 4    1  0.3057048E-007  0.9314062E+03  0.7818608E-02  0.9477387E-01
          2   -1    0    0  501    0  0.00000000000E+00  0.00000000000E+00  0.17197847483E+04  0.17197847483E+04  0.25500000000E-02 0. -1.
         -2   -1    0    0    0  501 -0.00000000000E+00 -0.00000000000E+00 -0.50531560040E+03  0.50531560041E+03  0.25500000000E-02 0.  1.
    8880023    1    1    2    0    0 -0.50529278460E+03  0.42235824687E+03  0.12063301192E+03  0.93918572002E+03  0.65864270000E+03 0.  1.
    8880022    1    1    2    0    0  0.50529278460E+03 -0.42235824687E+03  0.10938361360E+04  0.12859146287E+04  0.15294330000E+03 0.  0.
<mgrwt>
<rscale>  0 0.85971720E+03</rscale>
<asrwt>0</asrwt>
<pdfrwt beam="1">  1        2 0.26458227E+00 0.93140619E+03</pdfrwt>
<pdfrwt beam="2">  1       -2 0.77740860E-01 0.93140619E+03</pdfrwt>
<totfact> 0.14183095E+01</totfact>
</mgrwt>
</event>
<event>
 4    1  0.3057048E-007  0.7030833E+03  0.7818608E-02  0.9984643E-01
         -2   -1    0    0    0  501 -0.00000000000E+00  0.00000000000E+00  0.93307137264E+03  0.93307137264E+03  0.25500000000E-02 0.  1.
          2   -1    0    0  501    0  0.00000000000E+00 -0.00000000000E+00 -0.36222982017E+03  0.36222982018E+03  0.25500000000E-02 0. -1.
    8880023    1    1    2    0    0  0.89161622096E+02 -0.22927293228E+03  0.68719402158E+03  0.98313869922E+03  0.65864270000E+03 0.  1.
    8880022    1    1    2    0    0 -0.89161622096E+02  0.22927293228E+03 -0.11635246912E+03  0.31216249361E+03  0.15294330000E+03 0.  0.
<mgrwt>
<rscale>  0 0.56328759E+03</rscale>
<asrwt>0</asrwt>
<pdfrwt beam="1">  1        2 0.55727666E-01 0.70308327E+03</pdfrwt>
<pdfrwt beam="2">  1       -2 0.14354944E+00 0.70308327E+03</pdfrwt>
<totfact> 0.30381848E+01</totfact>
</mgrwt>
</event>
<event>
 4    1  0.3057048E-007  0.9505362E+03  0.7818608E-02  0.9449343E-01
          2   -1    0    0  501    0  0.00000000000E+00  0.00000000000E+00  0.11973168119E+04  0.11973168119E+04  0.25500000000E-02 0. -1.
         -2   -1    0    0    0  501 -0.00000000000E+00 -0.00000000000E+00 -0.87068244318E+03  0.87068244319E+03  0.25500000000E-02 0.  1.
    8880023    1    1    2    0    0 -0.12958711060E+03  0.67299033711E+03 -0.42338211057E+03  0.10405630355E+04  0.65864270000E+03 0.  0.
    8880022    1    1    2    0    0  0.12958711060E+03 -0.67299033711E+03  0.75001647931E+03  0.10274362196E+04  0.15294330000E+03 0.  0.
<mgrwt>
<rscale>  0 0.88123840E+03</rscale>
<asrwt>0</asrwt>
<pdfrwt beam="1">  1        2 0.18420259E+00 0.95053617E+03</pdfrwt>
<pdfrwt beam="2">  1       -2 0.13395115E+00 0.95053617E+03</pdfrwt>
<totfact> 0.76270269E+00</totfact>
</mgrwt>
</event>
<event>
 4    1  0.3057048E-007  0.6785855E+03  0.7818608E-02  0.1010135E+00
          2   -1    0    0  501    0  0.00000000000E+00  0.00000000000E+00  0.13182786916E+04  0.13182786916E+04  0.25500000000E-02 0. -1.
         -2   -1    0    0    0  501 -0.00000000000E+00 -0.00000000000E+00 -0.16581796821E+03  0.16581796823E+03  0.25500000000E-02 0.  1.
    8880023    1    1    2    0    0  0.12499028875E+03 -0.10509774652E+03  0.67660477256E+03  0.95826527283E+03  0.65864270000E+03 0.  1.
    8880022    1    1    2    0    0 -0.12499028875E+03  0.10509774652E+03  0.47585595086E+03  0.52583138703E+03  0.15294330000E+03 0. -1.
<mgrwt>
<rscale>  0 0.51420884E+03</rscale>
<asrwt>0</asrwt>
<pdfrwt beam="1">  1        2 0.20281212E+00 0.67858553E+03</pdfrwt>
<pdfrwt beam="2">  1       -2 0.25510455E-01 0.67858553E+03</pdfrwt>
<totfact> 0.22668740E+02</totfact>
</mgrwt>
</event>
<event>
 4    1  0.3057048E-007  0.7512086E+03  0.7818608E-02  0.9828423E-01
         -2   -1    0    0    0  501 -0.00000000000E+00  0.00000000000E+00  0.19658937167E+03  0.19658937169E+03  0.25500000000E-02 0.  1.
          2   -1    0    0  501    0  0.00000000000E+00 -0.00000000000E+00 -0.20741785091E+04  0.20741785091E+04  0.25500000000E-02 0. -1.
    8880023    1    1    2    0    0 -0.36091552088E+03  0.15626974923E+02 -0.68979687768E+03  0.10198696751E+04  0.65864270000E+03 0. -1.
    8880022    1    1    2    0    0  0.36091552088E+03 -0.15626974923E+02 -0.11877922598E+04  0.12508982057E+04  0.15294330000E+03 0.  0.
<mgrwt>
<rscale>  0 0.63859248E+03</rscale>
<asrwt>0</asrwt>
<pdfrwt beam="1">  1        2 0.31910437E+00 0.75120864E+03</pdfrwt>
<pdfrwt beam="2">  1       -2 0.30244520E-01 0.75120864E+03</pdfrwt>
<totfact> 0.63165978E+01</totfact>
</mgrwt>
</event>
<event>
 4    1  0.3057048E-007  0.6670727E+03  0.7818608E-02  0.1017854E+00
          2   -1    0    0  501    0  0.00000000000E+00  0.00000000000E+00  0.11817964753E+04  0.11817964753E+04  0.25500000000E-02 0. -1.
         -2   -1    0    0    0  501 -0.00000000000E+00 -0.00000000000E+00 -0.20230588400E+03  0.20230588401E+03  0.25500000000E-02 0.  1.
    8880023    1    1    2    0    0 -0.15547725570E+02  0.10456581104E+03  0.40526832991E+03  0.78053082329E+03  0.65864270000E+03 0.  1.
    8880022    1    1    2    0    0  0.15547725570E+02 -0.10456581104E+03  0.57422226135E+03  0.60357153599E+03  0.15294330000E+03 0.  0.
<mgrwt>
<rscale>  0 0.48468903E+03</rscale>
<asrwt>0</asrwt>
<pdfrwt beam="1">  1        2 0.18181485E+00 0.66707267E+03</pdfrwt>
<pdfrwt beam="2">  1       -2 0.31123981E-01 0.66707267E+03</pdfrwt>
<totfact> 0.18912303E+02</totfact>
</mgrwt>
</event>
<event>
 4    1  0.3057048E-007  0.8144562E+03  0.7818608E-02  0.9680368E-01
          2   -1    0    0  501    0  0.00000000000E+00  0.00000000000E+00  0.21603940081E+04  0.21603940081E+04  0.25500000000E-02 0. -1.
         -2   -1    0    0    0  501 -0.00000000000E+00 -0.00000000000E+00 -0.33306054305E+03  0.33306054306E+03  0.25500000000E-02 0.  1.
    8880023    1    1    2    0    0  0.20626937084E+03 -0.43241378601E+03  0.27174887198E+03  0.85859559244E+03  0.65864270000E+03 0.  1.
    8880022    1    1    2    0    0 -0.20626937084E+03  0.43241378601E+03  0.15555845931E+04  0.16348589588E+04  0.15294330000E+03 0.  0.
<mgrwt>
<rscale>  0 0.72197771E+03</rscale>
<asrwt>0</asrwt>
<pdfrwt beam="1">  1        2 0.33236830E+00 0.81445622E+03</pdfrwt>
<pdfrwt beam="2">  1       -2 0.51240085E-01 0.81445622E+03</pdfrwt>
<totfact> 0.20119608E+01</totfact>
</mgrwt>
</event>
<event>
 4    1  0.3057048E-007  0.7956581E+03  0.7818608E-02  0.9720264E-01
         -2   -1    0    0    0  501 -0.00000000000E+00  0.00000000000E+00  0.13260633033E+04  0.13260633033E+04  0.25500000000E-02 0.  1.
          2   -1    0    0  501    0  0.00000000000E+00 -0.00000000000E+00 -0.39565592007E+03  0.39565592008E+03  0.25500000000E-02 0. -1.
    8880023    1    1    2    0    0 -0.19692811150E+02  0.44595275199E+03  0.96247247846E+03  0.12487694510E+04  0.65864270000E+03 0.  1.
    8880022    1    1    2    0    0  0.19692811150E+02 -0.44595275199E+03 -0.32065095213E+02  0.47294977235E+03  0.15294330000E+03 0.  0.
<mgrwt>
<rscale>  0 0.69823004E+03</rscale>
<asrwt>0</asrwt>
<pdfrwt beam="1">  1        2 0.60870141E-01 0.79565814E+03</pdfrwt>
<pdfrwt beam="2">  1       -2 0.20400974E+00 0.79565814E+03</pdfrwt>
<totfact> 0.10226405E+01</totfact>
</mgrwt>
</event>
<event>
 4    1  0.3057048E-007  0.7584719E+03  0.7818608E-02  0.9809080E-01
          2   -1    0    0  501    0  0.00000000000E+00  0.00000000000E+00  0.17706743271E+04  0.17706743271E+04  0.25500000000E-02 0. -1.
         -2   -1    0    0    0  501 -0.00000000000E+00 -0.00000000000E+00 -0.25601821135E+03  0.25601821136E+03  0.25500000000E-02 0.  1.
    8880023    1    1    2    0    0  0.31412632085E+03 -0.20686739370E+03  0.43762578697E+03  0.87566888703E+03  0.65864270000E+03 0.  1.
    8880022    1    1    2    0    0 -0.31412632085E+03  0.20686739370E+03  0.10770303288E+04  0.11510236515E+04  0.15294330000E+03 0.  0.
<mgrwt>
<rscale>  0 0.64877546E+03</rscale>
<asrwt>0</asrwt>
<pdfrwt beam="1">  1        2 0.27241143E+00 0.75847193E+03</pdfrwt>
<pdfrwt beam="2">  1       -2 0.39387418E-01 0.75847193E+03</pdfrwt>
<totfact> 0.55938575E+01</totfact>
</mgrwt>
</event>
<event>
 4    1  0.3057048E-007  0.6753962E+03  0.7818608E-02  0.1012058E+00
          2   -1    0    0  501    0  0.00000000000E+00  0.00000000000E+00  0.14990028190E+04  0.14990028190E+04  0.25500000000E-02 0. -1.
         -2   -1    0    0    0  501 -0.00000000000E+00 -0.00000000000E+00 -0.21638545630E+03  0.21638545631E+03  0.25500000000E-02 0.  1.
    8880023    1    1    2    0    0  0.12353644417E+02 -0.14898717418E+03  0.35416738609E+03  0.76262345508E+03  0.65864270000E+03 0.  1.
    8880022    1    1    2    0    0 -0.12353644417E+02  0.14898717418E+03  0.92844997665E+03  0.95276482028E+03  0.15294330000E+03 0.  0.
<mgrwt>
<rscale>  0 0.50664957E+03</rscale>
<asrwt>0</asrwt>
<pdfrwt beam="1">  1        2 0.23061581E+00 0.67539618E+03</pdfrwt>
<pdfrwt beam="2">  1       -2 0.33290071E-01 0.67539618E+03</pdfrwt>
<totfact> 0.10978761E+02</totfact>
</mgrwt>
</event>
<event>
 4    1  0.3057048E-007  0.9826534E+03  0.7818608E-02  0.9404613E-01
          2   -1    0    0  501    0  0.00000000000E+00  0.00000000000E+00  0.31938463846E+04  0.31938463846E+04  0.25500000000E-02 0. -1.
         -2   -1    0    0    0  501 -0.00000000000E+00 -0.00000000000E+00 -0.24972734196E+03  0.24972734197E+03  0.25500000000E-02 0.  1.
    8880023    1    1    2    0    0  0.51106452774E+03 -0.52020243625E+03  0.20942116452E+04  0.23132942198E+04  0.65864270000E+03 0.  0.
    8880022    1    1    2    0    0 -0.51106452774E+03  0.52020243625E+03  0.84990739740E+03  0.11302795067E+04  0.15294330000E+03 0.  0.
<mgrwt>
<rscale>  0 0.91697058E+03</rscale>
<asrwt>0</asrwt>
<pdfrwt beam="1">  1        2 0.49136097E+00 0.98265341E+03</pdfrwt>
<pdfrwt beam="2">  1       -2 0.38419592E-01 0.98265341E+03</pdfrwt>
<totfact> 0.86303879E+00</totfact>
</mgrwt>
</event>
<event>
 4    1  0.3057048E-007  0.9016599E+03  0.7818608E-02  0.9523372E-01
         -2   -1    0    0    0  501 -0.00000000000E+00  0.00000000000E+00  0.59987130832E+03  0.59987130833E+03  0.25500000000E-02 0.  1.
          2   -1    0    0  501    0  0.00000000000E+00 -0.00000000000E+00 -0.15382721610E+04  0.15382721610E+04  0.25500000000E-02 0. -1.
    8880023    1    1    2    0    0  0.59201592119E+03 -0.16940346062E+03  0.11444413344E+03  0.90889386033E+03  0.65864270000E+03 0.  1.
    8880022    1    1    2    0    0 -0.59201592119E+03  0.16940346062E+03 -0.10528449862E+04  0.12292496090E+04  0.15294330000E+03 0.  0.
<mgrwt>
<rscale>  0 0.82582404E+03</rscale>
<asrwt>0</asrwt>
<pdfrwt beam="1">  1        2 0.23665725E+00 0.90165991E+03</pdfrwt>
<pdfrwt beam="2">  1       -2 0.92287894E-01 0.90165991E+03</pdfrwt>
<totfact> 0.12122890E+01</totfact>
</mgrwt>
</event>
<event>
 4    1  0.3057048E-007  0.7747325E+03  0.7818608E-02  0.9768359E-01
         -2   -1    0    0    0  501 -0.00000000000E+00  0.00000000000E+00  0.32968387714E+03  0.32968387715E+03  0.25500000000E-02 0.  1.
          2   -1    0    0  501    0  0.00000000000E+00 -0.00000000000E+00 -0.29481984544E+04  0.29481984544E+04  0.25500000000E-02 0. -1.
    8880023    1    1    2    0    0  0.38134213065E+03 -0.14483909482E+03 -0.17293013514E+03  0.79379797298E+03  0.65864270000E+03 0.  1.
    8880022    1    1    2    0    0 -0.38134213065E+03  0.14483909482E+03 -0.24455844421E+04  0.24840843586E+04  0.15294330000E+03 0.  0.
<mgrwt>
<rscale>  0 0.67088566E+03</rscale>
<asrwt>0</asrwt>
<pdfrwt beam="1">  1        2 0.45356898E+00 0.77473246E+03</pdfrwt>
<pdfrwt beam="2">  1       -2 0.50720598E-01 0.77473246E+03</pdfrwt>
<totfact> 0.72953541E+00</totfact>
</mgrwt>
</event>
<event>
 4    1  0.3057048E-007  0.7148565E+03  0.7818608E-02  0.9940390E-01
         -2   -1    0    0    0  501 -0.00000000000E+00  0.00000000000E+00  0.17336984220E+03  0.17336984222E+03  0.25500000000E-02 0.  1.
          2   -1    0    0  501    0  0.00000000000E+00 -0.00000000000E+00 -0.32941483164E+04  0.32941483164E+04  0.25500000000E-02 0. -1.
    8880023    1    1    2    0    0  0.27001473318E+03 -0.65586490763E+02 -0.61869608154E+03  0.94541239228E+03  0.65864270000E+03 0.  1.
    8880022    1    1    2    0    0 -0.27001473318E+03  0.65586490763E+02 -0.25020823926E+04  0.25221057663E+04  0.15294330000E+03 0.  0.
<mgrwt>
<rscale>  0 0.58343103E+03</rscale>
<asrwt>0</asrwt>
<pdfrwt beam="1">  1        2 0.50679200E+00 0.71485645E+03</pdfrwt>
<pdfrwt beam="2">  1       -2 0.26672286E-01 0.71485645E+03</pdfrwt>
<totfact> 0.15420833E+01</totfact>
</mgrwt>
</event>
<event>
 4    1  0.3057048E-007  0.7403555E+03  0.7818608E-02  0.9858913E-01
         -2   -1    0    0    0  501 -0.00000000000E+00  0.00000000000E+00  0.92399288899E+03  0.92399288899E+03  0.25500000000E-02 0.  1.
          2   -1    0    0  501    0  0.00000000000E+00 -0.00000000000E+00 -0.13889977212E+04  0.13889977212E+04  0.25500000000E-02 0. -1.
    8880023    1    1    2    0    0 -0.32061177161E+03 -0.10735069670E+03  0.74322838586E+03  0.10490542026E+04  0.65864270000E+03 0.  1.
    8880022    1    1    2    0    0  0.32061177161E+03  0.10735069670E+03 -0.12082332180E+04  0.12639364076E+04  0.15294330000E+03 0.  0.
<mgrwt>
<rscale>  0 0.62294546E+03</rscale>
<asrwt>0</asrwt>
<pdfrwt beam="1">  1        2 0.21369196E+00 0.74035551E+03</pdfrwt>
<pdfrwt beam="2">  1       -2 0.14215275E+00 0.74035551E+03</pdfrwt>
<totfact> 0.51965867E+00</totfact>
</mgrwt>
</event>
<event>
 4    1  0.3057048E-007  0.1064289E+04  0.7818608E-02  0.9301898E-01
          2   -1    0    0  501    0  0.00000000000E+00  0.00000000000E+00  0.22702519365E+04  0.22702519365E+04  0.25500000000E-02 0. -1.
         -2   -1    0    0    0  501 -0.00000000000E+00 -0.00000000000E+00 -0.95198098013E+03  0.95198098014E+03  0.25500000000E-02 0.  1.
    8880023    1    1    2    0    0  0.40648500686E+03 -0.73052770370E+03 -0.52924218934E+03  0.11886161230E+04  0.65864270000E+03 0.  0.
    8880022    1    1    2    0    0 -0.40648500686E+03  0.73052770370E+03  0.18475131457E+04  0.20336167936E+04  0.15294330000E+03 0.  0.
<mgrwt>
<rscale>  0 0.10060830E+04</rscale>
<asrwt>0</asrwt>
<pdfrwt beam="1">  1        2 0.34926953E+00 0.10642890E+04</pdfrwt>
<pdfrwt beam="2">  1       -2 0.14645861E+00 0.10642890E+04</pdfrwt>
<totfact> 0.14933001E+00</totfact>
</mgrwt>
</event>
<event>
 4    1  0.3057048E-007  0.7515352E+03  0.7818608E-02  0.9827536E-01
          2   -1    0    0  501    0  0.00000000000E+00  0.00000000000E+00  0.12624602424E+04  0.12624602424E+04  0.25500000000E-02 0. -1.
         -2   -1    0    0    0  501 -0.00000000000E+00 -0.00000000000E+00 -0.35153128040E+03  0.35153128041E+03  0.25500000000E-02 0.  1.
    8880023    1    1    2    0    0  0.42815868111E+02  0.35939071340E+03  0.16281369295E+03  0.76896904249E+03  0.65864270000E+03 0.  0.
    8880022    1    1    2    0    0 -0.42815868111E+02 -0.35939071340E+03  0.74811526902E+03  0.84502248029E+03  0.15294330000E+03 0. -1.
<mgrwt>
<rscale>  0 0.63905488E+03</rscale>
<asrwt>0</asrwt>
<pdfrwt beam="1">  1        2 0.19422465E+00 0.75153516E+03</pdfrwt>
<pdfrwt beam="2">  1       -2 0.54081735E-01 0.75153516E+03</pdfrwt>
<totfact> 0.56997510E+01</totfact>
</mgrwt>
</event>
<event>
 4    1  0.3057048E-007  0.9708904E+03  0.7818608E-02  0.9420674E-01
         -2   -1    0    0    0  501 -0.00000000000E+00  0.00000000000E+00  0.87424907812E+03  0.87424907812E+03  0.25500000000E-02 0.  1.
          2   -1    0    0  501    0  0.00000000000E+00 -0.00000000000E+00 -0.89300349636E+03  0.89300349636E+03  0.25500000000E-02 0. -1.
    8880023    1    1    2    0    0 -0.68898659044E+03  0.18470343939E+03  0.22767572499E+03  0.99722832107E+03  0.65864270000E+03 0.  0.
    8880022    1    1    2    0    0  0.68898659044E+03 -0.18470343939E+03 -0.24643014323E+03  0.77002425341E+03  0.15294330000E+03 0.  0.
<mgrwt>
<rscale>  0 0.90393660E+03</rscale>
<asrwt>0</asrwt>
<pdfrwt beam="1">  1        2 0.13738515E+00 0.97089036E+03</pdfrwt>
<pdfrwt beam="2">  1       -2 0.13449986E+00 0.97089036E+03</pdfrwt>
<totfact> 0.11741879E+01</totfact>
</mgrwt>
</event>
<event>
 4    1  0.3057048E-007  0.6622917E+03  0.7818608E-02  0.1021922E+00
         -2   -1    0    0    0  501 -0.00000000000E+00  0.00000000000E+00  0.17419447744E+03  0.17419447746E+03  0.25500000000E-02 0.  1.
          2   -1    0    0  501    0  0.00000000000E+00 -0.00000000000E+00 -0.20419384595E+04  0.20419384595E+04  0.25500000000E-02 0. -1.
    8880023    1    1    2    0    0  0.35216561835E+02  0.59831996566E+02 -0.47921573189E+03  0.81748272030E+03  0.65864270000E+03 0.  1.
    8880022    1    1    2    0    0 -0.35216561835E+02 -0.59831996566E+02 -0.13885282502E+04  0.13986502167E+04  0.15294330000E+03 0.  0.
<mgrwt>
<rscale>  0 0.46999224E+03</rscale>
<asrwt>0</asrwt>
<pdfrwt beam="1">  1        2 0.31414436E+00 0.66229169E+03</pdfrwt>
<pdfrwt beam="2">  1       -2 0.26799152E-01 0.66229169E+03</pdfrwt>
<totfact> 0.83052542E+01</totfact>
</mgrwt>
</event>
<event>
 4    1  0.3057048E-007  0.9073625E+03  0.7818608E-02  0.9514314E-01
          2   -1    0    0  501    0  0.00000000000E+00  0.00000000000E+00  0.16840403424E+04  0.16840403424E+04  0.25500000000E-02 0. -1.
         -2   -1    0    0    0  501 -0.00000000000E+00 -0.00000000000E+00 -0.38833124729E+03  0.38833124730E+03  0.25500000000E-02 0.  1.
    8880023    1    1    2    0    0  0.58912316740E+03  0.20598618641E+03  0.45740711560E+03  0.10161337958E+04  0.65864270000E+03 0.  0.
    8880022    1    1    2    0    0 -0.58912316740E+03 -0.20598618641E+03  0.83830197952E+03  0.10562377939E+04  0.15294330000E+03 0.  0.
<mgrwt>
<rscale>  0 0.83236660E+03</rscale>
<asrwt>0</asrwt>
<pdfrwt beam="1">  1        2 0.25908313E+00 0.90736245E+03</pdfrwt>
<pdfrwt beam="2">  1       -2 0.59743269E-01 0.90736245E+03</pdfrwt>
<totfact> 0.26396156E+01</totfact>
</mgrwt>
</event>
<event>
 4    1  0.3057048E-007  0.9317171E+03  0.7818608E-02  0.9476922E-01
          2   -1    0    0  501    0  0.00000000000E+00  0.00000000000E+00  0.17188807052E+04  0.17188807052E+04  0.25500000000E-02 0. -1.
         -2   -1    0    0    0  501 -0.00000000000E+00 -0.00000000000E+00 -0.10648044934E+04  0.10648044934E+04  0.25500000000E-02 0.  1.
    8880023    1    1    2    0    0  0.65644459898E+03  0.58026691394E+02 -0.76893958871E+03  0.12080417649E+04  0.65864270000E+03 0.  0.
    8880022    1    1    2    0    0 -0.65644459898E+03 -0.58026691394E+02  0.14230158005E+04  0.15756434337E+04  0.15294330000E+03 0.  0.
<mgrwt>
<rscale>  0 0.86006861E+03</rscale>
<asrwt>0</asrwt>
<pdfrwt beam="1">  1        2 0.26444318E+00 0.93171713E+03</pdfrwt>
<pdfrwt beam="2">  1       -2 0.16381608E+00 0.93171713E+03</pdfrwt>
<totfact> 0.22685584E+00</totfact>
</mgrwt>
</event>
<event>
 4    1  0.3057048E-007  0.8922343E+03  0.7818608E-02  0.9538615E-01
         -2   -1    0    0    0  501 -0.00000000000E+00  0.00000000000E+00  0.84143243644E+03  0.84143243644E+03  0.25500000000E-02 0.  1.
          2   -1    0    0  501    0  0.00000000000E+00 -0.00000000000E+00 -0.11833222514E+04  0.11833222514E+04  0.25500000000E-02 0. -1.
    8880023    1    1    2    0    0 -0.29434179761E+03 -0.52500933345E+03  0.46533331117E+03  0.10062888208E+04  0.65864270000E+03 0.  0.
    8880022    1    1    2    0    0  0.29434179761E+03  0.52500933345E+03 -0.80722312610E+03  0.10184658670E+04  0.15294330000E+03 0.  0.
<mgrwt>
<rscale>  0 0.81495808E+03</rscale>
<asrwt>0</asrwt>
<pdfrwt beam="1">  1        2 0.18204958E+00 0.89223433E+03</pdfrwt>
<pdfrwt beam="2">  1       -2 0.12945114E+00 0.89223433E+03</pdfrwt>
<totfact> 0.85339555E+00</totfact>
</mgrwt>
</event>
<event>
 4    1  0.3057048E-007  0.6706085E+03  0.7818608E-02  0.1015230E+00
         -2   -1    0    0    0  501 -0.00000000000E+00  0.00000000000E+00  0.19467660516E+03  0.19467660518E+03  0.25500000000E-02 0.  1.
          2   -1    0    0  501    0  0.00000000000E+00 -0.00000000000E+00 -0.22601053190E+04  0.22601053190E+04  0.25500000000E-02 0. -1.
    8880023    1    1    2    0    0 -0.11022557697E+03 -0.61285389420E+02 -0.40679839186E+03  0.78434731762E+03  0.65864270000E+03 0.  1.
    8880022    1    1    2    0    0  0.11022557697E+03  0.61285389420E+02 -0.16586303219E+04  0.16704346065E+04  0.15294330000E+03 0.  0.
<mgrwt>
<rscale>  0 0.49447808E+03</rscale>
<asrwt>0</asrwt>
<pdfrwt beam="1">  1        2 0.34770849E+00 0.67060852E+03</pdfrwt>
<pdfrwt beam="2">  1       -2 0.29950249E-01 0.67060852E+03</pdfrwt>
<totfact> 0.51376431E+01</totfact>
</mgrwt>
</event>
<event>
 4    1  0.3057048E-007  0.1156803E+04  0.7818608E-02  0.9200301E-01
         -2   -1    0    0    0  501 -0.00000000000E+00  0.00000000000E+00  0.17507712232E+04  0.17507712232E+04  0.25500000000E-02 0.  1.
          2   -1    0    0  501    0  0.00000000000E+00 -0.00000000000E+00 -0.92283946549E+03  0.92283946549E+03  0.25500000000E-02 0. -1.
    8880023    1    1    2    0    0  0.56139812748E+02 -0.94933210368E+03  0.11758508106E+04  0.16494903628E+04  0.65864270000E+03 0.  0.
    8880022    1    1    2    0    0 -0.56139812748E+02  0.94933210368E+03 -0.34791905291E+03  0.10241203260E+04  0.15294330000E+03 0.  0.
<mgrwt>
<rscale>  0 0.11050321E+04</rscale>
<asrwt>0</asrwt>
<pdfrwt beam="1">  1        2 0.14197530E+00 0.11568031E+04</pdfrwt>
<pdfrwt beam="2">  1       -2 0.26934942E+00 0.11568031E+04</pdfrwt>
<totfact> 0.13579914E+00</totfact>
</mgrwt>
</event>
<event>
 4    1  0.3057048E-007  0.6924833E+03  0.7818608E-02  0.1002994E+00
         -2   -1    0    0    0  501 -0.00000000000E+00  0.00000000000E+00  0.15205930031E+03  0.15205930033E+03  0.25500000000E-02 0.  1.
          2   -1    0    0  501    0  0.00000000000E+00 -0.00000000000E+00 -0.15972823657E+04  0.15972823657E+04  0.25500000000E-02 0. -1.
    8880023    1    1    2    0    0  0.21374032841E+03  0.61685065467E+01 -0.83424733026E+03  0.10842056045E+04  0.65864270000E+03 0.  1.
    8880022    1    1    2    0    0 -0.21374032841E+03 -0.61685065467E+01 -0.61097573513E+03  0.66513606157E+03  0.15294330000E+03 0.  1.
<mgrwt>
<rscale>  0 0.54356721E+03</rscale>
<asrwt>0</asrwt>
<pdfrwt beam="1">  1        2 0.24573574E+00 0.69248335E+03</pdfrwt>
<pdfrwt beam="2">  1       -2 0.23393740E-01 0.69248335E+03</pdfrwt>
<totfact> 0.18468946E+02</totfact>
</mgrwt>
</event>
<event>
 4    1  0.3057048E-007  0.6924117E+03  0.7818608E-02  0.1003027E+00
          2   -1    0    0  501    0  0.00000000000E+00  0.00000000000E+00  0.56939645428E+03  0.56939645429E+03  0.25500000000E-02 0. -1.
         -2   -1    0    0    0  501 -0.00000000000E+00 -0.00000000000E+00 -0.82237703202E+03  0.82237703202E+03  0.25500000000E-02 0.  1.
    8880023    1    1    2    0    0 -0.19839307550E+03 -0.79144732093E+02 -0.62740307263E+03  0.93438135835E+03  0.65864270000E+03 0.  1.
    8880022    1    1    2    0    0  0.19839307550E+03  0.79144732093E+02  0.37442249489E+03  0.45739212796E+03  0.15294330000E+03 0.  0.
<mgrwt>
<rscale>  0 0.54342735E+03</rscale>
<asrwt>0</asrwt>
<pdfrwt beam="1">  1        2 0.87599455E-01 0.69241166E+03</pdfrwt>
<pdfrwt beam="2">  1       -2 0.12651954E+00 0.69241166E+03</pdfrwt>
<totfact> 0.25013142E+01</totfact>
</mgrwt>
</event>
<event>
 4    1  0.3057048E-007  0.7097257E+03  0.7818608E-02  0.9959021E-01
         -2   -1    0    0    0  501 -0.00000000000E+00  0.00000000000E+00  0.14850281541E+04  0.14850281541E+04  0.25500000000E-02 0.  1.
          2   -1    0    0  501    0  0.00000000000E+00 -0.00000000000E+00 -0.19862665083E+03  0.19862665084E+03  0.25500000000E-02 0. -1.
    8880023    1    1    2    0    0 -0.26427065432E+03  0.78360702641E+01  0.11448908553E+04  0.13470284553E+04  0.65864270000E+03 0.  1.
    8880022    1    1    2    0    0  0.26427065432E+03 -0.78360702641E+01  0.14151064799E+03  0.33662634960E+03  0.15294330000E+03 0. -1.
<mgrwt>
<rscale>  0 0.57484198E+03</rscale>
<asrwt>0</asrwt>
<pdfrwt beam="1">  1        2 0.30557947E-01 0.70972571E+03</pdfrwt>
<pdfrwt beam="2">  1       -2 0.22846587E+00 0.70972571E+03</pdfrwt>
<totfact> 0.15622300E+01</totfact>
</mgrwt>
</event>
<event>
 4    1  0.3057048E-007  0.7274363E+03  0.7818608E-02  0.9898183E-01
          2   -1    0    0  501    0  0.00000000000E+00  0.00000000000E+00  0.89091231503E+03  0.89091231504E+03  0.25500000000E-02 0. -1.
         -2   -1    0    0    0  501 -0.00000000000E+00 -0.00000000000E+00 -0.16843578263E+04  0.16843578263E+04  0.25500000000E-02 0.  1.
    8880023    1    1    2    0    0  0.17310219791E+03  0.25571264160E+03 -0.15674500044E+04  0.17280228727E+04  0.65864270000E+03 0.  1.
    8880022    1    1    2    0    0 -0.17310219791E+03 -0.25571264160E+03  0.77400449308E+03  0.84724726870E+03  0.15294330000E+03 0.  0.
<mgrwt>
<rscale>  0 0.60349423E+03</rscale>
<asrwt>0</asrwt>
<pdfrwt beam="1">  1        2 0.13706343E+00 0.72743627E+03</pdfrwt>
<pdfrwt beam="2">  1       -2 0.25913197E+00 0.72743627E+03</pdfrwt>
<totfact> 0.17449554E+00</totfact>
</mgrwt>
</event>
<event>
 4    1  0.3057048E-007  0.6745619E+03  0.7818608E-02  0.1012584E+00
          2   -1    0    0  501    0  0.00000000000E+00  0.00000000000E+00  0.71084890864E+03  0.71084890864E+03  0.25500000000E-02 0. -1.
         -2   -1    0    0    0  501 -0.00000000000E+00 -0.00000000000E+00 -0.34330871972E+03  0.34330871973E+03  0.25500000000E-02 0.  1.
    8880023    1    1    2    0    0  0.54226555662E+02 -0.13521468589E+03  0.54819247872E+02  0.67678570229E+03  0.65864270000E+03 0.  0.
    8880022    1    1    2    0    0 -0.54226555662E+02  0.13521468589E+03  0.31272094105E+03  0.37737192609E+03  0.15294330000E+03 0.  0.
<mgrwt>
<rscale>  0 0.50460516E+03</rscale>
<asrwt>0</asrwt>
<pdfrwt beam="1">  1        2 0.10936137E+00 0.67456189E+03</pdfrwt>
<pdfrwt beam="2">  1       -2 0.52816726E-01 0.67456189E+03</pdfrwt>
<totfact> 0.13796366E+02</totfact>
</mgrwt>
</event>
<event>
 4    1  0.3057048E-007  0.8160947E+03  0.7818608E-02  0.9677019E-01
          2   -1    0    0  501    0  0.00000000000E+00  0.00000000000E+00  0.14746097771E+04  0.14746097771E+04  0.25500000000E-02 0. -1.
         -2   -1    0    0    0  501 -0.00000000000E+00 -0.00000000000E+00 -0.30039453611E+03  0.30039453612E+03  0.25500000000E-02 0.  1.
    8880023    1    1    2    0    0 -0.46172492525E+03  0.13787859639E+03  0.62041533721E+03  0.10251467265E+04  0.65864270000E+03 0.  0.
    8880022    1    1    2    0    0  0.46172492525E+03 -0.13787859639E+03  0.55379990380E+03  0.74985758674E+03  0.15294330000E+03 0. -1.
<mgrwt>
<rscale>  0 0.72401715E+03</rscale>
<asrwt>0</asrwt>
<pdfrwt beam="1">  1        2 0.22686304E+00 0.81609474E+03</pdfrwt>
<pdfrwt beam="2">  1       -2 0.46214544E-01 0.81609474E+03</pdfrwt>
<totfact> 0.59074659E+01</totfact>
</mgrwt>
</event>
<event>
 4    1  0.3057048E-007  0.9411219E+03  0.7818608E-02  0.9463005E-01
         -2   -1    0    0    0  501 -0.00000000000E+00  0.00000000000E+00  0.16501128633E+04  0.16501128633E+04  0.25500000000E-02 0.  1.
          2   -1    0    0  501    0  0.00000000000E+00 -0.00000000000E+00 -0.64979430492E+03  0.64979430493E+03  0.25500000000E-02 0. -1.
    8880023    1    1    2    0    0  0.63966863966E+03 -0.20669826748E+03  0.12517507488E+04  0.15660748021E+04  0.65864270000E+03 0.  1.
    8880022    1    1    2    0    0 -0.63966863966E+03  0.20669826748E+03 -0.25143219034E+03  0.73383236621E+03  0.15294330000E+03 0.  0.
<mgrwt>
<rscale>  0 0.87067171E+03</rscale>
<asrwt>0</asrwt>
<pdfrwt beam="1">  1        2 0.99968354E-01 0.94112186E+03</pdfrwt>
<pdfrwt beam="2">  1       -2 0.25386352E+00 0.94112186E+03</pdfrwt>
<totfact> 0.27523300E+00</totfact>
</mgrwt>
</event>
<event>
 4    1  0.3057048E-007  0.6982082E+03  0.7818608E-02  0.1000472E+00
         -2   -1    0    0    0  501 -0.00000000000E+00  0.00000000000E+00  0.11431615425E+04  0.11431615425E+04  0.25500000000E-02 0.  1.
          2   -1    0    0  501    0  0.00000000000E+00 -0.00000000000E+00 -0.84746313221E+03  0.84746313221E+03  0.25500000000E-02 0. -1.
    8880023    1    1    2    0    0 -0.58875811798E+02  0.22409400989E+03  0.10079627875E+04  0.12261662504E+04  0.65864270000E+03 0.  1.
    8880022    1    1    2    0    0  0.58875811798E+02 -0.22409400989E+03 -0.71226437717E+03  0.76445842430E+03  0.15294330000E+03 0.  0.
<mgrwt>
<rscale>  0 0.55443891E+03</rscale>
<asrwt>0</asrwt>
<pdfrwt beam="1">  1        2 0.13037894E+00 0.69820820E+03</pdfrwt>
<pdfrwt beam="2">  1       -2 0.17587101E+00 0.69820820E+03</pdfrwt>
<totfact> 0.63348398E+00</totfact>
</mgrwt>
</event>
<event>
 4    1  0.3057048E-007  0.8981450E+03  0.7818608E-02  0.9529016E-01
          2   -1    0    0  501    0  0.00000000000E+00  0.00000000000E+00  0.18463235579E+04  0.18463235579E+04  0.25500000000E-02 0. -1.
         -2   -1    0    0    0  501 -0.00000000000E+00 -0.00000000000E+00 -0.35210448507E+03  0.35210448508E+03  0.25500000000E-02 0.  1.
    8880023    1    1    2    0    0 -0.40972368640E+03  0.45274797827E+03  0.12121665835E+04  0.15086458376E+04  0.65864270000E+03 0.  0.
    8880022    1    1    2    0    0  0.40972368640E+03 -0.45274797827E+03  0.28205248929E+03  0.68978220530E+03  0.15294330000E+03 0.  0.
<mgrwt>
<rscale>  0 0.82177975E+03</rscale>
<asrwt>0</asrwt>
<pdfrwt beam="1">  1        2 0.28404978E+00 0.89814500E+03</pdfrwt>
<pdfrwt beam="2">  1       -2 0.54169921E-01 0.89814500E+03</pdfrwt>
<totfact> 0.26417244E+01</totfact>
</mgrwt>
</event>
<event>
 4    1  0.3057048E-007  0.8442134E+03  0.7818608E-02  0.9622286E-01
         -2   -1    0    0    0  501 -0.00000000000E+00  0.00000000000E+00  0.21755926824E+04  0.21755926824E+04  0.25500000000E-02 0.  1.
          2   -1    0    0  501    0  0.00000000000E+00 -0.00000000000E+00 -0.69963795315E+03  0.69963795316E+03  0.25500000000E-02 0. -1.
    8880023    1    1    2    0    0 -0.26809372160E+03 -0.45498550251E+03  0.19654608248E+04  0.21390961903E+04  0.65864270000E+03 0.  1.
    8880022    1    1    2    0    0  0.26809372160E+03  0.45498550251E+03 -0.48950609552E+03  0.73613444534E+03  0.15294330000E+03 0.  0.
<mgrwt>
<rscale>  0 0.75838537E+03</rscale>
<asrwt>0</asrwt>
<pdfrwt beam="1">  1        2 0.10763661E+00 0.84421340E+03</pdfrwt>
<pdfrwt beam="2">  1       -2 0.33470657E+00 0.84421340E+03</pdfrwt>
<totfact> 0.82310014E-01</totfact>
</mgrwt>
</event>
<event>
 4    1  0.3057048E-007  0.6589365E+03  0.7818608E-02  0.1025273E+00
         -2   -1    0    0    0  501 -0.00000000000E+00  0.00000000000E+00  0.12695135393E+03  0.12695135395E+03  0.25500000000E-02 0.  1.
          2   -1    0    0  501    0  0.00000000000E+00 -0.00000000000E+00 -0.18931977448E+04  0.18931977448E+04  0.25500000000E-02 0. -1.
    8880023    1    1    2    0    0 -0.76168620726E+01  0.18140720218E+02 -0.77624836957E+03  0.10182135532E+04  0.65864270000E+03 0.  1.
    8880022    1    1    2    0    0  0.76168620726E+01 -0.18140720218E+02 -0.98999802129E+03  0.10019355456E+04  0.15294330000E+03 0.  0.
<mgrwt>
<rscale>  0 0.45830681E+03</rscale>
<asrwt>0</asrwt>
<pdfrwt beam="1">  1        2 0.29126117E+00 0.65893650E+03</pdfrwt>
<pdfrwt beam="2">  1       -2 0.19530979E-01 0.65893650E+03</pdfrwt>
<totfact> 0.17567403E+02</totfact>
</mgrwt>
</event>
<event>
 4    1  0.3057048E-007  0.9608571E+03  0.7818608E-02  0.9434662E-01
          2   -1    0    0  501    0  0.00000000000E+00  0.00000000000E+00  0.13010359155E+04  0.13010359155E+04  0.25500000000E-02 0. -1.
         -2   -1    0    0    0  501 -0.00000000000E+00 -0.00000000000E+00 -0.12043557041E+04  0.12043557041E+04  0.25500000000E-02 0.  1.
    8880023    1    1    2    0    0  0.41517436002E+03 -0.56308648099E+03 -0.87416596432E+03  0.12990044164E+04  0.65864270000E+03 0.  0.
    8880022    1    1    2    0    0 -0.41517436002E+03  0.56308648099E+03  0.97084617567E+03  0.12063872032E+04  0.15294330000E+03 0.  0.
<mgrwt>
<rscale>  0 0.89277196E+03</rscale>
<asrwt>0</asrwt>
<pdfrwt beam="1">  1        2 0.20015937E+00 0.96085709E+03</pdfrwt>
<pdfrwt beam="2">  1       -2 0.18528549E+00 0.96085709E+03</pdfrwt>
<totfact> 0.27443668E+00</totfact>
</mgrwt>
</event>
<event>
 4    1  0.3057048E-007  0.9156026E+03  0.7818608E-02  0.9501435E-01
          2   -1    0    0  501    0  0.00000000000E+00  0.00000000000E+00  0.11816369782E+04  0.11816369782E+04  0.25500000000E-02 0. -1.
         -2   -1    0    0    0  501 -0.00000000000E+00 -0.00000000000E+00 -0.59957822558E+03  0.59957822559E+03  0.25500000000E-02 0.  1.
    8880023    1    1    2    0    0  0.49220993605E+02  0.63410972056E+03  0.15355239216E+02  0.91573131079E+03  0.65864270000E+03 0.  1.
    8880022    1    1    2    0    0 -0.49220993605E+02 -0.63410972056E+03  0.56670351337E+03  0.86548389298E+03  0.15294330000E+03 0. -1.
<mgrwt>
<rscale>  0 0.84178123E+03</rscale>
<asrwt>0</asrwt>
<pdfrwt beam="1">  1        2 0.18179030E+00 0.91560256E+03</pdfrwt>
<pdfrwt beam="2">  1       -2 0.92242805E-01 0.91560256E+03</pdfrwt>
<totfact> 0.19433264E+01</totfact>
</mgrwt>
</event>
<event>
 4    1  0.3057048E-007  0.7458545E+03  0.7818608E-02  0.9843210E-01
          2   -1    0    0  501    0  0.00000000000E+00  0.00000000000E+00  0.10929110026E+04  0.10929110026E+04  0.25500000000E-02 0. -1.
         -2   -1    0    0    0  501 -0.00000000000E+00 -0.00000000000E+00 -0.65916781911E+03  0.65916781912E+03  0.25500000000E-02 0.  1.
    8880023    1    1    2    0    0  0.22485597416E+03 -0.26819492007E+03 -0.39177268502E+03  0.84248725050E+03  0.65864270000E+03 0.  0.
    8880022    1    1    2    0    0 -0.22485597416E+03  0.26819492007E+03  0.82551586852E+03  0.90959157124E+03  0.15294330000E+03 0.  0.
<mgrwt>
<rscale>  0 0.63094310E+03</rscale>
<asrwt>0</asrwt>
<pdfrwt beam="1">  1        2 0.16814016E+00 0.74585450E+03</pdfrwt>
<pdfrwt beam="2">  1       -2 0.10141043E+00 0.74585450E+03</pdfrwt>
<totfact> 0.17902405E+01</totfact>
</mgrwt>
</event>
<event>
 4    1  0.3057048E-007  0.6781184E+03  0.7818608E-02  0.1010409E+00
         -2   -1    0    0    0  501 -0.00000000000E+00  0.00000000000E+00  0.40438208745E+03  0.40438208746E+03  0.25500000000E-02 0.  1.
          2   -1    0    0  501    0  0.00000000000E+00 -0.00000000000E+00 -0.11772604824E+04  0.11772604824E+04  0.25500000000E-02 0. -1.
    8880023    1    1    2    0    0 -0.39206194951E+02  0.15651572870E+03  0.95903281134E+02  0.68486636992E+03  0.65864270000E+03 0.  1.
    8880022    1    1    2    0    0  0.39206194951E+02 -0.15651572870E+03 -0.86878167608E+03  0.89677619993E+03  0.15294330000E+03 0.  0.
<mgrwt>
<rscale>  0 0.51312539E+03</rscale>
<asrwt>0</asrwt>
<pdfrwt beam="1">  1        2 0.18111700E+00 0.67811836E+03</pdfrwt>
<pdfrwt beam="2">  1       -2 0.62212630E-01 0.67811836E+03</pdfrwt>
<totfact> 0.48037186E+01</totfact>
</mgrwt>
</event>
<event>
 4    1  0.3057048E-007  0.7091745E+03  0.7818608E-02  0.9961079E-01
         -2   -1    0    0    0  501 -0.00000000000E+00  0.00000000000E+00  0.31994226014E+03  0.31994226015E+03  0.25500000000E-02 0.  1.
          2   -1    0    0  501    0  0.00000000000E+00 -0.00000000000E+00 -0.13705317159E+04  0.13705317159E+04  0.25500000000E-02 0. -1.
    8880023    1    1    2    0    0 -0.11059159937E+02 -0.26267069156E+03 -0.13006575498E+03  0.72100312351E+03  0.65864270000E+03 0.  1.
    8880022    1    1    2    0    0  0.11059159937E+02  0.26267069156E+03 -0.92052370074E+03  0.96947085251E+03  0.15294330000E+03 0.  0.
<mgrwt>
<rscale>  0 0.57390275E+03</rscale>
<asrwt>0</asrwt>
<pdfrwt beam="1">  1        2 0.21085103E+00 0.70917445E+03</pdfrwt>
<pdfrwt beam="2">  1       -2 0.49221887E-01 0.70917445E+03</pdfrwt>
<totfact> 0.60162619E+01</totfact>
</mgrwt>
</event>
<event>
 4    1  0.3057048E-007  0.1286972E+04  0.7818608E-02  0.9076893E-01
         -2   -1    0    0    0  501 -0.00000000000E+00  0.00000000000E+00  0.20477601970E+04  0.20477601970E+04  0.25500000000E-02 0.  1.
          2   -1    0    0  501    0  0.00000000000E+00 -0.00000000000E+00 -0.11178348105E+04  0.11178348105E+04  0.25500000000E-02 0. -1.
    8880023    1    1    2    0    0 -0.53203203092E+03  0.96924094441E+03  0.14460886820E+04  0.19358380027E+04  0.65864270000E+03 0.  0.
    8880022    1    1    2    0    0  0.53203203092E+03 -0.96924094441E+03 -0.51616329549E+03  0.12297570048E+04  0.15294330000E+03 0.  0.
<mgrwt>
<rscale>  0 0.12419702E+04</rscale>
<asrwt>0</asrwt>
<pdfrwt beam="1">  1        2 0.17197459E+00 0.12869718E+04</pdfrwt>
<pdfrwt beam="2">  1       -2 0.31504003E+00 0.12869718E+04</pdfrwt>
<totfact> 0.52841525E-01</totfact>
</mgrwt>
</event>
<event>
 4    1  0.3057048E-007  0.7528049E+03  0.7818608E-02  0.9824104E-01
         -2   -1    0    0    0  501 -0.00000000000E+00  0.00000000000E+00  0.19297073898E+03  0.19297073900E+03  0.25500000000E-02 0.  1.
          2   -1    0    0  501    0  0.00000000000E+00 -0.00000000000E+00 -0.17275970298E+04  0.17275970298E+04  0.25500000000E-02 0. -1.
    8880023    1    1    2    0    0  0.18169616646E+03 -0.31605615778E+03 -0.11011451540E+04  0.13338799977E+04  0.65864270000E+03 0.  0.
    8880022    1    1    2    0    0 -0.18169616646E+03  0.31605615778E+03 -0.43348113683E+03  0.58668777112E+03  0.15294330000E+03 0. -1.
<mgrwt>
<rscale>  0 0.64084873E+03</rscale>
<asrwt>0</asrwt>
<pdfrwt beam="1">  1        2 0.26578415E+00 0.75280489E+03</pdfrwt>
<pdfrwt beam="2">  1       -2 0.29687807E-01 0.75280489E+03</pdfrwt>
<totfact> 0.10104166E+02</totfact>
</mgrwt>
</event>
<event>
 4    1  0.3057048E-007  0.8529797E+03  0.7818608E-02  0.9606175E-01
         -2   -1    0    0    0  501 -0.00000000000E+00  0.00000000000E+00  0.36567030352E+03  0.36567030353E+03  0.25500000000E-02 0.  1.
          2   -1    0    0  501    0  0.00000000000E+00 -0.00000000000E+00 -0.29114298261E+04  0.29114298261E+04  0.25500000000E-02 0. -1.
    8880023    1    1    2    0    0  0.24299537872E+03 -0.48447650998E+03 -0.21553631064E+03  0.87978994668E+03  0.65864270000E+03 0.  0.
    8880022    1    1    2    0    0 -0.24299537872E+03  0.48447650998E+03 -0.23302232119E+04  0.23973101829E+04  0.15294330000E+03 0.  0.
<mgrwt>
<rscale>  0 0.76888810E+03</rscale>
<asrwt>0</asrwt>
<pdfrwt beam="1">  1        2 0.44791226E+00 0.85297975E+03</pdfrwt>
<pdfrwt beam="2">  1       -2 0.56256972E-01 0.85297975E+03</pdfrwt>
<totfact> 0.61173274E+00</totfact>
</mgrwt>
</event>
<event>
 4    1  0.3057048E-007  0.7063062E+03  0.7818608E-02  0.9971982E-01
         -2   -1    0    0    0  501 -0.00000000000E+00  0.00000000000E+00  0.32581405630E+03  0.32581405631E+03  0.25500000000E-02 0.  1.
          2   -1    0    0  501    0  0.00000000000E+00 -0.00000000000E+00 -0.12781368212E+04  0.12781368212E+04  0.25500000000E-02 0. -1.
    8880023    1    1    2    0    0  0.11601255946E+03 -0.22715491621E+03 -0.11529140428E+03  0.71565395554E+03  0.65864270000E+03 0.  1.
    8880022    1    1    2    0    0 -0.11601255946E+03  0.22715491621E+03 -0.83703136062E+03  0.88829692198E+03  0.15294330000E+03 0.  0.
<mgrwt>
<rscale>  0 0.56896029E+03</rscale>
<asrwt>0</asrwt>
<pdfrwt beam="1">  1        2 0.19663643E+00 0.70630622E+03</pdfrwt>
<pdfrwt beam="2">  1       -2 0.50125240E-01 0.70630622E+03</pdfrwt>
<totfact> 0.65511336E+01</totfact>
</mgrwt>
</event>
<event>
 4    1  0.3057048E-007  0.1067066E+04  0.7818608E-02  0.9298642E-01
         -2   -1    0    0    0  501 -0.00000000000E+00  0.00000000000E+00  0.27387693771E+03  0.27387693773E+03  0.25500000000E-02 0.  1.
          2   -1    0    0  501    0  0.00000000000E+00 -0.00000000000E+00 -0.43574054959E+04  0.43574054959E+04  0.25500000000E-02 0. -1.
    8880023    1    1    2    0    0 -0.78156410003E+03 -0.30655659608E+03 -0.11183302551E+04  0.15457335329E+04  0.65864270000E+03 0.  1.
    8880022    1    1    2    0    0  0.78156410003E+03  0.30655659608E+03 -0.29651983031E+04  0.30855489007E+04  0.15294330000E+03 0.  0.
<mgrwt>
<rscale>  0 0.10090800E+04</rscale>
<asrwt>0</asrwt>
<pdfrwt beam="1">  1        2 0.67037002E+00 0.10670659E+04</pdfrwt>
<pdfrwt beam="2">  1       -2 0.42134917E-01 0.10670659E+04</pdfrwt>
<totfact> 0.94831559E-01</totfact>
</mgrwt>
</event>
<event>
 4    1  0.3057048E-007  0.9012852E+03  0.7818608E-02  0.9523972E-01
         -2   -1    0    0    0  501 -0.00000000000E+00  0.00000000000E+00  0.14634475143E+04  0.14634475144E+04  0.25500000000E-02 0.  1.
          2   -1    0    0  501    0  0.00000000000E+00 -0.00000000000E+00 -0.67467938517E+03  0.67467938518E+03  0.25500000000E-02 0. -1.
    8880023    1    1    2    0    0  0.57091800619E+03  0.22925395348E+03  0.11080457656E+04  0.14283138205E+04  0.65864270000E+03 0.  0.
    8880022    1    1    2    0    0 -0.57091800619E+03 -0.22925395348E+03 -0.31927763643E+03  0.70981307900E+03  0.15294330000E+03 0.  0.
<mgrwt>
<rscale>  0 0.82539329E+03</rscale>
<asrwt>0</asrwt>
<pdfrwt beam="1">  1        2 0.10379683E+00 0.90128517E+03</pdfrwt>
<pdfrwt beam="2">  1       -2 0.22514577E+00 0.90128517E+03</pdfrwt>
<totfact> 0.39607108E+00</totfact>
</mgrwt>
</event>
<event>
 4    1  0.3057048E-007  0.8351426E+03  0.7818608E-02  0.9639408E-01
          2   -1    0    0  501    0  0.00000000000E+00  0.00000000000E+00  0.19476245350E+04  0.19476245350E+04  0.25500000000E-02 0. -1.
         -2   -1    0    0    0  501 -0.00000000000E+00 -0.00000000000E+00 -0.47725440702E+03  0.47725440702E+03  0.25500000000E-02 0.  1.
    8880023    1    1    2    0    0  0.46775235855E+03 -0.21180343055E+03 -0.25937610813E+02  0.83554528785E+03  0.65864270000E+03 0.  0.
    8880022    1    1    2    0    0 -0.46775235855E+03  0.21180343055E+03  0.14963077388E+04  0.15893336542E+04  0.15294330000E+03 0.  0.
<mgrwt>
<rscale>  0 0.74741904E+03</rscale>
<asrwt>0</asrwt>
<pdfrwt beam="1">  1        2 0.29963454E+00 0.83514260E+03</pdfrwt>
<pdfrwt beam="2">  1       -2 0.73423757E-01 0.83514260E+03</pdfrwt>
<totfact> 0.12218802E+01</totfact>
</mgrwt>
</event>
<event>
 4    1  0.3057048E-007  0.6831868E+03  0.7818608E-02  0.1007576E+00
          2   -1    0    0  501    0  0.00000000000E+00  0.00000000000E+00  0.19451614472E+04  0.19451614472E+04  0.25500000000E-02 0. -1.
         -2   -1    0    0    0  501 -0.00000000000E+00 -0.00000000000E+00 -0.39520149272E+03  0.39520149273E+03  0.25500000000E-02 0.  1.
    8880023    1    1    2    0    0  0.18139099734E+03 -0.55965708420E+01 -0.84832124287E+02  0.68843351974E+03  0.65864270000E+03 0.  1.
    8880022    1    1    2    0    0 -0.18139099734E+03  0.55965708420E+01  0.16347920787E+04  0.16519294202E+04  0.15294330000E+03 0.  0.
<mgrwt>
<rscale>  0 0.52449687E+03</rscale>
<asrwt>0</asrwt>
<pdfrwt beam="1">  1        2 0.29925561E+00 0.68318681E+03</pdfrwt>
<pdfrwt beam="2">  1       -2 0.60800228E-01 0.68318681E+03</pdfrwt>
<totfact> 0.18825925E+01</totfact>
</mgrwt>
</event>
<event>
 4    1  0.3057048E-007  0.7435279E+03  0.7818608E-02  0.9849787E-01
         -2   -1    0    0    0  501 -0.00000000000E+00  0.00000000000E+00  0.34424766107E+03  0.34424766107E+03  0.25500000000E-02 0.  1.
          2   -1    0    0  501    0  0.00000000000E+00 -0.00000000000E+00 -0.11094241887E+04  0.11094241887E+04  0.25500000000E-02 0. -1.
    8880023    1    1    2    0    0 -0.27937340128E+03 -0.20242058685E+03 -0.19285794900E+03  0.76813279196E+03  0.65864270000E+03 0.  0.
    8880022    1    1    2    0    0  0.27937340128E+03  0.20242058685E+03 -0.57231857859E+03  0.68553905778E+03  0.15294330000E+03 0.  1.
<mgrwt>
<rscale>  0 0.62757774E+03</rscale>
<asrwt>0</asrwt>
<pdfrwt beam="1">  1        2 0.17068064E+00 0.74352794E+03</pdfrwt>
<pdfrwt beam="2">  1       -2 0.52961179E-01 0.74352794E+03</pdfrwt>
<totfact> 0.73443803E+01</totfact>
</mgrwt>
</event>
<event>
 4    1  0.3057048E-007  0.6787406E+03  0.7818608E-02  0.1010045E+00
         -2   -1    0    0    0  501 -0.00000000000E+00  0.00000000000E+00  0.26379218561E+03  0.26379218562E+03  0.25500000000E-02 0.  1.
          2   -1    0    0  501    0  0.00000000000E+00 -0.00000000000E+00 -0.82676556051E+03  0.82676556051E+03  0.25500000000E-02 0. -1.
    8880023    1    1    2    0    0 -0.14868559764E+03  0.69073773347E+02 -0.29209069079E+03  0.73892203311E+03  0.65864270000E+03 0.  1.
    8880022    1    1    2    0    0  0.14868559764E+03 -0.69073773347E+02 -0.27088268411E+03  0.35163571302E+03  0.15294330000E+03 0.  1.
<mgrwt>
<rscale>  0 0.51456678E+03</rscale>
<asrwt>0</asrwt>
<pdfrwt beam="1">  1        2 0.12719470E+00 0.67874060E+03</pdfrwt>
<pdfrwt beam="2">  1       -2 0.40583413E-01 0.67874060E+03</pdfrwt>
<totfact> 0.19208243E+02</totfact>
</mgrwt>
</event>
<event>
 4    1  0.3057048E-007  0.6591008E+03  0.7818608E-02  0.1025097E+00
          2   -1    0    0  501    0  0.00000000000E+00  0.00000000000E+00  0.57229514727E+03  0.57229514728E+03  0.25500000000E-02 0. -1.
         -2   -1    0    0    0  501 -0.00000000000E+00 -0.00000000000E+00 -0.41724219583E+03  0.41724219584E+03  0.25500000000E-02 0.  1.
    8880023    1    1    2    0    0 -0.24465058840E+02 -0.22488798507E+01 -0.12372558740E+03  0.67061302090E+03  0.65864270000E+03 0.  1.
    8880022    1    1    2    0    0  0.24465058840E+02  0.22488798507E+01  0.27877853884E+03  0.31892432221E+03  0.15294330000E+03 0.  0.
<mgrwt>
<rscale>  0 0.45891211E+03</rscale>
<asrwt>0</asrwt>
<pdfrwt beam="1">  1        2 0.88045408E-01 0.65910075E+03</pdfrwt>
<pdfrwt beam="2">  1       -2 0.64191107E-01 0.65910075E+03</pdfrwt>
<totfact> 0.11965463E+02</totfact>
</mgrwt>
</event>
<event>
 4    1  0.3057048E-007  0.1066444E+04  0.7818608E-02  0.9299370E-01
         -2   -1    0    0    0  501 -0.00000000000E+00  0.00000000000E+00  0.78290225345E+03  0.78290225345E+03  0.25500000000E-02 0.  1.
          2   -1    0    0  501    0  0.00000000000E+00 -0.00000000000E+00 -0.12704421962E+04  0.12704421962E+04  0.25500000000E-02 0. -1.
    8880023    1    1    2    0    0 -0.52104703719E+03 -0.65726838300E+03  0.94581597981E+01  0.10664855392E+04  0.65864270000E+03 0.  0.
    8880022    1    1    2    0    0  0.52104703719E+03  0.65726838300E+03 -0.49699810259E+03  0.98685891050E+03  0.15294330000E+03 0.  0.
<mgrwt>
<rscale>  0 0.10084085E+04</rscale>
<asrwt>0</asrwt>
<pdfrwt beam="1">  1        2 0.19545265E+00 0.10664436E+04</pdfrwt>
<pdfrwt beam="2">  1       -2 0.12044650E+00 0.10664436E+04</pdfrwt>
<totfact> 0.89307737E+00</totfact>
</mgrwt>
</event>
<event>
 4    1  0.3057048E-007  0.9877930E+03  0.7818608E-02  0.9397705E-01
         -2   -1    0    0    0  501 -0.00000000000E+00  0.00000000000E+00  0.45619999707E+03  0.45619999707E+03  0.25500000000E-02 0.  1.
          2   -1    0    0  501    0  0.00000000000E+00 -0.00000000000E+00 -0.28890697259E+04  0.28890697259E+04  0.25500000000E-02 0. -1.
    8880023    1    1    2    0    0  0.73441866988E+03  0.50536490902E+02 -0.22528488247E+03  0.10131575416E+04  0.65864270000E+03 0.  1.
    8880022    1    1    2    0    0 -0.73441866988E+03 -0.50536490902E+02 -0.22075848463E+04  0.23321121813E+04  0.15294330000E+03 0.  0.
<mgrwt>
<rscale>  0 0.92264767E+03</rscale>
<asrwt>0</asrwt>
<pdfrwt beam="1">  1        2 0.44447225E+00 0.98779296E+03</pdfrwt>
<pdfrwt beam="2">  1       -2 0.70184617E-01 0.98779296E+03</pdfrwt>
<totfact> 0.38510378E+00</totfact>
</mgrwt>
</event>
<event>
 4    1  0.3057048E-007  0.8470171E+03  0.7818608E-02  0.9617088E-01
          2   -1    0    0  501    0  0.00000000000E+00  0.00000000000E+00  0.15046851177E+04  0.15046851177E+04  0.25500000000E-02 0. -1.
         -2   -1    0    0    0  501 -0.00000000000E+00 -0.00000000000E+00 -0.53774491279E+03  0.53774491280E+03  0.25500000000E-02 0.  1.
    8880023    1    1    2    0    0 -0.24885535068E+03 -0.47084900722E+03 -0.87241630832E+02  0.85149813951E+03  0.65864270000E+03 0.  1.
    8880022    1    1    2    0    0  0.24885535068E+03  0.47084900722E+03  0.10541818357E+04  0.11909318910E+04  0.15294330000E+03 0.  0.
<mgrwt>
<rscale>  0 0.76175422E+03</rscale>
<asrwt>0</asrwt>
<pdfrwt beam="1">  1        2 0.23149002E+00 0.84701711E+03</pdfrwt>
<pdfrwt beam="2">  1       -2 0.82729987E-01 0.84701711E+03</pdfrwt>
<totfact> 0.16369874E+01</totfact>
</mgrwt>
</event>
<event>
 4    1  0.3529435E-007  0.9856768E+03  0.7818608E-02  0.9400541E-01
          2   -1    0    0  501    0  0.00000000000E+00  0.00000000000E+00  0.16323659703E+04  0.16323659703E+04  0.25500000000E-02 0. -1.
         -2   -1    0    0    0  501 -0.00000000000E+00 -0.00000000000E+00 -0.15145532263E+04  0.15145532263E+04  0.25500000000E-02 0.  1.
    8880023    1    1    2    0    0  0.21383185140E+03 -0.70144462981E+03 -0.12473177792E+04  0.15897674289E+04  0.65864270000E+03 0.  0.
    8880022    1    1    2    0    0 -0.21383185140E+03  0.70144462981E+03  0.13651305232E+04  0.15571517677E+04  0.15294330000E+03 0.  0.
<mgrwt>
<rscale>  0 0.92031149E+03</rscale>
<asrwt>0</asrwt>
<pdfrwt beam="1">  1        2 0.25113322E+00 0.98567684E+03</pdfrwt>
<pdfrwt beam="2">  1       -2 0.23300819E+00 0.98567684E+03</pdfrwt>
<totfact> 0.87533527E-01</totfact>
</mgrwt>
</event>
<event>
 4    1  0.3057048E-007  0.9005502E+03  0.7818608E-02  0.9525149E-01
          2   -1    0    0  501    0  0.00000000000E+00  0.00000000000E+00  0.80192695436E+03  0.80192695437E+03  0.25500000000E-02 0. -1.
         -2   -1    0    0    0  501 -0.00000000000E+00 -0.00000000000E+00 -0.11055829830E+04  0.11055829830E+04  0.25500000000E-02 0.  1.
    8880023    1    1    2    0    0 -0.19089314435E+03 -0.58372967007E+03 -0.71739489042E+03  0.11513670811E+04  0.65864270000E+03 0.  0.
    8880022    1    1    2    0    0  0.19089314435E+03  0.58372967007E+03  0.41373886183E+03  0.75614285627E+03  0.15294330000E+03 0.  0.
<mgrwt>
<rscale>  0 0.82454821E+03</rscale>
<asrwt>0</asrwt>
<pdfrwt beam="1">  1        2 0.12337338E+00 0.90055024E+03</pdfrwt>
<pdfrwt beam="2">  1       -2 0.17008969E+00 0.90055024E+03</pdfrwt>
<totfact> 0.73164982E+00</totfact>
</mgrwt>
</event>
<event>
 4    1  0.3057048E-007  0.7954266E+03  0.7818608E-02  0.9720773E-01
          2   -1    0    0  501    0  0.00000000000E+00  0.00000000000E+00  0.72697676473E+03  0.72697676473E+03  0.25500000000E-02 0. -1.
         -2   -1    0    0    0  501 -0.00000000000E+00 -0.00000000000E+00 -0.96936687606E+03  0.96936687607E+03  0.25500000000E-02 0.  1.
    8880023    1    1    2    0    0  0.12902932785E+03 -0.42690119486E+03 -0.68495587955E+03  0.10496989858E+04  0.65864270000E+03 0.  1.
    8880022    1    1    2    0    0 -0.12902932785E+03  0.42690119486E+03  0.44256576821E+03  0.64664465499E+03  0.15294330000E+03 0.  0.
<mgrwt>
<rscale>  0 0.69793310E+03</rscale>
<asrwt>0</asrwt>
<pdfrwt beam="1">  1        2 0.11184258E+00 0.79542655E+03</pdfrwt>
<pdfrwt beam="2">  1       -2 0.14913337E+00 0.79542655E+03</pdfrwt>
<totfact> 0.12005679E+01</totfact>
</mgrwt>
</event>
<event>
 4    1  0.3057048E-007  0.1264728E+04  0.7818608E-02  0.9096634E-01
         -2   -1    0    0    0  501 -0.00000000000E+00  0.00000000000E+00  0.20724310090E+04  0.20724310090E+04  0.25500000000E-02 0.  1.
          2   -1    0    0  501    0  0.00000000000E+00 -0.00000000000E+00 -0.81155455892E+03  0.81155455893E+03  0.25500000000E-02 0. -1.
    8880023    1    1    2    0    0 -0.96321626756E+02 -0.10753825525E+04  0.12716074994E+04  0.17934662887E+04  0.65864270000E+03 0.  0.
    8880022    1    1    2    0    0  0.96321626756E+02  0.10753825525E+04 -0.10731049240E+02  0.10905192793E+04  0.15294330000E+03 0.  0.
<mgrwt>
<rscale>  0 0.12187112E+04</rscale>
<asrwt>0</asrwt>
<pdfrwt beam="1">  1        2 0.12485455E+00 0.12647275E+04</pdfrwt>
<pdfrwt beam="2">  1       -2 0.31883554E+00 0.12647275E+04</pdfrwt>
<totfact> 0.80209970E-01</totfact>
</mgrwt>
</event>
<event>
 4    1  0.3057048E-007  0.9639634E+03  0.7818608E-02  0.9430302E-01
         -2   -1    0    0    0  501 -0.00000000000E+00  0.00000000000E+00  0.62107041608E+03  0.62107041608E+03  0.25500000000E-02 0.  1.
          2   -1    0    0  501    0  0.00000000000E+00 -0.00000000000E+00 -0.27158238905E+04  0.27158238905E+04  0.25500000000E-02 0. -1.
    8880023    1    1    2    0    0 -0.19976869154E+03 -0.67491308622E+03  0.15347316797E+03  0.97610420735E+03  0.65864270000E+03 0.  1.
    8880022    1    1    2    0    0  0.19976869154E+03  0.67491308622E+03 -0.22482266424E+04  0.23607900993E+04  0.15294330000E+03 0.  0.
<mgrwt>
<rscale>  0 0.89623338E+03</rscale>
<asrwt>0</asrwt>
<pdfrwt beam="1">  1        2 0.41781905E+00 0.96396339E+03</pdfrwt>
<pdfrwt beam="2">  1       -2 0.95549296E-01 0.96396339E+03</pdfrwt>
<totfact> 0.24342833E+00</totfact>
</mgrwt>
</event>
<event>
 4    1  0.3057048E-007  0.1016890E+04  0.7818608E-02  0.9359786E-01
          2   -1    0    0  501    0  0.00000000000E+00  0.00000000000E+00  0.20144935997E+04  0.20144935997E+04  0.25500000000E-02 0. -1.
         -2   -1    0    0    0  501 -0.00000000000E+00 -0.00000000000E+00 -0.48579732421E+03  0.48579732422E+03  0.25500000000E-02 0.  1.
    8880023    1    1    2    0    0 -0.76460479197E+03  0.12503910930E+03  0.33815137405E+03  0.10716397831E+04  0.65864270000E+03 0.  0.
    8880022    1    1    2    0    0  0.76460479197E+03 -0.12503910930E+03  0.11905449015E+04  0.14286511408E+04  0.15294330000E+03 0.  0.
<mgrwt>
<rscale>  0 0.95460315E+03</rscale>
<asrwt>0</asrwt>
<pdfrwt beam="1">  1        2 0.30992209E+00 0.10168901E+04</pdfrwt>
<pdfrwt beam="2">  1       -2 0.74738050E-01 0.10168901E+04</pdfrwt>
<totfact> 0.10563367E+01</totfact>
</mgrwt>
</event>
<event>
 4    1  0.3057048E-007  0.8436995E+03  0.7818608E-02  0.9623243E-01
         -2   -1    0    0    0  501 -0.00000000000E+00  0.00000000000E+00  0.24014495268E+03  0.24014495269E+03  0.25500000000E-02 0.  1.
          2   -1    0    0  501    0  0.00000000000E+00 -0.00000000000E+00 -0.23240912302E+04  0.23240912302E+04  0.25500000000E-02 0. -1.
    8880023    1    1    2    0    0 -0.51899184216E+03  0.93092319034E+02 -0.77829660588E+03  0.11478564915E+04  0.65864270000E+03 0.  0.
    8880022    1    1    2    0    0  0.51899184216E+03 -0.93092319034E+02 -0.13056496716E+04  0.14163796913E+04  0.15294330000E+03 0.  0.
<mgrwt>
<rscale>  0 0.75776690E+03</rscale>
<asrwt>0</asrwt>
<pdfrwt beam="1">  1        2 0.35755248E+00 0.84369954E+03</pdfrwt>
<pdfrwt beam="2">  1       -2 0.36945379E-01 0.84369954E+03</pdfrwt>
<totfact> 0.31129377E+01</totfact>
</mgrwt>
</event>
<event>
 4    1  0.3057048E-007  0.7250438E+03  0.7818608E-02  0.9905875E-01
         -2   -1    0    0    0  501 -0.00000000000E+00  0.00000000000E+00  0.97964281573E+03  0.97964281573E+03  0.25500000000E-02 0.  1.
          2   -1    0    0  501    0  0.00000000000E+00 -0.00000000000E+00 -0.66040920013E+03  0.66040920014E+03  0.25500000000E-02 0. -1.
    8880023    1    1    2    0    0 -0.29168087420E+03 -0.82465977482E+02  0.78180299088E+03  0.10662572357E+04  0.65864270000E+03 0.  1.
    8880022    1    1    2    0    0  0.29168087420E+03  0.82465977482E+02 -0.46256937529E+03  0.57379478020E+03  0.15294330000E+03 0.  0.
<mgrwt>
<rscale>  0 0.59977416E+03</rscale>
<asrwt>0</asrwt>
<pdfrwt beam="1">  1        2 0.10160142E+00 0.72504384E+03</pdfrwt>
<pdfrwt beam="2">  1       -2 0.15071428E+00 0.72504384E+03</pdfrwt>
<totfact> 0.13272100E+01</totfact>
</mgrwt>
</event>
<event>
 4    1  0.3057048E-007  0.6593282E+03  0.7818608E-02  0.1024856E+00
         -2   -1    0    0    0  501 -0.00000000000E+00  0.00000000000E+00  0.26084230905E+03  0.26084230907E+03  0.25500000000E-02 0.  1.
          2   -1    0    0  501    0  0.00000000000E+00 -0.00000000000E+00 -0.14784735715E+04  0.14784735715E+04  0.25500000000E-02 0. -1.
    8880023    1    1    2    0    0  0.34819718916E+00 -0.30055111112E+02 -0.17100028999E+03  0.68114222919E+03  0.65864270000E+03 0.  1.
    8880022    1    1    2    0    0 -0.34819718916E+00  0.30055111112E+02 -0.10466309724E+04  0.10581736514E+04  0.15294330000E+03 0.  0.
<mgrwt>
<rscale>  0 0.45974395E+03</rscale>
<asrwt>0</asrwt>
<pdfrwt beam="1">  1        2 0.22745747E+00 0.65932817E+03</pdfrwt>
<pdfrwt beam="2">  1       -2 0.40129587E-01 0.65932817E+03</pdfrwt>
<totfact> 0.78927237E+01</totfact>
</mgrwt>
</event>
<event>
 4    1  0.3057048E-007  0.8016663E+03  0.7818608E-02  0.9707205E-01
          2   -1    0    0  501    0  0.00000000000E+00  0.00000000000E+00  0.33744145930E+04  0.33744145930E+04  0.25500000000E-02 0. -1.
         -2   -1    0    0    0  501 -0.00000000000E+00 -0.00000000000E+00 -0.59471631107E+03  0.59471631108E+03  0.25500000000E-02 0.  1.
    8880023    1    1    2    0    0  0.21058786519E+03  0.40560010024E+03 -0.29700293965E+03  0.85491499150E+03  0.65864270000E+03 0.  1.
    8880022    1    1    2    0    0 -0.21058786519E+03 -0.40560010024E+03  0.30767012216E+04  0.31142159126E+04  0.15294330000E+03 0.  0.
<mgrwt>
<rscale>  0 0.70589446E+03</rscale>
<asrwt>0</asrwt>
<pdfrwt beam="1">  1        2 0.51914072E+00 0.80166632E+03</pdfrwt>
<pdfrwt beam="2">  1       -2 0.91494815E-01 0.80166632E+03</pdfrwt>
<totfact> 0.10807707E+00</totfact>
</mgrwt>
</event>
<event>
 4    1  0.3057048E-007  0.7003113E+03  0.7818608E-02  0.9995912E-01
         -2   -1    0    0    0  501 -0.00000000000E+00  0.00000000000E+00  0.18492662695E+04  0.18492662696E+04  0.25500000000E-02 0.  1.
          2   -1    0    0  501    0  0.00000000000E+00 -0.00000000000E+00 -0.48262039588E+03  0.48262039588E+03  0.25500000000E-02 0. -1.
    8880023    1    1    2    0    0 -0.17131402809E+03 -0.16515815005E+03  0.17329319324E+04  0.18690877452E+04  0.65864270000E+03 0.  1.
    8880022    1    1    2    0    0  0.17131402809E+03  0.16515815005E+03 -0.36628605870E+03  0.46279892023E+03  0.15294330000E+03 0.  0.
<mgrwt>
<rscale>  0 0.55829840E+03</rscale>
<asrwt>0</asrwt>
<pdfrwt beam="1">  1        2 0.74249292E-01 0.70031130E+03</pdfrwt>
<pdfrwt beam="2">  1       -2 0.28450250E+00 0.70031130E+03</pdfrwt>
<totfact> 0.26514381E+00</totfact>
</mgrwt>
</event>
<event>
 4    1  0.3057048E-007  0.6616512E+03  0.7818608E-02  0.1022525E+00
          2   -1    0    0  501    0  0.00000000000E+00  0.00000000000E+00  0.19693386931E+04  0.19693386931E+04  0.25500000000E-02 0. -1.
         -2   -1    0    0    0  501 -0.00000000000E+00 -0.00000000000E+00 -0.87731023644E+02  0.87731023681E+02  0.25500000000E-02 0.  1.
    8880023    1    1    2    0    0 -0.17321531823E+02 -0.60597649355E+02  0.14162250208E+04  0.15631620602E+04  0.65864270000E+03 0.  0.
    8880022    1    1    2    0    0  0.17321531823E+02  0.60597649355E+02  0.46538264865E+03  0.49390765661E+03  0.15294330000E+03 0. -1.
<mgrwt>
<rscale>  0 0.46786312E+03</rscale>
<asrwt>0</asrwt>
<pdfrwt beam="1">  1        2 0.30297519E+00 0.66165120E+03</pdfrwt>
<pdfrwt beam="2">  1       -2 0.13497080E-01 0.66165120E+03</pdfrwt>
<totfact> 0.29966716E+02</totfact>
</mgrwt>
</event>
<event>
 4    1  0.3057048E-007  0.7545907E+03  0.7818608E-02  0.9819318E-01
          2   -1    0    0  501    0  0.00000000000E+00  0.00000000000E+00  0.28824814688E+04  0.28824814688E+04  0.25500000000E-02 0. -1.
         -2   -1    0    0    0  501 -0.00000000000E+00 -0.00000000000E+00 -0.18149867576E+03  0.18149867578E+03  0.25500000000E-02 0.  1.
    8880023    1    1    2    0    0  0.35161472930E+03  0.10937977830E+03  0.71901065198E+03  0.10422971638E+04  0.65864270000E+03 0.  0.
    8880022    1    1    2    0    0 -0.35161472930E+03 -0.10937977830E+03  0.19819721411E+04  0.20216829808E+04  0.15294330000E+03 0.  0.
<mgrwt>
<rscale>  0 0.64336034E+03</rscale>
<asrwt>0</asrwt>
<pdfrwt beam="1">  1        2 0.44345871E+00 0.75459066E+03</pdfrwt>
<pdfrwt beam="2">  1       -2 0.27922872E-01 0.75459066E+03</pdfrwt>
<totfact> 0.25415970E+01</totfact>
</mgrwt>
</event>
<event>
 4    1  0.3057048E-007  0.6887838E+03  0.7818608E-02  0.1004736E+00
         -2   -1    0    0    0  501 -0.00000000000E+00  0.00000000000E+00  0.10262480311E+03  0.10262480314E+03  0.25500000000E-02 0.  1.
          2   -1    0    0  501    0  0.00000000000E+00 -0.00000000000E+00 -0.25231213342E+04  0.25231213342E+04  0.25500000000E-02 0. -1.
    8880023    1    1    2    0    0 -0.16930498439E+03 -0.10931041114E+03 -0.12401281454E+04  0.14185700431E+04  0.65864270000E+03 0.  1.
    8880022    1    1    2    0    0  0.16930498439E+03  0.10931041114E+03 -0.11803683857E+04  0.12071760943E+04  0.15294330000E+03 0.  0.
<mgrwt>
<rscale>  0 0.53621455E+03</rscale>
<asrwt>0</asrwt>
<pdfrwt beam="1">  1        2 0.38817247E+00 0.68878382E+03</pdfrwt>
<pdfrwt beam="2">  1       -2 0.15788433E-01 0.68878382E+03</pdfrwt>
<totfact> 0.11342815E+02</totfact>
</mgrwt>
</event>
<event>
 4    1  0.3057048E-007  0.7221900E+03  0.7818608E-02  0.9915244E-01
         -2   -1    0    0    0  501 -0.00000000000E+00  0.00000000000E+00  0.11090338410E+03  0.11090338413E+03  0.25500000000E-02 0.  1.
          2   -1    0    0  501    0  0.00000000000E+00 -0.00000000000E+00 -0.31362082065E+04  0.31362082065E+04  0.25500000000E-02 0. -1.
    8880023    1    1    2    0    0  0.58963556988E+02  0.29029559343E+03 -0.12748769888E+04  0.14652200434E+04  0.65864270000E+03 0.  1.
    8880022    1    1    2    0    0 -0.58963556988E+02 -0.29029559343E+03 -0.17504278336E+04  0.17818915473E+04  0.15294330000E+03 0.  0.
<mgrwt>
<rscale>  0 0.59528146E+03</rscale>
<asrwt>0</asrwt>
<pdfrwt beam="1">  1        2 0.48249350E+00 0.72219003E+03</pdfrwt>
<pdfrwt beam="2">  1       -2 0.17062061E-01 0.72219003E+03</pdfrwt>
<totfact> 0.42733671E+01</totfact>
</mgrwt>
</event>
<event>
 4    1  0.3057048E-007  0.8249009E+03  0.7818608E-02  0.9659336E-01
         -2   -1    0    0    0  501 -0.00000000000E+00  0.00000000000E+00  0.22704385690E+03  0.22704385691E+03  0.25500000000E-02 0.  1.
          2   -1    0    0  501    0  0.00000000000E+00 -0.00000000000E+00 -0.30559485685E+04  0.30559485685E+04  0.25500000000E-02 0. -1.
    8880023    1    1    2    0    0  0.48427966884E+03 -0.11011146046E+03 -0.67084217454E+03  0.10632453907E+04  0.65864270000E+03 0.  0.
    8880022    1    1    2    0    0 -0.48427966884E+03  0.11011146046E+03 -0.21580625370E+04  0.22197470347E+04  0.15294330000E+03 0. -1.
<mgrwt>
<rscale>  0 0.73490374E+03</rscale>
<asrwt>0</asrwt>
<pdfrwt beam="1">  1        2 0.47014590E+00 0.82490093E+03</pdfrwt>
<pdfrwt beam="2">  1       -2 0.34929826E-01 0.82490093E+03</pdfrwt>
<totfact> 0.12963891E+01</totfact>
</mgrwt>
</event>
<event>
 4    1  0.3057048E-007  0.6854319E+03  0.7818608E-02  0.1006404E+00
          2   -1    0    0  501    0  0.00000000000E+00  0.00000000000E+00  0.42100054527E+04  0.42100054527E+04  0.25500000000E-02 0. -1.
         -2   -1    0    0    0  501 -0.00000000000E+00 -0.00000000000E+00 -0.14161316176E+03  0.14161316179E+03  0.25500000000E-02 0.  1.
    8880023    1    1    2    0    0  0.17962089644E+03 -0.61180267748E+02  0.71898520897E+03  0.99335624455E+03  0.65864270000E+03 0.  0.
    8880022    1    1    2    0    0 -0.17962089644E+03  0.61180267748E+02  0.33494070820E+04  0.33582623700E+04  0.15294330000E+03 0.  0.
<mgrwt>
<rscale>  0 0.52929163E+03</rscale>
<asrwt>0</asrwt>
<pdfrwt beam="1">  1        2 0.64769303E+00 0.68543191E+03</pdfrwt>
<pdfrwt beam="2">  1       -2 0.21786644E-01 0.68543191E+03</pdfrwt>
<totfact> 0.47336458E+00</totfact>
</mgrwt>
</event>
<event>
 4    1  0.3057048E-007  0.6686827E+03  0.7818608E-02  0.1016625E+00
          2   -1    0    0  501    0  0.00000000000E+00  0.00000000000E+00  0.71762182608E+03  0.71762182609E+03  0.25500000000E-02 0. -1.
         -2   -1    0    0    0  501 -0.00000000000E+00 -0.00000000000E+00 -0.59181899261E+03  0.59181899261E+03  0.25500000000E-02 0.  1.
    8880023    1    1    2    0    0 -0.74204915313E+02 -0.88430542632E+02 -0.37961065223E+03  0.76892183210E+03  0.65864270000E+03 0.  0.
    8880022    1    1    2    0    0  0.74204915313E+02  0.88430542632E+02  0.50541348571E+03  0.54051898660E+03  0.15294330000E+03 0. -1.
<mgrwt>
<rscale>  0 0.48924333E+03</rscale>
<asrwt>0</asrwt>
<pdfrwt beam="1">  1        2 0.11040336E+00 0.66868269E+03</pdfrwt>
<pdfrwt beam="2">  1       -2 0.91049076E-01 0.66868269E+03</pdfrwt>
<totfact> 0.41665551E+01</totfact>
</mgrwt>
</event>
<event>
 4    1  0.3057048E-007  0.7241963E+03  0.7818608E-02  0.9908635E-01
          2   -1    0    0  501    0  0.00000000000E+00  0.00000000000E+00  0.14436360628E+04  0.14436360628E+04  0.25500000000E-02 0. -1.
         -2   -1    0    0    0  501 -0.00000000000E+00 -0.00000000000E+00 -0.80948346589E+03  0.80948346590E+03  0.25500000000E-02 0.  1.
    8880023    1    1    2    0    0 -0.11643873810E+03 -0.27765458695E+03 -0.62059102989E+03  0.95372610430E+03  0.65864270000E+03 0.  1.
    8880022    1    1    2    0    0  0.11643873810E+03  0.27765458695E+03  0.12547436268E+04  0.12993934244E+04  0.15294330000E+03 0.  0.
<mgrwt>
<rscale>  0 0.59844629E+03</rscale>
<asrwt>0</asrwt>
<pdfrwt beam="1">  1        2 0.22209786E+00 0.72419628E+03</pdfrwt>
<pdfrwt beam="2">  1       -2 0.12453592E+00 0.72419628E+03</pdfrwt>
<totfact> 0.67978705E+00</totfact>
</mgrwt>
</event>
<event>
 4    1  0.3057048E-007  0.1141627E+04  0.7818608E-02  0.9216066E-01
          2   -1    0    0  501    0  0.00000000000E+00  0.00000000000E+00  0.23793883541E+04  0.23793883541E+04  0.25500000000E-02 0. -1.
         -2   -1    0    0    0  501 -0.00000000000E+00 -0.00000000000E+00 -0.49265693669E+03  0.49265693670E+03  0.25500000000E-02 0.  1.
    8880023    1    1    2    0    0 -0.52394399368E+03  0.77135216672E+03  0.64359053431E+03  0.13105420465E+04  0.65864270000E+03 0.  0.
    8880022    1    1    2    0    0  0.52394399368E+03 -0.77135216672E+03  0.12431408831E+04  0.15615032443E+04  0.15294330000E+03 0.  0.
<mgrwt>
<rscale>  0 0.10889126E+04</rscale>
<asrwt>0</asrwt>
<pdfrwt beam="1">  1        2 0.36605975E+00 0.11416268E+04</pdfrwt>
<pdfrwt beam="2">  1       -2 0.75793374E-01 0.11416268E+04</pdfrwt>
<totfact> 0.63199002E+00</totfact>
</mgrwt>
</event>
<event>
 4    1  0.3057048E-007  0.8525386E+03  0.7818608E-02  0.9606976E-01
         -2   -1    0    0    0  501 -0.00000000000E+00  0.00000000000E+00  0.97522145789E+03  0.97522145790E+03  0.25500000000E-02 0.  1.
          2   -1    0    0  501    0  0.00000000000E+00 -0.00000000000E+00 -0.15153971122E+04  0.15153971122E+04  0.25500000000E-02 0. -1.
    8880023    1    1    2    0    0 -0.23953243831E+03 -0.48542362858E+03  0.71660089670E+03  0.11137050505E+04  0.65864270000E+03 0.  1.
    8880022    1    1    2    0    0  0.23953243831E+03  0.48542362858E+03 -0.12567765510E+04  0.13769135196E+04  0.15294330000E+03 0.  0.
<mgrwt>
<rscale>  0 0.76836171E+03</rscale>
<asrwt>0</asrwt>
<pdfrwt beam="1">  1        2 0.23313802E+00 0.85253862E+03</pdfrwt>
<pdfrwt beam="2">  1       -2 0.15003407E+00 0.85253862E+03</pdfrwt>
<totfact> 0.37685221E+00</totfact>
</mgrwt>
</event>
<event>
 4    1  0.3057048E-007  0.7204794E+03  0.7818608E-02  0.9920967E-01
          2   -1    0    0  501    0  0.00000000000E+00  0.00000000000E+00  0.31392154506E+04  0.31392154506E+04  0.25500000000E-02 0. -1.
         -2   -1    0    0    0  501 -0.00000000000E+00 -0.00000000000E+00 -0.11035173189E+03  0.11035173192E+03  0.25500000000E-02 0.  1.
    8880023    1    1    2    0    0  0.28183639278E+03  0.76476177676E+02  0.12704981929E+04  0.14605670894E+04  0.65864270000E+03 0.  0.
    8880022    1    1    2    0    0 -0.28183639278E+03 -0.76476177676E+02  0.17583655258E+04  0.17890000932E+04  0.15294330000E+03 0.  0.
<mgrwt>
<rscale>  0 0.59255803E+03</rscale>
<asrwt>0</asrwt>
<pdfrwt beam="1">  1        2 0.48295630E+00 0.72047940E+03</pdfrwt>
<pdfrwt beam="2">  1       -2 0.16977187E-01 0.72047940E+03</pdfrwt>
<totfact> 0.42924908E+01</totfact>
</mgrwt>
</event>
<event>
 4    1  0.3057048E-007  0.6899112E+03  0.7818608E-02  0.1004195E+00
          2   -1    0    0  501    0  0.00000000000E+00  0.00000000000E+00  0.10628532462E+04  0.10628532462E+04  0.25500000000E-02 0. -1.
         -2   -1    0    0    0  501 -0.00000000000E+00 -0.00000000000E+00 -0.75382138861E+03  0.75382138861E+03  0.25500000000E-02 0.  1.
    8880023    1    1    2    0    0 -0.39797250404E+02 -0.20145327806E+03 -0.57387487792E+03  0.89739056500E+03  0.65864270000E+03 0.  1.
    8880022    1    1    2    0    0  0.39797250404E+02  0.20145327806E+03  0.88290673550E+03  0.91928406979E+03  0.15294330000E+03 0.  0.
<mgrwt>
<rscale>  0 0.53848529E+03</rscale>
<asrwt>0</asrwt>
<pdfrwt beam="1">  1        2 0.16351588E+00 0.68991119E+03</pdfrwt>
<pdfrwt beam="2">  1       -2 0.11597252E+00 0.68991119E+03</pdfrwt>
<totfact> 0.13604442E+01</totfact>
</mgrwt>
</event>
<event>
 4    1  0.3057048E-007  0.7542693E+03  0.7818608E-02  0.9820176E-01
          2   -1    0    0  501    0  0.00000000000E+00  0.00000000000E+00  0.97110801365E+03  0.97110801365E+03  0.25500000000E-02 0. -1.
         -2   -1    0    0    0  501 -0.00000000000E+00 -0.00000000000E+00 -0.69492029200E+03  0.69492029201E+03  0.25500000000E-02 0.  1.
    8880023    1    1    2    0    0  0.33920760565E+03 -0.14159879476E+03 -0.42053301021E+03  0.86357989633E+03  0.65864270000E+03 0.  0.
    8880022    1    1    2    0    0 -0.33920760565E+03  0.14159879476E+03  0.69672073186E+03  0.80244840933E+03  0.15294330000E+03 0.  0.
<mgrwt>
<rscale>  0 0.64290937E+03</rscale>
<asrwt>0</asrwt>
<pdfrwt beam="1">  1        2 0.14940123E+00 0.75426933E+03</pdfrwt>
<pdfrwt beam="2">  1       -2 0.10691081E+00 0.75426933E+03</pdfrwt>
<totfact> 0.18802878E+01</totfact>
</mgrwt>
</event>
<event>
 4    1  0.3057048E-007  0.1488005E+04  0.7818608E-02  0.8918153E-01
         -2   -1    0    0    0  501 -0.00000000000E+00  0.00000000000E+00  0.13259062470E+04  0.13259062470E+04  0.25500000000E-02 0.  1.
          2   -1    0    0  501    0  0.00000000000E+00 -0.00000000000E+00 -0.21364935765E+04  0.21364935765E+04  0.25500000000E-02 0. -1.
    8880023    1    1    2    0    0 -0.46644728781E+03 -0.12501098823E+04 -0.13556790680E+04  0.20129639172E+04  0.65864270000E+03 0. -1.
    8880022    1    1    2    0    0  0.46644728781E+03  0.12501098823E+04  0.54509173850E+03  0.14494359063E+04  0.15294330000E+03 0.  0.
<mgrwt>
<rscale>  0 0.14503571E+04</rscale>
<asrwt>0</asrwt>
<pdfrwt beam="1">  1        2 0.32869132E+00 0.14880047E+04</pdfrwt>
<pdfrwt beam="2">  1       -2 0.20398558E+00 0.14880047E+04</pdfrwt>
<totfact> 0.66007415E-01</totfact>
</mgrwt>
</event>
<event>
 4    1  0.3057048E-007  0.1035090E+04  0.7818608E-02  0.9337023E-01
          2   -1    0    0  501    0  0.00000000000E+00  0.00000000000E+00  0.41626465236E+04  0.41626465236E+04  0.25500000000E-02 0. -1.
         -2   -1    0    0    0  501 -0.00000000000E+00 -0.00000000000E+00 -0.36638945862E+03  0.36638945863E+03  0.25500000000E-02 0.  1.
    8880023    1    1    2    0    0 -0.77199069816E+03 -0.20403957554E+03  0.52956327895E+03  0.11626905259E+04  0.65864270000E+03 0.  0.
    8880022    1    1    2    0    0  0.77199069816E+03  0.20403957554E+03  0.32666937860E+04  0.33663454563E+04  0.15294330000E+03 0.  0.
<mgrwt>
<rscale>  0 0.97444725E+03</rscale>
<asrwt>0</asrwt>
<pdfrwt beam="1">  1        2 0.64040714E+00 0.10350903E+04</pdfrwt>
<pdfrwt beam="2">  1       -2 0.56367611E-01 0.10350903E+04</pdfrwt>
<totfact> 0.77973255E-01</totfact>
</mgrwt>
</event>
<event>
 4    1  0.3057048E-007  0.6983267E+03  0.7818608E-02  0.1000421E+00
          2   -1    0    0  501    0  0.00000000000E+00  0.00000000000E+00  0.56771204117E+03  0.56771204117E+03  0.25500000000E-02 0. -1.
         -2   -1    0    0    0  501 -0.00000000000E+00 -0.00000000000E+00 -0.26219383462E+04  0.26219383462E+04  0.25500000000E-02 0.  1.
    8880023    1    1    2    0    0  0.14836643371E+03 -0.17843025855E+03 -0.25376765809E+04  0.26320073312E+04  0.65864270000E+03 0.  1.
    8880022    1    1    2    0    0 -0.14836643371E+03  0.17843025855E+03  0.48345027590E+03  0.55764305617E+03  0.15294330000E+03 0.  0.
<mgrwt>
<rscale>  0 0.55465814E+03</rscale>
<asrwt>0</asrwt>
<pdfrwt beam="1">  1        2 0.87340315E-01 0.69832669E+03</pdfrwt>
<pdfrwt beam="2">  1       -2 0.40337512E+00 0.69832669E+03</pdfrwt>
<totfact> 0.40252231E-01</totfact>
</mgrwt>
</event>
<event>
 4    1  0.3057048E-007  0.9759403E+03  0.7818608E-02  0.9413735E-01
         -2   -1    0    0    0  501 -0.00000000000E+00  0.00000000000E+00  0.79283903212E+03  0.79283903212E+03  0.25500000000E-02 0.  1.
          2   -1    0    0  501    0  0.00000000000E+00 -0.00000000000E+00 -0.10315696471E+04  0.10315696471E+04  0.25500000000E-02 0. -1.
    8880023    1    1    2    0    0 -0.72004899163E+03  0.13369924175E+02  0.15711323914E+03  0.98850598450E+03  0.65864270000E+03 0.  1.
    8880022    1    1    2    0    0  0.72004899163E+03 -0.13369924175E+02 -0.39584385416E+03  0.83590269476E+03  0.15294330000E+03 0.  0.
<mgrwt>
<rscale>  0 0.90953928E+03</rscale>
<asrwt>0</asrwt>
<pdfrwt beam="1">  1        2 0.15870302E+00 0.97594032E+03</pdfrwt>
<pdfrwt beam="2">  1       -2 0.12197524E+00 0.97594032E+03</pdfrwt>
<totfact> 0.12191726E+01</totfact>
</mgrwt>
</event>
<event>
 4    1  0.3057048E-007  0.9602010E+03  0.7818608E-02  0.9435586E-01
          2   -1    0    0  501    0  0.00000000000E+00  0.00000000000E+00  0.12998092603E+04  0.12998092603E+04  0.25500000000E-02 0. -1.
         -2   -1    0    0    0  501 -0.00000000000E+00 -0.00000000000E+00 -0.82966744052E+03  0.82966744053E+03  0.25500000000E-02 0.  1.
    8880023    1    1    2    0    0 -0.33299881665E+03 -0.61423737886E+03 -0.36740376767E+03  0.10280911945E+04  0.65864270000E+03 0.  1.
    8880022    1    1    2    0    0  0.33299881665E+03  0.61423737886E+03  0.83754558746E+03  0.11013855063E+04  0.15294330000E+03 0.  0.
<mgrwt>
<rscale>  0 0.89204031E+03</rscale>
<asrwt>0</asrwt>
<pdfrwt beam="1">  1        2 0.19997065E+00 0.96020101E+03</pdfrwt>
<pdfrwt beam="2">  1       -2 0.12764115E+00 0.96020101E+03</pdfrwt>
<totfact> 0.74962875E+00</totfact>
</mgrwt>
</event>
<event>
 4    1  0.3057048E-007  0.7670214E+03  0.7818608E-02  0.9787258E-01
          2   -1    0    0  501    0  0.00000000000E+00  0.00000000000E+00  0.10733088893E+04  0.10733088893E+04  0.25500000000E-02 0. -1.
         -2   -1    0    0    0  501 -0.00000000000E+00 -0.00000000000E+00 -0.78248171897E+03  0.78248171897E+03  0.25500000000E-02 0.  1.
    8880023    1    1    2    0    0  0.30958547830E+03 -0.24221573849E+03 -0.53042203701E+03  0.93256065538E+03  0.65864270000E+03 0.  1.
    8880022    1    1    2    0    0 -0.30958547830E+03  0.24221573849E+03  0.82124920736E+03  0.92322995291E+03  0.15294330000E+03 0.  0.
<mgrwt>
<rscale>  0 0.66050880E+03</rscale>
<asrwt>0</asrwt>
<pdfrwt beam="1">  1        2 0.16512444E+00 0.76702141E+03</pdfrwt>
<pdfrwt beam="2">  1       -2 0.12038180E+00 0.76702141E+03</pdfrwt>
<totfact> 0.12113805E+01</totfact>
</mgrwt>
</event>
<event>
 4    1  0.3057048E-007  0.1410526E+04  0.7818608E-02  0.8975546E-01
          2   -1    0    0  501    0  0.00000000000E+00  0.00000000000E+00  0.14271908287E+04  0.14271908287E+04  0.25500000000E-02 0. -1.
         -2   -1    0    0    0  501 -0.00000000000E+00 -0.00000000000E+00 -0.22607515451E+04  0.22607515451E+04  0.25500000000E-02 0.  1.
    8880023    1    1    2    0    0 -0.10503312574E+04  0.67273937323E+03 -0.16642254413E+04  0.21815660752E+04  0.65864270000E+03 0.  0.
    8880022    1    1    2    0    0  0.10503312574E+04 -0.67273937323E+03  0.83066472492E+03  0.15063762985E+04  0.15294330000E+03 0.  0.
<mgrwt>
<rscale>  0 0.13703747E+04</rscale>
<asrwt>0</asrwt>
<pdfrwt beam="1">  1        2 0.21956782E+00 0.14105262E+04</pdfrwt>
<pdfrwt beam="2">  1       -2 0.34780793E+00 0.14105262E+04</pdfrwt>
<totfact> 0.21370167E-01</totfact>
</mgrwt>
</event>
<event>
 4    1  0.3057048E-007  0.8213582E+03  0.7818608E-02  0.9666387E-01
          2   -1    0    0  501    0  0.00000000000E+00  0.00000000000E+00  0.81182343689E+03  0.81182343690E+03  0.25500000000E-02 0. -1.
         -2   -1    0    0    0  501 -0.00000000000E+00 -0.00000000000E+00 -0.11940690245E+04  0.11940690245E+04  0.25500000000E-02 0.  1.
    8880023    1    1    2    0    0  0.60564325417E+02  0.48698155349E+03 -0.93940603401E+03  0.12478433291E+04  0.65864270000E+03 0.  0.
    8880022    1    1    2    0    0 -0.60564325417E+02 -0.48698155349E+03  0.55716044640E+03  0.75804913231E+03  0.15294330000E+03 0.  0.
<mgrwt>
<rscale>  0 0.73053874E+03</rscale>
<asrwt>0</asrwt>
<pdfrwt beam="1">  1        2 0.12489591E+00 0.82135819E+03</pdfrwt>
<pdfrwt beam="2">  1       -2 0.18370293E+00 0.82135819E+03</pdfrwt>
<totfact> 0.58386370E+00</totfact>
</mgrwt>
</event>
<event>
 4    1  0.3057048E-007  0.6985553E+03  0.7818608E-02  0.1000325E+00
         -2   -1    0    0    0  501 -0.00000000000E+00  0.00000000000E+00  0.55261907408E+03  0.55261907408E+03  0.25500000000E-02 0.  1.
          2   -1    0    0  501    0  0.00000000000E+00 -0.00000000000E+00 -0.10499192913E+04  0.10499192913E+04  0.25500000000E-02 0. -1.
    8880023    1    1    2    0    0 -0.16709987033E+03 -0.16200885622E+03  0.29831668380E+03  0.75958691817E+03  0.65864270000E+03 0.  1.
    8880022    1    1    2    0    0  0.16709987033E+03  0.16200885622E+03 -0.79561690105E+03  0.84295144725E+03  0.15294330000E+03 0. -1.
<mgrwt>
<rscale>  0 0.55508043E+03</rscale>
<asrwt>0</asrwt>
<pdfrwt beam="1">  1        2 0.16152604E+00 0.69855525E+03</pdfrwt>
<pdfrwt beam="2">  1       -2 0.85018319E-01 0.69855525E+03</pdfrwt>
<totfact> 0.28819488E+01</totfact>
</mgrwt>
</event>
<event>
 4    1  0.3057048E-007  0.1253721E+04  0.7818608E-02  0.9106592E-01
         -2   -1    0    0    0  501 -0.00000000000E+00  0.00000000000E+00  0.49106946013E+04  0.49106946013E+04  0.25500000000E-02 0.  1.
          2   -1    0    0  501    0  0.00000000000E+00 -0.00000000000E+00 -0.49068510844E+03  0.49068510845E+03  0.25500000000E-02 0. -1.
    8880023    1    1    2    0    0  0.10658751502E+04  0.43780539347E+02  0.52357270139E+03  0.13586556412E+04  0.65864270000E+03 0.  0.
    8880022    1    1    2    0    0 -0.10658751502E+04 -0.43780539347E+02  0.38964367914E+04  0.40427240685E+04  0.15294330000E+03 0.  0.
<mgrwt>
<rscale>  0 0.12071837E+04</rscale>
<asrwt>0</asrwt>
<pdfrwt beam="1">  1        2 0.75490020E-01 0.12537212E+04</pdfrwt>
<pdfrwt beam="2">  1       -2 0.75549144E+00 0.12537212E+04</pdfrwt>
<totfact> 0.85334605E-03</totfact>
</mgrwt>
</event>
<event>
 4    1  0.3057048E-007  0.7198901E+03  0.7818608E-02  0.9922958E-01
          2   -1    0    0  501    0  0.00000000000E+00  0.00000000000E+00  0.12060008799E+04  0.12060008799E+04  0.25500000000E-02 0. -1.
         -2   -1    0    0    0  501 -0.00000000000E+00 -0.00000000000E+00 -0.35159605651E+03  0.35159605652E+03  0.25500000000E-02 0.  1.
    8880023    1    1    2    0    0 -0.26620552829E+03 -0.11647358325E+03  0.89805507437E+02  0.72546999546E+03  0.65864270000E+03 0.  1.
    8880022    1    1    2    0    0  0.26620552829E+03  0.11647358325E+03  0.76459931593E+03  0.83212694093E+03  0.15294330000E+03 0.  0.
<mgrwt>
<rscale>  0 0.59161424E+03</rscale>
<asrwt>0</asrwt>
<pdfrwt beam="1">  1        2 0.18553860E+00 0.71989005E+03</pdfrwt>
<pdfrwt beam="2">  1       -2 0.54091700E-01 0.71989005E+03</pdfrwt>
<totfact> 0.61667459E+01</totfact>
</mgrwt>
</event>
<event>
 4    1  0.3057048E-007  0.8120383E+03  0.7818608E-02  0.9685347E-01
         -2   -1    0    0    0  501 -0.00000000000E+00  0.00000000000E+00  0.75854162129E+03  0.75854162129E+03  0.25500000000E-02 0.  1.
          2   -1    0    0  501    0  0.00000000000E+00 -0.00000000000E+00 -0.20646820424E+04  0.20646820424E+04  0.25500000000E-02 0. -1.
    8880023    1    1    2    0    0 -0.18805244119E+02 -0.47459706675E+03  0.49717199880E+03  0.95214821096E+03  0.65864270000E+03 0.  1.
    8880022    1    1    2    0    0  0.18805244119E+02  0.47459706675E+03 -0.18033124199E+04  0.18710754527E+04  0.15294330000E+03 0.  0.
<mgrwt>
<rscale>  0 0.71895982E+03</rscale>
<asrwt>0</asrwt>
<pdfrwt beam="1">  1        2 0.31764339E+00 0.81203831E+03</pdfrwt>
<pdfrwt beam="2">  1       -2 0.11669871E+00 0.81203831E+03</pdfrwt>
<totfact> 0.35937266E+00</totfact>
</mgrwt>
</event>
<event>
 4    1  0.3057048E-007  0.9069099E+03  0.7818608E-02  0.9515029E-01
          2   -1    0    0  501    0  0.00000000000E+00  0.00000000000E+00  0.31701871363E+04  0.31701871363E+04  0.25500000000E-02 0. -1.
         -2   -1    0    0    0  501 -0.00000000000E+00 -0.00000000000E+00 -0.64022305290E+03  0.64022305290E+03  0.25500000000E-02 0.  1.
    8880023    1    1    2    0    0  0.50429697942E+03  0.36655142954E+03 -0.26328085841E+03  0.94435290576E+03  0.65864270000E+03 0.  1.
    8880022    1    1    2    0    0 -0.50429697942E+03 -0.36655142954E+03  0.27932449418E+04  0.28660572835E+04  0.15294330000E+03 0.  0.
<mgrwt>
<rscale>  0 0.83184823E+03</rscale>
<asrwt>0</asrwt>
<pdfrwt beam="1">  1        2 0.48772111E+00 0.90690992E+03</pdfrwt>
<pdfrwt beam="2">  1       -2 0.98495852E-01 0.90690992E+03</pdfrwt>
<totfact> 0.12083345E+00</totfact>
</mgrwt>
</event>
<event>
 4    1  0.3057048E-007  0.9373980E+03  0.7818608E-02  0.9468482E-01
          2   -1    0    0  501    0  0.00000000000E+00  0.00000000000E+00  0.20425278982E+04  0.20425278982E+04  0.25500000000E-02 0. -1.
         -2   -1    0    0    0  501 -0.00000000000E+00 -0.00000000000E+00 -0.49482069784E+03  0.49482069785E+03  0.25500000000E-02 0.  1.
    8880023    1    1    2    0    0 -0.64671172996E+03 -0.16330584590E+03  0.15964262288E+04  0.18512946203E+04  0.65864270000E+03 0. -1.
    8880022    1    1    2    0    0  0.64671172996E+03  0.16330584590E+03 -0.48719028363E+02  0.68605397580E+03  0.15294330000E+03 0.  1.
<mgrwt>
<rscale>  0 0.86647920E+03</rscale>
<asrwt>0</asrwt>
<pdfrwt beam="1">  1        2 0.31423506E+00 0.93739803E+03</pdfrwt>
<pdfrwt beam="2">  1       -2 0.76126261E-01 0.93739803E+03</pdfrwt>
<totfact> 0.98748674E+00</totfact>
</mgrwt>
</event>
<event>
 4    1  0.3057048E-007  0.7864780E+03  0.7818608E-02  0.9740834E-01
         -2   -1    0    0    0  501 -0.00000000000E+00  0.00000000000E+00  0.45081522119E+03  0.45081522120E+03  0.25500000000E-02 0.  1.
          2   -1    0    0  501    0  0.00000000000E+00 -0.00000000000E+00 -0.85809394034E+03  0.85809394035E+03  0.25500000000E-02 0. -1.
    8880023    1    1    2    0    0 -0.73737268409E+02  0.42343854726E+03 -0.28584729069E+03  0.83681316189E+03  0.65864270000E+03 0. -1.
    8880022    1    1    2    0    0  0.73737268409E+02 -0.42343854726E+03 -0.12143142846E+03  0.47209599965E+03  0.15294330000E+03 0.  1.
<mgrwt>
<rscale>  0 0.68636718E+03</rscale>
<asrwt>0</asrwt>
<pdfrwt beam="1">  1        2 0.13201445E+00 0.78647797E+03</pdfrwt>
<pdfrwt beam="2">  1       -2 0.69356188E-01 0.78647797E+03</pdfrwt>
<totfact> 0.60082379E+01</totfact>
</mgrwt>
</event>
<event>
 4    1  0.3057048E-007  0.8128946E+03  0.7818608E-02  0.9683579E-01
         -2   -1    0    0    0  501 -0.00000000000E+00  0.00000000000E+00  0.10883374737E+04  0.10883374737E+04  0.25500000000E-02 0.  1.
          2   -1    0    0  501    0  0.00000000000E+00 -0.00000000000E+00 -0.57492612771E+03  0.57492612772E+03  0.25500000000E-02 0. -1.
    8880023    1    1    2    0    0 -0.45018621729E+03  0.15594802942E+03  0.75337631993E+03  0.11083201270E+04  0.65864270000E+03 0.  0.
    8880022    1    1    2    0    0  0.45018621729E+03 -0.15594802942E+03 -0.23996497394E+03  0.55494347446E+03  0.15294330000E+03 0.  0.
<mgrwt>
<rscale>  0 0.72002973E+03</rscale>
<asrwt>0</asrwt>
<pdfrwt beam="1">  1        2 0.88450173E-01 0.81289460E+03</pdfrwt>
<pdfrwt beam="2">  1       -2 0.16743653E+00 0.81289460E+03</pdfrwt>
<totfact> 0.11718970E+01</totfact>
</mgrwt>
</event>
<event>
 4    1  0.3057048E-007  0.7227998E+03  0.7818608E-02  0.9913224E-01
         -2   -1    0    0    0  501 -0.00000000000E+00  0.00000000000E+00  0.88453449918E+03  0.88453449918E+03  0.25500000000E-02 0.  1.
          2   -1    0    0  501    0  0.00000000000E+00 -0.00000000000E+00 -0.11149887310E+04  0.11149887310E+04  0.25500000000E-02 0. -1.
    8880023    1    1    2    0    0  0.29164837160E+03 -0.59754151888E+02  0.70274936282E+03  0.10081151742E+04  0.65864270000E+03 0.  1.
    8880022    1    1    2    0    0 -0.29164837160E+03  0.59754151888E+02 -0.93320359463E+03  0.99140805594E+03  0.15294330000E+03 0.  0.
<mgrwt>
<rscale>  0 0.59624663E+03</rscale>
<asrwt>0</asrwt>
<pdfrwt beam="1">  1        2 0.17153673E+00 0.72279979E+03</pdfrwt>
<pdfrwt beam="2">  1       -2 0.13608223E+00 0.72279979E+03</pdfrwt>
<totfact> 0.84311983E+00</totfact>
</mgrwt>
</event>
<event>
 4    1  0.3057048E-007  0.7133836E+03  0.7818608E-02  0.9945645E-01
         -2   -1    0    0    0  501 -0.00000000000E+00  0.00000000000E+00  0.95173550448E+02  0.95173550482E+02  0.25500000000E-02 0.  1.
          2   -1    0    0  501    0  0.00000000000E+00 -0.00000000000E+00 -0.33730480326E+04  0.33730480326E+04  0.25500000000E-02 0. -1.
    8880023    1    1    2    0    0 -0.15105463487E+03  0.22866667873E+03 -0.14776281004E+04  0.16408232574E+04  0.65864270000E+03 0.  1.
    8880022    1    1    2    0    0  0.15105463487E+03 -0.22866667873E+03 -0.18002463817E+04  0.18273983256E+04  0.15294330000E+03 0.  0.
<mgrwt>
<rscale>  0 0.58099253E+03</rscale>
<asrwt>0</asrwt>
<pdfrwt beam="1">  1        2 0.51893037E+00 0.71338360E+03</pdfrwt>
<pdfrwt beam="2">  1       -2 0.14642087E-01 0.71338360E+03</pdfrwt>
<totfact> 0.39076112E+01</totfact>
</mgrwt>
</event>
<event>
 4    1  0.3057048E-007  0.7766801E+03  0.7818608E-02  0.9763694E-01
         -2   -1    0    0    0  501 -0.00000000000E+00  0.00000000000E+00  0.56251482017E+03  0.56251482017E+03  0.25500000000E-02 0.  1.
          2   -1    0    0  501    0  0.00000000000E+00 -0.00000000000E+00 -0.83513117018E+03  0.83513117018E+03  0.25500000000E-02 0. -1.
    8880023    1    1    2    0    0  0.60443201091E+02  0.40714659768E+03  0.14678666427E+03  0.79042916421E+03  0.65864270000E+03 0.  0.
    8880022    1    1    2    0    0 -0.60443201091E+02 -0.40714659768E+03 -0.41940301428E+03  0.60721682615E+03  0.15294330000E+03 0.  0.
<mgrwt>
<rscale>  0 0.67347855E+03</rscale>
<asrwt>0</asrwt>
<pdfrwt beam="1">  1        2 0.12848172E+00 0.77668007E+03</pdfrwt>
<pdfrwt beam="2">  1       -2 0.86540742E-01 0.77668007E+03</pdfrwt>
<totfact> 0.38048237E+01</totfact>
</mgrwt>
</event>
<event>
 4    1  0.3057048E-007  0.8373483E+03  0.7818608E-02  0.9635201E-01
         -2   -1    0    0    0  501 -0.00000000000E+00  0.00000000000E+00  0.30051816921E+03  0.30051816922E+03  0.25500000000E-02 0.  1.
          2   -1    0    0  501    0  0.00000000000E+00 -0.00000000000E+00 -0.23258333373E+04  0.23258333373E+04  0.25500000000E-02 0. -1.
    8880023    1    1    2    0    0  0.42687801291E+03 -0.29174843127E+03 -0.42781225628E+03  0.94030607673E+03  0.65864270000E+03 0. -1.
    8880022    1    1    2    0    0 -0.42687801291E+03  0.29174843127E+03 -0.15975029118E+04  0.16860454298E+04  0.15294330000E+03 0.  0.
<mgrwt>
<rscale>  0 0.75009543E+03</rscale>
<asrwt>0</asrwt>
<pdfrwt beam="1">  1        2 0.35782050E+00 0.83734831E+03</pdfrwt>
<pdfrwt beam="2">  1       -2 0.46233566E-01 0.83734831E+03</pdfrwt>
<totfact> 0.20001854E+01</totfact>
</mgrwt>
</event>
<event>
 4    1  0.5134488E-007  0.1503061E+04  0.7818608E-02  0.8907478E-01
         -2   -1    0    0    0  501 -0.00000000000E+00  0.00000000000E+00  0.16973445290E+04  0.16973445290E+04  0.25500000000E-02 0.  1.
          2   -1    0    0  501    0  0.00000000000E+00 -0.00000000000E+00 -0.37710312695E+04  0.37710312695E+04  0.25500000000E-02 0. -1.
    8880023    1    1    2    0    0  0.12049410985E+04 -0.61114543320E+03  0.12001424622E+04  0.19234172525E+04  0.65864270000E+03 0.  1.
    8880022    1    1    2    0    0 -0.12049410985E+04  0.61114543320E+03 -0.32738292026E+04  0.35449585459E+04  0.15294330000E+03 0.  0.
<mgrwt>
<rscale>  0 0.14658613E+04</rscale>
<asrwt>0</asrwt>
<pdfrwt beam="1">  1        2 0.58015866E+00 0.15030609E+04</pdfrwt>
<pdfrwt beam="2">  1       -2 0.26112993E+00 0.15030609E+04</pdfrwt>
<totfact> 0.26932134E-02</totfact>
</mgrwt>
</event>
<event>
 4    1  0.3057048E-007  0.6772030E+03  0.7818608E-02  0.1010952E+00
         -2   -1    0    0    0  501 -0.00000000000E+00  0.00000000000E+00  0.12023462850E+03  0.12023462853E+03  0.25500000000E-02 0.  1.
          2   -1    0    0  501    0  0.00000000000E+00 -0.00000000000E+00 -0.23202371072E+04  0.23202371072E+04  0.25500000000E-02 0. -1.
    8880023    1    1    2    0    0 -0.15143015605E+03  0.43157592575E+02 -0.20858996394E+04  0.21930757355E+04  0.65864270000E+03 0.  0.
    8880022    1    1    2    0    0  0.15143015605E+03 -0.43157592575E+02 -0.11410283932E+03  0.24739600020E+03  0.15294330000E+03 0.  0.
<mgrwt>
<rscale>  0 0.51097952E+03</rscale>
<asrwt>0</asrwt>
<pdfrwt beam="1">  1        2 0.35695952E+00 0.67720298E+03</pdfrwt>
<pdfrwt beam="2">  1       -2 0.18497637E-01 0.67720298E+03</pdfrwt>
<totfact> 0.11251764E+02</totfact>
</mgrwt>
</event>
<event>
 4    1  0.3057048E-007  0.9399323E+03  0.7818608E-02  0.9464750E-01
          2   -1    0    0  501    0  0.00000000000E+00  0.00000000000E+00  0.18922928444E+04  0.18922928445E+04  0.25500000000E-02 0. -1.
         -2   -1    0    0    0  501 -0.00000000000E+00 -0.00000000000E+00 -0.68732424967E+03  0.68732424968E+03  0.25500000000E-02 0.  1.
    8880023    1    1    2    0    0 -0.52414102205E+03 -0.41825684520E+03 -0.24798439948E+03  0.97209519503E+03  0.65864270000E+03 0.  1.
    8880022    1    1    2    0    0  0.52414102205E+03  0.41825684520E+03  0.14529529943E+04  0.16075218991E+04  0.15294330000E+03 0.  0.
<mgrwt>
<rscale>  0 0.86933330E+03</rscale>
<asrwt>0</asrwt>
<pdfrwt beam="1">  1        2 0.29112198E+00 0.93993234E+03</pdfrwt>
<pdfrwt beam="2">  1       -2 0.10574219E+00 0.93993234E+03</pdfrwt>
<totfact> 0.55760119E+00</totfact>
</mgrwt>
</event>
<event>
 4    1  0.3057048E-007  0.7581699E+03  0.7818608E-02  0.9809869E-01
          2   -1    0    0  501    0  0.00000000000E+00  0.00000000000E+00  0.57157651848E+03  0.57157651848E+03  0.25500000000E-02 0. -1.
         -2   -1    0    0    0  501 -0.00000000000E+00 -0.00000000000E+00 -0.75071196850E+03  0.75071196850E+03  0.25500000000E-02 0.  1.
    8880023    1    1    2    0    0  0.37381229327E+03 -0.35717575589E+02 -0.40353062616E+03  0.85887050730E+03  0.65864270000E+03 0.  1.
    8880022    1    1    2    0    0 -0.37381229327E+03  0.35717575589E+02  0.22439517614E+03  0.46341797968E+03  0.15294330000E+03 0.  0.
<mgrwt>
<rscale>  0 0.64835614E+03</rscale>
<asrwt>0</asrwt>
<pdfrwt beam="1">  1        2 0.87934849E-01 0.75816989E+03</pdfrwt>
<pdfrwt beam="2">  1       -2 0.11549415E+00 0.75816989E+03</pdfrwt>
<totfact> 0.31048220E+01</totfact>
</mgrwt>
</event>
<event>
 4    1  0.3057048E-007  0.6952760E+03  0.7818608E-02  0.1001739E+00
          2   -1    0    0  501    0  0.00000000000E+00  0.00000000000E+00  0.92853860801E+03  0.92853860801E+03  0.25500000000E-02 0. -1.
         -2   -1    0    0    0  501 -0.00000000000E+00 -0.00000000000E+00 -0.43353872694E+03  0.43353872695E+03  0.25500000000E-02 0.  1.
    8880023    1    1    2    0    0  0.11951363110E+02  0.22238638232E+03 -0.10584542509E+03  0.70328656919E+03  0.65864270000E+03 0.  1.
    8880022    1    1    2    0    0 -0.11951363110E+02 -0.22238638232E+03  0.60084530616E+03  0.65879076577E+03  0.15294330000E+03 0.  0.
<mgrwt>
<rscale>  0 0.54894142E+03</rscale>
<asrwt>0</asrwt>
<pdfrwt beam="1">  1        2 0.14285209E+00 0.69527602E+03</pdfrwt>
<pdfrwt beam="2">  1       -2 0.66698267E-01 0.69527602E+03</pdfrwt>
<totfact> 0.59041523E+01</totfact>
</mgrwt>
</event>
<event>
 4    1  0.3057048E-007  0.1084134E+04  0.7818608E-02  0.9278930E-01
         -2   -1    0    0    0  501 -0.00000000000E+00  0.00000000000E+00  0.15850242974E+04  0.15850242974E+04  0.25500000000E-02 0.  1.
          2   -1    0    0  501    0  0.00000000000E+00 -0.00000000000E+00 -0.99299444035E+03  0.99299444036E+03  0.25500000000E-02 0. -1.
    8880023    1    1    2    0    0  0.15008336945E+03 -0.84794527471E+03  0.11180942151E+04  0.15573956102E+04  0.65864270000E+03 0.  0.
    8880022    1    1    2    0    0 -0.15008336945E+03  0.84794527471E+03 -0.52606435802E+03  0.10206231275E+04  0.15294330000E+03 0.  0.
<mgrwt>
<rscale>  0 0.10274596E+04</rscale>
<asrwt>0</asrwt>
<pdfrwt beam="1">  1        2 0.15276838E+00 0.10841339E+04</pdfrwt>
<pdfrwt beam="2">  1       -2 0.24384989E+00 0.10841339E+04</pdfrwt>
<totfact> 0.17601194E+00</totfact>
</mgrwt>
</event>
<event>
 4    1  0.3057048E-007  0.7323524E+03  0.7818608E-02  0.9882811E-01
          2   -1    0    0  501    0  0.00000000000E+00  0.00000000000E+00  0.18593636890E+04  0.18593636890E+04  0.25500000000E-02 0. -1.
         -2   -1    0    0    0  501 -0.00000000000E+00 -0.00000000000E+00 -0.34912538126E+03  0.34912538127E+03  0.25500000000E-02 0.  1.
    8880023    1    1    2    0    0  0.26752293411E+03 -0.17595826647E+03  0.82117250018E+02  0.73694184359E+03  0.65864270000E+03 0.  1.
    8880022    1    1    2    0    0 -0.26752293411E+03  0.17595826647E+03  0.14281210577E+04  0.14715472267E+04  0.15294330000E+03 0.  0.
<mgrwt>
<rscale>  0 0.61101597E+03</rscale>
<asrwt>0</asrwt>
<pdfrwt beam="1">  1        2 0.28605595E+00 0.73235240E+03</pdfrwt>
<pdfrwt beam="2">  1       -2 0.53711597E-01 0.73235240E+03</pdfrwt>
<totfact> 0.26970023E+01</totfact>
</mgrwt>
</event>
<event>
 4    1  0.3057048E-007  0.8555425E+03  0.7818608E-02  0.9601542E-01
          2   -1    0    0  501    0  0.00000000000E+00  0.00000000000E+00  0.23623750206E+04  0.23623750206E+04  0.25500000000E-02 0. -1.
         -2   -1    0    0    0  501 -0.00000000000E+00 -0.00000000000E+00 -0.23816857755E+03  0.23816857756E+03  0.25500000000E-02 0.  1.
    8880023    1    1    2    0    0 -0.54495084163E+03 -0.34223866678E+02  0.16608859518E+04  0.18682866601E+04  0.65864270000E+03 0.  0.
    8880022    1    1    2    0    0  0.54495084163E+03  0.34223866678E+02  0.46332049124E+03  0.73225693815E+03  0.15294330000E+03 0.  0.
<mgrwt>
<rscale>  0 0.77194187E+03</rscale>
<asrwt>0</asrwt>
<pdfrwt beam="1">  1        2 0.36344230E+00 0.85554246E+03</pdfrwt>
<pdfrwt beam="2">  1       -2 0.36641320E-01 0.85554246E+03</pdfrwt>
<totfact> 0.30061478E+01</totfact>
</mgrwt>
</event>
<event>
 4    1  0.3057048E-007  0.9563562E+03  0.7818608E-02  0.9441027E-01
          2   -1    0    0  501    0  0.00000000000E+00  0.00000000000E+00  0.19218581726E+04  0.19218581726E+04  0.25500000000E-02 0. -1.
         -2   -1    0    0    0  501 -0.00000000000E+00 -0.00000000000E+00 -0.67680340937E+03  0.67680340938E+03  0.25500000000E-02 0.  1.
    8880023    1    1    2    0    0 -0.62946787937E+03 -0.29082153650E+03 -0.21040594844E+03  0.97922818926E+03  0.65864270000E+03 0.  0.
    8880022    1    1    2    0    0  0.62946787937E+03  0.29082153650E+03  0.14554607117E+04  0.16194333927E+04  0.15294330000E+03 0.  0.
<mgrwt>
<rscale>  0 0.88774854E+03</rscale>
<asrwt>0</asrwt>
<pdfrwt beam="1">  1        2 0.29567048E+00 0.95635620E+03</pdfrwt>
<pdfrwt beam="2">  1       -2 0.10412360E+00 0.95635620E+03</pdfrwt>
<totfact> 0.55632925E+00</totfact>
</mgrwt>
</event>
<event>
 4    1  0.3057048E-007  0.7151610E+03  0.7818608E-02  0.9939313E-01
          2   -1    0    0  501    0  0.00000000000E+00  0.00000000000E+00  0.14384084697E+04  0.14384084697E+04  0.25500000000E-02 0. -1.
         -2   -1    0    0    0  501 -0.00000000000E+00 -0.00000000000E+00 -0.65651689148E+03  0.65651689148E+03  0.25500000000E-02 0.  1.
    8880023    1    1    2    0    0 -0.86728322399E+02 -0.26480787215E+03 -0.43509282865E+03  0.83711467963E+03  0.65864270000E+03 0.  1.
    8880022    1    1    2    0    0  0.86728322399E+02  0.26480787215E+03  0.12169844068E+04  0.12578106815E+04  0.15294330000E+03 0.  0.
<mgrwt>
<rscale>  0 0.58393261E+03</rscale>
<asrwt>0</asrwt>
<pdfrwt beam="1">  1        2 0.22129361E+00 0.71516097E+03</pdfrwt>
<pdfrwt beam="2">  1       -2 0.10100260E+00 0.71516097E+03</pdfrwt>
<totfact> 0.11410579E+01</totfact>
</mgrwt>
</event>
<event>
 4    1  0.3057048E-007  0.1085587E+04  0.7818608E-02  0.9277275E-01
          2   -1    0    0  501    0  0.00000000000E+00  0.00000000000E+00  0.15559088401E+04  0.15559088401E+04  0.25500000000E-02 0. -1.
         -2   -1    0    0    0  501 -0.00000000000E+00 -0.00000000000E+00 -0.77099003600E+03  0.77099003601E+03  0.25500000000E-02 0.  1.
    8880023    1    1    2    0    0 -0.43521649482E+03 -0.74516849456E+03 -0.89005392902E+02  0.10892298421E+04  0.65864270000E+03 0.  0.
    8880022    1    1    2    0    0  0.43521649482E+03  0.74516849456E+03  0.87392419696E+03  0.12376690340E+04  0.15294330000E+03 0.  0.
<mgrwt>
<rscale>  0 0.10290215E+04</rscale>
<asrwt>0</asrwt>
<pdfrwt beam="1">  1        2 0.23937059E+00 0.10855873E+04</pdfrwt>
<pdfrwt beam="2">  1       -2 0.11861385E+00 0.10855873E+04</pdfrwt>
<totfact> 0.63600740E+00</totfact>
</mgrwt>
</event>
<event>
 4    1  0.3057048E-007  0.6642019E+03  0.7818608E-02  0.1020213E+00
          2   -1    0    0  501    0  0.00000000000E+00  0.00000000000E+00  0.64398007159E+03  0.64398007160E+03  0.25500000000E-02 0. -1.
         -2   -1    0    0    0  501 -0.00000000000E+00 -0.00000000000E+00 -0.65707094504E+03  0.65707094504E+03  0.25500000000E-02 0.  1.
    8880023    1    1    2    0    0 -0.80151297798E+02 -0.30491270902E+02 -0.46866177805E+03  0.81290098819E+03  0.65864270000E+03 0.  1.
    8880022    1    1    2    0    0  0.80151297798E+02  0.30491270902E+02  0.45557090460E+03  0.48815002845E+03  0.15294330000E+03 0.  0.
<mgrwt>
<rscale>  0 0.47609975E+03</rscale>
<asrwt>0</asrwt>
<pdfrwt beam="1">  1        2 0.99073857E-01 0.66420189E+03</pdfrwt>
<pdfrwt beam="2">  1       -2 0.10108784E+00 0.66420189E+03</pdfrwt>
<totfact> 0.37351028E+01</totfact>
</mgrwt>
</event>
<event>
 4    1  0.3057048E-007  0.1238246E+04  0.7818608E-02  0.9120812E-01
          2   -1    0    0  501    0  0.00000000000E+00  0.00000000000E+00  0.12548562234E+04  0.12548562234E+04  0.25500000000E-02 0. -1.
         -2   -1    0    0    0  501 -0.00000000000E+00 -0.00000000000E+00 -0.14964087751E+04  0.14964087751E+04  0.25500000000E-02 0.  1.
    8880023    1    1    2    0    0 -0.10457187983E+04  0.76908468402E+02  0.62072503627E+03  0.13851182240E+04  0.65864270000E+03 0.  0.
    8880022    1    1    2    0    0  0.10457187983E+04 -0.76908468402E+02 -0.86227758791E+03  0.13661467744E+04  0.15294330000E+03 0.  0.
<mgrwt>
<rscale>  0 0.11909530E+04</rscale>
<asrwt>0</asrwt>
<pdfrwt beam="1">  1        2 0.19305480E+00 0.12382459E+04</pdfrwt>
<pdfrwt beam="2">  1       -2 0.23021673E+00 0.12382459E+04</pdfrwt>
<totfact> 0.14488207E+00</totfact>
</mgrwt>
</event>
<event>
 4    1  0.3057048E-007  0.8956129E+03  0.7818608E-02  0.9533111E-01
          2   -1    0    0  501    0  0.00000000000E+00  0.00000000000E+00  0.15764510676E+04  0.15764510676E+04  0.25500000000E-02 0. -1.
         -2   -1    0    0    0  501 -0.00000000000E+00 -0.00000000000E+00 -0.58066055513E+03  0.58066055513E+03  0.25500000000E-02 0.  1.
    8880023    1    1    2    0    0 -0.16798751124E+03 -0.58317439874E+03 -0.93854373859E+02  0.90051709203E+03  0.65864270000E+03 0.  1.
    8880022    1    1    2    0    0  0.16798751124E+03  0.58317439874E+03  0.10896448864E+04  0.12565945307E+04  0.15294330000E+03 0.  0.
<mgrwt>
<rscale>  0 0.81886059E+03</rscale>
<asrwt>0</asrwt>
<pdfrwt beam="1">  1        2 0.24253093E+00 0.89561286E+03</pdfrwt>
<pdfrwt beam="2">  1       -2 0.89332395E-01 0.89561286E+03</pdfrwt>
<totfact> 0.12456920E+01</totfact>
</mgrwt>
</event>
<event>
 4    1  0.3057048E-007  0.9262349E+03  0.7818608E-02  0.9485164E-01
          2   -1    0    0  501    0  0.00000000000E+00  0.00000000000E+00  0.22760914270E+04  0.22760914270E+04  0.25500000000E-02 0. -1.
         -2   -1    0    0    0  501 -0.00000000000E+00 -0.00000000000E+00 -0.53450932949E+03  0.53450932949E+03  0.25500000000E-02 0.  1.
    8880023    1    1    2    0    0  0.11797408587E+03 -0.64045529453E+03 -0.19821604910E+02  0.92644696098E+03  0.65864270000E+03 0.  1.
    8880022    1    1    2    0    0 -0.11797408587E+03  0.64045529453E+03  0.17614037025E+04  0.18841537955E+04  0.15294330000E+03 0.  0.
<mgrwt>
<rscale>  0 0.85386473E+03</rscale>
<asrwt>0</asrwt>
<pdfrwt beam="1">  1        2 0.35016792E+00 0.92623489E+03</pdfrwt>
<pdfrwt beam="2">  1       -2 0.82232203E-01 0.92623489E+03</pdfrwt>
<totfact> 0.61717731E+00</totfact>
</mgrwt>
</event>
<event>
 4    1  0.3057048E-007  0.8403076E+03  0.7818608E-02  0.9629601E-01
          2   -1    0    0  501    0  0.00000000000E+00  0.00000000000E+00  0.35547501474E+03  0.35547501475E+03  0.25500000000E-02 0. -1.
         -2   -1    0    0    0  501 -0.00000000000E+00 -0.00000000000E+00 -0.19336621435E+04  0.19336621435E+04  0.25500000000E-02 0.  1.
    8880023    1    1    2    0    0  0.40688201063E+03 -0.32673169888E+03 -0.15270130184E+04  0.17429531085E+04  0.65864270000E+03 0.  0.
    8880022    1    1    2    0    0 -0.40688201063E+03  0.32673169888E+03 -0.51174110315E+02  0.54618404976E+03  0.15294330000E+03 0.  0.
<mgrwt>
<rscale>  0 0.75367618E+03</rscale>
<asrwt>0</asrwt>
<pdfrwt beam="1">  1        2 0.54688465E-01 0.84030755E+03</pdfrwt>
<pdfrwt beam="2">  1       -2 0.29748648E+00 0.84030755E+03</pdfrwt>
<totfact> 0.30716492E+00</totfact>
</mgrwt>
</event>
<event>
 4    1  0.3057048E-007  0.8309273E+03  0.7818608E-02  0.9647531E-01
         -2   -1    0    0    0  501 -0.00000000000E+00  0.00000000000E+00  0.47513403596E+03  0.47513403596E+03  0.25500000000E-02 0.  1.
          2   -1    0    0  501    0  0.00000000000E+00 -0.00000000000E+00 -0.13115056290E+04  0.13115056290E+04  0.25500000000E-02 0. -1.
    8880023    1    1    2    0    0  0.50387883195E+03 -0.52307025965E+02 -0.41791044086E+02  0.83197752366E+03  0.65864270000E+03 0.  1.
    8880022    1    1    2    0    0 -0.50387883195E+03  0.52307025965E+02 -0.79458054897E+03  0.95466214132E+03  0.15294330000E+03 0.  0.
<mgrwt>
<rscale>  0 0.74228586E+03</rscale>
<asrwt>0</asrwt>
<pdfrwt beam="1">  1        2 0.20177010E+00 0.83092726E+03</pdfrwt>
<pdfrwt beam="2">  1       -2 0.73097544E-01 0.83092726E+03</pdfrwt>
<totfact> 0.27839976E+01</totfact>
</mgrwt>
</event>
<event>
 4    1  0.3057048E-007  0.9287488E+03  0.7818608E-02  0.9481373E-01
         -2   -1    0    0    0  501 -0.00000000000E+00  0.00000000000E+00  0.81330332907E+03  0.81330332907E+03  0.25500000000E-02 0.  1.
          2   -1    0    0  501    0  0.00000000000E+00 -0.00000000000E+00 -0.12608593150E+04  0.12608593150E+04  0.25500000000E-02 0. -1.
    8880023    1    1    2    0    0  0.53702649658E+03  0.37465545858E+03  0.38378298594E+03  0.10049197765E+04  0.65864270000E+03 0.  0.
    8880022    1    1    2    0    0 -0.53702649658E+03 -0.37465545858E+03 -0.83133897184E+03  0.10692428675E+04  0.15294330000E+03 0.  0.
<mgrwt>
<rscale>  0 0.85671175E+03</rscale>
<asrwt>0</asrwt>
<pdfrwt beam="1">  1        2 0.19397836E+00 0.92874882E+03</pdfrwt>
<pdfrwt beam="2">  1       -2 0.12512359E+00 0.92874882E+03</pdfrwt>
<totfact> 0.83339063E+00</totfact>
</mgrwt>
</event>
<event>
 4    1  0.3057048E-007  0.9149312E+03  0.7818608E-02  0.9502475E-01
         -2   -1    0    0    0  501 -0.00000000000E+00  0.00000000000E+00  0.61643763877E+03  0.61643763877E+03  0.25500000000E-02 0.  1.
          2   -1    0    0  501    0  0.00000000000E+00 -0.00000000000E+00 -0.14553951728E+04  0.14553951728E+04  0.25500000000E-02 0. -1.
    8880023    1    1    2    0    0  0.50891281838E+03  0.37986390983E+03  0.10816401800E+03  0.92130261465E+03  0.65864270000E+03 0.  0.
    8880022    1    1    2    0    0 -0.50891281838E+03 -0.37986390983E+03 -0.94712155204E+03  0.11505301969E+04  0.15294330000E+03 0.  0.
<mgrwt>
<rscale>  0 0.84101583E+03</rscale>
<asrwt>0</asrwt>
<pdfrwt beam="1">  1        2 0.22390695E+00 0.91493117E+03</pdfrwt>
<pdfrwt beam="2">  1       -2 0.94836560E-01 0.91493117E+03</pdfrwt>
<totfact> 0.12642861E+01</totfact>
</mgrwt>
</event>
<event>
 4    1  0.3057048E-007  0.7966299E+03  0.7818608E-02  0.9718131E-01
          2   -1    0    0  501    0  0.00000000000E+00  0.00000000000E+00  0.81503996881E+03  0.81503996882E+03  0.25500000000E-02 0. -1.
         -2   -1    0    0    0  501 -0.00000000000E+00 -0.00000000000E+00 -0.50982103721E+03  0.50982103721E+03  0.25500000000E-02 0.  1.
    8880023    1    1    2    0    0  0.16227595769E+02  0.44782329635E+03  0.80328029116E+02  0.80066961860E+03  0.65864270000E+03 0. -1.
    8880022    1    1    2    0    0 -0.16227595769E+02 -0.44782329635E+03  0.22489090249E+03  0.52419138743E+03  0.15294330000E+03 0.  0.
<mgrwt>
<rscale>  0 0.69947482E+03</rscale>
<asrwt>0</asrwt>
<pdfrwt beam="1">  1        2 0.12539076E+00 0.79662993E+03</pdfrwt>
<pdfrwt beam="2">  1       -2 0.78434006E-01 0.79662993E+03</pdfrwt>
<totfact> 0.49043519E+01</totfact>
</mgrwt>
</event>
<event>
 4    1  0.3057048E-007  0.1379243E+04  0.7818608E-02  0.8999982E-01
          2   -1    0    0  501    0  0.00000000000E+00  0.00000000000E+00  0.12381724251E+04  0.12381724252E+04  0.25500000000E-02 0. -1.
         -2   -1    0    0    0  501 -0.00000000000E+00 -0.00000000000E+00 -0.26217236684E+04  0.26217236684E+04  0.25500000000E-02 0.  1.
    8880023    1    1    2    0    0 -0.10410507963E+04  0.62025232690E+03 -0.20482311916E+04  0.24693239824E+04  0.65864270000E+03 0.  0.
    8880022    1    1    2    0    0  0.10410507963E+04 -0.62025232690E+03  0.66467994838E+03  0.13905721111E+04  0.15294330000E+03 0.  0.
<mgrwt>
<rscale>  0 0.13379739E+04</rscale>
<asrwt>0</asrwt>
<pdfrwt beam="1">  1        2 0.19048807E+00 0.13792425E+04</pdfrwt>
<pdfrwt beam="2">  1       -2 0.40334210E+00 0.13792425E+04</pdfrwt>
<totfact> 0.12179332E-01</totfact>
</mgrwt>
</event>
<event>
 4    1  0.3057048E-007  0.1007655E+04  0.7818608E-02  0.9371610E-01
         -2   -1    0    0    0  501 -0.00000000000E+00  0.00000000000E+00  0.47844374929E+03  0.47844374930E+03  0.25500000000E-02 0.  1.
          2   -1    0    0  501    0  0.00000000000E+00 -0.00000000000E+00 -0.18028717099E+04  0.18028717099E+04  0.25500000000E-02 0. -1.
    8880023    1    1    2    0    0  0.75774564236E+03  0.85907845749E+02 -0.42878419643E+03  0.10950911879E+04  0.65864270000E+03 0.  0.
    8880022    1    1    2    0    0 -0.75774564236E+03 -0.85907845749E+02 -0.89564376421E+03  0.11862242713E+04  0.15294330000E+03 0.  0.
<mgrwt>
<rscale>  0 0.94449333E+03</rscale>
<asrwt>0</asrwt>
<pdfrwt beam="1">  1        2 0.27736487E+00 0.10076551E+04</pdfrwt>
<pdfrwt beam="2">  1       -2 0.73606732E-01 0.10076551E+04</pdfrwt>
<totfact> 0.14303400E+01</totfact>
</mgrwt>
</event>
<event>
 4    1  0.3057048E-007  0.1129389E+04  0.7818608E-02  0.9229019E-01
         -2   -1    0    0    0  501 -0.00000000000E+00  0.00000000000E+00  0.36566260552E+03  0.36566260553E+03  0.25500000000E-02 0.  1.
          2   -1    0    0  501    0  0.00000000000E+00 -0.00000000000E+00 -0.46668927671E+04  0.46668927671E+04  0.25500000000E-02 0. -1.
    8880023    1    1    2    0    0  0.27229528147E+03  0.87610793525E+03 -0.73610478050E+03  0.13480987681E+04  0.65864270000E+03 0.  1.
    8880022    1    1    2    0    0 -0.27229528147E+03 -0.87610793525E+03 -0.35651253811E+04  0.36844566045E+04  0.15294330000E+03 0.  0.
<mgrwt>
<rscale>  0 0.10758856E+04</rscale>
<asrwt>0</asrwt>
<pdfrwt beam="1">  1        2 0.71798346E+00 0.11293892E+04</pdfrwt>
<pdfrwt beam="2">  1       -2 0.56255789E-01 0.11293892E+04</pdfrwt>
<totfact> 0.26093019E-01</totfact>
</mgrwt>
</event>
<event>
 4    1  0.3057048E-007  0.1204251E+04  0.7818608E-02  0.9153001E-01
          2   -1    0    0  501    0  0.00000000000E+00  0.00000000000E+00  0.21261993810E+04  0.21261993810E+04  0.25500000000E-02 0. -1.
         -2   -1    0    0    0  501 -0.00000000000E+00 -0.00000000000E+00 -0.80274114286E+03  0.80274114286E+03  0.25500000000E-02 0.  1.
    8880023    1    1    2    0    0 -0.10081422988E+04  0.77179913162E+01 -0.65300955585E+02  0.12060202665E+04  0.65864270000E+03 0.  0.
    8880022    1    1    2    0    0  0.10081422988E+04 -0.77179913162E+01  0.13887591937E+04  0.17229202573E+04  0.15294330000E+03 0.  0.
<mgrwt>
<rscale>  0 0.11551985E+04</rscale>
<asrwt>0</asrwt>
<pdfrwt beam="1">  1        2 0.32710760E+00 0.12042511E+04</pdfrwt>
<pdfrwt beam="2">  1       -2 0.12349864E+00 0.12042511E+04</pdfrwt>
<totfact> 0.27411088E+00</totfact>
</mgrwt>
</event>
<event>
 4    1  0.3057048E-007  0.1006122E+04  0.7818608E-02  0.9373591E-01
          2   -1    0    0  501    0  0.00000000000E+00  0.00000000000E+00  0.27841276134E+04  0.27841276134E+04  0.25500000000E-02 0. -1.
         -2   -1    0    0    0  501 -0.00000000000E+00 -0.00000000000E+00 -0.29394787340E+03  0.29394787341E+03  0.25500000000E-02 0.  1.
    8880023    1    1    2    0    0  0.71427757678E+02  0.75721203172E+03  0.11366510341E+04  0.15179781834E+04  0.65864270000E+03 0.  1.
    8880022    1    1    2    0    0 -0.71427757678E+02 -0.75721203172E+03  0.13535287059E+04  0.15600973034E+04  0.15294330000E+03 0. -1.
<mgrwt>
<rscale>  0 0.94281257E+03</rscale>
<asrwt>0</asrwt>
<pdfrwt beam="1">  1        2 0.42832732E+00 0.10061224E+04</pdfrwt>
<pdfrwt beam="2">  1       -2 0.45222750E-01 0.10061224E+04</pdfrwt>
<totfact> 0.11152043E+01</totfact>
</mgrwt>
</event>
<event>
 4    1  0.3057048E-007  0.9598865E+03  0.7818608E-02  0.9436030E-01
         -2   -1    0    0    0  501 -0.00000000000E+00  0.00000000000E+00  0.51316107397E+03  0.51316107397E+03  0.25500000000E-02 0.  1.
          2   -1    0    0  501    0  0.00000000000E+00 -0.00000000000E+00 -0.14781902226E+04  0.14781902226E+04  0.25500000000E-02 0. -1.
    8880023    1    1    2    0    0  0.42748673999E+03  0.55211134299E+03 -0.27663197110E+03  0.99895310282E+03  0.65864270000E+03 0.  1.
    8880022    1    1    2    0    0 -0.42748673999E+03 -0.55211134299E+03 -0.68839717754E+03  0.99239819377E+03  0.15294330000E+03 0.  0.
<mgrwt>
<rscale>  0 0.89168948E+03</rscale>
<asrwt>0</asrwt>
<pdfrwt beam="1">  1        2 0.22741388E+00 0.95988648E+03</pdfrwt>
<pdfrwt beam="2">  1       -2 0.78947858E-01 0.95988648E+03</pdfrwt>
<totfact> 0.18612673E+01</totfact>
</mgrwt>
</event>
<event>
 4    1  0.3057048E-007  0.7672822E+03  0.7818608E-02  0.9786607E-01
         -2   -1    0    0    0  501 -0.00000000000E+00  0.00000000000E+00  0.39009868426E+03  0.39009868427E+03  0.25500000000E-02 0.  1.
          2   -1    0    0  501    0  0.00000000000E+00 -0.00000000000E+00 -0.36507068927E+04  0.36507068927E+04  0.25500000000E-02 0. -1.
    8880023    1    1    2    0    0  0.69268765511E+01  0.39352727281E+03 -0.14572729606E+02  0.76742052799E+03  0.65864270000E+03 0.  1.
    8880022    1    1    2    0    0 -0.69268765511E+01 -0.39352727281E+03 -0.32460354788E+04  0.32733850490E+04  0.15294330000E+03 0.  0.
<mgrwt>
<rscale>  0 0.66086273E+03</rscale>
<asrwt>0</asrwt>
<pdfrwt beam="1">  1        2 0.56164719E+00 0.76728215E+03</pdfrwt>
<pdfrwt beam="2">  1       -2 0.60015185E-01 0.76728215E+03</pdfrwt>
<totfact> 0.17899629E+00</totfact>
</mgrwt>
</event>
<event>
 4    1  0.3057048E-007  0.7456822E+03  0.7818608E-02  0.9843694E-01
         -2   -1    0    0    0  501 -0.00000000000E+00  0.00000000000E+00  0.37268155978E+03  0.37268155979E+03  0.25500000000E-02 0.  1.
          2   -1    0    0  501    0  0.00000000000E+00 -0.00000000000E+00 -0.11994808563E+04  0.11994808563E+04  0.25500000000E-02 0. -1.
    8880023    1    1    2    0    0 -0.34868614862E+03  0.25490526002E+02 -0.10144461258E+03  0.75255100348E+03  0.65864270000E+03 0.  0.
    8880022    1    1    2    0    0  0.34868614862E+03 -0.25490526002E+02 -0.72535468391E+03  0.81961141259E+03  0.15294330000E+03 0.  0.
<mgrwt>
<rscale>  0 0.63069482E+03</rscale>
<asrwt>0</asrwt>
<pdfrwt beam="1">  1        2 0.18453551E+00 0.74568224E+03</pdfrwt>
<pdfrwt beam="2">  1       -2 0.57335625E-01 0.74568224E+03</pdfrwt>
<totfact> 0.54986718E+01</totfact>
</mgrwt>
</event>
<event>
 4    1  0.3057048E-007  0.7083363E+03  0.7818608E-02  0.9964231E-01
          2   -1    0    0  501    0  0.00000000000E+00  0.00000000000E+00  0.13548222781E+04  0.13548222781E+04  0.25500000000E-02 0. -1.
         -2   -1    0    0    0  501 -0.00000000000E+00 -0.00000000000E+00 -0.42243062705E+03  0.42243062706E+03  0.25500000000E-02 0.  1.
    8880023    1    1    2    0    0 -0.24636037927E+03  0.85069042459E+02 -0.87326461270E+02  0.71369902309E+03  0.65864270000E+03 0.  1.
    8880022    1    1    2    0    0  0.24636037927E+03 -0.85069042459E+02  0.10197181123E+04  0.10635538820E+04  0.15294330000E+03 0.  0.
<mgrwt>
<rscale>  0 0.57246834E+03</rscale>
<asrwt>0</asrwt>
<pdfrwt beam="1">  1        2 0.20843420E+00 0.70833635E+03</pdfrwt>
<pdfrwt beam="2">  1       -2 0.64989327E-01 0.70833635E+03</pdfrwt>
<totfact> 0.34402821E+01</totfact>
</mgrwt>
</event>
<event>
 4    1  0.3057048E-007  0.7619323E+03  0.7818608E-02  0.9800130E-01
         -2   -1    0    0    0  501 -0.00000000000E+00  0.00000000000E+00  0.26706641962E+03  0.26706641963E+03  0.25500000000E-02 0.  1.
          2   -1    0    0  501    0  0.00000000000E+00 -0.00000000000E+00 -0.12931732881E+04  0.12931732881E+04  0.25500000000E-02 0. -1.
    8880023    1    1    2    0    0 -0.22405105387E+03 -0.31069556881E+03 -0.63536310459E+03  0.99208220030E+03  0.65864270000E+03 0.  0.
    8880022    1    1    2    0    0  0.22405105387E+03  0.31069556881E+03 -0.39074376388E+03  0.56815750743E+03  0.15294330000E+03 0.  1.
<mgrwt>
<rscale>  0 0.65355543E+03</rscale>
<asrwt>0</asrwt>
<pdfrwt beam="1">  1        2 0.19894973E+00 0.76193229E+03</pdfrwt>
<pdfrwt beam="2">  1       -2 0.41087142E-01 0.76193229E+03</pdfrwt>
<totfact> 0.95034323E+01</totfact>
</mgrwt>
</event>
<event>
 4    1  0.3057048E-007  0.7409917E+03  0.7818608E-02  0.9857068E-01
          2   -1    0    0  501    0  0.00000000000E+00  0.00000000000E+00  0.13508216422E+04  0.13508216422E+04  0.25500000000E-02 0. -1.
         -2   -1    0    0    0  501 -0.00000000000E+00 -0.00000000000E+00 -0.26824001020E+03  0.26824001022E+03  0.25500000000E-02 0.  1.
    8880023    1    1    2    0    0  0.74257339556E+02  0.33127674481E+03  0.40134328448E+03  0.84270105755E+03  0.65864270000E+03 0.  1.
    8880022    1    1    2    0    0 -0.74257339556E+02 -0.33127674481E+03  0.68123834754E+03  0.77636059489E+03  0.15294330000E+03 0. -1.
<mgrwt>
<rscale>  0 0.62387848E+03</rscale>
<asrwt>0</asrwt>
<pdfrwt beam="1">  1        2 0.20781872E+00 0.74099166E+03</pdfrwt>
<pdfrwt beam="2">  1       -2 0.41267693E-01 0.74099166E+03</pdfrwt>
<totfact> 0.87465936E+01</totfact>
</mgrwt>
</event>
<event>
 4    1  0.3057048E-007  0.1207147E+04  0.7818608E-02  0.9150206E-01
          2   -1    0    0  501    0  0.00000000000E+00  0.00000000000E+00  0.12007802636E+04  0.12007802636E+04  0.25500000000E-02 0. -1.
         -2   -1    0    0    0  501 -0.00000000000E+00 -0.00000000000E+00 -0.14222986207E+04  0.14222986207E+04  0.25500000000E-02 0.  1.
    8880023    1    1    2    0    0 -0.72199326052E+03  0.70860424641E+03  0.56475673089E+03  0.13327245093E+04  0.65864270000E+03 0.  0.
    8880022    1    1    2    0    0  0.72199326052E+03 -0.70860424641E+03 -0.78627508797E+03  0.12903543751E+04  0.15294330000E+03 0.  0.
<mgrwt>
<rscale>  0 0.11582503E+04</rscale>
<asrwt>0</asrwt>
<pdfrwt beam="1">  1        2 0.18473543E+00 0.12071472E+04</pdfrwt>
<pdfrwt beam="2">  1       -2 0.21881517E+00 0.12071472E+04</pdfrwt>
<totfact> 0.18467048E+00</totfact>
</mgrwt>
</event>
<event>
 4    1  0.3057048E-007  0.1245515E+04  0.7818608E-02  0.9114100E-01
         -2   -1    0    0    0  501 -0.00000000000E+00  0.00000000000E+00  0.77902638389E+03  0.77902638390E+03  0.25500000000E-02 0.  1.
          2   -1    0    0  501    0  0.00000000000E+00 -0.00000000000E+00 -0.23547314688E+04  0.23547314688E+04  0.25500000000E-02 0. -1.
    8880023    1    1    2    0    0  0.13681127735E+02  0.10570284318E+04 -0.18771987135E+02  0.12456560009E+04  0.65864270000E+03 0.  0.
    8880022    1    1    2    0    0 -0.13681127735E+02 -0.10570284318E+04 -0.15569330978E+04  0.18881018518E+04  0.15294330000E+03 0.  0.
<mgrwt>
<rscale>  0 0.11985799E+04</rscale>
<asrwt>0</asrwt>
<pdfrwt beam="1">  1        2 0.36226638E+00 0.12455145E+04</pdfrwt>
<pdfrwt beam="2">  1       -2 0.11985021E+00 0.12455145E+04</pdfrwt>
<totfact> 0.21894248E+00</totfact>
</mgrwt>
</event>
<event>
 4    1  0.3057048E-007  0.7817645E+03  0.7818608E-02  0.9751708E-01
          2   -1    0    0  501    0  0.00000000000E+00  0.00000000000E+00  0.11926578356E+04  0.11926578356E+04  0.25500000000E-02 0. -1.
         -2   -1    0    0    0  501 -0.00000000000E+00 -0.00000000000E+00 -0.62967550743E+03  0.62967550744E+03  0.25500000000E-02 0.  1.
    8880023    1    1    2    0    0 -0.37214797820E+03 -0.19710758892E+03 -0.31008475244E+03  0.84101621818E+03  0.65864270000E+03 0.  1.
    8880022    1    1    2    0    0  0.37214797820E+03  0.19710758892E+03  0.87306708057E+03  0.98131712483E+03  0.15294330000E+03 0.  0.
<mgrwt>
<rscale>  0 0.68019813E+03</rscale>
<asrwt>0</asrwt>
<pdfrwt beam="1">  1        2 0.18348582E+00 0.78176449E+03</pdfrwt>
<pdfrwt beam="2">  1       -2 0.96873156E-01 0.78176449E+03</pdfrwt>
<totfact> 0.17299173E+01</totfact>
</mgrwt>
</event>
<event>
 4    1  0.3057048E-007  0.8012525E+03  0.7818608E-02  0.9708094E-01
          2   -1    0    0  501    0  0.00000000000E+00  0.00000000000E+00  0.69468705123E+03  0.69468705123E+03  0.25500000000E-02 0. -1.
         -2   -1    0    0    0  501 -0.00000000000E+00 -0.00000000000E+00 -0.59314512176E+03  0.59314512177E+03  0.25500000000E-02 0.  1.
    8880023    1    1    2    0    0  0.28035020965E+03 -0.35999875898E+03  0.34978087676E+02  0.80201559798E+03  0.65864270000E+03 0. -1.
    8880022    1    1    2    0    0 -0.28035020965E+03  0.35999875898E+03  0.66563841793E+02  0.48581657502E+03  0.15294330000E+03 0.  0.
<mgrwt>
<rscale>  0 0.70536891E+03</rscale>
<asrwt>0</asrwt>
<pdfrwt beam="1">  1        2 0.10687493E+00 0.80125249E+03</pdfrwt>
<pdfrwt beam="2">  1       -2 0.91253096E-01 0.80125249E+03</pdfrwt>
<totfact> 0.42731046E+01</totfact>
</mgrwt>
</event>
<event>
 4    1  0.3057048E-007  0.6752135E+03  0.7818608E-02  0.1012172E+00
         -2   -1    0    0    0  501 -0.00000000000E+00  0.00000000000E+00  0.83238481880E+03  0.83238481881E+03  0.25500000000E-02 0.  1.
          2   -1    0    0  501    0  0.00000000000E+00 -0.00000000000E+00 -0.68552832524E+03  0.68552832525E+03  0.25500000000E-02 0. -1.
    8880023    1    1    2    0    0 -0.14197109600E+03 -0.44127262321E+02  0.67106806210E+03  0.95196930498E+03  0.65864270000E+03 0.  1.
    8880022    1    1    2    0    0  0.14197109600E+03  0.44127262321E+02 -0.52421156854E+03  0.56594383908E+03  0.15294330000E+03 0.  0.
<mgrwt>
<rscale>  0 0.50620435E+03</rscale>
<asrwt>0</asrwt>
<pdfrwt beam="1">  1        2 0.10546590E+00 0.67521346E+03</pdfrwt>
<pdfrwt beam="2">  1       -2 0.12805920E+00 0.67521346E+03</pdfrwt>
<totfact> 0.19387175E+01</totfact>
</mgrwt>
</event>
<event>
 4    1  0.3057048E-007  0.7227645E+03  0.7818608E-02  0.9913340E-01
          2   -1    0    0  501    0  0.00000000000E+00  0.00000000000E+00  0.18231059834E+04  0.18231059834E+04  0.25500000000E-02 0. -1.
         -2   -1    0    0    0  501 -0.00000000000E+00 -0.00000000000E+00 -0.28644363498E+03  0.28644363499E+03  0.25500000000E-02 0.  1.
    8880023    1    1    2    0    0 -0.19125725918E+03  0.22803285822E+03  0.22663861271E+03  0.75746524056E+03  0.65864270000E+03 0.  1.
    8880022    1    1    2    0    0  0.19125725918E+03 -0.22803285822E+03  0.13100237357E+04  0.13520843778E+04  0.15294330000E+03 0.  0.
<mgrwt>
<rscale>  0 0.59619086E+03</rscale>
<asrwt>0</asrwt>
<pdfrwt beam="1">  1        2 0.28047785E+00 0.72276451E+03</pdfrwt>
<pdfrwt beam="2">  1       -2 0.44068251E-01 0.72276451E+03</pdfrwt>
<totfact> 0.42178479E+01</totfact>
</mgrwt>
</event>
<event>
 4    1  0.3057048E-007  0.7239928E+03  0.7818608E-02  0.9909300E-01
          2   -1    0    0  501    0  0.00000000000E+00  0.00000000000E+00  0.66227989077E+03  0.66227989077E+03  0.25500000000E-02 0. -1.
         -2   -1    0    0    0  501 -0.00000000000E+00 -0.00000000000E+00 -0.15322607777E+04  0.15322607777E+04  0.25500000000E-02 0.  1.
    8880023    1    1    2    0    0  0.11506536161E+03 -0.27769638901E+03 -0.13943312093E+04  0.15710904014E+04  0.65864270000E+03 0.  1.
    8880022    1    1    2    0    0 -0.11506536161E+03  0.27769638901E+03  0.52435032237E+03  0.62345026706E+03  0.15294330000E+03 0.  0.
<mgrwt>
<rscale>  0 0.59812665E+03</rscale>
<asrwt>0</asrwt>
<pdfrwt beam="1">  1        2 0.10188921E+00 0.72399277E+03</pdfrwt>
<pdfrwt beam="2">  1       -2 0.23573243E+00 0.72399277E+03</pdfrwt>
<totfact> 0.35663763E+00</totfact>
</mgrwt>
</event>
<event>
 4    1  0.3057048E-007  0.1154113E+04  0.7818608E-02  0.9203072E-01
          2   -1    0    0  501    0  0.00000000000E+00  0.00000000000E+00  0.21973615297E+04  0.21973615297E+04  0.25500000000E-02 0. -1.
         -2   -1    0    0    0  501 -0.00000000000E+00 -0.00000000000E+00 -0.61399424637E+03  0.61399424637E+03  0.25500000000E-02 0.  1.
    8880023    1    1    2    0    0 -0.33762121161E+03  0.88553843674E+03  0.14325335332E+04  0.18396002108E+04  0.65864270000E+03 0.  0.
    8880022    1    1    2    0    0  0.33762121161E+03 -0.88553843674E+03  0.15083375011E+03  0.97175556529E+03  0.15294330000E+03 0.  0.
<mgrwt>
<rscale>  0 0.11021776E+04</rscale>
<asrwt>0</asrwt>
<pdfrwt beam="1">  1        2 0.33805562E+00 0.11541129E+04</pdfrwt>
<pdfrwt beam="2">  1       -2 0.94460652E-01 0.11541129E+04</pdfrwt>
<totfact> 0.48249794E+00</totfact>
</mgrwt>
</event>
<event>
 4    1  0.3057048E-007  0.6986114E+03  0.7818608E-02  0.1000301E+00
          2   -1    0    0  501    0  0.00000000000E+00  0.00000000000E+00  0.15430340004E+04  0.15430340004E+04  0.25500000000E-02 0. -1.
         -2   -1    0    0    0  501 -0.00000000000E+00 -0.00000000000E+00 -0.52465822373E+03  0.52465822374E+03  0.25500000000E-02 0.  1.
    8880023    1    1    2    0    0  0.20899328498E+03 -0.10280777447E+03 -0.27041766563E+03  0.74912185378E+03  0.65864270000E+03 0.  1.
    8880022    1    1    2    0    0 -0.20899328498E+03  0.10280777447E+03  0.12887934423E+04  0.13185703703E+04  0.15294330000E+03 0.  0.
<mgrwt>
<rscale>  0 0.55518398E+03</rscale>
<asrwt>0</asrwt>
<pdfrwt beam="1">  1        2 0.23738985E+00 0.69861136E+03</pdfrwt>
<pdfrwt beam="2">  1       -2 0.80716650E-01 0.69861136E+03</pdfrwt>
<totfact> 0.16782363E+01</totfact>
</mgrwt>
</event>
<event>
 4    1  0.3057048E-007  0.7592119E+03  0.7818608E-02  0.9807152E-01
         -2   -1    0    0    0  501 -0.00000000000E+00  0.00000000000E+00  0.28823984583E+03  0.28823984584E+03  0.25500000000E-02 0.  1.
          2   -1    0    0  501    0  0.00000000000E+00 -0.00000000000E+00 -0.23870648870E+04  0.23870648870E+04  0.25500000000E-02 0. -1.
    8880023    1    1    2    0    0 -0.21736665477E+03 -0.30877855307E+03 -0.27650198685E+03  0.80799505718E+03  0.65864270000E+03 0.  1.
    8880022    1    1    2    0    0  0.21736665477E+03  0.30877855307E+03 -0.18223230543E+04  0.18673096756E+04  0.15294330000E+03 0.  0.
<mgrwt>
<rscale>  0 0.64980127E+03</rscale>
<asrwt>0</asrwt>
<pdfrwt beam="1">  1        2 0.36724074E+00 0.75921187E+03</pdfrwt>
<pdfrwt beam="2">  1       -2 0.44344593E-01 0.75921187E+03</pdfrwt>
<totfact> 0.20311517E+01</totfact>
</mgrwt>
</event>
<event>
 4    1  0.3057048E-007  0.1057606E+04  0.7818608E-02  0.9309793E-01
         -2   -1    0    0    0  501 -0.00000000000E+00  0.00000000000E+00  0.75850113484E+03  0.75850113485E+03  0.25500000000E-02 0.  1.
          2   -1    0    0  501    0  0.00000000000E+00 -0.00000000000E+00 -0.22795243798E+04  0.22795243798E+04  0.25500000000E-02 0. -1.
    8880023    1    1    2    0    0 -0.82727488743E+03  0.18368518558E+02  0.24158561998E+03  0.10848478971E+04  0.65864270000E+03 0.  0.
    8880022    1    1    2    0    0  0.82727488743E+03 -0.18368518558E+02 -0.17626088650E+04  0.19531776176E+04  0.15294330000E+03 0.  0.
<mgrwt>
<rscale>  0 0.99886286E+03</rscale>
<asrwt>0</asrwt>
<pdfrwt beam="1">  1        2 0.35069606E+00 0.10576064E+04</pdfrwt>
<pdfrwt beam="2">  1       -2 0.11669248E+00 0.10576064E+04</pdfrwt>
<totfact> 0.26379249E+00</totfact>
</mgrwt>
</event>
<event>
 4    1  0.3057048E-007  0.8760253E+03  0.7818608E-02  0.9565670E-01
         -2   -1    0    0    0  501 -0.00000000000E+00  0.00000000000E+00  0.35032307860E+03  0.35032307861E+03  0.25500000000E-02 0.  1.
          2   -1    0    0  501    0  0.00000000000E+00 -0.00000000000E+00 -0.22243825757E+04  0.22243825757E+04  0.25500000000E-02 0. -1.
    8880023    1    1    2    0    0  0.57752907905E+03 -0.83796662822E+01 -0.17606419233E+04  0.19665401710E+04  0.65864270000E+03 0.  0.
    8880022    1    1    2    0    0 -0.57752907905E+03  0.83796662822E+01 -0.11341757378E+03  0.60816548325E+03  0.15294330000E+03 0.  0.
<mgrwt>
<rscale>  0 0.79610667E+03</rscale>
<asrwt>0</asrwt>
<pdfrwt beam="1">  1        2 0.34221270E+00 0.87602526E+03</pdfrwt>
<pdfrwt beam="2">  1       -2 0.53895860E-01 0.87602526E+03</pdfrwt>
<totfact> 0.16579605E+01</totfact>
</mgrwt>
</event>
<event>
 4    1  0.3057048E-007  0.6856075E+03  0.7818608E-02  0.1006314E+00
         -2   -1    0    0    0  501 -0.00000000000E+00  0.00000000000E+00  0.25155518859E+03  0.25155518860E+03  0.25500000000E-02 0.  1.
          2   -1    0    0  501    0  0.00000000000E+00 -0.00000000000E+00 -0.14087649356E+04  0.14087649356E+04  0.25500000000E-02 0. -1.
    8880023    1    1    2    0    0 -0.37857024506E+02  0.18658597510E+03 -0.26458200584E+03  0.73488864768E+03  0.65864270000E+03 0. -1.
    8880022    1    1    2    0    0  0.37857024506E+02 -0.18658597510E+03 -0.89262774113E+03  0.92543147648E+03  0.15294330000E+03 0.  0.
<mgrwt>
<rscale>  0 0.52966113E+03</rscale>
<asrwt>0</asrwt>
<pdfrwt beam="1">  1        2 0.21673306E+00 0.68560753E+03</pdfrwt>
<pdfrwt beam="2">  1       -2 0.38700799E-01 0.68560753E+03</pdfrwt>
<totfact> 0.92386984E+01</totfact>
</mgrwt>
</event>
<event>
 4    1  0.3057048E-007  0.8195007E+03  0.7818608E-02  0.9670117E-01
         -2   -1    0    0    0  501 -0.00000000000E+00  0.00000000000E+00  0.34170519307E+03  0.34170519308E+03  0.25500000000E-02 0.  1.
          2   -1    0    0  501    0  0.00000000000E+00 -0.00000000000E+00 -0.13821890672E+04  0.13821890672E+04  0.25500000000E-02 0. -1.
    8880023    1    1    2    0    0 -0.30517571801E+03  0.38031421095E+03 -0.42257095343E+03  0.92203445427E+03  0.65864270000E+03 0.  0.
    8880022    1    1    2    0    0  0.30517571801E+03 -0.38031421095E+03 -0.61791292067E+03  0.80185980599E+03  0.15294330000E+03 0.  0.
<mgrwt>
<rscale>  0 0.72824228E+03</rscale>
<asrwt>0</asrwt>
<pdfrwt beam="1">  1        2 0.21264447E+00 0.81950066E+03</pdfrwt>
<pdfrwt beam="2">  1       -2 0.52570031E-01 0.81950066E+03</pdfrwt>
<totfact> 0.51249695E+01</totfact>
</mgrwt>
</event>
<event>
 4    1  0.4772736E-007  0.8833740E+03  0.7818608E-02  0.9553267E-01
          2   -1    0    0  501    0  0.00000000000E+00  0.00000000000E+00  0.18704723078E+04  0.18704723078E+04  0.25500000000E-02 0. -1.
         -2   -1    0    0    0  501 -0.00000000000E+00 -0.00000000000E+00 -0.12107050300E+04  0.12107050300E+04  0.25500000000E-02 0.  1.
    8880023    1    1    2    0    0  0.98944782592E+02  0.58030104869E+03 -0.98765158907E+03  0.13250680151E+04  0.65864270000E+03 0.  1.
    8880022    1    1    2    0    0 -0.98944782592E+02 -0.58030104869E+03  0.16474188669E+04  0.17561093227E+04  0.15294330000E+03 0.  0.
<mgrwt>
<rscale>  0 0.80468063E+03</rscale>
<asrwt>0</asrwt>
<pdfrwt beam="1">  1        2 0.28776497E+00 0.88337398E+03</pdfrwt>
<pdfrwt beam="2">  1       -2 0.18626231E+00 0.88337398E+03</pdfrwt>
<totfact> 0.13137944E+00</totfact>
</mgrwt>
</event>
<event>
 4    1  0.3057048E-007  0.6772592E+03  0.7818608E-02  0.1010919E+00
         -2   -1    0    0    0  501 -0.00000000000E+00  0.00000000000E+00  0.31541676855E+03  0.31541676856E+03  0.25500000000E-02 0.  1.
          2   -1    0    0  501    0  0.00000000000E+00 -0.00000000000E+00 -0.94120340502E+03  0.94120340502E+03  0.25500000000E-02 0. -1.
    8880023    1    1    2    0    0  0.66178102521E+02 -0.14314412859E+03 -0.97198767923E+02  0.68419850157E+03  0.65864270000E+03 0.  0.
    8880022    1    1    2    0    0 -0.66178102521E+02  0.14314412859E+03 -0.52858786854E+03  0.57242167201E+03  0.15294330000E+03 0.  0.
<mgrwt>
<rscale>  0 0.51111215E+03</rscale>
<asrwt>0</asrwt>
<pdfrwt beam="1">  1        2 0.14480052E+00 0.67725917E+03</pdfrwt>
<pdfrwt beam="2">  1       -2 0.48525657E-01 0.67725917E+03</pdfrwt>
<totfact> 0.11267152E+02</totfact>
</mgrwt>
</event>
<event>
 4    1  0.4366593E-007  0.7669059E+03  0.7818608E-02  0.9787546E-01
          2   -1    0    0  501    0  0.00000000000E+00  0.00000000000E+00  0.27146968861E+04  0.27146968861E+04  0.25500000000E-02 0. -1.
         -2   -1    0    0    0  501 -0.00000000000E+00 -0.00000000000E+00 -0.88153910535E+03  0.88153910536E+03  0.25500000000E-02 0.  1.
    8880023    1    1    2    0    0  0.85083083597E+02 -0.38353000336E+03 -0.69391207740E+03  0.10342429947E+04  0.65864270000E+03 0.  1.
    8880022    1    1    2    0    0 -0.85083083597E+02  0.38353000336E+03  0.25270698582E+04  0.25619929968E+04  0.15294330000E+03 0.  0.
<mgrwt>
<rscale>  0 0.66035189E+03</rscale>
<asrwt>0</asrwt>
<pdfrwt beam="1">  1        2 0.41764568E+00 0.76690586E+03</pdfrwt>
<pdfrwt beam="2">  1       -2 0.13562140E+00 0.76690586E+03</pdfrwt>
<totfact> 0.10702866E+00</totfact>
</mgrwt>
</event>
<event>
 4    1  0.3057048E-007  0.6698619E+03  0.7818608E-02  0.1015762E+00
         -2   -1    0    0    0  501 -0.00000000000E+00  0.00000000000E+00  0.19750051570E+04  0.19750051570E+04  0.25500000000E-02 0.  1.
          2   -1    0    0  501    0  0.00000000000E+00 -0.00000000000E+00 -0.43199335999E+03  0.43199336000E+03  0.25500000000E-02 0. -1.
    8880023    1    1    2    0    0 -0.85754829085E+02  0.86895359248E+02  0.18918925289E+04  0.20069808771E+04  0.65864270000E+03 0.  0.
    8880022    1    1    2    0    0  0.85754829085E+02 -0.86895359248E+02 -0.34888073183E+03  0.40001763989E+03  0.15294330000E+03 0. -1.
<mgrwt>
<rscale>  0 0.49247434E+03</rscale>
<asrwt>0</asrwt>
<pdfrwt beam="1">  1        2 0.66460517E-01 0.66986185E+03</pdfrwt>
<pdfrwt beam="2">  1       -2 0.30384695E+00 0.66986185E+03</pdfrwt>
<totfact> 0.23155531E+00</totfact>
</mgrwt>
</event>
<event>
 4    1  0.3057048E-007  0.1130243E+04  0.7818608E-02  0.9228109E-01
          2   -1    0    0  501    0  0.00000000000E+00  0.00000000000E+00  0.25145764654E+04  0.25145764654E+04  0.25500000000E-02 0. -1.
         -2   -1    0    0    0  501 -0.00000000000E+00 -0.00000000000E+00 -0.86805251110E+03  0.86805251111E+03  0.25500000000E-02 0.  1.
    8880023    1    1    2    0    0 -0.21769650593E+03  0.89232631375E+03 -0.34704463810E+03  0.11823232240E+04  0.65864270000E+03 0.  0.
    8880022    1    1    2    0    0  0.21769650593E+03 -0.89232631375E+03  0.19935685924E+04  0.22003057525E+04  0.15294330000E+03 0.  0.
<mgrwt>
<rscale>  0 0.10767949E+04</rscale>
<asrwt>0</asrwt>
<pdfrwt beam="1">  1        2 0.38685791E+00 0.11302426E+04</pdfrwt>
<pdfrwt beam="2">  1       -2 0.13354654E+00 0.11302426E+04</pdfrwt>
<totfact> 0.13683560E+00</totfact>
</mgrwt>
</event>
<event>
 4    1  0.3057048E-007  0.8275448E+03  0.7818608E-02  0.9654128E-01
          2   -1    0    0  501    0  0.00000000000E+00  0.00000000000E+00  0.12963771151E+04  0.12963771151E+04  0.25500000000E-02 0. -1.
         -2   -1    0    0    0  501 -0.00000000000E+00 -0.00000000000E+00 -0.42263918969E+03  0.42263918970E+03  0.25500000000E-02 0.  1.
    8880023    1    1    2    0    0  0.37242276974E+03  0.33514406460E+03  0.17521263522E+03  0.84589002670E+03  0.65864270000E+03 0.  0.
    8880022    1    1    2    0    0 -0.37242276974E+03 -0.33514406460E+03  0.69852529016E+03  0.87312627808E+03  0.15294330000E+03 0.  0.
<mgrwt>
<rscale>  0 0.73814898E+03</rscale>
<asrwt>0</asrwt>
<pdfrwt beam="1">  1        2 0.19944263E+00 0.82754484E+03</pdfrwt>
<pdfrwt beam="2">  1       -2 0.65021414E-01 0.82754484E+03</pdfrwt>
<totfact> 0.36673408E+01</totfact>
</mgrwt>
</event>
<event>
 4    1  0.3057048E-007  0.6870888E+03  0.7818608E-02  0.1005568E+00
         -2   -1    0    0    0  501 -0.00000000000E+00  0.00000000000E+00  0.60504908198E+03  0.60504908198E+03  0.25500000000E-02 0.  1.
          2   -1    0    0  501    0  0.00000000000E+00 -0.00000000000E+00 -0.22380418448E+04  0.22380418448E+04  0.25500000000E-02 0. -1.
    8880023    1    1    2    0    0 -0.76208869131E+02 -0.18020280807E+03  0.39996314841E+03  0.79502299974E+03  0.65864270000E+03 0.  1.
    8880022    1    1    2    0    0  0.76208869131E+02  0.18020280807E+03 -0.20329559112E+04  0.20480679270E+04  0.15294330000E+03 0.  0.
<mgrwt>
<rscale>  0 0.53274711E+03</rscale>
<asrwt>0</asrwt>
<pdfrwt beam="1">  1        2 0.34431413E+00 0.68708882E+03</pdfrwt>
<pdfrwt beam="2">  1       -2 0.93084475E-01 0.68708882E+03</pdfrwt>
<totfact> 0.50640114E+00</totfact>
</mgrwt>
</event>
<event>
 4    1  0.3057048E-007  0.8252601E+03  0.7818608E-02  0.9658626E-01
         -2   -1    0    0    0  501 -0.00000000000E+00  0.00000000000E+00  0.11702881711E+04  0.11702881711E+04  0.25500000000E-02 0.  1.
          2   -1    0    0  501    0  0.00000000000E+00 -0.00000000000E+00 -0.64279019512E+03  0.64279019512E+03  0.25500000000E-02 0. -1.
    8880023    1    1    2    0    0  0.21858245163E+03  0.44661583049E+03  0.86297683176E+03  0.11940616427E+04  0.65864270000E+03 0.  1.
    8880022    1    1    2    0    0 -0.21858245163E+03 -0.44661583049E+03 -0.33547885582E+03  0.61901672346E+03  0.15294330000E+03 0.  0.
<mgrwt>
<rscale>  0 0.73534518E+03</rscale>
<asrwt>0</asrwt>
<pdfrwt beam="1">  1        2 0.98890799E-01 0.82526008E+03</pdfrwt>
<pdfrwt beam="2">  1       -2 0.18004433E+00 0.82526008E+03</pdfrwt>
<totfact> 0.83384346E+00</totfact>
</mgrwt>
</event>
<event>
 4    1  0.3057048E-007  0.8484191E+03  0.7818608E-02  0.9614505E-01
         -2   -1    0    0    0  501 -0.00000000000E+00  0.00000000000E+00  0.10644497368E+04  0.10644497368E+04  0.25500000000E-02 0.  1.
          2   -1    0    0  501    0  0.00000000000E+00 -0.00000000000E+00 -0.87298278934E+03  0.87298278934E+03  0.25500000000E-02 0. -1.
    8880023    1    1    2    0    0 -0.38322501343E+03 -0.37301918640E+03  0.76217843826E+03  0.11404959019E+04  0.65864270000E+03 0.  1.
    8880022    1    1    2    0    0  0.38322501343E+03  0.37301918640E+03 -0.57071149076E+03  0.79693662423E+03  0.15294330000E+03 0.  0.
<mgrwt>
<rscale>  0 0.76343527E+03</rscale>
<asrwt>0</asrwt>
<pdfrwt beam="1">  1        2 0.13430505E+00 0.84841908E+03</pdfrwt>
<pdfrwt beam="2">  1       -2 0.16376150E+00 0.84841908E+03</pdfrwt>
<totfact> 0.72790906E+00</totfact>
</mgrwt>
</event>
<event>
 4    1  0.3057048E-007  0.6710723E+03  0.7818608E-02  0.1014906E+00
          2   -1    0    0  501    0  0.00000000000E+00  0.00000000000E+00  0.86839528257E+03  0.86839528257E+03  0.25500000000E-02 0. -1.
         -2   -1    0    0    0  501 -0.00000000000E+00 -0.00000000000E+00 -0.32111012548E+03  0.32111012549E+03  0.25500000000E-02 0.  1.
    8880023    1    1    2    0    0 -0.12581945067E+03  0.26405054582E+02  0.73217460374E+02  0.67505463767E+03  0.65864270000E+03 0.  0.
    8880022    1    1    2    0    0  0.12581945067E+03 -0.26405054582E+02  0.47406769671E+03  0.51445077039E+03  0.15294330000E+03 0. -1.
<mgrwt>
<rscale>  0 0.49570692E+03</rscale>
<asrwt>0</asrwt>
<pdfrwt beam="1">  1        2 0.13359927E+00 0.67107225E+03</pdfrwt>
<pdfrwt beam="2">  1       -2 0.49401557E-01 0.67107225E+03</pdfrwt>
<totfact> 0.12161485E+02</totfact>
</mgrwt>
</event>
<event>
 4    1  0.3057048E-007  0.6932269E+03  0.7818608E-02  0.1002655E+00
          2   -1    0    0  501    0  0.00000000000E+00  0.00000000000E+00  0.11668253987E+04  0.11668253987E+04  0.25500000000E-02 0. -1.
         -2   -1    0    0    0  501 -0.00000000000E+00 -0.00000000000E+00 -0.36367192662E+03  0.36367192663E+03  0.25500000000E-02 0.  1.
    8880023    1    1    2    0    0 -0.96006468872E+02  0.19374226460E+03  0.89366376271E+01  0.69328448483E+03  0.65864270000E+03 0.  1.
    8880022    1    1    2    0    0  0.96006468872E+02 -0.19374226460E+03  0.79421683445E+03  0.83721284050E+03  0.15294330000E+03 0.  0.
<mgrwt>
<rscale>  0 0.54501205E+03</rscale>
<asrwt>0</asrwt>
<pdfrwt beam="1">  1        2 0.17951160E+00 0.69322688E+03</pdfrwt>
<pdfrwt beam="2">  1       -2 0.55949527E-01 0.69322688E+03</pdfrwt>
<totfact> 0.60812253E+01</totfact>
</mgrwt>
</event>
<event>
 4    1  0.3057048E-007  0.9162531E+03  0.7818608E-02  0.9500428E-01
         -2   -1    0    0    0  501 -0.00000000000E+00  0.00000000000E+00  0.48325677885E+03  0.48325677886E+03  0.25500000000E-02 0.  1.
          2   -1    0    0  501    0  0.00000000000E+00 -0.00000000000E+00 -0.19000715306E+04  0.19000715306E+04  0.25500000000E-02 0. -1.
    8880023    1    1    2    0    0  0.63368448370E+03  0.64448426909E+02 -0.11168855157E+03  0.92303529913E+03  0.65864270000E+03 0.  1.
    8880022    1    1    2    0    0 -0.63368448370E+03 -0.64448426909E+02 -0.13051262002E+04  0.14602930103E+04  0.15294330000E+03 0.  0.
<mgrwt>
<rscale>  0 0.84252265E+03</rscale>
<asrwt>0</asrwt>
<pdfrwt beam="1">  1        2 0.29231869E+00 0.91625315E+03</pdfrwt>
<pdfrwt beam="2">  1       -2 0.74347197E-01 0.91625315E+03</pdfrwt>
<totfact> 0.12494452E+01</totfact>
</mgrwt>
</event>
<event>
 4    1  0.3057048E-007  0.7300119E+03  0.7818608E-02  0.9890059E-01
          2   -1    0    0  501    0  0.00000000000E+00  0.00000000000E+00  0.65966802869E+03  0.65966802869E+03  0.25500000000E-02 0. -1.
         -2   -1    0    0    0  501 -0.00000000000E+00 -0.00000000000E+00 -0.58945552526E+03  0.58945552527E+03  0.25500000000E-02 0.  1.
    8880023    1    1    2    0    0 -0.48092651937E+02 -0.31111778026E+03 -0.25310421912E+03  0.77264424438E+03  0.65864270000E+03 0.  1.
    8880022    1    1    2    0    0  0.48092651937E+02  0.31111778026E+03  0.32331672255E+03  0.47647930958E+03  0.15294330000E+03 0.  0.
<mgrwt>
<rscale>  0 0.60745477E+03</rscale>
<asrwt>0</asrwt>
<pdfrwt beam="1">  1        2 0.10148739E+00 0.73001191E+03</pdfrwt>
<pdfrwt beam="2">  1       -2 0.90685465E-01 0.73001191E+03</pdfrwt>
<totfact> 0.46495942E+01</totfact>
</mgrwt>
</event>
<event>
 4    1  0.3057048E-007  0.8539128E+03  0.7818608E-02  0.9604485E-01
         -2   -1    0    0    0  501 -0.00000000000E+00  0.00000000000E+00  0.40834742474E+03  0.40834742475E+03  0.25500000000E-02 0.  1.
          2   -1    0    0  501    0  0.00000000000E+00 -0.00000000000E+00 -0.16195847787E+04  0.16195847787E+04  0.25500000000E-02 0. -1.
    8880023    1    1    2    0    0  0.44889392825E+03  0.30635121131E+03 -0.21137672972E+03  0.87968582552E+03  0.65864270000E+03 0.  1.
    8880022    1    1    2    0    0 -0.44889392825E+03 -0.30635121131E+03 -0.99986062425E+03  0.11482463779E+04  0.15294330000E+03 0.  0.
<mgrwt>
<rscale>  0 0.77000075E+03</rscale>
<asrwt>0</asrwt>
<pdfrwt beam="1">  1        2 0.24916688E+00 0.85391278E+03</pdfrwt>
<pdfrwt beam="2">  1       -2 0.62822682E-01 0.85391278E+03</pdfrwt>
<totfact> 0.25888126E+01</totfact>
</mgrwt>
</event>
<event>
 4    1  0.3057048E-007  0.6861753E+03  0.7818608E-02  0.1006026E+00
          2   -1    0    0  501    0  0.00000000000E+00  0.00000000000E+00  0.24900236697E+04  0.24900236697E+04  0.25500000000E-02 0. -1.
         -2   -1    0    0    0  501 -0.00000000000E+00 -0.00000000000E+00 -0.38255556278E+03  0.38255556279E+03  0.25500000000E-02 0.  1.
    8880023    1    1    2    0    0 -0.17874858155E+03  0.71240976227E+02 -0.62240157075E+02  0.68899228988E+03  0.65864270000E+03 0.  1.
    8880022    1    1    2    0    0  0.17874858155E+03 -0.71240976227E+02  0.21697082640E+04  0.21835869426E+04  0.15294330000E+03 0.  0.
<mgrwt>
<rscale>  0 0.53085033E+03</rscale>
<asrwt>0</asrwt>
<pdfrwt beam="1">  1        2 0.38308054E+00 0.68617530E+03</pdfrwt>
<pdfrwt beam="2">  1       -2 0.58854705E-01 0.68617530E+03</pdfrwt>
<totfact> 0.10087428E+01</totfact>
</mgrwt>
</event>
<event>
 4    1  0.3057048E-007  0.7485158E+03  0.7818608E-02  0.9835801E-01
          2   -1    0    0  501    0  0.00000000000E+00  0.00000000000E+00  0.17392099239E+04  0.17392099239E+04  0.25500000000E-02 0. -1.
         -2   -1    0    0    0  501 -0.00000000000E+00 -0.00000000000E+00 -0.34371782174E+03  0.34371782175E+03  0.25500000000E-02 0.  1.
    8880023    1    1    2    0    0 -0.34329415916E+03  0.92815840878E+02  0.13021720286E+03  0.75975811033E+03  0.65864270000E+03 0.  1.
    8880022    1    1    2    0    0  0.34329415916E+03 -0.92815840878E+02  0.12652748993E+04  0.13231696354E+04  0.15294330000E+03 0.  0.
<mgrwt>
<rscale>  0 0.63476133E+03</rscale>
<asrwt>0</asrwt>
<pdfrwt beam="1">  1        2 0.26757076E+00 0.74851578E+03</pdfrwt>
<pdfrwt beam="2">  1       -2 0.52879665E-01 0.74851578E+03</pdfrwt>
<totfact> 0.32321436E+01</totfact>
</mgrwt>
</event>
<event>
 4    1  0.3057048E-007  0.7413102E+03  0.7818608E-02  0.9856147E-01
          2   -1    0    0  501    0  0.00000000000E+00  0.00000000000E+00  0.68194649607E+03  0.68194649607E+03  0.25500000000E-02 0. -1.
         -2   -1    0    0    0  501 -0.00000000000E+00 -0.00000000000E+00 -0.10893480816E+04  0.10893480816E+04  0.25500000000E-02 0.  1.
    8880023    1    1    2    0    0 -0.31003713262E+03  0.14002681885E+03  0.42829313319E+03  0.85614002815E+03  0.65864270000E+03 0. -1.
    8880022    1    1    2    0    0  0.31003713262E+03 -0.14002681885E+03 -0.83569471873E+03  0.91515454953E+03  0.15294330000E+03 0.  0.
<mgrwt>
<rscale>  0 0.62434482E+03</rscale>
<asrwt>0</asrwt>
<pdfrwt beam="1">  1        2 0.10491485E+00 0.74131015E+03</pdfrwt>
<pdfrwt beam="2">  1       -2 0.16759201E+00 0.74131015E+03</pdfrwt>
<totfact> 0.95562180E+00</totfact>
</mgrwt>
</event>
<event>
 4    1  0.3057048E-007  0.7023357E+03  0.7818608E-02  0.9987646E-01
         -2   -1    0    0    0  501 -0.00000000000E+00  0.00000000000E+00  0.15344987121E+03  0.15344987123E+03  0.25500000000E-02 0.  1.
          2   -1    0    0  501    0  0.00000000000E+00 -0.00000000000E+00 -0.23875335112E+04  0.23875335112E+04  0.25500000000E-02 0. -1.
    8880023    1    1    2    0    0  0.20896815143E+03 -0.12568839922E+03 -0.74316206586E+03  0.10225288868E+04  0.65864270000E+03 0.  1.
    8880022    1    1    2    0    0 -0.20896815143E+03  0.12568839922E+03 -0.14909215741E+04  0.15184544956E+04  0.15294330000E+03 0.  0.
<mgrwt>
<rscale>  0 0.56195257E+03</rscale>
<asrwt>0</asrwt>
<pdfrwt beam="1">  1        2 0.36731282E+00 0.70233572E+03</pdfrwt>
<pdfrwt beam="2">  1       -2 0.23607674E-01 0.70233572E+03</pdfrwt>
<totfact> 0.67003660E+01</totfact>
</mgrwt>
</event>
<event>
 4    1  0.3057048E-007  0.6697142E+03  0.7818608E-02  0.1015869E+00
         -2   -1    0    0    0  501 -0.00000000000E+00  0.00000000000E+00  0.14618328045E+03  0.14618328048E+03  0.25500000000E-02 0.  1.
          2   -1    0    0  501    0  0.00000000000E+00 -0.00000000000E+00 -0.26865907547E+04  0.26865907547E+04  0.25500000000E-02 0. -1.
    8880023    1    1    2    0    0  0.10472903990E+03  0.61145100416E+02 -0.65325047297E+03  0.93554972172E+03  0.65864270000E+03 0.  1.
    8880022    1    1    2    0    0 -0.10472903990E+03 -0.61145100416E+02 -0.18871570012E+04  0.18972243134E+04  0.15294330000E+03 0.  0.
<mgrwt>
<rscale>  0 0.49207430E+03</rscale>
<asrwt>0</asrwt>
<pdfrwt beam="1">  1        2 0.41332162E+00 0.66971419E+03</pdfrwt>
<pdfrwt beam="2">  1       -2 0.22489737E-01 0.66971419E+03</pdfrwt>
<totfact> 0.49627113E+01</totfact>
</mgrwt>
</event>
<event>
 4    1  0.3057048E-007  0.8277179E+03  0.7818608E-02  0.9653789E-01
          2   -1    0    0  501    0  0.00000000000E+00  0.00000000000E+00  0.31666454368E+04  0.31666454368E+04  0.25500000000E-02 0. -1.
         -2   -1    0    0    0  501 -0.00000000000E+00 -0.00000000000E+00 -0.19450403101E+03  0.19450403103E+03  0.25500000000E-02 0.  1.
    8880023    1    1    2    0    0  0.43690539469E+03 -0.24580560672E+03  0.89572252696E+03  0.12196047605E+04  0.65864270000E+03 0.  0.
    8880022    1    1    2    0    0 -0.43690539469E+03  0.24580560672E+03  0.20764188789E+04  0.21415447074E+04  0.15294330000E+03 0.  0.
<mgrwt>
<rscale>  0 0.73836104E+03</rscale>
<asrwt>0</asrwt>
<pdfrwt beam="1">  1        2 0.48717618E+00 0.82771790E+03</pdfrwt>
<pdfrwt beam="2">  1       -2 0.29923700E-01 0.82771790E+03</pdfrwt>
<totfact> 0.14777344E+01</totfact>
</mgrwt>
</event>
<event>
 4    1  0.3057048E-007  0.6745548E+03  0.7818608E-02  0.1012588E+00
         -2   -1    0    0    0  501 -0.00000000000E+00  0.00000000000E+00  0.51961607812E+03  0.51961607813E+03  0.25500000000E-02 0.  1.
          2   -1    0    0  501    0  0.00000000000E+00 -0.00000000000E+00 -0.56876992578E+03  0.56876992578E+03  0.25500000000E-02 0. -1.
    8880023    1    1    2    0    0  0.13807858692E+03 -0.46349204656E+02  0.25239908036E+03  0.72022874628E+03  0.65864270000E+03 0.  1.
    8880022    1    1    2    0    0 -0.13807858692E+03  0.46349204656E+02 -0.30155292801E+03  0.36815725763E+03  0.15294330000E+03 0.  0.
<mgrwt>
<rscale>  0 0.50458762E+03</rscale>
<asrwt>0</asrwt>
<pdfrwt beam="1">  1        2 0.87503065E-01 0.67455478E+03</pdfrwt>
<pdfrwt beam="2">  1       -2 0.79940936E-01 0.67455478E+03</pdfrwt>
<totfact> 0.74458969E+01</totfact>
</mgrwt>
</event>
<event>
 4    1  0.3057048E-007  0.7344932E+03  0.7818608E-02  0.9876288E-01
          2   -1    0    0  501    0  0.00000000000E+00  0.00000000000E+00  0.12226506502E+04  0.12226506502E+04  0.25500000000E-02 0. -1.
         -2   -1    0    0    0  501 -0.00000000000E+00 -0.00000000000E+00 -0.53166942973E+03  0.53166942973E+03  0.25500000000E-02 0.  1.
    8880023    1    1    2    0    0 -0.32046798931E+03  0.54500685533E+02 -0.22681602763E+03  0.76871696583E+03  0.65864270000E+03 0.  1.
    8880022    1    1    2    0    0  0.32046798931E+03 -0.54500685533E+02  0.91779724806E+03  0.98560311406E+03  0.15294330000E+03 0.  0.
<mgrwt>
<rscale>  0 0.61424342E+03</rscale>
<asrwt>0</asrwt>
<pdfrwt beam="1">  1        2 0.18810010E+00 0.73449320E+03</pdfrwt>
<pdfrwt beam="2">  1       -2 0.81795297E-01 0.73449320E+03</pdfrwt>
<totfact> 0.24645698E+01</totfact>
</mgrwt>
</event>
<event>
 4    1  0.3057048E-007  0.1182359E+04  0.7818608E-02  0.9174464E-01
         -2   -1    0    0    0  501 -0.00000000000E+00  0.00000000000E+00  0.93667718814E+03  0.93667718814E+03  0.25500000000E-02 0.  1.
          2   -1    0    0  501    0  0.00000000000E+00 -0.00000000000E+00 -0.12760984367E+04  0.12760984367E+04  0.25500000000E-02 0. -1.
    8880023    1    1    2    0    0  0.31308854948E+03 -0.93066527569E+03 -0.76529510002E+02  0.11848330124E+04  0.65864270000E+03 0.  1.
    8880022    1    1    2    0    0 -0.31308854948E+03  0.93066527569E+03 -0.26289173856E+03  0.10279426124E+04  0.15294330000E+03 0. -1.
<mgrwt>
<rscale>  0 0.11320930E+04</rscale>
<asrwt>0</asrwt>
<pdfrwt beam="1">  1        2 0.19632284E+00 0.11823589E+04</pdfrwt>
<pdfrwt beam="2">  1       -2 0.14410418E+00 0.11823589E+04</pdfrwt>
<totfact> 0.55418341E+00</totfact>
</mgrwt>
</event>
<event>
 4    1  0.3057048E-007  0.1012042E+04  0.7818608E-02  0.9365970E-01
          2   -1    0    0  501    0  0.00000000000E+00  0.00000000000E+00  0.27755403039E+04  0.27755403039E+04  0.25500000000E-02 0. -1.
         -2   -1    0    0    0  501 -0.00000000000E+00 -0.00000000000E+00 -0.47367059838E+03  0.47367059839E+03  0.25500000000E-02 0.  1.
    8880023    1    1    2    0    0 -0.68829820284E+03 -0.34156048205E+03  0.23518622868E+03  0.10390095030E+04  0.65864270000E+03 0. -1.
    8880022    1    1    2    0    0  0.68829820284E+03  0.34156048205E+03  0.20666834768E+04  0.22102013993E+04  0.15294330000E+03 0.  0.
<mgrwt>
<rscale>  0 0.94929891E+03</rscale>
<asrwt>0</asrwt>
<pdfrwt beam="1">  1        2 0.42700620E+00 0.10120416E+04</pdfrwt>
<pdfrwt beam="2">  1       -2 0.72872400E-01 0.10120416E+04</pdfrwt>
<totfact> 0.41319052E+00</totfact>
</mgrwt>
</event>
<event>
 4    1  0.3057048E-007  0.7482781E+03  0.7818608E-02  0.9836458E-01
          2   -1    0    0  501    0  0.00000000000E+00  0.00000000000E+00  0.84892500395E+03  0.84892500395E+03  0.25500000000E-02 0. -1.
         -2   -1    0    0    0  501 -0.00000000000E+00 -0.00000000000E+00 -0.12741643827E+04  0.12741643827E+04  0.25500000000E-02 0.  1.
    8880023    1    1    2    0    0 -0.35487244300E+03  0.13246396168E+02 -0.11088483112E+04  0.13377087506E+04  0.65864270000E+03 0.  1.
    8880022    1    1    2    0    0  0.35487244300E+03 -0.13246396168E+02  0.68360893252E+03  0.78538063603E+03  0.15294330000E+03 0.  0.
<mgrwt>
<rscale>  0 0.63442165E+03</rscale>
<asrwt>0</asrwt>
<pdfrwt beam="1">  1        2 0.13060385E+00 0.74827811E+03</pdfrwt>
<pdfrwt beam="2">  1       -2 0.19602529E+00 0.74827811E+03</pdfrwt>
<totfact> 0.45909381E+00</totfact>
</mgrwt>
</event>
<event>
 4    1  0.3057048E-007  0.8171327E+03  0.7818608E-02  0.9674907E-01
         -2   -1    0    0    0  501 -0.00000000000E+00  0.00000000000E+00  0.66933798964E+03  0.66933798964E+03  0.25500000000E-02 0.  1.
          2   -1    0    0  501    0  0.00000000000E+00 -0.00000000000E+00 -0.18244762741E+04  0.18244762741E+04  0.25500000000E-02 0. -1.
    8880023    1    1    2    0    0 -0.42701518192E+03  0.22705421774E+03  0.36229556576E+03  0.89384778716E+03  0.65864270000E+03 0.  1.
    8880022    1    1    2    0    0  0.42701518192E+03 -0.22705421774E+03 -0.15174338502E+04  0.15999664765E+04  0.15294330000E+03 0.  0.
<mgrwt>
<rscale>  0 0.72530673E+03</rscale>
<asrwt>0</asrwt>
<pdfrwt beam="1">  1        2 0.28068866E+00 0.81713266E+03</pdfrwt>
<pdfrwt beam="2">  1       -2 0.10297508E+00 0.81713266E+03</pdfrwt>
<totfact> 0.65801654E+00</totfact>
</mgrwt>
</event>
<event>
 4    1  0.3057048E-007  0.7041925E+03  0.7818608E-02  0.9980234E-01
          2   -1    0    0  501    0  0.00000000000E+00  0.00000000000E+00  0.13164553241E+04  0.13164553241E+04  0.25500000000E-02 0. -1.
         -2   -1    0    0    0  501 -0.00000000000E+00 -0.00000000000E+00 -0.46328566563E+03  0.46328566564E+03  0.25500000000E-02 0.  1.
    8880023    1    1    2    0    0 -0.37479139746E+02  0.24631717789E+03 -0.16261377392E+03  0.72272421004E+03  0.65864270000E+03 0.  1.
    8880022    1    1    2    0    0  0.37479139746E+02 -0.24631717789E+03  0.10157834324E+04  0.10570167797E+04  0.15294330000E+03 0.  0.
<mgrwt>
<rscale>  0 0.56525484E+03</rscale>
<asrwt>0</asrwt>
<pdfrwt beam="1">  1        2 0.20253159E+00 0.70419248E+03</pdfrwt>
<pdfrwt beam="2">  1       -2 0.71274719E-01 0.70419248E+03</pdfrwt>
<totfact> 0.29634452E+01</totfact>
</mgrwt>
</event>
<event>
 4    1  0.3057048E-007  0.6920430E+03  0.7818608E-02  0.1003196E+00
         -2   -1    0    0    0  501 -0.00000000000E+00  0.00000000000E+00  0.10004286237E+04  0.10004286237E+04  0.25500000000E-02 0.  1.
          2   -1    0    0  501    0  0.00000000000E+00 -0.00000000000E+00 -0.45903599784E+03  0.45903599784E+03  0.25500000000E-02 0. -1.
    8880023    1    1    2    0    0 -0.18549111019E+03 -0.10347158110E+03  0.82280979947E+03  0.10751462656E+04  0.65864270000E+03 0.  1.
    8880022    1    1    2    0    0  0.18549111019E+03  0.10347158110E+03 -0.28141717365E+03  0.38431835591E+03  0.15294330000E+03 0.  0.
<mgrwt>
<rscale>  0 0.54270657E+03</rscale>
<asrwt>0</asrwt>
<pdfrwt beam="1">  1        2 0.70620923E-01 0.69204301E+03</pdfrwt>
<pdfrwt beam="2">  1       -2 0.15391209E+00 0.69204301E+03</pdfrwt>
<totfact> 0.19377755E+01</totfact>
</mgrwt>
</event>
<event>
 4    1  0.3057048E-007  0.6713357E+03  0.7818608E-02  0.1014723E+00
         -2   -1    0    0    0  501 -0.00000000000E+00  0.00000000000E+00  0.61867363360E+02  0.61867363413E+02  0.25500000000E-02 0.  1.
          2   -1    0    0  501    0  0.00000000000E+00 -0.00000000000E+00 -0.37602911901E+04  0.37602911901E+04  0.25500000000E-02 0. -1.
    8880023    1    1    2    0    0 -0.30530663237E+01 -0.12989240809E+03 -0.19514879713E+04  0.20637337201E+04  0.65864270000E+03 0.  1.
    8880022    1    1    2    0    0  0.30530663237E+01  0.12989240809E+03 -0.17469358554E+04  0.17584248335E+04  0.15294330000E+03 0.  0.
<mgrwt>
<rscale>  0 0.49639975E+03</rscale>
<asrwt>0</asrwt>
<pdfrwt beam="1">  1        2 0.57850616E+00 0.67133566E+03</pdfrwt>
<pdfrwt beam="2">  1       -2 0.95180588E-02 0.67133566E+03</pdfrwt>
<totfact> 0.43187148E+01</totfact>
</mgrwt>
</event>
<event>
 4    1  0.3057048E-007  0.6838424E+03  0.7818608E-02  0.1007229E+00
          2   -1    0    0  501    0  0.00000000000E+00  0.00000000000E+00  0.71139924290E+03  0.71139924290E+03  0.25500000000E-02 0. -1.
         -2   -1    0    0    0  501 -0.00000000000E+00 -0.00000000000E+00 -0.38204509332E+03  0.38204509333E+03  0.25500000000E-02 0.  1.
    8880023    1    1    2    0    0  0.14221878318E+03 -0.11663631090E+03 -0.31304641869E+01  0.68384955756E+03  0.65864270000E+03 0.  1.
    8880022    1    1    2    0    0 -0.14221878318E+03  0.11663631090E+03  0.33248461376E+03  0.40959477867E+03  0.15294330000E+03 0.  0.
<mgrwt>
<rscale>  0 0.52591101E+03</rscale>
<asrwt>0</asrwt>
<pdfrwt beam="1">  1        2 0.10944604E+00 0.68384239E+03</pdfrwt>
<pdfrwt beam="2">  1       -2 0.58776169E-01 0.68384239E+03</pdfrwt>
<totfact> 0.11031225E+02</totfact>
</mgrwt>
</event>
<event>
 4    1  0.3057048E-007  0.7584314E+03  0.7818608E-02  0.9809185E-01
          2   -1    0    0  501    0  0.00000000000E+00  0.00000000000E+00  0.56723261448E+03  0.56723261448E+03  0.25500000000E-02 0. -1.
         -2   -1    0    0    0  501 -0.00000000000E+00 -0.00000000000E+00 -0.14452773138E+04  0.14452773138E+04  0.25500000000E-02 0.  1.
    8880023    1    1    2    0    0  0.45931358985E+02  0.37322688822E+03 -0.12498857834E+04  0.14619961277E+04  0.65864270000E+03 0.  0.
    8880022    1    1    2    0    0 -0.45931358985E+02 -0.37322688822E+03  0.37184108402E+03  0.55051380056E+03  0.15294330000E+03 0.  0.
<mgrwt>
<rscale>  0 0.64871923E+03</rscale>
<asrwt>0</asrwt>
<pdfrwt beam="1">  1        2 0.87266557E-01 0.75843141E+03</pdfrwt>
<pdfrwt beam="2">  1       -2 0.22235035E+00 0.75843141E+03</pdfrwt>
<totfact> 0.51833875E+00</totfact>
</mgrwt>
</event>
<event>
 4    1  0.3057048E-007  0.6801859E+03  0.7818608E-02  0.1009219E+00
          2   -1    0    0  501    0  0.00000000000E+00  0.00000000000E+00  0.13433025755E+04  0.13433025755E+04  0.25500000000E-02 0. -1.
         -2   -1    0    0    0  501 -0.00000000000E+00 -0.00000000000E+00 -0.22476062659E+03  0.22476062660E+03  0.25500000000E-02 0.  1.
    8880023    1    1    2    0    0  0.23593589127E+02  0.16818445829E+03  0.34740176610E+03  0.76376754501E+03  0.65864270000E+03 0.  1.
    8880022    1    1    2    0    0 -0.23593589127E+02 -0.16818445829E+03  0.77114018284E+03  0.80429565712E+03  0.15294330000E+03 0.  0.
<mgrwt>
<rscale>  0 0.51786340E+03</rscale>
<asrwt>0</asrwt>
<pdfrwt beam="1">  1        2 0.20666193E+00 0.68018591E+03</pdfrwt>
<pdfrwt beam="2">  1       -2 0.34578559E-01 0.68018591E+03</pdfrwt>
<totfact> 0.12491528E+02</totfact>
</mgrwt>
</event>
<event>
 4    1  0.3057048E-007  0.8249563E+03  0.7818608E-02  0.9659227E-01
         -2   -1    0    0    0  501 -0.00000000000E+00  0.00000000000E+00  0.53731529834E+03  0.53731529835E+03  0.25500000000E-02 0.  1.
          2   -1    0    0  501    0  0.00000000000E+00 -0.00000000000E+00 -0.18155847936E+04  0.18155847936E+04  0.25500000000E-02 0. -1.
    8880023    1    1    2    0    0  0.47593987270E+03 -0.14221103143E+03  0.14508789976E+03  0.83761771997E+03  0.65864270000E+03 0.  1.
    8880022    1    1    2    0    0 -0.47593987270E+03  0.14221103143E+03 -0.14233573950E+04  0.15152823719E+04  0.15294330000E+03 0.  0.
<mgrwt>
<rscale>  0 0.73497185E+03</rscale>
<asrwt>0</asrwt>
<pdfrwt beam="1">  1        2 0.27932073E+00 0.82495633E+03</pdfrwt>
<pdfrwt beam="2">  1       -2 0.82663893E-01 0.82495633E+03</pdfrwt>
<totfact> 0.11080617E+01</totfact>
</mgrwt>
</event>
<event>
 4    1  0.3057048E-007  0.7705635E+03  0.7818608E-02  0.9778489E-01
          2   -1    0    0  501    0  0.00000000000E+00  0.00000000000E+00  0.11369427112E+04  0.11369427112E+04  0.25500000000E-02 0. -1.
         -2   -1    0    0    0  501 -0.00000000000E+00 -0.00000000000E+00 -0.42043668769E+03  0.42043668769E+03  0.25500000000E-02 0.  1.
    8880023    1    1    2    0    0  0.39581738845E+03  0.57327796646E+02  0.59107585166E+02  0.77282714377E+03  0.65864270000E+03 0.  1.
    8880022    1    1    2    0    0 -0.39581738845E+03 -0.57327796646E+02  0.65739843836E+03  0.78455225513E+03  0.15294330000E+03 0.  0.
<mgrwt>
<rscale>  0 0.66529812E+03</rscale>
<asrwt>0</asrwt>
<pdfrwt beam="1">  1        2 0.17491426E+00 0.77056349E+03</pdfrwt>
<pdfrwt beam="2">  1       -2 0.64682568E-01 0.77056349E+03</pdfrwt>
<totfact> 0.46313690E+01</totfact>
</mgrwt>
</event>
<event>
 4    1  0.3057048E-007  0.6944097E+03  0.7818608E-02  0.1002123E+00
          2   -1    0    0  501    0  0.00000000000E+00  0.00000000000E+00  0.15766047847E+04  0.15766047847E+04  0.25500000000E-02 0. -1.
         -2   -1    0    0    0  501 -0.00000000000E+00 -0.00000000000E+00 -0.21260938791E+03  0.21260938793E+03  0.25500000000E-02 0.  1.
    8880023    1    1    2    0    0 -0.21768760846E+03  0.31730052454E+02  0.42820071318E+03  0.81581906581E+03  0.65864270000E+03 0.  0.
    8880022    1    1    2    0    0  0.21768760846E+03 -0.31730052454E+02  0.93579468365E+03  0.97339510686E+03  0.15294330000E+03 0.  0.
<mgrwt>
<rscale>  0 0.54728946E+03</rscale>
<asrwt>0</asrwt>
<pdfrwt beam="1">  1        2 0.24255458E+00 0.69440975E+03</pdfrwt>
<pdfrwt beam="2">  1       -2 0.32709137E-01 0.69440975E+03</pdfrwt>
<totfact> 0.10261909E+02</totfact>
</mgrwt>
</event>
<event>
 4    1  0.3057048E-007  0.7001941E+03  0.7818608E-02  0.9996397E-01
         -2   -1    0    0    0  501 -0.00000000000E+00  0.00000000000E+00  0.42574507851E+03  0.42574507852E+03  0.25500000000E-02 0.  1.
          2   -1    0    0  501    0  0.00000000000E+00 -0.00000000000E+00 -0.26491147033E+04  0.26491147033E+04  0.25500000000E-02 0. -1.
    8880023    1    1    2    0    0  0.23680535833E+03 -0.19616462422E+02  0.12353131246E+03  0.71100757714E+03  0.65864270000E+03 0.  1.
    8880022    1    1    2    0    0 -0.23680535833E+03  0.19616462422E+02 -0.23469009373E+04  0.23638522047E+04  0.15294330000E+03 0.  0.
<mgrwt>
<rscale>  0 0.55808507E+03</rscale>
<asrwt>0</asrwt>
<pdfrwt beam="1">  1        2 0.40755610E+00 0.70019411E+03</pdfrwt>
<pdfrwt beam="2">  1       -2 0.65499245E-01 0.70019411E+03</pdfrwt>
<totfact> 0.65035203E+00</totfact>
</mgrwt>
</event>
<event>
 4    1  0.3057048E-007  0.7398108E+03  0.7818608E-02  0.9860498E-01
          2   -1    0    0  501    0  0.00000000000E+00  0.00000000000E+00  0.25457612436E+04  0.25457612436E+04  0.25500000000E-02 0. -1.
         -2   -1    0    0    0  501 -0.00000000000E+00 -0.00000000000E+00 -0.14485742279E+03  0.14485742281E+03  0.25500000000E-02 0.  1.
    8880023    1    1    2    0    0  0.32753463846E+03 -0.78936104848E+02  0.10139216986E+04  0.12551323696E+04  0.65864270000E+03 0.  1.
    8880022    1    1    2    0    0 -0.32753463846E+03  0.78936104848E+02  0.13869821222E+04  0.14354862968E+04  0.15294330000E+03 0.  0.
<mgrwt>
<rscale>  0 0.62214489E+03</rscale>
<asrwt>0</asrwt>
<pdfrwt beam="1">  1        2 0.39165558E+00 0.73981082E+03</pdfrwt>
<pdfrwt beam="2">  1       -2 0.22285757E-01 0.73981082E+03</pdfrwt>
<totfact> 0.60151990E+01</totfact>
</mgrwt>
</event>
<event>
 4    1  0.3057048E-007  0.8799622E+03  0.7818608E-02  0.9558996E-01
         -2   -1    0    0    0  501 -0.00000000000E+00  0.00000000000E+00  0.41529119983E+03  0.41529119984E+03  0.25500000000E-02 0.  1.
          2   -1    0    0  501    0  0.00000000000E+00 -0.00000000000E+00 -0.23839268929E+04  0.23839268929E+04  0.25500000000E-02 0. -1.
    8880023    1    1    2    0    0  0.48859308852E+03  0.31906132803E+03 -0.16229039693E+03  0.89480261309E+03  0.65864270000E+03 0.  1.
    8880022    1    1    2    0    0 -0.48859308852E+03 -0.31906132803E+03 -0.18063452961E+04  0.19044154796E+04  0.15294330000E+03 0.  0.
<mgrwt>
<rscale>  0 0.80070589E+03</rscale>
<asrwt>0</asrwt>
<pdfrwt beam="1">  1        2 0.36675797E+00 0.87996224E+03</pdfrwt>
<pdfrwt beam="2">  1       -2 0.63890956E-01 0.87996224E+03</pdfrwt>
<totfact> 0.94302606E+00</totfact>
</mgrwt>
</event>
<event>
 4    1  0.3114482E-007  0.8451372E+03  0.7818608E-02  0.9620569E-01
         -2   -1    0    0    0  501 -0.00000000000E+00  0.00000000000E+00  0.86166527853E+03  0.86166527854E+03  0.25500000000E-02 0.  1.
          2   -1    0    0  501    0  0.00000000000E+00 -0.00000000000E+00 -0.22321816345E+04  0.22321816345E+04  0.25500000000E-02 0. -1.
    8880023    1    1    2    0    0 -0.67294449476E+02  0.52527914902E+03  0.60726681776E+03  0.10406872352E+04  0.65864270000E+03 0.  1.
    8880022    1    1    2    0    0  0.67294449476E+02 -0.52527914902E+03 -0.19777831737E+04  0.20531596778E+04  0.15294330000E+03 0.  0.
<mgrwt>
<rscale>  0 0.75949646E+03</rscale>
<asrwt>0</asrwt>
<pdfrwt beam="1">  1        2 0.34341256E+00 0.84513723E+03</pdfrwt>
<pdfrwt beam="2">  1       -2 0.13256389E+00 0.84513723E+03</pdfrwt>
<totfact> 0.20994064E+00</totfact>
</mgrwt>
</event>
<event>
 4    1  0.3057048E-007  0.6896433E+03  0.7818608E-02  0.1004323E+00
          2   -1    0    0  501    0  0.00000000000E+00  0.00000000000E+00  0.83902882071E+03  0.83902882072E+03  0.25500000000E-02 0. -1.
         -2   -1    0    0    0  501 -0.00000000000E+00 -0.00000000000E+00 -0.30402480374E+03  0.30402480375E+03  0.25500000000E-02 0.  1.
    8880023    1    1    2    0    0 -0.17700623463E+03 -0.10230559186E+03  0.19278206022E+03  0.71608153881E+03  0.65864270000E+03 0.  1.
    8880022    1    1    2    0    0  0.17700623463E+03  0.10230559186E+03  0.34222195676E+03  0.42697208565E+03  0.15294330000E+03 0.  0.
<mgrwt>
<rscale>  0 0.53794815E+03</rscale>
<asrwt>0</asrwt>
<pdfrwt beam="1">  1        2 0.12908135E+00 0.68964328E+03</pdfrwt>
<pdfrwt beam="2">  1       -2 0.46773048E-01 0.68964328E+03</pdfrwt>
<totfact> 0.14210163E+02</totfact>
</mgrwt>
</event>
<event>
 4    1  0.3057048E-007  0.7356532E+03  0.7818608E-02  0.9872795E-01
          2   -1    0    0  501    0  0.00000000000E+00  0.00000000000E+00  0.72240809146E+03  0.72240809146E+03  0.25500000000E-02 0. -1.
         -2   -1    0    0    0  501 -0.00000000000E+00 -0.00000000000E+00 -0.78552650438E+03  0.78552650439E+03  0.25500000000E-02 0.  1.
    8880023    1    1    2    0    0 -0.58989470860E+02  0.32232851746E+03 -0.53775040322E+03  0.91124153399E+03  0.65864270000E+03 0.  1.
    8880022    1    1    2    0    0  0.58989470860E+02 -0.32232851746E+03  0.47463199030E+03  0.59669306186E+03  0.15294330000E+03 0.  0.
<mgrwt>
<rscale>  0 0.61598077E+03</rscale>
<asrwt>0</asrwt>
<pdfrwt beam="1">  1        2 0.11113971E+00 0.73565320E+03</pdfrwt>
<pdfrwt beam="2">  1       -2 0.12085023E+00 0.73565320E+03</pdfrwt>
<totfact> 0.20850649E+01</totfact>
</mgrwt>
</event>
<event>
 4    1  0.3057048E-007  0.8130133E+03  0.7818608E-02  0.9683334E-01
          2   -1    0    0  501    0  0.00000000000E+00  0.00000000000E+00  0.49209060273E+04  0.49209060273E+04  0.25500000000E-02 0. -1.
         -2   -1    0    0    0  501 -0.00000000000E+00 -0.00000000000E+00 -0.14284192940E+03  0.14284192942E+03  0.25500000000E-02 0.  1.
    8880023    1    1    2    0    0  0.47642689385E+03 -0.14063247228E+02  0.11916824602E+04  0.14426010025E+04  0.65864270000E+03 0.  1.
    8880022    1    1    2    0    0 -0.47642689385E+03  0.14063247228E+02  0.35863816376E+04  0.36211469542E+04  0.15294330000E+03 0.  0.
<mgrwt>
<rscale>  0 0.72017791E+03</rscale>
<asrwt>0</asrwt>
<pdfrwt beam="1">  1        2 0.75706249E+00 0.81301326E+03</pdfrwt>
<pdfrwt beam="2">  1       -2 0.21975681E-01 0.81301326E+03</pdfrwt>
<totfact> 0.89107891E-01</totfact>
</mgrwt>
</event>
<event>
 4    1  0.3057048E-007  0.1272517E+04  0.7818608E-02  0.9089664E-01
          2   -1    0    0  501    0  0.00000000000E+00  0.00000000000E+00  0.30523012714E+04  0.30523012714E+04  0.25500000000E-02 0. -1.
         -2   -1    0    0    0  501 -0.00000000000E+00 -0.00000000000E+00 -0.52329086520E+03  0.52329086521E+03  0.25500000000E-02 0.  1.
    8880023    1    1    2    0    0 -0.99406516811E+03  0.44421258614E+03  0.72954683246E+03  0.14668125876E+04  0.65864270000E+03 0.  0.
    8880022    1    1    2    0    0  0.99406516811E+03 -0.44421258614E+03  0.17994635738E+04  0.21087795491E+04  0.15294330000E+03 0.  0.
<mgrwt>
<rscale>  0 0.12268622E+04</rscale>
<asrwt>0</asrwt>
<pdfrwt beam="1">  1        2 0.46958481E+00 0.12725174E+04</pdfrwt>
<pdfrwt beam="2">  1       -2 0.80506288E-01 0.12725174E+04</pdfrwt>
<totfact> 0.21672840E+00</totfact>
</mgrwt>
</event>
<event>
 4    1  0.3057048E-007  0.7230389E+03  0.7818608E-02  0.9912434E-01
         -2   -1    0    0    0  501 -0.00000000000E+00  0.00000000000E+00  0.27276429367E+03  0.27276429368E+03  0.25500000000E-02 0.  1.
          2   -1    0    0  501    0  0.00000000000E+00 -0.00000000000E+00 -0.26503124966E+04  0.26503124966E+04  0.25500000000E-02 0. -1.
    8880023    1    1    2    0    0 -0.28233730254E+03 -0.96232481892E+02 -0.24361687521E+03  0.76297734641E+03  0.65864270000E+03 0.  1.
    8880022    1    1    2    0    0  0.28233730254E+03  0.96232481892E+02 -0.21339313277E+04  0.21600994439E+04  0.15294330000E+03 0.  0.
<mgrwt>
<rscale>  0 0.59662431E+03</rscale>
<asrwt>0</asrwt>
<pdfrwt beam="1">  1        2 0.40774037E+00 0.72303890E+03</pdfrwt>
<pdfrwt beam="2">  1       -2 0.41963739E-01 0.72303890E+03</pdfrwt>
<totfact> 0.16142816E+01</totfact>
</mgrwt>
</event>
<event>
 4    1  0.3057048E-007  0.9221485E+03  0.7818608E-02  0.9491373E-01
         -2   -1    0    0    0  501 -0.00000000000E+00  0.00000000000E+00  0.40533667689E+03  0.40533667690E+03  0.25500000000E-02 0.  1.
          2   -1    0    0  501    0  0.00000000000E+00 -0.00000000000E+00 -0.17955894536E+04  0.17955894536E+04  0.25500000000E-02 0. -1.
    8880023    1    1    2    0    0 -0.42854956075E+03  0.48258978850E+03 -0.39109949777E+03  0.10016569540E+04  0.65864270000E+03 0.  0.
    8880022    1    1    2    0    0  0.42854956075E+03 -0.48258978850E+03 -0.99915327889E+03  0.11992691765E+04  0.15294330000E+03 0.  0.
<mgrwt>
<rscale>  0 0.84922885E+03</rscale>
<asrwt>0</asrwt>
<pdfrwt beam="1">  1        2 0.27624453E+00 0.92214849E+03</pdfrwt>
<pdfrwt beam="2">  1       -2 0.62359490E-01 0.92214849E+03</pdfrwt>
<totfact> 0.20890927E+01</totfact>
</mgrwt>
</event>
<event>
 4    1  0.3057048E-007  0.6792237E+03  0.7818608E-02  0.1009766E+00
         -2   -1    0    0    0  501 -0.00000000000E+00  0.00000000000E+00  0.41043526872E+03  0.41043526873E+03  0.25500000000E-02 0.  1.
          2   -1    0    0  501    0  0.00000000000E+00 -0.00000000000E+00 -0.19257895225E+04  0.19257895225E+04  0.25500000000E-02 0. -1.
    8880023    1    1    2    0    0  0.16264941027E+03  0.32861019496E+02  0.11623978282E+03  0.68909837515E+03  0.65864270000E+03 0.  1.
    8880022    1    1    2    0    0 -0.16264941027E+03 -0.32861019496E+02 -0.16315940366E+04  0.16471264161E+04  0.15294330000E+03 0.  0.
<mgrwt>
<rscale>  0 0.51567662E+03</rscale>
<asrwt>0</asrwt>
<pdfrwt beam="1">  1        2 0.29627531E+00 0.67922374E+03</pdfrwt>
<pdfrwt beam="2">  1       -2 0.63143889E-01 0.67922374E+03</pdfrwt>
<totfact> 0.17810252E+01</totfact>
</mgrwt>
</event>
<event>
 4    1  0.3057048E-007  0.1612601E+04  0.7818608E-02  0.8833962E-01
         -2   -1    0    0    0  501 -0.00000000000E+00  0.00000000000E+00  0.64433942346E+03  0.64433942347E+03  0.25500000000E-02 0.  1.
          2   -1    0    0  501    0  0.00000000000E+00 -0.00000000000E+00 -0.38334257578E+04  0.38334257578E+04  0.25500000000E-02 0. -1.
    8880023    1    1    2    0    0  0.56032281981E+02 -0.14708950871E+04 -0.20612223452E+04  0.26170822946E+04  0.65864270000E+03 0.  0.
    8880022    1    1    2    0    0 -0.56032281981E+02  0.14708950871E+04 -0.11278639892E+04  0.18606828867E+04  0.15294330000E+03 0.  0.
<mgrwt>
<rscale>  0 0.15783463E+04</rscale>
<asrwt>0</asrwt>
<pdfrwt beam="1">  1        2 0.58975780E+00 0.16126011E+04</pdfrwt>
<pdfrwt beam="2">  1       -2 0.99129144E-01 0.16126011E+04</pdfrwt>
<totfact> 0.37262724E-01</totfact>
</mgrwt>
</event>
<event>
 4    1  0.3057048E-007  0.6810932E+03  0.7818608E-02  0.1008712E+00
         -2   -1    0    0    0  501 -0.00000000000E+00  0.00000000000E+00  0.10025623669E+04  0.10025623669E+04  0.25500000000E-02 0.  1.
          2   -1    0    0  501    0  0.00000000000E+00 -0.00000000000E+00 -0.31711939459E+03  0.31711939460E+03  0.25500000000E-02 0. -1.
    8880023    1    1    2    0    0  0.19355810317E+01 -0.17341850775E+03  0.80898151681E+03  0.10575154969E+04  0.65864270000E+03 0.  1.
    8880022    1    1    2    0    0 -0.19355810317E+01  0.17341850775E+03 -0.12353854452E+03  0.26216626462E+03  0.15294330000E+03 0. -1.
<mgrwt>
<rscale>  0 0.51989788E+03</rscale>
<asrwt>0</asrwt>
<pdfrwt beam="1">  1        2 0.48787601E-01 0.68109319E+03</pdfrwt>
<pdfrwt beam="2">  1       -2 0.15424036E+00 0.68109319E+03</pdfrwt>
<totfact> 0.29209496E+01</totfact>
</mgrwt>
</event>
<event>
 4    1  0.3057048E-007  0.1233814E+04  0.7818608E-02  0.9124933E-01
          2   -1    0    0  501    0  0.00000000000E+00  0.00000000000E+00  0.29074592927E+04  0.29074592927E+04  0.25500000000E-02 0. -1.
         -2   -1    0    0    0  501 -0.00000000000E+00 -0.00000000000E+00 -0.75700884349E+03  0.75700884350E+03  0.25500000000E-02 0.  1.
    8880023    1    1    2    0    0  0.43220472797E+02 -0.10424105118E+04 -0.38891850137E+02  0.12344271816E+04  0.65864270000E+03 0.  1.
    8880022    1    1    2    0    0 -0.43220472797E+02  0.10424105118E+04  0.21893422993E+04  0.24300409546E+04  0.15294330000E+03 0.  0.
<mgrwt>
<rscale>  0 0.11863001E+04</rscale>
<asrwt>0</asrwt>
<pdfrwt beam="1">  1        2 0.44730143E+00 0.12338144E+04</pdfrwt>
<pdfrwt beam="2">  1       -2 0.11646290E+00 0.12338144E+04</pdfrwt>
<totfact> 0.11165049E+00</totfact>
</mgrwt>
</event>
<event>
 4    1  0.3057048E-007  0.7898930E+03  0.7818608E-02  0.9733091E-01
         -2   -1    0    0    0  501 -0.00000000000E+00  0.00000000000E+00  0.66763151156E+03  0.66763151157E+03  0.25500000000E-02 0.  1.
          2   -1    0    0  501    0  0.00000000000E+00 -0.00000000000E+00 -0.16733958148E+04  0.16733958148E+04  0.25500000000E-02 0. -1.
    8880023    1    1    2    0    0  0.27883830265E+03  0.33521637243E+03  0.38268179611E+03  0.87771087421E+03  0.65864270000E+03 0.  0.
    8880022    1    1    2    0    0 -0.27883830265E+03 -0.33521637243E+03 -0.13884460994E+04  0.14633164522E+04  0.15294330000E+03 0.  0.
<mgrwt>
<rscale>  0 0.69080285E+03</rscale>
<asrwt>0</asrwt>
<pdfrwt beam="1">  1        2 0.25744551E+00 0.78989304E+03</pdfrwt>
<pdfrwt beam="2">  1       -2 0.10271254E+00 0.78989304E+03</pdfrwt>
<totfact> 0.80403415E+00</totfact>
</mgrwt>
</event>
<event>
 4    1  0.3057048E-007  0.7830600E+03  0.7818608E-02  0.9748697E-01
          2   -1    0    0  501    0  0.00000000000E+00  0.00000000000E+00  0.21565847861E+04  0.21565847861E+04  0.25500000000E-02 0. -1.
         -2   -1    0    0    0  501 -0.00000000000E+00 -0.00000000000E+00 -0.28868906625E+03  0.28868906626E+03  0.25500000000E-02 0.  1.
    8880023    1    1    2    0    0  0.28334096976E+03  0.31478668864E+03  0.34229103823E+03  0.85460290521E+03  0.65864270000E+03 0.  1.
    8880022    1    1    2    0    0 -0.28334096976E+03 -0.31478668864E+03  0.15256046816E+04  0.15906709471E+04  0.15294330000E+03 0.  0.
<mgrwt>
<rscale>  0 0.68189931E+03</rscale>
<asrwt>0</asrwt>
<pdfrwt beam="1">  1        2 0.33178227E+00 0.78306000E+03</pdfrwt>
<pdfrwt beam="2">  1       -2 0.44413703E-01 0.78306000E+03</pdfrwt>
<totfact> 0.27092978E+01</totfact>
</mgrwt>
</event>
<event>
 4    1  0.3057048E-007  0.1090248E+04  0.7818608E-02  0.9271992E-01
         -2   -1    0    0    0  501 -0.00000000000E+00  0.00000000000E+00  0.64654174669E+03  0.64654174669E+03  0.25500000000E-02 0.  1.
          2   -1    0    0  501    0  0.00000000000E+00 -0.00000000000E+00 -0.18388476652E+04  0.18388476652E+04  0.25500000000E-02 0. -1.
    8880023    1    1    2    0    0  0.84830320258E+03  0.18765008343E+03 -0.11998459737E+03  0.10968306101E+04  0.65864270000E+03 0.  0.
    8880022    1    1    2    0    0 -0.84830320258E+03 -0.18765008343E+03 -0.10723213212E+04  0.13885588018E+04  0.15294330000E+03 0.  0.
<mgrwt>
<rscale>  0 0.10340273E+04</rscale>
<asrwt>0</asrwt>
<pdfrwt beam="1">  1        2 0.28289964E+00 0.10902482E+04</pdfrwt>
<pdfrwt beam="2">  1       -2 0.99467962E-01 0.10902482E+04</pdfrwt>
<totfact> 0.67918003E+00</totfact>
</mgrwt>
</event>
<event>
 4    1  0.3057048E-007  0.1208080E+04  0.7818608E-02  0.9149308E-01
         -2   -1    0    0    0  501 -0.00000000000E+00  0.00000000000E+00  0.11835700821E+04  0.11835700821E+04  0.25500000000E-02 0.  1.
          2   -1    0    0  501    0  0.00000000000E+00 -0.00000000000E+00 -0.22446927293E+04  0.22446927293E+04  0.25500000000E-02 0. -1.
    8880023    1    1    2    0    0 -0.74645224041E+02 -0.10099873261E+04  0.69614038769E+03  0.13942983734E+04  0.65864270000E+03 0.  0.
    8880022    1    1    2    0    0  0.74645224041E+02  0.10099873261E+04 -0.17572630348E+04  0.20339644380E+04  0.15294330000E+03 0.  0.
<mgrwt>
<rscale>  0 0.11592326E+04</rscale>
<asrwt>0</asrwt>
<pdfrwt beam="1">  1        2 0.34533734E+00 0.12080797E+04</pdfrwt>
<pdfrwt beam="2">  1       -2 0.18208771E+00 0.12080797E+04</pdfrwt>
<totfact> 0.83118500E-01</totfact>
</mgrwt>
</event>
<event>
 4    1  0.3057048E-007  0.7354384E+03  0.7818608E-02  0.9873439E-01
         -2   -1    0    0    0  501 -0.00000000000E+00  0.00000000000E+00  0.44873461343E+03  0.44873461344E+03  0.25500000000E-02 0.  1.
          2   -1    0    0  501    0  0.00000000000E+00 -0.00000000000E+00 -0.17810700277E+04  0.17810700277E+04  0.25500000000E-02 0. -1.
    8880023    1    1    2    0    0  0.15179949092E+03 -0.28985585879E+03  0.10938727076E+03  0.74352894065E+03  0.65864270000E+03 0.  1.
    8880022    1    1    2    0    0 -0.15179949092E+03  0.28985585879E+03 -0.14417226850E+04  0.14862757005E+04  0.15294330000E+03 0.  0.
<mgrwt>
<rscale>  0 0.61565972E+03</rscale>
<asrwt>0</asrwt>
<pdfrwt beam="1">  1        2 0.27401077E+00 0.73543845E+03</pdfrwt>
<pdfrwt beam="2">  1       -2 0.69036095E-01 0.73543845E+03</pdfrwt>
<totfact> 0.17474590E+01</totfact>
</mgrwt>
</event>
<event>
 4    1  0.3057048E-007  0.7163032E+03  0.7818608E-02  0.9935299E-01
         -2   -1    0    0    0  501 -0.00000000000E+00  0.00000000000E+00  0.10603867379E+04  0.10603867379E+04  0.25500000000E-02 0.  1.
          2   -1    0    0  501    0  0.00000000000E+00 -0.00000000000E+00 -0.15103614352E+04  0.15103614352E+04  0.25500000000E-02 0. -1.
    8880023    1    1    2    0    0  0.28115448426E+03  0.15240291683E+02  0.91876792853E+03  0.11649999242E+04  0.65864270000E+03 0.  1.
    8880022    1    1    2    0    0 -0.28115448426E+03 -0.15240291683E+02 -0.13687426259E+04  0.14057482489E+04  0.15294330000E+03 0.  0.
<mgrwt>
<rscale>  0 0.58580633E+03</rscale>
<asrwt>0</asrwt>
<pdfrwt beam="1">  1        2 0.23236330E+00 0.71630323E+03</pdfrwt>
<pdfrwt beam="2">  1       -2 0.16313642E+00 0.71630323E+03</pdfrwt>
<totfact> 0.30922534E+00</totfact>
</mgrwt>
</event>
<event>
 4    1  0.3057048E-007  0.8651176E+03  0.7818608E-02  0.9584524E-01
         -2   -1    0    0    0  501 -0.00000000000E+00  0.00000000000E+00  0.26642155451E+03  0.26642155452E+03  0.25500000000E-02 0.  1.
          2   -1    0    0  501    0  0.00000000000E+00 -0.00000000000E+00 -0.23621407878E+04  0.23621407878E+04  0.25500000000E-02 0. -1.
    8880023    1    1    2    0    0 -0.51241391868E+03 -0.22814520630E+03 -0.68742554627E+03  0.11049806999E+04  0.65864270000E+03 0.  1.
    8880022    1    1    2    0    0  0.51241391868E+03  0.22814520630E+03 -0.14082936870E+04  0.15235816424E+04  0.15294330000E+03 0.  0.
<mgrwt>
<rscale>  0 0.78328993E+03</rscale>
<asrwt>0</asrwt>
<pdfrwt beam="1">  1        2 0.36340626E+00 0.86511760E+03</pdfrwt>
<pdfrwt beam="2">  1       -2 0.40987933E-01 0.86511760E+03</pdfrwt>
<totfact> 0.24155489E+01</totfact>
</mgrwt>
</event>
<event>
 4    1  0.3057048E-007  0.1007534E+04  0.7818608E-02  0.9371767E-01
          2   -1    0    0  501    0  0.00000000000E+00  0.00000000000E+00  0.20764435285E+04  0.20764435285E+04  0.25500000000E-02 0. -1.
         -2   -1    0    0    0  501 -0.00000000000E+00 -0.00000000000E+00 -0.66542948585E+03  0.66542948586E+03  0.25500000000E-02 0.  1.
    8880023    1    1    2    0    0 -0.63369324206E+03  0.42396625371E+03 -0.12988651405E+03  0.10158716563E+04  0.65864270000E+03 0.  0.
    8880022    1    1    2    0    0  0.63369324206E+03 -0.42396625371E+03  0.15409005567E+04  0.17260013580E+04  0.15294330000E+03 0.  0.
<mgrwt>
<rscale>  0 0.94436053E+03</rscale>
<asrwt>0</asrwt>
<pdfrwt beam="1">  1        2 0.31945285E+00 0.10075340E+04</pdfrwt>
<pdfrwt beam="2">  1       -2 0.10237377E+00 0.10075340E+04</pdfrwt>
<totfact> 0.47328601E+00</totfact>
</mgrwt>
</event>
<event>
 4    1  0.3057048E-007  0.9101786E+03  0.7818608E-02  0.9509885E-01
         -2   -1    0    0    0  501 -0.00000000000E+00  0.00000000000E+00  0.22147814556E+03  0.22147814557E+03  0.25500000000E-02 0.  1.
          2   -1    0    0  501    0  0.00000000000E+00 -0.00000000000E+00 -0.28041296928E+04  0.28041296928E+04  0.25500000000E-02 0. -1.
    8880023    1    1    2    0    0 -0.25166489590E+03 -0.57556896029E+03 -0.17381134912E+04  0.19620049853E+04  0.65864270000E+03 0.  0.
    8880022    1    1    2    0    0  0.25166489590E+03  0.57556896029E+03 -0.84453805603E+03  0.10636028530E+04  0.15294330000E+03 0. -1.
<mgrwt>
<rscale>  0 0.83558924E+03</rscale>
<asrwt>0</asrwt>
<pdfrwt beam="1">  1        2 0.43140454E+00 0.91017858E+03</pdfrwt>
<pdfrwt beam="2">  1       -2 0.34073563E-01 0.91017858E+03</pdfrwt>
<totfact> 0.19086743E+01</totfact>
</mgrwt>
</event>
<event>
 4    1  0.3057048E-007  0.8927162E+03  0.7818608E-02  0.9537827E-01
         -2   -1    0    0    0  501 -0.00000000000E+00  0.00000000000E+00  0.47065348304E+03  0.47065348304E+03  0.25500000000E-02 0.  1.
          2   -1    0    0  501    0  0.00000000000E+00 -0.00000000000E+00 -0.19508285020E+04  0.19508285020E+04  0.25500000000E-02 0. -1.
    8880023    1    1    2    0    0 -0.56904636551E+03  0.19828834266E+03 -0.88306271638E+02  0.89707315020E+03  0.65864270000E+03 0.  0.
    8880022    1    1    2    0    0  0.56904636551E+03 -0.19828834266E+03 -0.13918687473E+04  0.15244088348E+04  0.15294330000E+03 0.  0.
<mgrwt>
<rscale>  0 0.81551524E+03</rscale>
<asrwt>0</asrwt>
<pdfrwt beam="1">  1        2 0.30012746E+00 0.89271621E+03</pdfrwt>
<pdfrwt beam="2">  1       -2 0.72408229E-01 0.89271621E+03</pdfrwt>
<totfact> 0.12458733E+01</totfact>
</mgrwt>
</event>
<event>
 4    1  0.3057048E-007  0.6764352E+03  0.7818608E-02  0.1011417E+00
         -2   -1    0    0    0  501 -0.00000000000E+00  0.00000000000E+00  0.46469565903E+03  0.46469565904E+03  0.25500000000E-02 0.  1.
          2   -1    0    0  501    0  0.00000000000E+00 -0.00000000000E+00 -0.20294870795E+04  0.20294870795E+04  0.25500000000E-02 0. -1.
    8880023    1    1    2    0    0  0.41408650954E+02 -0.14845755098E+03  0.20835075056E+03  0.70779556536E+03  0.65864270000E+03 0.  1.
    8880022    1    1    2    0    0 -0.41408650954E+02  0.14845755098E+03 -0.17731421711E+04  0.17863871732E+04  0.15294330000E+03 0.  0.
<mgrwt>
<rscale>  0 0.50915523E+03</rscale>
<asrwt>0</asrwt>
<pdfrwt beam="1">  1        2 0.31222878E+00 0.67643516E+03</pdfrwt>
<pdfrwt beam="2">  1       -2 0.71491641E-01 0.67643516E+03</pdfrwt>
<totfact> 0.11966679E+01</totfact>
</mgrwt>
</event>
<event>
 4    1  0.3057048E-007  0.9451175E+03  0.7818608E-02  0.9457174E-01
         -2   -1    0    0    0  501 -0.00000000000E+00  0.00000000000E+00  0.40968867689E+03  0.40968867689E+03  0.25500000000E-02 0.  1.
          2   -1    0    0  501    0  0.00000000000E+00 -0.00000000000E+00 -0.27137692146E+04  0.27137692146E+04  0.25500000000E-02 0. -1.
    8880023    1    1    2    0    0  0.49048160558E+03  0.46782971454E+03 -0.28347574826E+03  0.98671452474E+03  0.65864270000E+03 0.  0.
    8880022    1    1    2    0    0 -0.49048160558E+03 -0.46782971454E+03 -0.20206047895E+04  0.21367433668E+04  0.15294330000E+03 0.  0.
<mgrwt>
<rscale>  0 0.87516201E+03</rscale>
<asrwt>0</asrwt>
<pdfrwt beam="1">  1        2 0.41750294E+00 0.94511748E+03</pdfrwt>
<pdfrwt beam="2">  1       -2 0.63029029E-01 0.94511748E+03</pdfrwt>
<totfact> 0.62209221E+00</totfact>
</mgrwt>
</event>
<event>
 4    1  0.3057048E-007  0.7277700E+03  0.7818608E-02  0.9897122E-01
         -2   -1    0    0    0  501 -0.00000000000E+00  0.00000000000E+00  0.37698275686E+03  0.37698275687E+03  0.25500000000E-02 0.  1.
          2   -1    0    0  501    0  0.00000000000E+00 -0.00000000000E+00 -0.23793320833E+04  0.23793320833E+04  0.25500000000E-02 0. -1.
    8880023    1    1    2    0    0  0.13466731863E+03 -0.27875376087E+03 -0.34168398222E+01  0.72777800665E+03  0.65864270000E+03 0.  0.
    8880022    1    1    2    0    0 -0.13466731863E+03  0.27875376087E+03 -0.19989324866E+04  0.20285368335E+04  0.15294330000E+03 0.  0.
<mgrwt>
<rscale>  0 0.60400992E+03</rscale>
<asrwt>0</asrwt>
<pdfrwt beam="1">  1        2 0.36605108E+00 0.72776999E+03</pdfrwt>
<pdfrwt beam="2">  1       -2 0.57997349E-01 0.72776999E+03</pdfrwt>
<totfact> 0.11917675E+01</totfact>
</mgrwt>
</event>
<event>
 4    1  0.3057048E-007  0.7394555E+03  0.7818608E-02  0.9861536E-01
          2   -1    0    0  501    0  0.00000000000E+00  0.00000000000E+00  0.51272259832E+03  0.51272259833E+03  0.25500000000E-02 0. -1.
         -2   -1    0    0    0  501 -0.00000000000E+00 -0.00000000000E+00 -0.76628404466E+03  0.76628404466E+03  0.25500000000E-02 0.  1.
    8880023    1    1    2    0    0 -0.27316509620E+03  0.19586999881E+03  0.12523580444E+03  0.74998562599E+03  0.65864270000E+03 0.  0.
    8880022    1    1    2    0    0  0.27316509620E+03 -0.19586999881E+03 -0.37879725078E+03  0.52902101700E+03  0.15294330000E+03 0.  0.
<mgrwt>
<rscale>  0 0.62162179E+03</rscale>
<asrwt>0</asrwt>
<pdfrwt beam="1">  1        2 0.78880400E-01 0.73945550E+03</pdfrwt>
<pdfrwt beam="2">  1       -2 0.11788985E+00 0.73945550E+03</pdfrwt>
<totfact> 0.33611881E+01</totfact>
</mgrwt>
</event>
<event>
 4    1  0.3057048E-007  0.8686030E+03  0.7818608E-02  0.9578440E-01
          2   -1    0    0  501    0  0.00000000000E+00  0.00000000000E+00  0.23781477783E+04  0.23781477783E+04  0.25500000000E-02 0. -1.
         -2   -1    0    0    0  501 -0.00000000000E+00 -0.00000000000E+00 -0.26519908619E+03  0.26519908620E+03  0.25500000000E-02 0.  1.
    8880023    1    1    2    0    0 -0.18451625647E+02 -0.56596862876E+03  0.70705634330E+03  0.11199999241E+04  0.65864270000E+03 0. -1.
    8880022    1    1    2    0    0  0.18451625647E+02  0.56596862876E+03  0.14058923488E+04  0.15233469404E+04  0.15294330000E+03 0.  0.
<mgrwt>
<rscale>  0 0.78739762E+03</rscale>
<asrwt>0</asrwt>
<pdfrwt beam="1">  1        2 0.36586891E+00 0.86860299E+03</pdfrwt>
<pdfrwt beam="2">  1       -2 0.40799857E-01 0.86860299E+03</pdfrwt>
<totfact> 0.23864642E+01</totfact>
</mgrwt>
</event>
<event>
 4    1  0.3057048E-007  0.9207673E+03  0.7818608E-02  0.9493483E-01
         -2   -1    0    0    0  501 -0.00000000000E+00  0.00000000000E+00  0.15195738091E+04  0.15195738091E+04  0.25500000000E-02 0.  1.
          2   -1    0    0  501    0  0.00000000000E+00 -0.00000000000E+00 -0.11451030892E+04  0.11451030893E+04  0.25500000000E-02 0. -1.
    8880023    1    1    2    0    0  0.30004149120E+03  0.56919007135E+03  0.12592886465E+04  0.15600065177E+04  0.65864270000E+03 0.  1.
    8880022    1    1    2    0    0 -0.30004149120E+03 -0.56919007135E+03 -0.88481792660E+03  0.11046703807E+04  0.15294330000E+03 0.  0.
<mgrwt>
<rscale>  0 0.84765964E+03</rscale>
<asrwt>0</asrwt>
<pdfrwt beam="1">  1        2 0.17616971E+00 0.92076731E+03</pdfrwt>
<pdfrwt beam="2">  1       -2 0.23378059E+00 0.92076731E+03</pdfrwt>
<totfact> 0.16644148E+00</totfact>
</mgrwt>
</event>
<event>
 4    1  0.3057048E-007  0.7064947E+03  0.7818608E-02  0.9971255E-01
         -2   -1    0    0    0  501 -0.00000000000E+00  0.00000000000E+00  0.35320469376E+03  0.35320469377E+03  0.25500000000E-02 0.  1.
          2   -1    0    0  501    0  0.00000000000E+00 -0.00000000000E+00 -0.18474729749E+04  0.18474729749E+04  0.25500000000E-02 0. -1.
    8880023    1    1    2    0    0  0.83669946880E+01  0.25544974082E+03 -0.30756324656E+02  0.70716386676E+03  0.65864270000E+03 0.  0.
    8880022    1    1    2    0    0 -0.83669946880E+01 -0.25544974082E+03 -0.14635119565E+04  0.14935138019E+04  0.15294330000E+03 0.  0.
<mgrwt>
<rscale>  0 0.56928806E+03</rscale>
<asrwt>0</asrwt>
<pdfrwt beam="1">  1        2 0.28422661E+00 0.70649472E+03</pdfrwt>
<pdfrwt beam="2">  1       -2 0.54339185E-01 0.70649472E+03</pdfrwt>
<totfact> 0.26818240E+01</totfact>
</mgrwt>
</event>
<event>
 4    1  0.3057048E-007  0.1100714E+04  0.7818608E-02  0.9260262E-01
         -2   -1    0    0    0  501 -0.00000000000E+00  0.00000000000E+00  0.89923269872E+03  0.89923269872E+03  0.25500000000E-02 0.  1.
          2   -1    0    0  501    0  0.00000000000E+00 -0.00000000000E+00 -0.11459759420E+04  0.11459759420E+04  0.25500000000E-02 0. -1.
    8880023    1    1    2    0    0 -0.81404352345E+03  0.33925428876E+03 -0.32236733629E+03  0.11469486633E+04  0.65864270000E+03 0.  0.
    8880022    1    1    2    0    0  0.81404352345E+03 -0.33925428876E+03  0.75624093040E+02  0.89825997738E+03  0.15294330000E+03 0.  0.
<mgrwt>
<rscale>  0 0.10452499E+04</rscale>
<asrwt>0</asrwt>
<pdfrwt beam="1">  1        2 0.17630399E+00 0.11007136E+04</pdfrwt>
<pdfrwt beam="2">  1       -2 0.13834349E+00 0.11007136E+04</pdfrwt>
<totfact> 0.74308693E+00</totfact>
</mgrwt>
</event>
<event>
 4    1  0.3057048E-007  0.9856167E+03  0.7818608E-02  0.9400622E-01
          2   -1    0    0  501    0  0.00000000000E+00  0.00000000000E+00  0.14724461074E+04  0.14724461074E+04  0.25500000000E-02 0. -1.
         -2   -1    0    0    0  501 -0.00000000000E+00 -0.00000000000E+00 -0.11827957241E+04  0.11827957241E+04  0.25500000000E-02 0.  1.
    8880023    1    1    2    0    0  0.52598439255E+03  0.51085278875E+03 -0.84325487097E+03  0.12971195537E+04  0.65864270000E+03 0.  0.
    8880022    1    1    2    0    0 -0.52598439255E+03 -0.51085278875E+03  0.11329052543E+04  0.13581222777E+04  0.15294330000E+03 0.  0.
<mgrwt>
<rscale>  0 0.92024512E+03</rscale>
<asrwt>0</asrwt>
<pdfrwt beam="1">  1        2 0.22653017E+00 0.98561674E+03</pdfrwt>
<pdfrwt beam="2">  1       -2 0.18196857E+00 0.98561674E+03</pdfrwt>
<totfact> 0.22996967E+00</totfact>
</mgrwt>
</event>
<event>
 4    1  0.3057048E-007  0.6619817E+03  0.7818608E-02  0.1022212E+00
          2   -1    0    0  501    0  0.00000000000E+00  0.00000000000E+00  0.23051723614E+04  0.23051723614E+04  0.25500000000E-02 0. -1.
         -2   -1    0    0    0  501 -0.00000000000E+00 -0.00000000000E+00 -0.14020304849E+03  0.14020304851E+03  0.25500000000E-02 0.  1.
    8880023    1    1    2    0    0 -0.17361630959E+01  0.66381802537E+02  0.67260392915E+03  0.94372443528E+03  0.65864270000E+03 0.  1.
    8880022    1    1    2    0    0  0.17361630959E+01 -0.66381802537E+02  0.14923653837E+04  0.15016509746E+04  0.15294330000E+03 0.  0.
<mgrwt>
<rscale>  0 0.46896718E+03</rscale>
<asrwt>0</asrwt>
<pdfrwt beam="1">  1        2 0.35464187E+00 0.66198169E+03</pdfrwt>
<pdfrwt beam="2">  1       -2 0.21569702E-01 0.66198169E+03</pdfrwt>
<totfact> 0.87873536E+01</totfact>
</mgrwt>
</event>
<event>
 4    1  0.3057048E-007  0.6872731E+03  0.7818608E-02  0.1005477E+00
          2   -1    0    0  501    0  0.00000000000E+00  0.00000000000E+00  0.13194853313E+04  0.13194853313E+04  0.25500000000E-02 0. -1.
         -2   -1    0    0    0  501 -0.00000000000E+00 -0.00000000000E+00 -0.29935804730E+03  0.29935804731E+03  0.25500000000E-02 0.  1.
    8880023    1    1    2    0    0 -0.15624562671E+03  0.11883338368E+03  0.13630881719E+03  0.70065995237E+03  0.65864270000E+03 0.  0.
    8880022    1    1    2    0    0  0.15624562671E+03 -0.11883338368E+03  0.88381846680E+03  0.91818342624E+03  0.15294330000E+03 0.  0.
<mgrwt>
<rscale>  0 0.53312725E+03</rscale>
<asrwt>0</asrwt>
<pdfrwt beam="1">  1        2 0.20299775E+00 0.68727307E+03</pdfrwt>
<pdfrwt beam="2">  1       -2 0.46055083E-01 0.68727307E+03</pdfrwt>
<totfact> 0.73711374E+01</totfact>
</mgrwt>
</event>
<event>
 4    1  0.3057048E-007  0.6602434E+03  0.7818608E-02  0.1023908E+00
         -2   -1    0    0    0  501 -0.00000000000E+00  0.00000000000E+00  0.22460408583E+03  0.22460408585E+03  0.25500000000E-02 0.  1.
          2   -1    0    0  501    0  0.00000000000E+00 -0.00000000000E+00 -0.93807784866E+03  0.93807784866E+03  0.25500000000E-02 0. -1.
    8880023    1    1    2    0    0 -0.35749865675E+02  0.28863481120E+02 -0.31127892974E+03  0.72994241677E+03  0.65864270000E+03 0.  1.
    8880022    1    1    2    0    0  0.35749865675E+02 -0.28863481120E+02 -0.40219483308E+03  0.43273951774E+03  0.15294330000E+03 0.  0.
<mgrwt>
<rscale>  0 0.46302192E+03</rscale>
<asrwt>0</asrwt>
<pdfrwt beam="1">  1        2 0.14431967E+00 0.66024341E+03</pdfrwt>
<pdfrwt beam="2">  1       -2 0.34554475E-01 0.66024341E+03</pdfrwt>
<totfact> 0.22022049E+02</totfact>
</mgrwt>
</event>
<event>
 4    1  0.3057048E-007  0.7038994E+03  0.7818608E-02  0.9981394E-01
          2   -1    0    0  501    0  0.00000000000E+00  0.00000000000E+00  0.22568045034E+04  0.22568045034E+04  0.25500000000E-02 0. -1.
         -2   -1    0    0    0  501 -0.00000000000E+00 -0.00000000000E+00 -0.18388288270E+03  0.18388288272E+03  0.25500000000E-02 0.  1.
    8880023    1    1    2    0    0 -0.23452285838E+03 -0.81628373663E+02  0.55881377802E+03  0.89874757705E+03  0.65864270000E+03 0.  0.
    8880022    1    1    2    0    0  0.23452285838E+03  0.81628373663E+02  0.15141078427E+04  0.15419398090E+04  0.15294330000E+03 0.  0.
<mgrwt>
<rscale>  0 0.56473662E+03</rscale>
<asrwt>0</asrwt>
<pdfrwt beam="1">  1        2 0.34720068E+00 0.70389940E+03</pdfrwt>
<pdfrwt beam="2">  1       -2 0.28289676E-01 0.70389940E+03</pdfrwt>
<totfact> 0.57054151E+01</totfact>
</mgrwt>
</event>
<event>
 4    1  0.3057048E-007  0.7908570E+03  0.7818608E-02  0.9730925E-01
         -2   -1    0    0    0  501 -0.00000000000E+00  0.00000000000E+00  0.50750364448E+03  0.50750364448E+03  0.25500000000E-02 0.  1.
          2   -1    0    0  501    0  0.00000000000E+00 -0.00000000000E+00 -0.20842406087E+04  0.20842406087E+04  0.25500000000E-02 0. -1.
    8880023    1    1    2    0    0  0.62231672999E+02 -0.43332651492E+03  0.14901705715E+03  0.80477384354E+03  0.65864270000E+03 0.  1.
    8880022    1    1    2    0    0 -0.62231672999E+02  0.43332651492E+03 -0.17257540214E+04  0.17869704096E+04  0.15294330000E+03 0.  0.
<mgrwt>
<rscale>  0 0.69204998E+03</rscale>
<asrwt>0</asrwt>
<pdfrwt beam="1">  1        2 0.32065240E+00 0.79085704E+03</pdfrwt>
<pdfrwt beam="2">  1       -2 0.78077485E-01 0.79085704E+03</pdfrwt>
<totfact> 0.90269946E+00</totfact>
</mgrwt>
</event>
<event>
 4    1  0.3057048E-007  0.1482836E+04  0.7818608E-02  0.8921852E-01
          2   -1    0    0  501    0  0.00000000000E+00  0.00000000000E+00  0.45788334207E+04  0.45788334207E+04  0.25500000000E-02 0. -1.
         -2   -1    0    0    0  501 -0.00000000000E+00 -0.00000000000E+00 -0.70144602198E+03  0.70144602199E+03  0.25500000000E-02 0.  1.
    8880023    1    1    2    0    0  0.73861094366E+02 -0.13264749630E+04  0.37246645832E+03  0.15288991980E+04  0.65864270000E+03 0.  0.
    8880022    1    1    2    0    0 -0.73861094366E+02  0.13264749630E+04  0.35049209404E+04  0.37513802447E+04  0.15294330000E+03 0.  0.
<mgrwt>
<rscale>  0 0.14450315E+04</rscale>
<asrwt>0</asrwt>
<pdfrwt beam="1">  1        2 0.70443592E+00 0.14828356E+04</pdfrwt>
<pdfrwt beam="2">  1       -2 0.10791477E+00 0.14828356E+04</pdfrwt>
<totfact> 0.69498657E-02</totfact>
</mgrwt>
</event>
<event>
 4    1  0.3057048E-007  0.9876282E+03  0.7818608E-02  0.9397926E-01
          2   -1    0    0  501    0  0.00000000000E+00  0.00000000000E+00  0.14505420947E+04  0.14505420947E+04  0.25500000000E-02 0. -1.
         -2   -1    0    0    0  501 -0.00000000000E+00 -0.00000000000E+00 -0.77029392282E+03  0.77029392283E+03  0.25500000000E-02 0.  1.
    8880023    1    1    2    0    0  0.31326599218E+03  0.66593067669E+03 -0.25592468079E+03  0.10202484484E+04  0.65864270000E+03 0.  0.
    8880022    1    1    2    0    0 -0.31326599218E+03 -0.66593067669E+03  0.93617285271E+03  0.12005875691E+04  0.15294330000E+03 0.  0.
<mgrwt>
<rscale>  0 0.92246584E+03</rscale>
<asrwt>0</asrwt>
<pdfrwt beam="1">  1        2 0.22316032E+00 0.98762820E+03</pdfrwt>
<pdfrwt beam="2">  1       -2 0.11850676E+00 0.98762820E+03</pdfrwt>
<totfact> 0.73807323E+00</totfact>
</mgrwt>
</event>
<event>
 4    1  0.3057048E-007  0.6905583E+03  0.7818608E-02  0.1003888E+00
         -2   -1    0    0    0  501 -0.00000000000E+00  0.00000000000E+00  0.32144065170E+03  0.32144065171E+03  0.25500000000E-02 0.  1.
          2   -1    0    0  501    0  0.00000000000E+00 -0.00000000000E+00 -0.14618671714E+04  0.14618671714E+04  0.25500000000E-02 0. -1.
    8880023    1    1    2    0    0 -0.20491032094E+03 -0.32746148717E+02 -0.83722439055E+02  0.69561498183E+03  0.65864270000E+03 0.  0.
    8880022    1    1    2    0    0  0.20491032094E+03  0.32746148717E+02 -0.10567040806E+04  0.10876928412E+04  0.15294330000E+03 0. -1.
<mgrwt>
<rscale>  0 0.53977645E+03</rscale>
<asrwt>0</asrwt>
<pdfrwt beam="1">  1        2 0.22490264E+00 0.69055829E+03</pdfrwt>
<pdfrwt beam="2">  1       -2 0.49452409E-01 0.69055829E+03</pdfrwt>
<totfact> 0.53051622E+01</totfact>
</mgrwt>
</event>
<event>
 4    1  0.3057048E-007  0.1152287E+04  0.7818608E-02  0.9204958E-01
          2   -1    0    0  501    0  0.00000000000E+00  0.00000000000E+00  0.68020617175E+03  0.68020617175E+03  0.25500000000E-02 0. -1.
         -2   -1    0    0    0  501 -0.00000000000E+00 -0.00000000000E+00 -0.20714665337E+04  0.20714665337E+04  0.25500000000E-02 0.  1.
    8880023    1    1    2    0    0 -0.59899367950E+03 -0.73154758616E+03 -0.13746864422E+04  0.17937470054E+04  0.65864270000E+03 0.  0.
    8880022    1    1    2    0    0  0.59899367950E+03  0.73154758616E+03 -0.16573919750E+02  0.95792570001E+03  0.15294330000E+03 0.  0.
<mgrwt>
<rscale>  0 0.11002395E+04</rscale>
<asrwt>0</asrwt>
<pdfrwt beam="1">  1        2 0.10464710E+00 0.11522871E+04</pdfrwt>
<pdfrwt beam="2">  1       -2 0.31868716E+00 0.11522871E+04</pdfrwt>
<totfact> 0.10255962E+00</totfact>
</mgrwt>
</event>
<event>
 4    1  0.3595159E-007  0.1436914E+04  0.7818608E-02  0.8955517E-01
          2   -1    0    0  501    0  0.00000000000E+00  0.00000000000E+00  0.28617605131E+04  0.28617605131E+04  0.25500000000E-02 0. -1.
         -2   -1    0    0    0  501 -0.00000000000E+00 -0.00000000000E+00 -0.16032822471E+04  0.16032822471E+04  0.25500000000E-02 0.  1.
    8880023    1    1    2    0    0 -0.64704711708E+03  0.11010190890E+04 -0.10790896422E+04  0.17969857173E+04  0.65864270000E+03 0.  0.
    8880022    1    1    2    0    0  0.64704711708E+03 -0.11010190890E+04  0.23375679081E+04  0.26680570429E+04  0.15294330000E+03 0.  0.
<mgrwt>
<rscale>  0 0.13976555E+04</rscale>
<asrwt>0</asrwt>
<pdfrwt beam="1">  1        2 0.44027084E+00 0.14369145E+04</pdfrwt>
<pdfrwt beam="2">  1       -2 0.24665881E+00 0.14369145E+04</pdfrwt>
<totfact> 0.13542338E-01</totfact>
</mgrwt>
</event>
<event>
 4    1  0.3057048E-007  0.6850264E+03  0.7818608E-02  0.1006612E+00
          2   -1    0    0  501    0  0.00000000000E+00  0.00000000000E+00  0.45889162335E+04  0.45889162335E+04  0.25500000000E-02 0. -1.
         -2   -1    0    0    0  501 -0.00000000000E+00 -0.00000000000E+00 -0.69028246542E+03  0.69028246543E+03  0.25500000000E-02 0.  1.
    8880023    1    1    2    0    0  0.13103446319E+03  0.13520713889E+03 -0.51617651009E+03  0.85772920947E+03  0.65864270000E+03 0.  1.
    8880022    1    1    2    0    0 -0.13103446319E+03 -0.13520713889E+03  0.44148102781E+04  0.44214694894E+04  0.15294330000E+03 0.  0.
<mgrwt>
<rscale>  0 0.52843555E+03</rscale>
<asrwt>0</asrwt>
<pdfrwt beam="1">  1        2 0.70598714E+00 0.68502643E+03</pdfrwt>
<pdfrwt beam="2">  1       -2 0.10619730E+00 0.68502643E+03</pdfrwt>
<totfact> 0.84443958E-02</totfact>
</mgrwt>
</event>
<event>
 4    1  0.3057048E-007  0.7181369E+03  0.7818608E-02  0.9928941E-01
          2   -1    0    0  501    0  0.00000000000E+00  0.00000000000E+00  0.17220840887E+04  0.17220840887E+04  0.25500000000E-02 0. -1.
         -2   -1    0    0    0  501 -0.00000000000E+00 -0.00000000000E+00 -0.15796577534E+03  0.15796577536E+03  0.25500000000E-02 0.  1.
    8880023    1    1    2    0    0  0.24635236698E+03 -0.14567383530E+03  0.10503304756E+04  0.12723657765E+04  0.65864270000E+03 0.  0.
    8880022    1    1    2    0    0 -0.24635236698E+03  0.14567383530E+03  0.51378783782E+03  0.60768408760E+03  0.15294330000E+03 0.  1.
<mgrwt>
<rscale>  0 0.58878942E+03</rscale>
<asrwt>0</asrwt>
<pdfrwt beam="1">  1        2 0.26493601E+00 0.71813687E+03</pdfrwt>
<pdfrwt beam="2">  1       -2 0.24302427E-01 0.71813687E+03</pdfrwt>
<totfact> 0.14704908E+02</totfact>
</mgrwt>
</event>
<event>
 4    1  0.3057048E-007  0.8145989E+03  0.7818608E-02  0.9680076E-01
          2   -1    0    0  501    0  0.00000000000E+00  0.00000000000E+00  0.27721763607E+04  0.27721763607E+04  0.25500000000E-02 0. -1.
         -2   -1    0    0    0  501 -0.00000000000E+00 -0.00000000000E+00 -0.34058370193E+03  0.34058370194E+03  0.25500000000E-02 0.  1.
    8880023    1    1    2    0    0  0.32618081374E+03 -0.35123680875E+03  0.21878014654E+03  0.84346676156E+03  0.65864270000E+03 0.  0.
    8880022    1    1    2    0    0 -0.32618081374E+03  0.35123680875E+03  0.22128125122E+04  0.22692933010E+04  0.15294330000E+03 0.  0.
<mgrwt>
<rscale>  0 0.72215552E+03</rscale>
<asrwt>0</asrwt>
<pdfrwt beam="1">  1        2 0.42648869E+00 0.81459894E+03</pdfrwt>
<pdfrwt beam="2">  1       -2 0.52397491E-01 0.81459894E+03</pdfrwt>
<totfact> 0.86380008E+00</totfact>
</mgrwt>
</event>
<event>
 4    1  0.3057048E-007  0.7347144E+03  0.7818608E-02  0.9875620E-01
         -2   -1    0    0    0  501 -0.00000000000E+00  0.00000000000E+00  0.15794937097E+04  0.15794937097E+04  0.25500000000E-02 0.  1.
          2   -1    0    0  501    0  0.00000000000E+00 -0.00000000000E+00 -0.46584482340E+03  0.46584482340E+03  0.25500000000E-02 0. -1.
    8880023    1    1    2    0    0  0.13594468638E+03  0.29582781128E+03  0.14029768846E+04  0.15837137988E+04  0.65864270000E+03 0.  1.
    8880022    1    1    2    0    0 -0.13594468638E+03 -0.29582781128E+03 -0.28932799828E+03  0.46162473427E+03  0.15294330000E+03 0.  0.
<mgrwt>
<rscale>  0 0.61457533E+03</rscale>
<asrwt>0</asrwt>
<pdfrwt beam="1">  1        2 0.71668434E-01 0.73471441E+03</pdfrwt>
<pdfrwt beam="2">  1       -2 0.24299903E+00 0.73471441E+03</pdfrwt>
<totfact> 0.48832473E+00</totfact>
</mgrwt>
</event>
<event>
 4    1  0.3057048E-007  0.1375660E+04  0.7818608E-02  0.9002830E-01
          2   -1    0    0  501    0  0.00000000000E+00  0.00000000000E+00  0.22581614273E+04  0.22581614273E+04  0.25500000000E-02 0. -1.
         -2   -1    0    0    0  501 -0.00000000000E+00 -0.00000000000E+00 -0.89450289298E+03  0.89450289298E+03  0.25500000000E-02 0.  1.
    8880023    1    1    2    0    0  0.45693811631E+03  0.11179615150E+04  0.71728131888E+02  0.13775287737E+04  0.65864270000E+03 0.  1.
    8880022    1    1    2    0    0 -0.45693811631E+03 -0.11179615150E+04  0.12919304024E+04  0.17751355466E+04  0.15294330000E+03 0.  0.
<mgrwt>
<rscale>  0 0.13342591E+04</rscale>
<asrwt>0</asrwt>
<pdfrwt beam="1">  1        2 0.34740945E+00 0.13756601E+04</pdfrwt>
<pdfrwt beam="2">  1       -2 0.13761583E+00 0.13756601E+04</pdfrwt>
<totfact> 0.17221110E+00</totfact>
</mgrwt>
</event>
<event>
 4    1  0.3057048E-007  0.8357687E+03  0.7818608E-02  0.9638211E-01
         -2   -1    0    0    0  501 -0.00000000000E+00  0.00000000000E+00  0.58769475231E+03  0.58769475231E+03  0.25500000000E-02 0.  1.
          2   -1    0    0  501    0  0.00000000000E+00 -0.00000000000E+00 -0.17778899677E+04  0.17778899678E+04  0.25500000000E-02 0. -1.
    8880023    1    1    2    0    0 -0.51439816518E+03 -0.96770980728E+01  0.21363787937E+03  0.86264156423E+03  0.65864270000E+03 0.  1.
    8880022    1    1    2    0    0  0.51439816518E+03  0.96770980728E+01 -0.14038330948E+04  0.15029431558E+04  0.15294330000E+03 0.  0.
<mgrwt>
<rscale>  0 0.74817940E+03</rscale>
<asrwt>0</asrwt>
<pdfrwt beam="1">  1        2 0.27352153E+00 0.83576870E+03</pdfrwt>
<pdfrwt beam="2">  1       -2 0.90414578E-01 0.83576870E+03</pdfrwt>
<totfact> 0.94506217E+00</totfact>
</mgrwt>
</event>
<event>
 4    1  0.3614744E-007  0.7390694E+03  0.7818608E-02  0.9862666E-01
         -2   -1    0    0    0  501 -0.00000000000E+00  0.00000000000E+00  0.10101606564E+04  0.10101606564E+04  0.25500000000E-02 0.  1.
          2   -1    0    0  501    0  0.00000000000E+00 -0.00000000000E+00 -0.18410781398E+04  0.18410781398E+04  0.25500000000E-02 0. -1.
    8880023    1    1    2    0    0  0.15993580006E+03 -0.29467604259E+03  0.85232283897E+03  0.11281302488E+04  0.65864270000E+03 0.  1.
    8880022    1    1    2    0    0 -0.15993580006E+03  0.29467604259E+03 -0.16832403224E+04  0.17231085474E+04  0.15294330000E+03 0.  0.
<mgrwt>
<rscale>  0 0.62105268E+03</rscale>
<asrwt>0</asrwt>
<pdfrwt beam="1">  1        2 0.28324279E+00 0.73906944E+03</pdfrwt>
<pdfrwt beam="2">  1       -2 0.15540933E+00 0.73906944E+03</pdfrwt>
<totfact> 0.23131169E+00</totfact>
</mgrwt>
</event>
<event>
 4    1  0.3057048E-007  0.8829799E+03  0.7818608E-02  0.9553926E-01
         -2   -1    0    0    0  501 -0.00000000000E+00  0.00000000000E+00  0.73041377145E+03  0.73041377145E+03  0.25500000000E-02 0.  1.
          2   -1    0    0  501    0  0.00000000000E+00 -0.00000000000E+00 -0.21938317866E+04  0.21938317866E+04  0.25500000000E-02 0. -1.
    8880023    1    1    2    0    0 -0.56817124605E+03  0.15173892458E+03  0.39625321833E+03  0.96781717559E+03  0.65864270000E+03 0.  0.
    8880022    1    1    2    0    0  0.56817124605E+03 -0.15173892458E+03 -0.18596712335E+04  0.19564283825E+04  0.15294330000E+03 0.  0.
<mgrwt>
<rscale>  0 0.80422201E+03</rscale>
<asrwt>0</asrwt>
<pdfrwt beam="1">  1        2 0.33751258E+00 0.88297988E+03</pdfrwt>
<pdfrwt beam="2">  1       -2 0.11237135E+00 0.88297988E+03</pdfrwt>
<totfact> 0.33089730E+00</totfact>
</mgrwt>
</event>
<event>
 4    1  0.3057048E-007  0.6607864E+03  0.7818608E-02  0.1023365E+00
         -2   -1    0    0    0  501 -0.00000000000E+00  0.00000000000E+00  0.22142477750E+03  0.22142477751E+03  0.25500000000E-02 0.  1.
          2   -1    0    0  501    0  0.00000000000E+00 -0.00000000000E+00 -0.11704581347E+04  0.11704581347E+04  0.25500000000E-02 0. -1.
    8880023    1    1    2    0    0 -0.39567130272E+02  0.35538158891E+02 -0.30495414346E+03  0.72776078103E+03  0.65864270000E+03 0.  1.
    8880022    1    1    2    0    0  0.39567130272E+02 -0.35538158891E+02 -0.64407921373E+03  0.66412213117E+03  0.15294330000E+03 0.  0.
<mgrwt>
<rscale>  0 0.46491685E+03</rscale>
<asrwt>0</asrwt>
<pdfrwt beam="1">  1        2 0.18007048E+00 0.66078644E+03</pdfrwt>
<pdfrwt beam="2">  1       -2 0.34065351E-01 0.66078644E+03</pdfrwt>
<totfact> 0.16219936E+02</totfact>
</mgrwt>
</event>
<event>
 4    1  0.3057048E-007  0.1233323E+04  0.7818608E-02  0.9125391E-01
         -2   -1    0    0    0  501 -0.00000000000E+00  0.00000000000E+00  0.47099742449E+03  0.47099742449E+03  0.25500000000E-02 0.  1.
          2   -1    0    0  501    0  0.00000000000E+00 -0.00000000000E+00 -0.30213905409E+04  0.30213905409E+04  0.25500000000E-02 0. -1.
    8880023    1    1    2    0    0 -0.61442452165E+03 -0.84247175973E+03 -0.87163311745E+03  0.15102419198E+04  0.65864270000E+03 0.  0.
    8880022    1    1    2    0    0  0.61442452165E+03  0.84247175973E+03 -0.16787599990E+04  0.19821460456E+04  0.15294330000E+03 0.  0.
<mgrwt>
<rscale>  0 0.11857844E+04</rscale>
<asrwt>0</asrwt>
<pdfrwt beam="1">  1        2 0.46482930E+00 0.12333233E+04</pdfrwt>
<pdfrwt beam="2">  1       -2 0.72461144E-01 0.12333233E+04</pdfrwt>
<totfact> 0.28825539E+00</totfact>
</mgrwt>
</event>
<event>
 4    1  0.3057048E-007  0.1001754E+04  0.7818608E-02  0.9379267E-01
         -2   -1    0    0    0  501 -0.00000000000E+00  0.00000000000E+00  0.60826318760E+03  0.60826318761E+03  0.25500000000E-02 0.  1.
          2   -1    0    0  501    0  0.00000000000E+00 -0.00000000000E+00 -0.13722750739E+04  0.13722750739E+04  0.25500000000E-02 0. -1.
    8880023    1    1    2    0    0  0.75451127609E+03 -0.20329105844E+02 -0.66893140058E+03  0.12045662967E+04  0.65864270000E+03 0. -1.
    8880022    1    1    2    0    0 -0.75451127609E+03  0.20329105844E+02 -0.95080485689E+02  0.77597196474E+03  0.15294330000E+03 0.  1.
<mgrwt>
<rscale>  0 0.93801771E+03</rscale>
<asrwt>0</asrwt>
<pdfrwt beam="1">  1        2 0.21111924E+00 0.10017538E+04</pdfrwt>
<pdfrwt beam="2">  1       -2 0.93578952E-01 0.10017538E+04</pdfrwt>
<totfact> 0.14420568E+01</totfact>
</mgrwt>
</event>
<event>
 4    1  0.3057048E-007  0.7854362E+03  0.7818608E-02  0.9743219E-01
         -2   -1    0    0    0  501 -0.00000000000E+00  0.00000000000E+00  0.11374100864E+04  0.11374100864E+04  0.25500000000E-02 0.  1.
          2   -1    0    0  501    0  0.00000000000E+00 -0.00000000000E+00 -0.45567105923E+03  0.45567105924E+03  0.25500000000E-02 0. -1.
    8880023    1    1    2    0    0 -0.36809741279E+03 -0.21818380106E+03  0.14212935573E+02  0.78556482237E+03  0.65864270000E+03 0.  0.
    8880022    1    1    2    0    0  0.36809741279E+03  0.21818380106E+03  0.66752609155E+03  0.80751632322E+03  0.15294330000E+03 0.  0.
<mgrwt>
<rscale>  0 0.68500853E+03</rscale>
<asrwt>0</asrwt>
<pdfrwt beam="1">  1        2 0.70103241E-01 0.78543624E+03</pdfrwt>
<pdfrwt beam="2">  1       -2 0.17498616E+00 0.78543624E+03</pdfrwt>
<totfact> 0.13638565E+01</totfact>
</mgrwt>
</event>
<event>
 4    1  0.3057048E-007  0.6976114E+03  0.7818608E-02  0.1000726E+00
          2   -1    0    0  501    0  0.00000000000E+00  0.00000000000E+00  0.41918785728E+03  0.41918785728E+03  0.25500000000E-02 0. -1.
         -2   -1    0    0    0  501 -0.00000000000E+00 -0.00000000000E+00 -0.66408885671E+03  0.66408885671E+03  0.25500000000E-02 0.  1.
    8880023    1    1    2    0    0  0.21968734653E+03  0.67741261509E+02 -0.35893399983E+03  0.78453504143E+03  0.65864270000E+03 0.  1.
    8880022    1    1    2    0    0 -0.21968734653E+03 -0.67741261509E+02  0.11403300040E+03  0.29874167257E+03  0.15294330000E+03 0. -1.
<mgrwt>
<rscale>  0 0.55333125E+03</rscale>
<asrwt>0</asrwt>
<pdfrwt beam="1">  1        2 0.64490439E-01 0.69761136E+03</pdfrwt>
<pdfrwt beam="2">  1       -2 0.10216752E+00 0.69761136E+03</pdfrwt>
<totfact> 0.60036785E+01</totfact>
</mgrwt>
</event>
<event>
 4    1  0.3057048E-007  0.7840342E+03  0.7818608E-02  0.9746445E-01
          2   -1    0    0  501    0  0.00000000000E+00  0.00000000000E+00  0.11882494035E+04  0.11882494035E+04  0.25500000000E-02 0. -1.
         -2   -1    0    0    0  501 -0.00000000000E+00 -0.00000000000E+00 -0.34729753923E+03  0.34729753924E+03  0.25500000000E-02 0.  1.
    8880023    1    1    2    0    0  0.38781583084E+02 -0.42355087211E+03  0.32259290873E+03  0.84780643043E+03  0.65864270000E+03 0.  0.
    8880022    1    1    2    0    0 -0.38781583084E+02  0.42355087211E+03  0.51835895552E+03  0.68774051228E+03  0.15294330000E+03 0.  1.
<mgrwt>
<rscale>  0 0.68317567E+03</rscale>
<asrwt>0</asrwt>
<pdfrwt beam="1">  1        2 0.18280760E+00 0.78403416E+03</pdfrwt>
<pdfrwt beam="2">  1       -2 0.53430392E-01 0.78403416E+03</pdfrwt>
<totfact> 0.64435183E+01</totfact>
</mgrwt>
</event>
<event>
 4    1  0.3057048E-007  0.1066557E+04  0.7818608E-02  0.9299238E-01
         -2   -1    0    0    0  501 -0.00000000000E+00  0.00000000000E+00  0.13969843833E+04  0.13969843833E+04  0.25500000000E-02 0.  1.
          2   -1    0    0  501    0  0.00000000000E+00 -0.00000000000E+00 -0.15767546912E+04  0.15767546912E+04  0.25500000000E-02 0. -1.
    8880023    1    1    2    0    0 -0.10945483869E+03 -0.83171664486E+03  0.10372211273E+04  0.14877401696E+04  0.65864270000E+03 0.  1.
    8880022    1    1    2    0    0  0.10945483869E+03  0.83171664486E+03 -0.12169914352E+04  0.14859989050E+04  0.15294330000E+03 0.  0.
<mgrwt>
<rscale>  0 0.10085306E+04</rscale>
<asrwt>0</asrwt>
<pdfrwt beam="1">  1        2 0.24257765E+00 0.10665567E+04</pdfrwt>
<pdfrwt beam="2">  1       -2 0.21492067E+00 0.10665567E+04</pdfrwt>
<totfact> 0.12067091E+00</totfact>
</mgrwt>
</event>
<event>
 4    1  0.3057048E-007  0.7790537E+03  0.7818608E-02  0.9758064E-01
          2   -1    0    0  501    0  0.00000000000E+00  0.00000000000E+00  0.17413425484E+04  0.17413425484E+04  0.25500000000E-02 0. -1.
         -2   -1    0    0    0  501 -0.00000000000E+00 -0.00000000000E+00 -0.28542789311E+03  0.28542789312E+03  0.25500000000E-02 0.  1.
    8880023    1    1    2    0    0  0.13745952674E+01 -0.41606806327E+03  0.38762546199E+03  0.87015988636E+03  0.65864270000E+03 0.  1.
    8880022    1    1    2    0    0 -0.13745952674E+01  0.41606806327E+03  0.10682891933E+04  0.11566105552E+04  0.15294330000E+03 0.  0.
<mgrwt>
<rscale>  0 0.67662430E+03</rscale>
<asrwt>0</asrwt>
<pdfrwt beam="1">  1        2 0.26789885E+00 0.77905374E+03</pdfrwt>
<pdfrwt beam="2">  1       -2 0.43911985E-01 0.77905374E+03</pdfrwt>
<totfact> 0.46768634E+01</totfact>
</mgrwt>
</event>
<event>
 4    1  0.3057048E-007  0.7313515E+03  0.7818608E-02  0.9885896E-01
          2   -1    0    0  501    0  0.00000000000E+00  0.00000000000E+00  0.15195331993E+04  0.15195331993E+04  0.25500000000E-02 0. -1.
         -2   -1    0    0    0  501 -0.00000000000E+00 -0.00000000000E+00 -0.35385738923E+03  0.35385738924E+03  0.25500000000E-02 0.  1.
    8880023    1    1    2    0    0 -0.18393933778E+02 -0.31737424969E+03  0.84622755588E+02  0.73623092043E+03  0.65864270000E+03 0.  0.
    8880022    1    1    2    0    0  0.18393933778E+02  0.31737424969E+03  0.10810530545E+04  0.11371596681E+04  0.15294330000E+03 0.  0.
<mgrwt>
<rscale>  0 0.60949726E+03</rscale>
<asrwt>0</asrwt>
<pdfrwt beam="1">  1        2 0.23377434E+00 0.73135146E+03</pdfrwt>
<pdfrwt beam="2">  1       -2 0.54439597E-01 0.73135146E+03</pdfrwt>
<totfact> 0.40281686E+01</totfact>
</mgrwt>
</event>
<event>
 4    1  0.3057048E-007  0.7896346E+03  0.7818608E-02  0.9733673E-01
         -2   -1    0    0    0  501 -0.00000000000E+00  0.00000000000E+00  0.33448959678E+03  0.33448959679E+03  0.25500000000E-02 0.  1.
          2   -1    0    0  501    0  0.00000000000E+00 -0.00000000000E+00 -0.17210043342E+04  0.17210043342E+04  0.25500000000E-02 0. -1.
    8880023    1    1    2    0    0  0.12723347135E+03  0.41656243620E+03 -0.24913895548E+03  0.82800546187E+03  0.65864270000E+03 0.  1.
    8880022    1    1    2    0    0 -0.12723347135E+03 -0.41656243620E+03 -0.11373757820E+04  0.12274884691E+04  0.15294330000E+03 0.  0.
<mgrwt>
<rscale>  0 0.69046816E+03</rscale>
<asrwt>0</asrwt>
<pdfrwt beam="1">  1        2 0.26476989E+00 0.78963462E+03</pdfrwt>
<pdfrwt beam="2">  1       -2 0.51459939E-01 0.78963462E+03</pdfrwt>
<totfact> 0.34805168E+01</totfact>
</mgrwt>
</event>
<event>
 4    1  0.3057048E-007  0.7940928E+03  0.7818608E-02  0.9723717E-01
         -2   -1    0    0    0  501 -0.00000000000E+00  0.00000000000E+00  0.32028274124E+03  0.32028274125E+03  0.25500000000E-02 0.  1.
          2   -1    0    0  501    0  0.00000000000E+00 -0.00000000000E+00 -0.14860481952E+04  0.14860481952E+04  0.25500000000E-02 0. -1.
    8880023    1    1    2    0    0  0.71410759372E+00 -0.44359055769E+03 -0.35555567784E+03  0.87005927334E+03  0.65864270000E+03 0.  1.
    8880022    1    1    2    0    0 -0.71410759372E+00  0.44359055769E+03 -0.81020977615E+03  0.93627166315E+03  0.15294330000E+03 0. -1.
<mgrwt>
<rscale>  0 0.69622064E+03</rscale>
<asrwt>0</asrwt>
<pdfrwt beam="1">  1        2 0.22862280E+00 0.79409275E+03</pdfrwt>
<pdfrwt beam="2">  1       -2 0.49274269E-01 0.79409275E+03</pdfrwt>
<totfact> 0.51249993E+01</totfact>
</mgrwt>
</event>
<event>
 4    1  0.3057048E-007  0.7996216E+03  0.7818608E-02  0.9711615E-01
          2   -1    0    0  501    0  0.00000000000E+00  0.00000000000E+00  0.26066640599E+04  0.26066640599E+04  0.25500000000E-02 0. -1.
         -2   -1    0    0    0  501 -0.00000000000E+00 -0.00000000000E+00 -0.40829365682E+03  0.40829365683E+03  0.25500000000E-02 0.  1.
    8880023    1    1    2    0    0 -0.21951399602E+03 -0.39673425341E+03  0.36168667722E+02  0.80043915513E+03  0.65864270000E+03 0.  0.
    8880022    1    1    2    0    0  0.21951399602E+03  0.39673425341E+03  0.21622017353E+04  0.22145185616E+04  0.15294330000E+03 0. -1.
<mgrwt>
<rscale>  0 0.70329439E+03</rscale>
<asrwt>0</asrwt>
<pdfrwt beam="1">  1        2 0.40102524E+00 0.79962158E+03</pdfrwt>
<pdfrwt beam="2">  1       -2 0.62814409E-01 0.79962158E+03</pdfrwt>
<totfact> 0.73944070E+00</totfact>
</mgrwt>
</event>
<event>
 4    1  0.3057048E-007  0.9464950E+03  0.7818608E-02  0.9455175E-01
          2   -1    0    0  501    0  0.00000000000E+00  0.00000000000E+00  0.14205591023E+04  0.14205591023E+04  0.25500000000E-02 0. -1.
         -2   -1    0    0    0  501 -0.00000000000E+00 -0.00000000000E+00 -0.94220113862E+03  0.94220113862E+03  0.25500000000E-02 0.  1.
    8880023    1    1    2    0    0 -0.67919365275E+03  0.27177503807E+02 -0.56934638912E+03  0.11045397918E+04  0.65864270000E+03 0.  1.
    8880022    1    1    2    0    0  0.67919365275E+03 -0.27177503807E+02  0.10477043528E+04  0.12582204491E+04  0.15294330000E+03 0.  0.
<mgrwt>
<rscale>  0 0.87670818E+03</rscale>
<asrwt>0</asrwt>
<pdfrwt beam="1">  1        2 0.21854755E+00 0.94649503E+03</pdfrwt>
<pdfrwt beam="2">  1       -2 0.14495402E+00 0.94649503E+03</pdfrwt>
<totfact> 0.46116864E+00</totfact>
</mgrwt>
</event>
<event>
 4    1  0.3057048E-007  0.7513143E+03  0.7818608E-02  0.9828136E-01
         -2   -1    0    0    0  501 -0.00000000000E+00  0.00000000000E+00  0.53360024323E+03  0.53360024324E+03  0.25500000000E-02 0.  1.
          2   -1    0    0  501    0  0.00000000000E+00 -0.00000000000E+00 -0.16462062730E+04  0.16462062730E+04  0.25500000000E-02 0. -1.
    8880023    1    1    2    0    0  0.52637394085E+02 -0.35762022969E+03  0.22622000153E+03  0.78463279264E+03  0.65864270000E+03 0.  1.
    8880022    1    1    2    0    0 -0.52637394085E+02  0.35762022969E+03 -0.13388260312E+04  0.13951737236E+04  0.15294330000E+03 0.  0.
<mgrwt>
<rscale>  0 0.63874212E+03</rscale>
<asrwt>0</asrwt>
<pdfrwt beam="1">  1        2 0.25326250E+00 0.75131427E+03</pdfrwt>
<pdfrwt beam="2">  1       -2 0.82092346E-01 0.75131427E+03</pdfrwt>
<totfact> 0.14072424E+01</totfact>
</mgrwt>
</event>
<event>
 4    1  0.3057048E-007  0.6745369E+03  0.7818608E-02  0.1012600E+00
         -2   -1    0    0    0  501 -0.00000000000E+00  0.00000000000E+00  0.12843656109E+03  0.12843656112E+03  0.25500000000E-02 0.  1.
          2   -1    0    0  501    0  0.00000000000E+00 -0.00000000000E+00 -0.22098290506E+04  0.22098290506E+04  0.25500000000E-02 0. -1.
    8880023    1    1    2    0    0 -0.13123669166E+03  0.62982425461E+02 -0.83165606230E+03  0.10708183167E+04  0.65864270000E+03 0.  0.
    8880022    1    1    2    0    0  0.13123669166E+03 -0.62982425461E+02 -0.12497364272E+04  0.12674472950E+04  0.15294330000E+03 0.  0.
<mgrwt>
<rscale>  0 0.50454353E+03</rscale>
<asrwt>0</asrwt>
<pdfrwt beam="1">  1        2 0.33997367E+00 0.67453692E+03</pdfrwt>
<pdfrwt beam="2">  1       -2 0.19759473E-01 0.67453692E+03</pdfrwt>
<totfact> 0.11548746E+02</totfact>
</mgrwt>
</event>
<event>
 4    1  0.3057048E-007  0.7069366E+03  0.7818608E-02  0.9969557E-01
          2   -1    0    0  501    0  0.00000000000E+00  0.00000000000E+00  0.10820908892E+04  0.10820908892E+04  0.25500000000E-02 0. -1.
         -2   -1    0    0    0  501 -0.00000000000E+00 -0.00000000000E+00 -0.30674234106E+03  0.30674234107E+03  0.25500000000E-02 0.  1.
    8880023    1    1    2    0    0  0.24479198525E+03 -0.77627721208E+02  0.19069475474E+03  0.73220480392E+03  0.65864270000E+03 0.  1.
    8880022    1    1    2    0    0 -0.24479198525E+03  0.77627721208E+02  0.58465379343E+03  0.65662842637E+03  0.15294330000E+03 0.  0.
<mgrwt>
<rscale>  0 0.57005480E+03</rscale>
<asrwt>0</asrwt>
<pdfrwt beam="1">  1        2 0.16647552E+00 0.70693662E+03</pdfrwt>
<pdfrwt beam="2">  1       -2 0.47191129E-01 0.70693662E+03</pdfrwt>
<totfact> 0.96812763E+01</totfact>
</mgrwt>
</event>
<event>
 4    1  0.3057048E-007  0.7392866E+03  0.7818608E-02  0.9862030E-01
         -2   -1    0    0    0  501 -0.00000000000E+00  0.00000000000E+00  0.65150524254E+03  0.65150524255E+03  0.25500000000E-02 0.  1.
          2   -1    0    0  501    0  0.00000000000E+00 -0.00000000000E+00 -0.13667180752E+04  0.13667180752E+04  0.25500000000E-02 0. -1.
    8880023    1    1    2    0    0  0.15196414959E+03  0.29940170103E+03  0.40210424643E+03  0.84156551296E+03  0.65864270000E+03 0.  1.
    8880022    1    1    2    0    0 -0.15196414959E+03 -0.29940170103E+03 -0.11173170791E+04  0.11766578048E+04  0.15294330000E+03 0.  0.
<mgrwt>
<rscale>  0 0.62137291E+03</rscale>
<asrwt>0</asrwt>
<pdfrwt beam="1">  1        2 0.21026432E+00 0.73928661E+03</pdfrwt>
<pdfrwt beam="2">  1       -2 0.10023158E+00 0.73928661E+03</pdfrwt>
<totfact> 0.12714566E+01</totfact>
</mgrwt>
</event>
<event>
 4    1  0.3057048E-007  0.1044992E+04  0.7818608E-02  0.9324926E-01
          2   -1    0    0  501    0  0.00000000000E+00  0.00000000000E+00  0.24054300733E+04  0.24054300734E+04  0.25500000000E-02 0. -1.
         -2   -1    0    0    0  501 -0.00000000000E+00 -0.00000000000E+00 -0.41214732520E+03  0.41214732521E+03  0.25500000000E-02 0.  1.
    8880023    1    1    2    0    0  0.45500332723E+03 -0.67169195433E+03  0.61953482411E+03  0.12148381431E+04  0.65864270000E+03 0.  0.
    8880022    1    1    2    0    0 -0.45500332723E+03  0.67169195433E+03  0.13737479240E+04  0.16027392555E+04  0.15294330000E+03 0.  0.
<mgrwt>
<rscale>  0 0.98520161E+03</rscale>
<asrwt>0</asrwt>
<pdfrwt beam="1">  1        2 0.37006616E+00 0.10449920E+04</pdfrwt>
<pdfrwt beam="2">  1       -2 0.63407282E-01 0.10449920E+04</pdfrwt>
<totfact> 0.91280459E+00</totfact>
</mgrwt>
</event>
<event>
 4    1  0.3057048E-007  0.9279881E+03  0.7818608E-02  0.9482518E-01
          2   -1    0    0  501    0  0.00000000000E+00  0.00000000000E+00  0.17455677549E+04  0.17455677549E+04  0.25500000000E-02 0. -1.
         -2   -1    0    0    0  501 -0.00000000000E+00 -0.00000000000E+00 -0.63416575047E+03  0.63416575048E+03  0.25500000000E-02 0.  1.
    8880023    1    1    2    0    0 -0.16347867679E+03  0.63295056905E+03 -0.16026068510E+03  0.94172469123E+03  0.65864270000E+03 0.  0.
    8880022    1    1    2    0    0  0.16347867679E+03 -0.63295056905E+03  0.12716626895E+04  0.14380088141E+04  0.15294330000E+03 0.  0.
<mgrwt>
<rscale>  0 0.85585062E+03</rscale>
<asrwt>0</asrwt>
<pdfrwt beam="1">  1        2 0.26854889E+00 0.92798810E+03</pdfrwt>
<pdfrwt beam="2">  1       -2 0.97563962E-01 0.92798810E+03</pdfrwt>
<totfact> 0.81475977E+00</totfact>
</mgrwt>
</event>
<event>
 4    1  0.3057048E-007  0.9801293E+03  0.7818608E-02  0.9408029E-01
          2   -1    0    0  501    0  0.00000000000E+00  0.00000000000E+00  0.14098757089E+04  0.14098757089E+04  0.25500000000E-02 0. -1.
         -2   -1    0    0    0  501 -0.00000000000E+00 -0.00000000000E+00 -0.70826219326E+03  0.70826219326E+03  0.25500000000E-02 0.  1.
    8880023    1    1    2    0    0 -0.67673523330E+03  0.26243595061E+03 -0.14692802068E+03  0.99108085123E+03  0.65864270000E+03 0.  0.
    8880022    1    1    2    0    0  0.67673523330E+03 -0.26243595061E+03  0.84854153629E+03  0.11270570509E+04  0.15294330000E+03 0.  0.
<mgrwt>
<rscale>  0 0.91417857E+03</rscale>
<asrwt>0</asrwt>
<pdfrwt beam="1">  1        2 0.21690395E+00 0.98012928E+03</pdfrwt>
<pdfrwt beam="2">  1       -2 0.10896342E+00 0.98012928E+03</pdfrwt>
<totfact> 0.95660863E+00</totfact>
</mgrwt>
</event>
<event>
 4    1  0.3057048E-007  0.8376789E+03  0.7818608E-02  0.9634572E-01
         -2   -1    0    0    0  501 -0.00000000000E+00  0.00000000000E+00  0.85321096392E+03  0.85321096392E+03  0.25500000000E-02 0.  1.
          2   -1    0    0  501    0  0.00000000000E+00 -0.00000000000E+00 -0.98733944611E+03  0.98733944611E+03  0.25500000000E-02 0. -1.
    8880023    1    1    2    0    0 -0.45261728445E+03 -0.25106446952E+03  0.52503636199E+03  0.98861982668E+03  0.65864270000E+03 0.  1.
    8880022    1    1    2    0    0  0.45261728445E+03  0.25106446952E+03 -0.65916484418E+03  0.85193058335E+03  0.15294330000E+03 0.  0.
<mgrwt>
<rscale>  0 0.75049605E+03</rscale>
<asrwt>0</asrwt>
<pdfrwt beam="1">  1        2 0.15189838E+00 0.83767892E+03</pdfrwt>
<pdfrwt beam="2">  1       -2 0.13126323E+00 0.83767892E+03</pdfrwt>
<totfact> 0.10957692E+01</totfact>
</mgrwt>
</event>
<event>
 4    1  0.3057048E-007  0.1122962E+04  0.7818608E-02  0.9235912E-01
          2   -1    0    0  501    0  0.00000000000E+00  0.00000000000E+00  0.18364597252E+04  0.18364597252E+04  0.25500000000E-02 0. -1.
         -2   -1    0    0    0  501 -0.00000000000E+00 -0.00000000000E+00 -0.66806324879E+03  0.66806324880E+03  0.25500000000E-02 0.  1.
    8880023    1    1    2    0    0 -0.71607420189E+03 -0.56077656771E+03  0.15390568727E+03  0.11334592134E+04  0.65864270000E+03 0.  0.
    8880022    1    1    2    0    0  0.71607420189E+03  0.56077656771E+03  0.10144907891E+04  0.13710637606E+04  0.15294330000E+03 0.  0.
<mgrwt>
<rscale>  0 0.10690325E+04</rscale>
<asrwt>0</asrwt>
<pdfrwt beam="1">  1        2 0.28253227E+00 0.11229616E+04</pdfrwt>
<pdfrwt beam="2">  1       -2 0.10277896E+00 0.11229616E+04</pdfrwt>
<totfact> 0.62779302E+00</totfact>
</mgrwt>
</event>
<event>
 4    1  0.3057048E-007  0.7662838E+03  0.7818608E-02  0.9789103E-01
         -2   -1    0    0    0  501 -0.00000000000E+00  0.00000000000E+00  0.24852843323E+04  0.24852843323E+04  0.25500000000E-02 0.  1.
          2   -1    0    0  501    0  0.00000000000E+00 -0.00000000000E+00 -0.26050979624E+03  0.26050979625E+03  0.25500000000E-02 0. -1.
    8880023    1    1    2    0    0  0.66015598353E+02 -0.38603439571E+03  0.21942966480E+04  0.23242479643E+04  0.65864270000E+03 0.  1.
    8880022    1    1    2    0    0 -0.66015598353E+02  0.38603439571E+03  0.30477888046E+02  0.42154616423E+03  0.15294330000E+03 0.  0.
<mgrwt>
<rscale>  0 0.65950636E+03</rscale>
<asrwt>0</asrwt>
<pdfrwt beam="1">  1        2 0.40078430E-01 0.76628377E+03</pdfrwt>
<pdfrwt beam="2">  1       -2 0.38235144E+00 0.76628377E+03</pdfrwt>
<totfact> 0.13116293E+00</totfact>
</mgrwt>
</event>
<event>
 4    1  0.3057048E-007  0.7822078E+03  0.7818608E-02  0.9750676E-01
          2   -1    0    0  501    0  0.00000000000E+00  0.00000000000E+00  0.18422530433E+04  0.18422530433E+04  0.25500000000E-02 0. -1.
         -2   -1    0    0    0  501 -0.00000000000E+00 -0.00000000000E+00 -0.40657481434E+03  0.40657481435E+03  0.25500000000E-02 0.  1.
    8880023    1    1    2    0    0 -0.16628222956E+02  0.42161876263E+03  0.40519244120E+02  0.78325659538E+03  0.65864270000E+03 0.  1.
    8880022    1    1    2    0    0  0.16628222956E+02 -0.42161876263E+03  0.13951589849E+04  0.14655712623E+04  0.15294330000E+03 0.  0.
<mgrwt>
<rscale>  0 0.68078077E+03</rscale>
<asrwt>0</asrwt>
<pdfrwt beam="1">  1        2 0.28342354E+00 0.78220783E+03</pdfrwt>
<pdfrwt beam="2">  1       -2 0.62549972E-01 0.78220783E+03</pdfrwt>
<totfact> 0.19890177E+01</totfact>
</mgrwt>
</event>
<event>
 4    1  0.3057048E-007  0.1660684E+04  0.7818608E-02  0.8803787E-01
         -2   -1    0    0    0  501 -0.00000000000E+00  0.00000000000E+00  0.16467034946E+04  0.16467034946E+04  0.25500000000E-02 0.  1.
          2   -1    0    0  501    0  0.00000000000E+00 -0.00000000000E+00 -0.20783434965E+04  0.20783434965E+04  0.25500000000E-02 0. -1.
    8880023    1    1    2    0    0  0.72456696885E+02  0.15227642148E+04 -0.11628799567E+04  0.20273531579E+04  0.65864270000E+03 0.  0.
    8880022    1    1    2    0    0 -0.72456696885E+02 -0.15227642148E+04  0.73123995481E+03  0.16976938332E+04  0.15294330000E+03 0.  0.
<mgrwt>
<rscale>  0 0.16275706E+04</rscale>
<asrwt>0</asrwt>
<pdfrwt beam="1">  1        2 0.31974515E+00 0.16606839E+04</pdfrwt>
<pdfrwt beam="2">  1       -2 0.25333900E+00 0.16606839E+04</pdfrwt>
<totfact> 0.34127360E-01</totfact>
</mgrwt>
</event>
<event>
 4    1  0.3057048E-007  0.8717924E+03  0.7818608E-02  0.9572922E-01
         -2   -1    0    0    0  501 -0.00000000000E+00  0.00000000000E+00  0.11168488702E+04  0.11168488702E+04  0.25500000000E-02 0.  1.
          2   -1    0    0  501    0  0.00000000000E+00 -0.00000000000E+00 -0.89984124939E+03  0.89984124939E+03  0.25500000000E-02 0. -1.
    8880023    1    1    2    0    0 -0.55797878724E+02 -0.56841745068E+03  0.80225701824E+03  0.11847524345E+04  0.65864270000E+03 0.  0.
    8880022    1    1    2    0    0  0.55797878724E+02  0.56841745068E+03 -0.58524939748E+03  0.83193768503E+03  0.15294330000E+03 0.  0.
<mgrwt>
<rscale>  0 0.79114626E+03</rscale>
<asrwt>0</asrwt>
<pdfrwt beam="1">  1        2 0.13843711E+00 0.87179241E+03</pdfrwt>
<pdfrwt beam="2">  1       -2 0.17182290E+00 0.87179241E+03</pdfrwt>
<totfact> 0.60949392E+00</totfact>
</mgrwt>
</event>
<event>
 4    1  0.3057048E-007  0.6749486E+03  0.7818608E-02  0.1012339E+00
          2   -1    0    0  501    0  0.00000000000E+00  0.00000000000E+00  0.62064264904E+03  0.62064264904E+03  0.25500000000E-02 0. -1.
         -2   -1    0    0    0  501 -0.00000000000E+00 -0.00000000000E+00 -0.33926672753E+03  0.33926672754E+03  0.25500000000E-02 0.  1.
    8880023    1    1    2    0    0  0.13235137397E+03  0.65026686035E+02  0.10353068096E+03  0.68284270828E+03  0.65864270000E+03 0.  1.
    8880022    1    1    2    0    0 -0.13235137397E+03 -0.65026686035E+02  0.17784524054E+03  0.27706666830E+03  0.15294330000E+03 0.  0.
<mgrwt>
<rscale>  0 0.50555639E+03</rscale>
<asrwt>0</asrwt>
<pdfrwt beam="1">  1        2 0.95483484E-01 0.67494856E+03</pdfrwt>
<pdfrwt beam="2">  1       -2 0.52194881E-01 0.67494856E+03</pdfrwt>
<totfact> 0.16722698E+02</totfact>
</mgrwt>
</event>
<event>
 4    1  0.3057048E-007  0.7194989E+03  0.7818608E-02  0.9924285E-01
         -2   -1    0    0    0  501 -0.00000000000E+00  0.00000000000E+00  0.42426594983E+03  0.42426594984E+03  0.25500000000E-02 0.  1.
          2   -1    0    0  501    0  0.00000000000E+00 -0.00000000000E+00 -0.66850471702E+03  0.66850471702E+03  0.25500000000E-02 0. -1.
    8880023    1    1    2    0    0 -0.14274927404E+03 -0.25197453263E+03 -0.25961387682E+03  0.76490397544E+03  0.65864270000E+03 0. -1.
    8880022    1    1    2    0    0  0.14274927404E+03  0.25197453263E+03  0.15375109640E+02  0.32786669143E+03  0.15294330000E+03 0.  1.
<mgrwt>
<rscale>  0 0.59098632E+03</rscale>
<asrwt>0</asrwt>
<pdfrwt beam="1">  1        2 0.10284688E+00 0.71949894E+03</pdfrwt>
<pdfrwt beam="2">  1       -2 0.65271685E-01 0.71949894E+03</pdfrwt>
<totfact> 0.95234592E+01</totfact>
</mgrwt>
</event>
<event>
 4    1  0.3057048E-007  0.9889786E+03  0.7818608E-02  0.9396121E-01
          2   -1    0    0  501    0  0.00000000000E+00  0.00000000000E+00  0.14995080035E+04  0.14995080035E+04  0.25500000000E-02 0. -1.
         -2   -1    0    0    0  501 -0.00000000000E+00 -0.00000000000E+00 -0.81669129988E+03  0.81669129989E+03  0.25500000000E-02 0.  1.
    8880023    1    1    2    0    0 -0.40838483162E+03  0.61440231607E+03 -0.34004300522E+03  0.10458048711E+04  0.65864270000E+03 0.  1.
    8880022    1    1    2    0    0  0.40838483162E+03 -0.61440231607E+03  0.10228597089E+04  0.12703944323E+04  0.15294330000E+03 0.  0.
<mgrwt>
<rscale>  0 0.92395580E+03</rscale>
<asrwt>0</asrwt>
<pdfrwt beam="1">  1        2 0.23069354E+00 0.98897856E+03</pdfrwt>
<pdfrwt beam="2">  1       -2 0.12564482E+00 0.98897856E+03</pdfrwt>
<totfact> 0.59813161E+00</totfact>
</mgrwt>
</event>
<event>
 4    1  0.3057048E-007  0.9257180E+03  0.7818608E-02  0.9485947E-01
         -2   -1    0    0    0  501 -0.00000000000E+00  0.00000000000E+00  0.11746217422E+04  0.11746217422E+04  0.25500000000E-02 0.  1.
          2   -1    0    0  501    0  0.00000000000E+00 -0.00000000000E+00 -0.10125609151E+04  0.10125609151E+04  0.25500000000E-02 0. -1.
    8880023    1    1    2    0    0  0.34913954542E+02 -0.64955718373E+03  0.82930333535E+03  0.12428586997E+04  0.65864270000E+03 0.  0.
    8880022    1    1    2    0    0 -0.34913954542E+02  0.64955718373E+03 -0.66724250820E+03  0.94432395761E+03  0.15294330000E+03 0.  0.
<mgrwt>
<rscale>  0 0.85327883E+03</rscale>
<asrwt>0</asrwt>
<pdfrwt beam="1">  1        2 0.15577860E+00 0.92571795E+03</pdfrwt>
<pdfrwt beam="2">  1       -2 0.18071104E+00 0.92571795E+03</pdfrwt>
<totfact> 0.44301256E+00</totfact>
</mgrwt>
</event>
<event>
 4    1  0.3057048E-007  0.7155346E+03  0.7818608E-02  0.9937995E-01
          2   -1    0    0  501    0  0.00000000000E+00  0.00000000000E+00  0.17223996910E+04  0.17223996910E+04  0.25500000000E-02 0. -1.
         -2   -1    0    0    0  501 -0.00000000000E+00 -0.00000000000E+00 -0.33757472331E+03  0.33757472332E+03  0.25500000000E-02 0.  1.
    8880023    1    1    2    0    0  0.23731031926E+03  0.14786281059E+03  0.83732202968E+02  0.72041716141E+03  0.65864270000E+03 0.  1.
    8880022    1    1    2    0    0 -0.23731031926E+03 -0.14786281059E+03  0.13010927647E+04  0.13395572529E+04  0.15294330000E+03 0.  0.
<mgrwt>
<rscale>  0 0.58454687E+03</rscale>
<asrwt>0</asrwt>
<pdfrwt beam="1">  1        2 0.26498457E+00 0.71553463E+03</pdfrwt>
<pdfrwt beam="2">  1       -2 0.51934573E-01 0.71553463E+03</pdfrwt>
<totfact> 0.34396399E+01</totfact>
</mgrwt>
</event>
<event>
 4    1  0.3057048E-007  0.1337004E+04  0.7818608E-02  0.9034246E-01
          2   -1    0    0  501    0  0.00000000000E+00  0.00000000000E+00  0.19136223640E+04  0.19136223640E+04  0.25500000000E-02 0. -1.
         -2   -1    0    0    0  501 -0.00000000000E+00 -0.00000000000E+00 -0.11891164971E+04  0.11891164971E+04  0.25500000000E-02 0.  1.
    8880023    1    1    2    0    0 -0.10600650449E+04  0.47961583172E+03  0.12376659483E+04  0.18219210881E+04  0.65864270000E+03 0.  0.
    8880022    1    1    2    0    0  0.10600650449E+04 -0.47961583172E+03 -0.51316008139E+03  0.12808177730E+04  0.15294330000E+03 0.  0.
<mgrwt>
<rscale>  0 0.12941142E+04</rscale>
<asrwt>0</asrwt>
<pdfrwt beam="1">  1        2 0.29440344E+00 0.13370039E+04</pdfrwt>
<pdfrwt beam="2">  1       -2 0.18294100E+00 0.13370039E+04</pdfrwt>
<totfact> 0.12352085E+00</totfact>
</mgrwt>
</event>
<event>
 4    1  0.3057048E-007  0.8925321E+03  0.7818608E-02  0.9538128E-01
         -2   -1    0    0    0  501 -0.00000000000E+00  0.00000000000E+00  0.15776078162E+04  0.15776078162E+04  0.25500000000E-02 0.  1.
          2   -1    0    0  501    0  0.00000000000E+00 -0.00000000000E+00 -0.40791014068E+03  0.40791014069E+03  0.25500000000E-02 0. -1.
    8880023    1    1    2    0    0  0.29170428643E+03 -0.52698389001E+03  0.35425458732E+03  0.96026555179E+03  0.65864270000E+03 0. -1.
    8880022    1    1    2    0    0 -0.29170428643E+03  0.52698389001E+03  0.81544308821E+03  0.10252524051E+04  0.15294330000E+03 0.  0.
<mgrwt>
<rscale>  0 0.81530243E+03</rscale>
<asrwt>0</asrwt>
<pdfrwt beam="1">  1        2 0.62755406E-01 0.89253214E+03</pdfrwt>
<pdfrwt beam="2">  1       -2 0.24270889E+00 0.89253214E+03</pdfrwt>
<totfact> 0.56021989E+00</totfact>
</mgrwt>
</event>
<event>
 4    1  0.4299956E-007  0.7795600E+03  0.7818608E-02  0.9756872E-01
         -2   -1    0    0    0  501 -0.00000000000E+00  0.00000000000E+00  0.23801298908E+04  0.23801298908E+04  0.25500000000E-02 0.  1.
          2   -1    0    0  501    0  0.00000000000E+00 -0.00000000000E+00 -0.13837560127E+04  0.13837560127E+04  0.25500000000E-02 0. -1.
    8880023    1    1    2    0    0 -0.40960728769E+03  0.78265386132E+02  0.22778813795E+04  0.24075833082E+04  0.65864270000E+03 0.  1.
    8880022    1    1    2    0    0  0.40960728769E+03 -0.78265386132E+02 -0.12815075014E+04  0.13563025952E+04  0.15294330000E+03 0.  0.
<mgrwt>
<rscale>  0 0.67729324E+03</rscale>
<asrwt>0</asrwt>
<pdfrwt beam="1">  1        2 0.21288554E+00 0.77956001E+03</pdfrwt>
<pdfrwt beam="2">  1       -2 0.36617383E+00 0.77956001E+03</pdfrwt>
<totfact> 0.19274010E-01</totfact>
</mgrwt>
</event>
<event>
 4    1  0.3057048E-007  0.6732298E+03  0.7818608E-02  0.1013446E+00
          2   -1    0    0  501    0  0.00000000000E+00  0.00000000000E+00  0.22172269816E+04  0.22172269816E+04  0.25500000000E-02 0. -1.
         -2   -1    0    0    0  501 -0.00000000000E+00 -0.00000000000E+00 -0.21310852534E+03  0.21310852535E+03  0.25500000000E-02 0.  1.
    8880023    1    1    2    0    0  0.10051678848E+03  0.96563839646E+02  0.34150343113E+03  0.75489270736E+03  0.65864270000E+03 0.  0.
    8880022    1    1    2    0    0 -0.10051678848E+03 -0.96563839646E+02  0.16626150252E+04  0.16754427996E+04  0.15294330000E+03 0.  0.
<mgrwt>
<rscale>  0 0.50127744E+03</rscale>
<asrwt>0</asrwt>
<pdfrwt beam="1">  1        2 0.34111187E+00 0.67322983E+03</pdfrwt>
<pdfrwt beam="2">  1       -2 0.32785925E-01 0.67322983E+03</pdfrwt>
<totfact> 0.45804189E+01</totfact>
</mgrwt>
</event>
<event>
 4    1  0.3057048E-007  0.7299845E+03  0.7818608E-02  0.9890145E-01
          2   -1    0    0  501    0  0.00000000000E+00  0.00000000000E+00  0.38980162651E+04  0.38980162651E+04  0.25500000000E-02 0. -1.
         -2   -1    0    0    0  501 -0.00000000000E+00 -0.00000000000E+00 -0.28602078494E+03  0.28602078496E+03  0.25500000000E-02 0.  1.
    8880023    1    1    2    0    0  0.31131060511E+03 -0.46398833078E+02  0.20376729854E+03  0.75789079872E+03  0.65864270000E+03 0.  1.
    8880022    1    1    2    0    0 -0.31131060511E+03  0.46398833078E+02  0.34082281816E+04  0.34261462513E+04  0.15294330000E+03 0.  0.
<mgrwt>
<rscale>  0 0.60741285E+03</rscale>
<asrwt>0</asrwt>
<pdfrwt beam="1">  1        2 0.59969478E+00 0.72998449E+03</pdfrwt>
<pdfrwt beam="2">  1       -2 0.44003200E-01 0.72998449E+03</pdfrwt>
<totfact> 0.22419059E+00</totfact>
</mgrwt>
</event>
<event>
 4    1  0.3057048E-007  0.1266889E+04  0.7818608E-02  0.9094694E-01
         -2   -1    0    0    0  501 -0.00000000000E+00  0.00000000000E+00  0.18202802716E+04  0.18202802716E+04  0.25500000000E-02 0.  1.
          2   -1    0    0  501    0  0.00000000000E+00 -0.00000000000E+00 -0.10244420900E+04  0.10244420900E+04  0.25500000000E-02 0. -1.
    8880023    1    1    2    0    0  0.10715528855E+04  0.15156480048E+03 -0.29473489261E+03  0.13007214684E+04  0.65864270000E+03 0.  0.
    8880022    1    1    2    0    0 -0.10715528855E+04 -0.15156480048E+03  0.10905730742E+04  0.15440008933E+04  0.15294330000E+03 0.  0.
<mgrwt>
<rscale>  0 0.12209735E+04</rscale>
<asrwt>0</asrwt>
<pdfrwt beam="1">  1        2 0.15760648E+00 0.12668890E+04</pdfrwt>
<pdfrwt beam="2">  1       -2 0.28004312E+00 0.12668890E+04</pdfrwt>
<totfact> 0.99085526E-01</totfact>
</mgrwt>
</event>
<event>
 4    1  0.3057048E-007  0.7265168E+03  0.7818608E-02  0.9901122E-01
         -2   -1    0    0    0  501 -0.00000000000E+00  0.00000000000E+00  0.51210776112E+03  0.51210776113E+03  0.25500000000E-02 0.  1.
          2   -1    0    0  501    0  0.00000000000E+00 -0.00000000000E+00 -0.19845207341E+04  0.19845207341E+04  0.25500000000E-02 0. -1.
    8880023    1    1    2    0    0  0.16201789773E+03 -0.26032022164E+03  0.22845521771E+03  0.76158939708E+03  0.65864270000E+03 0.  0.
    8880022    1    1    2    0    0 -0.16201789773E+03  0.26032022164E+03 -0.17008681907E+04  0.17350390982E+04  0.15294330000E+03 0.  0.
<mgrwt>
<rscale>  0 0.60206929E+03</rscale>
<asrwt>0</asrwt>
<pdfrwt beam="1">  1        2 0.30531088E+00 0.72651677E+03</pdfrwt>
<pdfrwt beam="2">  1       -2 0.78785811E-01 0.72651677E+03</pdfrwt>
<totfact> 0.10127360E+01</totfact>
</mgrwt>
</event>
<event>
 4    1  0.3057048E-007  0.7499315E+03  0.7818608E-02  0.9831908E-01
         -2   -1    0    0    0  501 -0.00000000000E+00  0.00000000000E+00  0.35998783356E+03  0.35998783357E+03  0.25500000000E-02 0.  1.
          2   -1    0    0  501    0  0.00000000000E+00 -0.00000000000E+00 -0.12312795897E+04  0.12312795897E+04  0.25500000000E-02 0. -1.
    8880023    1    1    2    0    0 -0.35650093252E+03  0.38654155219E+02 -0.14047769166E+03  0.76297525957E+03  0.65864270000E+03 0.  0.
    8880022    1    1    2    0    0  0.35650093252E+03 -0.38654155219E+02 -0.73081406452E+03  0.82829216375E+03  0.15294330000E+03 0.  0.
<mgrwt>
<rscale>  0 0.63677946E+03</rscale>
<asrwt>0</asrwt>
<pdfrwt beam="1">  1        2 0.18942763E+00 0.74993151E+03</pdfrwt>
<pdfrwt beam="2">  1       -2 0.55382744E-01 0.74993151E+03</pdfrwt>
<totfact> 0.56589546E+01</totfact>
</mgrwt>
</event>
<event>
 4    1  0.3057048E-007  0.1074682E+04  0.7818608E-02  0.9289782E-01
         -2   -1    0    0    0  501 -0.00000000000E+00  0.00000000000E+00  0.88558276809E+03  0.88558276809E+03  0.25500000000E-02 0.  1.
          2   -1    0    0  501    0  0.00000000000E+00 -0.00000000000E+00 -0.16276252191E+04  0.16276252191E+04  0.25500000000E-02 0. -1.
    8880023    1    1    2    0    0  0.83364257998E+03 -0.16177539258E+03  0.34190626744E+03  0.11277594295E+04  0.65864270000E+03 0.  1.
    8880022    1    1    2    0    0 -0.83364257998E+03  0.16177539258E+03 -0.10839487184E+04  0.13854485577E+04  0.15294330000E+03 0.  0.
<mgrwt>
<rscale>  0 0.10172899E+04</rscale>
<asrwt>0</asrwt>
<pdfrwt beam="1">  1        2 0.25040388E+00 0.10746820E+04</pdfrwt>
<pdfrwt beam="2">  1       -2 0.13624350E+00 0.10746820E+04</pdfrwt>
<totfact> 0.40882760E+00</totfact>
</mgrwt>
</event>
<event>
 4    1  0.3057048E-007  0.7653671E+03  0.7818608E-02  0.9791406E-01
          2   -1    0    0  501    0  0.00000000000E+00  0.00000000000E+00  0.29716498899E+04  0.29716498899E+04  0.25500000000E-02 0. -1.
         -2   -1    0    0    0  501 -0.00000000000E+00 -0.00000000000E+00 -0.47525817945E+03  0.47525817946E+03  0.25500000000E-02 0.  1.
    8880023    1    1    2    0    0 -0.37376249241E+03  0.11080676539E+03 -0.13948457555E+03  0.77797345268E+03  0.65864270000E+03 0.  1.
    8880022    1    1    2    0    0  0.37376249241E+03 -0.11080676539E+03  0.26358762860E+04  0.26689346167E+04  0.15294330000E+03 0.  0.
<mgrwt>
<rscale>  0 0.65825805E+03</rscale>
<asrwt>0</asrwt>
<pdfrwt beam="1">  1        2 0.45717691E+00 0.76536707E+03</pdfrwt>
<pdfrwt beam="2">  1       -2 0.73116642E-01 0.76536707E+03</pdfrwt>
<totfact> 0.32559953E+00</totfact>
</mgrwt>
</event>
<event>
 4    1  0.3057048E-007  0.9674375E+03  0.7818608E-02  0.9425457E-01
         -2   -1    0    0    0  501 -0.00000000000E+00  0.00000000000E+00  0.50431161413E+03  0.50431161414E+03  0.25500000000E-02 0.  1.
          2   -1    0    0  501    0  0.00000000000E+00 -0.00000000000E+00 -0.25449829702E+04  0.25449829702E+04  0.25500000000E-02 0. -1.
    8880023    1    1    2    0    0 -0.60552647656E+03  0.36805275638E+03 -0.93961721868E+02  0.97198979251E+03  0.65864270000E+03 0.  0.
    8880022    1    1    2    0    0  0.60552647656E+03 -0.36805275638E+03 -0.19467096342E+04  0.20773047919E+04  0.15294330000E+03 0.  0.
<mgrwt>
<rscale>  0 0.90009950E+03</rscale>
<asrwt>0</asrwt>
<pdfrwt beam="1">  1        2 0.39153584E+00 0.96743752E+03</pdfrwt>
<pdfrwt beam="2">  1       -2 0.77586403E-01 0.96743752E+03</pdfrwt>
<totfact> 0.49297605E+00</totfact>
</mgrwt>
</event>
<event>
 4    1  0.3057048E-007  0.6898974E+03  0.7818608E-02  0.1004201E+00
          2   -1    0    0  501    0  0.00000000000E+00  0.00000000000E+00  0.23288628245E+03  0.23288628247E+03  0.25500000000E-02 0. -1.
         -2   -1    0    0    0  501 -0.00000000000E+00 -0.00000000000E+00 -0.16771260952E+04  0.16771260952E+04  0.25500000000E-02 0.  1.
    8880023    1    1    2    0    0 -0.11841305877E+03 -0.16770980447E+03 -0.14972720082E+04  0.16485696539E+04  0.65864270000E+03 0.  1.
    8880022    1    1    2    0    0  0.11841305877E+03  0.16770980447E+03  0.53032195514E+02  0.26144272370E+03  0.15294330000E+03 0.  0.
<mgrwt>
<rscale>  0 0.53845770E+03</rscale>
<asrwt>0</asrwt>
<pdfrwt beam="1">  1        2 0.35828660E-01 0.68989741E+03</pdfrwt>
<pdfrwt beam="2">  1       -2 0.25801939E+00 0.68989741E+03</pdfrwt>
<totfact> 0.86545761E+00</totfact>
</mgrwt>
</event>
<event>
 4    1  0.3057048E-007  0.7204116E+03  0.7818608E-02  0.9921196E-01
         -2   -1    0    0    0  501 -0.00000000000E+00  0.00000000000E+00  0.22560994371E+03  0.22560994372E+03  0.25500000000E-02 0.  1.
          2   -1    0    0  501    0  0.00000000000E+00 -0.00000000000E+00 -0.12386488449E+04  0.12386488449E+04  0.25500000000E-02 0. -1.
    8880023    1    1    2    0    0 -0.10848777685E+03 -0.27094854299E+03 -0.77254299236E+03  0.10563217275E+04  0.65864270000E+03 0.  0.
    8880022    1    1    2    0    0  0.10848777685E+03  0.27094854299E+03 -0.24049590888E+03  0.40793706117E+03  0.15294330000E+03 0.  1.
<mgrwt>
<rscale>  0 0.59244965E+03</rscale>
<asrwt>0</asrwt>
<pdfrwt beam="1">  1        2 0.19056136E+00 0.72041163E+03</pdfrwt>
<pdfrwt beam="2">  1       -2 0.34709223E-01 0.72041163E+03</pdfrwt>
<totfact> 0.14203832E+02</totfact>
</mgrwt>
</event>
<event>
 4    1  0.3057048E-007  0.7467565E+03  0.7818608E-02  0.9840686E-01
         -2   -1    0    0    0  501 -0.00000000000E+00  0.00000000000E+00  0.19706917001E+03  0.19706917002E+03  0.25500000000E-02 0.  1.
          2   -1    0    0  501    0  0.00000000000E+00 -0.00000000000E+00 -0.19587262714E+04  0.19587262714E+04  0.25500000000E-02 0. -1.
    8880023    1    1    2    0    0  0.21254263959E+02 -0.35125962961E+03 -0.68702278449E+03  0.10147145332E+04  0.65864270000E+03 0.  1.
    8880022    1    1    2    0    0 -0.21254263959E+02  0.35125962961E+03 -0.10746343169E+04  0.11410809083E+04  0.15294330000E+03 0.  0.
<mgrwt>
<rscale>  0 0.63224091E+03</rscale>
<asrwt>0</asrwt>
<pdfrwt beam="1">  1        2 0.30134249E+00 0.74675650E+03</pdfrwt>
<pdfrwt beam="2">  1       -2 0.30318335E-01 0.74675650E+03</pdfrwt>
<totfact> 0.72742589E+01</totfact>
</mgrwt>
</event>
<event>
 4    1  0.3057048E-007  0.7307666E+03  0.7818608E-02  0.9887709E-01
         -2   -1    0    0    0  501 -0.00000000000E+00  0.00000000000E+00  0.17035293535E+03  0.17035293537E+03  0.25500000000E-02 0.  1.
          2   -1    0    0  501    0  0.00000000000E+00 -0.00000000000E+00 -0.18537983333E+04  0.18537983333E+04  0.25500000000E-02 0. -1.
    8880023    1    1    2    0    0 -0.30397123216E+03 -0.88380076184E+02 -0.85843743058E+03  0.11273573419E+04  0.65864270000E+03 0. -1.
    8880022    1    1    2    0    0  0.30397123216E+03  0.88380076184E+02 -0.82500796739E+03  0.89679392678E+03  0.15294330000E+03 0.  0.
<mgrwt>
<rscale>  0 0.60860684E+03</rscale>
<asrwt>0</asrwt>
<pdfrwt beam="1">  1        2 0.28519973E+00 0.73076655E+03</pdfrwt>
<pdfrwt beam="2">  1       -2 0.26208145E-01 0.73076655E+03</pdfrwt>
<totfact> 0.10862774E+02</totfact>
</mgrwt>
</event>
<event>
 4    1  0.3057048E-007  0.1007285E+04  0.7818608E-02  0.9372088E-01
         -2   -1    0    0    0  501 -0.00000000000E+00  0.00000000000E+00  0.14197295213E+04  0.14197295213E+04  0.25500000000E-02 0.  1.
          2   -1    0    0  501    0  0.00000000000E+00 -0.00000000000E+00 -0.60958094668E+03  0.60958094668E+03  0.25500000000E-02 0. -1.
    8880023    1    1    2    0    0 -0.23706029089E+03 -0.72430334156E+03  0.73791401311E+03  0.12486553604E+04  0.65864270000E+03 0.  0.
    8880022    1    1    2    0    0  0.23706029089E+03  0.72430334156E+03  0.72234561542E+02  0.78065510759E+03  0.15294330000E+03 0.  0.
<mgrwt>
<rscale>  0 0.94408758E+03</rscale>
<asrwt>0</asrwt>
<pdfrwt beam="1">  1        2 0.93781684E-01 0.10072850E+04</pdfrwt>
<pdfrwt beam="2">  1       -2 0.21841993E+00 0.10072850E+04</pdfrwt>
<totfact> 0.48956580E+00</totfact>
</mgrwt>
</event>
<event>
 4    1  0.3057048E-007  0.6735792E+03  0.7818608E-02  0.1013217E+00
         -2   -1    0    0    0  501 -0.00000000000E+00  0.00000000000E+00  0.91702515274E+02  0.91702515309E+02  0.25500000000E-02 0.  1.
          2   -1    0    0  501    0  0.00000000000E+00 -0.00000000000E+00 -0.22143815379E+04  0.22143815379E+04  0.25500000000E-02 0. -1.
    8880023    1    1    2    0    0 -0.14073315941E+03  0.96355722363E+01 -0.18024582699E+04  0.19242049494E+04  0.65864270000E+03 0.  0.
    8880022    1    1    2    0    0  0.14073315941E+03 -0.96355722363E+01 -0.32022075269E+03  0.38187910375E+03  0.15294330000E+03 0. -1.
<mgrwt>
<rscale>  0 0.50215793E+03</rscale>
<asrwt>0</asrwt>
<pdfrwt beam="1">  1        2 0.34067404E+00 0.67357915E+03</pdfrwt>
<pdfrwt beam="2">  1       -2 0.14108081E-01 0.67357915E+03</pdfrwt>
<totfact> 0.20425337E+02</totfact>
</mgrwt>
</event>
<event>
 4    1  0.3057048E-007  0.8062874E+03  0.7818608E-02  0.9697363E-01
         -2   -1    0    0    0  501 -0.00000000000E+00  0.00000000000E+00  0.79283234924E+03  0.79283234925E+03  0.25500000000E-02 0.  1.
          2   -1    0    0  501    0  0.00000000000E+00 -0.00000000000E+00 -0.13064489059E+04  0.13064489059E+04  0.25500000000E-02 0. -1.
    8880023    1    1    2    0    0  0.30062955359E+03 -0.35483943196E+03  0.51733976643E+03  0.95798736482E+03  0.65864270000E+03 0.  0.
    8880022    1    1    2    0    0 -0.30062955359E+03  0.35483943196E+03 -0.10309563231E+04  0.11412938903E+04  0.15294330000E+03 0.  0.
<mgrwt>
<rscale>  0 0.71174030E+03</rscale>
<asrwt>0</asrwt>
<pdfrwt beam="1">  1        2 0.20099214E+00 0.80628739E+03</pdfrwt>
<pdfrwt beam="2">  1       -2 0.12197421E+00 0.80628739E+03</pdfrwt>
<totfact> 0.84749078E+00</totfact>
</mgrwt>
</event>
<event>
 4    1  0.3057048E-007  0.8504119E+03  0.7818608E-02  0.9610852E-01
          2   -1    0    0  501    0  0.00000000000E+00  0.00000000000E+00  0.23385020581E+04  0.23385020581E+04  0.25500000000E-02 0. -1.
         -2   -1    0    0    0  501 -0.00000000000E+00 -0.00000000000E+00 -0.40290622106E+03  0.40290622107E+03  0.25500000000E-02 0.  1.
    8880023    1    1    2    0    0 -0.53650331861E+03 -0.39425184653E+02  0.14142448085E+03  0.86209120522E+03  0.65864270000E+03 0.  0.
    8880022    1    1    2    0    0  0.53650331861E+03  0.39425184653E+02  0.17941713562E+04  0.18793170740E+04  0.15294330000E+03 0. -1.
<mgrwt>
<rscale>  0 0.76582083E+03</rscale>
<asrwt>0</asrwt>
<pdfrwt beam="1">  1        2 0.35976955E+00 0.85041188E+03</pdfrwt>
<pdfrwt beam="2">  1       -2 0.61985572E-01 0.85041188E+03</pdfrwt>
<totfact> 0.10713054E+01</totfact>
</mgrwt>
</event>
<event>
 4    1  0.3057048E-007  0.1245810E+04  0.7818608E-02  0.9113829E-01
         -2   -1    0    0    0  501 -0.00000000000E+00  0.00000000000E+00  0.97180662812E+03  0.97180662813E+03  0.25500000000E-02 0.  1.
          2   -1    0    0  501    0  0.00000000000E+00 -0.00000000000E+00 -0.22199884281E+04  0.22199884281E+04  0.25500000000E-02 0. -1.
    8880023    1    1    2    0    0 -0.10505600823E+04 -0.12064770545E+03 -0.16349266154E+04  0.20554871927E+04  0.65864270000E+03 0.  0.
    8880022    1    1    2    0    0  0.10505600823E+04  0.12064770545E+03  0.38674481545E+03  0.11363078635E+04  0.15294330000E+03 0.  0.
<mgrwt>
<rscale>  0 0.11988897E+04</rscale>
<asrwt>0</asrwt>
<pdfrwt beam="1">  1        2 0.34153668E+00 0.12458100E+04</pdfrwt>
<pdfrwt beam="2">  1       -2 0.14950871E+00 0.12458100E+04</pdfrwt>
<totfact> 0.14746797E+00</totfact>
</mgrwt>
</event>
<event>
 4    1  0.3057048E-007  0.6892803E+03  0.7818608E-02  0.1004497E+00
         -2   -1    0    0    0  501 -0.00000000000E+00  0.00000000000E+00  0.78505659364E+02  0.78505659405E+02  0.25500000000E-02 0.  1.
          2   -1    0    0  501    0  0.00000000000E+00 -0.00000000000E+00 -0.36336380076E+04  0.36336380076E+04  0.25500000000E-02 0. -1.
    8880023    1    1    2    0    0  0.84317544246E+02  0.18489902034E+03 -0.16224327277E+04  0.17627805474E+04  0.65864270000E+03 0.  1.
    8880022    1    1    2    0    0 -0.84317544246E+02 -0.18489902034E+03 -0.19326996205E+04  0.19493631196E+04  0.15294330000E+03 0.  0.
<mgrwt>
<rscale>  0 0.53721791E+03</rscale>
<asrwt>0</asrwt>
<pdfrwt beam="1">  1        2 0.55902110E+00 0.68928028E+03</pdfrwt>
<pdfrwt beam="2">  1       -2 0.12077797E-01 0.68928028E+03</pdfrwt>
<totfact> 0.35941105E+01</totfact>
</mgrwt>
</event>
<event>
 4    1  0.3057048E-007  0.9786826E+03  0.7818608E-02  0.9409994E-01
         -2   -1    0    0    0  501 -0.00000000000E+00  0.00000000000E+00  0.58235475026E+03  0.58235475027E+03  0.25500000000E-02 0.  1.
          2   -1    0    0  501    0  0.00000000000E+00 -0.00000000000E+00 -0.16262046061E+04  0.16262046061E+04  0.25500000000E-02 0. -1.
    8880023    1    1    2    0    0  0.70855786033E+03 -0.14817287508E+03 -0.64026376660E+02  0.98077470681E+03  0.65864270000E+03 0.  0.
    8880022    1    1    2    0    0 -0.70855786033E+03  0.14817287508E+03 -0.97982347918E+03  0.12277846496E+04  0.15294330000E+03 0.  0.
<mgrwt>
<rscale>  0 0.91257719E+03</rscale>
<asrwt>0</asrwt>
<pdfrwt beam="1">  1        2 0.25018532E+00 0.97868261E+03</pdfrwt>
<pdfrwt beam="2">  1       -2 0.89593039E-01 0.97868261E+03</pdfrwt>
<totfact> 0.11508017E+01</totfact>
</mgrwt>
</event>
<event>
 4    1  0.3057048E-007  0.7436895E+03  0.7818608E-02  0.9849327E-01
         -2   -1    0    0    0  501 -0.00000000000E+00  0.00000000000E+00  0.25296002820E+03  0.25296002822E+03  0.25500000000E-02 0.  1.
          2   -1    0    0  501    0  0.00000000000E+00 -0.00000000000E+00 -0.19922901859E+04  0.19922901859E+04  0.25500000000E-02 0. -1.
    8880023    1    1    2    0    0 -0.62011759391E+02  0.33973279167E+03 -0.38143035189E+03  0.83580090192E+03  0.65864270000E+03 0.  1.
    8880022    1    1    2    0    0  0.62011759391E+02 -0.33973279167E+03 -0.13578998058E+04  0.14094493122E+04  0.15294330000E+03 0.  0.
<mgrwt>
<rscale>  0 0.62781225E+03</rscale>
<asrwt>0</asrwt>
<pdfrwt beam="1">  1        2 0.30650617E+00 0.74368947E+03</pdfrwt>
<pdfrwt beam="2">  1       -2 0.38916929E-01 0.74368947E+03</pdfrwt>
<totfact> 0.43427485E+01</totfact>
</mgrwt>
</event>
<event>
 4    1  0.3057048E-007  0.6706899E+03  0.7818608E-02  0.1015173E+00
         -2   -1    0    0    0  501 -0.00000000000E+00  0.00000000000E+00  0.70869633166E+03  0.70869633166E+03  0.25500000000E-02 0.  1.
          2   -1    0    0  501    0  0.00000000000E+00 -0.00000000000E+00 -0.16135920577E+04  0.16135920577E+04  0.25500000000E-02 0. -1.
    8880023    1    1    2    0    0  0.72676661948E+02  0.10359915481E+03  0.54170515518E+03  0.86213071136E+03  0.65864270000E+03 0.  1.
    8880022    1    1    2    0    0 -0.72676661948E+02 -0.10359915481E+03 -0.14466008812E+04  0.14601576780E+04  0.15294330000E+03 0.  0.
<mgrwt>
<rscale>  0 0.49469448E+03</rscale>
<asrwt>0</asrwt>
<pdfrwt beam="1">  1        2 0.24824493E+00 0.67068986E+03</pdfrwt>
<pdfrwt beam="2">  1       -2 0.10903021E+00 0.67068986E+03</pdfrwt>
<totfact> 0.76482985E+00</totfact>
</mgrwt>
</event>
<event>
 4    1  0.3057048E-007  0.1039185E+04  0.7818608E-02  0.9331996E-01
         -2   -1    0    0    0  501 -0.00000000000E+00  0.00000000000E+00  0.10204568997E+04  0.10204568997E+04  0.25500000000E-02 0.  1.
          2   -1    0    0  501    0  0.00000000000E+00 -0.00000000000E+00 -0.20968903223E+04  0.20968903223E+04  0.25500000000E-02 0. -1.
    8880023    1    1    2    0    0  0.72862298759E+03  0.33941789171E+03 -0.17648323122E+04  0.20480574356E+04  0.65864270000E+03 0. -1.
    8880022    1    1    2    0    0 -0.72862298759E+03 -0.33941789171E+03  0.68839888952E+03  0.10692897864E+04  0.15294330000E+03 0.  0.
<mgrwt>
<rscale>  0 0.97889831E+03</rscale>
<asrwt>0</asrwt>
<pdfrwt beam="1">  1        2 0.32259851E+00 0.10391853E+04</pdfrwt>
<pdfrwt beam="2">  1       -2 0.15699337E+00 0.10391853E+04</pdfrwt>
<totfact> 0.15543477E+00</totfact>
</mgrwt>
</event>
<event>
 4    1  0.3057048E-007  0.8721248E+03  0.7818608E-02  0.9572349E-01
         -2   -1    0    0    0  501 -0.00000000000E+00  0.00000000000E+00  0.44043185884E+03  0.44043185884E+03  0.25500000000E-02 0.  1.
          2   -1    0    0  501    0  0.00000000000E+00 -0.00000000000E+00 -0.28373884538E+04  0.28373884538E+04  0.25500000000E-02 0. -1.
    8880023    1    1    2    0    0 -0.11318176886E+03 -0.56034038910E+03 -0.67901905931E+02  0.87476416225E+03  0.65864270000E+03 0.  0.
    8880022    1    1    2    0    0  0.11318176886E+03  0.56034038910E+03 -0.23290546890E+04  0.24030561504E+04  0.15294330000E+03 0.  0.
<mgrwt>
<rscale>  0 0.79153638E+03</rscale>
<asrwt>0</asrwt>
<pdfrwt beam="1">  1        2 0.43652129E+00 0.87212480E+03</pdfrwt>
<pdfrwt beam="2">  1       -2 0.67758749E-01 0.87212480E+03</pdfrwt>
<totfact> 0.45462334E+00</totfact>
</mgrwt>
</event>
<event>
 4    1  0.3057048E-007  0.1026941E+04  0.7818608E-02  0.9347129E-01
         -2   -1    0    0    0  501 -0.00000000000E+00  0.00000000000E+00  0.42014427354E+03  0.42014427354E+03  0.25500000000E-02 0.  1.
          2   -1    0    0  501    0  0.00000000000E+00 -0.00000000000E+00 -0.36499936120E+04  0.36499936120E+04  0.25500000000E-02 0. -1.
    8880023    1    1    2    0    0  0.12803035060E+03 -0.77743549060E+03 -0.30890358262E+04  0.32552650053E+04  0.65864270000E+03 0.  1.
    8880022    1    1    2    0    0 -0.12803035060E+03  0.77743549060E+03 -0.14081351223E+03  0.81487288025E+03  0.15294330000E+03 0.  0.
<mgrwt>
<rscale>  0 0.96557459E+03</rscale>
<asrwt>0</asrwt>
<pdfrwt beam="1">  1        2 0.56153746E+00 0.10269410E+04</pdfrwt>
<pdfrwt beam="2">  1       -2 0.64637583E-01 0.10269410E+04</pdfrwt>
<totfact> 0.14547457E+00</totfact>
</mgrwt>
</event>
<event>
 4    1  0.3057048E-007  0.6659612E+03  0.7818608E-02  0.1018740E+00
          2   -1    0    0  501    0  0.00000000000E+00  0.00000000000E+00  0.11652927433E+04  0.11652927433E+04  0.25500000000E-02 0. -1.
         -2   -1    0    0    0  501 -0.00000000000E+00 -0.00000000000E+00 -0.48618754387E+03  0.48618754387E+03  0.25500000000E-02 0.  1.
    8880023    1    1    2    0    0  0.95153199246E+02 -0.25297156442E+02 -0.24503447543E+03  0.70960987723E+03  0.65864270000E+03 0.  1.
    8880022    1    1    2    0    0 -0.95153199246E+02  0.25297156442E+02  0.92413967491E+03  0.94187040998E+03  0.15294330000E+03 0.  0.
<mgrwt>
<rscale>  0 0.48143956E+03</rscale>
<asrwt>0</asrwt>
<pdfrwt beam="1">  1        2 0.17927581E+00 0.66596117E+03</pdfrwt>
<pdfrwt beam="2">  1       -2 0.74798084E-01 0.66596117E+03</pdfrwt>
<totfact> 0.32797574E+01</totfact>
</mgrwt>
</event>
<event>
 4    1  0.3057048E-007  0.1130163E+04  0.7818608E-02  0.9228194E-01
          2   -1    0    0  501    0  0.00000000000E+00  0.00000000000E+00  0.20119653195E+04  0.20119653195E+04  0.25500000000E-02 0. -1.
         -2   -1    0    0    0  501 -0.00000000000E+00 -0.00000000000E+00 -0.78976746556E+03  0.78976746556E+03  0.25500000000E-02 0.  1.
    8880023    1    1    2    0    0  0.63502914473E+03 -0.66347270917E+03  0.14546708778E+04  0.18421008711E+04  0.65864270000E+03 0.  0.
    8880022    1    1    2    0    0 -0.63502914473E+03  0.66347270917E+03 -0.23247302382E+03  0.95963191396E+03  0.15294330000E+03 0.  0.
<mgrwt>
<rscale>  0 0.10767101E+04</rscale>
<asrwt>0</asrwt>
<pdfrwt beam="1">  1        2 0.30953312E+00 0.11301629E+04</pdfrwt>
<pdfrwt beam="2">  1       -2 0.12150269E+00 0.11301629E+04</pdfrwt>
<totfact> 0.33317514E+00</totfact>
</mgrwt>
</event>
<event>
 4    1  0.3057048E-007  0.1208380E+04  0.7818608E-02  0.9149019E-01
          2   -1    0    0  501    0  0.00000000000E+00  0.00000000000E+00  0.22374758183E+04  0.22374758183E+04  0.25500000000E-02 0. -1.
         -2   -1    0    0    0  501 -0.00000000000E+00 -0.00000000000E+00 -0.86358986734E+03  0.86358986734E+03  0.25500000000E-02 0.  1.
    8880023    1    1    2    0    0  0.32045470640E+03  0.96108372698E+03 -0.19824746036E+03  0.12245347733E+04  0.65864270000E+03 0.  1.
    8880022    1    1    2    0    0 -0.32045470640E+03 -0.96108372698E+03  0.15721334113E+04  0.18765309123E+04  0.15294330000E+03 0.  0.
<mgrwt>
<rscale>  0 0.11595494E+04</rscale>
<asrwt>0</asrwt>
<pdfrwt beam="1">  1        2 0.34422704E+00 0.12083805E+04</pdfrwt>
<pdfrwt beam="2">  1       -2 0.13285998E+00 0.12083805E+04</pdfrwt>
<totfact> 0.19720876E+00</totfact>
</mgrwt>
</event>
<event>
 4    1  0.3057048E-007  0.1080699E+04  0.7818608E-02  0.9282856E-01
          2   -1    0    0  501    0  0.00000000000E+00  0.00000000000E+00  0.21611874376E+04  0.21611874376E+04  0.25500000000E-02 0. -1.
         -2   -1    0    0    0  501 -0.00000000000E+00 -0.00000000000E+00 -0.79883204278E+03  0.79883204279E+03  0.25500000000E-02 0.  1.
    8880023    1    1    2    0    0 -0.37895757008E+02  0.85595769459E+03 -0.26663254567E+03  0.11131050193E+04  0.65864270000E+03 0.  1.
    8880022    1    1    2    0    0  0.37895757008E+02 -0.85595769459E+03  0.16289879405E+04  0.18469144611E+04  0.15294330000E+03 0.  0.
<mgrwt>
<rscale>  0 0.10237660E+04</rscale>
<asrwt>0</asrwt>
<pdfrwt beam="1">  1        2 0.33249037E+00 0.10806988E+04</pdfrwt>
<pdfrwt beam="2">  1       -2 0.12289724E+00 0.10806988E+04</pdfrwt>
<totfact> 0.26916189E+00</totfact>
</mgrwt>
</event>
<event>
 4    1  0.3057048E-007  0.7508916E+03  0.7818608E-02  0.9829286E-01
         -2   -1    0    0    0  501 -0.00000000000E+00  0.00000000000E+00  0.21413587113E+03  0.21413587115E+03  0.25500000000E-02 0.  1.
          2   -1    0    0  501    0  0.00000000000E+00 -0.00000000000E+00 -0.26588146339E+04  0.26588146339E+04  0.25500000000E-02 0. -1.
    8880023    1    1    2    0    0 -0.28930184514E+03  0.21524976648E+03 -0.23540575177E+04  0.24709158266E+04  0.65864270000E+03 0.  0.
    8880022    1    1    2    0    0  0.28930184514E+03 -0.21524976648E+03 -0.90621245103E+02  0.40203467841E+03  0.15294330000E+03 0.  0.
<mgrwt>
<rscale>  0 0.63814310E+03</rscale>
<asrwt>0</asrwt>
<pdfrwt beam="1">  1        2 0.40904838E+00 0.75089162E+03</pdfrwt>
<pdfrwt beam="2">  1       -2 0.32943982E-01 0.75089162E+03</pdfrwt>
<totfact> 0.25318607E+01</totfact>
</mgrwt>
</event>
<event>
 4    1  0.3057048E-007  0.6682931E+03  0.7818608E-02  0.1016917E+00
          2   -1    0    0  501    0  0.00000000000E+00  0.00000000000E+00  0.11133469879E+04  0.11133469879E+04  0.25500000000E-02 0. -1.
         -2   -1    0    0    0  501 -0.00000000000E+00 -0.00000000000E+00 -0.47224986106E+03  0.47224986107E+03  0.25500000000E-02 0.  1.
    8880023    1    1    2    0    0  0.15263335474E+02  0.11212734809E+03 -0.22012299748E+03  0.70361200379E+03  0.65864270000E+03 0.  1.
    8880022    1    1    2    0    0 -0.15263335474E+02 -0.11212734809E+03  0.86122012435E+03  0.88198484522E+03  0.15294330000E+03 0.  0.
<mgrwt>
<rscale>  0 0.48815706E+03</rscale>
<asrwt>0</asrwt>
<pdfrwt beam="1">  1        2 0.17128415E+00 0.66829314E+03</pdfrwt>
<pdfrwt beam="2">  1       -2 0.72653825E-01 0.66829314E+03</pdfrwt>
<totfact> 0.37565866E+01</totfact>
</mgrwt>
</event>
<event>
 4    1  0.3057048E-007  0.6733971E+03  0.7818608E-02  0.1013336E+00
          2   -1    0    0  501    0  0.00000000000E+00  0.00000000000E+00  0.65297936985E+03  0.65297936985E+03  0.25500000000E-02 0. -1.
         -2   -1    0    0    0  501 -0.00000000000E+00 -0.00000000000E+00 -0.31620853779E+03  0.31620853780E+03  0.25500000000E-02 0.  1.
    8880023    1    1    2    0    0 -0.14013166802E+03 -0.40773588577E+01  0.14971269403E+03  0.68983882629E+03  0.65864270000E+03 0.  1.
    8880022    1    1    2    0    0  0.14013166802E+03  0.40773588577E+01  0.18705813804E+03  0.27934908136E+03  0.15294330000E+03 0.  0.
<mgrwt>
<rscale>  0 0.50169988E+03</rscale>
<asrwt>0</asrwt>
<pdfrwt beam="1">  1        2 0.10045836E+00 0.67339715E+03</pdfrwt>
<pdfrwt beam="2">  1       -2 0.48647468E-01 0.67339715E+03</pdfrwt>
<totfact> 0.18137938E+02</totfact>
</mgrwt>
</event>
<event>
 4    1  0.3057048E-007  0.9154741E+03  0.7818608E-02  0.9501634E-01
         -2   -1    0    0    0  501 -0.00000000000E+00  0.00000000000E+00  0.64318812592E+03  0.64318812592E+03  0.25500000000E-02 0.  1.
          2   -1    0    0  501    0  0.00000000000E+00 -0.00000000000E+00 -0.11832518535E+04  0.11832518535E+04  0.25500000000E-02 0. -1.
    8880023    1    1    2    0    0 -0.47085563543E+03 -0.42729099019E+03 -0.70090978911E+03  0.11529819419E+04  0.65864270000E+03 0. -1.
    8880022    1    1    2    0    0  0.47085563543E+03  0.42729099019E+03  0.16084606154E+03  0.67345803747E+03  0.15294330000E+03 0.  0.
<mgrwt>
<rscale>  0 0.84163480E+03</rscale>
<asrwt>0</asrwt>
<pdfrwt beam="1">  1        2 0.18203875E+00 0.91547410E+03</pdfrwt>
<pdfrwt beam="2">  1       -2 0.98952020E-01 0.91547410E+03</pdfrwt>
<totfact> 0.16444160E+01</totfact>
</mgrwt>
</event>
<event>
 4    1  0.3057048E-007  0.7912862E+03  0.7818608E-02  0.9729964E-01
         -2   -1    0    0    0  501 -0.00000000000E+00  0.00000000000E+00  0.26622685266E+03  0.26622685267E+03  0.25500000000E-02 0.  1.
          2   -1    0    0  501    0  0.00000000000E+00 -0.00000000000E+00 -0.27153078989E+04  0.27153078989E+04  0.25500000000E-02 0. -1.
    8880023    1    1    2    0    0  0.43580655505E+03 -0.48952033507E+02 -0.41188806540E+03  0.89206818108E+03  0.65864270000E+03 0.  0.
    8880022    1    1    2    0    0 -0.43580655505E+03  0.48952033507E+02 -0.20371929809E+04  0.20894665705E+04  0.15294330000E+03 0.  0.
<mgrwt>
<rscale>  0 0.69260451E+03</rscale>
<asrwt>0</asrwt>
<pdfrwt beam="1">  1        2 0.41773966E+00 0.79128621E+03</pdfrwt>
<pdfrwt beam="2">  1       -2 0.40957979E-01 0.79128621E+03</pdfrwt>
<totfact> 0.15352665E+01</totfact>
</mgrwt>
</event>
<event>
 4    1  0.3057048E-007  0.6630131E+03  0.7818608E-02  0.1021262E+00
          2   -1    0    0  501    0  0.00000000000E+00  0.00000000000E+00  0.98202953499E+03  0.98202953500E+03  0.25500000000E-02 0. -1.
         -2   -1    0    0    0  501 -0.00000000000E+00 -0.00000000000E+00 -0.18473292260E+03  0.18473292262E+03  0.25500000000E-02 0.  1.
    8880023    1    1    2    0    0 -0.75867306951E+02  0.45058311113E+01  0.52661289387E+03  0.84670390163E+03  0.65864270000E+03 0.  0.
    8880022    1    1    2    0    0  0.75867306951E+02 -0.45058311113E+01  0.27068371852E+03  0.32005855599E+03  0.15294330000E+03 0.  0.
<mgrwt>
<rscale>  0 0.47233980E+03</rscale>
<asrwt>0</asrwt>
<pdfrwt beam="1">  1        2 0.15108147E+00 0.66301309E+03</pdfrwt>
<pdfrwt beam="2">  1       -2 0.28420449E-01 0.66301309E+03</pdfrwt>
<totfact> 0.29693586E+02</totfact>
</mgrwt>
</event>
<event>
 4    1  0.3057048E-007  0.6728001E+03  0.7818608E-02  0.1013730E+00
          2   -1    0    0  501    0  0.00000000000E+00  0.00000000000E+00  0.21748145340E+04  0.21748145340E+04  0.25500000000E-02 0. -1.
         -2   -1    0    0    0  501 -0.00000000000E+00 -0.00000000000E+00 -0.19816093789E+03  0.19816093790E+03  0.25500000000E-02 0.  1.
    8880023    1    1    2    0    0 -0.22913962987E+02  0.13536897795E+03  0.39946682597E+03  0.78245367991E+03  0.65864270000E+03 0.  0.
    8880022    1    1    2    0    0  0.22913962987E+02 -0.13536897795E+03  0.15771867701E+04  0.15905217919E+04  0.15294330000E+03 0.  0.
<mgrwt>
<rscale>  0 0.50018645E+03</rscale>
<asrwt>0</asrwt>
<pdfrwt beam="1">  1        2 0.33458686E+00 0.67280013E+03</pdfrwt>
<pdfrwt beam="2">  1       -2 0.30486297E-01 0.67280013E+03</pdfrwt>
<totfact> 0.55366411E+01</totfact>
</mgrwt>
</event>
<event>
 4    1  0.3057048E-007  0.1245402E+04  0.7818608E-02  0.9114204E-01
          2   -1    0    0  501    0  0.00000000000E+00  0.00000000000E+00  0.25462474640E+04  0.25462474640E+04  0.25500000000E-02 0. -1.
         -2   -1    0    0    0  501 -0.00000000000E+00 -0.00000000000E+00 -0.69169157182E+03  0.69169157183E+03  0.25500000000E-02 0.  1.
    8880023    1    1    2    0    0  0.10562555180E+04  0.39251534032E+02  0.18940317962E+03  0.12597222602E+04  0.65864270000E+03 0.  1.
    8880022    1    1    2    0    0 -0.10562555180E+04 -0.39251534032E+02  0.16651527125E+04  0.19782167756E+04  0.15294330000E+03 0.  0.
<mgrwt>
<rscale>  0 0.11984620E+04</rscale>
<asrwt>0</asrwt>
<pdfrwt beam="1">  1        2 0.39173038E+00 0.12454022E+04</pdfrwt>
<pdfrwt beam="2">  1       -2 0.10641409E+00 0.12454022E+04</pdfrwt>
<totfact> 0.22773883E+00</totfact>
</mgrwt>
</event>
<event>
 4    1  0.3057048E-007  0.6636099E+03  0.7818608E-02  0.1020729E+00
         -2   -1    0    0    0  501 -0.00000000000E+00  0.00000000000E+00  0.35706025838E+03  0.35706025839E+03  0.25500000000E-02 0.  1.
          2   -1    0    0  501    0  0.00000000000E+00 -0.00000000000E+00 -0.10143802662E+04  0.10143802662E+04  0.25500000000E-02 0. -1.
    8880023    1    1    2    0    0  0.36455807346E+02 -0.72379662690E+02  0.28395307380E+02  0.66421708891E+03  0.65864270000E+03 0.  1.
    8880022    1    1    2    0    0 -0.36455807346E+02  0.72379662690E+02 -0.68571531517E+03  0.70722343565E+03  0.15294330000E+03 0.  0.
<mgrwt>
<rscale>  0 0.47424355E+03</rscale>
<asrwt>0</asrwt>
<pdfrwt beam="1">  1        2 0.15605850E+00 0.66360986E+03</pdfrwt>
<pdfrwt beam="2">  1       -2 0.54932348E-01 0.66360986E+03</pdfrwt>
<totfact> 0.78543215E+01</totfact>
</mgrwt>
</event>
<event>
 4    1  0.3057048E-007  0.9005276E+03  0.7818608E-02  0.9525185E-01
         -2   -1    0    0    0  501 -0.00000000000E+00  0.00000000000E+00  0.98995440289E+03  0.98995440289E+03  0.25500000000E-02 0.  1.
          2   -1    0    0  501    0  0.00000000000E+00 -0.00000000000E+00 -0.80529452620E+03  0.80529452620E+03  0.25500000000E-02 0. -1.
    8880023    1    1    2    0    0 -0.36683221760E+03 -0.49251790499E+03  0.55903037395E+03  0.10599362848E+04  0.65864270000E+03 0.  1.
    8880022    1    1    2    0    0  0.36683221760E+03  0.49251790499E+03 -0.37437049726E+03  0.73531264428E+03  0.15294330000E+03 0. -1.
<mgrwt>
<rscale>  0 0.82452219E+03</rscale>
<asrwt>0</asrwt>
<pdfrwt beam="1">  1        2 0.12389147E+00 0.90052761E+03</pdfrwt>
<pdfrwt beam="2">  1       -2 0.15230068E+00 0.90052761E+03</pdfrwt>
<totfact> 0.98314157E+00</totfact>
</mgrwt>
</event>
<event>
 4    1  0.3057048E-007  0.6692770E+03  0.7818608E-02  0.1016187E+00
          2   -1    0    0  501    0  0.00000000000E+00  0.00000000000E+00  0.49063158457E+03  0.49063158458E+03  0.25500000000E-02 0. -1.
         -2   -1    0    0    0  501 -0.00000000000E+00 -0.00000000000E+00 -0.58248381785E+03  0.58248381785E+03  0.25500000000E-02 0.  1.
    8880023    1    1    2    0    0 -0.23021847876E+02 -0.11658266179E+03 -0.34612259387E+03  0.75348031080E+03  0.65864270000E+03 0.  1.
    8880022    1    1    2    0    0  0.23021847876E+02  0.11658266179E+03  0.25427036060E+03  0.31963509163E+03  0.15294330000E+03 0.  0.
<mgrwt>
<rscale>  0 0.49088235E+03</rscale>
<asrwt>0</asrwt>
<pdfrwt beam="1">  1        2 0.75481782E-01 0.66927702E+03</pdfrwt>
<pdfrwt beam="2">  1       -2 0.89612895E-01 0.66927702E+03</pdfrwt>
<totfact> 0.68306200E+01</totfact>
</mgrwt>
</event>
<event>
 4    1  0.3057048E-007  0.7537006E+03  0.7818608E-02  0.9821698E-01
          2   -1    0    0  501    0  0.00000000000E+00  0.00000000000E+00  0.30399161240E+04  0.30399161240E+04  0.25500000000E-02 0. -1.
         -2   -1    0    0    0  501 -0.00000000000E+00 -0.00000000000E+00 -0.32543622094E+03  0.32543622095E+03  0.25500000000E-02 0.  1.
    8880023    1    1    2    0    0  0.34854564568E+03  0.11300554934E+03  0.14768902170E+03  0.76803422756E+03  0.65864270000E+03 0.  0.
    8880022    1    1    2    0    0 -0.34854564568E+03 -0.11300554934E+03  0.25667908814E+04  0.25973181174E+04  0.15294330000E+03 0.  0.
<mgrwt>
<rscale>  0 0.64211008E+03</rscale>
<asrwt>0</asrwt>
<pdfrwt beam="1">  1        2 0.46767939E+00 0.75370056E+03</pdfrwt>
<pdfrwt beam="2">  1       -2 0.50067112E-01 0.75370056E+03</pdfrwt>
<totfact> 0.66085953E+00</totfact>
</mgrwt>
</event>
<event>
 4    1  0.3057048E-007  0.7681506E+03  0.7818608E-02  0.9784446E-01
         -2   -1    0    0    0  501 -0.00000000000E+00  0.00000000000E+00  0.59880371091E+03  0.59880371092E+03  0.25500000000E-02 0.  1.
          2   -1    0    0  501    0  0.00000000000E+00 -0.00000000000E+00 -0.82340956983E+03  0.82340956983E+03  0.25500000000E-02 0. -1.
    8880023    1    1    2    0    0 -0.31145392407E+03 -0.24339601492E+03  0.22885494332E+03  0.80151728505E+03  0.65864270000E+03 0.  1.
    8880022    1    1    2    0    0  0.31145392407E+03  0.24339601492E+03 -0.45346080224E+03  0.62069599570E+03  0.15294330000E+03 0.  0.
<mgrwt>
<rscale>  0 0.66203997E+03</rscale>
<asrwt>0</asrwt>
<pdfrwt beam="1">  1        2 0.12667840E+00 0.76815062E+03</pdfrwt>
<pdfrwt beam="2">  1       -2 0.92123647E-01 0.76815062E+03</pdfrwt>
<totfact> 0.33600743E+01</totfact>
</mgrwt>
</event>
<event>
 4    1  0.3057048E-007  0.6684335E+03  0.7818608E-02  0.1016812E+00
         -2   -1    0    0    0  501 -0.00000000000E+00  0.00000000000E+00  0.25793214323E+03  0.25793214324E+03  0.25500000000E-02 0.  1.
          2   -1    0    0  501    0  0.00000000000E+00 -0.00000000000E+00 -0.18409667942E+04  0.18409667942E+04  0.25500000000E-02 0. -1.
    8880023    1    1    2    0    0 -0.30733212800E+02  0.10976601368E+03 -0.19286133240E+03  0.69570022849E+03  0.65864270000E+03 0.  1.
    8880022    1    1    2    0    0  0.30733212800E+02 -0.10976601368E+03 -0.13901733186E+04  0.14031987090E+04  0.15294330000E+03 0.  0.
<mgrwt>
<rscale>  0 0.48854951E+03</rscale>
<asrwt>0</asrwt>
<pdfrwt beam="1">  1        2 0.28322565E+00 0.66843348E+03</pdfrwt>
<pdfrwt beam="2">  1       -2 0.39681869E-01 0.66843348E+03</pdfrwt>
<totfact> 0.51028020E+01</totfact>
</mgrwt>
</event>
<event>
 4    1  0.3057048E-007  0.7016104E+03  0.7818608E-02  0.9990585E-01
         -2   -1    0    0    0  501 -0.00000000000E+00  0.00000000000E+00  0.49155334776E+03  0.49155334776E+03  0.25500000000E-02 0.  1.
          2   -1    0    0  501    0  0.00000000000E+00 -0.00000000000E+00 -0.27721843494E+04  0.27721843494E+04  0.25500000000E-02 0. -1.
    8880023    1    1    2    0    0  0.23216174197E+03 -0.67437637226E+02  0.22886021827E+03  0.73799330290E+03  0.65864270000E+03 0.  1.
    8880022    1    1    2    0    0 -0.23216174197E+03  0.67437637226E+02 -0.25094912199E+04  0.25257443943E+04  0.15294330000E+03 0.  0.
<mgrwt>
<rscale>  0 0.56064990E+03</rscale>
<asrwt>0</asrwt>
<pdfrwt beam="1">  1        2 0.42648989E+00 0.70161037E+03</pdfrwt>
<pdfrwt beam="2">  1       -2 0.75623594E-01 0.70161037E+03</pdfrwt>
<totfact> 0.40281082E+00</totfact>
</mgrwt>
</event>
<event>
 4    1  0.3057048E-007  0.6768356E+03  0.7818608E-02  0.1011173E+00
          2   -1    0    0  501    0  0.00000000000E+00  0.00000000000E+00  0.75923034768E+03  0.75923034769E+03  0.25500000000E-02 0. -1.
         -2   -1    0    0    0  501 -0.00000000000E+00 -0.00000000000E+00 -0.47850958555E+03  0.47850958555E+03  0.25500000000E-02 0.  1.
    8880023    1    1    2    0    0  0.14318524176E+03 -0.61596937262E+02 -0.20332366816E+03  0.70671558384E+03  0.65864270000E+03 0.  1.
    8880022    1    1    2    0    0 -0.14318524176E+03  0.61596937262E+02  0.48404443030E+03  0.53102434940E+03  0.15294330000E+03 0.  0.
<mgrwt>
<rscale>  0 0.51010943E+03</rscale>
<asrwt>0</asrwt>
<pdfrwt beam="1">  1        2 0.11680467E+00 0.67683558E+03</pdfrwt>
<pdfrwt beam="2">  1       -2 0.73616859E-01 0.67683558E+03</pdfrwt>
<totfact> 0.62568800E+01</totfact>
</mgrwt>
</event>
<event>
 4    1  0.3057048E-007  0.6751335E+03  0.7818608E-02  0.1012222E+00
          2   -1    0    0  501    0  0.00000000000E+00  0.00000000000E+00  0.12119503408E+04  0.12119503408E+04  0.25500000000E-02 0. -1.
         -2   -1    0    0    0  501 -0.00000000000E+00 -0.00000000000E+00 -0.40597640143E+03  0.40597640144E+03  0.25500000000E-02 0.  1.
    8880023    1    1    2    0    0  0.11691803836E+03  0.91242619893E+02 -0.10422219157E+03  0.68313067187E+03  0.65864270000E+03 0.  0.
    8880022    1    1    2    0    0 -0.11691803836E+03 -0.91242619893E+02  0.91019613098E+03  0.93479607041E+03  0.15294330000E+03 0.  0.
<mgrwt>
<rscale>  0 0.50600909E+03</rscale>
<asrwt>0</asrwt>
<pdfrwt beam="1">  1        2 0.18645390E+00 0.67513351E+03</pdfrwt>
<pdfrwt beam="2">  1       -2 0.62457907E-01 0.67513351E+03</pdfrwt>
<totfact> 0.45455761E+01</totfact>
</mgrwt>
</event>
<event>
 4    1  0.3057048E-007  0.6810829E+03  0.7818608E-02  0.1008718E+00
         -2   -1    0    0    0  501 -0.00000000000E+00  0.00000000000E+00  0.63349160043E+03  0.63349160044E+03  0.25500000000E-02 0.  1.
          2   -1    0    0  501    0  0.00000000000E+00 -0.00000000000E+00 -0.59703021216E+03  0.59703021217E+03  0.25500000000E-02 0. -1.
    8880023    1    1    2    0    0  0.17300918377E+03  0.11466537255E+02  0.40725184958E+03  0.79355398959E+03  0.65864270000E+03 0.  0.
    8880022    1    1    2    0    0 -0.17300918377E+03 -0.11466537255E+02 -0.37079046131E+03  0.43696782302E+03  0.15294330000E+03 0.  0.
<mgrwt>
<rscale>  0 0.51987487E+03</rscale>
<asrwt>0</asrwt>
<pdfrwt beam="1">  1        2 0.91850802E-01 0.68108286E+03</pdfrwt>
<pdfrwt beam="2">  1       -2 0.97460247E-01 0.68108286E+03</pdfrwt>
<totfact> 0.44572093E+01</totfact>
</mgrwt>
</event>
<event>
 4    1  0.3057048E-007  0.9462100E+03  0.7818608E-02  0.9455588E-01
         -2   -1    0    0    0  501 -0.00000000000E+00  0.00000000000E+00  0.20522426696E+03  0.20522426697E+03  0.25500000000E-02 0.  1.
          2   -1    0    0  501    0  0.00000000000E+00 -0.00000000000E+00 -0.35710842821E+04  0.35710842821E+04  0.25500000000E-02 0. -1.
    8880023    1    1    2    0    0 -0.67834353029E+03  0.36786993623E+02 -0.13913518885E+04  0.16826091382E+04  0.65864270000E+03 0. -1.
    8880022    1    1    2    0    0  0.67834353029E+03 -0.36786993623E+02 -0.19745081266E+04  0.20936994109E+04  0.15294330000E+03 0.  0.
<mgrwt>
<rscale>  0 0.87638838E+03</rscale>
<asrwt>0</asrwt>
<pdfrwt beam="1">  1        2 0.54939754E+00 0.94621004E+03</pdfrwt>
<pdfrwt beam="2">  1       -2 0.31572967E-01 0.94621004E+03</pdfrwt>
<totfact> 0.70653284E+00</totfact>
</mgrwt>
</event>
<event>
 4    1  0.3057048E-007  0.8865993E+03  0.7818608E-02  0.9547896E-01
          2   -1    0    0  501    0  0.00000000000E+00  0.00000000000E+00  0.25297681841E+04  0.25297681841E+04  0.25500000000E-02 0. -1.
         -2   -1    0    0    0  501 -0.00000000000E+00 -0.00000000000E+00 -0.25642555960E+03  0.25642555961E+03  0.25500000000E-02 0.  1.
    8880023    1    1    2    0    0 -0.56080645034E+03  0.19427865282E+03  0.81492598334E+03  0.12042269862E+04  0.65864270000E+03 0.  0.
    8880022    1    1    2    0    0  0.56080645034E+03 -0.19427865282E+03  0.14584166412E+04  0.15819667575E+04  0.15294330000E+03 0.  0.
<mgrwt>
<rscale>  0 0.80842916E+03</rscale>
<asrwt>0</asrwt>
<pdfrwt beam="1">  1        2 0.38919512E+00 0.88659928E+03</pdfrwt>
<pdfrwt beam="2">  1       -2 0.39450085E-01 0.88659928E+03</pdfrwt>
<totfact> 0.20865074E+01</totfact>
</mgrwt>
</event>
<event>
 4    1  0.3057048E-007  0.7824616E+03  0.7818608E-02  0.9750086E-01
         -2   -1    0    0    0  501 -0.00000000000E+00  0.00000000000E+00  0.45237729159E+03  0.45237729159E+03  0.25500000000E-02 0.  1.
          2   -1    0    0  501    0  0.00000000000E+00 -0.00000000000E+00 -0.18258970894E+04  0.18258970894E+04  0.25500000000E-02 0. -1.
    8880023    1    1    2    0    0 -0.31803565009E+03 -0.27800954122E+03  0.51462203344E+02  0.78415211813E+03  0.65864270000E+03 0.  1.
    8880022    1    1    2    0    0  0.31803565009E+03  0.27800954122E+03 -0.14249820011E+04  0.14941222628E+04  0.15294330000E+03 0.  0.
<mgrwt>
<rscale>  0 0.68111409E+03</rscale>
<asrwt>0</asrwt>
<pdfrwt beam="1">  1        2 0.28090724E+00 0.78246162E+03</pdfrwt>
<pdfrwt beam="2">  1       -2 0.69596508E-01 0.78246162E+03</pdfrwt>
<totfact> 0.16127880E+01</totfact>
</mgrwt>
</event>
<event>
 4    1  0.3057048E-007  0.7362556E+03  0.7818608E-02  0.9870992E-01
          2   -1    0    0  501    0  0.00000000000E+00  0.00000000000E+00  0.84863793774E+03  0.84863793774E+03  0.25500000000E-02 0. -1.
         -2   -1    0    0    0  501 -0.00000000000E+00 -0.00000000000E+00 -0.56376661016E+03  0.56376661017E+03  0.25500000000E-02 0.  1.
    8880023    1    1    2    0    0  0.23981470244E+03  0.22527974385E+03 -0.23994825128E+03  0.77436904900E+03  0.65864270000E+03 0.  1.
    8880022    1    1    2    0    0 -0.23981470244E+03 -0.22527974385E+03  0.52481957886E+03  0.63803549891E+03  0.15294330000E+03 0.  0.
<mgrwt>
<rscale>  0 0.61687984E+03</rscale>
<asrwt>0</asrwt>
<pdfrwt beam="1">  1        2 0.13055968E+00 0.73625557E+03</pdfrwt>
<pdfrwt beam="2">  1       -2 0.86733325E-01 0.73625557E+03</pdfrwt>
<totfact> 0.37169987E+01</totfact>
</mgrwt>
</event>
<event>
 4    1  0.3057048E-007  0.9334512E+03  0.7818608E-02  0.9474335E-01
         -2   -1    0    0    0  501 -0.00000000000E+00  0.00000000000E+00  0.11585907260E+04  0.11585907260E+04  0.25500000000E-02 0.  1.
          2   -1    0    0  501    0  0.00000000000E+00 -0.00000000000E+00 -0.70902665912E+03  0.70902665912E+03  0.25500000000E-02 0. -1.
    8880023    1    1    2    0    0  0.56091088689E+03  0.35057071825E+03  0.67536146336E+03  0.11521476312E+04  0.65864270000E+03 0.  1.
    8880022    1    1    2    0    0 -0.56091088689E+03 -0.35057071825E+03 -0.22579739650E+03  0.71546975395E+03  0.15294330000E+03 0.  0.
<mgrwt>
<rscale>  0 0.86202728E+03</rscale>
<asrwt>0</asrwt>
<pdfrwt beam="1">  1        2 0.10908103E+00 0.93345115E+03</pdfrwt>
<pdfrwt beam="2">  1       -2 0.17824473E+00 0.93345115E+03</pdfrwt>
<totfact> 0.75066466E+00</totfact>
</mgrwt>
</event>
<event>
 4    1  0.3057048E-007  0.7062951E+03  0.7818608E-02  0.9972025E-01
          2   -1    0    0  501    0  0.00000000000E+00  0.00000000000E+00  0.15824737888E+04  0.15824737888E+04  0.25500000000E-02 0. -1.
         -2   -1    0    0    0  501 -0.00000000000E+00 -0.00000000000E+00 -0.27247373471E+03  0.27247373473E+03  0.25500000000E-02 0.  1.
    8880023    1    1    2    0    0 -0.21040901364E+03  0.14412006020E+03  0.24244601844E+03  0.74674816564E+03  0.65864270000E+03 0.  1.
    8880022    1    1    2    0    0  0.21040901364E+03 -0.14412006020E+03  0.10675540357E+04  0.11081993579E+04  0.15294330000E+03 0.  0.
<mgrwt>
<rscale>  0 0.56894092E+03</rscale>
<asrwt>0</asrwt>
<pdfrwt beam="1">  1        2 0.24345751E+00 0.70629509E+03</pdfrwt>
<pdfrwt beam="2">  1       -2 0.41919036E-01 0.70629509E+03</pdfrwt>
<totfact> 0.63153635E+01</totfact>
</mgrwt>
</event>
<event>
 4    1  0.3057048E-007  0.8491817E+03  0.7818608E-02  0.9613105E-01
          2   -1    0    0  501    0  0.00000000000E+00  0.00000000000E+00  0.24620725080E+04  0.24620725080E+04  0.25500000000E-02 0. -1.
         -2   -1    0    0    0  501 -0.00000000000E+00 -0.00000000000E+00 -0.61954781367E+03  0.61954781368E+03  0.25500000000E-02 0.  1.
    8880023    1    1    2    0    0 -0.17744157751E+03 -0.50578035920E+03 -0.27450000252E+03  0.89244593272E+03  0.65864270000E+03 0.  1.
    8880022    1    1    2    0    0  0.17744157751E+03  0.50578035920E+03  0.21170246968E+04  0.21891743889E+04  0.15294330000E+03 0.  0.
<mgrwt>
<rscale>  0 0.76434869E+03</rscale>
<asrwt>0</asrwt>
<pdfrwt beam="1">  1        2 0.37878039E+00 0.84918166E+03</pdfrwt>
<pdfrwt beam="2">  1       -2 0.95315048E-01 0.84918166E+03</pdfrwt>
<totfact> 0.34917281E+00</totfact>
</mgrwt>
</event>
<event>
 4    1  0.3057048E-007  0.7184568E+03  0.7818608E-02  0.9927843E-01
          2   -1    0    0  501    0  0.00000000000E+00  0.00000000000E+00  0.96095096588E+03  0.96095096588E+03  0.25500000000E-02 0. -1.
         -2   -1    0    0    0  501 -0.00000000000E+00 -0.00000000000E+00 -0.32574040147E+03  0.32574040148E+03  0.25500000000E-02 0.  1.
    8880023    1    1    2    0    0 -0.28678412316E+03  0.11171870154E+02  0.20450035709E+03  0.74699434154E+03  0.65864270000E+03 0.  1.
    8880022    1    1    2    0    0  0.28678412316E+03 -0.11171870154E+02  0.43071020732E+03  0.53969702582E+03  0.15294330000E+03 0.  0.
<mgrwt>
<rscale>  0 0.58930685E+03</rscale>
<asrwt>0</asrwt>
<pdfrwt beam="1">  1        2 0.14783861E+00 0.71845678E+03</pdfrwt>
<pdfrwt beam="2">  1       -2 0.50113908E-01 0.71845678E+03</pdfrwt>
<totfact> 0.10214607E+02</totfact>
</mgrwt>
</event>
<event>
 4    1  0.3057048E-007  0.7219857E+03  0.7818608E-02  0.9915923E-01
         -2   -1    0    0    0  501 -0.00000000000E+00  0.00000000000E+00  0.32920766417E+03  0.32920766418E+03  0.25500000000E-02 0.  1.
          2   -1    0    0  501    0  0.00000000000E+00 -0.00000000000E+00 -0.11351051988E+04  0.11351051988E+04  0.25500000000E-02 0. -1.
    8880023    1    1    2    0    0 -0.17801801675E+03 -0.23614142598E+03 -0.86442454850E+03  0.11262740313E+04  0.65864270000E+03 0.  0.
    8880022    1    1    2    0    0  0.17801801675E+03  0.23614142598E+03  0.58527013846E+02  0.33803883167E+03  0.15294330000E+03 0.  0.
<mgrwt>
<rscale>  0 0.59495743E+03</rscale>
<asrwt>0</asrwt>
<pdfrwt beam="1">  1        2 0.17463157E+00 0.72198573E+03</pdfrwt>
<pdfrwt beam="2">  1       -2 0.50647334E-01 0.72198573E+03</pdfrwt>
<totfact> 0.77791813E+01</totfact>
</mgrwt>
</event>
<event>
 4    1  0.3057048E-007  0.7639397E+03  0.7818608E-02  0.9795013E-01
         -2   -1    0    0    0  501 -0.00000000000E+00  0.00000000000E+00  0.96884478443E+03  0.96884478444E+03  0.25500000000E-02 0.  1.
          2   -1    0    0  501    0  0.00000000000E+00 -0.00000000000E+00 -0.37260429113E+03  0.37260429114E+03  0.25500000000E-02 0. -1.
    8880023    1    1    2    0    0 -0.34915728435E+03  0.16698154186E+03  0.26177379854E+03  0.80754527576E+03  0.65864270000E+03 0. -1.
    8880022    1    1    2    0    0  0.34915728435E+03 -0.16698154186E+03  0.33446669476E+03  0.53390379981E+03  0.15294330000E+03 0.  0.
<mgrwt>
<rscale>  0 0.65630873E+03</rscale>
<asrwt>0</asrwt>
<pdfrwt beam="1">  1        2 0.57323737E-01 0.76393969E+03</pdfrwt>
<pdfrwt beam="2">  1       -2 0.14905304E+00 0.76393969E+03</pdfrwt>
<totfact> 0.26546646E+01</totfact>
</mgrwt>
</event>
<event>
 4    1  0.3057048E-007  0.6616916E+03  0.7818608E-02  0.1022487E+00
          2   -1    0    0  501    0  0.00000000000E+00  0.00000000000E+00  0.56063806428E+03  0.56063806428E+03  0.25500000000E-02 0. -1.
         -2   -1    0    0    0  501 -0.00000000000E+00 -0.00000000000E+00 -0.10969156918E+04  0.10969156918E+04  0.25500000000E-02 0.  1.
    8880023    1    1    2    0    0 -0.50011599947E+02  0.39043489771E+02 -0.98083427014E+03  0.11831617074E+04  0.65864270000E+03 0.  1.
    8880022    1    1    2    0    0  0.50011599947E+02 -0.39043489771E+02  0.44455664266E+03  0.47439204860E+03  0.15294330000E+03 0.  0.
<mgrwt>
<rscale>  0 0.46799866E+03</rscale>
<asrwt>0</asrwt>
<pdfrwt beam="1">  1        2 0.86252010E-01 0.66169159E+03</pdfrwt>
<pdfrwt beam="2">  1       -2 0.16875626E+00 0.66169159E+03</pdfrwt>
<totfact> 0.12004773E+01</totfact>
</mgrwt>
</event>
<event>
 4    1  0.3057048E-007  0.9576989E+03  0.7818608E-02  0.9439122E-01
          2   -1    0    0  501    0  0.00000000000E+00  0.00000000000E+00  0.26676500353E+04  0.26676500353E+04  0.25500000000E-02 0. -1.
         -2   -1    0    0    0  501 -0.00000000000E+00 -0.00000000000E+00 -0.30004764891E+03  0.30004764892E+03  0.25500000000E-02 0.  1.
    8880023    1    1    2    0    0 -0.68244242647E+03  0.13285080640E+03  0.80689794590E+03  0.12523064735E+04  0.65864270000E+03 0.  1.
    8880022    1    1    2    0    0  0.68244242647E+03 -0.13285080640E+03  0.15607044405E+04  0.17153912107E+04  0.15294330000E+03 0. -1.
<mgrwt>
<rscale>  0 0.88924814E+03</rscale>
<asrwt>0</asrwt>
<pdfrwt beam="1">  1        2 0.41040771E+00 0.95769891E+03</pdfrwt>
<pdfrwt beam="2">  1       -2 0.46161175E-01 0.95769891E+03</pdfrwt>
<totfact> 0.12610508E+01</totfact>
</mgrwt>
</event>
<event>
 4    1  0.3057048E-007  0.1071269E+04  0.7818608E-02  0.9293739E-01
          2   -1    0    0  501    0  0.00000000000E+00  0.00000000000E+00  0.16031524678E+04  0.16031524678E+04  0.25500000000E-02 0. -1.
         -2   -1    0    0    0  501 -0.00000000000E+00 -0.00000000000E+00 -0.65515666776E+03  0.65515666776E+03  0.25500000000E-02 0.  1.
    8880023    1    1    2    0    0  0.42290452835E+03 -0.73140895900E+03  0.89866458761E+03  0.13982902248E+04  0.65864270000E+03 0.  0.
    8880022    1    1    2    0    0 -0.42290452835E+03  0.73140895900E+03  0.49331212436E+02  0.86001891080E+03  0.15294330000E+03 0. -1.
<mgrwt>
<rscale>  0 0.10136127E+04</rscale>
<asrwt>0</asrwt>
<pdfrwt beam="1">  1        2 0.24663884E+00 0.10712691E+04</pdfrwt>
<pdfrwt beam="2">  1       -2 0.10079334E+00 0.10712691E+04</pdfrwt>
<totfact> 0.89048022E+00</totfact>
</mgrwt>
</event>
<event>
 4    1  0.3057048E-007  0.8216814E+03  0.7818608E-02  0.9665740E-01
          2   -1    0    0  501    0  0.00000000000E+00  0.00000000000E+00  0.98723059466E+03  0.98723059466E+03  0.25500000000E-02 0. -1.
         -2   -1    0    0    0  501 -0.00000000000E+00 -0.00000000000E+00 -0.12519822122E+04  0.12519822122E+04  0.25500000000E-02 0.  1.
    8880023    1    1    2    0    0  0.48744832658E+03  0.61189721300E+02 -0.10296735371E+04  0.13173412057E+04  0.65864270000E+03 0.  0.
    8880022    1    1    2    0    0 -0.48744832658E+03 -0.61189721300E+02  0.76492191951E+03  0.92187160117E+03  0.15294330000E+03 0. -1.
<mgrwt>
<rscale>  0 0.73093772E+03</rscale>
<asrwt>0</asrwt>
<pdfrwt beam="1">  1        2 0.15188163E+00 0.82168136E+03</pdfrwt>
<pdfrwt beam="2">  1       -2 0.19261265E+00 0.82168136E+03</pdfrwt>
<totfact> 0.38711723E+00</totfact>
</mgrwt>
</event>
<event>
 4    1  0.3057048E-007  0.8344741E+03  0.7818608E-02  0.9640689E-01
          2   -1    0    0  501    0  0.00000000000E+00  0.00000000000E+00  0.16999022082E+04  0.16999022082E+04  0.25500000000E-02 0. -1.
         -2   -1    0    0    0  501 -0.00000000000E+00 -0.00000000000E+00 -0.60865985763E+03  0.60865985764E+03  0.25500000000E-02 0.  1.
    8880023    1    1    2    0    0  0.34965894696E+03 -0.37453363742E+03 -0.24467320236E+03  0.86960451181E+03  0.65864270000E+03 0.  1.
    8880022    1    1    2    0    0 -0.34965894696E+03  0.37453363742E+03  0.13359155530E+04  0.14389575541E+04  0.15294330000E+03 0.  0.
<mgrwt>
<rscale>  0 0.74660660E+03</rscale>
<asrwt>0</asrwt>
<pdfrwt beam="1">  1        2 0.26152341E+00 0.83447410E+03</pdfrwt>
<pdfrwt beam="2">  1       -2 0.93639979E-01 0.83447410E+03</pdfrwt>
<totfact> 0.96147134E+00</totfact>
</mgrwt>
</event>
<event>
 4    1  0.3057048E-007  0.8948335E+03  0.7818608E-02  0.9534377E-01
         -2   -1    0    0    0  501 -0.00000000000E+00  0.00000000000E+00  0.81517139249E+03  0.81517139250E+03  0.25500000000E-02 0.  1.
          2   -1    0    0  501    0  0.00000000000E+00 -0.00000000000E+00 -0.12267461041E+04  0.12267461041E+04  0.25500000000E-02 0. -1.
    8880023    1    1    2    0    0  0.20077782057E+03 -0.57149375947E+03  0.43081641022E+03  0.99314139775E+03  0.65864270000E+03 0.  1.
    8880022    1    1    2    0    0 -0.20077782057E+03  0.57149375947E+03 -0.84239112178E+03  0.10487760988E+04  0.15294330000E+03 0.  0.
<mgrwt>
<rscale>  0 0.81796118E+03</rscale>
<asrwt>0</asrwt>
<pdfrwt beam="1">  1        2 0.18873017E+00 0.89483354E+03</pdfrwt>
<pdfrwt beam="2">  1       -2 0.12541098E+00 0.89483354E+03</pdfrwt>
<totfact> 0.87093387E+00</totfact>
</mgrwt>
</event>
<event>
 4    1  0.3057048E-007  0.9996556E+03  0.7818608E-02  0.9382008E-01
         -2   -1    0    0    0  501 -0.00000000000E+00  0.00000000000E+00  0.65863029104E+03  0.65863029104E+03  0.25500000000E-02 0.  1.
          2   -1    0    0  501    0  0.00000000000E+00 -0.00000000000E+00 -0.18039331547E+04  0.18039331547E+04  0.25500000000E-02 0. -1.
    8880023    1    1    2    0    0 -0.68505393198E+03  0.31016498217E+03  0.94890379988E+02  0.10041491903E+04  0.65864270000E+03 0.  0.
    8880022    1    1    2    0    0  0.68505393198E+03 -0.31016498217E+03 -0.12401932437E+04  0.14584142555E+04  0.15294330000E+03 0.  0.
<mgrwt>
<rscale>  0 0.93571233E+03</rscale>
<asrwt>0</asrwt>
<pdfrwt beam="1">  1        2 0.27752818E+00 0.99965565E+03</pdfrwt>
<pdfrwt beam="2">  1       -2 0.10132774E+00 0.99965565E+03</pdfrwt>
<totfact> 0.68593513E+00</totfact>
</mgrwt>
</event>
<event>
 4    1  0.3057048E-007  0.7606254E+03  0.7818608E-02  0.9803491E-01
          2   -1    0    0  501    0  0.00000000000E+00  0.00000000000E+00  0.56606346540E+03  0.56606346541E+03  0.25500000000E-02 0. -1.
         -2   -1    0    0    0  501 -0.00000000000E+00 -0.00000000000E+00 -0.82702693888E+03  0.82702693888E+03  0.25500000000E-02 0.  1.
    8880023    1    1    2    0    0 -0.17789120683E+03 -0.33629679037E+03 -0.50773645700E+03  0.91452027245E+03  0.65864270000E+03 0.  1.
    8880022    1    1    2    0    0  0.17789120683E+03  0.33629679037E+03  0.24677298353E+03  0.47857013185E+03  0.15294330000E+03 0.  0.
<mgrwt>
<rscale>  0 0.65175530E+03</rscale>
<asrwt>0</asrwt>
<pdfrwt beam="1">  1        2 0.87086687E-01 0.76062541E+03</pdfrwt>
<pdfrwt beam="2">  1       -2 0.12723491E+00 0.76062541E+03</pdfrwt>
<totfact> 0.24687186E+01</totfact>
</mgrwt>
</event>
<event>
 4    1  0.3057048E-007  0.6586731E+03  0.7818608E-02  0.1025559E+00
          2   -1    0    0  501    0  0.00000000000E+00  0.00000000000E+00  0.11283549378E+04  0.11283549378E+04  0.25500000000E-02 0. -1.
         -2   -1    0    0    0  501 -0.00000000000E+00 -0.00000000000E+00 -0.14869973091E+03  0.14869973094E+03  0.25500000000E-02 0.  1.
    8880023    1    1    2    0    0 -0.26686844895E+01 -0.57329068794E+01  0.72159794651E+03  0.97701268711E+03  0.65864270000E+03 0.  1.
    8880022    1    1    2    0    0  0.26686844895E+01  0.57329068794E+01  0.25805726041E+03  0.30004198167E+03  0.15294330000E+03 0.  0.
<mgrwt>
<rscale>  0 0.45732797E+03</rscale>
<asrwt>0</asrwt>
<pdfrwt beam="1">  1        2 0.17359306E+00 0.65867306E+03</pdfrwt>
<pdfrwt beam="2">  1       -2 0.22876883E-01 0.65867306E+03</pdfrwt>
<totfact> 0.35657549E+02</totfact>
</mgrwt>
</event>
<event>
 4    1  0.3057048E-007  0.7928336E+03  0.7818608E-02  0.9726511E-01
          2   -1    0    0  501    0  0.00000000000E+00  0.00000000000E+00  0.30156406904E+04  0.30156406904E+04  0.25500000000E-02 0. -1.
         -2   -1    0    0    0  501 -0.00000000000E+00 -0.00000000000E+00 -0.28117538413E+03  0.28117538414E+03  0.25500000000E-02 0.  1.
    8880023    1    1    2    0    0  0.23831272997E+03 -0.37145921322E+03  0.34933846894E+03  0.86638471622E+03  0.65864270000E+03 0.  0.
    8880022    1    1    2    0    0 -0.23831272997E+03  0.37145921322E+03  0.23851268374E+04  0.24304313583E+04  0.15294330000E+03 0. -1.
<mgrwt>
<rscale>  0 0.69460044E+03</rscale>
<asrwt>0</asrwt>
<pdfrwt beam="1">  1        2 0.46394471E+00 0.79283360E+03</pdfrwt>
<pdfrwt beam="2">  1       -2 0.43257753E-01 0.79283360E+03</pdfrwt>
<totfact> 0.91096364E+00</totfact>
</mgrwt>
</event>
<event>
 4    1  0.3057048E-007  0.6803625E+03  0.7818608E-02  0.1009119E+00
          2   -1    0    0  501    0  0.00000000000E+00  0.00000000000E+00  0.56632643845E+03  0.56632643845E+03  0.25500000000E-02 0. -1.
         -2   -1    0    0    0  501 -0.00000000000E+00 -0.00000000000E+00 -0.51308379692E+03  0.51308379693E+03  0.25500000000E-02 0.  1.
    8880023    1    1    2    0    0 -0.15613081702E+03  0.68600577111E+02 -0.22720561845E+03  0.71729733760E+03  0.65864270000E+03 0.  1.
    8880022    1    1    2    0    0  0.15613081702E+03 -0.68600577111E+02  0.28044825998E+03  0.36211289779E+03  0.15294330000E+03 0.  0.
<mgrwt>
<rscale>  0 0.51826135E+03</rscale>
<asrwt>0</asrwt>
<pdfrwt beam="1">  1        2 0.87127144E-01 0.68036246E+03</pdfrwt>
<pdfrwt beam="2">  1       -2 0.78935969E-01 0.68036246E+03</pdfrwt>
<totfact> 0.76963337E+01</totfact>
</mgrwt>
</event>
<event>
 4    1  0.3057048E-007  0.6714049E+03  0.7818608E-02  0.1014675E+00
         -2   -1    0    0    0  501 -0.00000000000E+00  0.00000000000E+00  0.28600110718E+03  0.28600110719E+03  0.25500000000E-02 0.  1.
          2   -1    0    0  501    0  0.00000000000E+00 -0.00000000000E+00 -0.21614032005E+04  0.21614032005E+04  0.25500000000E-02 0. -1.
    8880023    1    1    2    0    0 -0.12988991181E+03  0.10144760386E+02 -0.12184056518E+03  0.68237059941E+03  0.65864270000E+03 0.  1.
    8880022    1    1    2    0    0  0.12988991181E+03 -0.10144760386E+02 -0.17535615282E+04  0.17650337083E+04  0.15294330000E+03 0.  0.
<mgrwt>
<rscale>  0 0.49658121E+03</rscale>
<asrwt>0</asrwt>
<pdfrwt beam="1">  1        2 0.33252356E+00 0.67140488E+03</pdfrwt>
<pdfrwt beam="2">  1       -2 0.44000172E-01 0.67140488E+03</pdfrwt>
<totfact> 0.27870268E+01</totfact>
</mgrwt>
</event>
<event>
 4    1  0.3057048E-007  0.6805142E+03  0.7818608E-02  0.1009034E+00
         -2   -1    0    0    0  501 -0.00000000000E+00  0.00000000000E+00  0.26083316264E+03  0.26083316265E+03  0.25500000000E-02 0.  1.
          2   -1    0    0  501    0  0.00000000000E+00 -0.00000000000E+00 -0.29813114684E+04  0.29813114684E+04  0.25500000000E-02 0. -1.
    8880023    1    1    2    0    0 -0.54525944168E+02  0.16222292452E+03 -0.19728622134E+03  0.70853469585E+03  0.65864270000E+03 0.  1.
    8880022    1    1    2    0    0  0.54525944168E+02 -0.16222292452E+03 -0.25231920844E+04  0.25336099352E+04  0.15294330000E+03 0.  0.
<mgrwt>
<rscale>  0 0.51860255E+03</rscale>
<asrwt>0</asrwt>
<pdfrwt beam="1">  1        2 0.45866328E+00 0.68051419E+03</pdfrwt>
<pdfrwt beam="2">  1       -2 0.40128181E-01 0.68051419E+03</pdfrwt>
<totfact> 0.11310642E+01</totfact>
</mgrwt>
</event>
<event>
 4    1  0.3057048E-007  0.1364183E+04  0.7818608E-02  0.9012025E-01
          2   -1    0    0  501    0  0.00000000000E+00  0.00000000000E+00  0.41435736160E+04  0.41435736161E+04  0.25500000000E-02 0. -1.
         -2   -1    0    0    0  501 -0.00000000000E+00 -0.00000000000E+00 -0.65436336562E+03  0.65436336562E+03  0.25500000000E-02 0.  1.
    8880023    1    1    2    0    0 -0.11903895869E+04  0.10078238383E+03  0.31101531026E+03  0.13991873309E+04  0.65864270000E+03 0.  0.
    8880022    1    1    2    0    0  0.11903895869E+04 -0.10078238383E+03  0.31781949402E+04  0.33987496507E+04  0.15294330000E+03 0.  0.
<mgrwt>
<rscale>  0 0.13223517E+04</rscale>
<asrwt>0</asrwt>
<pdfrwt beam="1">  1        2 0.63747287E+00 0.13641828E+04</pdfrwt>
<pdfrwt beam="2">  1       -2 0.10067129E+00 0.13641828E+04</pdfrwt>
<totfact> 0.20959979E-01</totfact>
</mgrwt>
</event>
<event>
 4    1  0.3057048E-007  0.7879138E+03  0.7818608E-02  0.9737565E-01
         -2   -1    0    0    0  501 -0.00000000000E+00  0.00000000000E+00  0.18785883290E+03  0.18785883292E+03  0.25500000000E-02 0.  1.
          2   -1    0    0  501    0  0.00000000000E+00 -0.00000000000E+00 -0.25511654901E+04  0.25511654901E+04  0.25500000000E-02 0. -1.
    8880023    1    1    2    0    0  0.26986738210E+03  0.33788978457E+03 -0.85575767128E+03  0.11632408644E+04  0.65864270000E+03 0.  0.
    8880022    1    1    2    0    0 -0.26986738210E+03 -0.33788978457E+03 -0.15075489859E+04  0.15757834586E+04  0.15294330000E+03 0.  0.
<mgrwt>
<rscale>  0 0.68823546E+03</rscale>
<asrwt>0</asrwt>
<pdfrwt beam="1">  1        2 0.39248697E+00 0.78791377E+03</pdfrwt>
<pdfrwt beam="2">  1       -2 0.28901361E-01 0.78791377E+03</pdfrwt>
<totfact> 0.37078791E+01</totfact>
</mgrwt>
</event>
<event>
 4    1  0.3057048E-007  0.9186377E+03  0.7818608E-02  0.9496751E-01
          2   -1    0    0  501    0  0.00000000000E+00  0.00000000000E+00  0.21877237094E+04  0.21877237094E+04  0.25500000000E-02 0. -1.
         -2   -1    0    0    0  501 -0.00000000000E+00 -0.00000000000E+00 -0.42960624123E+03  0.42960624123E+03  0.25500000000E-02 0.  1.
    8880023    1    1    2    0    0 -0.84959289882E+02 -0.63471800112E+03  0.17294839548E+04  0.19583181503E+04  0.65864270000E+03 0. -1.
    8880022    1    1    2    0    0  0.84959289882E+02  0.63471800112E+03  0.28633513451E+02  0.65901180034E+03  0.15294330000E+03 0.  0.
<mgrwt>
<rscale>  0 0.84523781E+03</rscale>
<asrwt>0</asrwt>
<pdfrwt beam="1">  1        2 0.33657288E+00 0.91863770E+03</pdfrwt>
<pdfrwt beam="2">  1       -2 0.66093268E-01 0.91863770E+03</pdfrwt>
<totfact> 0.11223929E+01</totfact>
</mgrwt>
</event>
<event>
 4    1  0.3057048E-007  0.6798165E+03  0.7818608E-02  0.1009428E+00
          2   -1    0    0  501    0  0.00000000000E+00  0.00000000000E+00  0.16979062214E+04  0.16979062214E+04  0.25500000000E-02 0. -1.
         -2   -1    0    0    0  501 -0.00000000000E+00 -0.00000000000E+00 -0.13557255741E+03  0.13557255743E+03  0.25500000000E-02 0.  1.
    8880023    1    1    2    0    0 -0.16247761372E+03  0.44060617732E+02  0.86610206000E+03  0.11010373734E+04  0.65864270000E+03 0.  1.
    8880022    1    1    2    0    0  0.16247761372E+03 -0.44060617732E+02  0.69623160396E+03  0.73244140541E+03  0.15294330000E+03 0. -1.
<mgrwt>
<rscale>  0 0.51702753E+03</rscale>
<asrwt>0</asrwt>
<pdfrwt beam="1">  1        2 0.26121634E+00 0.67981653E+03</pdfrwt>
<pdfrwt beam="2">  1       -2 0.20857317E-01 0.67981653E+03</pdfrwt>
<totfact> 0.19956779E+02</totfact>
</mgrwt>
</event>
<event>
 4    1  0.4271329E-007  0.7708460E+03  0.7818608E-02  0.9777796E-01
          2   -1    0    0  501    0  0.00000000000E+00  0.00000000000E+00  0.22102681570E+04  0.22102681570E+04  0.25500000000E-02 0. -1.
         -2   -1    0    0    0  501 -0.00000000000E+00 -0.00000000000E+00 -0.79044245823E+03  0.79044245824E+03  0.25500000000E-02 0.  1.
    8880023    1    1    2    0    0 -0.29399794432E+03  0.27195328885E+03 -0.57414894476E+03  0.96117147253E+03  0.65864270000E+03 0.  1.
    8880022    1    1    2    0    0  0.29399794432E+03 -0.27195328885E+03  0.19939746435E+04  0.20395391427E+04  0.15294330000E+03 0.  0.
<mgrwt>
<rscale>  0 0.66567845E+03</rscale>
<asrwt>0</asrwt>
<pdfrwt beam="1">  1        2 0.34004125E+00 0.77084602E+03</pdfrwt>
<pdfrwt beam="2">  1       -2 0.12160653E+00 0.77084602E+03</pdfrwt>
<totfact> 0.27177030E+00</totfact>
</mgrwt>
</event>
<event>
 4    1  0.3057048E-007  0.8903725E+03  0.7818608E-02  0.9541667E-01
         -2   -1    0    0    0  501 -0.00000000000E+00  0.00000000000E+00  0.78365623251E+03  0.78365623251E+03  0.25500000000E-02 0.  1.
          2   -1    0    0  501    0  0.00000000000E+00 -0.00000000000E+00 -0.87567251101E+03  0.87567251102E+03  0.25500000000E-02 0. -1.
    8880023    1    1    2    0    0  0.14969050775E+03 -0.58012563832E+03  0.28529230856E+03  0.93496251900E+03  0.65864270000E+03 0.  1.
    8880022    1    1    2    0    0 -0.14969050775E+03  0.58012563832E+03 -0.37730858706E+03  0.72436622453E+03  0.15294330000E+03 0.  0.
<mgrwt>
<rscale>  0 0.81280373E+03</rscale>
<asrwt>0</asrwt>
<pdfrwt beam="1">  1        2 0.13471885E+00 0.89037251E+03</pdfrwt>
<pdfrwt beam="2">  1       -2 0.12056250E+00 0.89037251E+03</pdfrwt>
<totfact> 0.16020272E+01</totfact>
</mgrwt>
</event>
<event>
 4    1  0.3057048E-007  0.7239410E+03  0.7818608E-02  0.9909470E-01
          2   -1    0    0  501    0  0.00000000000E+00  0.00000000000E+00  0.94032838384E+03  0.94032838385E+03  0.25500000000E-02 0. -1.
         -2   -1    0    0    0  501 -0.00000000000E+00 -0.00000000000E+00 -0.40038337635E+03  0.40038337636E+03  0.25500000000E-02 0.  1.
    8880023    1    1    2    0    0  0.10626546130E+02 -0.30027887023E+03  0.23955059802E+02  0.72433719671E+03  0.65864270000E+03 0.  1.
    8880022    1    1    2    0    0 -0.10626546130E+02  0.30027887023E+03  0.51598994769E+03  0.61637456349E+03  0.15294330000E+03 0.  0.
<mgrwt>
<rscale>  0 0.59804525E+03</rscale>
<asrwt>0</asrwt>
<pdfrwt beam="1">  1        2 0.14466591E+00 0.72394097E+03</pdfrwt>
<pdfrwt beam="2">  1       -2 0.61597442E-01 0.72394097E+03</pdfrwt>
<totfact> 0.68593609E+01</totfact>
</mgrwt>
</event>
<event>
 4    1  0.3057048E-007  0.7329135E+03  0.7818608E-02  0.9881092E-01
         -2   -1    0    0    0  501 -0.00000000000E+00  0.00000000000E+00  0.39113851657E+03  0.39113851658E+03  0.25500000000E-02 0.  1.
          2   -1    0    0  501    0  0.00000000000E+00 -0.00000000000E+00 -0.10444921947E+04  0.10444921947E+04  0.25500000000E-02 0. -1.
    8880023    1    1    2    0    0  0.23383230420E+03 -0.22062287318E+03 -0.49423908315E+02  0.73457806096E+03  0.65864270000E+03 0.  1.
    8880022    1    1    2    0    0 -0.23383230420E+03  0.22062287318E+03 -0.60392976984E+03  0.70105265036E+03  0.15294330000E+03 0.  0.
<mgrwt>
<rscale>  0 0.61186459E+03</rscale>
<asrwt>0</asrwt>
<pdfrwt beam="1">  1        2 0.16069111E+00 0.73291350E+03</pdfrwt>
<pdfrwt beam="2">  1       -2 0.60175157E-01 0.73291350E+03</pdfrwt>
<totfact> 0.61766348E+01</totfact>
</mgrwt>
</event>
<event>
 4    1  0.3057048E-007  0.1842334E+04  0.7818608E-02  0.8699474E-01
         -2   -1    0    0    0  501 -0.00000000000E+00  0.00000000000E+00  0.22655857382E+04  0.22655857382E+04  0.25500000000E-02 0.  1.
          2   -1    0    0  501    0  0.00000000000E+00 -0.00000000000E+00 -0.17281380140E+04  0.17281380140E+04  0.25500000000E-02 0. -1.
    8880023    1    1    2    0    0 -0.10958208722E+04 -0.13264838287E+04  0.11373895018E+04  0.21651438329E+04  0.65864270000E+03 0.  0.
    8880022    1    1    2    0    0  0.10958208722E+04  0.13264838287E+04 -0.59994177758E+03  0.18285799193E+04  0.15294330000E+03 0.  0.
<mgrwt>
<rscale>  0 0.18128921E+04</rscale>
<asrwt>0</asrwt>
<pdfrwt beam="1">  1        2 0.26586739E+00 0.18423336E+04</pdfrwt>
<pdfrwt beam="2">  1       -2 0.34855165E+00 0.18423336E+04</pdfrwt>
<totfact> 0.13612366E-01</totfact>
</mgrwt>
</event>
<event>
 4    1  0.3057048E-007  0.9997666E+03  0.7818608E-02  0.9381863E-01
         -2   -1    0    0    0  501 -0.00000000000E+00  0.00000000000E+00  0.34384221688E+03  0.34384221689E+03  0.25500000000E-02 0.  1.
          2   -1    0    0  501    0  0.00000000000E+00 -0.00000000000E+00 -0.24786059159E+04  0.24786059159E+04  0.25500000000E-02 0. -1.
    8880023    1    1    2    0    0 -0.32594133798E+03  0.67785346323E+03 -0.16011368209E+04  0.18876367232E+04  0.65864270000E+03 0. -1.
    8880022    1    1    2    0    0  0.32594133798E+03 -0.67785346323E+03 -0.53362687818E+03  0.93481140962E+03  0.15294330000E+03 0.  1.
<mgrwt>
<rscale>  0 0.93583430E+03</rscale>
<asrwt>0</asrwt>
<pdfrwt beam="1">  1        2 0.38132398E+00 0.99976661E+03</pdfrwt>
<pdfrwt beam="2">  1       -2 0.52898804E-01 0.99976661E+03</pdfrwt>
<totfact> 0.12214218E+01</totfact>
</mgrwt>
</event>
<event>
 4    1  0.3057048E-007  0.8161027E+03  0.7818608E-02  0.9677003E-01
          2   -1    0    0  501    0  0.00000000000E+00  0.00000000000E+00  0.76942152676E+03  0.76942152676E+03  0.25500000000E-02 0. -1.
         -2   -1    0    0    0  501 -0.00000000000E+00 -0.00000000000E+00 -0.90778456515E+03  0.90778456516E+03  0.25500000000E-02 0.  1.
    8880023    1    1    2    0    0 -0.15592581624E+02 -0.48163290721E+03 -0.58378350667E+03  0.10034075816E+04  0.65864270000E+03 0.  0.
    8880022    1    1    2    0    0  0.15592581624E+02  0.48163290721E+03  0.44542046828E+03  0.67379851031E+03  0.15294330000E+03 0.  0.
<mgrwt>
<rscale>  0 0.72402703E+03</rscale>
<asrwt>0</asrwt>
<pdfrwt beam="1">  1        2 0.11837254E+00 0.81610268E+03</pdfrwt>
<pdfrwt beam="2">  1       -2 0.13965916E+00 0.81610268E+03</pdfrwt>
<totfact> 0.13220087E+01</totfact>
</mgrwt>
</event>
<event>
 4    1  0.3057048E-007  0.8024854E+03  0.7818608E-02  0.9705448E-01
          2   -1    0    0  501    0  0.00000000000E+00  0.00000000000E+00  0.14358894299E+04  0.14358894299E+04  0.25500000000E-02 0. -1.
         -2   -1    0    0    0  501 -0.00000000000E+00 -0.00000000000E+00 -0.41823068788E+03  0.41823068788E+03  0.25500000000E-02 0.  1.
    8880023    1    1    2    0    0 -0.39166631961E+03  0.23826488234E+03  0.89221500635E+02  0.80743008521E+03  0.65864270000E+03 0.  1.
    8880022    1    1    2    0    0  0.39166631961E+03 -0.23826488234E+03  0.92843724138E+03  0.10466900326E+04  0.15294330000E+03 0.  0.
<mgrwt>
<rscale>  0 0.70693369E+03</rscale>
<asrwt>0</asrwt>
<pdfrwt beam="1">  1        2 0.22090607E+00 0.80248543E+03</pdfrwt>
<pdfrwt beam="2">  1       -2 0.64343183E-01 0.80248543E+03</pdfrwt>
<totfact> 0.31303691E+01</totfact>
</mgrwt>
</event>
<event>
 4    1  0.3057048E-007  0.7674859E+03  0.7818608E-02  0.9786099E-01
          2   -1    0    0  501    0  0.00000000000E+00  0.00000000000E+00  0.13006600005E+04  0.13006600005E+04  0.25500000000E-02 0. -1.
         -2   -1    0    0    0  501 -0.00000000000E+00 -0.00000000000E+00 -0.99175950570E+03  0.99175950571E+03  0.25500000000E-02 0.  1.
    8880023    1    1    2    0    0 -0.20061105807E+03 -0.33908634227E+03 -0.79824413053E+03  0.11073519054E+04  0.65864270000E+03 0.  1.
    8880022    1    1    2    0    0  0.20061105807E+03  0.33908634227E+03  0.11071446253E+04  0.11850676008E+04  0.15294330000E+03 0.  0.
<mgrwt>
<rscale>  0 0.66113909E+03</rscale>
<asrwt>0</asrwt>
<pdfrwt beam="1">  1        2 0.20010154E+00 0.76748586E+03</pdfrwt>
<pdfrwt beam="2">  1       -2 0.15257839E+00 0.76748586E+03</pdfrwt>
<totfact> 0.48266133E+00</totfact>
</mgrwt>
</event>
<event>
 4    1  0.3057048E-007  0.7161152E+03  0.7818608E-02  0.9935957E-01
         -2   -1    0    0    0  501 -0.00000000000E+00  0.00000000000E+00  0.20701644616E+03  0.20701644618E+03  0.25500000000E-02 0.  1.
          2   -1    0    0  501    0  0.00000000000E+00 -0.00000000000E+00 -0.23006843769E+04  0.23006843769E+04  0.25500000000E-02 0. -1.
    8880023    1    1    2    0    0 -0.19545952378E+03 -0.20200571007E+03 -0.47880706375E+03  0.86143899546E+03  0.65864270000E+03 0.  0.
    8880022    1    1    2    0    0  0.19545952378E+03  0.20200571007E+03 -0.16148608669E+04  0.16462618276E+04  0.15294330000E+03 0.  0.
<mgrwt>
<rscale>  0 0.58549867E+03</rscale>
<asrwt>0</asrwt>
<pdfrwt beam="1">  1        2 0.35395143E+00 0.71611517E+03</pdfrwt>
<pdfrwt beam="2">  1       -2 0.31848686E-01 0.71611517E+03</pdfrwt>
<totfact> 0.43232849E+01</totfact>
</mgrwt>
</event>
<event>
 4    1  0.3057048E-007  0.7519691E+03  0.7818608E-02  0.9826361E-01
         -2   -1    0    0    0  501 -0.00000000000E+00  0.00000000000E+00  0.16709510271E+04  0.16709510271E+04  0.25500000000E-02 0.  1.
          2   -1    0    0  501    0  0.00000000000E+00 -0.00000000000E+00 -0.52576064152E+03  0.52576064152E+03  0.25500000000E-02 0. -1.
    8880023    1    1    2    0    0 -0.28617250279E+03  0.22305282146E+03  0.14927858336E+04  0.16714864683E+04  0.65864270000E+03 0.  1.
    8880022    1    1    2    0    0  0.28617250279E+03 -0.22305282146E+03 -0.34759544803E+03  0.52522520029E+03  0.15294330000E+03 0.  0.
<mgrwt>
<rscale>  0 0.63966865E+03</rscale>
<asrwt>0</asrwt>
<pdfrwt beam="1">  1        2 0.80886251E-01 0.75196906E+03</pdfrwt>
<pdfrwt beam="2">  1       -2 0.25706939E+00 0.75196906E+03</pdfrwt>
<totfact> 0.34799590E+00</totfact>
</mgrwt>
</event>
<event>
 4    1  0.3057048E-007  0.9018010E+03  0.7818608E-02  0.9523147E-01
          2   -1    0    0  501    0  0.00000000000E+00  0.00000000000E+00  0.21836655535E+04  0.21836655535E+04  0.25500000000E-02 0. -1.
         -2   -1    0    0    0  501 -0.00000000000E+00 -0.00000000000E+00 -0.51846074161E+03  0.51846074162E+03  0.25500000000E-02 0.  1.
    8880023    1    1    2    0    0  0.25177193224E+03  0.56217936881E+03  0.18354329499E+04  0.20450083297E+04  0.65864270000E+03 0.  0.
    8880022    1    1    2    0    0 -0.25177193224E+03 -0.56217936881E+03 -0.17022813799E+03  0.65711796548E+03  0.15294330000E+03 0.  0.
<mgrwt>
<rscale>  0 0.82598614E+03</rscale>
<asrwt>0</asrwt>
<pdfrwt beam="1">  1        2 0.33594856E+00 0.90180095E+03</pdfrwt>
<pdfrwt beam="2">  1       -2 0.79763189E-01 0.90180095E+03</pdfrwt>
<totfact> 0.74669166E+00</totfact>
</mgrwt>
</event>
<event>
 4    1  0.3057048E-007  0.7281696E+03  0.7818608E-02  0.9895854E-01
          2   -1    0    0  501    0  0.00000000000E+00  0.00000000000E+00  0.86026835103E+03  0.86026835103E+03  0.25500000000E-02 0. -1.
         -2   -1    0    0    0  501 -0.00000000000E+00 -0.00000000000E+00 -0.33887360616E+03  0.33887360617E+03  0.25500000000E-02 0.  1.
    8880023    1    1    2    0    0 -0.65186340884E+02 -0.30359763974E+03  0.29568411700E+03  0.78591353800E+03  0.65864270000E+03 0. -1.
    8880022    1    1    2    0    0  0.65186340884E+02  0.30359763974E+03  0.22571062786E+03  0.41322841921E+03  0.15294330000E+03 0.  1.
<mgrwt>
<rscale>  0 0.60462647E+03</rscale>
<asrwt>0</asrwt>
<pdfrwt beam="1">  1        2 0.13234897E+00 0.72816962E+03</pdfrwt>
<pdfrwt beam="2">  1       -2 0.52134402E-01 0.72816962E+03</pdfrwt>
<totfact> 0.10993533E+02</totfact>
</mgrwt>
</event>
<event>
 4    1  0.3057048E-007  0.8062477E+03  0.7818608E-02  0.9697447E-01
         -2   -1    0    0    0  501 -0.00000000000E+00  0.00000000000E+00  0.56720499376E+03  0.56720499376E+03  0.25500000000E-02 0.  1.
          2   -1    0    0  501    0  0.00000000000E+00 -0.00000000000E+00 -0.11370517222E+04  0.11370517222E+04  0.25500000000E-02 0. -1.
    8880023    1    1    2    0    0 -0.11867150335E+03  0.44960230593E+03  0.16339021244E+03  0.82263705666E+03  0.65864270000E+03 0.  1.
    8880022    1    1    2    0    0  0.11867150335E+03 -0.44960230593E+03 -0.73323694090E+03  0.88161965933E+03  0.15294330000E+03 0.  0.
<mgrwt>
<rscale>  0 0.71169027E+03</rscale>
<asrwt>0</asrwt>
<pdfrwt beam="1">  1        2 0.17493103E+00 0.80624771E+03</pdfrwt>
<pdfrwt beam="2">  1       -2 0.87262307E-01 0.80624771E+03</pdfrwt>
<totfact> 0.23745563E+01</totfact>
</mgrwt>
</event>
<event>
 4    1  0.3057048E-007  0.8531409E+03  0.7818608E-02  0.9605883E-01
          2   -1    0    0  501    0  0.00000000000E+00  0.00000000000E+00  0.14005078834E+04  0.14005078834E+04  0.25500000000E-02 0. -1.
         -2   -1    0    0    0  501 -0.00000000000E+00 -0.00000000000E+00 -0.71637479743E+03  0.71637479743E+03  0.25500000000E-02 0.  1.
    8880023    1    1    2    0    0  0.28668211667E+03 -0.46027449818E+03 -0.36350570986E+03  0.92735422415E+03  0.65864270000E+03 0.  0.
    8880022    1    1    2    0    0 -0.28668211667E+03  0.46027449818E+03  0.10476387958E+04  0.11895284567E+04  0.15294330000E+03 0.  0.
<mgrwt>
<rscale>  0 0.76908039E+03</rscale>
<asrwt>0</asrwt>
<pdfrwt beam="1">  1        2 0.21546275E+00 0.85314094E+03</pdfrwt>
<pdfrwt beam="2">  1       -2 0.11021151E+00 0.85314094E+03</pdfrwt>
<totfact> 0.95504967E+00</totfact>
</mgrwt>
</event>
<event>
 4    1  0.3057048E-007  0.6796022E+03  0.7818608E-02  0.1009550E+00
          2   -1    0    0  501    0  0.00000000000E+00  0.00000000000E+00  0.32507364142E+04  0.32507364142E+04  0.25500000000E-02 0. -1.
         -2   -1    0    0    0  501 -0.00000000000E+00 -0.00000000000E+00 -0.17488710539E+03  0.17488710540E+03  0.25500000000E-02 0.  1.
    8880023    1    1    2    0    0  0.16346866059E+03 -0.36427287500E+02  0.50977819508E+03  0.84954868296E+03  0.65864270000E+03 0.  1.
    8880022    1    1    2    0    0 -0.16346866059E+03  0.36427287500E+02  0.25660711138E+04  0.25760748367E+04  0.15294330000E+03 0.  0.
<mgrwt>
<rscale>  0 0.51654046E+03</rscale>
<asrwt>0</asrwt>
<pdfrwt beam="1">  1        2 0.50011329E+00 0.67960220E+03</pdfrwt>
<pdfrwt beam="2">  1       -2 0.26905709E-01 0.67960220E+03</pdfrwt>
<totfact> 0.16300071E+01</totfact>
</mgrwt>
</event>
<event>
 4    1  0.3057048E-007  0.6782117E+03  0.7818608E-02  0.1010354E+00
         -2   -1    0    0    0  501 -0.00000000000E+00  0.00000000000E+00  0.24982093542E+04  0.24982093542E+04  0.25500000000E-02 0.  1.
          2   -1    0    0  501    0  0.00000000000E+00 -0.00000000000E+00 -0.27178338003E+03  0.27178338004E+03  0.25500000000E-02 0. -1.
    8880023    1    1    2    0    0  0.16172743849E+03  0.22641172797E+01  0.23960123011E+04  0.24901498035E+04  0.65864270000E+03 0.  1.
    8880022    1    1    2    0    0 -0.16172743849E+03 -0.22641172797E+01 -0.16958632693E+03  0.27984293074E+03  0.15294330000E+03 0.  0.
<mgrwt>
<rscale>  0 0.51334247E+03</rscale>
<asrwt>0</asrwt>
<pdfrwt beam="1">  1        2 0.41812828E-01 0.67821169E+03</pdfrwt>
<pdfrwt beam="2">  1       -2 0.38433990E+00 0.67821169E+03</pdfrwt>
<totfact> 0.12338442E+00</totfact>
</mgrwt>
</event>
<event>
 4    1  0.3057048E-007  0.1189318E+04  0.7818608E-02  0.9167577E-01
          2   -1    0    0  501    0  0.00000000000E+00  0.00000000000E+00  0.11396544764E+04  0.11396544764E+04  0.25500000000E-02 0. -1.
         -2   -1    0    0    0  501 -0.00000000000E+00 -0.00000000000E+00 -0.14842031858E+04  0.14842031858E+04  0.25500000000E-02 0.  1.
    8880023    1    1    2    0    0  0.78905527415E+01  0.99025449864E+03 -0.88771073529E+03  0.14840844951E+04  0.65864270000E+03 0.  0.
    8880022    1    1    2    0    0 -0.78905527415E+01 -0.99025449864E+03  0.54316202589E+03  0.11397731670E+04  0.15294330000E+03 0.  0.
<mgrwt>
<rscale>  0 0.11394447E+04</rscale>
<asrwt>0</asrwt>
<pdfrwt beam="1">  1        2 0.17533146E+00 0.11893176E+04</pdfrwt>
<pdfrwt beam="2">  1       -2 0.22833895E+00 0.11893176E+04</pdfrwt>
<totfact> 0.17553544E+00</totfact>
</mgrwt>
</event>
<event>
 4    1  0.3057048E-007  0.8174753E+03  0.7818608E-02  0.9674212E-01
          2   -1    0    0  501    0  0.00000000000E+00  0.00000000000E+00  0.18263234097E+04  0.18263234097E+04  0.25500000000E-02 0. -1.
         -2   -1    0    0    0  501 -0.00000000000E+00 -0.00000000000E+00 -0.42145941298E+03  0.42145941298E+03  0.25500000000E-02 0.  1.
    8880023    1    1    2    0    0  0.45534906861E+03  0.16465977785E+03  0.71022623447E+02  0.82055471239E+03  0.65864270000E+03 0.  1.
    8880022    1    1    2    0    0 -0.45534906861E+03 -0.16465977785E+03  0.13338413733E+04  0.14272281103E+04  0.15294330000E+03 0.  0.
<mgrwt>
<rscale>  0 0.72573202E+03</rscale>
<asrwt>0</asrwt>
<pdfrwt beam="1">  1        2 0.28097284E+00 0.81747527E+03</pdfrwt>
<pdfrwt beam="2">  1       -2 0.64839908E-01 0.81747527E+03</pdfrwt>
<totfact> 0.18706518E+01</totfact>
</mgrwt>
</event>
<event>
 4    1  0.3057048E-007  0.1155814E+04  0.7818608E-02  0.9201318E-01
         -2   -1    0    0    0  501 -0.00000000000E+00  0.00000000000E+00  0.39611987541E+03  0.39611987542E+03  0.25500000000E-02 0.  1.
          2   -1    0    0  501    0  0.00000000000E+00 -0.00000000000E+00 -0.30215320796E+04  0.30215320796E+04  0.25500000000E-02 0. -1.
    8880023    1    1    2    0    0  0.60930631369E+03 -0.72858944796E+03 -0.99751470064E+03  0.15267424641E+04  0.65864270000E+03 0.  0.
    8880022    1    1    2    0    0 -0.60930631369E+03  0.72858944796E+03 -0.16278975036E+04  0.18909094909E+04  0.15294330000E+03 0.  0.
<mgrwt>
<rscale>  0 0.11039832E+04</rscale>
<asrwt>0</asrwt>
<pdfrwt beam="1">  1        2 0.46485107E+00 0.11558144E+04</pdfrwt>
<pdfrwt beam="2">  1       -2 0.60941521E-01 0.11558144E+04</pdfrwt>
<totfact> 0.42382878E+00</totfact>
</mgrwt>
</event>
<event>
 4    1  0.3057048E-007  0.1380345E+04  0.7818608E-02  0.8999108E-01
         -2   -1    0    0    0  501 -0.00000000000E+00  0.00000000000E+00  0.23217061349E+04  0.23217061349E+04  0.25500000000E-02 0.  1.
          2   -1    0    0  501    0  0.00000000000E+00 -0.00000000000E+00 -0.12109730308E+04  0.12109730308E+04  0.25500000000E-02 0. -1.
    8880023    1    1    2    0    0  0.60933787709E+03  0.10489275681E+04  0.16880450634E+04  0.21805614034E+04  0.65864270000E+03 0.  1.
    8880022    1    1    2    0    0 -0.60933787709E+03 -0.10489275681E+04 -0.57731195940E+03  0.13521177623E+04  0.15294330000E+03 0.  0.
<mgrwt>
<rscale>  0 0.13391167E+04</rscale>
<asrwt>0</asrwt>
<pdfrwt beam="1">  1        2 0.18630354E+00 0.13803448E+04</pdfrwt>
<pdfrwt beam="2">  1       -2 0.35718556E+00 0.13803448E+04</pdfrwt>
<totfact> 0.25072596E-01</totfact>
</mgrwt>
</event>
<event>
 4    1  0.3057048E-007  0.6937259E+03  0.7818608E-02  0.1002430E+00
          2   -1    0    0  501    0  0.00000000000E+00  0.00000000000E+00  0.57974362844E+03  0.57974362844E+03  0.25500000000E-02 0. -1.
         -2   -1    0    0    0  501 -0.00000000000E+00 -0.00000000000E+00 -0.40587339233E+03  0.40587339233E+03  0.25500000000E-02 0.  1.
    8880023    1    1    2    0    0 -0.18260240742E+03 -0.11875083615E+03  0.60611506212E+02  0.69636869633E+03  0.65864270000E+03 0.  0.
    8880022    1    1    2    0    0  0.18260240742E+03  0.11875083615E+03  0.11325872990E+03  0.28924832444E+03  0.15294330000E+03 0.  1.
<mgrwt>
<rscale>  0 0.54597592E+03</rscale>
<asrwt>0</asrwt>
<pdfrwt beam="1">  1        2 0.89191328E-01 0.69372589E+03</pdfrwt>
<pdfrwt beam="2">  1       -2 0.62442060E-01 0.69372589E+03</pdfrwt>
<totfact> 0.12472474E+02</totfact>
</mgrwt>
</event>
<event>
 4    1  0.3057048E-007  0.6957028E+03  0.7818608E-02  0.1001552E+00
          2   -1    0    0  501    0  0.00000000000E+00  0.00000000000E+00  0.12117101433E+04  0.12117101433E+04  0.25500000000E-02 0. -1.
         -2   -1    0    0    0  501 -0.00000000000E+00 -0.00000000000E+00 -0.87277483744E+03  0.87277483744E+03  0.25500000000E-02 0.  1.
    8880023    1    1    2    0    0 -0.12028278783E+03 -0.18900837288E+03 -0.71416290641E+03  0.99701102162E+03  0.65864270000E+03 0.  1.
    8880022    1    1    2    0    0  0.12028278783E+03  0.18900837288E+03  0.10530982123E+04  0.10874739591E+04  0.15294330000E+03 0.  0.
<mgrwt>
<rscale>  0 0.54975039E+03</rscale>
<asrwt>0</asrwt>
<pdfrwt beam="1">  1        2 0.18641694E+00 0.69570275E+03</pdfrwt>
<pdfrwt beam="2">  1       -2 0.13427305E+00 0.69570275E+03</pdfrwt>
<totfact> 0.76653565E+00</totfact>
</mgrwt>
</event>
<event>
 4    1  0.3057048E-007  0.7076398E+03  0.7818608E-02  0.9966872E-01
          2   -1    0    0  501    0  0.00000000000E+00  0.00000000000E+00  0.22199533139E+04  0.22199533139E+04  0.25500000000E-02 0. -1.
         -2   -1    0    0    0  501 -0.00000000000E+00 -0.00000000000E+00 -0.14416909424E+03  0.14416909427E+03  0.25500000000E-02 0.  1.
    8880023    1    1    2    0    0 -0.20505017879E+03  0.15779188164E+03  0.87004294591E+03  0.11214850814E+04  0.65864270000E+03 0.  1.
    8880022    1    1    2    0    0  0.20505017879E+03 -0.15779188164E+03  0.12057412737E+04  0.12426373268E+04  0.15294330000E+03 0.  0.
<mgrwt>
<rscale>  0 0.57127010E+03</rscale>
<asrwt>0</asrwt>
<pdfrwt beam="1">  1        2 0.34153129E+00 0.70763978E+03</pdfrwt>
<pdfrwt beam="2">  1       -2 0.22179860E-01 0.70763978E+03</pdfrwt>
<totfact> 0.92681911E+01</totfact>
</mgrwt>
</event>
<event>
 4    1  0.3057048E-007  0.6795514E+03  0.7818608E-02  0.1009579E+00
          2   -1    0    0  501    0  0.00000000000E+00  0.00000000000E+00  0.24662727734E+04  0.24662727734E+04  0.25500000000E-02 0. -1.
         -2   -1    0    0    0  501 -0.00000000000E+00 -0.00000000000E+00 -0.42338433441E+03  0.42338433442E+03  0.25500000000E-02 0.  1.
    8880023    1    1    2    0    0  0.16712976596E+03 -0.68943967742E+01 -0.14101118611E+03  0.69402755871E+03  0.65864270000E+03 0.  1.
    8880022    1    1    2    0    0 -0.16712976596E+03  0.68943967742E+01  0.21838996251E+04  0.21956295492E+04  0.15294330000E+03 0.  0.
<mgrwt>
<rscale>  0 0.51642476E+03</rscale>
<asrwt>0</asrwt>
<pdfrwt beam="1">  1        2 0.37942658E+00 0.67955139E+03</pdfrwt>
<pdfrwt beam="2">  1       -2 0.65136051E-01 0.67955139E+03</pdfrwt>
<totfact> 0.83986049E+00</totfact>
</mgrwt>
</event>
<event>
 4    1  0.3925665E-007  0.9248341E+03  0.7818608E-02  0.9487286E-01
         -2   -1    0    0    0  501 -0.00000000000E+00  0.00000000000E+00  0.10330146927E+04  0.10330146927E+04  0.25500000000E-02 0.  1.
          2   -1    0    0  501    0  0.00000000000E+00 -0.00000000000E+00 -0.25473563800E+04  0.25473563800E+04  0.25500000000E-02 0. -1.
    8880023    1    1    2    0    0 -0.49438198507E+03 -0.42082588488E+03  0.76826258607E+03  0.12023084379E+04  0.65864270000E+03 0.  0.
    8880022    1    1    2    0    0  0.49438198507E+03  0.42082588488E+03 -0.22826042734E+04  0.23780626347E+04  0.15294330000E+03 0.  0.
<mgrwt>
<rscale>  0 0.85227675E+03</rscale>
<asrwt>0</asrwt>
<pdfrwt beam="1">  1        2 0.39190098E+00 0.92483414E+03</pdfrwt>
<pdfrwt beam="2">  1       -2 0.15892534E+00 0.92483414E+03</pdfrwt>
<totfact> 0.85441791E-01</totfact>
</mgrwt>
</event>
<event>
 4    1  0.3057048E-007  0.8560650E+03  0.7818608E-02  0.9600602E-01
          2   -1    0    0  501    0  0.00000000000E+00  0.00000000000E+00  0.39743372494E+04  0.39743372494E+04  0.25500000000E-02 0. -1.
         -2   -1    0    0    0  501 -0.00000000000E+00 -0.00000000000E+00 -0.26089354262E+03  0.26089354263E+03  0.25500000000E-02 0.  1.
    8880023    1    1    2    0    0 -0.49963733961E+03  0.22226012759E+03  0.54169590028E+03  0.10130556204E+04  0.65864270000E+03 0.  1.
    8880022    1    1    2    0    0  0.49963733961E+03 -0.22226012759E+03  0.31717478065E+04  0.32221751716E+04  0.15294330000E+03 0.  0.
<mgrwt>
<rscale>  0 0.77256362E+03</rscale>
<asrwt>0</asrwt>
<pdfrwt beam="1">  1        2 0.61143646E+00 0.85606498E+03</pdfrwt>
<pdfrwt beam="2">  1       -2 0.40137471E-01 0.85606498E+03</pdfrwt>
<totfact> 0.22814590E+00</totfact>
</mgrwt>
</event>
<event>
 4    1  0.3057048E-007  0.7293171E+03  0.7818608E-02  0.9892235E-01
          2   -1    0    0  501    0  0.00000000000E+00  0.00000000000E+00  0.19369190377E+04  0.19369190377E+04  0.25500000000E-02 0. -1.
         -2   -1    0    0    0  501 -0.00000000000E+00 -0.00000000000E+00 -0.22713727417E+03  0.22713727419E+03  0.25500000000E-02 0.  1.
    8880023    1    1    2    0    0 -0.28122494634E+03  0.13786159374E+03  0.45006054444E+03  0.85700524468E+03  0.65864270000E+03 0.  1.
    8880022    1    1    2    0    0  0.28122494634E+03 -0.13786159374E+03  0.12597212191E+04  0.13070510672E+04  0.15294330000E+03 0.  0.
<mgrwt>
<rscale>  0 0.60639083E+03</rscale>
<asrwt>0</asrwt>
<pdfrwt beam="1">  1        2 0.29798756E+00 0.72931714E+03</pdfrwt>
<pdfrwt beam="2">  1       -2 0.34944194E-01 0.72931714E+03</pdfrwt>
<totfact> 0.57351669E+01</totfact>
</mgrwt>
</event>
<event>
 4    1  0.3057048E-007  0.6895675E+03  0.7818608E-02  0.1004359E+00
         -2   -1    0    0    0  501 -0.00000000000E+00  0.00000000000E+00  0.24113122945E+03  0.24113122946E+03  0.25500000000E-02 0.  1.
          2   -1    0    0  501    0  0.00000000000E+00 -0.00000000000E+00 -0.13088432332E+04  0.13088432332E+04  0.25500000000E-02 0. -1.
    8880023    1    1    2    0    0  0.15101039432E+03 -0.13743742503E+03 -0.32049862397E+03  0.76040959964E+03  0.65864270000E+03 0.  1.
    8880022    1    1    2    0    0 -0.15101039432E+03  0.13743742503E+03 -0.74721337980E+03  0.78956486305E+03  0.15294330000E+03 0.  0.
<mgrwt>
<rscale>  0 0.53779602E+03</rscale>
<asrwt>0</asrwt>
<pdfrwt beam="1">  1        2 0.20136049E+00 0.68956754E+03</pdfrwt>
<pdfrwt beam="2">  1       -2 0.37097113E-01 0.68956754E+03</pdfrwt>
<totfact> 0.11419691E+02</totfact>
</mgrwt>
</event>
<event>
 4    1  0.3057048E-007  0.6869302E+03  0.7818608E-02  0.1005647E+00
         -2   -1    0    0    0  501 -0.00000000000E+00  0.00000000000E+00  0.83947316272E+02  0.83947316311E+02  0.25500000000E-02 0.  1.
          2   -1    0    0  501    0  0.00000000000E+00 -0.00000000000E+00 -0.36518066477E+04  0.36518066477E+04  0.25500000000E-02 0. -1.
    8880023    1    1    2    0    0 -0.19480114281E+03 -0.10741716838E+02 -0.14618245832E+04  0.16151793052E+04  0.65864270000E+03 0.  1.
    8880022    1    1    2    0    0  0.19480114281E+03  0.10741716838E+02 -0.21060347483E+04  0.21205746588E+04  0.15294330000E+03 0.  1.
<mgrwt>
<rscale>  0 0.53241917E+03</rscale>
<asrwt>0</asrwt>
<pdfrwt beam="1">  1        2 0.56181628E+00 0.68693018E+03</pdfrwt>
<pdfrwt beam="2">  1       -2 0.12914975E-01 0.68693018E+03</pdfrwt>
<totfact> 0.31238703E+01</totfact>
</mgrwt>
</event>
<event>
 4    1  0.3057048E-007  0.6682155E+03  0.7818608E-02  0.1016976E+00
          2   -1    0    0  501    0  0.00000000000E+00  0.00000000000E+00  0.11043539578E+04  0.11043539578E+04  0.25500000000E-02 0. -1.
         -2   -1    0    0    0  501 -0.00000000000E+00 -0.00000000000E+00 -0.17546382340E+03  0.17546382342E+03  0.25500000000E-02 0.  1.
    8880023    1    1    2    0    0 -0.92742810365E+02 -0.64035550602E+02  0.59048665389E+03  0.89173228903E+03  0.65864270000E+03 0.  1.
    8880022    1    1    2    0    0  0.92742810365E+02  0.64035550602E+02  0.33840348050E+03  0.38808549218E+03  0.15294330000E+03 0. -1.
<mgrwt>
<rscale>  0 0.48793947E+03</rscale>
<asrwt>0</asrwt>
<pdfrwt beam="1">  1        2 0.16990061E+00 0.66821552E+03</pdfrwt>
<pdfrwt beam="2">  1       -2 0.26994434E-01 0.66821552E+03</pdfrwt>
<totfact> 0.27360106E+02</totfact>
</mgrwt>
</event>
<event>
 4    1  0.3057048E-007  0.1301352E+04  0.7818608E-02  0.9064393E-01
          2   -1    0    0  501    0  0.00000000000E+00  0.00000000000E+00  0.28891755440E+04  0.28891755440E+04  0.25500000000E-02 0. -1.
         -2   -1    0    0    0  501 -0.00000000000E+00 -0.00000000000E+00 -0.60884925909E+03  0.60884925909E+03  0.25500000000E-02 0.  1.
    8880023    1    1    2    0    0 -0.10427424757E+04  0.41520525251E+03  0.19004032524E+04  0.23032694155E+04  0.65864270000E+03 0.  0.
    8880022    1    1    2    0    0  0.10427424757E+04 -0.41520525251E+03  0.37992303248E+03  0.11947553875E+04  0.15294330000E+03 0.  0.
<mgrwt>
<rscale>  0 0.12569808E+04</rscale>
<asrwt>0</asrwt>
<pdfrwt beam="1">  1        2 0.44448855E+00 0.13013522E+04</pdfrwt>
<pdfrwt beam="2">  1       -2 0.93669116E-01 0.13013522E+04</pdfrwt>
<totfact> 0.19210845E+00</totfact>
</mgrwt>
</event>
<event>
 4    1  0.3057048E-007  0.8986758E+03  0.7818608E-02  0.9528161E-01
         -2   -1    0    0    0  501 -0.00000000000E+00  0.00000000000E+00  0.10708325850E+04  0.10708325850E+04  0.25500000000E-02 0.  1.
          2   -1    0    0  501    0  0.00000000000E+00 -0.00000000000E+00 -0.10578918781E+04  0.10578918781E+04  0.25500000000E-02 0. -1.
    8880023    1    1    2    0    0  0.49873833250E+03  0.35364966069E+03  0.74171919947E+03  0.11652319872E+04  0.65864270000E+03 0.  0.
    8880022    1    1    2    0    0 -0.49873833250E+03 -0.35364966069E+03 -0.72877849258E+03  0.96349247587E+03  0.15294330000E+03 0.  0.
<mgrwt>
<rscale>  0 0.82239109E+03</rscale>
<asrwt>0</asrwt>
<pdfrwt beam="1">  1        2 0.16275260E+00 0.89867581E+03</pdfrwt>
<pdfrwt beam="2">  1       -2 0.16474347E+00 0.89867581E+03</pdfrwt>
<totfact> 0.53909331E+00</totfact>
</mgrwt>
</event>
<event>
 4    1  0.3057048E-007  0.1062988E+04  0.7818608E-02  0.9303428E-01
         -2   -1    0    0    0  501 -0.00000000000E+00  0.00000000000E+00  0.24131880004E+03  0.24131880006E+03  0.25500000000E-02 0.  1.
          2   -1    0    0  501    0  0.00000000000E+00 -0.00000000000E+00 -0.38047239060E+04  0.38047239060E+04  0.25500000000E-02 0. -1.
    8880023    1    1    2    0    0  0.86470552415E+02 -0.82985331285E+03 -0.18332779492E+04  0.21191630241E+04  0.65864270000E+03 0.  0.
    8880022    1    1    2    0    0 -0.86470552415E+02  0.82985331285E+03 -0.17301271567E+04  0.19268796819E+04  0.15294330000E+03 0. -1.
<mgrwt>
<rscale>  0 0.10046785E+04</rscale>
<asrwt>0</asrwt>
<pdfrwt beam="1">  1        2 0.58534209E+00 0.10629882E+04</pdfrwt>
<pdfrwt beam="2">  1       -2 0.37125972E-01 0.10629882E+04</pdfrwt>
<totfact> 0.34534850E+00</totfact>
</mgrwt>
</event>
<event>
 4    1  0.3063661E-007  0.8115194E+03  0.7818608E-02  0.9686421E-01
         -2   -1    0    0    0  501 -0.00000000000E+00  0.00000000000E+00  0.76474725846E+03  0.76474725846E+03  0.25500000000E-02 0.  1.
          2   -1    0    0  501    0  0.00000000000E+00 -0.00000000000E+00 -0.34757348770E+04  0.34757348770E+04  0.25500000000E-02 0. -1.
    8880023    1    1    2    0    0 -0.21202423625E+03  0.42402736987E+03  0.52489758478E+03  0.96647874676E+03  0.65864270000E+03 0.  0.
    8880022    1    1    2    0    0  0.21202423625E+03 -0.42402736987E+03 -0.32358852033E+04  0.32740033887E+04  0.15294330000E+03 0.  0.
<mgrwt>
<rscale>  0 0.71831079E+03</rscale>
<asrwt>0</asrwt>
<pdfrwt beam="1">  1        2 0.53472844E+00 0.81151937E+03</pdfrwt>
<pdfrwt beam="2">  1       -2 0.11765343E+00 0.81151937E+03</pdfrwt>
<totfact> 0.50538492E-01</totfact>
</mgrwt>
</event>
<event>
 4    1  0.3057048E-007  0.8006362E+03  0.7818608E-02  0.9709422E-01
         -2   -1    0    0    0  501 -0.00000000000E+00  0.00000000000E+00  0.11535059374E+04  0.11535059374E+04  0.25500000000E-02 0.  1.
          2   -1    0    0  501    0  0.00000000000E+00 -0.00000000000E+00 -0.92837312055E+03  0.92837312056E+03  0.25500000000E-02 0. -1.
    8880023    1    1    2    0    0  0.14638589775E+03  0.43102125616E+03  0.93114905680E+03  0.12280296929E+04  0.65864270000E+03 0.  1.
    8880022    1    1    2    0    0 -0.14638589775E+03 -0.43102125616E+03 -0.70601623990E+03  0.85384936514E+03  0.15294330000E+03 0. -1.
<mgrwt>
<rscale>  0 0.70458565E+03</rscale>
<asrwt>0</asrwt>
<pdfrwt beam="1">  1        2 0.14282663E+00 0.80063622E+03</pdfrwt>
<pdfrwt beam="2">  1       -2 0.17746245E+00 0.80063622E+03</pdfrwt>
<totfact> 0.53708904E+00</totfact>
</mgrwt>
</event>
<event>
 4    1  0.3057048E-007  0.6952764E+03  0.7818608E-02  0.1001739E+00
          2   -1    0    0  501    0  0.00000000000E+00  0.00000000000E+00  0.24876929484E+03  0.24876929486E+03  0.25500000000E-02 0. -1.
         -2   -1    0    0    0  501 -0.00000000000E+00 -0.00000000000E+00 -0.20389849671E+04  0.20389849671E+04  0.25500000000E-02 0.  1.
    8880023    1    1    2    0    0 -0.14907422804E+03  0.16545691253E+03 -0.18788897710E+04  0.20034061229E+04  0.65864270000E+03 0.  0.
    8880022    1    1    2    0    0  0.14907422804E+03 -0.16545691253E+03  0.88674098777E+02  0.28434813904E+03  0.15294330000E+03 0.  0.
<mgrwt>
<rscale>  0 0.54894221E+03</rscale>
<asrwt>0</asrwt>
<pdfrwt beam="1">  1        2 0.38272201E-01 0.69527644E+03</pdfrwt>
<pdfrwt beam="2">  1       -2 0.31368998E+00 0.69527644E+03</pdfrwt>
<totfact> 0.37229608E+00</totfact>
</mgrwt>
</event>
<event>
 4    1  0.3057048E-007  0.9396060E+03  0.7818608E-02  0.9465229E-01
          2   -1    0    0  501    0  0.00000000000E+00  0.00000000000E+00  0.10334098330E+04  0.10334098330E+04  0.25500000000E-02 0. -1.
         -2   -1    0    0    0  501 -0.00000000000E+00 -0.00000000000E+00 -0.15911742733E+04  0.15911742733E+04  0.25500000000E-02 0.  1.
    8880023    1    1    2    0    0  0.56144290452E+02 -0.66775522736E+03 -0.13057956141E+04  0.16087142746E+04  0.65864270000E+03 0.  1.
    8880022    1    1    2    0    0 -0.56144290452E+02  0.66775522736E+03  0.74803117384E+03  0.10158698318E+04  0.15294330000E+03 0.  0.
<mgrwt>
<rscale>  0 0.86896597E+03</rscale>
<asrwt>0</asrwt>
<pdfrwt beam="1">  1        2 0.15898613E+00 0.93960600E+03</pdfrwt>
<pdfrwt beam="2">  1       -2 0.24479604E+00 0.93960600E+03</pdfrwt>
<totfact> 0.16658814E+00</totfact>
</mgrwt>
</event>
<event>
 4    1  0.3057048E-007  0.7468090E+03  0.7818608E-02  0.9840539E-01
          2   -1    0    0  501    0  0.00000000000E+00  0.00000000000E+00  0.24825576791E+04  0.24825576791E+04  0.25500000000E-02 0. -1.
         -2   -1    0    0    0  501 -0.00000000000E+00 -0.00000000000E+00 -0.15389497631E+03  0.15389497633E+03  0.25500000000E-02 0.  1.
    8880023    1    1    2    0    0 -0.55075922464E+02  0.34767807792E+03  0.96743070703E+03  0.12221480198E+04  0.65864270000E+03 0.  1.
    8880022    1    1    2    0    0  0.55075922464E+02 -0.34767807792E+03  0.13612319958E+04  0.14143046356E+04  0.15294330000E+03 0.  0.
<mgrwt>
<rscale>  0 0.63231625E+03</rscale>
<asrwt>0</asrwt>
<pdfrwt beam="1">  1        2 0.38193196E+00 0.74680895E+03</pdfrwt>
<pdfrwt beam="2">  1       -2 0.23676150E-01 0.74680895E+03</pdfrwt>
<totfact> 0.58599078E+01</totfact>
</mgrwt>
</event>
<event>
 4    1  0.3057048E-007  0.8452511E+03  0.7818608E-02  0.9620357E-01
          2   -1    0    0  501    0  0.00000000000E+00  0.00000000000E+00  0.89874286812E+03  0.89874286812E+03  0.25500000000E-02 0. -1.
         -2   -1    0    0    0  501 -0.00000000000E+00 -0.00000000000E+00 -0.61147751566E+03  0.61147751566E+03  0.25500000000E-02 0.  1.
    8880023    1    1    2    0    0  0.12547485195E+03 -0.51467985428E+03  0.41886465306E+03  0.94334357194E+03  0.65864270000E+03 0.  0.
    8880022    1    1    2    0    0 -0.12547485195E+03  0.51467985428E+03 -0.13159930060E+03  0.56687681184E+03  0.15294330000E+03 0.  0.
<mgrwt>
<rscale>  0 0.75963340E+03</rscale>
<asrwt>0</asrwt>
<pdfrwt beam="1">  1        2 0.13826813E+00 0.84525114E+03</pdfrwt>
<pdfrwt beam="2">  1       -2 0.94073464E-01 0.84525114E+03</pdfrwt>
<totfact> 0.28200866E+01</totfact>
</mgrwt>
</event>
<event>
 4    1  0.3057048E-007  0.1138308E+04  0.7818608E-02  0.9219557E-01
          2   -1    0    0  501    0  0.00000000000E+00  0.00000000000E+00  0.10692962551E+04  0.10692962551E+04  0.25500000000E-02 0. -1.
         -2   -1    0    0    0  501 -0.00000000000E+00 -0.00000000000E+00 -0.14776435805E+04  0.14776435805E+04  0.25500000000E-02 0.  1.
    8880023    1    1    2    0    0  0.24055162010E+03  0.89669950353E+03 -0.93105422431E+03  0.14705805848E+04  0.65864270000E+03 0.  0.
    8880022    1    1    2    0    0 -0.24055162010E+03 -0.89669950353E+03  0.52270689891E+03  0.10763592508E+04  0.15294330000E+03 0.  0.
<mgrwt>
<rscale>  0 0.10853825E+04</rscale>
<asrwt>0</asrwt>
<pdfrwt beam="1">  1        2 0.16450712E+00 0.11383081E+04</pdfrwt>
<pdfrwt beam="2">  1       -2 0.22732978E+00 0.11383081E+04</pdfrwt>
<totfact> 0.19798332E+00</totfact>
</mgrwt>
</event>
<event>
 4    1  0.3057048E-007  0.6821585E+03  0.7818608E-02  0.1008128E+00
         -2   -1    0    0    0  501 -0.00000000000E+00  0.00000000000E+00  0.56759851088E+03  0.56759851089E+03  0.25500000000E-02 0.  1.
          2   -1    0    0  501    0  0.00000000000E+00 -0.00000000000E+00 -0.88334375549E+03  0.88334375549E+03  0.25500000000E-02 0. -1.
    8880023    1    1    2    0    0 -0.14460129318E+03  0.10305543018E+03  0.33449834835E+03  0.75975608388E+03  0.65864270000E+03 0.  1.
    8880022    1    1    2    0    0  0.14460129318E+03 -0.10305543018E+03 -0.65024359296E+03  0.69118618250E+03  0.15294330000E+03 0.  0.
<mgrwt>
<rscale>  0 0.52225410E+03</rscale>
<asrwt>0</asrwt>
<pdfrwt beam="1">  1        2 0.13589904E+00 0.68215846E+03</pdfrwt>
<pdfrwt beam="2">  1       -2 0.87322847E-01 0.68215846E+03</pdfrwt>
<totfact> 0.34821565E+01</totfact>
</mgrwt>
</event>
<event>
 4    1  0.3057048E-007  0.7951698E+03  0.7818608E-02  0.9721339E-01
         -2   -1    0    0    0  501 -0.00000000000E+00  0.00000000000E+00  0.73320381320E+03  0.73320381321E+03  0.25500000000E-02 0.  1.
          2   -1    0    0  501    0  0.00000000000E+00 -0.00000000000E+00 -0.19387282506E+04  0.19387282507E+04  0.25500000000E-02 0. -1.
    8880023    1    1    2    0    0  0.15825785234E+03  0.41646037878E+03  0.47527230831E+03  0.92637938677E+03  0.65864270000E+03 0.  1.
    8880022    1    1    2    0    0 -0.15825785234E+03 -0.41646037878E+03 -0.16807967458E+04  0.17455526771E+04  0.15294330000E+03 0.  0.
<mgrwt>
<rscale>  0 0.69760375E+03</rscale>
<asrwt>0</asrwt>
<pdfrwt beam="1">  1        2 0.29826588E+00 0.79516979E+03</pdfrwt>
<pdfrwt beam="2">  1       -2 0.11280059E+00 0.79516979E+03</pdfrwt>
<totfact> 0.45884663E+00</totfact>
</mgrwt>
</event>
<event>
 4    1  0.3057048E-007  0.1118689E+04  0.7818608E-02  0.9240528E-01
          2   -1    0    0  501    0  0.00000000000E+00  0.00000000000E+00  0.22547769899E+04  0.22547769899E+04  0.25500000000E-02 0. -1.
         -2   -1    0    0    0  501 -0.00000000000E+00 -0.00000000000E+00 -0.47348532145E+03  0.47348532145E+03  0.25500000000E-02 0.  1.
    8880023    1    1    2    0    0 -0.97634804484E+02  0.89895650960E+03  0.12094754789E+04  0.16475122159E+04  0.65864270000E+03 0.  0.
    8880022    1    1    2    0    0  0.97634804484E+02 -0.89895650960E+03  0.57181618955E+03  0.10807500955E+04  0.15294330000E+03 0.  0.
<mgrwt>
<rscale>  0 0.10644729E+04</rscale>
<asrwt>0</asrwt>
<pdfrwt beam="1">  1        2 0.34688876E+00 0.11186892E+04</pdfrwt>
<pdfrwt beam="2">  1       -2 0.72843897E-01 0.11186892E+04</pdfrwt>
<totfact> 0.81347018E+00</totfact>
</mgrwt>
</event>
<event>
 4    1  0.3057048E-007  0.9439283E+03  0.7818608E-02  0.9458904E-01
         -2   -1    0    0    0  501 -0.00000000000E+00  0.00000000000E+00  0.20546754558E+04  0.20546754558E+04  0.25500000000E-02 0.  1.
          2   -1    0    0  501    0  0.00000000000E+00 -0.00000000000E+00 -0.42258429674E+03  0.42258429675E+03  0.25500000000E-02 0. -1.
    8880023    1    1    2    0    0 -0.50677190417E+03  0.44763011804E+03  0.14988764669E+04  0.17713360367E+04  0.65864270000E+03 0.  0.
    8880022    1    1    2    0    0  0.50677190417E+03 -0.44763011804E+03  0.13321469214E+03  0.70592371588E+03  0.15294330000E+03 0.  0.
<mgrwt>
<rscale>  0 0.87382652E+03</rscale>
<asrwt>0</asrwt>
<pdfrwt beam="1">  1        2 0.65012971E-01 0.94392833E+03</pdfrwt>
<pdfrwt beam="2">  1       -2 0.31610390E+00 0.94392833E+03</pdfrwt>
<totfact> 0.19237292E+00</totfact>
</mgrwt>
</event>
<event>
 4    1  0.3057048E-007  0.6848183E+03  0.7818608E-02  0.1006720E+00
         -2   -1    0    0    0  501 -0.00000000000E+00  0.00000000000E+00  0.23477599503E+03  0.23477599504E+03  0.25500000000E-02 0.  1.
          2   -1    0    0  501    0  0.00000000000E+00 -0.00000000000E+00 -0.26468698377E+04  0.26468698377E+04  0.25500000000E-02 0. -1.
    8880023    1    1    2    0    0 -0.51901611621E+02  0.18020005229E+03 -0.28651819524E+03  0.74234002896E+03  0.65864270000E+03 0.  1.
    8880022    1    1    2    0    0  0.51901611621E+02 -0.18020005229E+03 -0.21255756474E+04  0.21393058038E+04  0.15294330000E+03 0.  0.
<mgrwt>
<rscale>  0 0.52799438E+03</rscale>
<asrwt>0</asrwt>
<pdfrwt beam="1">  1        2 0.40721072E+00 0.68481826E+03</pdfrwt>
<pdfrwt beam="2">  1       -2 0.36119386E-01 0.68481826E+03</pdfrwt>
<totfact> 0.21831425E+01</totfact>
</mgrwt>
</event>
<event>
 4    1  0.3057048E-007  0.8784467E+03  0.7818608E-02  0.9561557E-01
          2   -1    0    0  501    0  0.00000000000E+00  0.00000000000E+00  0.14271083775E+04  0.14271083776E+04  0.25500000000E-02 0. -1.
         -2   -1    0    0    0  501 -0.00000000000E+00 -0.00000000000E+00 -0.43279436147E+03  0.43279436148E+03  0.25500000000E-02 0.  1.
    8880023    1    1    2    0    0 -0.52029416837E+03  0.25913773550E+03  0.27066027621E+03  0.91919833495E+03  0.65864270000E+03 0.  0.
    8880022    1    1    2    0    0  0.52029416837E+03 -0.25913773550E+03  0.72365373987E+03  0.94070440408E+03  0.15294330000E+03 0.  0.
<mgrwt>
<rscale>  0 0.79893702E+03</rscale>
<asrwt>0</asrwt>
<pdfrwt beam="1">  1        2 0.21955513E+00 0.87844669E+03</pdfrwt>
<pdfrwt beam="2">  1       -2 0.66583748E-01 0.87844669E+03</pdfrwt>
<totfact> 0.29189317E+01</totfact>
</mgrwt>
</event>
<event>
 4    1  0.3057048E-007  0.7775444E+03  0.7818608E-02  0.9761637E-01
         -2   -1    0    0    0  501 -0.00000000000E+00  0.00000000000E+00  0.58398731504E+03  0.58398731505E+03  0.25500000000E-02 0.  1.
          2   -1    0    0  501    0  0.00000000000E+00 -0.00000000000E+00 -0.12272848116E+04  0.12272848116E+04  0.25500000000E-02 0. -1.
    8880023    1    1    2    0    0  0.28649295879E+03  0.29780338724E+03  0.24872267926E+03  0.81635669307E+03  0.65864270000E+03 0.  1.
    8880022    1    1    2    0    0 -0.28649295879E+03 -0.29780338724E+03 -0.89202017578E+03  0.99491543354E+03  0.15294330000E+03 0.  0.
<mgrwt>
<rscale>  0 0.67462581E+03</rscale>
<asrwt>0</asrwt>
<pdfrwt beam="1">  1        2 0.18881305E+00 0.77754439E+03</pdfrwt>
<pdfrwt beam="2">  1       -2 0.89844203E-01 0.77754439E+03</pdfrwt>
<totfact> 0.19675859E+01</totfact>
</mgrwt>
</event>
<event>
 4    1  0.3057048E-007  0.6760675E+03  0.7818608E-02  0.1011642E+00
          2   -1    0    0  501    0  0.00000000000E+00  0.00000000000E+00  0.21610448585E+04  0.21610448585E+04  0.25500000000E-02 0. -1.
         -2   -1    0    0    0  501 -0.00000000000E+00 -0.00000000000E+00 -0.15161014400E+03  0.15161014402E+03  0.25500000000E-02 0.  1.
    8880023    1    1    2    0    0 -0.14715348361E+03 -0.40035737052E+02  0.65574457462E+03  0.94184296004E+03  0.65864270000E+03 0.  1.
    8880022    1    1    2    0    0  0.14715348361E+03  0.40035737052E+02  0.13536901399E+04  0.13708120425E+04  0.15294330000E+03 0.  0.
<mgrwt>
<rscale>  0 0.50827345E+03</rscale>
<asrwt>0</asrwt>
<pdfrwt beam="1">  1        2 0.33246844E+00 0.67606746E+03</pdfrwt>
<pdfrwt beam="2">  1       -2 0.23324637E-01 0.67606746E+03</pdfrwt>
<totfact> 0.91660184E+01</totfact>
</mgrwt>
</event>
<event>
 4    1  0.3057048E-007  0.9697101E+03  0.7818608E-02  0.9422305E-01
          2   -1    0    0  501    0  0.00000000000E+00  0.00000000000E+00  0.20574340140E+04  0.20574340140E+04  0.25500000000E-02 0. -1.
         -2   -1    0    0    0  501 -0.00000000000E+00 -0.00000000000E+00 -0.37361589503E+03  0.37361589504E+03  0.25500000000E-02 0.  1.
    8880023    1    1    2    0    0  0.68481593076E+03 -0.19378999828E+03  0.12556728646E+04  0.15865219732E+04  0.65864270000E+03 0.  0.
    8880022    1    1    2    0    0 -0.68481593076E+03  0.19378999828E+03  0.42814525436E+03  0.84452793577E+03  0.15294330000E+03 0.  0.
<mgrwt>
<rscale>  0 0.90262555E+03</rscale>
<asrwt>0</asrwt>
<pdfrwt beam="1">  1        2 0.31652831E+00 0.96971007E+03</pdfrwt>
<pdfrwt beam="2">  1       -2 0.57479368E-01 0.96971007E+03</pdfrwt>
<totfact> 0.17734219E+01</totfact>
</mgrwt>
</event>
<event>
 4    1  0.3057048E-007  0.8822209E+03  0.7818608E-02  0.9555197E-01
          2   -1    0    0  501    0  0.00000000000E+00  0.00000000000E+00  0.13364082767E+04  0.13364082767E+04  0.25500000000E-02 0. -1.
         -2   -1    0    0    0  501 -0.00000000000E+00 -0.00000000000E+00 -0.61319400580E+03  0.61319400581E+03  0.25500000000E-02 0.  1.
    8880023    1    1    2    0    0  0.31619738620E+03  0.49449244165E+03 -0.14137081766E+03  0.89347606361E+03  0.65864270000E+03 0.  1.
    8880022    1    1    2    0    0 -0.31619738620E+03 -0.49449244165E+03  0.86458508859E+03  0.10561262189E+04  0.15294330000E+03 0.  0.
<mgrwt>
<rscale>  0 0.80333841E+03</rscale>
<asrwt>0</asrwt>
<pdfrwt beam="1">  1        2 0.20560127E+00 0.88222093E+03</pdfrwt>
<pdfrwt beam="2">  1       -2 0.94337540E-01 0.88222093E+03</pdfrwt>
<totfact> 0.15011688E+01</totfact>
</mgrwt>
</event>
<event>
 4    1  0.3057048E-007  0.6946869E+03  0.7818608E-02  0.1002000E+00
          2   -1    0    0  501    0  0.00000000000E+00  0.00000000000E+00  0.32046402608E+04  0.32046402608E+04  0.25500000000E-02 0. -1.
         -2   -1    0    0    0  501 -0.00000000000E+00 -0.00000000000E+00 -0.26593859808E+03  0.26593859809E+03  0.25500000000E-02 0.  1.
    8880023    1    1    2    0    0  0.18781595685E+03  0.11621009465E+03  0.20583519766E+03  0.72453982265E+03  0.65864270000E+03 0.  1.
    8880022    1    1    2    0    0 -0.18781595685E+03 -0.11621009465E+03  0.27328664650E+04  0.27460390362E+04  0.15294330000E+03 0.  0.
<mgrwt>
<rscale>  0 0.54781933E+03</rscale>
<asrwt>0</asrwt>
<pdfrwt beam="1">  1        2 0.49302161E+00 0.69468685E+03</pdfrwt>
<pdfrwt beam="2">  1       -2 0.40913628E-01 0.69468685E+03</pdfrwt>
<totfact> 0.78888563E+00</totfact>
</mgrwt>
</event>
<event>
 4    1  0.3057048E-007  0.6791354E+03  0.7818608E-02  0.1009817E+00
         -2   -1    0    0    0  501 -0.00000000000E+00  0.00000000000E+00  0.15220164505E+04  0.15220164505E+04  0.25500000000E-02 0.  1.
          2   -1    0    0  501    0  0.00000000000E+00 -0.00000000000E+00 -0.40642112811E+03  0.40642112812E+03  0.25500000000E-02 0. -1.
    8880023    1    1    2    0    0  0.49427160883E+02 -0.15802418470E+03  0.14056408021E+04  0.15611056844E+04  0.65864270000E+03 0.  1.
    8880022    1    1    2    0    0 -0.49427160883E+02  0.15802418470E+03 -0.29004547970E+03  0.36733189419E+03  0.15294330000E+03 0.  0.
<mgrwt>
<rscale>  0 0.51547430E+03</rscale>
<asrwt>0</asrwt>
<pdfrwt beam="1">  1        2 0.62526326E-01 0.67913540E+03</pdfrwt>
<pdfrwt beam="2">  1       -2 0.23415638E+00 0.67913540E+03</pdfrwt>
<totfact> 0.65035165E+00</totfact>
</mgrwt>
</event>
<event>
 4    1  0.3057048E-007  0.7805590E+03  0.7818608E-02  0.9754525E-01
         -2   -1    0    0    0  501 -0.00000000000E+00  0.00000000000E+00  0.30631657902E+03  0.30631657903E+03  0.25500000000E-02 0.  1.
          2   -1    0    0  501    0  0.00000000000E+00 -0.00000000000E+00 -0.14896089597E+04  0.14896089597E+04  0.25500000000E-02 0. -1.
    8880023    1    1    2    0    0  0.39331422581E+03 -0.14410460766E+03 -0.35990192734E+03  0.85953581760E+03  0.65864270000E+03 0.  1.
    8880022    1    1    2    0    0 -0.39331422581E+03  0.14410460766E+03 -0.82339045336E+03  0.93638972115E+03  0.15294330000E+03 0.  0.
<mgrwt>
<rscale>  0 0.67861128E+03</rscale>
<asrwt>0</asrwt>
<pdfrwt beam="1">  1        2 0.22917061E+00 0.78055905E+03</pdfrwt>
<pdfrwt beam="2">  1       -2 0.47125628E-01 0.78055905E+03</pdfrwt>
<totfact> 0.55902840E+01</totfact>
</mgrwt>
</event>
<event>
 4    1  0.3057048E-007  0.7990579E+03  0.7818608E-02  0.9712837E-01
         -2   -1    0    0    0  501 -0.00000000000E+00  0.00000000000E+00  0.83570504651E+03  0.83570504652E+03  0.25500000000E-02 0.  1.
          2   -1    0    0  501    0  0.00000000000E+00 -0.00000000000E+00 -0.58872345718E+03  0.58872345719E+03  0.25500000000E-02 0. -1.
    8880023    1    1    2    0    0 -0.60676009756E+02  0.44833214014E+03 -0.13815074915E+03  0.81091252413E+03  0.65864270000E+03 0.  0.
    8880022    1    1    2    0    0  0.60676009756E+02 -0.44833214014E+03  0.38513233848E+03  0.61351597958E+03  0.15294330000E+03 0.  0.
<mgrwt>
<rscale>  0 0.70257610E+03</rscale>
<asrwt>0</asrwt>
<pdfrwt beam="1">  1        2 0.90572840E-01 0.79905788E+03</pdfrwt>
<pdfrwt beam="2">  1       -2 0.12857001E+00 0.79905788E+03</pdfrwt>
<totfact> 0.22869379E+01</totfact>
</mgrwt>
</event>
<event>
 4    1  0.3057048E-007  0.7062083E+03  0.7818608E-02  0.9972360E-01
         -2   -1    0    0    0  501 -0.00000000000E+00  0.00000000000E+00  0.90871697178E+03  0.90871697179E+03  0.25500000000E-02 0.  1.
          2   -1    0    0  501    0  0.00000000000E+00 -0.00000000000E+00 -0.48115082338E+03  0.48115082339E+03  0.25500000000E-02 0. -1.
    8880023    1    1    2    0    0  0.18708017107E+03  0.17297677700E+03  0.69444640908E+03  0.99044736212E+03  0.65864270000E+03 0.  1.
    8880022    1    1    2    0    0 -0.18708017107E+03 -0.17297677700E+03 -0.26688026068E+03  0.39942043306E+03  0.15294330000E+03 0.  0.
<mgrwt>
<rscale>  0 0.56878985E+03</rscale>
<asrwt>0</asrwt>
<pdfrwt beam="1">  1        2 0.74023204E-01 0.70620830E+03</pdfrwt>
<pdfrwt beam="2">  1       -2 0.13980261E+00 0.70620830E+03</pdfrwt>
<totfact> 0.23597377E+01</totfact>
</mgrwt>
</event>
<event>
 4    1  0.3057048E-007  0.7083759E+03  0.7818608E-02  0.9964082E-01
         -2   -1    0    0    0  501 -0.00000000000E+00  0.00000000000E+00  0.44221111826E+03  0.44221111827E+03  0.25500000000E-02 0.  1.
          2   -1    0    0  501    0  0.00000000000E+00 -0.00000000000E+00 -0.57746901672E+03  0.57746901673E+03  0.25500000000E-02 0. -1.
    8880023    1    1    2    0    0  0.65489405159E+02  0.25238342127E+03 -0.96384050920E+02  0.71490303192E+03  0.65864270000E+03 0.  0.
    8880022    1    1    2    0    0 -0.65489405159E+02 -0.25238342127E+03 -0.38873847542E+02  0.30477710307E+03  0.15294330000E+03 0. -1.
<mgrwt>
<rscale>  0 0.57253626E+03</rscale>
<asrwt>0</asrwt>
<pdfrwt beam="1">  1        2 0.88841388E-01 0.70837593E+03</pdfrwt>
<pdfrwt beam="2">  1       -2 0.68032479E-01 0.70837593E+03</pdfrwt>
<totfact> 0.10415016E+02</totfact>
</mgrwt>
</event>
<event>
 4    1  0.3057048E-007  0.7993354E+03  0.7818608E-02  0.9712235E-01
          2   -1    0    0  501    0  0.00000000000E+00  0.00000000000E+00  0.12160389305E+04  0.12160389305E+04  0.25500000000E-02 0. -1.
         -2   -1    0    0    0  501 -0.00000000000E+00 -0.00000000000E+00 -0.11416036583E+04  0.11416036583E+04  0.25500000000E-02 0.  1.
    8880023    1    1    2    0    0 -0.43571177335E+03 -0.12362109494E+03 -0.94138277149E+03  0.12349650413E+04  0.65864270000E+03 0.  1.
    8880022    1    1    2    0    0  0.43571177335E+03  0.12362109494E+03  0.10158180437E+04  0.11226775475E+04  0.15294330000E+03 0.  0.
<mgrwt>
<rscale>  0 0.70292985E+03</rscale>
<asrwt>0</asrwt>
<pdfrwt beam="1">  1        2 0.18708291E+00 0.79933543E+03</pdfrwt>
<pdfrwt beam="2">  1       -2 0.17563133E+00 0.79933543E+03</pdfrwt>
<totfact> 0.36632733E+00</totfact>
</mgrwt>
</event>
<event>
 4    1  0.3057048E-007  0.7319449E+03  0.7818608E-02  0.9884064E-01
          2   -1    0    0  501    0  0.00000000000E+00  0.00000000000E+00  0.14711051223E+04  0.14711051223E+04  0.25500000000E-02 0. -1.
         -2   -1    0    0    0  501 -0.00000000000E+00 -0.00000000000E+00 -0.28956648525E+03  0.28956648526E+03  0.25500000000E-02 0.  1.
    8880023    1    1    2    0    0  0.30839131673E+03 -0.82631153595E+02  0.26550567287E+03  0.77861195750E+03  0.65864270000E+03 0.  1.
    8880022    1    1    2    0    0 -0.30839131673E+03  0.82631153595E+02  0.91603296418E+03  0.98205965006E+03  0.15294330000E+03 0.  0.
<mgrwt>
<rscale>  0 0.61039842E+03</rscale>
<asrwt>0</asrwt>
<pdfrwt beam="1">  1        2 0.22632387E+00 0.73194489E+03</pdfrwt>
<pdfrwt beam="2">  1       -2 0.44548689E-01 0.73194489E+03</pdfrwt>
<totfact> 0.64377473E+01</totfact>
</mgrwt>
</event>
<event>
 4    1  0.3057048E-007  0.1033302E+04  0.7818608E-02  0.9339229E-01
         -2   -1    0    0    0  501 -0.00000000000E+00  0.00000000000E+00  0.81864419536E+03  0.81864419536E+03  0.25500000000E-02 0.  1.
          2   -1    0    0  501    0  0.00000000000E+00 -0.00000000000E+00 -0.16494428161E+04  0.16494428161E+04  0.25500000000E-02 0. -1.
    8880023    1    1    2    0    0 -0.75022017391E+02 -0.79263834306E+03  0.30065324032E+03  0.10761535314E+04  0.65864270000E+03 0.  0.
    8880022    1    1    2    0    0  0.75022017391E+02  0.79263834306E+03 -0.11314518611E+04  0.13919334800E+04  0.15294330000E+03 0.  0.
<mgrwt>
<rscale>  0 0.97250242E+03</rscale>
<asrwt>0</asrwt>
<pdfrwt beam="1">  1        2 0.25376043E+00 0.10333025E+04</pdfrwt>
<pdfrwt beam="2">  1       -2 0.12594526E+00 0.10333025E+04</pdfrwt>
<totfact> 0.48793845E+00</totfact>
</mgrwt>
</event>
<event>
 4    1  0.3057048E-007  0.1100872E+04  0.7818608E-02  0.9260086E-01
          2   -1    0    0  501    0  0.00000000000E+00  0.00000000000E+00  0.21022837926E+04  0.21022837926E+04  0.25500000000E-02 0. -1.
         -2   -1    0    0    0  501 -0.00000000000E+00 -0.00000000000E+00 -0.81012255964E+03  0.81012255965E+03  0.25500000000E-02 0.  1.
    8880023    1    1    2    0    0 -0.39041666579E+03  0.79100108874E+03 -0.25029149239E+03  0.11289658687E+04  0.65864270000E+03 0.  0.
    8880022    1    1    2    0    0  0.39041666579E+03 -0.79100108874E+03  0.15424527254E+04  0.17834404836E+04  0.15294330000E+03 0.  0.
<mgrwt>
<rscale>  0 0.10454190E+04</rscale>
<asrwt>0</asrwt>
<pdfrwt beam="1">  1        2 0.32342827E+00 0.11008715E+04</pdfrwt>
<pdfrwt beam="2">  1       -2 0.12463424E+00 0.11008715E+04</pdfrwt>
<totfact> 0.27946590E+00</totfact>
</mgrwt>
</event>
<event>
 4    1  0.3057048E-007  0.1195778E+04  0.7818608E-02  0.9161237E-01
          2   -1    0    0  501    0  0.00000000000E+00  0.00000000000E+00  0.90398974991E+03  0.90398974992E+03  0.25500000000E-02 0. -1.
         -2   -1    0    0    0  501 -0.00000000000E+00 -0.00000000000E+00 -0.17912442212E+04  0.17912442212E+04  0.25500000000E-02 0.  1.
    8880023    1    1    2    0    0  0.30276279987E+03  0.95100480929E+03 -0.11424388249E+04  0.16537993032E+04  0.65864270000E+03 0.  0.
    8880022    1    1    2    0    0 -0.30276279987E+03 -0.95100480929E+03  0.25518435359E+03  0.10414346680E+04  0.15294330000E+03 0.  0.
<mgrwt>
<rscale>  0 0.11462640E+04</rscale>
<asrwt>0</asrwt>
<pdfrwt beam="1">  1        2 0.13907535E+00 0.11957783E+04</pdfrwt>
<pdfrwt beam="2">  1       -2 0.27557603E+00 0.11957783E+04</pdfrwt>
<totfact> 0.12765232E+00</totfact>
</mgrwt>
</event>
<event>
 4    1  0.3057048E-007  0.7845410E+03  0.7818608E-02  0.9745276E-01
         -2   -1    0    0    0  501 -0.00000000000E+00  0.00000000000E+00  0.33829685426E+03  0.33829685427E+03  0.25500000000E-02 0.  1.
          2   -1    0    0  501    0  0.00000000000E+00 -0.00000000000E+00 -0.20193799881E+04  0.20193799881E+04  0.25500000000E-02 0. -1.
    8880023    1    1    2    0    0  0.41761367556E+03 -0.85399757240E+02 -0.20102589897E+03  0.80988636170E+03  0.65864270000E+03 0.  1.
    8880022    1    1    2    0    0 -0.41761367556E+03  0.85399757240E+02 -0.14800572349E+04  0.15477904807E+04  0.15294330000E+03 0.  0.
<mgrwt>
<rscale>  0 0.68383875E+03</rscale>
<asrwt>0</asrwt>
<pdfrwt beam="1">  1        2 0.31067384E+00 0.78454095E+03</pdfrwt>
<pdfrwt beam="2">  1       -2 0.52045671E-01 0.78454095E+03</pdfrwt>
<totfact> 0.23379084E+01</totfact>
</mgrwt>
</event>
<event>
 4    1  0.3057048E-007  0.6987394E+03  0.7818608E-02  0.1000247E+00
         -2   -1    0    0    0  501 -0.00000000000E+00  0.00000000000E+00  0.48732080607E+03  0.48732080608E+03  0.25500000000E-02 0.  1.
          2   -1    0    0  501    0  0.00000000000E+00 -0.00000000000E+00 -0.88748320350E+03  0.88748320350E+03  0.25500000000E-02 0. -1.
    8880023    1    1    2    0    0 -0.10193504293E+03 -0.20984698389E+03  0.18821656172E+03  0.72364507184E+03  0.65864270000E+03 0.  1.
    8880022    1    1    2    0    0  0.10193504293E+03  0.20984698389E+03 -0.58837895914E+03  0.65115893774E+03  0.15294330000E+03 0.  0.
<mgrwt>
<rscale>  0 0.55542003E+03</rscale>
<asrwt>0</asrwt>
<pdfrwt beam="1">  1        2 0.13653588E+00 0.69873938E+03</pdfrwt>
<pdfrwt beam="2">  1       -2 0.74972432E-01 0.69873938E+03</pdfrwt>
<totfact> 0.48691236E+01</totfact>
</mgrwt>
</event>
<event>
 4    1  0.3057048E-007  0.6896358E+03  0.7818608E-02  0.1004326E+00
         -2   -1    0    0    0  501 -0.00000000000E+00  0.00000000000E+00  0.17913885726E+03  0.17913885728E+03  0.25500000000E-02 0.  1.
          2   -1    0    0  501    0  0.00000000000E+00 -0.00000000000E+00 -0.14213826479E+04  0.14213826479E+04  0.25500000000E-02 0. -1.
    8880023    1    1    2    0    0 -0.20377440449E+03  0.16225339259E+02 -0.61775059976E+03  0.92585813132E+03  0.65864270000E+03 0.  1.
    8880022    1    1    2    0    0  0.20377440449E+03 -0.16225339259E+02 -0.62449319087E+03  0.67466337385E+03  0.15294330000E+03 0. -1.
<mgrwt>
<rscale>  0 0.53793305E+03</rscale>
<asrwt>0</asrwt>
<pdfrwt beam="1">  1        2 0.21867425E+00 0.68963576E+03</pdfrwt>
<pdfrwt beam="2">  1       -2 0.27559825E-01 0.68963576E+03</pdfrwt>
<totfact> 0.17203926E+02</totfact>
</mgrwt>
</event>
<event>
 4    1  0.3364474E-007  0.7463433E+03  0.7818608E-02  0.9841840E-01
         -2   -1    0    0    0  501 -0.00000000000E+00  0.00000000000E+00  0.18608720716E+04  0.18608720716E+04  0.25500000000E-02 0.  1.
          2   -1    0    0  501    0  0.00000000000E+00 -0.00000000000E+00 -0.10409823779E+04  0.10409823779E+04  0.25500000000E-02 0. -1.
    8880023    1    1    2    0    0 -0.30344167719E+03 -0.17646869595E+03  0.17464798333E+04  0.18992682976E+04  0.65864270000E+03 0.  1.
    8880022    1    1    2    0    0  0.30344167719E+03  0.17646869595E+03 -0.92659013960E+03  0.10025861519E+04  0.15294330000E+03 0.  0.
<mgrwt>
<rscale>  0 0.63164680E+03</rscale>
<asrwt>0</asrwt>
<pdfrwt beam="1">  1        2 0.16015114E+00 0.74634326E+03</pdfrwt>
<pdfrwt beam="2">  1       -2 0.28628801E+00 0.74634326E+03</pdfrwt>
<totfact> 0.95470202E-01</totfact>
</mgrwt>
</event>
<event>
 4    1  0.3057048E-007  0.6670144E+03  0.7818608E-02  0.1017900E+00
         -2   -1    0    0    0  501 -0.00000000000E+00  0.00000000000E+00  0.26549628161E+03  0.26549628162E+03  0.25500000000E-02 0.  1.
          2   -1    0    0  501    0  0.00000000000E+00 -0.00000000000E+00 -0.14812900051E+04  0.14812900051E+04  0.25500000000E-02 0. -1.
    8880023    1    1    2    0    0 -0.96242560505E+02  0.42841739938E+02 -0.17504891754E+03  0.68960160595E+03  0.65864270000E+03 0.  1.
    8880022    1    1    2    0    0  0.96242560505E+02 -0.42841739938E+02 -0.10407448059E+04  0.10571846807E+04  0.15294330000E+03 0.  0.
<mgrwt>
<rscale>  0 0.48452099E+03</rscale>
<asrwt>0</asrwt>
<pdfrwt beam="1">  1        2 0.22789076E+00 0.66701443E+03</pdfrwt>
<pdfrwt beam="2">  1       -2 0.40845583E-01 0.66701443E+03</pdfrwt>
<totfact> 0.75913077E+01</totfact>
</mgrwt>
</event>
<event>
 4    1  0.3057048E-007  0.6806460E+03  0.7818608E-02  0.1008961E+00
          2   -1    0    0  501    0  0.00000000000E+00  0.00000000000E+00  0.20053662202E+04  0.20053662202E+04  0.25500000000E-02 0. -1.
         -2   -1    0    0    0  501 -0.00000000000E+00 -0.00000000000E+00 -0.10336334503E+03  0.10336334507E+03  0.25500000000E-02 0.  1.
    8880023    1    1    2    0    0  0.17164327738E+03 -0.27107906504E+01  0.14242262816E+04  0.15785117898E+04  0.65864270000E+03 0.  0.
    8880022    1    1    2    0    0 -0.17164327738E+03  0.27107906504E+01  0.47777659356E+03  0.53021777547E+03  0.15294330000E+03 0. -1.
<mgrwt>
<rscale>  0 0.51889835E+03</rscale>
<asrwt>0</asrwt>
<pdfrwt beam="1">  1        2 0.30851788E+00 0.68064599E+03</pdfrwt>
<pdfrwt beam="2">  1       -2 0.15902053E-01 0.68064599E+03</pdfrwt>
<totfact> 0.21693810E+02</totfact>
</mgrwt>
</event>
<event>
 4    1  0.3057048E-007  0.1021958E+04  0.7818608E-02  0.9353377E-01
          2   -1    0    0  501    0  0.00000000000E+00  0.00000000000E+00  0.13728052390E+04  0.13728052390E+04  0.25500000000E-02 0. -1.
         -2   -1    0    0    0  501 -0.00000000000E+00 -0.00000000000E+00 -0.60250446864E+03  0.60250446864E+03  0.25500000000E-02 0.  1.
    8880023    1    1    2    0    0  0.42827557822E+03  0.65358102242E+03  0.46083553992E+03  0.11210565217E+04  0.65864270000E+03 0.  1.
    8880022    1    1    2    0    0 -0.42827557822E+03 -0.65358102242E+03  0.30946523041E+03  0.85425318590E+03  0.15294330000E+03 0. -1.
<mgrwt>
<rscale>  0 0.96013928E+03</rscale>
<asrwt>0</asrwt>
<pdfrwt beam="1">  1        2 0.21120080E+00 0.10219581E+04</pdfrwt>
<pdfrwt beam="2">  1       -2 0.92692997E-01 0.10219581E+04</pdfrwt>
<totfact> 0.14707206E+01</totfact>
</mgrwt>
</event>
<event>
 4    1  0.3057048E-007  0.8120195E+03  0.7818608E-02  0.9685386E-01
          2   -1    0    0  501    0  0.00000000000E+00  0.00000000000E+00  0.15337331198E+04  0.15337331198E+04  0.25500000000E-02 0. -1.
         -2   -1    0    0    0  501 -0.00000000000E+00 -0.00000000000E+00 -0.31061889227E+03  0.31061889228E+03  0.25500000000E-02 0.  1.
    8880023    1    1    2    0    0 -0.25887911976E+03 -0.39817976810E+03  0.46194074307E+03  0.93421891585E+03  0.65864270000E+03 0.  1.
    8880022    1    1    2    0    0  0.25887911976E+03  0.39817976810E+03  0.76117348442E+03  0.91013309618E+03  0.15294330000E+03 0.  0.
<mgrwt>
<rscale>  0 0.71893635E+03</rscale>
<asrwt>0</asrwt>
<pdfrwt beam="1">  1        2 0.23595894E+00 0.81201954E+03</pdfrwt>
<pdfrwt beam="2">  1       -2 0.47787522E-01 0.81201954E+03</pdfrwt>
<totfact> 0.51203369E+01</totfact>
</mgrwt>
</event>
<event>
 4    1  0.3057048E-007  0.8551883E+03  0.7818608E-02  0.9602181E-01
         -2   -1    0    0    0  501 -0.00000000000E+00  0.00000000000E+00  0.17771991268E+03  0.17771991270E+03  0.25500000000E-02 0.  1.
          2   -1    0    0  501    0  0.00000000000E+00 -0.00000000000E+00 -0.29235384107E+04  0.29235384107E+04  0.25500000000E-02 0. -1.
    8880023    1    1    2    0    0 -0.16090519157E+02 -0.54523196814E+03 -0.18957842894E+04  0.20797463985E+04  0.65864270000E+03 0.  0.
    8880022    1    1    2    0    0  0.16090519157E+02  0.54523196814E+03 -0.85003420863E+03  0.10215119249E+04  0.15294330000E+03 0.  0.
<mgrwt>
<rscale>  0 0.77152026E+03</rscale>
<asrwt>0</asrwt>
<pdfrwt beam="1">  1        2 0.44977511E+00 0.85518829E+03</pdfrwt>
<pdfrwt beam="2">  1       -2 0.27341527E-01 0.85518829E+03</pdfrwt>
<totfact> 0.24586941E+01</totfact>
</mgrwt>
</event>
<event>
 4    1  0.3057048E-007  0.9321969E+03  0.7818608E-02  0.9476205E-01
          2   -1    0    0  501    0  0.00000000000E+00  0.00000000000E+00  0.11218398180E+04  0.11218398180E+04  0.25500000000E-02 0. -1.
         -2   -1    0    0    0  501 -0.00000000000E+00 -0.00000000000E+00 -0.74936999833E+03  0.74936999833E+03  0.25500000000E-02 0.  1.
    8880023    1    1    2    0    0 -0.65838376421E+03  0.41371938948E+02  0.65306962603E+03  0.11381963631E+04  0.65864270000E+03 0. -1.
    8880022    1    1    2    0    0  0.65838376421E+03 -0.41371938948E+02 -0.28059980633E+03  0.73301345324E+03  0.15294330000E+03 0.  0.
<mgrwt>
<rscale>  0 0.86061068E+03</rscale>
<asrwt>0</asrwt>
<pdfrwt beam="1">  1        2 0.17259074E+00 0.93219688E+03</pdfrwt>
<pdfrwt beam="2">  1       -2 0.11528769E+00 0.93219688E+03</pdfrwt>
<totfact> 0.12367173E+01</totfact>
</mgrwt>
</event>
<event>
 4    1  0.3057048E-007  0.8083781E+03  0.7818608E-02  0.9692965E-01
         -2   -1    0    0    0  501 -0.00000000000E+00  0.00000000000E+00  0.47979035921E+03  0.47979035922E+03  0.25500000000E-02 0.  1.
          2   -1    0    0  501    0  0.00000000000E+00 -0.00000000000E+00 -0.13979419346E+04  0.13979419346E+04  0.25500000000E-02 0. -1.
    8880023    1    1    2    0    0  0.31534104471E+03 -0.34673461372E+03  0.30142077109E+02  0.80893981106E+03  0.65864270000E+03 0.  1.
    8880022    1    1    2    0    0 -0.31534104471E+03  0.34673461372E+03 -0.94829365245E+03  0.10687924827E+04  0.15294330000E+03 0.  0.
<mgrwt>
<rscale>  0 0.71437179E+03</rscale>
<asrwt>0</asrwt>
<pdfrwt beam="1">  1        2 0.21506799E+00 0.80837805E+03</pdfrwt>
<pdfrwt beam="2">  1       -2 0.73813902E-01 0.80837805E+03</pdfrwt>
<totfact> 0.24371685E+01</totfact>
</mgrwt>
</event>
<event>
 4    1  0.3057048E-007  0.7076762E+03  0.7818608E-02  0.9966734E-01
         -2   -1    0    0    0  501 -0.00000000000E+00  0.00000000000E+00  0.49379649324E+03  0.49379649325E+03  0.25500000000E-02 0.  1.
          2   -1    0    0  501    0  0.00000000000E+00 -0.00000000000E+00 -0.70381142066E+03  0.70381142067E+03  0.25500000000E-02 0. -1.
    8880023    1    1    2    0    0 -0.15388873412E+03 -0.20811915961E+03  0.15527199405E+03  0.72451012794E+03  0.65864270000E+03 0.  1.
    8880022    1    1    2    0    0  0.15388873412E+03  0.20811915961E+03 -0.36528692147E+03  0.47309778598E+03  0.15294330000E+03 0.  0.
<mgrwt>
<rscale>  0 0.57133280E+03</rscale>
<asrwt>0</asrwt>
<pdfrwt beam="1">  1        2 0.10827868E+00 0.70767615E+03</pdfrwt>
<pdfrwt beam="2">  1       -2 0.75968692E-01 0.70767615E+03</pdfrwt>
<totfact> 0.64146022E+01</totfact>
</mgrwt>
</event>
<event>
 4    1  0.3057048E-007  0.9165429E+03  0.7818608E-02  0.9499980E-01
          2   -1    0    0  501    0  0.00000000000E+00  0.00000000000E+00  0.83334287229E+03  0.83334287229E+03  0.25500000000E-02 0. -1.
         -2   -1    0    0    0  501 -0.00000000000E+00 -0.00000000000E+00 -0.12347745734E+04  0.12347745734E+04  0.25500000000E-02 0.  1.
    8880023    1    1    2    0    0 -0.63704629211E+03  0.20313592100E+02 -0.86896789687E+03  0.12629948663E+04  0.65864270000E+03 0.  1.
    8880022    1    1    2    0    0  0.63704629211E+03 -0.20313592100E+02  0.46753619581E+03  0.80512257932E+03  0.15294330000E+03 0.  0.
<mgrwt>
<rscale>  0 0.84285273E+03</rscale>
<asrwt>0</asrwt>
<pdfrwt beam="1">  1        2 0.12820660E+00 0.91654287E+03</pdfrwt>
<pdfrwt beam="2">  1       -2 0.18996532E+00 0.91654287E+03</pdfrwt>
<totfact> 0.50603538E+00</totfact>
</mgrwt>
</event>
<event>
 4    1  0.3057048E-007  0.8303414E+03  0.7818608E-02  0.9648668E-01
          2   -1    0    0  501    0  0.00000000000E+00  0.00000000000E+00  0.13386130766E+04  0.13386130766E+04  0.25500000000E-02 0. -1.
         -2   -1    0    0    0  501 -0.00000000000E+00 -0.00000000000E+00 -0.52924009015E+03  0.52924009016E+03  0.25500000000E-02 0.  1.
    8880023    1    1    2    0    0  0.18923962028E+02  0.50527074116E+03 -0.79207449200E+02  0.83411070278E+03  0.65864270000E+03 0.  0.
    8880022    1    1    2    0    0 -0.18923962028E+02 -0.50527074116E+03  0.88858043567E+03  0.10337424640E+04  0.15294330000E+03 0.  0.
<mgrwt>
<rscale>  0 0.74157049E+03</rscale>
<asrwt>0</asrwt>
<pdfrwt beam="1">  1        2 0.20594047E+00 0.83034140E+03</pdfrwt>
<pdfrwt beam="2">  1       -2 0.81421554E-01 0.83034140E+03</pdfrwt>
<totfact> 0.21108992E+01</totfact>
</mgrwt>
</event>
<event>
 4    1  0.3057048E-007  0.7611399E+03  0.7818608E-02  0.9802165E-01
          2   -1    0    0  501    0  0.00000000000E+00  0.00000000000E+00  0.15555176302E+04  0.15555176302E+04  0.25500000000E-02 0. -1.
         -2   -1    0    0    0  501 -0.00000000000E+00 -0.00000000000E+00 -0.81401359656E+03  0.81401359657E+03  0.25500000000E-02 0.  1.
    8880023    1    1    2    0    0 -0.37987762916E+03  0.34881970128E+02 -0.59827835193E+03  0.96812755235E+03  0.65864270000E+03 0.  0.
    8880022    1    1    2    0    0  0.37987762916E+03 -0.34881970128E+02  0.13397823856E+04  0.14014036744E+04  0.15294330000E+03 0. -1.
<mgrwt>
<rscale>  0 0.65246472E+03</rscale>
<asrwt>0</asrwt>
<pdfrwt beam="1">  1        2 0.23931040E+00 0.76113992E+03</pdfrwt>
<pdfrwt beam="2">  1       -2 0.12523286E+00 0.76113992E+03</pdfrwt>
<totfact> 0.57761752E+00</totfact>
</mgrwt>
</event>
<event>
 4    1  0.3057048E-007  0.8521909E+03  0.7818608E-02  0.9607608E-01
          2   -1    0    0  501    0  0.00000000000E+00  0.00000000000E+00  0.11178383260E+04  0.11178383260E+04  0.25500000000E-02 0. -1.
         -2   -1    0    0    0  501 -0.00000000000E+00 -0.00000000000E+00 -0.84270019165E+03  0.84270019165E+03  0.25500000000E-02 0.  1.
    8880023    1    1    2    0    0 -0.37980074049E+03  0.38492923988E+03 -0.51140498425E+03  0.99386336403E+03  0.65864270000E+03 0.  0.
    8880022    1    1    2    0    0  0.37980074049E+03 -0.38492923988E+03  0.78654311860E+03  0.96667515361E+03  0.15294330000E+03 0.  0.
<mgrwt>
<rscale>  0 0.76794663E+03</rscale>
<asrwt>0</asrwt>
<pdfrwt beam="1">  1        2 0.17197513E+00 0.85219090E+03</pdfrwt>
<pdfrwt beam="2">  1       -2 0.12964618E+00 0.85219090E+03</pdfrwt>
<totfact> 0.93528708E+00</totfact>
</mgrwt>
</event>
<event>
 4    1  0.3057048E-007  0.9227110E+03  0.7818608E-02  0.9490515E-01
         -2   -1    0    0    0  501 -0.00000000000E+00  0.00000000000E+00  0.96595151938E+03  0.96595151938E+03  0.25500000000E-02 0.  1.
          2   -1    0    0  501    0  0.00000000000E+00 -0.00000000000E+00 -0.13380930866E+04  0.13380930866E+04  0.25500000000E-02 0. -1.
    8880023    1    1    2    0    0 -0.62095375040E+03 -0.17889048737E+03  0.61892868788E+03  0.11110662868E+04  0.65864270000E+03 0.  1.
    8880022    1    1    2    0    0  0.62095375040E+03  0.17889048737E+03 -0.99107025514E+03  0.11929783193E+04  0.15294330000E+03 0.  0.
<mgrwt>
<rscale>  0 0.84986759E+03</rscale>
<asrwt>0</asrwt>
<pdfrwt beam="1">  1        2 0.20586048E+00 0.92271099E+03</pdfrwt>
<pdfrwt beam="2">  1       -2 0.14860793E+00 0.92271099E+03</pdfrwt>
<totfact> 0.48272861E+00</totfact>
</mgrwt>
</event>
<event>
 4    1  0.3057048E-007  0.1157033E+04  0.7818608E-02  0.9200064E-01
          2   -1    0    0  501    0  0.00000000000E+00  0.00000000000E+00  0.15586602743E+04  0.15586602743E+04  0.25500000000E-02 0. -1.
         -2   -1    0    0    0  501 -0.00000000000E+00 -0.00000000000E+00 -0.98139567964E+03  0.98139567964E+03  0.25500000000E-02 0.  1.
    8880023    1    1    2    0    0 -0.71015911795E+03  0.63292189585E+03 -0.34391022835E+03  0.12070627782E+04  0.65864270000E+03 0.  1.
    8880022    1    1    2    0    0  0.71015911795E+03 -0.63292189585E+03  0.92117482300E+03  0.13329931758E+04  0.15294330000E+03 0. -1.
<mgrwt>
<rscale>  0 0.11052765E+04</rscale>
<asrwt>0</asrwt>
<pdfrwt beam="1">  1        2 0.23979389E+00 0.11570334E+04</pdfrwt>
<pdfrwt beam="2">  1       -2 0.15098395E+00 0.11570334E+04</pdfrwt>
<totfact> 0.33811980E+00</totfact>
</mgrwt>
</event>
<event>
 4    1  0.3057048E-007  0.7964420E+03  0.7818608E-02  0.9718543E-01
         -2   -1    0    0    0  501 -0.00000000000E+00  0.00000000000E+00  0.34933226004E+03  0.34933226005E+03  0.25500000000E-02 0.  1.
          2   -1    0    0  501    0  0.00000000000E+00 -0.00000000000E+00 -0.17360444412E+04  0.17360444412E+04  0.25500000000E-02 0. -1.
    8880023    1    1    2    0    0 -0.16129544413E+02 -0.44749251657E+03 -0.21985910563E+03  0.82623117055E+03  0.65864270000E+03 0.  1.
    8880022    1    1    2    0    0  0.16129544413E+02  0.44749251657E+03 -0.11668530755E+04  0.12591455307E+04  0.15294330000E+03 0.  0.
<mgrwt>
<rscale>  0 0.69923430E+03</rscale>
<asrwt>0</asrwt>
<pdfrwt beam="1">  1        2 0.26708376E+00 0.79644204E+03</pdfrwt>
<pdfrwt beam="2">  1       -2 0.53743425E-01 0.79644204E+03</pdfrwt>
<totfact> 0.31207991E+01</totfact>
</mgrwt>
</event>
<event>
 4    1  0.3057048E-007  0.1017221E+04  0.7818608E-02  0.9359366E-01
         -2   -1    0    0    0  501 -0.00000000000E+00  0.00000000000E+00  0.92293702841E+03  0.92293702841E+03  0.25500000000E-02 0.  1.
          2   -1    0    0  501    0  0.00000000000E+00 -0.00000000000E+00 -0.16423990883E+04  0.16423990883E+04  0.25500000000E-02 0. -1.
    8880023    1    1    2    0    0 -0.24063384219E+02  0.77482258414E+03  0.48334559681E+03  0.11262159010E+04  0.65864270000E+03 0.  0.
    8880022    1    1    2    0    0  0.24063384219E+02 -0.77482258414E+03 -0.12028076567E+04  0.14391202158E+04  0.15294330000E+03 0.  0.
<mgrwt>
<rscale>  0 0.95496526E+03</rscale>
<asrwt>0</asrwt>
<pdfrwt beam="1">  1        2 0.25267678E+00 0.10172214E+04</pdfrwt>
<pdfrwt beam="2">  1       -2 0.14199031E+00 0.10172214E+04</pdfrwt>
<totfact> 0.36262848E+00</totfact>
</mgrwt>
</event>
<event>
 4    1  0.3057048E-007  0.8469942E+03  0.7818608E-02  0.9617131E-01
         -2   -1    0    0    0  501 -0.00000000000E+00  0.00000000000E+00  0.41921192299E+03  0.41921192300E+03  0.25500000000E-02 0.  1.
          2   -1    0    0  501    0  0.00000000000E+00 -0.00000000000E+00 -0.12381394095E+04  0.12381394095E+04  0.25500000000E-02 0. -1.
    8880023    1    1    2    0    0 -0.52663252668E+03 -0.79038596823E+02 -0.30093037489E+03  0.89886495912E+03  0.65864270000E+03 0.  1.
    8880022    1    1    2    0    0  0.52663252668E+03  0.79038596823E+02 -0.51799711166E+03  0.75848637341E+03  0.15294330000E+03 0.  0.
<mgrwt>
<rscale>  0 0.76172670E+03</rscale>
<asrwt>0</asrwt>
<pdfrwt beam="1">  1        2 0.19048298E+00 0.84699417E+03</pdfrwt>
<pdfrwt beam="2">  1       -2 0.64494143E-01 0.84699417E+03</pdfrwt>
<totfact> 0.40286741E+01</totfact>
</mgrwt>
</event>
<event>
 4    1  0.3057048E-007  0.6821857E+03  0.7818608E-02  0.1008113E+00
          2   -1    0    0  501    0  0.00000000000E+00  0.00000000000E+00  0.60698921892E+03  0.60698921893E+03  0.25500000000E-02 0. -1.
         -2   -1    0    0    0  501 -0.00000000000E+00 -0.00000000000E+00 -0.39343166739E+03  0.39343166740E+03  0.25500000000E-02 0.  1.
    8880023    1    1    2    0    0  0.16705684622E+03  0.60490317226E+02 -0.16485593286E+01  0.68218765186E+03  0.65864270000E+03 0.  1.
    8880022    1    1    2    0    0 -0.16705684622E+03 -0.60490317226E+02  0.21520611086E+03  0.31823323446E+03  0.15294330000E+03 0.  0.
<mgrwt>
<rscale>  0 0.52231382E+03</rscale>
<asrwt>0</asrwt>
<pdfrwt beam="1">  1        2 0.93382956E-01 0.68218566E+03</pdfrwt>
<pdfrwt beam="2">  1       -2 0.60527949E-01 0.68218566E+03</pdfrwt>
<totfact> 0.12616879E+02</totfact>
</mgrwt>
</event>
<event>
 4    1  0.3057048E-007  0.7423340E+03  0.7818608E-02  0.9853200E-01
         -2   -1    0    0    0  501 -0.00000000000E+00  0.00000000000E+00  0.76730609750E+03  0.76730609750E+03  0.25500000000E-02 0.  1.
          2   -1    0    0  501    0  0.00000000000E+00 -0.00000000000E+00 -0.76408311192E+03  0.76408311192E+03  0.25500000000E-02 0. -1.
    8880023    1    1    2    0    0  0.22107396903E+03 -0.26148768894E+03  0.51021719364E+03  0.90076706323E+03  0.65864270000E+03 0.  1.
    8880022    1    1    2    0    0 -0.22107396903E+03  0.26148768894E+03 -0.50699420806E+03  0.63062214619E+03  0.15294330000E+03 0.  0.
<mgrwt>
<rscale>  0 0.62584034E+03</rscale>
<asrwt>0</asrwt>
<pdfrwt beam="1">  1        2 0.11755125E+00 0.74233397E+03</pdfrwt>
<pdfrwt beam="2">  1       -2 0.11804709E+00 0.74233397E+03</pdfrwt>
<totfact> 0.20545956E+01</totfact>
</mgrwt>
</event>
<event>
 4    1  0.3057048E-007  0.7283639E+03  0.7818608E-02  0.9895239E-01
          2   -1    0    0  501    0  0.00000000000E+00  0.00000000000E+00  0.81750557798E+03  0.81750557798E+03  0.25500000000E-02 0. -1.
         -2   -1    0    0    0  501 -0.00000000000E+00 -0.00000000000E+00 -0.77021882704E+03  0.77021882704E+03  0.25500000000E-02 0.  1.
    8880023    1    1    2    0    0  0.88100485670E+02 -0.29823147241E+03 -0.53938862151E+03  0.90634099432E+03  0.65864270000E+03 0.  0.
    8880022    1    1    2    0    0 -0.88100485670E+02  0.29823147241E+03  0.58667537246E+03  0.68138341070E+03  0.15294330000E+03 0.  0.
<mgrwt>
<rscale>  0 0.60492575E+03</rscale>
<asrwt>0</asrwt>
<pdfrwt beam="1">  1        2 0.12577009E+00 0.72836386E+03</pdfrwt>
<pdfrwt beam="2">  1       -2 0.11849520E+00 0.72836386E+03</pdfrwt>
<totfact> 0.18645998E+01</totfact>
</mgrwt>
</event>
<event>
 4    1  0.3057048E-007  0.7278680E+03  0.7818608E-02  0.9896810E-01
          2   -1    0    0  501    0  0.00000000000E+00  0.00000000000E+00  0.68710694176E+03  0.68710694176E+03  0.25500000000E-02 0. -1.
         -2   -1    0    0    0  501 -0.00000000000E+00 -0.00000000000E+00 -0.94517160457E+03  0.94517160457E+03  0.25500000000E-02 0.  1.
    8880023    1    1    2    0    0 -0.42297968150E+02  0.30690795358E+03 -0.74086203020E+03  0.10385896033E+04  0.65864270000E+03 0.  1.
    8880022    1    1    2    0    0  0.42297968150E+02 -0.30690795358E+03  0.48279736739E+03  0.59368894301E+03  0.15294330000E+03 0.  0.
<mgrwt>
<rscale>  0 0.60416123E+03</rscale>
<asrwt>0</asrwt>
<pdfrwt beam="1">  1        2 0.10570876E+00 0.72786799E+03</pdfrwt>
<pdfrwt beam="2">  1       -2 0.14541101E+00 0.72786799E+03</pdfrwt>
<totfact> 0.13877394E+01</totfact>
</mgrwt>
</event>
<event>
 4    1  0.3057048E-007  0.1031205E+04  0.7818608E-02  0.9341824E-01
         -2   -1    0    0    0  501 -0.00000000000E+00  0.00000000000E+00  0.66820405770E+03  0.66820405771E+03  0.25500000000E-02 0.  1.
          2   -1    0    0  501    0  0.00000000000E+00 -0.00000000000E+00 -0.12699317982E+04  0.12699317982E+04  0.25500000000E-02 0. -1.
    8880023    1    1    2    0    0  0.77022684875E+03 -0.19059155473E+03 -0.39295286381E+03  0.11035382634E+04  0.65864270000E+03 0. -1.
    8880022    1    1    2    0    0 -0.77022684875E+03  0.19059155473E+03 -0.20877487665E+03  0.83459759250E+03  0.15294330000E+03 0.  1.
<mgrwt>
<rscale>  0 0.97022005E+03</rscale>
<asrwt>0</asrwt>
<pdfrwt beam="1">  1        2 0.19537412E+00 0.10312055E+04</pdfrwt>
<pdfrwt beam="2">  1       -2 0.10280062E+00 0.10312055E+04</pdfrwt>
<totfact> 0.13198572E+01</totfact>
</mgrwt>
</event>
<event>
 4    1  0.3057048E-007  0.8172191E+03  0.7818608E-02  0.9674731E-01
          2   -1    0    0  501    0  0.00000000000E+00  0.00000000000E+00  0.48928449938E+03  0.48928449938E+03  0.25500000000E-02 0. -1.
         -2   -1    0    0    0  501 -0.00000000000E+00 -0.00000000000E+00 -0.12872660539E+04  0.12872660539E+04  0.25500000000E-02 0.  1.
    8880023    1    1    2    0    0  0.37261529232E+03 -0.30853636528E+03 -0.94399073512E+03  0.12485854232E+04  0.65864270000E+03 0.  1.
    8880022    1    1    2    0    0 -0.37261529232E+03  0.30853636528E+03  0.14600918058E+03  0.52796513010E+03  0.15294330000E+03 0.  0.
<mgrwt>
<rscale>  0 0.72541404E+03</rscale>
<asrwt>0</asrwt>
<pdfrwt beam="1">  1        2 0.75274539E-01 0.81721910E+03</pdfrwt>
<pdfrwt beam="2">  1       -2 0.19804093E+00 0.81721910E+03</pdfrwt>
<totfact> 0.87552314E+00</totfact>
</mgrwt>
</event>
<event>
 4    1  0.3057048E-007  0.6880284E+03  0.7818608E-02  0.1005104E+00
         -2   -1    0    0    0  501 -0.00000000000E+00  0.00000000000E+00  0.30303247714E+03  0.30303247715E+03  0.25500000000E-02 0.  1.
          2   -1    0    0  501    0  0.00000000000E+00 -0.00000000000E+00 -0.94642492969E+03  0.94642492970E+03  0.25500000000E-02 0. -1.
    8880023    1    1    2    0    0 -0.12432772807E+03  0.15529184559E+03 -0.16238264265E+03  0.70693088076E+03  0.65864270000E+03 0.  0.
    8880022    1    1    2    0    0  0.12432772807E+03 -0.15529184559E+03 -0.48100980990E+03  0.54252652609E+03  0.15294330000E+03 0.  0.
<mgrwt>
<rscale>  0 0.53467743E+03</rscale>
<asrwt>0</asrwt>
<pdfrwt beam="1">  1        2 0.14560383E+00 0.68802845E+03</pdfrwt>
<pdfrwt beam="2">  1       -2 0.46620382E-01 0.68802845E+03</pdfrwt>
<totfact> 0.12107622E+02</totfact>
</mgrwt>
</event>
<event>
 4    1  0.3057048E-007  0.8828803E+03  0.7818608E-02  0.9554093E-01
         -2   -1    0    0    0  501 -0.00000000000E+00  0.00000000000E+00  0.41423864644E+03  0.41423864645E+03  0.25500000000E-02 0.  1.
          2   -1    0    0  501    0  0.00000000000E+00 -0.00000000000E+00 -0.15738964308E+04  0.15738964308E+04  0.25500000000E-02 0. -1.
    8880023    1    1    2    0    0 -0.57940195591E+03 -0.99803876385E+02 -0.29392976021E+03  0.93052262221E+03  0.65864270000E+03 0.  0.
    8880022    1    1    2    0    0  0.57940195591E+03  0.99803876385E+02 -0.86572802419E+03  0.10576124551E+04  0.15294330000E+03 0.  0.
<mgrwt>
<rscale>  0 0.80410611E+03</rscale>
<asrwt>0</asrwt>
<pdfrwt beam="1">  1        2 0.24213791E+00 0.88288031E+03</pdfrwt>
<pdfrwt beam="2">  1       -2 0.63729023E-01 0.88288031E+03</pdfrwt>
<totfact> 0.26533848E+01</totfact>
</mgrwt>
</event>
<event>
 4    1  0.3057048E-007  0.8568792E+03  0.7818608E-02  0.9599139E-01
         -2   -1    0    0    0  501 -0.00000000000E+00  0.00000000000E+00  0.72635438097E+03  0.72635438097E+03  0.25500000000E-02 0.  1.
          2   -1    0    0  501    0  0.00000000000E+00 -0.00000000000E+00 -0.93057536281E+03  0.93057536282E+03  0.25500000000E-02 0. -1.
    8880023    1    1    2    0    0  0.13761981080E+03  0.53055866964E+03 -0.52378336930E+03  0.10042862831E+04  0.65864270000E+03 0. -1.
    8880022    1    1    2    0    0 -0.13761981080E+03 -0.53055866964E+03  0.31956238745E+03  0.65264346067E+03  0.15294330000E+03 0.  1.
<mgrwt>
<rscale>  0 0.77353187E+03</rscale>
<asrwt>0</asrwt>
<pdfrwt beam="1">  1        2 0.14316544E+00 0.85687917E+03</pdfrwt>
<pdfrwt beam="2">  1       -2 0.11174683E+00 0.85687917E+03</pdfrwt>
<totfact> 0.17779975E+01</totfact>
</mgrwt>
</event>
<event>
 4    1  0.3057048E-007  0.7333895E+03  0.7818608E-02  0.9879639E-01
          2   -1    0    0  501    0  0.00000000000E+00  0.00000000000E+00  0.12860702409E+04  0.12860702409E+04  0.25500000000E-02 0. -1.
         -2   -1    0    0    0  501 -0.00000000000E+00 -0.00000000000E+00 -0.70602886916E+03  0.70602886916E+03  0.25500000000E-02 0.  1.
    8880023    1    1    2    0    0  0.27344500133E+03 -0.17110732339E+03 -0.47802988083E+03  0.87542712895E+03  0.65864270000E+03 0.  1.
    8880022    1    1    2    0    0 -0.27344500133E+03  0.17110732339E+03  0.10580712526E+04  0.11166719811E+04  0.15294330000E+03 0.  0.
<mgrwt>
<rscale>  0 0.61258290E+03</rscale>
<asrwt>0</asrwt>
<pdfrwt beam="1">  1        2 0.19785696E+00 0.73338945E+03</pdfrwt>
<pdfrwt beam="2">  1       -2 0.10861983E+00 0.73338945E+03</pdfrwt>
<totfact> 0.11673881E+01</totfact>
</mgrwt>
</event>
<event>
 4    1  0.3057048E-007  0.7064340E+03  0.7818608E-02  0.9971489E-01
          2   -1    0    0  501    0  0.00000000000E+00  0.00000000000E+00  0.66064330176E+03  0.66064330177E+03  0.25500000000E-02 0. -1.
         -2   -1    0    0    0  501 -0.00000000000E+00 -0.00000000000E+00 -0.56086218631E+03  0.56086218632E+03  0.25500000000E-02 0.  1.
    8880023    1    1    2    0    0  0.23390175563E+03  0.10260964089E+03 -0.26157668748E+03  0.75330693571E+03  0.65864270000E+03 0.  1.
    8880022    1    1    2    0    0 -0.23390175563E+03 -0.10260964089E+03  0.36135780294E+03  0.46819855238E+03  0.15294330000E+03 0.  0.
<mgrwt>
<rscale>  0 0.56918250E+03</rscale>
<asrwt>0</asrwt>
<pdfrwt beam="1">  1        2 0.10163743E+00 0.70643399E+03</pdfrwt>
<pdfrwt beam="2">  1       -2 0.86286490E-01 0.70643399E+03</pdfrwt>
<totfact> 0.52120418E+01</totfact>
</mgrwt>
</event>
<event>
 4    1  0.3057048E-007  0.7817034E+03  0.7818608E-02  0.9751851E-01
          2   -1    0    0  501    0  0.00000000000E+00  0.00000000000E+00  0.35252003028E+04  0.35252003028E+04  0.25500000000E-02 0. -1.
         -2   -1    0    0    0  501 -0.00000000000E+00 -0.00000000000E+00 -0.16491425524E+03  0.16491425526E+03  0.25500000000E-02 0.  1.
    8880023    1    1    2    0    0 -0.37063902210E+03 -0.19969161342E+03  0.91190206618E+03  0.12010935058E+04  0.65864270000E+03 0.  0.
    8880022    1    1    2    0    0  0.37063902210E+03  0.19969161342E+03  0.24483839814E+04  0.24890210523E+04  0.15294330000E+03 0.  0.
<mgrwt>
<rscale>  0 0.68011782E+03</rscale>
<asrwt>0</asrwt>
<pdfrwt beam="1">  1        2 0.54233846E+00 0.78170342E+03</pdfrwt>
<pdfrwt beam="2">  1       -2 0.25371426E-01 0.78170342E+03</pdfrwt>
<totfact> 0.11694812E+01</totfact>
</mgrwt>
</event>
<event>
 4    1  0.3057048E-007  0.7345622E+03  0.7818608E-02  0.9876080E-01
          2   -1    0    0  501    0  0.00000000000E+00  0.00000000000E+00  0.22704572505E+04  0.22704572505E+04  0.25500000000E-02 0. -1.
         -2   -1    0    0    0  501 -0.00000000000E+00 -0.00000000000E+00 -0.22342319534E+03  0.22342319535E+03  0.25500000000E-02 0.  1.
    8880023    1    1    2    0    0  0.14689005530E+03 -0.29016340330E+03  0.46010235631E+03  0.86676171668E+03  0.65864270000E+03 0.  1.
    8880022    1    1    2    0    0 -0.14689005530E+03  0.29016340330E+03  0.15869316989E+04  0.16271187292E+04  0.15294330000E+03 0.  0.
<mgrwt>
<rscale>  0 0.61434705E+03</rscale>
<asrwt>0</asrwt>
<pdfrwt beam="1">  1        2 0.34930112E+00 0.73456225E+03</pdfrwt>
<pdfrwt beam="2">  1       -2 0.34372799E-01 0.73456225E+03</pdfrwt>
<totfact> 0.38817918E+01</totfact>
</mgrwt>
</event>
<event>
 4    1  0.3057048E-007  0.7291335E+03  0.7818608E-02  0.9892812E-01
          2   -1    0    0  501    0  0.00000000000E+00  0.00000000000E+00  0.16871942756E+04  0.16871942756E+04  0.25500000000E-02 0. -1.
         -2   -1    0    0    0  501 -0.00000000000E+00 -0.00000000000E+00 -0.32654919951E+03  0.32654919952E+03  0.25500000000E-02 0.  1.
    8880023    1    1    2    0    0  0.30995648497E+03  0.41861612108E+02  0.13746534566E+03  0.74197866861E+03  0.65864270000E+03 0.  1.
    8880022    1    1    2    0    0 -0.30995648497E+03 -0.41861612108E+02  0.12231797305E+04  0.12717648065E+04  0.15294330000E+03 0.  0.
<mgrwt>
<rscale>  0 0.60610902E+03</rscale>
<asrwt>0</asrwt>
<pdfrwt beam="1">  1        2 0.25956835E+00 0.72913347E+03</pdfrwt>
<pdfrwt beam="2">  1       -2 0.50238339E-01 0.72913347E+03</pdfrwt>
<totfact> 0.38414997E+01</totfact>
</mgrwt>
</event>
<event>
 4    1  0.3057048E-007  0.8207734E+03  0.7818608E-02  0.9667558E-01
         -2   -1    0    0    0  501 -0.00000000000E+00  0.00000000000E+00  0.46049249285E+03  0.46049249286E+03  0.25500000000E-02 0.  1.
          2   -1    0    0  501    0  0.00000000000E+00 -0.00000000000E+00 -0.10462267741E+04  0.10462267741E+04  0.25500000000E-02 0. -1.
    8880023    1    1    2    0    0 -0.20858973384E+03  0.44311296118E+03 -0.55879051284E+03  0.99293293678E+03  0.65864270000E+03 0. -1.
    8880022    1    1    2    0    0  0.20858973384E+03 -0.44311296118E+03 -0.26943768430E+02  0.51378633021E+03  0.15294330000E+03 0.  0.
<mgrwt>
<rscale>  0 0.72981636E+03</rscale>
<asrwt>0</asrwt>
<pdfrwt beam="1">  1        2 0.16095796E+00 0.82077340E+03</pdfrwt>
<pdfrwt beam="2">  1       -2 0.70844999E-01 0.82077340E+03</pdfrwt>
<totfact> 0.43042959E+01</totfact>
</mgrwt>
</event>
<event>
 4    1  0.3057048E-007  0.6757690E+03  0.7818608E-02  0.1011826E+00
          2   -1    0    0  501    0  0.00000000000E+00  0.00000000000E+00  0.14929326641E+04  0.14929326641E+04  0.25500000000E-02 0. -1.
         -2   -1    0    0    0  501 -0.00000000000E+00 -0.00000000000E+00 -0.24515629258E+03  0.24515629259E+03  0.25500000000E-02 0.  1.
    8880023    1    1    2    0    0  0.76862536382E+02 -0.13017552777E+03  0.25498637218E+03  0.72227541408E+03  0.65864270000E+03 0.  1.
    8880022    1    1    2    0    0 -0.76862536382E+02  0.13017552777E+03  0.99278999938E+03  0.10158135426E+04  0.15294330000E+03 0.  0.
<mgrwt>
<rscale>  0 0.50755369E+03</rscale>
<asrwt>0</asrwt>
<pdfrwt beam="1">  1        2 0.22968195E+00 0.67576899E+03</pdfrwt>
<pdfrwt beam="2">  1       -2 0.37716353E-01 0.67576899E+03</pdfrwt>
<totfact> 0.87217735E+01</totfact>
</mgrwt>
</event>
<event>
 4    1  0.3057048E-007  0.6778881E+03  0.7818608E-02  0.1010544E+00
          2   -1    0    0  501    0  0.00000000000E+00  0.00000000000E+00  0.28560645038E+04  0.28560645038E+04  0.25500000000E-02 0. -1.
         -2   -1    0    0    0  501 -0.00000000000E+00 -0.00000000000E+00 -0.27371117688E+03  0.27371117690E+03  0.25500000000E-02 0.  1.
    8880023    1    1    2    0    0 -0.14380339150E+03 -0.71011603934E+02  0.15896782370E+03  0.69627798941E+03  0.65864270000E+03 0.  1.
    8880022    1    1    2    0    0  0.14380339150E+03  0.71011603934E+02  0.24233855032E+04  0.24334976912E+04  0.15294330000E+03 0.  0.
<mgrwt>
<rscale>  0 0.51258850E+03</rscale>
<asrwt>0</asrwt>
<pdfrwt beam="1">  1        2 0.43939453E+00 0.67788810E+03</pdfrwt>
<pdfrwt beam="2">  1       -2 0.42109412E-01 0.67788810E+03</pdfrwt>
<totfact> 0.12247493E+01</totfact>
</mgrwt>
</event>
<event>
 4    1  0.3057048E-007  0.8996967E+03  0.7818608E-02  0.9526519E-01
         -2   -1    0    0    0  501 -0.00000000000E+00  0.00000000000E+00  0.61576912334E+03  0.61576912335E+03  0.25500000000E-02 0.  1.
          2   -1    0    0  501    0  0.00000000000E+00 -0.00000000000E+00 -0.16301980820E+04  0.16301980820E+04  0.25500000000E-02 0. -1.
    8880023    1    1    2    0    0  0.22679158081E+03  0.56939406283E+03  0.15868991396E+03  0.91358454177E+03  0.65864270000E+03 0.  1.
    8880022    1    1    2    0    0 -0.22679158081E+03 -0.56939406283E+03 -0.11731188726E+04  0.13323826636E+04  0.15294330000E+03 0.  0.
<mgrwt>
<rscale>  0 0.82356632E+03</rscale>
<asrwt>0</asrwt>
<pdfrwt beam="1">  1        2 0.25079970E+00 0.89969674E+03</pdfrwt>
<pdfrwt beam="2">  1       -2 0.94733712E-01 0.89969674E+03</pdfrwt>
<totfact> 0.10142086E+01</totfact>
</mgrwt>
</event>
<event>
 4    1  0.3057048E-007  0.6642166E+03  0.7818608E-02  0.1020200E+00
          2   -1    0    0  501    0  0.00000000000E+00  0.00000000000E+00  0.12512187997E+04  0.12512187997E+04  0.25500000000E-02 0. -1.
         -2   -1    0    0    0  501 -0.00000000000E+00 -0.00000000000E+00 -0.44830809999E+03  0.44830810000E+03  0.25500000000E-02 0.  1.
    8880023    1    1    2    0    0  0.72627133232E+02 -0.45812891650E+02 -0.19030600065E+03  0.69094146038E+03  0.65864270000E+03 0.  0.
    8880022    1    1    2    0    0 -0.72627133232E+02  0.45812891650E+02  0.99321670033E+03  0.10085854393E+04  0.15294330000E+03 0. -1.
<mgrwt>
<rscale>  0 0.47614555E+03</rscale>
<asrwt>0</asrwt>
<pdfrwt beam="1">  1        2 0.19249520E+00 0.66421663E+03</pdfrwt>
<pdfrwt beam="2">  1       -2 0.68970477E-01 0.66421663E+03</pdfrwt>
<totfact> 0.34881570E+01</totfact>
</mgrwt>
</event>
<event>
 4    1  0.3057048E-007  0.7300039E+03  0.7818608E-02  0.9890084E-01
          2   -1    0    0  501    0  0.00000000000E+00  0.00000000000E+00  0.16225890997E+04  0.16225890997E+04  0.25500000000E-02 0. -1.
         -2   -1    0    0    0  501 -0.00000000000E+00 -0.00000000000E+00 -0.64585554928E+03  0.64585554929E+03  0.25500000000E-02 0.  1.
    8880023    1    1    2    0    0 -0.15002384262E+03 -0.27674609601E+03 -0.41066320108E+03  0.83758583202E+03  0.65864270000E+03 0.  0.
    8880022    1    1    2    0    0  0.15002384262E+03  0.27674609601E+03  0.13873967515E+04  0.14308588170E+04  0.15294330000E+03 0.  0.
<mgrwt>
<rscale>  0 0.60744260E+03</rscale>
<asrwt>0</asrwt>
<pdfrwt beam="1">  1        2 0.24962909E+00 0.73000395E+03</pdfrwt>
<pdfrwt beam="2">  1       -2 0.99362393E-01 0.73000395E+03</pdfrwt>
<totfact> 0.93565345E+00</totfact>
</mgrwt>
</event>
<event>
 4    1  0.3057048E-007  0.9514290E+03  0.7818608E-02  0.9448061E-01
         -2   -1    0    0    0  501 -0.00000000000E+00  0.00000000000E+00  0.36118791915E+03  0.36118791915E+03  0.25500000000E-02 0.  1.
          2   -1    0    0  501    0  0.00000000000E+00 -0.00000000000E+00 -0.23729048159E+04  0.23729048159E+04  0.25500000000E-02 0. -1.
    8880023    1    1    2    0    0  0.29278647697E+03 -0.62103382012E+03 -0.51862202806E+03  0.10835986070E+04  0.65864270000E+03 0.  1.
    8880022    1    1    2    0    0 -0.29278647697E+03  0.62103382012E+03 -0.14930948687E+04  0.16504941281E+04  0.15294330000E+03 0.  0.
<mgrwt>
<rscale>  0 0.88223817E+03</rscale>
<asrwt>0</asrwt>
<pdfrwt beam="1">  1        2 0.36506227E+00 0.95142900E+03</pdfrwt>
<pdfrwt beam="2">  1       -2 0.55567374E-01 0.95142900E+03</pdfrwt>
<totfact> 0.12733051E+01</totfact>
</mgrwt>
</event>
<event>
 4    1  0.3057048E-007  0.7240890E+03  0.7818608E-02  0.9908985E-01
         -2   -1    0    0    0  501 -0.00000000000E+00  0.00000000000E+00  0.99659681984E+03  0.99659681984E+03  0.25500000000E-02 0.  1.
          2   -1    0    0  501    0  0.00000000000E+00 -0.00000000000E+00 -0.34460499296E+03  0.34460499297E+03  0.25500000000E-02 0. -1.
    8880023    1    1    2    0    0 -0.29720857779E+03  0.46494987426E+02  0.69173369184E+03  0.10013992357E+04  0.65864270000E+03 0.  0.
    8880022    1    1    2    0    0  0.29720857779E+03 -0.46494987426E+02 -0.39741864959E+02  0.33980257711E+03  0.15294330000E+03 0.  0.
<mgrwt>
<rscale>  0 0.59827788E+03</rscale>
<asrwt>0</asrwt>
<pdfrwt beam="1">  1        2 0.53016153E-01 0.72408903E+03</pdfrwt>
<pdfrwt beam="2">  1       -2 0.15332259E+00 0.72408903E+03</pdfrwt>
<totfact> 0.26963982E+01</totfact>
</mgrwt>
</event>
<event>
 4    1  0.3057048E-007  0.8637414E+03  0.7818608E-02  0.9586942E-01
         -2   -1    0    0    0  501 -0.00000000000E+00  0.00000000000E+00  0.20292054752E+04  0.20292054752E+04  0.25500000000E-02 0.  1.
          2   -1    0    0  501    0  0.00000000000E+00 -0.00000000000E+00 -0.50450658951E+03  0.50450658952E+03  0.25500000000E-02 0. -1.
    8880023    1    1    2    0    0 -0.37272430776E+03 -0.41631198495E+03  0.17180582891E+04  0.19229595860E+04  0.65864270000E+03 0.  1.
    8880022    1    1    2    0    0  0.37272430776E+03  0.41631198495E+03 -0.19335940337E+03  0.61075247875E+03  0.15294330000E+03 0.  0.
<mgrwt>
<rscale>  0 0.78166476E+03</rscale>
<asrwt>0</asrwt>
<pdfrwt beam="1">  1        2 0.77616398E-01 0.86374145E+03</pdfrwt>
<pdfrwt beam="2">  1       -2 0.31218546E+00 0.86374145E+03</pdfrwt>
<totfact> 0.16741569E+00</totfact>
</mgrwt>
</event>
<event>
 4    1  0.3057048E-007  0.7041946E+03  0.7818608E-02  0.9980226E-01
          2   -1    0    0  501    0  0.00000000000E+00  0.00000000000E+00  0.60999501522E+03  0.60999501523E+03  0.25500000000E-02 0. -1.
         -2   -1    0    0    0  501 -0.00000000000E+00 -0.00000000000E+00 -0.66235362009E+03  0.66235362010E+03  0.25500000000E-02 0.  1.
    8880023    1    1    2    0    0 -0.11287029828E+03 -0.22212635803E+03 -0.40651826732E+03  0.81310954434E+03  0.65864270000E+03 0.  0.
    8880022    1    1    2    0    0  0.11287029828E+03  0.22212635803E+03  0.35415966245E+03  0.45923909098E+03  0.15294330000E+03 0.  0.
<mgrwt>
<rscale>  0 0.56525858E+03</rscale>
<asrwt>0</asrwt>
<pdfrwt beam="1">  1        2 0.93845387E-01 0.70419460E+03</pdfrwt>
<pdfrwt beam="2">  1       -2 0.10190056E+00 0.70419460E+03</pdfrwt>
<totfact> 0.39015265E+01</totfact>
</mgrwt>
</event>
<event>
 4    1  0.3057048E-007  0.1151675E+04  0.7818608E-02  0.9205592E-01
          2   -1    0    0  501    0  0.00000000000E+00  0.00000000000E+00  0.26060699980E+04  0.26060699980E+04  0.25500000000E-02 0. -1.
         -2   -1    0    0    0  501 -0.00000000000E+00 -0.00000000000E+00 -0.11856473026E+04  0.11856473026E+04  0.25500000000E-02 0.  1.
    8880023    1    1    2    0    0  0.68632662176E+03  0.64923098606E+03 -0.78082646328E+03  0.13914184407E+04  0.65864270000E+03 0.  1.
    8880022    1    1    2    0    0 -0.68632662176E+03 -0.64923098606E+03  0.22012491587E+04  0.24002988599E+04  0.15294330000E+03 0.  0.
<mgrwt>
<rscale>  0 0.10995896E+04</rscale>
<asrwt>0</asrwt>
<pdfrwt beam="1">  1        2 0.40093384E+00 0.11516750E+04</pdfrwt>
<pdfrwt beam="2">  1       -2 0.18240728E+00 0.11516750E+04</pdfrwt>
<totfact> 0.51846024E-01</totfact>
</mgrwt>
</event>
<event>
 4    1  0.3057048E-007  0.7234922E+03  0.7818608E-02  0.9910942E-01
          2   -1    0    0  501    0  0.00000000000E+00  0.00000000000E+00  0.20319253607E+04  0.20319253607E+04  0.25500000000E-02 0. -1.
         -2   -1    0    0    0  501 -0.00000000000E+00 -0.00000000000E+00 -0.23891316181E+03  0.23891316182E+03  0.25500000000E-02 0.  1.
    8880023    1    1    2    0    0  0.29938381278E+03 -0.35051139845E+00  0.37770528623E+03  0.81615089274E+03  0.65864270000E+03 0.  1.
    8880022    1    1    2    0    0 -0.29938381278E+03  0.35051139845E+00  0.14153069126E+04  0.14546876298E+04  0.15294330000E+03 0.  0.
<mgrwt>
<rscale>  0 0.59733916E+03</rscale>
<asrwt>0</asrwt>
<pdfrwt beam="1">  1        2 0.31260389E+00 0.72349222E+03</pdfrwt>
<pdfrwt beam="2">  1       -2 0.36755872E-01 0.72349222E+03</pdfrwt>
<totfact> 0.46249792E+01</totfact>
</mgrwt>
</event>
<event>
 4    1  0.3057048E-007  0.9970613E+03  0.7818608E-02  0.9385412E-01
          2   -1    0    0  501    0  0.00000000000E+00  0.00000000000E+00  0.15393175829E+04  0.15393175829E+04  0.25500000000E-02 0. -1.
         -2   -1    0    0    0  501 -0.00000000000E+00 -0.00000000000E+00 -0.87102542932E+03  0.87102542932E+03  0.25500000000E-02 0.  1.
    8880023    1    1    2    0    0 -0.55843307907E+03 -0.49847121556E+03  0.11383854896E+04  0.15132920358E+04  0.65864270000E+03 0.  0.
    8880022    1    1    2    0    0  0.55843307907E+03  0.49847121556E+03 -0.47009333606E+03  0.89705097635E+03  0.15294330000E+03 0.  0.
<mgrwt>
<rscale>  0 0.93285962E+03</rscale>
<asrwt>0</asrwt>
<pdfrwt beam="1">  1        2 0.23681809E+00 0.99706131E+03</pdfrwt>
<pdfrwt beam="2">  1       -2 0.13400391E+00 0.99706131E+03</pdfrwt>
<totfact> 0.48197027E+00</totfact>
</mgrwt>
</event>
<event>
 4    1  0.3057048E-007  0.8850938E+03  0.7818608E-02  0.9550397E-01
          2   -1    0    0  501    0  0.00000000000E+00  0.00000000000E+00  0.17822846876E+04  0.17822846876E+04  0.25500000000E-02 0. -1.
         -2   -1    0    0    0  501 -0.00000000000E+00 -0.00000000000E+00 -0.34915287268E+03  0.34915287268E+03  0.25500000000E-02 0.  1.
    8880023    1    1    2    0    0  0.40636614567E+03 -0.42947347661E+03  0.50097938547E+03  0.10170405412E+04  0.65864270000E+03 0.  0.
    8880022    1    1    2    0    0 -0.40636614567E+03  0.42947347661E+03  0.93215242946E+03  0.11143970191E+04  0.15294330000E+03 0.  0.
<mgrwt>
<rscale>  0 0.80668058E+03</rscale>
<asrwt>0</asrwt>
<pdfrwt beam="1">  1        2 0.27419764E+00 0.88509385E+03</pdfrwt>
<pdfrwt beam="2">  1       -2 0.53715827E-01 0.88509385E+03</pdfrwt>
<totfact> 0.29185929E+01</totfact>
</mgrwt>
</event>
<event>
 4    1  0.3057048E-007  0.6950446E+03  0.7818608E-02  0.1001841E+00
         -2   -1    0    0    0  501 -0.00000000000E+00  0.00000000000E+00  0.18880620847E+03  0.18880620849E+03  0.25500000000E-02 0.  1.
          2   -1    0    0  501    0  0.00000000000E+00 -0.00000000000E+00 -0.16367313344E+04  0.16367313344E+04  0.25500000000E-02 0. -1.
    8880023    1    1    2    0    0 -0.22195739474E+03  0.34223931269E+01 -0.54502585234E+03  0.88325544654E+03  0.65864270000E+03 0.  0.
    8880022    1    1    2    0    0  0.22195739474E+03 -0.34223931269E+01 -0.90289927355E+03  0.94228209632E+03  0.15294330000E+03 0.  0.
<mgrwt>
<rscale>  0 0.54850141E+03</rscale>
<asrwt>0</asrwt>
<pdfrwt beam="1">  1        2 0.25180481E+00 0.69504461E+03</pdfrwt>
<pdfrwt beam="2">  1       -2 0.29047110E-01 0.69504461E+03</pdfrwt>
<totfact> 0.11862903E+02</totfact>
</mgrwt>
</event>
<event>
 4    1  0.3057048E-007  0.9335561E+03  0.7818608E-02  0.9474179E-01
          2   -1    0    0  501    0  0.00000000000E+00  0.00000000000E+00  0.26476609540E+04  0.26476609540E+04  0.25500000000E-02 0. -1.
         -2   -1    0    0    0  501 -0.00000000000E+00 -0.00000000000E+00 -0.33359745981E+03  0.33359745982E+03  0.25500000000E-02 0.  1.
    8880023    1    1    2    0    0 -0.16250614361E+03  0.64133341076E+03  0.53267623696E+03  0.10748353223E+04  0.65864270000E+03 0.  0.
    8880022    1    1    2    0    0  0.16250614361E+03 -0.64133341076E+03  0.17813872572E+04  0.19064230915E+04  0.15294330000E+03 0.  0.
<mgrwt>
<rscale>  0 0.86214577E+03</rscale>
<asrwt>0</asrwt>
<pdfrwt beam="1">  1        2 0.40733245E+00 0.93355610E+03</pdfrwt>
<pdfrwt beam="2">  1       -2 0.51322686E-01 0.93355610E+03</pdfrwt>
<totfact> 0.10476734E+01</totfact>
</mgrwt>
</event>
<event>
 4    1  0.3057048E-007  0.1090631E+04  0.7818608E-02  0.9271559E-01
         -2   -1    0    0    0  501 -0.00000000000E+00  0.00000000000E+00  0.79190381698E+03  0.79190381698E+03  0.25500000000E-02 0.  1.
          2   -1    0    0  501    0  0.00000000000E+00 -0.00000000000E+00 -0.13067706627E+04  0.13067706627E+04  0.25500000000E-02 0. -1.
    8880023    1    1    2    0    0 -0.38801347683E+03 -0.77788959184E+03 -0.53718708384E+03  0.12157494991E+04  0.65864270000E+03 0. -1.
    8880022    1    1    2    0    0  0.38801347683E+03  0.77788959184E+03  0.22320238098E+02  0.88292498058E+03  0.15294330000E+03 0.  0.
<mgrwt>
<rscale>  0 0.10344387E+04</rscale>
<asrwt>0</asrwt>
<pdfrwt beam="1">  1        2 0.20104164E+00 0.10906314E+04</pdfrwt>
<pdfrwt beam="2">  1       -2 0.12183136E+00 0.10906314E+04</pdfrwt>
<totfact> 0.82461609E+00</totfact>
</mgrwt>
</event>
<event>
 4    1  0.3057048E-007  0.6675275E+03  0.7818608E-02  0.1017501E+00
         -2   -1    0    0    0  501 -0.00000000000E+00  0.00000000000E+00  0.29691615783E+03  0.29691615785E+03  0.25500000000E-02 0.  1.
          2   -1    0    0  501    0  0.00000000000E+00 -0.00000000000E+00 -0.73959833595E+03  0.73959833595E+03  0.25500000000E-02 0. -1.
    8880023    1    1    2    0    0  0.76358645614E+02  0.77149751245E+02 -0.14251249726E+03  0.68257068866E+03  0.65864270000E+03 0.  1.
    8880022    1    1    2    0    0 -0.76358645614E+02 -0.77149751245E+02 -0.30016968085E+03  0.35394380514E+03  0.15294330000E+03 0.  0.
<mgrwt>
<rscale>  0 0.48599317E+03</rscale>
<asrwt>0</asrwt>
<pdfrwt beam="1">  1        2 0.11378436E+00 0.66752748E+03</pdfrwt>
<pdfrwt beam="2">  1       -2 0.45679409E-01 0.66752748E+03</pdfrwt>
<totfact> 0.17608136E+02</totfact>
</mgrwt>
</event>
<event>
 4    1  0.3057048E-007  0.7639000E+03  0.7818608E-02  0.9795113E-01
          2   -1    0    0  501    0  0.00000000000E+00  0.00000000000E+00  0.11714554182E+04  0.11714554182E+04  0.25500000000E-02 0. -1.
         -2   -1    0    0    0  501 -0.00000000000E+00 -0.00000000000E+00 -0.31641412687E+03  0.31641412688E+03  0.25500000000E-02 0.  1.
    8880023    1    1    2    0    0  0.61691520223E+02 -0.38200420926E+03  0.36991816489E+03  0.84875362417E+03  0.65864270000E+03 0.  0.
    8880022    1    1    2    0    0 -0.61691520223E+02  0.38200420926E+03  0.48512312648E+03  0.63911592096E+03  0.15294330000E+03 0.  0.
<mgrwt>
<rscale>  0 0.65625448E+03</rscale>
<asrwt>0</asrwt>
<pdfrwt beam="1">  1        2 0.18022391E+00 0.76390004E+03</pdfrwt>
<pdfrwt beam="2">  1       -2 0.48679097E-01 0.76390004E+03</pdfrwt>
<totfact> 0.79903005E+01</totfact>
</mgrwt>
</event>
<event>
 4    1  0.3057048E-007  0.6932859E+03  0.7818608E-02  0.1002628E+00
          2   -1    0    0  501    0  0.00000000000E+00  0.00000000000E+00  0.30323598358E+03  0.30323598359E+03  0.25500000000E-02 0. -1.
         -2   -1    0    0    0  501 -0.00000000000E+00 -0.00000000000E+00 -0.93769099811E+03  0.93769099811E+03  0.25500000000E-02 0.  1.
    8880023    1    1    2    0    0 -0.17273575994E+03 -0.13037455834E+03 -0.68107014875E+03  0.97185488732E+03  0.65864270000E+03 0.  1.
    8880022    1    1    2    0    0  0.17273575994E+03  0.13037455834E+03  0.46615134213E+02  0.26907209438E+03  0.15294330000E+03 0.  0.
<mgrwt>
<rscale>  0 0.54512634E+03</rscale>
<asrwt>0</asrwt>
<pdfrwt beam="1">  1        2 0.46651690E-01 0.69328593E+03</pdfrwt>
<pdfrwt beam="2">  1       -2 0.14426015E+00 0.69328593E+03</pdfrwt>
<totfact> 0.36582361E+01</totfact>
</mgrwt>
</event>
<event>
 4    1  0.3057048E-007  0.7794831E+03  0.7818608E-02  0.9757053E-01
          2   -1    0    0  501    0  0.00000000000E+00  0.00000000000E+00  0.14151235459E+04  0.14151235459E+04  0.25500000000E-02 0. -1.
         -2   -1    0    0    0  501 -0.00000000000E+00 -0.00000000000E+00 -0.41226978678E+03  0.41226978679E+03  0.25500000000E-02 0.  1.
    8880023    1    1    2    0    0 -0.40929803686E+03 -0.79112588788E+02  0.55884165509E+02  0.78148380079E+03  0.65864270000E+03 0.  1.
    8880022    1    1    2    0    0  0.40929803686E+03  0.79112588788E+02  0.94696959361E+03  0.10459095319E+04  0.15294330000E+03 0.  0.
<mgrwt>
<rscale>  0 0.67719166E+03</rscale>
<asrwt>0</asrwt>
<pdfrwt beam="1">  1        2 0.21771131E+00 0.77948309E+03</pdfrwt>
<pdfrwt beam="2">  1       -2 0.63426123E-01 0.77948309E+03</pdfrwt>
<totfact> 0.33243324E+01</totfact>
</mgrwt>
</event>
<event>
 4    1  0.3057048E-007  0.7588138E+03  0.7818608E-02  0.9808188E-01
          2   -1    0    0  501    0  0.00000000000E+00  0.00000000000E+00  0.22197243840E+04  0.22197243840E+04  0.25500000000E-02 0. -1.
         -2   -1    0    0    0  501 -0.00000000000E+00 -0.00000000000E+00 -0.30523004523E+03  0.30523004524E+03  0.25500000000E-02 0.  1.
    8880023    1    1    2    0    0  0.34814905485E+03 -0.14415395398E+03  0.23123094465E+03  0.79326293426E+03  0.65864270000E+03 0.  0.
    8880022    1    1    2    0    0 -0.34814905485E+03  0.14415395398E+03  0.16832633941E+04  0.17316914950E+04  0.15294330000E+03 0. -1.
<mgrwt>
<rscale>  0 0.64924962E+03</rscale>
<asrwt>0</asrwt>
<pdfrwt beam="1">  1        2 0.34149605E+00 0.75881377E+03</pdfrwt>
<pdfrwt beam="2">  1       -2 0.46958470E-01 0.75881377E+03</pdfrwt>
<totfact> 0.22442316E+01</totfact>
</mgrwt>
</event>
<event>
 4    1  0.3057048E-007  0.7340851E+03  0.7818608E-02  0.9877524E-01
         -2   -1    0    0    0  501 -0.00000000000E+00  0.00000000000E+00  0.87217222975E+03  0.87217222976E+03  0.25500000000E-02 0.  1.
          2   -1    0    0  501    0  0.00000000000E+00 -0.00000000000E+00 -0.81376644084E+03  0.81376644084E+03  0.25500000000E-02 0. -1.
    8880023    1    1    2    0    0  0.14704929776E+03 -0.28887230995E+03  0.65902486569E+03  0.98650630373E+03  0.65864270000E+03 0.  0.
    8880022    1    1    2    0    0 -0.14704929776E+03  0.28887230995E+03 -0.60061907678E+03  0.69943236688E+03  0.15294330000E+03 0. -1.
<mgrwt>
<rscale>  0 0.61363029E+03</rscale>
<asrwt>0</asrwt>
<pdfrwt beam="1">  1        2 0.12519484E+00 0.73408509E+03</pdfrwt>
<pdfrwt beam="2">  1       -2 0.13418034E+00 0.73408509E+03</pdfrwt>
<totfact> 0.13721822E+01</totfact>
</mgrwt>
</event>
<event>
 4    1  0.3057048E-007  0.7343730E+03  0.7818608E-02  0.9876652E-01
          2   -1    0    0  501    0  0.00000000000E+00  0.00000000000E+00  0.17598879475E+04  0.17598879475E+04  0.25500000000E-02 0. -1.
         -2   -1    0    0    0  501 -0.00000000000E+00 -0.00000000000E+00 -0.67176728233E+03  0.67176728233E+03  0.25500000000E-02 0.  1.
    8880023    1    1    2    0    0 -0.30345803409E+03  0.11578759051E+03 -0.44391606875E+03  0.85811725710E+03  0.65864270000E+03 0.  1.
    8880022    1    1    2    0    0  0.30345803409E+03 -0.11578759051E+03  0.15320367339E+04  0.15735379727E+04  0.15294330000E+03 0.  0.
<mgrwt>
<rscale>  0 0.61406299E+03</rscale>
<asrwt>0</asrwt>
<pdfrwt beam="1">  1        2 0.27075198E+00 0.73437303E+03</pdfrwt>
<pdfrwt beam="2">  1       -2 0.10334882E+00 0.73437303E+03</pdfrwt>
<totfact> 0.71619344E+00</totfact>
</mgrwt>
</event>
<event>
 4    1  0.3057048E-007  0.9412640E+03  0.7818608E-02  0.9462796E-01
          2   -1    0    0  501    0  0.00000000000E+00  0.00000000000E+00  0.28928515836E+04  0.28928515836E+04  0.25500000000E-02 0. -1.
         -2   -1    0    0    0  501 -0.00000000000E+00 -0.00000000000E+00 -0.36814628143E+03  0.36814628144E+03  0.25500000000E-02 0.  1.
    8880023    1    1    2    0    0 -0.54195092345E+03  0.39806656553E+03  0.39209997588E+03  0.10196668041E+04  0.65864270000E+03 0.  1.
    8880022    1    1    2    0    0  0.54195092345E+03 -0.39806656553E+03  0.21326053262E+04  0.22413310609E+04  0.15294330000E+03 0.  0.
<mgrwt>
<rscale>  0 0.87083165E+03</rscale>
<asrwt>0</asrwt>
<pdfrwt beam="1">  1        2 0.44505409E+00 0.94126404E+03</pdfrwt>
<pdfrwt beam="2">  1       -2 0.56637889E-01 0.94126404E+03</pdfrwt>
<totfact> 0.61061399E+00</totfact>
</mgrwt>
</event>
<event>
 4    1  0.3057048E-007  0.6797173E+03  0.7818608E-02  0.1009484E+00
          2   -1    0    0  501    0  0.00000000000E+00  0.00000000000E+00  0.69342890928E+03  0.69342890929E+03  0.25500000000E-02 0. -1.
         -2   -1    0    0    0  501 -0.00000000000E+00 -0.00000000000E+00 -0.42742543441E+03  0.42742543442E+03  0.25500000000E-02 0.  1.
    8880023    1    1    2    0    0  0.15804965675E+03 -0.56795710275E+02 -0.10306364352E+03  0.68748655811E+03  0.65864270000E+03 0.  1.
    8880022    1    1    2    0    0 -0.15804965675E+03  0.56795710275E+02  0.36906711839E+03  0.43336778560E+03  0.15294330000E+03 0.  0.
<mgrwt>
<rscale>  0 0.51680228E+03</rscale>
<asrwt>0</asrwt>
<pdfrwt beam="1">  1        2 0.10668137E+00 0.67971733E+03</pdfrwt>
<pdfrwt beam="2">  1       -2 0.65757759E-01 0.67971733E+03</pdfrwt>
<totfact> 0.89777636E+01</totfact>
</mgrwt>
</event>
<event>
 4    1  0.3057048E-007  0.1031210E+04  0.7818608E-02  0.9341819E-01
         -2   -1    0    0    0  501 -0.00000000000E+00  0.00000000000E+00  0.10868434540E+04  0.10868434540E+04  0.25500000000E-02 0.  1.
          2   -1    0    0  501    0  0.00000000000E+00 -0.00000000000E+00 -0.17908203200E+04  0.17908203200E+04  0.25500000000E-02 0. -1.
    8880023    1    1    2    0    0  0.62166706639E+03 -0.49306500054E+03  0.70796328398E+03  0.12508418181E+04  0.65864270000E+03 0.  0.
    8880022    1    1    2    0    0 -0.62166706639E+03  0.49306500054E+03 -0.14119401499E+04  0.16268219559E+04  0.15294330000E+03 0.  0.
<mgrwt>
<rscale>  0 0.97022454E+03</rscale>
<asrwt>0</asrwt>
<pdfrwt beam="1">  1        2 0.27551082E+00 0.10312096E+04</pdfrwt>
<pdfrwt beam="2">  1       -2 0.16720669E+00 0.10312096E+04</pdfrwt>
<totfact> 0.19309070E+00</totfact>
</mgrwt>
</event>
<event>
 4    1  0.3057048E-007  0.7599758E+03  0.7818608E-02  0.9805170E-01
          2   -1    0    0  501    0  0.00000000000E+00  0.00000000000E+00  0.80305206192E+03  0.80305206193E+03  0.25500000000E-02 0. -1.
         -2   -1    0    0    0  501 -0.00000000000E+00 -0.00000000000E+00 -0.62929310379E+03  0.62929310380E+03  0.25500000000E-02 0.  1.
    8880023    1    1    2    0    0  0.68152988664E+02 -0.37297215162E+03 -0.29061527376E+03  0.81364642158E+03  0.65864270000E+03 0.  0.
    8880022    1    1    2    0    0 -0.68152988664E+02  0.37297215162E+03  0.46437423188E+03  0.61869874414E+03  0.15294330000E+03 0.  0.
<mgrwt>
<rscale>  0 0.65085825E+03</rscale>
<asrwt>0</asrwt>
<pdfrwt beam="1">  1        2 0.12354647E+00 0.75997583E+03</pdfrwt>
<pdfrwt beam="2">  1       -2 0.96814323E-01 0.75997583E+03</pdfrwt>
<totfact> 0.30961153E+01</totfact>
</mgrwt>
</event>
<event>
 4    1  0.3057048E-007  0.6840436E+03  0.7818608E-02  0.1007123E+00
          2   -1    0    0  501    0  0.00000000000E+00  0.00000000000E+00  0.11872863576E+04  0.11872863576E+04  0.25500000000E-02 0. -1.
         -2   -1    0    0    0  501 -0.00000000000E+00 -0.00000000000E+00 -0.25562072068E+03  0.25562072069E+03  0.25500000000E-02 0.  1.
    8880023    1    1    2    0    0  0.17501041870E+03 -0.58964192589E+02  0.26353796348E+03  0.73305380915E+03  0.65864270000E+03 0.  0.
    8880022    1    1    2    0    0 -0.17501041870E+03  0.58964192589E+02  0.66812767342E+03  0.70985326911E+03  0.15294330000E+03 0.  0.
<mgrwt>
<rscale>  0 0.52634264E+03</rscale>
<asrwt>0</asrwt>
<pdfrwt beam="1">  1        2 0.18265944E+00 0.68404359E+03</pdfrwt>
<pdfrwt beam="2">  1       -2 0.39326264E-01 0.68404359E+03</pdfrwt>
<totfact> 0.12015250E+02</totfact>
</mgrwt>
</event>
<event>
 4    1  0.3057048E-007  0.9948849E+03  0.7818608E-02  0.9388281E-01
          2   -1    0    0  501    0  0.00000000000E+00  0.00000000000E+00  0.11970285698E+04  0.11970285698E+04  0.25500000000E-02 0. -1.
         -2   -1    0    0    0  501 -0.00000000000E+00 -0.00000000000E+00 -0.73901674927E+03  0.73901674927E+03  0.25500000000E-02 0.  1.
    8880023    1    1    2    0    0 -0.10139819901E+03  0.73871793033E+03 -0.88778688939E+02  0.99883814366E+03  0.65864270000E+03 0.  0.
    8880022    1    1    2    0    0  0.10139819901E+03 -0.73871793033E+03  0.54679050944E+03  0.93720717538E+03  0.15294330000E+03 0.  0.
<mgrwt>
<rscale>  0 0.93046454E+03</rscale>
<asrwt>0</asrwt>
<pdfrwt beam="1">  1        2 0.18415824E+00 0.99488491E+03</pdfrwt>
<pdfrwt beam="2">  1       -2 0.11369489E+00 0.99488491E+03</pdfrwt>
<totfact> 0.11457145E+01</totfact>
</mgrwt>
</event>
<event>
 4    1  0.3057048E-007  0.9283751E+03  0.7818608E-02  0.9481935E-01
          2   -1    0    0  501    0  0.00000000000E+00  0.00000000000E+00  0.15074372526E+04  0.15074372526E+04  0.25500000000E-02 0. -1.
         -2   -1    0    0    0  501 -0.00000000000E+00 -0.00000000000E+00 -0.58906091541E+03  0.58906091542E+03  0.25500000000E-02 0.  1.
    8880023    1    1    2    0    0  0.51095800259E+03  0.40864665194E+03 -0.36292939590E+02  0.92908425360E+03  0.65864270000E+03 0.  1.
    8880022    1    1    2    0    0 -0.51095800259E+03 -0.40864665194E+03  0.95466927681E+03  0.11674139145E+04  0.15294330000E+03 0.  0.
<mgrwt>
<rscale>  0 0.85628877E+03</rscale>
<asrwt>0</asrwt>
<pdfrwt beam="1">  1        2 0.23191342E+00 0.92837513E+03</pdfrwt>
<pdfrwt beam="2">  1       -2 0.90624756E-01 0.92837513E+03</pdfrwt>
<totfact> 0.13120671E+01</totfact>
</mgrwt>
</event>
<event>
 4    1  0.3057048E-007  0.7377862E+03  0.7818608E-02  0.9866443E-01
         -2   -1    0    0    0  501 -0.00000000000E+00  0.00000000000E+00  0.14518660450E+04  0.14518660450E+04  0.25500000000E-02 0.  1.
          2   -1    0    0  501    0  0.00000000000E+00 -0.00000000000E+00 -0.31528526327E+03  0.31528526328E+03  0.25500000000E-02 0. -1.
    8880023    1    1    2    0    0  0.32754550513E+03  0.56852781789E+02  0.11871551126E+04  0.13977359423E+04  0.65864270000E+03 0.  0.
    8880022    1    1    2    0    0 -0.32754550513E+03 -0.56852781789E+02 -0.50574330816E+02  0.36941536606E+03  0.15294330000E+03 0.  0.
<mgrwt>
<rscale>  0 0.61915518E+03</rscale>
<asrwt>0</asrwt>
<pdfrwt beam="1">  1        2 0.48505425E-01 0.73778622E+03</pdfrwt>
<pdfrwt beam="2">  1       -2 0.22336401E+00 0.73778622E+03</pdfrwt>
<totfact> 0.10000574E+01</totfact>
</mgrwt>
</event>
<event>
 4    1  0.3057048E-007  0.6777581E+03  0.7818608E-02  0.1010621E+00
          2   -1    0    0  501    0  0.00000000000E+00  0.00000000000E+00  0.19211429964E+04  0.19211429964E+04  0.25500000000E-02 0. -1.
         -2   -1    0    0    0  501 -0.00000000000E+00 -0.00000000000E+00 -0.15454276572E+03  0.15454276574E+03  0.25500000000E-02 0.  1.
    8880023    1    1    2    0    0 -0.13870154437E+03  0.79420952637E+02  0.65588438937E+03  0.94315446487E+03  0.65864270000E+03 0.  1.
    8880022    1    1    2    0    0  0.13870154437E+03 -0.79420952637E+02  0.11107158413E+04  0.11325312972E+04  0.15294330000E+03 0.  0.
<mgrwt>
<rscale>  0 0.51228449E+03</rscale>
<asrwt>0</asrwt>
<pdfrwt beam="1">  1        2 0.29556047E+00 0.67775808E+03</pdfrwt>
<pdfrwt beam="2">  1       -2 0.23775810E-01 0.67775808E+03</pdfrwt>
<totfact> 0.11967026E+02</totfact>
</mgrwt>
</event>
<event>
 4    1  0.3057048E-007  0.8786740E+03  0.7818608E-02  0.9561172E-01
         -2   -1    0    0    0  501 -0.00000000000E+00  0.00000000000E+00  0.97520719564E+03  0.97520719564E+03  0.25500000000E-02 0.  1.
          2   -1    0    0  501    0  0.00000000000E+00 -0.00000000000E+00 -0.13753244112E+04  0.13753244112E+04  0.25500000000E-02 0. -1.
    8880023    1    1    2    0    0  0.55756105027E+03  0.16547951819E+03  0.68216613712E+03  0.11123932041E+04  0.65864270000E+03 0.  0.
    8880022    1    1    2    0    0 -0.55756105027E+03 -0.16547951819E+03 -0.10822833526E+04  0.12381384027E+04  0.15294330000E+03 0.  0.
<mgrwt>
<rscale>  0 0.79920245E+03</rscale>
<asrwt>0</asrwt>
<pdfrwt beam="1">  1        2 0.21158837E+00 0.87867400E+03</pdfrwt>
<pdfrwt beam="2">  1       -2 0.15003188E+00 0.87867400E+03</pdfrwt>
<totfact> 0.45051363E+00</totfact>
</mgrwt>
</event>
<event>
 4    1  0.3057048E-007  0.7094903E+03  0.7818608E-02  0.9959899E-01
          2   -1    0    0  501    0  0.00000000000E+00  0.00000000000E+00  0.82354621848E+03  0.82354621849E+03  0.25500000000E-02 0. -1.
         -2   -1    0    0    0  501 -0.00000000000E+00 -0.00000000000E+00 -0.64914292958E+03  0.64914292959E+03  0.25500000000E-02 0.  1.
    8880023    1    1    2    0    0 -0.11365753024E+02  0.26350921593E+03 -0.40573613303E+03  0.81731163159E+03  0.65864270000E+03 0.  0.
    8880022    1    1    2    0    0  0.11365753024E+02 -0.26350921593E+03  0.58013942193E+03  0.65537751648E+03  0.15294330000E+03 0.  0.
<mgrwt>
<rscale>  0 0.57444131E+03</rscale>
<asrwt>0</asrwt>
<pdfrwt beam="1">  1        2 0.12669942E+00 0.70949031E+03</pdfrwt>
<pdfrwt beam="2">  1       -2 0.99868144E-01 0.70949031E+03</pdfrwt>
<totfact> 0.27955307E+01</totfact>
</mgrwt>
</event>
<event>
 4    1  0.3057048E-007  0.8032357E+03  0.7818608E-02  0.9703843E-01
         -2   -1    0    0    0  501 -0.00000000000E+00  0.00000000000E+00  0.10462122966E+04  0.10462122966E+04  0.25500000000E-02 0.  1.
          2   -1    0    0  501    0  0.00000000000E+00 -0.00000000000E+00 -0.47642102278E+03  0.47642102279E+03  0.25500000000E-02 0. -1.
    8880023    1    1    2    0    0  0.45823210997E+03 -0.37427215009E+02  0.39339141384E+02  0.80419850618E+03  0.65864270000E+03 0. -1.
    8880022    1    1    2    0    0 -0.45823210997E+03  0.37427215009E+02  0.53045213248E+03  0.71843481325E+03  0.15294330000E+03 0.  1.
<mgrwt>
<rscale>  0 0.70788448E+03</rscale>
<asrwt>0</asrwt>
<pdfrwt beam="1">  1        2 0.73295543E-01 0.80323575E+03</pdfrwt>
<pdfrwt beam="2">  1       -2 0.16095574E+00 0.80323575E+03</pdfrwt>
<totfact> 0.16296676E+01</totfact>
</mgrwt>
</event>
<event>
 4    1  0.3057048E-007  0.6828865E+03  0.7818608E-02  0.1007736E+00
          2   -1    0    0  501    0  0.00000000000E+00  0.00000000000E+00  0.12177104393E+04  0.12177104393E+04  0.25500000000E-02 0. -1.
         -2   -1    0    0    0  501 -0.00000000000E+00 -0.00000000000E+00 -0.69143438939E+03  0.69143438939E+03  0.25500000000E-02 0.  1.
    8880023    1    1    2    0    0 -0.17317646184E+03  0.50335162755E+02 -0.50613248944E+03  0.85000236392E+03  0.65864270000E+03 0.  1.
    8880022    1    1    2    0    0  0.17317646184E+03 -0.50335162755E+02  0.10324085393E+04  0.10591424647E+04  0.15294330000E+03 0.  0.
<mgrwt>
<rscale>  0 0.52384497E+03</rscale>
<asrwt>0</asrwt>
<pdfrwt beam="1">  1        2 0.18734007E+00 0.68288646E+03</pdfrwt>
<pdfrwt beam="2">  1       -2 0.10637452E+00 0.68288646E+03</pdfrwt>
<totfact> 0.13544154E+01</totfact>
</mgrwt>
</event>
<event>
 4    1  0.3057048E-007  0.6925510E+03  0.7818608E-02  0.1002963E+00
          2   -1    0    0  501    0  0.00000000000E+00  0.00000000000E+00  0.16004269253E+04  0.16004269253E+04  0.25500000000E-02 0. -1.
         -2   -1    0    0    0  501 -0.00000000000E+00 -0.00000000000E+00 -0.31259149822E+03  0.31259149823E+03  0.25500000000E-02 0.  1.
    8880023    1    1    2    0    0  0.21375076677E+03 -0.11281754614E+02  0.10401400806E+03  0.70031834791E+03  0.65864270000E+03 0.  1.
    8880022    1    1    2    0    0 -0.21375076677E+03  0.11281754614E+02  0.11838214190E+04  0.12127000756E+04  0.15294330000E+03 0.  0.
<mgrwt>
<rscale>  0 0.54369909E+03</rscale>
<asrwt>0</asrwt>
<pdfrwt beam="1">  1        2 0.24621952E+00 0.69255099E+03</pdfrwt>
<pdfrwt beam="2">  1       -2 0.48091001E-01 0.69255099E+03</pdfrwt>
<totfact> 0.47035383E+01</totfact>
</mgrwt>
</event>
<event>
 4    1  0.3057048E-007  0.8700350E+03  0.7818608E-02  0.9575956E-01
          2   -1    0    0  501    0  0.00000000000E+00  0.00000000000E+00  0.19005652287E+04  0.19005652287E+04  0.25500000000E-02 0. -1.
         -2   -1    0    0    0  501 -0.00000000000E+00 -0.00000000000E+00 -0.51877505097E+03  0.51877505098E+03  0.25500000000E-02 0.  1.
    8880023    1    1    2    0    0 -0.39876563829E+03  0.40513776694E+03 -0.49781427940E+02  0.87145799745E+03  0.65864270000E+03 0.  1.
    8880022    1    1    2    0    0  0.39876563829E+03 -0.40513776694E+03  0.14315716057E+04  0.15478822822E+04  0.15294330000E+03 0.  0.
<mgrwt>
<rscale>  0 0.78908187E+03</rscale>
<asrwt>0</asrwt>
<pdfrwt beam="1">  1        2 0.29239465E+00 0.87003497E+03</pdfrwt>
<pdfrwt beam="2">  1       -2 0.79811548E-01 0.87003497E+03</pdfrwt>
<totfact> 0.10715442E+01</totfact>
</mgrwt>
</event>
<event>
 4    1  0.3057048E-007  0.8529890E+03  0.7818608E-02  0.9606158E-01
         -2   -1    0    0    0  501 -0.00000000000E+00  0.00000000000E+00  0.51271199366E+03  0.51271199366E+03  0.25500000000E-02 0.  1.
          2   -1    0    0  501    0  0.00000000000E+00 -0.00000000000E+00 -0.10962845294E+04  0.10962845294E+04  0.25500000000E-02 0. -1.
    8880023    1    1    2    0    0 -0.42633535921E+03 -0.33469111341E+03 -0.85671546376E+02  0.85728046754E+03  0.65864270000E+03 0.  0.
    8880022    1    1    2    0    0  0.42633535921E+03  0.33469111341E+03 -0.49790098937E+03  0.75171605553E+03  0.15294330000E+03 0.  0.
<mgrwt>
<rscale>  0 0.76889910E+03</rscale>
<asrwt>0</asrwt>
<pdfrwt beam="1">  1        2 0.16865916E+00 0.85298897E+03</pdfrwt>
<pdfrwt beam="2">  1       -2 0.78878768E-01 0.85298897E+03</pdfrwt>
<totfact> 0.31486321E+01</totfact>
</mgrwt>
</event>
<event>
 4    1  0.3057048E-007  0.6859771E+03  0.7818608E-02  0.1006126E+00
          2   -1    0    0  501    0  0.00000000000E+00  0.00000000000E+00  0.28667142020E+04  0.28667142020E+04  0.25500000000E-02 0. -1.
         -2   -1    0    0    0  501 -0.00000000000E+00 -0.00000000000E+00 -0.75691213551E+02  0.75691213594E+02  0.25500000000E-02 0.  1.
    8880023    1    1    2    0    0  0.10145150808E+03  0.16267142877E+03  0.20169924683E+04  0.21304514136E+04  0.65864270000E+03 0.  0.
    8880022    1    1    2    0    0 -0.10145150808E+03 -0.16267142877E+03  0.77403052017E+03  0.81195400202E+03  0.15294330000E+03 0. -1.
<mgrwt>
<rscale>  0 0.53043615E+03</rscale>
<asrwt>0</asrwt>
<pdfrwt beam="1">  1        2 0.44103286E+00 0.68597712E+03</pdfrwt>
<pdfrwt beam="2">  1       -2 0.11644805E-01 0.68597712E+03</pdfrwt>
<totfact> 0.11924001E+02</totfact>
</mgrwt>
</event>
<event>
 4    1  0.3057048E-007  0.7030846E+03  0.7818608E-02  0.9984638E-01
         -2   -1    0    0    0  501 -0.00000000000E+00  0.00000000000E+00  0.73829324988E+03  0.73829324989E+03  0.25500000000E-02 0.  1.
          2   -1    0    0  501    0  0.00000000000E+00 -0.00000000000E+00 -0.57772443870E+03  0.57772443871E+03  0.25500000000E-02 0. -1.
    8880023    1    1    2    0    0  0.21138029499E+03 -0.12584150814E+03  0.50523653255E+03  0.86578974027E+03  0.65864270000E+03 0.  1.
    8880022    1    1    2    0    0 -0.21138029499E+03  0.12584150814E+03 -0.34466772136E+03  0.45022794832E+03  0.15294330000E+03 0.  0.
<mgrwt>
<rscale>  0 0.56328993E+03</rscale>
<asrwt>0</asrwt>
<pdfrwt beam="1">  1        2 0.88880683E-01 0.70308458E+03</pdfrwt>
<pdfrwt beam="2">  1       -2 0.11358358E+00 0.70308458E+03</pdfrwt>
<totfact> 0.32070288E+01</totfact>
</mgrwt>
</event>
<event>
 4    1  0.3057048E-007  0.7046123E+03  0.7818608E-02  0.9978580E-01
         -2   -1    0    0    0  501 -0.00000000000E+00  0.00000000000E+00  0.28361523385E+03  0.28361523386E+03  0.25500000000E-02 0.  1.
          2   -1    0    0  501    0  0.00000000000E+00 -0.00000000000E+00 -0.42947012956E+04  0.42947012956E+04  0.25500000000E-02 0. -1.
    8880023    1    1    2    0    0 -0.15890176096E+03 -0.19343861205E+03 -0.16840983472E+03  0.72445865649E+03  0.65864270000E+03 0.  1.
    8880022    1    1    2    0    0  0.15890176096E+03  0.19343861205E+03 -0.38426762271E+04  0.38538578730E+04  0.15294330000E+03 0.  0.
<mgrwt>
<rscale>  0 0.56599524E+03</rscale>
<asrwt>0</asrwt>
<pdfrwt beam="1">  1        2 0.66072323E+00 0.70461229E+03</pdfrwt>
<pdfrwt beam="2">  1       -2 0.43633116E-01 0.70461229E+03</pdfrwt>
<totfact> 0.10897895E+00</totfact>
</mgrwt>
</event>
<event>
 4    1  0.3057048E-007  0.6819622E+03  0.7818608E-02  0.1008235E+00
         -2   -1    0    0    0  501 -0.00000000000E+00  0.00000000000E+00  0.28470255979E+03  0.28470255980E+03  0.25500000000E-02 0.  1.
          2   -1    0    0  501    0  0.00000000000E+00 -0.00000000000E+00 -0.83841886647E+03  0.83841886647E+03  0.25500000000E-02 0. -1.
    8880023    1    1    2    0    0 -0.10344276775E+03  0.14339401036E+03 -0.22177314135E+03  0.71711629524E+03  0.65864270000E+03 0.  1.
    8880022    1    1    2    0    0  0.10344276775E+03 -0.14339401036E+03 -0.33194316532E+03  0.40600513103E+03  0.15294330000E+03 0.  1.
<mgrwt>
<rscale>  0 0.52182259E+03</rscale>
<asrwt>0</asrwt>
<pdfrwt beam="1">  1        2 0.12898752E+00 0.68196221E+03</pdfrwt>
<pdfrwt beam="2">  1       -2 0.43800394E-01 0.68196221E+03</pdfrwt>
<totfact> 0.16221412E+02</totfact>
</mgrwt>
</event>
<event>
 4    1  0.3057048E-007  0.8160508E+03  0.7818608E-02  0.9677108E-01
          2   -1    0    0  501    0  0.00000000000E+00  0.00000000000E+00  0.98425216753E+03  0.98425216754E+03  0.25500000000E-02 0. -1.
         -2   -1    0    0    0  501 -0.00000000000E+00 -0.00000000000E+00 -0.44524524791E+03  0.44524524792E+03  0.25500000000E-02 0.  1.
    8880023    1    1    2    0    0 -0.43961726122E+03 -0.19714296141E+03  0.29041125731E+03  0.86618565460E+03  0.65864270000E+03 0.  0.
    8880022    1    1    2    0    0  0.43961726122E+03  0.19714296141E+03  0.24859566231E+03  0.56331176086E+03  0.15294330000E+03 0.  0.
<mgrwt>
<rscale>  0 0.72396251E+03</rscale>
<asrwt>0</asrwt>
<pdfrwt beam="1">  1        2 0.15142341E+00 0.81605079E+03</pdfrwt>
<pdfrwt beam="2">  1       -2 0.68499269E-01 0.81605079E+03</pdfrwt>
<totfact> 0.50744825E+01</totfact>
</mgrwt>
</event>
<event>
 4    1  0.3057048E-007  0.7825123E+03  0.7818608E-02  0.9749968E-01
         -2   -1    0    0    0  501 -0.00000000000E+00  0.00000000000E+00  0.43221332367E+03  0.43221332368E+03  0.25500000000E-02 0.  1.
          2   -1    0    0  501    0  0.00000000000E+00 -0.00000000000E+00 -0.18332801011E+04  0.18332801011E+04  0.25500000000E-02 0. -1.
    8880023    1    1    2    0    0 -0.42060257361E+03  0.40109768410E+02 -0.15945953561E+04  0.17762488211E+04  0.65864270000E+03 0. -1.
    8880022    1    1    2    0    0  0.42060257361E+03 -0.40109768410E+02  0.19352857868E+03  0.48924460368E+03  0.15294330000E+03 0.  0.
<mgrwt>
<rscale>  0 0.68118065E+03</rscale>
<asrwt>0</asrwt>
<pdfrwt beam="1">  1        2 0.28204309E+00 0.78251232E+03</pdfrwt>
<pdfrwt beam="2">  1       -2 0.66494358E-01 0.78251232E+03</pdfrwt>
<totfact> 0.17641313E+01</totfact>
</mgrwt>
</event>
<event>
 4    1  0.3057048E-007  0.1002956E+04  0.7818608E-02  0.9377701E-01
          2   -1    0    0  501    0  0.00000000000E+00  0.00000000000E+00  0.39085950729E+04  0.39085950729E+04  0.25500000000E-02 0. -1.
         -2   -1    0    0    0  501 -0.00000000000E+00 -0.00000000000E+00 -0.55136366323E+03  0.55136366323E+03  0.25500000000E-02 0.  1.
    8880023    1    1    2    0    0 -0.46805983769E+03  0.59416307985E+03 -0.12462021144E+02  0.10030330430E+04  0.65864270000E+03 0.  1.
    8880022    1    1    2    0    0  0.46805983769E+03 -0.59416307985E+03  0.33696934308E+04  0.34569256931E+04  0.15294330000E+03 0.  0.
<mgrwt>
<rscale>  0 0.93933745E+03</rscale>
<asrwt>0</asrwt>
<pdfrwt beam="1">  1        2 0.60132229E+00 0.10029556E+04</pdfrwt>
<pdfrwt beam="2">  1       -2 0.84825183E-01 0.10029556E+04</pdfrwt>
<totfact> 0.51362336E-01</totfact>
</mgrwt>
</event>
<event>
 4    1  0.3057048E-007  0.1163711E+04  0.7818608E-02  0.9193231E-01
          2   -1    0    0  501    0  0.00000000000E+00  0.00000000000E+00  0.21843874505E+04  0.21843874505E+04  0.25500000000E-02 0. -1.
         -2   -1    0    0    0  501 -0.00000000000E+00 -0.00000000000E+00 -0.92488298372E+03  0.92488298372E+03  0.25500000000E-02 0.  1.
    8880023    1    1    2    0    0 -0.47159721666E+03 -0.83546927507E+03  0.16857265059E+04  0.20483888555E+04  0.65864270000E+03 0.  0.
    8880022    1    1    2    0    0  0.47159721666E+03  0.83546927507E+03 -0.42622203915E+03  0.10608815787E+04  0.15294330000E+03 0.  0.
<mgrwt>
<rscale>  0 0.11123567E+04</rscale>
<asrwt>0</asrwt>
<pdfrwt beam="1">  1        2 0.33605961E+00 0.11637109E+04</pdfrwt>
<pdfrwt beam="2">  1       -2 0.14228969E+00 0.11637109E+04</pdfrwt>
<totfact> 0.17769455E+00</totfact>
</mgrwt>
</event>
<event>
 4    1  0.3329496E-007  0.1097883E+04  0.7818608E-02  0.9263416E-01
         -2   -1    0    0    0  501 -0.00000000000E+00  0.00000000000E+00  0.10377498786E+04  0.10377498786E+04  0.25500000000E-02 0.  1.
          2   -1    0    0  501    0  0.00000000000E+00 -0.00000000000E+00 -0.22546349131E+04  0.22546349131E+04  0.25500000000E-02 0. -1.
    8880023    1    1    2    0    0 -0.40346571982E+03  0.78022627332E+03  0.61258429012E+03  0.12572220740E+04  0.65864270000E+03 0.  0.
    8880022    1    1    2    0    0  0.40346571982E+03 -0.78022627332E+03 -0.18294693246E+04  0.20351627177E+04  0.15294330000E+03 0.  0.
<mgrwt>
<rscale>  0 0.10422171E+04</rscale>
<asrwt>0</asrwt>
<pdfrwt beam="1">  1        2 0.34686691E+00 0.10978833E+04</pdfrwt>
<pdfrwt beam="2">  1       -2 0.15965383E+00 0.10978833E+04</pdfrwt>
<totfact> 0.12035234E+00</totfact>
</mgrwt>
</event>
<event>
 4    1  0.3057048E-007  0.6840149E+03  0.7818608E-02  0.1007138E+00
         -2   -1    0    0    0  501 -0.00000000000E+00  0.00000000000E+00  0.37212141792E+03  0.37212141793E+03  0.25500000000E-02 0.  1.
          2   -1    0    0  501    0  0.00000000000E+00 -0.00000000000E+00 -0.65344627517E+03  0.65344627517E+03  0.25500000000E-02 0. -1.
    8880023    1    1    2    0    0  0.13303558086E+03  0.12793609244E+03 -0.39625662891E+02  0.68516166629E+03  0.65864270000E+03 0.  1.
    8880022    1    1    2    0    0 -0.13303558086E+03 -0.12793609244E+03 -0.24169919436E+03  0.34040602682E+03  0.15294330000E+03 0.  0.
<mgrwt>
<rscale>  0 0.52628106E+03</rscale>
<asrwt>0</asrwt>
<pdfrwt beam="1">  1        2 0.10053020E+00 0.68401485E+03</pdfrwt>
<pdfrwt beam="2">  1       -2 0.57249449E-01 0.68401485E+03</pdfrwt>
<totfact> 0.12960972E+02</totfact>
</mgrwt>
</event>
<event>
 4    1  0.3057048E-007  0.6824612E+03  0.7818608E-02  0.1007964E+00
          2   -1    0    0  501    0  0.00000000000E+00  0.00000000000E+00  0.11487277818E+04  0.11487277818E+04  0.25500000000E-02 0. -1.
         -2   -1    0    0    0  501 -0.00000000000E+00 -0.00000000000E+00 -0.45996468467E+03  0.45996468468E+03  0.25500000000E-02 0.  1.
    8880023    1    1    2    0    0 -0.17554264980E+03  0.33582939568E+02 -0.18232922062E+03  0.70639732919E+03  0.65864270000E+03 0.  1.
    8880022    1    1    2    0    0  0.17554264980E+03 -0.33582939568E+02  0.87109231775E+03  0.90229513729E+03  0.15294330000E+03 0.  0.
<mgrwt>
<rscale>  0 0.52291746E+03</rscale>
<asrwt>0</asrwt>
<pdfrwt beam="1">  1        2 0.17672735E+00 0.68246117E+03</pdfrwt>
<pdfrwt beam="2">  1       -2 0.70763798E-01 0.68246117E+03</pdfrwt>
<totfact> 0.37833686E+01</totfact>
</mgrwt>
</event>
<event>
 4    1  0.3057048E-007  0.7731525E+03  0.7818608E-02  0.9772175E-01
          2   -1    0    0  501    0  0.00000000000E+00  0.00000000000E+00  0.69134148092E+03  0.69134148093E+03  0.25500000000E-02 0. -1.
         -2   -1    0    0    0  501 -0.00000000000E+00 -0.00000000000E+00 -0.52962603707E+03  0.52962603707E+03  0.25500000000E-02 0.  1.
    8880023    1    1    2    0    0 -0.11450194961E+03  0.38838629119E+03  0.15241508092E+03  0.78803246812E+03  0.65864270000E+03 0.  0.
    8880022    1    1    2    0    0  0.11450194961E+03 -0.38838629119E+03  0.93003629307E+01  0.43293504988E+03  0.15294330000E+03 0. -1.
<mgrwt>
<rscale>  0 0.66877420E+03</rscale>
<asrwt>0</asrwt>
<pdfrwt beam="1">  1        2 0.10636023E+00 0.77315252E+03</pdfrwt>
<pdfrwt beam="2">  1       -2 0.81480929E-01 0.77315252E+03</pdfrwt>
<totfact> 0.55815597E+01</totfact>
</mgrwt>
</event>
<event>
 4    1  0.3057048E-007  0.7817206E+03  0.7818608E-02  0.9751811E-01
          2   -1    0    0  501    0  0.00000000000E+00  0.00000000000E+00  0.63132648188E+03  0.63132648189E+03  0.25500000000E-02 0. -1.
         -2   -1    0    0    0  501 -0.00000000000E+00 -0.00000000000E+00 -0.65226984852E+03  0.65226984853E+03  0.25500000000E-02 0.  1.
    8880023    1    1    2    0    0 -0.20416054869E+03  0.36823283019E+03 -0.19053828562E+03  0.80460673091E+03  0.65864270000E+03 0.  0.
    8880022    1    1    2    0    0  0.20416054869E+03 -0.36823283019E+03  0.16959491898E+03  0.47898959950E+03  0.15294330000E+03 0.  0.
<mgrwt>
<rscale>  0 0.68014046E+03</rscale>
<asrwt>0</asrwt>
<pdfrwt beam="1">  1        2 0.97127150E-01 0.78172064E+03</pdfrwt>
<pdfrwt beam="2">  1       -2 0.10034921E+00 0.78172064E+03</pdfrwt>
<totfact> 0.38574690E+01</totfact>
</mgrwt>
</event>
<event>
 4    1  0.3057048E-007  0.6966657E+03  0.7818608E-02  0.1001132E+00
         -2   -1    0    0    0  501 -0.00000000000E+00  0.00000000000E+00  0.17461529095E+04  0.17461529095E+04  0.25500000000E-02 0.  1.
          2   -1    0    0  501    0  0.00000000000E+00 -0.00000000000E+00 -0.59312235987E+03  0.59312235988E+03  0.25500000000E-02 0. -1.
    8880023    1    1    2    0    0  0.20923077449E+03 -0.88064232812E+02  0.16393368383E+04  0.17812266285E+04  0.65864270000E+03 0.  1.
    8880022    1    1    2    0    0 -0.20923077449E+03  0.88064232812E+02 -0.48630628876E+03  0.55804864089E+03  0.15294330000E+03 0.  0.
<mgrwt>
<rscale>  0 0.55156445E+03</rscale>
<asrwt>0</asrwt>
<pdfrwt beam="1">  1        2 0.91249594E-01 0.69666565E+03</pdfrwt>
<pdfrwt beam="2">  1       -2 0.26863891E+00 0.69666565E+03</pdfrwt>
<totfact> 0.25914119E+00</totfact>
</mgrwt>
</event>
<event>
 4    1  0.3057048E-007  0.6819730E+03  0.7818608E-02  0.1008229E+00
         -2   -1    0    0    0  501 -0.00000000000E+00  0.00000000000E+00  0.37626750754E+03  0.37626750755E+03  0.25500000000E-02 0.  1.
          2   -1    0    0  501    0  0.00000000000E+00 -0.00000000000E+00 -0.24749548061E+04  0.24749548061E+04  0.25500000000E-02 0. -1.
    8880023    1    1    2    0    0 -0.84019289693E+02 -0.15562023664E+03  0.55644788233E+02  0.68423932057E+03  0.65864270000E+03 0.  1.
    8880022    1    1    2    0    0  0.84019289693E+02  0.15562023664E+03 -0.21543320868E+04  0.21669829931E+04  0.15294330000E+03 0.  0.
<mgrwt>
<rscale>  0 0.52184624E+03</rscale>
<asrwt>0</asrwt>
<pdfrwt beam="1">  1        2 0.38076227E+00 0.68197295E+03</pdfrwt>
<pdfrwt beam="2">  1       -2 0.57887310E-01 0.68197295E+03</pdfrwt>
<totfact> 0.10658842E+01</totfact>
</mgrwt>
</event>
<event>
 4    1  0.3057048E-007  0.1062252E+04  0.7818608E-02  0.9304295E-01
         -2   -1    0    0    0  501 -0.00000000000E+00  0.00000000000E+00  0.77705556052E+03  0.77705556053E+03  0.25500000000E-02 0.  1.
          2   -1    0    0  501    0  0.00000000000E+00 -0.00000000000E+00 -0.19565695784E+04  0.19565695784E+04  0.25500000000E-02 0. -1.
    8880023    1    1    2    0    0  0.29345868979E+03  0.78003340872E+03  0.23202227947E+03  0.10872969538E+04  0.65864270000E+03 0.  0.
    8880022    1    1    2    0    0 -0.29345868979E+03 -0.78003340872E+03 -0.14115362973E+04  0.16463281851E+04  0.15294330000E+03 0.  0.
<mgrwt>
<rscale>  0 0.10038839E+04</rscale>
<asrwt>0</asrwt>
<pdfrwt beam="1">  1        2 0.30101070E+00 0.10622525E+04</pdfrwt>
<pdfrwt beam="2">  1       -2 0.11954701E+00 0.10622525E+04</pdfrwt>
<totfact> 0.37519469E+00</totfact>
</mgrwt>
</event>
<event>
 4    1  0.3057048E-007  0.7206671E+03  0.7818608E-02  0.9920335E-01
          2   -1    0    0  501    0  0.00000000000E+00  0.00000000000E+00  0.37066618214E+04  0.37066618214E+04  0.25500000000E-02 0. -1.
         -2   -1    0    0    0  501 -0.00000000000E+00 -0.00000000000E+00 -0.10260089439E+03  0.10260089442E+03  0.25500000000E-02 0.  1.
    8880023    1    1    2    0    0  0.25336760311E+03  0.14613610296E+03  0.13421207458E+04  0.15233677184E+04  0.65864270000E+03 0.  0.
    8880022    1    1    2    0    0 -0.25336760311E+03 -0.14613610296E+03  0.22619401811E+04  0.22858949974E+04  0.15294330000E+03 0.  0.
<mgrwt>
<rscale>  0 0.59285806E+03</rscale>
<asrwt>0</asrwt>
<pdfrwt beam="1">  1        2 0.57025560E+00 0.72066713E+03</pdfrwt>
<pdfrwt beam="2">  1       -2 0.15784755E-01 0.72066713E+03</pdfrwt>
<totfact> 0.20240197E+01</totfact>
</mgrwt>
</event>
<event>
 4    1  0.3057048E-007  0.1494073E+04  0.7818608E-02  0.8913832E-01
         -2   -1    0    0    0  501 -0.00000000000E+00  0.00000000000E+00  0.15798692106E+04  0.15798692106E+04  0.25500000000E-02 0.  1.
          2   -1    0    0  501    0  0.00000000000E+00 -0.00000000000E+00 -0.36629859099E+04  0.36629859099E+04  0.25500000000E-02 0. -1.
    8880023    1    1    2    0    0  0.40148792423E+02  0.13404597336E+04  0.10535039449E+04  0.18281479675E+04  0.65864270000E+03 0.  1.
    8880022    1    1    2    0    0 -0.40148792423E+02 -0.13404597336E+04 -0.31366206442E+04  0.34147071531E+04  0.15294330000E+03 0.  0.
<mgrwt>
<rscale>  0 0.14566075E+04</rscale>
<asrwt>0</asrwt>
<pdfrwt beam="1">  1        2 0.56353629E+00 0.14940731E+04</pdfrwt>
<pdfrwt beam="2">  1       -2 0.24305680E+00 0.14940731E+04</pdfrwt>
<totfact> 0.41835457E-02</totfact>
</mgrwt>
</event>
<event>
 4    1  0.3057048E-007  0.6754072E+03  0.7818608E-02  0.1012051E+00
         -2   -1    0    0    0  501 -0.00000000000E+00  0.00000000000E+00  0.14321057707E+03  0.14321057709E+03  0.25500000000E-02 0.  1.
          2   -1    0    0  501    0  0.00000000000E+00 -0.00000000000E+00 -0.17202526388E+04  0.17202526388E+04  0.25500000000E-02 0. -1.
    8880023    1    1    2    0    0  0.90050347278E+02 -0.11939705020E+03 -0.75039125161E+03  0.10095850422E+04  0.65864270000E+03 0.  1.
    8880022    1    1    2    0    0 -0.90050347278E+02  0.11939705020E+03 -0.82665081017E+03  0.85387817375E+03  0.15294330000E+03 0.  0.
<mgrwt>
<rscale>  0 0.50667646E+03</rscale>
<asrwt>0</asrwt>
<pdfrwt beam="1">  1        2 0.26465424E+00 0.67540723E+03</pdfrwt>
<pdfrwt beam="2">  1       -2 0.22032398E-01 0.67540723E+03</pdfrwt>
<totfact> 0.17624322E+02</totfact>
</mgrwt>
</event>
<event>
 4    1  0.3057048E-007  0.6947233E+03  0.7818608E-02  0.1001984E+00
          2   -1    0    0  501    0  0.00000000000E+00  0.00000000000E+00  0.11565287936E+04  0.11565287936E+04  0.25500000000E-02 0. -1.
         -2   -1    0    0    0  501 -0.00000000000E+00 -0.00000000000E+00 -0.33134799250E+03  0.33134799251E+03  0.25500000000E-02 0.  1.
    8880023    1    1    2    0    0 -0.13741554698E+03 -0.17305267930E+03  0.84370887695E+02  0.69982777547E+03  0.65864270000E+03 0.  1.
    8880022    1    1    2    0    0  0.13741554698E+03  0.17305267930E+03  0.74080991345E+03  0.78804901069E+03  0.15294330000E+03 0.  0.
<mgrwt>
<rscale>  0 0.54788893E+03</rscale>
<asrwt>0</asrwt>
<pdfrwt beam="1">  1        2 0.17792751E+00 0.69472330E+03</pdfrwt>
<pdfrwt beam="2">  1       -2 0.50976615E-01 0.69472330E+03</pdfrwt>
<totfact> 0.74709433E+01</totfact>
</mgrwt>
</event>
<event>
 4    1  0.3057048E-007  0.7594020E+03  0.7818608E-02  0.9806658E-01
         -2   -1    0    0    0  501 -0.00000000000E+00  0.00000000000E+00  0.19211251693E+03  0.19211251694E+03  0.25500000000E-02 0.  1.
          2   -1    0    0  501    0  0.00000000000E+00 -0.00000000000E+00 -0.21780605540E+04  0.21780605540E+04  0.25500000000E-02 0. -1.
    8880023    1    1    2    0    0 -0.36921975112E+03 -0.80981599989E+02 -0.74449573781E+03  0.10634685487E+04  0.65864270000E+03 0.  0.
    8880022    1    1    2    0    0  0.36921975112E+03  0.80981599989E+02 -0.12414522993E+04  0.13067045223E+04  0.15294330000E+03 0.  1.
<mgrwt>
<rscale>  0 0.65006458E+03</rscale>
<asrwt>0</asrwt>
<pdfrwt beam="1">  1        2 0.33508622E+00 0.75940203E+03</pdfrwt>
<pdfrwt beam="2">  1       -2 0.29555773E-01 0.75940203E+03</pdfrwt>
<totfact> 0.57757344E+01</totfact>
</mgrwt>
</event>
<event>
 4    1  0.3057048E-007  0.7494449E+03  0.7818608E-02  0.9833242E-01
          2   -1    0    0  501    0  0.00000000000E+00  0.00000000000E+00  0.17634272801E+04  0.17634272801E+04  0.25500000000E-02 0. -1.
         -2   -1    0    0    0  501 -0.00000000000E+00 -0.00000000000E+00 -0.78028064724E+03  0.78028064724E+03  0.25500000000E-02 0.  1.
    8880023    1    1    2    0    0  0.21646229196E+03  0.28460765605E+03 -0.57065566805E+03  0.94197427750E+03  0.65864270000E+03 0.  1.
    8880022    1    1    2    0    0 -0.21646229196E+03 -0.28460765605E+03  0.15538023009E+04  0.16017336499E+04  0.15294330000E+03 0.  0.
<mgrwt>
<rscale>  0 0.63608679E+03</rscale>
<asrwt>0</asrwt>
<pdfrwt beam="1">  1        2 0.27129650E+00 0.74944489E+03</pdfrwt>
<pdfrwt beam="2">  1       -2 0.12004318E+00 0.74944489E+03</pdfrwt>
<totfact> 0.49446224E+00</totfact>
</mgrwt>
</event>
<event>
 4    1  0.3057048E-007  0.8245472E+03  0.7818608E-02  0.9660036E-01
         -2   -1    0    0    0  501 -0.00000000000E+00  0.00000000000E+00  0.93486555167E+03  0.93486555167E+03  0.25500000000E-02 0.  1.
          2   -1    0    0  501    0  0.00000000000E+00 -0.00000000000E+00 -0.62122105505E+03  0.62122105506E+03  0.25500000000E-02 0. -1.
    8880023    1    1    2    0    0  0.44431303562E+03  0.22057624422E+03  0.54435771313E+03  0.98803010037E+03  0.65864270000E+03 0.  0.
    8880022    1    1    2    0    0 -0.44431303562E+03 -0.22057624422E+03 -0.23071321651E+03  0.56805650636E+03  0.15294330000E+03 0.  0.
<mgrwt>
<rscale>  0 0.73446883E+03</rscale>
<asrwt>0</asrwt>
<pdfrwt beam="1">  1        2 0.95572470E-01 0.82454725E+03</pdfrwt>
<pdfrwt beam="2">  1       -2 0.14382547E+00 0.82454725E+03</pdfrwt>
<totfact> 0.16030279E+01</totfact>
</mgrwt>
</event>
<event>
 4    1  0.3057048E-007  0.9257405E+03  0.7818608E-02  0.9485913E-01
          2   -1    0    0  501    0  0.00000000000E+00  0.00000000000E+00  0.48245811152E+04  0.48245811152E+04  0.25500000000E-02 0. -1.
         -2   -1    0    0    0  501 -0.00000000000E+00 -0.00000000000E+00 -0.26154474366E+03  0.26154474367E+03  0.25500000000E-02 0.  1.
    8880023    1    1    2    0    0  0.40606590162E+03 -0.50822802348E+03  0.68675175749E+03  0.11526592831E+04  0.65864270000E+03 0.  1.
    8880022    1    1    2    0    0 -0.40606590162E+03  0.50822802348E+03  0.38762846141E+04  0.39334665757E+04  0.15294330000E+03 0.  0.
<mgrwt>
<rscale>  0 0.85330438E+03</rscale>
<asrwt>0</asrwt>
<pdfrwt beam="1">  1        2 0.74224328E+00 0.92574049E+03</pdfrwt>
<pdfrwt beam="2">  1       -2 0.40237651E-01 0.92574049E+03</pdfrwt>
<totfact> 0.36290701E-01</totfact>
</mgrwt>
</event>
<event>
 4    1  0.3579572E-007  0.7147168E+03  0.7818608E-02  0.9940885E-01
          2   -1    0    0  501    0  0.00000000000E+00  0.00000000000E+00  0.11670294328E+04  0.11670294328E+04  0.25500000000E-02 0. -1.
         -2   -1    0    0    0  501 -0.00000000000E+00 -0.00000000000E+00 -0.14501316653E+04  0.14501316653E+04  0.25500000000E-02 0.  1.
    8880023    1    1    2    0    0 -0.17393970276E+03 -0.21622874659E+03 -0.13373350659E+04  0.15163393999E+04  0.65864270000E+03 0.  1.
    8880022    1    1    2    0    0  0.17393970276E+03  0.21622874659E+03  0.10542328334E+04  0.11008216981E+04  0.15294330000E+03 0.  0.
<mgrwt>
<rscale>  0 0.58320070E+03</rscale>
<asrwt>0</asrwt>
<pdfrwt beam="1">  1        2 0.17954299E+00 0.71471680E+03</pdfrwt>
<pdfrwt beam="2">  1       -2 0.22309718E+00 0.71471680E+03</pdfrwt>
<totfact> 0.19422810E+00</totfact>
</mgrwt>
</event>
<event>
 4    1  0.3057048E-007  0.6729172E+03  0.7818608E-02  0.1013653E+00
          2   -1    0    0  501    0  0.00000000000E+00  0.00000000000E+00  0.16635400721E+04  0.16635400721E+04  0.25500000000E-02 0. -1.
         -2   -1    0    0    0  501 -0.00000000000E+00 -0.00000000000E+00 -0.47606603760E+03  0.47606603761E+03  0.25500000000E-02 0.  1.
    8880023    1    1    2    0    0  0.74505735492E+02 -0.11600088998E+03 -0.22703782972E+03  0.71018567536E+03  0.65864270000E+03 0.  1.
    8880022    1    1    2    0    0 -0.74505735492E+02  0.11600088998E+03  0.14145118642E+04  0.14294204343E+04  0.15294330000E+03 0.  0.
<mgrwt>
<rscale>  0 0.50048448E+03</rscale>
<asrwt>0</asrwt>
<pdfrwt beam="1">  1        2 0.25592924E+00 0.67291717E+03</pdfrwt>
<pdfrwt beam="2">  1       -2 0.73240928E-01 0.67291717E+03</pdfrwt>
<totfact> 0.17955057E+01</totfact>
</mgrwt>
</event>
<event>
 4    1  0.3057048E-007  0.9459006E+03  0.7818608E-02  0.9456037E-01
         -2   -1    0    0    0  501 -0.00000000000E+00  0.00000000000E+00  0.84379593946E+03  0.84379593946E+03  0.25500000000E-02 0.  1.
          2   -1    0    0  501    0  0.00000000000E+00 -0.00000000000E+00 -0.11480909099E+04  0.11480909099E+04  0.25500000000E-02 0. -1.
    8880023    1    1    2    0    0 -0.63598601789E+03 -0.23756996441E+03  0.37674735870E+03  0.10181681990E+04  0.65864270000E+03 0.  0.
    8880022    1    1    2    0    0  0.63598601789E+03  0.23756996441E+03 -0.68104232916E+03  0.97371865036E+03  0.15294330000E+03 0.  0.
<mgrwt>
<rscale>  0 0.87604109E+03</rscale>
<asrwt>0</asrwt>
<pdfrwt beam="1">  1        2 0.17662937E+00 0.94590058E+03</pdfrwt>
<pdfrwt beam="2">  1       -2 0.12981476E+00 0.94590058E+03</pdfrwt>
<totfact> 0.88486254E+00</totfact>
</mgrwt>
</event>
<event>
 4    1  0.3057048E-007  0.7579518E+03  0.7818608E-02  0.9810439E-01
         -2   -1    0    0    0  501 -0.00000000000E+00  0.00000000000E+00  0.33180597555E+03  0.33180597556E+03  0.25500000000E-02 0.  1.
          2   -1    0    0  501    0  0.00000000000E+00 -0.00000000000E+00 -0.10635221087E+04  0.10635221087E+04  0.25500000000E-02 0. -1.
    8880023    1    1    2    0    0 -0.29919534245E+03 -0.22619202941E+03 -0.33610758262E+03  0.82913159419E+03  0.65864270000E+03 0.  0.
    8880022    1    1    2    0    0  0.29919534245E+03  0.22619202941E+03 -0.39560855056E+03  0.56619649011E+03  0.15294330000E+03 0.  0.
<mgrwt>
<rscale>  0 0.64805311E+03</rscale>
<asrwt>0</asrwt>
<pdfrwt beam="1">  1        2 0.16361878E+00 0.75795178E+03</pdfrwt>
<pdfrwt beam="2">  1       -2 0.51047074E-01 0.75795178E+03</pdfrwt>
<totfact> 0.84427101E+01</totfact>
</mgrwt>
</event>
<event>
 4    1  0.3057048E-007  0.8283394E+03  0.7818608E-02  0.9652572E-01
         -2   -1    0    0    0  501 -0.00000000000E+00  0.00000000000E+00  0.64091855016E+03  0.64091855016E+03  0.25500000000E-02 0.  1.
          2   -1    0    0  501    0  0.00000000000E+00 -0.00000000000E+00 -0.30713100998E+04  0.30713100998E+04  0.25500000000E-02 0. -1.
    8880023    1    1    2    0    0 -0.41856100378E+03  0.27774552179E+03  0.33787697739E+03  0.89459876306E+03  0.65864270000E+03 0.  1.
    8880022    1    1    2    0    0  0.41856100378E+03 -0.27774552179E+03 -0.27682685270E+04  0.28176298869E+04  0.15294330000E+03 0.  0.
<mgrwt>
<rscale>  0 0.73912219E+03</rscale>
<asrwt>0</asrwt>
<pdfrwt beam="1">  1        2 0.47250924E+00 0.82833936E+03</pdfrwt>
<pdfrwt beam="2">  1       -2 0.98602856E-01 0.82833936E+03</pdfrwt>
<totfact> 0.14117189E+00</totfact>
</mgrwt>
</event>
<event>
 4    1  0.3057048E-007  0.1072524E+04  0.7818608E-02  0.9292282E-01
          2   -1    0    0  501    0  0.00000000000E+00  0.00000000000E+00  0.96190427870E+03  0.96190427871E+03  0.25500000000E-02 0. -1.
         -2   -1    0    0    0  501 -0.00000000000E+00 -0.00000000000E+00 -0.10420034379E+04  0.10420034379E+04  0.25500000000E-02 0.  1.
    8880023    1    1    2    0    0  0.76907618524E+03 -0.35358039838E+03  0.21627563114E+03  0.10941127144E+04  0.65864270000E+03 0.  0.
    8880022    1    1    2    0    0 -0.76907618524E+03  0.35358039838E+03 -0.29637479038E+03  0.90979500230E+03  0.15294330000E+03 0.  0.
<mgrwt>
<rscale>  0 0.10149650E+04</rscale>
<asrwt>0</asrwt>
<pdfrwt beam="1">  1        2 0.14798527E+00 0.10725239E+04</pdfrwt>
<pdfrwt beam="2">  1       -2 0.16030822E+00 0.10725239E+04</pdfrwt>
<totfact> 0.65789924E+00</totfact>
</mgrwt>
</event>
<event>
 4    1  0.3057048E-007  0.6609308E+03  0.7818608E-02  0.1023222E+00
         -2   -1    0    0    0  501 -0.00000000000E+00  0.00000000000E+00  0.14685997611E+03  0.14685997614E+03  0.25500000000E-02 0.  1.
          2   -1    0    0  501    0  0.00000000000E+00 -0.00000000000E+00 -0.11766937818E+04  0.11766937818E+04  0.25500000000E-02 0. -1.
    8880023    1    1    2    0    0 -0.54922893848E+02 -0.16519165033E+01 -0.74751994992E+03  0.99780535922E+03  0.65864270000E+03 0.  1.
    8880022    1    1    2    0    0  0.54922893848E+02  0.16519165033E+01 -0.28231385579E+03  0.32574839874E+03  0.15294330000E+03 0. -1.
<mgrwt>
<rscale>  0 0.46541447E+03</rscale>
<asrwt>0</asrwt>
<pdfrwt beam="1">  1        2 0.18102981E+00 0.66093075E+03</pdfrwt>
<pdfrwt beam="2">  1       -2 0.22593843E-01 0.66093075E+03</pdfrwt>
<totfact> 0.34102588E+02</totfact>
</mgrwt>
</event>
<event>
 4    1  0.3057048E-007  0.7619148E+03  0.7818608E-02  0.9800175E-01
          2   -1    0    0  501    0  0.00000000000E+00  0.00000000000E+00  0.15800656004E+04  0.15800656004E+04  0.25500000000E-02 0. -1.
         -2   -1    0    0    0  501 -0.00000000000E+00 -0.00000000000E+00 -0.29553412125E+03  0.29553412126E+03  0.25500000000E-02 0.  1.
    8880023    1    1    2    0    0  0.23688031795E+03 -0.30098462877E+03  0.12471651467E+04  0.14614838833E+04  0.65864270000E+03 0.  0.
    8880022    1    1    2    0    0 -0.23688031795E+03  0.30098462877E+03  0.37366332486E+02  0.41411583839E+03  0.15294330000E+03 0.  0.
<mgrwt>
<rscale>  0 0.65353145E+03</rscale>
<asrwt>0</asrwt>
<pdfrwt beam="1">  1        2 0.24308702E+00 0.76191485E+03</pdfrwt>
<pdfrwt beam="2">  1       -2 0.45466787E-01 0.76191485E+03</pdfrwt>
<totfact> 0.53608752E+01</totfact>
</mgrwt>
</event>
<event>
 4    1  0.3057048E-007  0.6671263E+03  0.7818608E-02  0.1017812E+00
          2   -1    0    0  501    0  0.00000000000E+00  0.00000000000E+00  0.23376184366E+04  0.23376184366E+04  0.25500000000E-02 0. -1.
         -2   -1    0    0    0  501 -0.00000000000E+00 -0.00000000000E+00 -0.20150937135E+03  0.20150937136E+03  0.25500000000E-02 0.  1.
    8880023    1    1    2    0    0  0.18213889849E+02  0.10447725136E+03  0.36925878963E+03  0.76250213234E+03  0.65864270000E+03 0.  1.
    8880022    1    1    2    0    0 -0.18213889849E+02 -0.10447725136E+03  0.17668502756E+04  0.17766256756E+04  0.15294330000E+03 0.  0.
<mgrwt>
<rscale>  0 0.48484345E+03</rscale>
<asrwt>0</asrwt>
<pdfrwt beam="1">  1        2 0.35963362E+00 0.66712626E+03</pdfrwt>
<pdfrwt beam="2">  1       -2 0.31001441E-01 0.66712626E+03</pdfrwt>
<totfact> 0.43677427E+01</totfact>
</mgrwt>
</event>
<event>
 4    1  0.3057048E-007  0.9775712E+03  0.7818608E-02  0.9411508E-01
         -2   -1    0    0    0  501 -0.00000000000E+00  0.00000000000E+00  0.27480442799E+03  0.27480442800E+03  0.25500000000E-02 0.  1.
          2   -1    0    0  501    0  0.00000000000E+00 -0.00000000000E+00 -0.48718649771E+04  0.48718649771E+04  0.25500000000E-02 0. -1.
    8880023    1    1    2    0    0  0.20090215885E+03  0.69388289414E+03 -0.75738559059E+03  0.12366399182E+04  0.65864270000E+03 0.  1.
    8880022    1    1    2    0    0 -0.20090215885E+03 -0.69388289414E+03 -0.38396749585E+04  0.39100294868E+04  0.15294330000E+03 0.  0.
<mgrwt>
<rscale>  0 0.91134629E+03</rscale>
<asrwt>0</asrwt>
<pdfrwt beam="1">  1        2 0.74951763E+00 0.97757115E+03</pdfrwt>
<pdfrwt beam="2">  1       -2 0.42277608E-01 0.97757115E+03</pdfrwt>
<totfact> 0.28753103E-01</totfact>
</mgrwt>
</event>
<event>
 4    1  0.3057048E-007  0.1092591E+04  0.7818608E-02  0.9269350E-01
          2   -1    0    0  501    0  0.00000000000E+00  0.00000000000E+00  0.15027054092E+04  0.15027054092E+04  0.25500000000E-02 0. -1.
         -2   -1    0    0    0  501 -0.00000000000E+00 -0.00000000000E+00 -0.94232175697E+03  0.94232175697E+03  0.25500000000E-02 0.  1.
    8880023    1    1    2    0    0  0.85083116269E+03  0.18981923522E+03  0.97801445705E+03  0.14663790417E+04  0.65864270000E+03 0.  0.
    8880022    1    1    2    0    0 -0.85083116269E+03 -0.18981923522E+03 -0.41763080479E+03  0.97864812450E+03  0.15294330000E+03 0.  0.
<mgrwt>
<rscale>  0 0.10365417E+04</rscale>
<asrwt>0</asrwt>
<pdfrwt beam="1">  1        2 0.23118545E+00 0.10925911E+04</pdfrwt>
<pdfrwt beam="2">  1       -2 0.14497258E+00 0.10925911E+04</pdfrwt>
<totfact> 0.40758726E+00</totfact>
</mgrwt>
</event>
<event>
 4    1  0.3057048E-007  0.1021790E+04  0.7818608E-02  0.9353589E-01
         -2   -1    0    0    0  501 -0.00000000000E+00  0.00000000000E+00  0.10479686879E+04  0.10479686879E+04  0.25500000000E-02 0.  1.
          2   -1    0    0  501    0  0.00000000000E+00 -0.00000000000E+00 -0.85310205505E+03  0.85310205506E+03  0.25500000000E-02 0. -1.
    8880023    1    1    2    0    0 -0.46734726131E+03  0.62596362694E+03  0.36874235052E+03  0.10862895803E+04  0.65864270000E+03 0.  0.
    8880022    1    1    2    0    0  0.46734726131E+03 -0.62596362694E+03 -0.17387571763E+03  0.81478116271E+03  0.15294330000E+03 0.  0.
<mgrwt>
<rscale>  0 0.95995544E+03</rscale>
<asrwt>0</asrwt>
<pdfrwt beam="1">  1        2 0.13124647E+00 0.10217897E+04</pdfrwt>
<pdfrwt beam="2">  1       -2 0.16122595E+00 0.10217897E+04</pdfrwt>
<totfact> 0.77102298E+00</totfact>
</mgrwt>
</event>
<event>
 4    1  0.3057048E-007  0.1189394E+04  0.7818608E-02  0.9167502E-01
          2   -1    0    0  501    0  0.00000000000E+00  0.00000000000E+00  0.22162707949E+04  0.22162707949E+04  0.25500000000E-02 0. -1.
         -2   -1    0    0    0  501 -0.00000000000E+00 -0.00000000000E+00 -0.10697143162E+04  0.10697143162E+04  0.25500000000E-02 0.  1.
    8880023    1    1    2    0    0  0.88393985689E+03 -0.44665094213E+03 -0.55402803003E+03  0.13120990813E+04  0.65864270000E+03 0.  1.
    8880022    1    1    2    0    0 -0.88393985689E+03  0.44665094213E+03  0.17005845087E+04  0.19738860299E+04  0.15294330000E+03 0.  0.
<mgrwt>
<rscale>  0 0.11395248E+04</rscale>
<asrwt>0</asrwt>
<pdfrwt beam="1">  1        2 0.34096474E+00 0.11893935E+04</pdfrwt>
<pdfrwt beam="2">  1       -2 0.16457143E+00 0.11893935E+04</pdfrwt>
<totfact> 0.11497510E+00</totfact>
</mgrwt>
</event>
<event>
 4    1  0.4051181E-007  0.7725801E+03  0.7818608E-02  0.9773564E-01
          2   -1    0    0  501    0  0.00000000000E+00  0.00000000000E+00  0.34039581785E+04  0.34039581785E+04  0.25500000000E-02 0. -1.
         -2   -1    0    0    0  501 -0.00000000000E+00 -0.00000000000E+00 -0.10005937786E+04  0.10005937786E+04  0.25500000000E-02 0.  1.
    8880023    1    1    2    0    0 -0.36711833873E+03  0.16820813869E+03 -0.83496380809E+03  0.11375608202E+04  0.65864270000E+03 0.  1.
    8880022    1    1    2    0    0  0.36711833873E+03 -0.16820813869E+03  0.32383282080E+04  0.32669911369E+04  0.15294330000E+03 0.  0.
<mgrwt>
<rscale>  0 0.66800744E+03</rscale>
<asrwt>0</asrwt>
<pdfrwt beam="1">  1        2 0.52368588E+00 0.77258013E+03</pdfrwt>
<pdfrwt beam="2">  1       -2 0.15393750E+00 0.77258013E+03</pdfrwt>
<totfact> 0.28629316E-01</totfact>
</mgrwt>
</event>
<event>
 4    1  0.3057048E-007  0.6796661E+03  0.7818608E-02  0.1009513E+00
         -2   -1    0    0    0  501 -0.00000000000E+00  0.00000000000E+00  0.49496893278E+03  0.49496893279E+03  0.25500000000E-02 0.  1.
          2   -1    0    0  501    0  0.00000000000E+00 -0.00000000000E+00 -0.18344591093E+04  0.18344591093E+04  0.25500000000E-02 0. -1.
    8880023    1    1    2    0    0 -0.14524966681E+03  0.83895144822E+02  0.24971863140E+03  0.72408940205E+03  0.65864270000E+03 0.  1.
    8880022    1    1    2    0    0  0.14524966681E+03 -0.83895144822E+02 -0.15892088079E+04  0.16053386400E+04  0.15294330000E+03 0.  0.
<mgrwt>
<rscale>  0 0.51668592E+03</rscale>
<asrwt>0</asrwt>
<pdfrwt beam="1">  1        2 0.28222448E+00 0.67966614E+03</pdfrwt>
<pdfrwt beam="2">  1       -2 0.76149067E-01 0.67966614E+03</pdfrwt>
<totfact> 0.13282771E+01</totfact>
</mgrwt>
</event>
<event>
 4    1  0.3057048E-007  0.1577586E+04  0.7818608E-02  0.8856707E-01
          2   -1    0    0  501    0  0.00000000000E+00  0.00000000000E+00  0.18645774782E+04  0.18645774782E+04  0.25500000000E-02 0. -1.
         -2   -1    0    0    0  501 -0.00000000000E+00 -0.00000000000E+00 -0.16981809749E+04  0.16981809749E+04  0.25500000000E-02 0.  1.
    8880023    1    1    2    0    0  0.14334569860E+04  0.13038223372E+02  0.10282753389E+04  0.18831169121E+04  0.65864270000E+03 0.  0.
    8880022    1    1    2    0    0 -0.14334569860E+04 -0.13038223372E+02 -0.86187883561E+03  0.16796415410E+04  0.15294330000E+03 0.  0.
<mgrwt>
<rscale>  0 0.15424461E+04</rscale>
<asrwt>0</asrwt>
<pdfrwt beam="1">  1        2 0.28685807E+00 0.15775865E+04</pdfrwt>
<pdfrwt beam="2">  1       -2 0.26125861E+00 0.15775865E+04</pdfrwt>
<totfact> 0.40513629E-01</totfact>
</mgrwt>
</event>
<event>
 4    1  0.3057048E-007  0.7222030E+03  0.7818608E-02  0.9915201E-01
          2   -1    0    0  501    0  0.00000000000E+00  0.00000000000E+00  0.16684876932E+04  0.16684876932E+04  0.25500000000E-02 0. -1.
         -2   -1    0    0    0  501 -0.00000000000E+00 -0.00000000000E+00 -0.46211203267E+03  0.46211203268E+03  0.25500000000E-02 0.  1.
    8880023    1    1    2    0    0 -0.63922896248E+02 -0.28927647042E+03 -0.14678642158E+03  0.73696911253E+03  0.65864270000E+03 0.  1.
    8880022    1    1    2    0    0  0.63922896248E+02  0.28927647042E+03  0.13531620821E+04  0.13936306134E+04  0.15294330000E+03 0.  0.
<mgrwt>
<rscale>  0 0.59530207E+03</rscale>
<asrwt>0</asrwt>
<pdfrwt beam="1">  1        2 0.25669042E+00 0.72220303E+03</pdfrwt>
<pdfrwt beam="2">  1       -2 0.71094158E-01 0.72220303E+03</pdfrwt>
<totfact> 0.18916386E+01</totfact>
</mgrwt>
</event>
<event>
 4    1  0.3057048E-007  0.7831378E+03  0.7818608E-02  0.9748517E-01
          2   -1    0    0  501    0  0.00000000000E+00  0.00000000000E+00  0.25387191379E+04  0.25387191379E+04  0.25500000000E-02 0. -1.
         -2   -1    0    0    0  501 -0.00000000000E+00 -0.00000000000E+00 -0.27700410030E+03  0.27700410031E+03  0.25500000000E-02 0.  1.
    8880023    1    1    2    0    0  0.54383001248E+02  0.42016325761E+03  0.36094827015E+03  0.86231579706E+03  0.65864270000E+03 0.  1.
    8880022    1    1    2    0    0 -0.54383001248E+02 -0.42016325761E+03  0.19007667674E+04  0.19534074411E+04  0.15294330000E+03 0.  0.
<mgrwt>
<rscale>  0 0.68200138E+03</rscale>
<asrwt>0</asrwt>
<pdfrwt beam="1">  1        2 0.39057217E+00 0.78313784E+03</pdfrwt>
<pdfrwt beam="2">  1       -2 0.42616016E-01 0.78313784E+03</pdfrwt>
<totfact> 0.17977290E+01</totfact>
</mgrwt>
</event>
<event>
 4    1  0.3057048E-007  0.7474436E+03  0.7818608E-02  0.9838772E-01
         -2   -1    0    0    0  501 -0.00000000000E+00  0.00000000000E+00  0.30889610420E+03  0.30889610421E+03  0.25500000000E-02 0.  1.
          2   -1    0    0  501    0  0.00000000000E+00 -0.00000000000E+00 -0.13202542413E+04  0.13202542413E+04  0.25500000000E-02 0. -1.
    8880023    1    1    2    0    0  0.56555494797E+02 -0.34880260332E+03 -0.27173467137E+03  0.79530605302E+03  0.65864270000E+03 0.  1.
    8880022    1    1    2    0    0 -0.56555494797E+02  0.34880260332E+03 -0.73962346575E+03  0.83384429253E+03  0.15294330000E+03 0.  0.
<mgrwt>
<rscale>  0 0.63322701E+03</rscale>
<asrwt>0</asrwt>
<pdfrwt beam="1">  1        2 0.20311603E+00 0.74744363E+03</pdfrwt>
<pdfrwt beam="2">  1       -2 0.47522478E-01 0.74744363E+03</pdfrwt>
<totfact> 0.68745486E+01</totfact>
</mgrwt>
</event>
<event>
 4    1  0.3057048E-007  0.8460091E+03  0.7818608E-02  0.9618952E-01
          2   -1    0    0  501    0  0.00000000000E+00  0.00000000000E+00  0.65542768993E+03  0.65542768993E+03  0.25500000000E-02 0. -1.
         -2   -1    0    0    0  501 -0.00000000000E+00 -0.00000000000E+00 -0.11316667283E+04  0.11316667283E+04  0.25500000000E-02 0.  1.
    8880023    1    1    2    0    0  0.52993956184E+03 -0.32943565041E+02  0.24290230950E+03  0.88018915916E+03  0.65864270000E+03 0.  0.
    8880022    1    1    2    0    0 -0.52993956184E+03  0.32943565041E+02 -0.71914134783E+03  0.90690525903E+03  0.15294330000E+03 0.  0.
<mgrwt>
<rscale>  0 0.76054413E+03</rscale>
<asrwt>0</asrwt>
<pdfrwt beam="1">  1        2 0.10083503E+00 0.84600912E+03</pdfrwt>
<pdfrwt beam="2">  1       -2 0.17410257E+00 0.84600912E+03</pdfrwt>
<totfact> 0.89324050E+00</totfact>
</mgrwt>
</event>
<event>
 4    1  0.3057048E-007  0.1080569E+04  0.7818608E-02  0.9283004E-01
          2   -1    0    0  501    0  0.00000000000E+00  0.00000000000E+00  0.14670590640E+04  0.14670590640E+04  0.25500000000E-02 0. -1.
         -2   -1    0    0    0  501 -0.00000000000E+00 -0.00000000000E+00 -0.64902903276E+03  0.64902903276E+03  0.25500000000E-02 0.  1.
    8880023    1    1    2    0    0  0.66302296220E+03 -0.54242088708E+03  0.42242659278E+03  0.11602044215E+04  0.65864270000E+03 0. -1.
    8880022    1    1    2    0    0 -0.66302296220E+03  0.54242088708E+03  0.39560343850E+03  0.95588367530E+03  0.15294330000E+03 0.  1.
<mgrwt>
<rscale>  0 0.10236268E+04</rscale>
<asrwt>0</asrwt>
<pdfrwt beam="1">  1        2 0.22570139E+00 0.10805693E+04</pdfrwt>
<pdfrwt beam="2">  1       -2 0.99850620E-01 0.10805693E+04</pdfrwt>
<totfact> 0.10849653E+01</totfact>
</mgrwt>
</event>
<event>
 4    1  0.3057048E-007  0.6957376E+03  0.7818608E-02  0.1001536E+00
          2   -1    0    0  501    0  0.00000000000E+00  0.00000000000E+00  0.12538433902E+04  0.12538433902E+04  0.25500000000E-02 0. -1.
         -2   -1    0    0    0  501 -0.00000000000E+00 -0.00000000000E+00 -0.22847275379E+03  0.22847275380E+03  0.25500000000E-02 0.  1.
    8880023    1    1    2    0    0  0.33939148269E+02  0.22155993363E+03  0.40460290185E+03  0.80483189824E+03  0.65864270000E+03 0.  1.
    8880022    1    1    2    0    0 -0.33939148269E+02 -0.22155993363E+03  0.62076773456E+03  0.67748424576E+03  0.15294330000E+03 0. -1.
<mgrwt>
<rscale>  0 0.54981640E+03</rscale>
<asrwt>0</asrwt>
<pdfrwt beam="1">  1        2 0.19289898E+00 0.69573765E+03</pdfrwt>
<pdfrwt beam="2">  1       -2 0.35149655E-01 0.69573765E+03</pdfrwt>
<totfact> 0.13613936E+02</totfact>
</mgrwt>
</event>
<event>
 4    1  0.3057048E-007  0.6900027E+03  0.7818608E-02  0.1004151E+00
          2   -1    0    0  501    0  0.00000000000E+00  0.00000000000E+00  0.23812569625E+04  0.23812569625E+04  0.25500000000E-02 0. -1.
         -2   -1    0    0    0  501 -0.00000000000E+00 -0.00000000000E+00 -0.20998008418E+03  0.20998008420E+03  0.25500000000E-02 0.  1.
    8880023    1    1    2    0    0 -0.15899161045E+03  0.13044251803E+03  0.39196485877E+03  0.79356174270E+03  0.65864270000E+03 0.  1.
    8880022    1    1    2    0    0  0.15899161045E+03 -0.13044251803E+03  0.17793120196E+04  0.17976753040E+04  0.15294330000E+03 0.  0.
<mgrwt>
<rscale>  0 0.53866851E+03</rscale>
<asrwt>0</asrwt>
<pdfrwt beam="1">  1        2 0.36634722E+00 0.69000275E+03</pdfrwt>
<pdfrwt beam="2">  1       -2 0.32304628E-01 0.69000275E+03</pdfrwt>
<totfact> 0.38110549E+01</totfact>
</mgrwt>
</event>
<event>
 4    1  0.3057048E-007  0.8785506E+03  0.7818608E-02  0.9561381E-01
         -2   -1    0    0    0  501 -0.00000000000E+00  0.00000000000E+00  0.45159116691E+03  0.45159116692E+03  0.25500000000E-02 0.  1.
          2   -1    0    0  501    0  0.00000000000E+00 -0.00000000000E+00 -0.36536208110E+04  0.36536208110E+04  0.25500000000E-02 0. -1.
    8880023    1    1    2    0    0 -0.54345573854E+03  0.20663185877E+03 -0.32481040112E+02  0.87915077720E+03  0.65864270000E+03 0.  1.
    8880022    1    1    2    0    0  0.54345573854E+03 -0.20663185877E+03 -0.31695486040E+04  0.32260612007E+04  0.15294330000E+03 0.  0.
<mgrwt>
<rscale>  0 0.79905830E+03</rscale>
<asrwt>0</asrwt>
<pdfrwt beam="1">  1        2 0.56209549E+00 0.87855055E+03</pdfrwt>
<pdfrwt beam="2">  1       -2 0.69475567E-01 0.87855055E+03</pdfrwt>
<totfact> 0.12703656E+00</totfact>
</mgrwt>
</event>
<event>
 4    1  0.3057048E-007  0.8938779E+03  0.7818608E-02  0.9535932E-01
         -2   -1    0    0    0  501 -0.00000000000E+00  0.00000000000E+00  0.12233055048E+04  0.12233055048E+04  0.25500000000E-02 0.  1.
          2   -1    0    0  501    0  0.00000000000E+00 -0.00000000000E+00 -0.96171026169E+03  0.96171026169E+03  0.25500000000E-02 0. -1.
    8880023    1    1    2    0    0 -0.49086505760E+03  0.35250387222E+03  0.91693641663E+03  0.12805428861E+04  0.65864270000E+03 0.  1.
    8880022    1    1    2    0    0  0.49086505760E+03 -0.35250387222E+03 -0.65534117350E+03  0.90447288042E+03  0.15294330000E+03 0.  0.
<mgrwt>
<rscale>  0 0.81685764E+03</rscale>
<asrwt>0</asrwt>
<pdfrwt beam="1">  1        2 0.14795543E+00 0.89387789E+03</pdfrwt>
<pdfrwt beam="2">  1       -2 0.18820085E+00 0.89387789E+03</pdfrwt>
<totfact> 0.42654303E+00</totfact>
</mgrwt>
</event>
<event>
 4    1  0.3057048E-007  0.8297760E+03  0.7818608E-02  0.9649768E-01
          2   -1    0    0  501    0  0.00000000000E+00  0.00000000000E+00  0.10224953665E+04  0.10224953665E+04  0.25500000000E-02 0. -1.
         -2   -1    0    0    0  501 -0.00000000000E+00 -0.00000000000E+00 -0.52355858100E+03  0.52355858101E+03  0.25500000000E-02 0.  1.
    8880023    1    1    2    0    0  0.43918557661E+03  0.24866451872E+03  0.14411058293E+02  0.82990113775E+03  0.65864270000E+03 0.  1.
    8880022    1    1    2    0    0 -0.43918557661E+03 -0.24866451872E+03  0.48452572716E+03  0.71615280971E+03  0.15294330000E+03 0.  0.
<mgrwt>
<rscale>  0 0.74087965E+03</rscale>
<asrwt>0</asrwt>
<pdfrwt beam="1">  1        2 0.15730698E+00 0.82977601E+03</pdfrwt>
<pdfrwt beam="2">  1       -2 0.80547475E-01 0.82977601E+03</pdfrwt>
<totfact> 0.33465676E+01</totfact>
</mgrwt>
</event>
<event>
 4    1  0.3057048E-007  0.6871719E+03  0.7818608E-02  0.1005527E+00
          2   -1    0    0  501    0  0.00000000000E+00  0.00000000000E+00  0.53717629362E+03  0.53717629363E+03  0.25500000000E-02 0. -1.
         -2   -1    0    0    0  501 -0.00000000000E+00 -0.00000000000E+00 -0.50106132250E+03  0.50106132251E+03  0.25500000000E-02 0.  1.
    8880023    1    1    2    0    0  0.19170842262E+03 -0.40532757316E+02 -0.17834632543E+03  0.70993847746E+03  0.65864270000E+03 0.  1.
    8880022    1    1    2    0    0 -0.19170842262E+03  0.40532757316E+02  0.21446129655E+03  0.32829913867E+03  0.15294330000E+03 0.  0.
<mgrwt>
<rscale>  0 0.53291863E+03</rscale>
<asrwt>0</asrwt>
<pdfrwt beam="1">  1        2 0.82642507E-01 0.68717191E+03</pdfrwt>
<pdfrwt beam="2">  1       -2 0.77086357E-01 0.68717191E+03</pdfrwt>
<totfact> 0.86333890E+01</totfact>
</mgrwt>
</event>
<event>
 4    1  0.3057048E-007  0.8686943E+03  0.7818608E-02  0.9578281E-01
          2   -1    0    0  501    0  0.00000000000E+00  0.00000000000E+00  0.84653452975E+03  0.84653452975E+03  0.25500000000E-02 0. -1.
         -2   -1    0    0    0  501 -0.00000000000E+00 -0.00000000000E+00 -0.76234928069E+03  0.76234928069E+03  0.25500000000E-02 0.  1.
    8880023    1    1    2    0    0 -0.55606018893E+03 -0.10778074581E+03 -0.28670825531E+03  0.91478492161E+03  0.65864270000E+03 0.  0.
    8880022    1    1    2    0    0  0.55606018893E+03  0.10778074581E+03  0.37089350437E+03  0.69409888883E+03  0.15294330000E+03 0.  0.
<mgrwt>
<rscale>  0 0.78750510E+03</rscale>
<asrwt>0</asrwt>
<pdfrwt beam="1">  1        2 0.13023608E+00 0.86869432E+03</pdfrwt>
<pdfrwt beam="2">  1       -2 0.11728451E+00 0.86869432E+03</pdfrwt>
<totfact> 0.18003185E+01</totfact>
</mgrwt>
</event>
<event>
 4    1  0.3057048E-007  0.8775852E+03  0.7818608E-02  0.9563017E-01
          2   -1    0    0  501    0  0.00000000000E+00  0.00000000000E+00  0.15741422308E+04  0.15741422308E+04  0.25500000000E-02 0. -1.
         -2   -1    0    0    0  501 -0.00000000000E+00 -0.00000000000E+00 -0.40408154797E+03  0.40408154798E+03  0.25500000000E-02 0.  1.
    8880023    1    1    2    0    0 -0.97630209414E+02  0.57167640504E+03  0.31215612158E+03  0.93144898968E+03  0.65864270000E+03 0. -1.
    8880022    1    1    2    0    0  0.97630209414E+02 -0.57167640504E+03  0.85790456121E+03  0.10467747891E+04  0.15294330000E+03 0.  0.
<mgrwt>
<rscale>  0 0.79793063E+03</rscale>
<asrwt>0</asrwt>
<pdfrwt beam="1">  1        2 0.24217573E+00 0.87758520E+03</pdfrwt>
<pdfrwt beam="2">  1       -2 0.62166391E-01 0.87758520E+03</pdfrwt>
<totfact> 0.27986415E+01</totfact>
</mgrwt>
</event>
<event>
 4    1  0.3057048E-007  0.6942224E+03  0.7818608E-02  0.1002207E+00
          2   -1    0    0  501    0  0.00000000000E+00  0.00000000000E+00  0.30596584521E+04  0.30596584521E+04  0.25500000000E-02 0. -1.
         -2   -1    0    0    0  501 -0.00000000000E+00 -0.00000000000E+00 -0.21788244266E+03  0.21788244268E+03  0.25500000000E-02 0.  1.
    8880023    1    1    2    0    0 -0.21509746288E+03 -0.43215460557E+02  0.36115698584E+03  0.78254652849E+03  0.65864270000E+03 0.  1.
    8880022    1    1    2    0    0  0.21509746288E+03  0.43215460557E+02  0.24806190236E+04  0.24949943663E+04  0.15294330000E+03 0.  0.
<mgrwt>
<rscale>  0 0.54693039E+03</rscale>
<asrwt>0</asrwt>
<pdfrwt beam="1">  1        2 0.47071666E+00 0.69422237E+03</pdfrwt>
<pdfrwt beam="2">  1       -2 0.33520377E-01 0.69422237E+03</pdfrwt>
<totfact> 0.14261962E+01</totfact>
</mgrwt>
</event>
<event>
 4    1  0.3057048E-007  0.7891526E+03  0.7818608E-02  0.9734761E-01
         -2   -1    0    0    0  501 -0.00000000000E+00  0.00000000000E+00  0.77228241095E+03  0.77228241095E+03  0.25500000000E-02 0.  1.
          2   -1    0    0  501    0  0.00000000000E+00 -0.00000000000E+00 -0.10885570252E+04  0.10885570252E+04  0.25500000000E-02 0. -1.
    8880023    1    1    2    0    0  0.40702162219E+03 -0.15259424764E+03  0.49234019983E+03  0.93014014212E+03  0.65864270000E+03 0.  0.
    8880022    1    1    2    0    0 -0.40702162219E+03  0.15259424764E+03 -0.80861481405E+03  0.93069929400E+03  0.15294330000E+03 0.  0.
<mgrwt>
<rscale>  0 0.68984346E+03</rscale>
<asrwt>0</asrwt>
<pdfrwt beam="1">  1        2 0.16747031E+00 0.78915259E+03</pdfrwt>
<pdfrwt beam="2">  1       -2 0.11881268E+00 0.78915259E+03</pdfrwt>
<totfact> 0.12216075E+01</totfact>
</mgrwt>
</event>
<event>
 4    1  0.3057048E-007  0.7718887E+03  0.7818608E-02  0.9775247E-01
         -2   -1    0    0    0  501 -0.00000000000E+00  0.00000000000E+00  0.61428960075E+03  0.61428960075E+03  0.25500000000E-02 0.  1.
          2   -1    0    0  501    0  0.00000000000E+00 -0.00000000000E+00 -0.19540717144E+04  0.19540717144E+04  0.25500000000E-02 0. -1.
    8880023    1    1    2    0    0 -0.17592576692E+03  0.36201124124E+03  0.33329154167E+03  0.84077076083E+03  0.65864270000E+03 0.  1.
    8880022    1    1    2    0    0  0.17592576692E+03 -0.36201124124E+03 -0.16730736553E+04  0.17275905543E+04  0.15294330000E+03 0.  0.
<mgrwt>
<rscale>  0 0.66707995E+03</rscale>
<asrwt>0</asrwt>
<pdfrwt beam="1">  1        2 0.30062641E+00 0.77188874E+03</pdfrwt>
<pdfrwt beam="2">  1       -2 0.94506093E-01 0.77188874E+03</pdfrwt>
<totfact> 0.68936109E+00</totfact>
</mgrwt>
</event>
<event>
 4    1  0.3057048E-007  0.6588056E+03  0.7818608E-02  0.1025415E+00
         -2   -1    0    0    0  501 -0.00000000000E+00  0.00000000000E+00  0.19620333131E+03  0.19620333132E+03  0.25500000000E-02 0.  1.
          2   -1    0    0  501    0  0.00000000000E+00 -0.00000000000E+00 -0.85280476896E+03  0.85280476896E+03  0.25500000000E-02 0. -1.
    8880023    1    1    2    0    0 -0.12334128358E+02  0.79071315020E+01 -0.48119817372E+03  0.81582874558E+03  0.65864270000E+03 0.  1.
    8880022    1    1    2    0    0  0.12334128358E+02 -0.79071315020E+01 -0.17540326393E+03  0.23317935471E+03  0.15294330000E+03 0.  0.
<mgrwt>
<rscale>  0 0.45782181E+03</rscale>
<asrwt>0</asrwt>
<pdfrwt beam="1">  1        2 0.13120073E+00 0.65880563E+03</pdfrwt>
<pdfrwt beam="2">  1       -2 0.30185128E-01 0.65880563E+03</pdfrwt>
<totfact> 0.32381008E+02</totfact>
</mgrwt>
</event>
<event>
 4    1  0.3057048E-007  0.1131220E+04  0.7818608E-02  0.9227067E-01
          2   -1    0    0  501    0  0.00000000000E+00  0.00000000000E+00  0.20942580237E+04  0.20942580237E+04  0.25500000000E-02 0. -1.
         -2   -1    0    0    0  501 -0.00000000000E+00 -0.00000000000E+00 -0.58140764829E+03  0.58140764829E+03  0.25500000000E-02 0.  1.
    8880023    1    1    2    0    0  0.80909414276E+03  0.43728181254E+03  0.34777468710E+03  0.11834720760E+04  0.65864270000E+03 0.  1.
    8880022    1    1    2    0    0 -0.80909414276E+03 -0.43728181254E+03  0.11650756883E+04  0.14921935960E+04  0.15294330000E+03 0.  0.
<mgrwt>
<rscale>  0 0.10778363E+04</rscale>
<asrwt>0</asrwt>
<pdfrwt beam="1">  1        2 0.32219355E+00 0.11312201E+04</pdfrwt>
<pdfrwt beam="2">  1       -2 0.89447329E-01 0.11312201E+04</pdfrwt>
<totfact> 0.62690807E+00</totfact>
</mgrwt>
</event>
<event>
 4    1  0.3057048E-007  0.1208039E+04  0.7818608E-02  0.9149348E-01
          2   -1    0    0  501    0  0.00000000000E+00  0.00000000000E+00  0.27760342863E+04  0.27760342863E+04  0.25500000000E-02 0. -1.
         -2   -1    0    0    0  501 -0.00000000000E+00 -0.00000000000E+00 -0.55985594892E+03  0.55985594893E+03  0.25500000000E-02 0.  1.
    8880023    1    1    2    0    0 -0.10038084680E+04  0.13384943574E+03  0.19223191062E+04  0.22703894081E+04  0.65864270000E+03 0.  0.
    8880022    1    1    2    0    0  0.10038084680E+04 -0.13384943574E+03  0.29385923117E+03  0.10655008272E+04  0.15294330000E+03 0.  0.
<mgrwt>
<rscale>  0 0.11591893E+04</rscale>
<asrwt>0</asrwt>
<pdfrwt beam="1">  1        2 0.42708220E+00 0.12080386E+04</pdfrwt>
<pdfrwt beam="2">  1       -2 0.86131684E-01 0.12080386E+04</pdfrwt>
<totfact> 0.27617183E+00</totfact>
</mgrwt>
</event>
<event>
 4    1  0.3057048E-007  0.8591538E+03  0.7818608E-02  0.9595070E-01
          2   -1    0    0  501    0  0.00000000000E+00  0.00000000000E+00  0.21895180972E+04  0.21895180972E+04  0.25500000000E-02 0. -1.
         -2   -1    0    0    0  501 -0.00000000000E+00 -0.00000000000E+00 -0.71376912690E+03  0.71376912690E+03  0.25500000000E-02 0.  1.
    8880023    1    1    2    0    0 -0.40109573405E+03  0.37875747720E+03 -0.39594590109E+03  0.94600125648E+03  0.65864270000E+03 0.  1.
    8880022    1    1    2    0    0  0.40109573405E+03 -0.37875747720E+03  0.18716948714E+04  0.19572859676E+04  0.15294330000E+03 0.  0.
<mgrwt>
<rscale>  0 0.77623309E+03</rscale>
<asrwt>0</asrwt>
<pdfrwt beam="1">  1        2 0.33684893E+00 0.85915378E+03</pdfrwt>
<pdfrwt beam="2">  1       -2 0.10981064E+00 0.85915378E+03</pdfrwt>
<totfact> 0.35317761E+00</totfact>
</mgrwt>
</event>
<event>
 4    1  0.3057048E-007  0.8467217E+03  0.7818608E-02  0.9617634E-01
         -2   -1    0    0    0  501 -0.00000000000E+00  0.00000000000E+00  0.11050999077E+04  0.11050999077E+04  0.25500000000E-02 0.  1.
          2   -1    0    0  501    0  0.00000000000E+00 -0.00000000000E+00 -0.79926015598E+03  0.79926015599E+03  0.25500000000E-02 0. -1.
    8880023    1    1    2    0    0 -0.51546512897E+03  0.13199676561E+03  0.79806339992E+03  0.11635475245E+04  0.65864270000E+03 0.  1.
    8880022    1    1    2    0    0  0.51546512897E+03 -0.13199676561E+03 -0.49222364819E+03  0.74081253916E+03  0.15294330000E+03 0. -1.
<mgrwt>
<rscale>  0 0.76139972E+03</rscale>
<asrwt>0</asrwt>
<pdfrwt beam="1">  1        2 0.12296310E+00 0.84672171E+03</pdfrwt>
<pdfrwt beam="2">  1       -2 0.17001537E+00 0.84672171E+03</pdfrwt>
<totfact> 0.73990163E+00</totfact>
</mgrwt>
</event>
<event>
 4    1  0.3057048E-007  0.7545114E+03  0.7818608E-02  0.9819530E-01
         -2   -1    0    0    0  501 -0.00000000000E+00  0.00000000000E+00  0.25415901069E+03  0.25415901071E+03  0.25500000000E-02 0.  1.
          2   -1    0    0  501    0  0.00000000000E+00 -0.00000000000E+00 -0.36218127990E+04  0.36218127990E+04  0.25500000000E-02 0. -1.
    8880023    1    1    2    0    0 -0.29457376675E+03  0.22068870161E+03 -0.34935013578E+03  0.83146432918E+03  0.65864270000E+03 0.  0.
    8880022    1    1    2    0    0  0.29457376675E+03 -0.22068870161E+03 -0.30183036525E+04  0.30445074805E+04  0.15294330000E+03 0.  0.
<mgrwt>
<rscale>  0 0.64324911E+03</rscale>
<asrwt>0</asrwt>
<pdfrwt beam="1">  1        2 0.55720193E+00 0.75451137E+03</pdfrwt>
<pdfrwt beam="2">  1       -2 0.39101389E-01 0.75451137E+03</pdfrwt>
<totfact> 0.44793959E+00</totfact>
</mgrwt>
</event>
<event>
 4    1  0.3057048E-007  0.8447891E+03  0.7818608E-02  0.9621215E-01
         -2   -1    0    0    0  501 -0.00000000000E+00  0.00000000000E+00  0.13884596148E+03  0.13884596151E+03  0.25500000000E-02 0.  1.
          2   -1    0    0  501    0  0.00000000000E+00 -0.00000000000E+00 -0.36738669934E+04  0.36738669934E+04  0.25500000000E-02 0. -1.
    8880023    1    1    2    0    0  0.37897247400E+03  0.36910470203E+03 -0.17246180770E+04  0.19204104079E+04  0.65864270000E+03 0. -1.
    8880022    1    1    2    0    0 -0.37897247400E+03 -0.36910470203E+03 -0.18104029550E+04  0.18923025470E+04  0.15294330000E+03 0.  1.
<mgrwt>
<rscale>  0 0.75907789E+03</rscale>
<asrwt>0</asrwt>
<pdfrwt beam="1">  1        2 0.56521023E+00 0.84478910E+03</pdfrwt>
<pdfrwt beam="2">  1       -2 0.21360920E-01 0.84478910E+03</pdfrwt>
<totfact> 0.12374888E+01</totfact>
</mgrwt>
</event>
<event>
 4    1  0.3057048E-007  0.6833587E+03  0.7818608E-02  0.1007484E+00
          2   -1    0    0  501    0  0.00000000000E+00  0.00000000000E+00  0.12583928631E+04  0.12583928631E+04  0.25500000000E-02 0. -1.
         -2   -1    0    0    0  501 -0.00000000000E+00 -0.00000000000E+00 -0.50157454729E+03  0.50157454730E+03  0.25500000000E-02 0.  1.
    8880023    1    1    2    0    0 -0.87899607328E+02  0.15950707930E+03 -0.24831917710E+03  0.72707734753E+03  0.65864270000E+03 0.  1.
    8880022    1    1    2    0    0  0.87899607328E+02 -0.15950707930E+03  0.10051374929E+04  0.10328900629E+04  0.15294330000E+03 0.  0.
<mgrwt>
<rscale>  0 0.52486871E+03</rscale>
<asrwt>0</asrwt>
<pdfrwt beam="1">  1        2 0.19359890E+00 0.68335866E+03</pdfrwt>
<pdfrwt beam="2">  1       -2 0.77165315E-01 0.68335866E+03</pdfrwt>
<totfact> 0.26927258E+01</totfact>
</mgrwt>
</event>
<event>
 4    1  0.3057048E-007  0.7382247E+03  0.7818608E-02  0.9865149E-01
          2   -1    0    0  501    0  0.00000000000E+00  0.00000000000E+00  0.14110740628E+04  0.14110740628E+04  0.25500000000E-02 0. -1.
         -2   -1    0    0    0  501 -0.00000000000E+00 -0.00000000000E+00 -0.70727626954E+03  0.70727626954E+03  0.25500000000E-02 0.  1.
    8880023    1    1    2    0    0 -0.25234401851E+03 -0.21791728603E+03 -0.47897856307E+03  0.87999779396E+03  0.65864270000E+03 0.  1.
    8880022    1    1    2    0    0  0.25234401851E+03  0.21791728603E+03  0.11827763564E+04  0.12383525384E+04  0.15294330000E+03 0.  0.
<mgrwt>
<rscale>  0 0.61980452E+03</rscale>
<asrwt>0</asrwt>
<pdfrwt beam="1">  1        2 0.21708832E+00 0.73822466E+03</pdfrwt>
<pdfrwt beam="2">  1       -2 0.10881173E+00 0.73822466E+03</pdfrwt>
<totfact> 0.98573471E+00</totfact>
</mgrwt>
</event>
<event>
 4    1  0.3057048E-007  0.9211751E+03  0.7818608E-02  0.9492860E-01
          2   -1    0    0  501    0  0.00000000000E+00  0.00000000000E+00  0.31868261765E+04  0.31868261765E+04  0.25500000000E-02 0. -1.
         -2   -1    0    0    0  501 -0.00000000000E+00 -0.00000000000E+00 -0.27276817096E+03  0.27276817098E+03  0.25500000000E-02 0.  1.
    8880023    1    1    2    0    0 -0.52348421704E+02 -0.64188245353E+03  0.72384724863E+03  0.11715453414E+04  0.65864270000E+03 0.  1.
    8880022    1    1    2    0    0  0.52348421704E+02  0.64188245353E+03  0.21902107569E+04  0.22880490061E+04  0.15294330000E+03 0.  0.
<mgrwt>
<rscale>  0 0.84812312E+03</rscale>
<asrwt>0</asrwt>
<pdfrwt beam="1">  1        2 0.49028095E+00 0.92117514E+03</pdfrwt>
<pdfrwt beam="2">  1       -2 0.41964334E-01 0.92117514E+03</pdfrwt>
<totfact> 0.74019844E+00</totfact>
</mgrwt>
</event>
<event>
 4    1  0.3057048E-007  0.1062405E+04  0.7818608E-02  0.9304115E-01
          2   -1    0    0  501    0  0.00000000000E+00  0.00000000000E+00  0.27821618782E+04  0.27821618782E+04  0.25500000000E-02 0. -1.
         -2   -1    0    0    0  501 -0.00000000000E+00 -0.00000000000E+00 -0.48029616482E+03  0.48029616483E+03  0.25500000000E-02 0.  1.
    8880023    1    1    2    0    0 -0.16977838479E+02  0.83343080111E+03  0.21545293119E+04  0.24022285298E+04  0.65864270000E+03 0.  0.
    8880022    1    1    2    0    0  0.16977838479E+02 -0.83343080111E+03  0.14733640149E+03  0.86022951325E+03  0.15294330000E+03 0.  0.
<mgrwt>
<rscale>  0 0.10040491E+04</rscale>
<asrwt>0</asrwt>
<pdfrwt beam="1">  1        2 0.42802490E+00 0.10624055E+04</pdfrwt>
<pdfrwt beam="2">  1       -2 0.73891718E-01 0.10624055E+04</pdfrwt>
<totfact> 0.39434020E+00</totfact>
</mgrwt>
</event>
<event>
 4    1  0.3057048E-007  0.7112094E+03  0.7818608E-02  0.9953537E-01
          2   -1    0    0  501    0  0.00000000000E+00  0.00000000000E+00  0.23505253957E+04  0.23505253957E+04  0.25500000000E-02 0. -1.
         -2   -1    0    0    0  501 -0.00000000000E+00 -0.00000000000E+00 -0.45662250334E+03  0.45662250335E+03  0.25500000000E-02 0.  1.
    8880023    1    1    2    0    0  0.26754598345E+03  0.20682606510E+02 -0.16096435618E+03  0.72919706095E+03  0.65864270000E+03 0.  1.
    8880022    1    1    2    0    0 -0.26754598345E+03 -0.20682606510E+02  0.20548672486E+04  0.20779508381E+04  0.15294330000E+03 0.  0.
<mgrwt>
<rscale>  0 0.57735353E+03</rscale>
<asrwt>0</asrwt>
<pdfrwt beam="1">  1        2 0.36161929E+00 0.71120941E+03</pdfrwt>
<pdfrwt beam="2">  1       -2 0.70249617E-01 0.71120941E+03</pdfrwt>
<totfact> 0.82312363E+00</totfact>
</mgrwt>
</event>
<event>
 4    1  0.3057048E-007  0.6909692E+03  0.7818608E-02  0.1003695E+00
         -2   -1    0    0    0  501 -0.00000000000E+00  0.00000000000E+00  0.67147548034E+03  0.67147548034E+03  0.25500000000E-02 0.  1.
          2   -1    0    0  501    0  0.00000000000E+00 -0.00000000000E+00 -0.16809309840E+04  0.16809309840E+04  0.25500000000E-02 0. -1.
    8880023    1    1    2    0    0  0.28545060753E+02 -0.20691397459E+03  0.47954287393E+03  0.84107061985E+03  0.65864270000E+03 0.  1.
    8880022    1    1    2    0    0 -0.28545060753E+02  0.20691397459E+03 -0.14889983776E+04  0.15113358445E+04  0.15294330000E+03 0.  0.
<mgrwt>
<rscale>  0 0.54059180E+03</rscale>
<asrwt>0</asrwt>
<pdfrwt beam="1">  1        2 0.25860477E+00 0.69096919E+03</pdfrwt>
<pdfrwt beam="2">  1       -2 0.10330392E+00 0.69096919E+03</pdfrwt>
<totfact> 0.79716616E+00</totfact>
</mgrwt>
</event>
<event>
 4    1  0.3057048E-007  0.8984914E+03  0.7818608E-02  0.9528458E-01
          2   -1    0    0  501    0  0.00000000000E+00  0.00000000000E+00  0.25060200511E+04  0.25060200511E+04  0.25500000000E-02 0. -1.
         -2   -1    0    0    0  501 -0.00000000000E+00 -0.00000000000E+00 -0.45656210328E+03  0.45656210329E+03  0.25500000000E-02 0.  1.
    8880023    1    1    2    0    0  0.97408296305E+02 -0.60331431896E+03  0.88410213687E+02  0.90283061302E+03  0.65864270000E+03 0.  0.
    8880022    1    1    2    0    0 -0.97408296305E+02  0.60331431896E+03  0.19610477342E+04  0.20597515414E+04  0.15294330000E+03 0.  0.
<mgrwt>
<rscale>  0 0.82217870E+03</rscale>
<asrwt>0</asrwt>
<pdfrwt beam="1">  1        2 0.38554155E+00 0.89849137E+03</pdfrwt>
<pdfrwt beam="2">  1       -2 0.70240324E-01 0.89849137E+03</pdfrwt>
<totfact> 0.65320747E+00</totfact>
</mgrwt>
</event>
<event>
 4    1  0.3057048E-007  0.7167419E+03  0.7818608E-02  0.9933769E-01
         -2   -1    0    0    0  501 -0.00000000000E+00  0.00000000000E+00  0.19762093500E+03  0.19762093501E+03  0.25500000000E-02 0.  1.
          2   -1    0    0  501    0  0.00000000000E+00 -0.00000000000E+00 -0.29454147532E+04  0.29454147532E+04  0.25500000000E-02 0. -1.
    8880023    1    1    2    0    0  0.23609870065E+03 -0.15545451622E+03 -0.50367506033E+03  0.87601796541E+03  0.65864270000E+03 0.  1.
    8880022    1    1    2    0    0 -0.23609870065E+03  0.15545451622E+03 -0.22441187579E+04  0.22670177228E+04  0.15294330000E+03 0.  0.
<mgrwt>
<rscale>  0 0.58652268E+03</rscale>
<asrwt>0</asrwt>
<pdfrwt beam="1">  1        2 0.45314070E+00 0.71674187E+03</pdfrwt>
<pdfrwt beam="2">  1       -2 0.30403223E-01 0.71674187E+03</pdfrwt>
<totfact> 0.20026831E+01</totfact>
</mgrwt>
</event>
<event>
 4    1  0.3057048E-007  0.8839447E+03  0.7818608E-02  0.9552313E-01
          2   -1    0    0  501    0  0.00000000000E+00  0.00000000000E+00  0.15790816565E+04  0.15790816565E+04  0.25500000000E-02 0. -1.
         -2   -1    0    0    0  501 -0.00000000000E+00 -0.00000000000E+00 -0.71636764431E+03  0.71636764431E+03  0.25500000000E-02 0.  1.
    8880023    1    1    2    0    0  0.51728665621E+03 -0.28277642040E+03  0.12811560402E+04  0.15565085912E+04  0.65864270000E+03 0. -1.
    8880022    1    1    2    0    0 -0.51728665621E+03  0.28277642040E+03 -0.41844202801E+03  0.73894070970E+03  0.15294330000E+03 0.  0.
<mgrwt>
<rscale>  0 0.80534454E+03</rscale>
<asrwt>0</asrwt>
<pdfrwt beam="1">  1        2 0.24293564E+00 0.88394468E+03</pdfrwt>
<pdfrwt beam="2">  1       -2 0.11021041E+00 0.88394468E+03</pdfrwt>
<totfact> 0.75561042E+00</totfact>
</mgrwt>
</event>
<event>
 4    1  0.3057048E-007  0.6607582E+03  0.7818608E-02  0.1023393E+00
         -2   -1    0    0    0  501 -0.00000000000E+00  0.00000000000E+00  0.57969941499E+03  0.57969941499E+03  0.25500000000E-02 0.  1.
          2   -1    0    0  501    0  0.00000000000E+00 -0.00000000000E+00 -0.19214952104E+04  0.19214952104E+04  0.25500000000E-02 0. -1.
    8880023    1    1    2    0    0  0.51970857554E+02  0.94970882585E+01  0.38639665862E+03  0.76544349810E+03  0.65864270000E+03 0.  1.
    8880022    1    1    2    0    0 -0.51970857554E+02 -0.94970882585E+01 -0.17281924540E+04  0.17357511273E+04  0.15294330000E+03 0.  0.
<mgrwt>
<rscale>  0 0.46481909E+03</rscale>
<asrwt>0</asrwt>
<pdfrwt beam="1">  1        2 0.29561464E+00 0.66075818E+03</pdfrwt>
<pdfrwt beam="2">  1       -2 0.89184526E-01 0.66075818E+03</pdfrwt>
<totfact> 0.83630868E+00</totfact>
</mgrwt>
</event>
<event>
 4    1  0.3406722E-007  0.8991022E+03  0.7818608E-02  0.9527474E-01
         -2   -1    0    0    0  501 -0.00000000000E+00  0.00000000000E+00  0.23080782110E+04  0.23080782110E+04  0.25500000000E-02 0.  1.
          2   -1    0    0  501    0  0.00000000000E+00 -0.00000000000E+00 -0.13859734096E+04  0.13859734096E+04  0.25500000000E-02 0. -1.
    8880023    1    1    2    0    0  0.14854165342E+03  0.59372540104E+03  0.21407001201E+04  0.23218487645E+04  0.65864270000E+03 0.  0.
    8880022    1    1    2    0    0 -0.14854165342E+03 -0.59372540104E+03 -0.12185953187E+04  0.13722028561E+04  0.15294330000E+03 0.  0.
<mgrwt>
<rscale>  0 0.82288196E+03</rscale>
<asrwt>0</asrwt>
<pdfrwt beam="1">  1        2 0.21322668E+00 0.89910215E+03</pdfrwt>
<pdfrwt beam="2">  1       -2 0.35508895E+00 0.89910215E+03</pdfrwt>
<totfact> 0.21983551E-01</totfact>
</mgrwt>
</event>
<event>
 4    1  0.3057048E-007  0.9611986E+03  0.7818608E-02  0.9434182E-01
         -2   -1    0    0    0  501 -0.00000000000E+00  0.00000000000E+00  0.27040126083E+03  0.27040126084E+03  0.25500000000E-02 0.  1.
          2   -1    0    0  501    0  0.00000000000E+00 -0.00000000000E+00 -0.40896968367E+04  0.40896968367E+04  0.25500000000E-02 0. -1.
    8880023    1    1    2    0    0 -0.27002081449E+03  0.64589568203E+03 -0.78114146768E+03  0.12385817176E+04  0.65864270000E+03 0.  0.
    8880022    1    1    2    0    0  0.27002081449E+03 -0.64589568203E+03 -0.30381541082E+04  0.31215163800E+04  0.15294330000E+03 0.  0.
<mgrwt>
<rscale>  0 0.89315269E+03</rscale>
<asrwt>0</asrwt>
<pdfrwt beam="1">  1        2 0.62918408E+00 0.96119856E+03</pdfrwt>
<pdfrwt beam="2">  1       -2 0.41600197E-01 0.96119856E+03</pdfrwt>
<totfact> 0.16846109E+00</totfact>
</mgrwt>
</event>
<event>
 4    1  0.3057048E-007  0.7277834E+03  0.7818608E-02  0.9897079E-01
          2   -1    0    0  501    0  0.00000000000E+00  0.00000000000E+00  0.19432604300E+04  0.19432604300E+04  0.25500000000E-02 0. -1.
         -2   -1    0    0    0  501 -0.00000000000E+00 -0.00000000000E+00 -0.23738289333E+03  0.23738289335E+03  0.25500000000E-02 0.  1.
    8880023    1    1    2    0    0 -0.22493611532E+03 -0.21274903983E+03  0.40120657477E+03  0.83104472312E+03  0.65864270000E+03 0.  1.
    8880022    1    1    2    0    0  0.22493611532E+03  0.21274903983E+03  0.13046709619E+04  0.13495986003E+04  0.15294330000E+03 0.  0.
<mgrwt>
<rscale>  0 0.60403057E+03</rscale>
<asrwt>0</asrwt>
<pdfrwt beam="1">  1        2 0.29896315E+00 0.72778336E+03</pdfrwt>
<pdfrwt beam="2">  1       -2 0.36520445E-01 0.72778336E+03</pdfrwt>
<totfact> 0.52307974E+01</totfact>
</mgrwt>
</event>
<event>
 4    1  0.3057048E-007  0.7087140E+03  0.7818608E-02  0.9962808E-01
         -2   -1    0    0    0  501 -0.00000000000E+00  0.00000000000E+00  0.41804133737E+03  0.41804133738E+03  0.25500000000E-02 0.  1.
          2   -1    0    0  501    0  0.00000000000E+00 -0.00000000000E+00 -0.92326854947E+03  0.92326854947E+03  0.25500000000E-02 0. -1.
    8880023    1    1    2    0    0  0.15775115025E+03 -0.20875815116E+03  0.48174952430E+02  0.71034950791E+03  0.65864270000E+03 0.  1.
    8880022    1    1    2    0    0 -0.15775115025E+03  0.20875815116E+03 -0.55340216453E+03  0.63096037895E+03  0.15294330000E+03 0.  0.
<mgrwt>
<rscale>  0 0.57311574E+03</rscale>
<asrwt>0</asrwt>
<pdfrwt beam="1">  1        2 0.14204132E+00 0.70871404E+03</pdfrwt>
<pdfrwt beam="2">  1       -2 0.64314052E-01 0.70871404E+03</pdfrwt>
<totfact> 0.64287377E+01</totfact>
</mgrwt>
</event>
<event>
 4    1  0.3057048E-007  0.6712651E+03  0.7818608E-02  0.1014772E+00
          2   -1    0    0  501    0  0.00000000000E+00  0.00000000000E+00  0.33356043067E+04  0.33356043067E+04  0.25500000000E-02 0. -1.
         -2   -1    0    0    0  501 -0.00000000000E+00 -0.00000000000E+00 -0.65847409963E+02  0.65847410012E+02  0.25500000000E-02 0.  1.
    8880023    1    1    2    0    0  0.12948056790E+03  0.46214686418E+01  0.18580943569E+04  0.19756293733E+04  0.65864270000E+03 0.  0.
    8880022    1    1    2    0    0 -0.12948056790E+03 -0.46214686418E+01  0.14116625399E+04  0.14258223434E+04  0.15294330000E+03 0.  0.
<mgrwt>
<rscale>  0 0.49621442E+03</rscale>
<asrwt>0</asrwt>
<pdfrwt beam="1">  1        2 0.51316969E+00 0.67126506E+03</pdfrwt>
<pdfrwt beam="2">  1       -2 0.10130375E-01 0.67126506E+03</pdfrwt>
<totfact> 0.76612627E+01</totfact>
</mgrwt>
</event>
<event>
 4    1  0.3057048E-007  0.6674654E+03  0.7818608E-02  0.1017549E+00
          2   -1    0    0  501    0  0.00000000000E+00  0.00000000000E+00  0.62200201234E+03  0.62200201235E+03  0.25500000000E-02 0. -1.
         -2   -1    0    0    0  501 -0.00000000000E+00 -0.00000000000E+00 -0.89747882884E+03  0.89747882884E+03  0.25500000000E-02 0.  1.
    8880023    1    1    2    0    0 -0.84764022755E+02  0.67192757564E+02 -0.75317192101E+03  0.10063686974E+04  0.65864270000E+03 0.  1.
    8880022    1    1    2    0    0  0.84764022755E+02 -0.67192757564E+02  0.47769510451E+03  0.51311214380E+03  0.15294330000E+03 0.  0.
<mgrwt>
<rscale>  0 0.48581591E+03</rscale>
<asrwt>0</asrwt>
<pdfrwt beam="1">  1        2 0.95692617E-01 0.66746536E+03</pdfrwt>
<pdfrwt beam="2">  1       -2 0.13807367E+00 0.66746536E+03</pdfrwt>
<totfact> 0.18064717E+01</totfact>
</mgrwt>
</event>
<event>
 4    1  0.3057048E-007  0.8343335E+03  0.7818608E-02  0.9640959E-01
         -2   -1    0    0    0  501 -0.00000000000E+00  0.00000000000E+00  0.10674229336E+04  0.10674229336E+04  0.25500000000E-02 0.  1.
          2   -1    0    0  501    0  0.00000000000E+00 -0.00000000000E+00 -0.12932679425E+04  0.12932679425E+04  0.25500000000E-02 0. -1.
    8880023    1    1    2    0    0 -0.62289842192E+01 -0.51211653507E+03  0.83024858629E+03  0.11770408094E+04  0.65864270000E+03 0.  0.
    8880022    1    1    2    0    0  0.62289842192E+01  0.51211653507E+03 -0.10560935952E+04  0.11836500668E+04  0.15294330000E+03 0. -1.
<mgrwt>
<rscale>  0 0.74643562E+03</rscale>
<asrwt>0</asrwt>
<pdfrwt beam="1">  1        2 0.19896430E+00 0.83433348E+03</pdfrwt>
<pdfrwt beam="2">  1       -2 0.16421891E+00 0.83433348E+03</pdfrwt>
<totfact> 0.39591459E+00</totfact>
</mgrwt>
</event>
<event>
 4    1  0.3057048E-007  0.7739603E+03  0.7818608E-02  0.9770220E-01
          2   -1    0    0  501    0  0.00000000000E+00  0.00000000000E+00  0.11171505596E+04  0.11171505596E+04  0.25500000000E-02 0. -1.
         -2   -1    0    0    0  501 -0.00000000000E+00 -0.00000000000E+00 -0.41583799575E+03  0.41583799576E+03  0.25500000000E-02 0.  1.
    8880023    1    1    2    0    0 -0.29574598980E+03 -0.27881647417E+03  0.84397567523E+02  0.77854831091E+03  0.65864270000E+03 0.  1.
    8880022    1    1    2    0    0  0.29574598980E+03  0.27881647417E+03  0.61691499636E+03  0.75444024449E+03  0.15294330000E+03 0. -1.
<mgrwt>
<rscale>  0 0.66985462E+03</rscale>
<asrwt>0</asrwt>
<pdfrwt beam="1">  1        2 0.17186932E+00 0.77396029E+03</pdfrwt>
<pdfrwt beam="2">  1       -2 0.63975075E-01 0.77396029E+03</pdfrwt>
<totfact> 0.48733038E+01</totfact>
</mgrwt>
</event>
<event>
 4    1  0.3057048E-007  0.8893829E+03  0.7818608E-02  0.9543295E-01
         -2   -1    0    0    0  501 -0.00000000000E+00  0.00000000000E+00  0.17200173710E+03  0.17200173712E+03  0.25500000000E-02 0.  1.
          2   -1    0    0  501    0  0.00000000000E+00 -0.00000000000E+00 -0.34502285042E+04  0.34502285042E+04  0.25500000000E-02 0. -1.
    8880023    1    1    2    0    0 -0.22669329450E+03 -0.55299353458E+03 -0.15478741973E+04  0.17851936690E+04  0.65864270000E+03 0.  1.
    8880022    1    1    2    0    0  0.22669329450E+03  0.55299353458E+03 -0.17303525698E+04  0.18370365723E+04  0.15294330000E+03 0.  0.
<mgrwt>
<rscale>  0 0.81165748E+03</rscale>
<asrwt>0</asrwt>
<pdfrwt beam="1">  1        2 0.53080433E+00 0.88938288E+03</pdfrwt>
<pdfrwt beam="2">  1       -2 0.26461808E-01 0.88938288E+03</pdfrwt>
<totfact> 0.11969426E+01</totfact>
</mgrwt>
</event>
<event>
 4    1  0.3057048E-007  0.7103865E+03  0.7818608E-02  0.9956569E-01
         -2   -1    0    0    0  501 -0.00000000000E+00  0.00000000000E+00  0.10570175817E+04  0.10570175817E+04  0.25500000000E-02 0.  1.
          2   -1    0    0  501    0  0.00000000000E+00 -0.00000000000E+00 -0.24956673827E+03  0.24956673829E+03  0.25500000000E-02 0. -1.
    8880023    1    1    2    0    0  0.23182448312E+03  0.13075224352E+03  0.64382598109E+03  0.95872876266E+03  0.65864270000E+03 0.  0.
    8880022    1    1    2    0    0 -0.23182448312E+03 -0.13075224352E+03  0.16362486229E+03  0.34785555729E+03  0.15294330000E+03 0. -1.
<mgrwt>
<rscale>  0 0.57596340E+03</rscale>
<asrwt>0</asrwt>
<pdfrwt beam="1">  1        2 0.38394882E-01 0.71038648E+03</pdfrwt>
<pdfrwt beam="2">  1       -2 0.16261809E+00 0.71038648E+03</pdfrwt>
<totfact> 0.32975838E+01</totfact>
</mgrwt>
</event>
<event>
 4    1  0.3057048E-007  0.1213732E+04  0.7818608E-02  0.9143888E-01
         -2   -1    0    0    0  501 -0.00000000000E+00  0.00000000000E+00  0.52909764546E+03  0.52909764546E+03  0.25500000000E-02 0.  1.
          2   -1    0    0  501    0  0.00000000000E+00 -0.00000000000E+00 -0.27355740245E+04  0.27355740245E+04  0.25500000000E-02 0. -1.
    8880023    1    1    2    0    0  0.85390245626E+03  0.55694424597E+03 -0.17677401144E+04  0.21443067915E+04  0.65864270000E+03 0.  0.
    8880022    1    1    2    0    0 -0.85390245626E+03 -0.55694424597E+03 -0.43873626468E+03  0.11203648785E+04  0.15294330000E+03 0.  0.
<mgrwt>
<rscale>  0 0.11651853E+04</rscale>
<asrwt>0</asrwt>
<pdfrwt beam="1">  1        2 0.42085753E+00 0.12137325E+04</pdfrwt>
<pdfrwt beam="2">  1       -2 0.81399640E-01 0.12137325E+04</pdfrwt>
<totfact> 0.33193886E+00</totfact>
</mgrwt>
</event>
<event>
 4    1  0.3057048E-007  0.1087859E+04  0.7818608E-02  0.9274695E-01
          2   -1    0    0  501    0  0.00000000000E+00  0.00000000000E+00  0.15552690437E+04  0.15552690437E+04  0.25500000000E-02 0. -1.
         -2   -1    0    0    0  501 -0.00000000000E+00 -0.00000000000E+00 -0.23675032141E+04  0.23675032141E+04  0.25500000000E-02 0.  1.
    8880023    1    1    2    0    0  0.43816347452E+02 -0.86470098733E+03  0.12642250832E+04  0.16678437988E+04  0.65864270000E+03 0.  0.
    8880022    1    1    2    0    0 -0.43816347452E+02  0.86470098733E+03 -0.20764592537E+04  0.22549284590E+04  0.15294330000E+03 0.  0.
<mgrwt>
<rscale>  0 0.10314623E+04</rscale>
<asrwt>0</asrwt>
<pdfrwt beam="1">  1        2 0.23927216E+00 0.10878593E+04</pdfrwt>
<pdfrwt beam="2">  1       -2 0.36423126E+00 0.10878593E+04</pdfrwt>
<totfact> 0.14922217E-01</totfact>
</mgrwt>
</event>
<event>
 4    1  0.3057048E-007  0.7180580E+03  0.7818608E-02  0.9929213E-01
         -2   -1    0    0    0  501 -0.00000000000E+00  0.00000000000E+00  0.74391005600E+03  0.74391005601E+03  0.25500000000E-02 0.  1.
          2   -1    0    0  501    0  0.00000000000E+00 -0.00000000000E+00 -0.67519421980E+03  0.67519421980E+03  0.25500000000E-02 0. -1.
    8880023    1    1    2    0    0 -0.28335689641E+03  0.38806078621E+02  0.50327004440E+03  0.87686258122E+03  0.65864270000E+03 0.  1.
    8880022    1    1    2    0    0  0.28335689641E+03 -0.38806078621E+02 -0.43455420820E+03  0.54224169459E+03  0.15294330000E+03 0.  0.
<mgrwt>
<rscale>  0 0.58866168E+03</rscale>
<asrwt>0</asrwt>
<pdfrwt beam="1">  1        2 0.10387603E+00 0.71805797E+03</pdfrwt>
<pdfrwt beam="2">  1       -2 0.11444770E+00 0.71805797E+03</pdfrwt>
<totfact> 0.26000176E+01</totfact>
</mgrwt>
</event>
<event>
 4    1  0.3057048E-007  0.7104646E+03  0.7818608E-02  0.9956280E-01
          2   -1    0    0  501    0  0.00000000000E+00  0.00000000000E+00  0.34579563430E+04  0.34579563430E+04  0.25500000000E-02 0. -1.
         -2   -1    0    0    0  501 -0.00000000000E+00 -0.00000000000E+00 -0.17355739991E+03  0.17355739993E+03  0.25500000000E-02 0.  1.
    8880023    1    1    2    0    0  0.26167691604E+03 -0.49749067047E+02  0.60093373932E+03  0.93052745439E+03  0.65864270000E+03 0.  1.
    8880022    1    1    2    0    0 -0.26167691604E+03  0.49749067047E+02  0.26834652038E+04  0.27009862886E+04  0.15294330000E+03 0.  0.
<mgrwt>
<rscale>  0 0.57609572E+03</rscale>
<asrwt>0</asrwt>
<pdfrwt beam="1">  1        2 0.53199331E+00 0.71046463E+03</pdfrwt>
<pdfrwt beam="2">  1       -2 0.26701137E-01 0.71046463E+03</pdfrwt>
<totfact> 0.12003558E+01</totfact>
</mgrwt>
</event>
<event>
 4    1  0.3057048E-007  0.7667181E+03  0.7818608E-02  0.9788016E-01
         -2   -1    0    0    0  501 -0.00000000000E+00  0.00000000000E+00  0.35654592249E+03  0.35654592250E+03  0.25500000000E-02 0.  1.
          2   -1    0    0  501    0  0.00000000000E+00 -0.00000000000E+00 -0.11937941036E+04  0.11937941036E+04  0.25500000000E-02 0. -1.
    8880023    1    1    2    0    0 -0.27322271446E+03  0.28177255803E+03 -0.21032152252E+03  0.79504199591E+03  0.65864270000E+03 0.  1.
    8880022    1    1    2    0    0  0.27322271446E+03 -0.28177255803E+03 -0.62692665858E+03  0.75529803019E+03  0.15294330000E+03 0.  0.
<mgrwt>
<rscale>  0 0.66009681E+03</rscale>
<asrwt>0</asrwt>
<pdfrwt beam="1">  1        2 0.18366063E+00 0.76671809E+03</pdfrwt>
<pdfrwt beam="2">  1       -2 0.54853219E-01 0.76671809E+03</pdfrwt>
<totfact> 0.60653811E+01</totfact>
</mgrwt>
</event>
<event>
 4    1  0.3057048E-007  0.6724767E+03  0.7818608E-02  0.1013946E+00
         -2   -1    0    0    0  501 -0.00000000000E+00  0.00000000000E+00  0.27240065822E+03  0.27240065823E+03  0.25500000000E-02 0.  1.
          2   -1    0    0  501    0  0.00000000000E+00 -0.00000000000E+00 -0.98800022552E+03  0.98800022552E+03  0.25500000000E-02 0. -1.
    8880023    1    1    2    0    0 -0.71565529541E+02  0.11529581951E+03 -0.19360720596E+03  0.69979190298E+03  0.65864270000E+03 0.  1.
    8880022    1    1    2    0    0  0.71565529541E+02 -0.11529581951E+03 -0.52199236133E+03  0.56060898077E+03  0.15294330000E+03 0.  0.
<mgrwt>
<rscale>  0 0.49935948E+03</rscale>
<asrwt>0</asrwt>
<pdfrwt beam="1">  1        2 0.15200003E+00 0.67247673E+03</pdfrwt>
<pdfrwt beam="2">  1       -2 0.41907794E-01 0.67247673E+03</pdfrwt>
<totfact> 0.14077142E+02</totfact>
</mgrwt>
</event>
<event>
 4    1  0.3057048E-007  0.7749994E+03  0.7818608E-02  0.9767717E-01
         -2   -1    0    0    0  501 -0.00000000000E+00  0.00000000000E+00  0.26765531607E+04  0.26765531607E+04  0.25500000000E-02 0.  1.
          2   -1    0    0  501    0  0.00000000000E+00 -0.00000000000E+00 -0.16896209118E+03  0.16896209119E+03  0.25500000000E-02 0. -1.
    8880023    1    1    2    0    0 -0.27412388948E+03 -0.30277039367E+03  0.93948212976E+03  0.12178878013E+04  0.65864270000E+03 0. -1.
    8880022    1    1    2    0    0  0.27412388948E+03  0.30277039367E+03  0.15681089398E+04  0.16276274506E+04  0.15294330000E+03 0.  0.
<mgrwt>
<rscale>  0 0.67124164E+03</rscale>
<asrwt>0</asrwt>
<pdfrwt beam="1">  1        2 0.25994170E-01 0.77499937E+03</pdfrwt>
<pdfrwt beam="2">  1       -2 0.41177737E+00 0.77499937E+03</pdfrwt>
<totfact> 0.13773693E+00</totfact>
</mgrwt>
</event>
<event>
 4    1  0.3057048E-007  0.7265499E+03  0.7818608E-02  0.9901016E-01
         -2   -1    0    0    0  501 -0.00000000000E+00  0.00000000000E+00  0.12583112388E+03  0.12583112390E+03  0.25500000000E-02 0.  1.
          2   -1    0    0  501    0  0.00000000000E+00 -0.00000000000E+00 -0.23425580669E+04  0.23425580669E+04  0.25500000000E-02 0. -1.
    8880023    1    1    2    0    0  0.16863451636E+03  0.25617752674E+03 -0.12931900174E+04  0.14833122236E+04  0.65864270000E+03 0.  0.
    8880022    1    1    2    0    0 -0.16863451636E+03 -0.25617752674E+03 -0.92353692557E+03  0.98507696715E+03  0.15294330000E+03 0.  0.
<mgrwt>
<rscale>  0 0.60212070E+03</rscale>
<asrwt>0</asrwt>
<pdfrwt beam="1">  1        2 0.36039352E+00 0.72654988E+03</pdfrwt>
<pdfrwt beam="2">  1       -2 0.19358636E-01 0.72654988E+03</pdfrwt>
<totfact> 0.10044450E+02</totfact>
</mgrwt>
</event>
<event>
 4    1  0.3057048E-007  0.6644091E+03  0.7818608E-02  0.1020034E+00
          2   -1    0    0  501    0  0.00000000000E+00  0.00000000000E+00  0.19423182518E+04  0.19423182518E+04  0.25500000000E-02 0. -1.
         -2   -1    0    0    0  501 -0.00000000000E+00 -0.00000000000E+00 -0.11564132720E+03  0.11564132722E+03  0.25500000000E-02 0.  1.
    8880023    1    1    2    0    0 -0.86604207227E+02 -0.11358071297E+02  0.92291004599E+03  0.11371905969E+04  0.65864270000E+03 0.  1.
    8880022    1    1    2    0    0  0.86604207227E+02  0.11358071297E+02  0.90376687865E+03  0.92076898213E+03  0.15294330000E+03 0.  0.
<mgrwt>
<rscale>  0 0.47674218E+03</rscale>
<asrwt>0</asrwt>
<pdfrwt beam="1">  1        2 0.29881817E+00 0.66440914E+03</pdfrwt>
<pdfrwt beam="2">  1       -2 0.17790975E-01 0.66440914E+03</pdfrwt>
<totfact> 0.19406391E+02</totfact>
</mgrwt>
</event>
<event>
 4    1  0.3057048E-007  0.1322493E+04  0.7818608E-02  0.9046375E-01
          2   -1    0    0  501    0  0.00000000000E+00  0.00000000000E+00  0.95056135178E+03  0.95056135178E+03  0.25500000000E-02 0. -1.
         -2   -1    0    0    0  501 -0.00000000000E+00 -0.00000000000E+00 -0.22115826351E+04  0.22115826351E+04  0.25500000000E-02 0.  1.
    8880023    1    1    2    0    0  0.88521428605E+03  0.72909032376E+03 -0.14798379354E+04  0.19846681218E+04  0.65864270000E+03 0.  1.
    8880022    1    1    2    0    0 -0.88521428605E+03 -0.72909032376E+03  0.21881665213E+03  0.11774758650E+04  0.15294330000E+03 0.  0.
<mgrwt>
<rscale>  0 0.12790133E+04</rscale>
<asrwt>0</asrwt>
<pdfrwt beam="1">  1        2 0.14624021E+00 0.13224928E+04</pdfrwt>
<pdfrwt beam="2">  1       -2 0.34024348E+00 0.13224928E+04</pdfrwt>
<totfact> 0.47056027E-01</totfact>
</mgrwt>
</event>
<event>
 4    1  0.3057048E-007  0.7819941E+03  0.7818608E-02  0.9751173E-01
          2   -1    0    0  501    0  0.00000000000E+00  0.00000000000E+00  0.70989784426E+03  0.70989784427E+03  0.25500000000E-02 0. -1.
         -2   -1    0    0    0  501 -0.00000000000E+00 -0.00000000000E+00 -0.20784579874E+04  0.20784579874E+04  0.25500000000E-02 0.  1.
    8880023    1    1    2    0    0 -0.41488871704E+03  0.74645331928E+02 -0.19226150461E+04  0.20755633922E+04  0.65864270000E+03 0.  1.
    8880022    1    1    2    0    0  0.41488871704E+03 -0.74645331928E+02  0.55405490304E+03  0.71279243943E+03  0.15294330000E+03 0.  0.
<mgrwt>
<rscale>  0 0.68049995E+03</rscale>
<asrwt>0</asrwt>
<pdfrwt beam="1">  1        2 0.10921505E+00 0.78199410E+03</pdfrwt>
<pdfrwt beam="2">  1       -2 0.31976277E+00 0.78199410E+03</pdfrwt>
<totfact> 0.10079331E+00</totfact>
</mgrwt>
</event>
<event>
 4    1  0.3057048E-007  0.8581255E+03  0.7818608E-02  0.9596907E-01
         -2   -1    0    0    0  501 -0.00000000000E+00  0.00000000000E+00  0.75530627782E+03  0.75530627782E+03  0.25500000000E-02 0.  1.
          2   -1    0    0  501    0  0.00000000000E+00 -0.00000000000E+00 -0.11542086931E+04  0.11542086931E+04  0.25500000000E-02 0. -1.
    8880023    1    1    2    0    0 -0.50889608955E+03  0.20879155083E+03  0.38434753286E+03  0.94026718221E+03  0.65864270000E+03 0.  1.
    8880022    1    1    2    0    0  0.50889608955E+03 -0.20879155083E+03 -0.78324994817E+03  0.96924778874E+03  0.15294330000E+03 0.  0.
<mgrwt>
<rscale>  0 0.77501261E+03</rscale>
<asrwt>0</asrwt>
<pdfrwt beam="1">  1        2 0.17757057E+00 0.85812548E+03</pdfrwt>
<pdfrwt beam="2">  1       -2 0.11620097E+00 0.85812548E+03</pdfrwt>
<totfact> 0.11679312E+01</totfact>
</mgrwt>
</event>
<event>
 4    1  0.3057048E-007  0.7912870E+03  0.7818608E-02  0.9729962E-01
          2   -1    0    0  501    0  0.00000000000E+00  0.00000000000E+00  0.31472348197E+04  0.31472348197E+04  0.25500000000E-02 0. -1.
         -2   -1    0    0    0  501 -0.00000000000E+00 -0.00000000000E+00 -0.22488358137E+03  0.22488358138E+03  0.25500000000E-02 0.  1.
    8880023    1    1    2    0    0  0.33777075800E+03  0.27970654676E+03  0.57216254208E+03  0.97647581542E+03  0.65864270000E+03 0.  1.
    8880022    1    1    2    0    0 -0.33777075800E+03 -0.27970654676E+03  0.23501886962E+04  0.23956425856E+04  0.15294330000E+03 0.  0.
<mgrwt>
<rscale>  0 0.69260548E+03</rscale>
<asrwt>0</asrwt>
<pdfrwt beam="1">  1        2 0.48418995E+00 0.79128695E+03</pdfrwt>
<pdfrwt beam="2">  1       -2 0.34597476E-01 0.79128695E+03</pdfrwt>
<totfact> 0.11640700E+01</totfact>
</mgrwt>
</event>
<event>
 4    1  0.3057048E-007  0.7289594E+03  0.7818608E-02  0.9893360E-01
         -2   -1    0    0    0  501 -0.00000000000E+00  0.00000000000E+00  0.22576852246E+03  0.22576852248E+03  0.25500000000E-02 0.  1.
          2   -1    0    0  501    0  0.00000000000E+00 -0.00000000000E+00 -0.12879830734E+04  0.12879830734E+04  0.25500000000E-02 0. -1.
    8880023    1    1    2    0    0  0.25682257196E+03  0.17780258550E+03 -0.75864933970E+03  0.10521077035E+04  0.65864270000E+03 0.  0.
    8880022    1    1    2    0    0 -0.25682257196E+03 -0.17780258550E+03 -0.30356521122E+03  0.46164389236E+03  0.15294330000E+03 0. -1.
<mgrwt>
<rscale>  0 0.60584173E+03</rscale>
<asrwt>0</asrwt>
<pdfrwt beam="1">  1        2 0.19815124E+00 0.72895939E+03</pdfrwt>
<pdfrwt beam="2">  1       -2 0.34733620E-01 0.72895939E+03</pdfrwt>
<totfact> 0.13269787E+02</totfact>
</mgrwt>
</event>
<event>
 4    1  0.3057048E-007  0.7278422E+03  0.7818608E-02  0.9896892E-01
         -2   -1    0    0    0  501 -0.00000000000E+00  0.00000000000E+00  0.25503403774E+03  0.25503403776E+03  0.25500000000E-02 0.  1.
          2   -1    0    0  501    0  0.00000000000E+00 -0.00000000000E+00 -0.12893450852E+04  0.12893450852E+04  0.25500000000E-02 0. -1.
    8880023    1    1    2    0    0 -0.28842345802E+02 -0.30840260295E+03 -0.42196956071E+03  0.84131597087E+03  0.65864270000E+03 0.  1.
    8880022    1    1    2    0    0  0.28842345802E+02  0.30840260295E+03 -0.61234148676E+03  0.70306315209E+03  0.15294330000E+03 0. -1.
<mgrwt>
<rscale>  0 0.60412140E+03</rscale>
<asrwt>0</asrwt>
<pdfrwt beam="1">  1        2 0.19836078E+00 0.72784219E+03</pdfrwt>
<pdfrwt beam="2">  1       -2 0.39236006E-01 0.72784219E+03</pdfrwt>
<totfact> 0.10481078E+02</totfact>
</mgrwt>
</event>
<event>
 4    1  0.3057048E-007  0.1283040E+04  0.7818608E-02  0.9080346E-01
          2   -1    0    0  501    0  0.00000000000E+00  0.00000000000E+00  0.29137262116E+04  0.29137262116E+04  0.25500000000E-02 0. -1.
         -2   -1    0    0    0  501 -0.00000000000E+00 -0.00000000000E+00 -0.89597055108E+03  0.89597055108E+03  0.25500000000E-02 0.  1.
    8880023    1    1    2    0    0 -0.16562815480E+03 -0.10885532513E+04 -0.22867655571E+03  0.13032590073E+04  0.65864270000E+03 0.  0.
    8880022    1    1    2    0    0  0.16562815480E+03  0.10885532513E+04  0.22464322163E+04  0.25064377555E+04  0.15294330000E+03 0.  0.
<mgrwt>
<rscale>  0 0.12378625E+04</rscale>
<asrwt>0</asrwt>
<pdfrwt beam="1">  1        2 0.44826558E+00 0.12830398E+04</pdfrwt>
<pdfrwt beam="2">  1       -2 0.13784162E+00 0.12830398E+04</pdfrwt>
<totfact> 0.71732725E-01</totfact>
</mgrwt>
</event>
<event>
 4    1  0.3057048E-007  0.7423909E+03  0.7818608E-02  0.9853036E-01
         -2   -1    0    0    0  501 -0.00000000000E+00  0.00000000000E+00  0.40087089479E+03  0.40087089480E+03  0.25500000000E-02 0.  1.
          2   -1    0    0  501    0  0.00000000000E+00 -0.00000000000E+00 -0.93368081586E+03  0.93368081586E+03  0.25500000000E-02 0. -1.
    8880023    1    1    2    0    0 -0.19476383856E+03 -0.28178208346E+03 -0.59864077765E+03  0.95368500161E+03  0.65864270000E+03 0. -1.
    8880022    1    1    2    0    0  0.19476383856E+03  0.28178208346E+03  0.65830856583E+02  0.38086670905E+03  0.15294330000E+03 0.  0.
<mgrwt>
<rscale>  0 0.62592341E+03</rscale>
<asrwt>0</asrwt>
<pdfrwt beam="1">  1        2 0.14364320E+00 0.74239094E+03</pdfrwt>
<pdfrwt beam="2">  1       -2 0.61672446E-01 0.74239094E+03</pdfrwt>
<totfact> 0.69007610E+01</totfact>
</mgrwt>
</event>
<event>
 4    1  0.3057048E-007  0.7008606E+03  0.7818608E-02  0.9993650E-01
          2   -1    0    0  501    0  0.00000000000E+00  0.00000000000E+00  0.34057078467E+04  0.34057078467E+04  0.25500000000E-02 0. -1.
         -2   -1    0    0    0  501 -0.00000000000E+00 -0.00000000000E+00 -0.75368654726E+02  0.75368654769E+02  0.25500000000E-02 0.  1.
    8880023    1    1    2    0    0 -0.22560716862E+03 -0.80602573229E+02  0.19591630610E+04  0.20807511805E+04  0.65864270000E+03 0.  1.
    8880022    1    1    2    0    0  0.22560716862E+03  0.80602573229E+02  0.13711761310E+04  0.14003253209E+04  0.15294330000E+03 0. -1.
<mgrwt>
<rscale>  0 0.55929564E+03</rscale>
<asrwt>0</asrwt>
<pdfrwt beam="1">  1        2 0.52395510E+00 0.70086060E+03</pdfrwt>
<pdfrwt beam="2">  1       -2 0.11595177E-01 0.70086060E+03</pdfrwt>
<totfact> 0.54950238E+01</totfact>
</mgrwt>
</event>
<event>
 4    1  0.3057048E-007  0.8465895E+03  0.7818608E-02  0.9617878E-01
         -2   -1    0    0    0  501 -0.00000000000E+00  0.00000000000E+00  0.32541111659E+03  0.32541111660E+03  0.25500000000E-02 0.  1.
          2   -1    0    0  501    0  0.00000000000E+00 -0.00000000000E+00 -0.15264187540E+04  0.15264187540E+04  0.25500000000E-02 0. -1.
    8880023    1    1    2    0    0  0.99750181607E+02 -0.52244949934E+03 -0.61941515159E+03  0.10489942394E+04  0.65864270000E+03 0.  1.
    8880022    1    1    2    0    0 -0.99750181607E+02  0.52244949934E+03 -0.58159248583E+03  0.80283563117E+03  0.15294330000E+03 0. -1.
<mgrwt>
<rscale>  0 0.76124103E+03</rscale>
<asrwt>0</asrwt>
<pdfrwt beam="1">  1        2 0.23483365E+00 0.84658950E+03</pdfrwt>
<pdfrwt beam="2">  1       -2 0.50063250E-01 0.84658950E+03</pdfrwt>
<totfact> 0.46873100E+01</totfact>
</mgrwt>
</event>
<event>
 4    1  0.3057048E-007  0.7974731E+03  0.7818608E-02  0.9716287E-01
          2   -1    0    0  501    0  0.00000000000E+00  0.00000000000E+00  0.13427530425E+04  0.13427530425E+04  0.25500000000E-02 0. -1.
         -2   -1    0    0    0  501 -0.00000000000E+00 -0.00000000000E+00 -0.73260648554E+03  0.73260648554E+03  0.25500000000E-02 0.  1.
    8880023    1    1    2    0    0 -0.44011009812E+03 -0.91957744556E+02 -0.44859083884E+03  0.91498473878E+03  0.65864270000E+03 0.  1.
    8880022    1    1    2    0    0  0.44011009812E+03  0.91957744556E+02  0.10587373958E+04  0.11603747892E+04  0.15294330000E+03 0.  0.
<mgrwt>
<rscale>  0 0.70055321E+03</rscale>
<asrwt>0</asrwt>
<pdfrwt beam="1">  1        2 0.20657739E+00 0.79747309E+03</pdfrwt>
<pdfrwt beam="2">  1       -2 0.11270869E+00 0.79747309E+03</pdfrwt>
<totfact> 0.98220788E+00</totfact>
</mgrwt>
</event>
<event>
 4    1  0.3057048E-007  0.7701246E+03  0.7818608E-02  0.9779568E-01
          2   -1    0    0  501    0  0.00000000000E+00  0.00000000000E+00  0.28233775295E+04  0.28233775295E+04  0.25500000000E-02 0. -1.
         -2   -1    0    0    0  501 -0.00000000000E+00 -0.00000000000E+00 -0.30742956461E+03  0.30742956462E+03  0.25500000000E-02 0.  1.
    8880023    1    1    2    0    0  0.39907481595E+03  0.45749503527E+01  0.22783617641E+03  0.80311964765E+03  0.65864270000E+03 0.  1.
    8880022    1    1    2    0    0 -0.39907481595E+03 -0.45749503527E+01  0.22881117885E+04  0.23276874465E+04  0.15294330000E+03 0.  0.
<mgrwt>
<rscale>  0 0.66470679E+03</rscale>
<asrwt>0</asrwt>
<pdfrwt beam="1">  1        2 0.43436578E+00 0.77012456E+03</pdfrwt>
<pdfrwt beam="2">  1       -2 0.47296856E-01 0.77012456E+03</pdfrwt>
<totfact> 0.99966041E+00</totfact>
</mgrwt>
</event>
<event>
 4    1  0.3057048E-007  0.7255150E+03  0.7818608E-02  0.9904348E-01
          2   -1    0    0  501    0  0.00000000000E+00  0.00000000000E+00  0.22892368529E+04  0.22892368529E+04  0.25500000000E-02 0. -1.
         -2   -1    0    0    0  501 -0.00000000000E+00 -0.00000000000E+00 -0.23841780334E+03  0.23841780335E+03  0.25500000000E-02 0.  1.
    8880023    1    1    2    0    0 -0.68677371707E+02  0.29638701384E+03  0.37329276669E+03  0.81591638008E+03  0.65864270000E+03 0.  1.
    8880022    1    1    2    0    0  0.68677371707E+02 -0.29638701384E+03  0.16775262829E+04  0.17117382762E+04  0.15294330000E+03 0.  0.
<mgrwt>
<rscale>  0 0.60051006E+03</rscale>
<asrwt>0</asrwt>
<pdfrwt beam="1">  1        2 0.35219029E+00 0.72551502E+03</pdfrwt>
<pdfrwt beam="2">  1       -2 0.36679662E-01 0.72551502E+03</pdfrwt>
<totfact> 0.33521817E+01</totfact>
</mgrwt>
</event>
<event>
 4    1  0.3057048E-007  0.7206566E+03  0.7818608E-02  0.9920370E-01
         -2   -1    0    0    0  501 -0.00000000000E+00  0.00000000000E+00  0.54826491918E+03  0.54826491918E+03  0.25500000000E-02 0.  1.
          2   -1    0    0  501    0  0.00000000000E+00 -0.00000000000E+00 -0.91167997660E+03  0.91167997660E+03  0.25500000000E-02 0. -1.
    8880023    1    1    2    0    0 -0.19568379629E+03  0.21735589732E+03  0.25048790464E+03  0.76294831467E+03  0.65864270000E+03 0.  1.
    8880022    1    1    2    0    0  0.19568379629E+03 -0.21735589732E+03 -0.61390296207E+03  0.69699658111E+03  0.15294330000E+03 0.  0.
<mgrwt>
<rscale>  0 0.59284125E+03</rscale>
<asrwt>0</asrwt>
<pdfrwt beam="1">  1        2 0.14025846E+00 0.72065660E+03</pdfrwt>
<pdfrwt beam="2">  1       -2 0.84348449E-01 0.72065660E+03</pdfrwt>
<totfact> 0.35933746E+01</totfact>
</mgrwt>
</event>
<event>
 4    1  0.3057048E-007  0.6764671E+03  0.7818608E-02  0.1011397E+00
         -2   -1    0    0    0  501 -0.00000000000E+00  0.00000000000E+00  0.41638712380E+03  0.41638712381E+03  0.25500000000E-02 0.  1.
          2   -1    0    0  501    0  0.00000000000E+00 -0.00000000000E+00 -0.66244938675E+03  0.66244938676E+03  0.25500000000E-02 0. -1.
    8880023    1    1    2    0    0 -0.36295772351E+02 -0.14993383962E+03  0.86123832982E+02  0.68192745965E+03  0.65864270000E+03 0.  1.
    8880022    1    1    2    0    0  0.36295772351E+02  0.14993383962E+03 -0.33218609594E+03  0.39690905092E+03  0.15294330000E+03 0.  0.
<mgrwt>
<rscale>  0 0.50923158E+03</rscale>
<asrwt>0</asrwt>
<pdfrwt beam="1">  1        2 0.10191529E+00 0.67646711E+03</pdfrwt>
<pdfrwt beam="2">  1       -2 0.64059557E-01 0.67646711E+03</pdfrwt>
<totfact> 0.10054511E+02</totfact>
</mgrwt>
</event>
<event>
 4    1  0.3057048E-007  0.6910379E+03  0.7818608E-02  0.1003663E+00
          2   -1    0    0  501    0  0.00000000000E+00  0.00000000000E+00  0.10861892690E+04  0.10861892690E+04  0.25500000000E-02 0. -1.
         -2   -1    0    0    0  501 -0.00000000000E+00 -0.00000000000E+00 -0.76955112830E+03  0.76955112830E+03  0.25500000000E-02 0.  1.
    8880023    1    1    2    0    0 -0.14924547260E+03 -0.14645448879E+03 -0.59258831581E+03  0.91032645061E+03  0.65864270000E+03 0.  1.
    8880022    1    1    2    0    0  0.14924547260E+03  0.14645448879E+03  0.90922645648E+03  0.94541394667E+03  0.15294330000E+03 0.  0.
<mgrwt>
<rscale>  0 0.54072775E+03</rscale>
<asrwt>0</asrwt>
<pdfrwt beam="1">  1        2 0.16710604E+00 0.69103787E+03</pdfrwt>
<pdfrwt beam="2">  1       -2 0.11839248E+00 0.69103787E+03</pdfrwt>
<totfact> 0.12510792E+01</totfact>
</mgrwt>
</event>
<event>
 4    1  0.3057048E-007  0.8310076E+03  0.7818608E-02  0.9647375E-01
          2   -1    0    0  501    0  0.00000000000E+00  0.00000000000E+00  0.58295796809E+03  0.58295796810E+03  0.25500000000E-02 0. -1.
         -2   -1    0    0    0  501 -0.00000000000E+00 -0.00000000000E+00 -0.16731789658E+04  0.16731789658E+04  0.25500000000E-02 0.  1.
    8880023    1    1    2    0    0  0.49872364822E+03 -0.89656138917E+02 -0.14107797526E+04  0.16373372337E+04  0.65864270000E+03 0.  1.
    8880022    1    1    2    0    0 -0.49872364822E+03  0.89656138917E+02  0.32055875487E+03  0.61879970013E+03  0.15294330000E+03 0.  0.
<mgrwt>
<rscale>  0 0.74238398E+03</rscale>
<asrwt>0</asrwt>
<pdfrwt beam="1">  1        2 0.89685842E-01 0.83100765E+03</pdfrwt>
<pdfrwt beam="2">  1       -2 0.25741215E+00 0.83100765E+03</pdfrwt>
<totfact> 0.30315697E+00</totfact>
</mgrwt>
</event>
<event>
 4    1  0.3057048E-007  0.7173993E+03  0.7818608E-02  0.9931486E-01
          2   -1    0    0  501    0  0.00000000000E+00  0.00000000000E+00  0.13928153022E+04  0.13928153022E+04  0.25500000000E-02 0. -1.
         -2   -1    0    0    0  501 -0.00000000000E+00 -0.00000000000E+00 -0.30228585991E+03  0.30228585992E+03  0.25500000000E-02 0.  1.
    8880023    1    1    2    0    0  0.99372579658E+02 -0.26641451820E+03  0.19541559598E+03  0.74353820783E+03  0.65864270000E+03 0.  1.
    8880022    1    1    2    0    0 -0.99372579658E+02  0.26641451820E+03  0.89511384633E+03  0.95156295430E+03  0.15294330000E+03 0.  0.
<mgrwt>
<rscale>  0 0.58759315E+03</rscale>
<asrwt>0</asrwt>
<pdfrwt beam="1">  1        2 0.21427928E+00 0.71739934E+03</pdfrwt>
<pdfrwt beam="2">  1       -2 0.46505516E-01 0.71739934E+03</pdfrwt>
<totfact> 0.65472350E+01</totfact>
</mgrwt>
</event>
<event>
 4    1  0.3057048E-007  0.7865801E+03  0.7818608E-02  0.9740601E-01
          2   -1    0    0  501    0  0.00000000000E+00  0.00000000000E+00  0.16012526183E+04  0.16012526183E+04  0.25500000000E-02 0. -1.
         -2   -1    0    0    0  501 -0.00000000000E+00 -0.00000000000E+00 -0.59982496467E+03  0.59982496468E+03  0.25500000000E-02 0.  1.
    8880023    1    1    2    0    0 -0.28401732381E+03  0.32285004584E+03 -0.28458830975E+03  0.83647994873E+03  0.65864270000E+03 0.  0.
    8880022    1    1    2    0    0  0.28401732381E+03 -0.32285004584E+03  0.12860159634E+04  0.13645976343E+04  0.15294330000E+03 0.  0.
<mgrwt>
<rscale>  0 0.68650019E+03</rscale>
<asrwt>0</asrwt>
<pdfrwt beam="1">  1        2 0.24634656E+00 0.78658006E+03</pdfrwt>
<pdfrwt beam="2">  1       -2 0.92280764E-01 0.78658006E+03</pdfrwt>
<totfact> 0.11342534E+01</totfact>
</mgrwt>
</event>
<event>
 4    1  0.3057048E-007  0.7802201E+03  0.7818608E-02  0.9755320E-01
         -2   -1    0    0    0  501 -0.00000000000E+00  0.00000000000E+00  0.31210866302E+03  0.31210866303E+03  0.25500000000E-02 0.  1.
          2   -1    0    0  501    0  0.00000000000E+00 -0.00000000000E+00 -0.27041607763E+04  0.27041607763E+04  0.25500000000E-02 0. -1.
    8880023    1    1    2    0    0 -0.62372603481E+02  0.41357332352E+03 -0.23661855554E+03  0.81531085034E+03  0.65864270000E+03 0.  1.
    8880022    1    1    2    0    0  0.62372603481E+02 -0.41357332352E+03 -0.21554335577E+04  0.22009585890E+04  0.15294330000E+03 0.  0.
<mgrwt>
<rscale>  0 0.67816444E+03</rscale>
<asrwt>0</asrwt>
<pdfrwt beam="1">  1        2 0.41602472E+00 0.78022012E+03</pdfrwt>
<pdfrwt beam="2">  1       -2 0.48016719E-01 0.78022012E+03</pdfrwt>
<totfact> 0.11377144E+01</totfact>
</mgrwt>
</event>
<event>
 4    1  0.3057048E-007  0.1052808E+04  0.7818608E-02  0.9315514E-01
         -2   -1    0    0    0  501 -0.00000000000E+00  0.00000000000E+00  0.10287358723E+04  0.10287358723E+04  0.25500000000E-02 0.  1.
          2   -1    0    0  501    0  0.00000000000E+00 -0.00000000000E+00 -0.25164064324E+04  0.25164064324E+04  0.25500000000E-02 0. -1.
    8880023    1    1    2    0    0  0.64299001728E+03  0.51103574572E+03  0.65871208976E+03  0.12418959373E+04  0.65864270000E+03 0.  0.
    8880022    1    1    2    0    0 -0.64299001728E+03 -0.51103574572E+03 -0.21463826499E+04  0.23032463673E+04  0.15294330000E+03 0.  0.
<mgrwt>
<rscale>  0 0.99367086E+03</rscale>
<asrwt>0</asrwt>
<pdfrwt beam="1">  1        2 0.38713945E+00 0.10528076E+04</pdfrwt>
<pdfrwt beam="2">  1       -2 0.15826706E+00 0.10528076E+04</pdfrwt>
<totfact> 0.88161890E-01</totfact>
</mgrwt>
</event>
<event>
 4    1  0.3057048E-007  0.7819054E+03  0.7818608E-02  0.9751380E-01
          2   -1    0    0  501    0  0.00000000000E+00  0.00000000000E+00  0.90739665838E+03  0.90739665838E+03  0.25500000000E-02 0. -1.
         -2   -1    0    0    0  501 -0.00000000000E+00 -0.00000000000E+00 -0.66457310510E+03  0.66457310511E+03  0.25500000000E-02 0.  1.
    8880023    1    1    2    0    0  0.41668389000E+03  0.62772306666E+02 -0.32650431039E+03  0.84733765267E+03  0.65864270000E+03 0.  0.
    8880022    1    1    2    0    0 -0.41668389000E+03 -0.62772306666E+02  0.56932786367E+03  0.72463211082E+03  0.15294330000E+03 0.  0.
<mgrwt>
<rscale>  0 0.68038335E+03</rscale>
<asrwt>0</asrwt>
<pdfrwt beam="1">  1        2 0.13959949E+00 0.78190539E+03</pdfrwt>
<pdfrwt beam="2">  1       -2 0.10224202E+00 0.78190539E+03</pdfrwt>
<totfact> 0.22989180E+01</totfact>
</mgrwt>
</event>
<event>
 4    1  0.3057048E-007  0.7139386E+03  0.7818608E-02  0.9943656E-01
         -2   -1    0    0    0  501 -0.00000000000E+00  0.00000000000E+00  0.85242842095E+03  0.85242842095E+03  0.25500000000E-02 0.  1.
          2   -1    0    0  501    0  0.00000000000E+00 -0.00000000000E+00 -0.10293051693E+04  0.10293051693E+04  0.25500000000E-02 0. -1.
    8880023    1    1    2    0    0 -0.68590892565E+02  0.26682093441E+03  0.66941392472E+03  0.97868448974E+03  0.65864270000E+03 0.  0.
    8880022    1    1    2    0    0  0.68590892565E+02 -0.26682093441E+03 -0.84629067306E+03  0.90304910050E+03  0.15294330000E+03 0.  0.
<mgrwt>
<rscale>  0 0.58191388E+03</rscale>
<asrwt>0</asrwt>
<pdfrwt beam="1">  1        2 0.15835464E+00 0.71393860E+03</pdfrwt>
<pdfrwt beam="2">  1       -2 0.13114283E+00 0.71393860E+03</pdfrwt>
<totfact> 0.10475232E+01</totfact>
</mgrwt>
</event>
<event>
 4    1  0.3057048E-007  0.6673555E+03  0.7818608E-02  0.1017634E+00
         -2   -1    0    0    0  501 -0.00000000000E+00  0.00000000000E+00  0.21062325688E+03  0.21062325689E+03  0.25500000000E-02 0.  1.
          2   -1    0    0  501    0  0.00000000000E+00 -0.00000000000E+00 -0.87574643995E+03  0.87574643995E+03  0.25500000000E-02 0. -1.
    8880023    1    1    2    0    0 -0.26386938735E+02 -0.10419612678E+03 -0.47067341135E+03  0.81663747758E+03  0.65864270000E+03 0.  0.
    8880022    1    1    2    0    0  0.26386938735E+02  0.10419612678E+03 -0.19444977172E+03  0.26973221926E+03  0.15294330000E+03 0. -1.
<mgrwt>
<rscale>  0 0.48550160E+03</rscale>
<asrwt>0</asrwt>
<pdfrwt beam="1">  1        2 0.13473022E+00 0.66735546E+03</pdfrwt>
<pdfrwt beam="2">  1       -2 0.32403578E-01 0.66735546E+03</pdfrwt>
<totfact> 0.27348767E+02</totfact>
</mgrwt>
</event>
<event>
 4    1  0.3384265E-007  0.8390528E+03  0.7818608E-02  0.9631969E-01
          2   -1    0    0  501    0  0.00000000000E+00  0.00000000000E+00  0.21124257852E+04  0.21124257852E+04  0.25500000000E-02 0. -1.
         -2   -1    0    0    0  501 -0.00000000000E+00 -0.00000000000E+00 -0.82375296997E+03  0.82375296997E+03  0.25500000000E-02 0.  1.
    8880023    1    1    2    0    0  0.59826881561E+02  0.51635268214E+03 -0.56063994887E+03  0.10091217502E+04  0.65864270000E+03 0.  1.
    8880022    1    1    2    0    0 -0.59826881561E+02 -0.51635268214E+03  0.18493127640E+04  0.19270570050E+04  0.15294330000E+03 0.  0.
<mgrwt>
<rscale>  0 0.75215925E+03</rscale>
<asrwt>0</asrwt>
<pdfrwt beam="1">  1        2 0.32498858E+00 0.83905277E+03</pdfrwt>
<pdfrwt beam="2">  1       -2 0.12673123E+00 0.83905277E+03</pdfrwt>
<totfact> 0.27426289E+00</totfact>
</mgrwt>
</event>
<event>
 4    1  0.3057048E-007  0.6679802E+03  0.7818608E-02  0.1017154E+00
          2   -1    0    0  501    0  0.00000000000E+00  0.00000000000E+00  0.29353247644E+04  0.29353247644E+04  0.25500000000E-02 0. -1.
         -2   -1    0    0    0  501 -0.00000000000E+00 -0.00000000000E+00 -0.80149712877E+02  0.80149712917E+02  0.25500000000E-02 0.  1.
    8880023    1    1    2    0    0 -0.56656070601E+02  0.95798717604E+02  0.14361174533E+04  0.15838657931E+04  0.65864270000E+03 0.  1.
    8880022    1    1    2    0    0  0.56656070601E+02 -0.95798717604E+02  0.14190575982E+04  0.14316086842E+04  0.15294330000E+03 0.  0.
<mgrwt>
<rscale>  0 0.48727725E+03</rscale>
<asrwt>0</asrwt>
<pdfrwt beam="1">  1        2 0.45158842E+00 0.66798017E+03</pdfrwt>
<pdfrwt beam="2">  1       -2 0.12330725E-01 0.66798017E+03</pdfrwt>
<totfact> 0.98936567E+01</totfact>
</mgrwt>
</event>
<event>
 4    1  0.3057048E-007  0.8366861E+03  0.7818608E-02  0.9636461E-01
          2   -1    0    0  501    0  0.00000000000E+00  0.00000000000E+00  0.14381506514E+04  0.14381506514E+04  0.25500000000E-02 0. -1.
         -2   -1    0    0    0  501 -0.00000000000E+00 -0.00000000000E+00 -0.68382510773E+03  0.68382510773E+03  0.25500000000E-02 0.  1.
    8880023    1    1    2    0    0 -0.10399586499E+03  0.50538929707E+03 -0.33948849351E+03  0.90293749785E+03  0.65864270000E+03 0.  1.
    8880022    1    1    2    0    0  0.10399586499E+03 -0.50538929707E+03  0.10938140372E+04  0.12190382613E+04  0.15294330000E+03 0.  0.
<mgrwt>
<rscale>  0 0.74929263E+03</rscale>
<asrwt>0</asrwt>
<pdfrwt beam="1">  1        2 0.22125395E+00 0.83668613E+03</pdfrwt>
<pdfrwt beam="2">  1       -2 0.10520386E+00 0.83668613E+03</pdfrwt>
<totfact> 0.10194616E+01</totfact>
</mgrwt>
</event>
<event>
 4    1  0.3057048E-007  0.8370564E+03  0.7818608E-02  0.9635756E-01
          2   -1    0    0  501    0  0.00000000000E+00  0.00000000000E+00  0.10872518164E+04  0.10872518164E+04  0.25500000000E-02 0. -1.
         -2   -1    0    0    0  501 -0.00000000000E+00 -0.00000000000E+00 -0.88125868511E+03  0.88125868512E+03  0.25500000000E-02 0.  1.
    8880023    1    1    2    0    0 -0.35126148838E+03 -0.37877240819E+03 -0.57802016545E+03  0.10172367907E+04  0.65864270000E+03 0.  1.
    8880022    1    1    2    0    0  0.35126148838E+03  0.37877240819E+03  0.78401329671E+03  0.95127371080E+03  0.15294330000E+03 0.  0.
<mgrwt>
<rscale>  0 0.74974157E+03</rscale>
<asrwt>0</asrwt>
<pdfrwt beam="1">  1        2 0.16726951E+00 0.83705638E+03</pdfrwt>
<pdfrwt beam="2">  1       -2 0.13557826E+00 0.83705638E+03</pdfrwt>
<totfact> 0.87293229E+00</totfact>
</mgrwt>
</event>
<event>
 4    1  0.3057048E-007  0.7327320E+03  0.7818608E-02  0.9881647E-01
         -2   -1    0    0    0  501 -0.00000000000E+00  0.00000000000E+00  0.57214207185E+03  0.57214207186E+03  0.25500000000E-02 0.  1.
          2   -1    0    0  501    0  0.00000000000E+00 -0.00000000000E+00 -0.71238737661E+03  0.71238737662E+03  0.25500000000E-02 0. -1.
    8880023    1    1    2    0    0 -0.30151997579E+03  0.11032527211E+03  0.23309331844E+03  0.76891395021E+03  0.65864270000E+03 0.  1.
    8880022    1    1    2    0    0  0.30151997579E+03 -0.11032527211E+03 -0.37333862320E+03  0.51561549826E+03  0.15294330000E+03 0.  0.
<mgrwt>
<rscale>  0 0.61159028E+03</rscale>
<asrwt>0</asrwt>
<pdfrwt beam="1">  1        2 0.10959806E+00 0.73273199E+03</pdfrwt>
<pdfrwt beam="2">  1       -2 0.88021857E-01 0.73273199E+03</pdfrwt>
<totfact> 0.45214939E+01</totfact>
</mgrwt>
</event>
<event>
 4    1  0.3057048E-007  0.6843883E+03  0.7818608E-02  0.1006943E+00
          2   -1    0    0  501    0  0.00000000000E+00  0.00000000000E+00  0.75685360182E+03  0.75685360183E+03  0.25500000000E-02 0. -1.
         -2   -1    0    0    0  501 -0.00000000000E+00 -0.00000000000E+00 -0.67292018909E+03  0.67292018910E+03  0.25500000000E-02 0.  1.
    8880023    1    1    2    0    0 -0.36070462472E+01  0.18591435667E+03 -0.46699281108E+03  0.82853464059E+03  0.65864270000E+03 0.  1.
    8880022    1    1    2    0    0  0.36070462472E+01 -0.18591435667E+03  0.55092622381E+03  0.60123915033E+03  0.15294330000E+03 0.  0.
<mgrwt>
<rscale>  0 0.52707964E+03</rscale>
<asrwt>0</asrwt>
<pdfrwt beam="1">  1        2 0.11643901E+00 0.68438831E+03</pdfrwt>
<pdfrwt beam="2">  1       -2 0.10352618E+00 0.68438831E+03</pdfrwt>
<totfact> 0.28745647E+01</totfact>
</mgrwt>
</event>
<event>
 4    1  0.3057048E-007  0.8740274E+03  0.7818608E-02  0.9569082E-01
         -2   -1    0    0    0  501 -0.00000000000E+00  0.00000000000E+00  0.98240007691E+03  0.98240007692E+03  0.25500000000E-02 0.  1.
          2   -1    0    0  501    0  0.00000000000E+00 -0.00000000000E+00 -0.75061131750E+03  0.75061131750E+03  0.25500000000E-02 0. -1.
    8880023    1    1    2    0    0  0.34021712465E+03 -0.46299682448E+03  0.57527814730E+03  0.10463598351E+04  0.65864270000E+03 0.  0.
    8880022    1    1    2    0    0 -0.34021712465E+03  0.46299682448E+03 -0.34348938789E+03  0.68665155937E+03  0.15294330000E+03 0.  0.
<mgrwt>
<rscale>  0 0.79376749E+03</rscale>
<asrwt>0</asrwt>
<pdfrwt beam="1">  1        2 0.11547866E+00 0.87402744E+03</pdfrwt>
<pdfrwt beam="2">  1       -2 0.15113847E+00 0.87402744E+03</pdfrwt>
<totfact> 0.11035330E+01</totfact>
</mgrwt>
</event>
<event>
 4    1  0.3057048E-007  0.7348659E+03  0.7818608E-02  0.9875163E-01
          2   -1    0    0  501    0  0.00000000000E+00  0.00000000000E+00  0.20940265243E+04  0.20940265243E+04  0.25500000000E-02 0. -1.
         -2   -1    0    0    0  501 -0.00000000000E+00 -0.00000000000E+00 -0.26570658390E+03  0.26570658391E+03  0.25500000000E-02 0.  1.
    8880023    1    1    2    0    0  0.31822611724E+03 -0.70355474163E+02  0.30703291443E+03  0.79642775645E+03  0.65864270000E+03 0.  1.
    8880022    1    1    2    0    0 -0.31822611724E+03  0.70355474163E+02  0.15212870259E+04  0.15633053517E+04  0.15294330000E+03 0.  0.
<mgrwt>
<rscale>  0 0.61480255E+03</rscale>
<asrwt>0</asrwt>
<pdfrwt beam="1">  1        2 0.32215793E+00 0.73486595E+03</pdfrwt>
<pdfrwt beam="2">  1       -2 0.40877935E-01 0.73486595E+03</pdfrwt>
<totfact> 0.34757785E+01</totfact>
</mgrwt>
</event>
<event>
 4    1  0.3057048E-007  0.9211287E+03  0.7818608E-02  0.9492931E-01
          2   -1    0    0  501    0  0.00000000000E+00  0.00000000000E+00  0.14146175878E+04  0.14146175878E+04  0.25500000000E-02 0. -1.
         -2   -1    0    0    0  501 -0.00000000000E+00 -0.00000000000E+00 -0.10221070268E+04  0.10221070268E+04  0.25500000000E-02 0.  1.
    8880023    1    1    2    0    0  0.44003805146E+03  0.47014289993E+03 -0.70167170363E+03  0.11579383485E+04  0.65864270000E+03 0.  1.
    8880022    1    1    2    0    0 -0.44003805146E+03 -0.47014289993E+03  0.10941822646E+04  0.12787862660E+04  0.15294330000E+03 0.  0.
<mgrwt>
<rscale>  0 0.84807032E+03</rscale>
<asrwt>0</asrwt>
<pdfrwt beam="1">  1        2 0.21763347E+00 0.92112868E+03</pdfrwt>
<pdfrwt beam="2">  1       -2 0.15724724E+00 0.92112868E+03</pdfrwt>
<totfact> 0.37536838E+00</totfact>
</mgrwt>
</event>
<event>
 4    1  0.3057048E-007  0.7416411E+03  0.7818608E-02  0.9855192E-01
          2   -1    0    0  501    0  0.00000000000E+00  0.00000000000E+00  0.33305261006E+04  0.33305261006E+04  0.25500000000E-02 0. -1.
         -2   -1    0    0    0  501 -0.00000000000E+00 -0.00000000000E+00 -0.23549832408E+03  0.23549832409E+03  0.25500000000E-02 0.  1.
    8880023    1    1    2    0    0  0.33987645507E+03  0.26559067055E+02  0.39501245220E+03  0.84027759247E+03  0.65864270000E+03 0.  1.
    8880022    1    1    2    0    0 -0.33987645507E+03 -0.26559067055E+02  0.27000153243E+04  0.27257468322E+04  0.15294330000E+03 0.  0.
<mgrwt>
<rscale>  0 0.62482891E+03</rscale>
<asrwt>0</asrwt>
<pdfrwt beam="1">  1        2 0.51238863E+00 0.74164115E+03</pdfrwt>
<pdfrwt beam="2">  1       -2 0.36230512E-01 0.74164115E+03</pdfrwt>
<totfact> 0.82015493E+00</totfact>
</mgrwt>
</event>
<event>
 4    1  0.3057048E-007  0.7387958E+03  0.7818608E-02  0.9863469E-01
         -2   -1    0    0    0  501 -0.00000000000E+00  0.00000000000E+00  0.19967508304E+03  0.19967508306E+03  0.25500000000E-02 0.  1.
          2   -1    0    0  501    0  0.00000000000E+00 -0.00000000000E+00 -0.20117357822E+04  0.20117357822E+04  0.25500000000E-02 0. -1.
    8880023    1    1    2    0    0 -0.70467834437E+02  0.32717468211E+03 -0.62201673920E+03  0.96577638116E+03  0.65864270000E+03 0. -1.
    8880022    1    1    2    0    0  0.70467834437E+02 -0.32717468211E+03 -0.11900439599E+04  0.12456344841E+04  0.15294330000E+03 0.  0.
<mgrwt>
<rscale>  0 0.62064876E+03</rscale>
<asrwt>0</asrwt>
<pdfrwt beam="1">  1        2 0.30949780E+00 0.73879577E+03</pdfrwt>
<pdfrwt beam="2">  1       -2 0.30719245E-01 0.73879577E+03</pdfrwt>
<totfact> 0.66473147E+01</totfact>
</mgrwt>
</event>
<event>
 4    1  0.3057048E-007  0.6612652E+03  0.7818608E-02  0.1022896E+00
         -2   -1    0    0    0  501 -0.00000000000E+00  0.00000000000E+00  0.59591153212E+02  0.59591153266E+02  0.25500000000E-02 0.  1.
          2   -1    0    0  501    0  0.00000000000E+00 -0.00000000000E+00 -0.29589064325E+04  0.29589064325E+04  0.25500000000E-02 0. -1.
    8880023    1    1    2    0    0  0.58047296160E+02  0.95912189618E+01 -0.20667986839E+04  0.21700065636E+04  0.65864270000E+03 0.  1.
    8880022    1    1    2    0    0 -0.58047296160E+02 -0.95912189618E+01 -0.83251659543E+03  0.84849102220E+03  0.15294330000E+03 0.  0.
<mgrwt>
<rscale>  0 0.46655853E+03</rscale>
<asrwt>0</asrwt>
<pdfrwt beam="1">  1        2 0.45521626E+00 0.66126522E+03</pdfrwt>
<pdfrwt beam="2">  1       -2 0.91678721E-02 0.66126522E+03</pdfrwt>
<totfact> 0.15552594E+02</totfact>
</mgrwt>
</event>
<event>
 4    1  0.3057048E-007  0.6900713E+03  0.7818608E-02  0.1004119E+00
          2   -1    0    0  501    0  0.00000000000E+00  0.00000000000E+00  0.14753242445E+04  0.14753242445E+04  0.25500000000E-02 0. -1.
         -2   -1    0    0    0  501 -0.00000000000E+00 -0.00000000000E+00 -0.42097291787E+03  0.42097291788E+03  0.25500000000E-02 0.  1.
    8880023    1    1    2    0    0 -0.13024329680E+03  0.15945180006E+03 -0.11461568877E+03  0.69952494972E+03  0.65864270000E+03 0.  1.
    8880022    1    1    2    0    0  0.13024329680E+03 -0.15945180006E+03  0.11689670154E+04  0.11967722127E+04  0.15294330000E+03 0.  0.
<mgrwt>
<rscale>  0 0.53880557E+03</rscale>
<asrwt>0</asrwt>
<pdfrwt beam="1">  1        2 0.22697297E+00 0.69007130E+03</pdfrwt>
<pdfrwt beam="2">  1       -2 0.64765063E-01 0.69007130E+03</pdfrwt>
<totfact> 0.29713574E+01</totfact>
</mgrwt>
</event>
<event>
 4    1  0.3057048E-007  0.8630855E+03  0.7818608E-02  0.9588098E-01
          2   -1    0    0  501    0  0.00000000000E+00  0.00000000000E+00  0.18519075263E+04  0.18519075263E+04  0.25500000000E-02 0. -1.
         -2   -1    0    0    0  501 -0.00000000000E+00 -0.00000000000E+00 -0.41788101085E+03  0.41788101085E+03  0.25500000000E-02 0.  1.
    8880023    1    1    2    0    0  0.36976168696E+03  0.41759143335E+03  0.16991312556E+03  0.87965162812E+03  0.65864270000E+03 0.  0.
    8880022    1    1    2    0    0 -0.36976168696E+03 -0.41759143335E+03  0.12641133899E+04  0.13901369091E+04  0.15294330000E+03 0.  0.
<mgrwt>
<rscale>  0 0.78088942E+03</rscale>
<asrwt>0</asrwt>
<pdfrwt beam="1">  1        2 0.28490885E+00 0.86308546E+03</pdfrwt>
<pdfrwt beam="2">  1       -2 0.64289386E-01 0.86308546E+03</pdfrwt>
<totfact> 0.18347045E+01</totfact>
</mgrwt>
</event>
<event>
 4    1  0.3057048E-007  0.8860240E+03  0.7818608E-02  0.9548851E-01
          2   -1    0    0  501    0  0.00000000000E+00  0.00000000000E+00  0.10020286669E+04  0.10020286669E+04  0.25500000000E-02 0. -1.
         -2   -1    0    0    0  501 -0.00000000000E+00 -0.00000000000E+00 -0.14735342996E+04  0.14735342996E+04  0.25500000000E-02 0.  1.
    8880023    1    1    2    0    0  0.46803222548E+03  0.36355762529E+03 -0.12205600638E+04  0.15082457978E+04  0.65864270000E+03 0.  1.
    8880022    1    1    2    0    0 -0.46803222548E+03 -0.36355762529E+03  0.74905443118E+03  0.96731716871E+03  0.15294330000E+03 0.  0.
<mgrwt>
<rscale>  0 0.80776118E+03</rscale>
<asrwt>0</asrwt>
<pdfrwt beam="1">  1        2 0.15415826E+00 0.88602399E+03</pdfrwt>
<pdfrwt beam="2">  1       -2 0.22669759E+00 0.88602399E+03</pdfrwt>
<totfact> 0.22714707E+00</totfact>
</mgrwt>
</event>
<event>
 4    1  0.3057048E-007  0.9922411E+03  0.7818608E-02  0.9391780E-01
          2   -1    0    0  501    0  0.00000000000E+00  0.00000000000E+00  0.22650819215E+04  0.22650819215E+04  0.25500000000E-02 0. -1.
         -2   -1    0    0    0  501 -0.00000000000E+00 -0.00000000000E+00 -0.41678402852E+03  0.41678402853E+03  0.25500000000E-02 0.  1.
    8880023    1    1    2    0    0  0.14448976089E+03  0.72791136567E+03  0.44582393372E+03  0.10877965956E+04  0.65864270000E+03 0.  1.
    8880022    1    1    2    0    0 -0.14448976089E+03 -0.72791136567E+03  0.14024739592E+04  0.15940693544E+04  0.15294330000E+03 0.  0.
<mgrwt>
<rscale>  0 0.92755276E+03</rscale>
<asrwt>0</asrwt>
<pdfrwt beam="1">  1        2 0.34847414E+00 0.99224113E+03</pdfrwt>
<pdfrwt beam="2">  1       -2 0.64120620E-01 0.99224113E+03</pdfrwt>
<totfact> 0.10754726E+01</totfact>
</mgrwt>
</event>
<event>
 4    1  0.3057048E-007  0.7983403E+03  0.7818608E-02  0.9714396E-01
          2   -1    0    0  501    0  0.00000000000E+00  0.00000000000E+00  0.16648085082E+04  0.16648085082E+04  0.25500000000E-02 0. -1.
         -2   -1    0    0    0  501 -0.00000000000E+00 -0.00000000000E+00 -0.71290284076E+03  0.71290284077E+03  0.25500000000E-02 0.  1.
    8880023    1    1    2    0    0  0.36835485886E+03 -0.26048377074E+03 -0.43648402603E+03  0.90987120413E+03  0.65864270000E+03 0.  0.
    8880022    1    1    2    0    0 -0.36835485886E+03  0.26048377074E+03  0.13883896935E+04  0.14678401449E+04  0.15294330000E+03 0.  0.
<mgrwt>
<rscale>  0 0.70166085E+03</rscale>
<asrwt>0</asrwt>
<pdfrwt beam="1">  1        2 0.25612439E+00 0.79834034E+03</pdfrwt>
<pdfrwt beam="2">  1       -2 0.10967736E+00 0.79834034E+03</pdfrwt>
<totfact> 0.69325924E+00</totfact>
</mgrwt>
</event>
<event>
 4    1  0.3057048E-007  0.1460315E+04  0.7818608E-02  0.8938179E-01
          2   -1    0    0  501    0  0.00000000000E+00  0.00000000000E+00  0.13711056397E+04  0.13711056397E+04  0.25500000000E-02 0. -1.
         -2   -1    0    0    0  501 -0.00000000000E+00 -0.00000000000E+00 -0.23212364419E+04  0.23212364419E+04  0.25500000000E-02 0.  1.
    8880023    1    1    2    0    0 -0.14006260491E+03 -0.12957978564E+04 -0.16513765269E+04  0.22044419380E+04  0.65864270000E+03 0.  0.
    8880022    1    1    2    0    0  0.14006260491E+03  0.12957978564E+04  0.70124572466E+03  0.14879001436E+04  0.15294330000E+03 0.  0.
<mgrwt>
<rscale>  0 0.14218122E+04</rscale>
<asrwt>0</asrwt>
<pdfrwt beam="1">  1        2 0.21093933E+00 0.14603150E+04</pdfrwt>
<pdfrwt beam="2">  1       -2 0.35711330E+00 0.14603150E+04</pdfrwt>
<totfact> 0.19995609E-01</totfact>
</mgrwt>
</event>
<event>
 4    1  0.3057048E-007  0.7393279E+03  0.7818608E-02  0.9861909E-01
         -2   -1    0    0    0  501 -0.00000000000E+00  0.00000000000E+00  0.40035820839E+03  0.40035820840E+03  0.25500000000E-02 0.  1.
          2   -1    0    0  501    0  0.00000000000E+00 -0.00000000000E+00 -0.14841045906E+04  0.14841045906E+04  0.25500000000E-02 0. -1.
    8880023    1    1    2    0    0  0.94999189631E+02  0.32213451504E+03  0.29546548309E+00  0.73932792817E+03  0.65864270000E+03 0.  0.
    8880022    1    1    2    0    0 -0.94999189631E+02 -0.32213451504E+03 -0.10840418477E+04  0.11451348708E+04  0.15294330000E+03 0.  0.
<mgrwt>
<rscale>  0 0.62143373E+03</rscale>
<asrwt>0</asrwt>
<pdfrwt beam="1">  1        2 0.22832378E+00 0.73932787E+03</pdfrwt>
<pdfrwt beam="2">  1       -2 0.61593571E-01 0.73932787E+03</pdfrwt>
<totfact> 0.32511056E+01</totfact>
</mgrwt>
</event>
<event>
 4    1  0.3057048E-007  0.1035238E+04  0.7818608E-02  0.9336842E-01
          2   -1    0    0  501    0  0.00000000000E+00  0.00000000000E+00  0.25325647288E+04  0.25325647288E+04  0.25500000000E-02 0. -1.
         -2   -1    0    0    0  501 -0.00000000000E+00 -0.00000000000E+00 -0.33785672944E+03  0.33785672945E+03  0.25500000000E-02 0.  1.
    8880023    1    1    2    0    0 -0.79627281199E+03 -0.62098089312E+02  0.12878288817E+04  0.16523377375E+04  0.65864270000E+03 0.  1.
    8880022    1    1    2    0    0  0.79627281199E+03  0.62098089312E+02  0.90687911759E+03  0.12180837207E+04  0.15294330000E+03 0. -1.
<mgrwt>
<rscale>  0 0.97460734E+03</rscale>
<asrwt>0</asrwt>
<pdfrwt beam="1">  1        2 0.38962534E+00 0.10352375E+04</pdfrwt>
<pdfrwt beam="2">  1       -2 0.51977959E-01 0.10352375E+04</pdfrwt>
<totfact> 0.11745767E+01</totfact>
</mgrwt>
</event>
<event>
 4    1  0.3057048E-007  0.1022687E+04  0.7818608E-02  0.9352459E-01
          2   -1    0    0  501    0  0.00000000000E+00  0.00000000000E+00  0.87957764274E+03  0.87957764274E+03  0.25500000000E-02 0. -1.
         -2   -1    0    0    0  501 -0.00000000000E+00 -0.00000000000E+00 -0.15482419212E+04  0.15482419212E+04  0.25500000000E-02 0.  1.
    8880023    1    1    2    0    0 -0.82144776953E+02 -0.77803068234E+03 -0.11159996120E+04  0.15137188799E+04  0.65864270000E+03 0.  0.
    8880022    1    1    2    0    0  0.82144776953E+02  0.77803068234E+03  0.44733533351E+03  0.91410068410E+03  0.15294330000E+03 0.  0.
<mgrwt>
<rscale>  0 0.96093539E+03</rscale>
<asrwt>0</asrwt>
<pdfrwt beam="1">  1        2 0.13531964E+00 0.10226875E+04</pdfrwt>
<pdfrwt beam="2">  1       -2 0.23819106E+00 0.10226875E+04</pdfrwt>
<totfact> 0.22857034E+00</totfact>
</mgrwt>
</event>
<event>
 4    1  0.3057048E-007  0.1126262E+04  0.7818608E-02  0.9232365E-01
          2   -1    0    0  501    0  0.00000000000E+00  0.00000000000E+00  0.26189329935E+04  0.26189329935E+04  0.25500000000E-02 0. -1.
         -2   -1    0    0    0  501 -0.00000000000E+00 -0.00000000000E+00 -0.90945196957E+03  0.90945196958E+03  0.25500000000E-02 0.  1.
    8880023    1    1    2    0    0 -0.88003790103E+03  0.24533614304E+03 -0.42325942072E+03  0.12031688468E+04  0.65864270000E+03 0.  0.
    8880022    1    1    2    0    0  0.88003790103E+03 -0.24533614304E+03  0.21327404447E+04  0.23252161164E+04  0.15294330000E+03 0.  0.
<mgrwt>
<rscale>  0 0.10725526E+04</rscale>
<asrwt>0</asrwt>
<pdfrwt beam="1">  1        2 0.40291276E+00 0.11262623E+04</pdfrwt>
<pdfrwt beam="2">  1       -2 0.13991569E+00 0.11262623E+04</pdfrwt>
<totfact> 0.10561544E+00</totfact>
</mgrwt>
</event>
<event>
 4    1  0.3057048E-007  0.9717958E+03  0.7818608E-02  0.9419425E-01
          2   -1    0    0  501    0  0.00000000000E+00  0.00000000000E+00  0.16911652472E+04  0.16911652472E+04  0.25500000000E-02 0. -1.
         -2   -1    0    0    0  501 -0.00000000000E+00 -0.00000000000E+00 -0.55886548119E+03  0.55886548120E+03  0.25500000000E-02 0.  1.
    8880023    1    1    2    0    0 -0.70437006070E+03 -0.12016491769E+03  0.88428003480E+02  0.97581069266E+03  0.65864270000E+03 0.  1.
    8880022    1    1    2    0    0  0.70437006070E+03  0.12016491769E+03  0.10438717625E+04  0.12742200357E+04  0.15294330000E+03 0.  0.
<mgrwt>
<rscale>  0 0.90494190E+03</rscale>
<asrwt>0</asrwt>
<pdfrwt beam="1">  1        2 0.26017926E+00 0.97179576E+03</pdfrwt>
<pdfrwt beam="2">  1       -2 0.85979306E-01 0.97179576E+03</pdfrwt>
<totfact> 0.11655504E+01</totfact>
</mgrwt>
</event>
<event>
 4    1  0.3057048E-007  0.6753483E+03  0.7818608E-02  0.1012088E+00
         -2   -1    0    0    0  501 -0.00000000000E+00  0.00000000000E+00  0.18516396565E+03  0.18516396567E+03  0.25500000000E-02 0.  1.
          2   -1    0    0  501    0  0.00000000000E+00 -0.00000000000E+00 -0.24780147285E+04  0.24780147285E+04  0.25500000000E-02 0. -1.
    8880023    1    1    2    0    0 -0.14862529540E+03 -0.13989493475E+02 -0.45818342872E+03  0.81610504530E+03  0.65864270000E+03 0.  1.
    8880022    1    1    2    0    0  0.14862529540E+03  0.13989493475E+02 -0.18346673341E+04  0.18470736488E+04  0.15294330000E+03 0.  0.
<mgrwt>
<rscale>  0 0.50653316E+03</rscale>
<asrwt>0</asrwt>
<pdfrwt beam="1">  1        2 0.38123301E+00 0.67534835E+03</pdfrwt>
<pdfrwt beam="2">  1       -2 0.28486766E-01 0.67534835E+03</pdfrwt>
<totfact> 0.42575339E+01</totfact>
</mgrwt>
</event>
<event>
 4    1  0.3057048E-007  0.6619618E+03  0.7818608E-02  0.1022231E+00
         -2   -1    0    0    0  501 -0.00000000000E+00  0.00000000000E+00  0.27963228582E+03  0.27963228583E+03  0.25500000000E-02 0.  1.
          2   -1    0    0  501    0  0.00000000000E+00 -0.00000000000E+00 -0.82426338603E+03  0.82426338604E+03  0.25500000000E-02 0. -1.
    8880023    1    1    2    0    0  0.66074118737E+02  0.41793568118E+01 -0.15463607743E+03  0.67978362653E+03  0.65864270000E+03 0.  1.
    8880022    1    1    2    0    0 -0.66074118737E+02 -0.41793568118E+01 -0.38999502279E+03  0.42411204534E+03  0.15294330000E+03 0.  0.
<mgrwt>
<rscale>  0 0.46890114E+03</rscale>
<asrwt>0</asrwt>
<pdfrwt beam="1">  1        2 0.12680975E+00 0.66196183E+03</pdfrwt>
<pdfrwt beam="2">  1       -2 0.43020352E-01 0.66196183E+03</pdfrwt>
<totfact> 0.17218048E+02</totfact>
</mgrwt>
</event>
<event>
 4    1  0.3057048E-007  0.7133319E+03  0.7818608E-02  0.9945830E-01
          2   -1    0    0  501    0  0.00000000000E+00  0.00000000000E+00  0.24605492734E+04  0.24605492734E+04  0.25500000000E-02 0. -1.
         -2   -1    0    0    0  501 -0.00000000000E+00 -0.00000000000E+00 -0.12128322094E+03  0.12128322097E+03  0.25500000000E-02 0.  1.
    8880023    1    1    2    0    0 -0.27367784783E+03 -0.11517164921E+02  0.11620151098E+04  0.13634960693E+04  0.65864270000E+03 0.  1.
    8880022    1    1    2    0    0  0.27367784783E+03  0.11517164921E+02  0.11772509427E+04  0.12183364250E+04  0.15294330000E+03 0.  0.
<mgrwt>
<rscale>  0 0.58090657E+03</rscale>
<asrwt>0</asrwt>
<pdfrwt beam="1">  1        2 0.37854604E+00 0.71333191E+03</pdfrwt>
<pdfrwt beam="2">  1       -2 0.18658957E-01 0.71333191E+03</pdfrwt>
<totfact> 0.92109102E+01</totfact>
</mgrwt>
</event>
<event>
 4    1  0.3057048E-007  0.6897059E+03  0.7818608E-02  0.1004293E+00
         -2   -1    0    0    0  501 -0.00000000000E+00  0.00000000000E+00  0.56378567179E+03  0.56378567179E+03  0.25500000000E-02 0.  1.
          2   -1    0    0  501    0  0.00000000000E+00 -0.00000000000E+00 -0.43193673624E+03  0.43193673625E+03  0.25500000000E-02 0. -1.
    8880023    1    1    2    0    0  0.10883779552E+03 -0.17331582996E+03  0.22237323548E+03  0.72466827223E+03  0.65864270000E+03 0.  0.
    8880022    1    1    2    0    0 -0.10883779552E+03  0.17331582996E+03 -0.90524299938E+02  0.27105413582E+03  0.15294330000E+03 0.  0.
<mgrwt>
<rscale>  0 0.53807387E+03</rscale>
<asrwt>0</asrwt>
<pdfrwt beam="1">  1        2 0.66451805E-01 0.68970591E+03</pdfrwt>
<pdfrwt beam="2">  1       -2 0.86736258E-01 0.68970591E+03</pdfrwt>
<totfact> 0.85045667E+01</totfact>
</mgrwt>
</event>
<event>
 4    1  0.3057048E-007  0.9552254E+03  0.7818608E-02  0.9442635E-01
          2   -1    0    0  501    0  0.00000000000E+00  0.00000000000E+00  0.15940261997E+04  0.15940261997E+04  0.25500000000E-02 0. -1.
         -2   -1    0    0    0  501 -0.00000000000E+00 -0.00000000000E+00 -0.66451067680E+03  0.66451067680E+03  0.25500000000E-02 0.  1.
    8880023    1    1    2    0    0  0.61093759031E+03 -0.32465464112E+03 -0.15033388354E+03  0.96698286337E+03  0.65864270000E+03 0.  0.
    8880022    1    1    2    0    0 -0.61093759031E+03  0.32465464112E+03  0.10798494065E+04  0.12915540132E+04  0.15294330000E+03 0.  0.
<mgrwt>
<rscale>  0 0.88648495E+03</rscale>
<asrwt>0</asrwt>
<pdfrwt beam="1">  1        2 0.24523479E+00 0.95522541E+03</pdfrwt>
<pdfrwt beam="2">  1       -2 0.10223241E+00 0.95522541E+03</pdfrwt>
<totfact> 0.88139849E+00</totfact>
</mgrwt>
</event>
<event>
 4    1  0.3057048E-007  0.6719860E+03  0.7818608E-02  0.1014277E+00
         -2   -1    0    0    0  501 -0.00000000000E+00  0.00000000000E+00  0.16769106433E+03  0.16769106435E+03  0.25500000000E-02 0.  1.
          2   -1    0    0  501    0  0.00000000000E+00 -0.00000000000E+00 -0.20012118458E+04  0.20012118458E+04  0.25500000000E-02 0. -1.
    8880023    1    1    2    0    0  0.10328802193E+03  0.84181403665E+02 -0.54695329842E+03  0.86644275120E+03  0.65864270000E+03 0.  1.
    8880022    1    1    2    0    0 -0.10328802193E+03 -0.84181403665E+02 -0.12865674831E+04  0.13024601590E+04  0.15294330000E+03 0.  0.
<mgrwt>
<rscale>  0 0.49809463E+03</rscale>
<asrwt>0</asrwt>
<pdfrwt beam="1">  1        2 0.30787873E+00 0.67198596E+03</pdfrwt>
<pdfrwt beam="2">  1       -2 0.25798627E-01 0.67198596E+03</pdfrwt>
<totfact> 0.93535264E+01</totfact>
</mgrwt>
</event>
<event>
 4    1  0.3057048E-007  0.1264215E+04  0.7818608E-02  0.9097096E-01
          2   -1    0    0  501    0  0.00000000000E+00  0.00000000000E+00  0.94267405871E+03  0.94267405871E+03  0.25500000000E-02 0. -1.
         -2   -1    0    0    0  501 -0.00000000000E+00 -0.00000000000E+00 -0.14814560314E+04  0.14814560314E+04  0.25500000000E-02 0.  1.
    8880023    1    1    2    0    0  0.10718341853E+04  0.12489841245E+03 -0.18141859633E+03  0.12771652389E+04  0.65864270000E+03 0.  1.
    8880022    1    1    2    0    0 -0.10718341853E+04 -0.12489841245E+03 -0.35736337637E+03  0.11469648512E+04  0.15294330000E+03 0. -1.
<mgrwt>
<rscale>  0 0.12181742E+04</rscale>
<asrwt>0</asrwt>
<pdfrwt beam="1">  1        2 0.14502678E+00 0.12642145E+04</pdfrwt>
<pdfrwt beam="2">  1       -2 0.22791631E+00 0.12642145E+04</pdfrwt>
<totfact> 0.23412435E+00</totfact>
</mgrwt>
</event>
<event>
 4    1  0.3057048E-007  0.8212798E+03  0.7818608E-02  0.9666544E-01
         -2   -1    0    0    0  501 -0.00000000000E+00  0.00000000000E+00  0.13732404663E+03  0.13732404665E+03  0.25500000000E-02 0.  1.
          2   -1    0    0  501    0  0.00000000000E+00 -0.00000000000E+00 -0.32509878654E+04  0.32509878654E+04  0.25500000000E-02 0. -1.
    8880023    1    1    2    0    0 -0.41871701403E+03 -0.25566846240E+03 -0.18461720339E+04  0.20206067617E+04  0.65864270000E+03 0.  1.
    8880022    1    1    2    0    0  0.41871701403E+03  0.25566846240E+03 -0.12674917850E+04  0.13677051504E+04  0.15294330000E+03 0. -1.
<mgrwt>
<rscale>  0 0.73044193E+03</rscale>
<asrwt>0</asrwt>
<pdfrwt beam="1">  1        2 0.50015192E+00 0.82127980E+03</pdfrwt>
<pdfrwt beam="2">  1       -2 0.21126779E-01 0.82127980E+03</pdfrwt>
<totfact> 0.24530893E+01</totfact>
</mgrwt>
</event>
<event>
 4    1  0.3057048E-007  0.1317981E+04  0.7818608E-02  0.9050186E-01
          2   -1    0    0  501    0  0.00000000000E+00  0.00000000000E+00  0.10384211967E+04  0.10384211967E+04  0.25500000000E-02 0. -1.
         -2   -1    0    0    0  501 -0.00000000000E+00 -0.00000000000E+00 -0.22134249364E+04  0.22134249364E+04  0.25500000000E-02 0.  1.
    8880023    1    1    2    0    0  0.87674250116E+03 -0.73115332992E+03  0.32807434371E+03  0.13581993913E+04  0.65864270000E+03 0.  0.
    8880022    1    1    2    0    0 -0.87674250116E+03  0.73115332992E+03 -0.15030780834E+04  0.18936467419E+04  0.15294330000E+03 0.  0.
<mgrwt>
<rscale>  0 0.12743141E+04</rscale>
<asrwt>0</asrwt>
<pdfrwt beam="1">  1        2 0.15975711E+00 0.13179806E+04</pdfrwt>
<pdfrwt beam="2">  1       -2 0.34052691E+00 0.13179806E+04</pdfrwt>
<totfact> 0.41095718E-01</totfact>
</mgrwt>
</event>
<event>
 4    1  0.3057048E-007  0.1155217E+04  0.7818608E-02  0.9201933E-01
          2   -1    0    0  501    0  0.00000000000E+00  0.00000000000E+00  0.18021752489E+04  0.18021752489E+04  0.25500000000E-02 0. -1.
         -2   -1    0    0    0  501 -0.00000000000E+00 -0.00000000000E+00 -0.75432279659E+03  0.75432279660E+03  0.25500000000E-02 0.  1.
    8880023    1    1    2    0    0  0.29599906866E+03 -0.90172147266E+03  0.10981433929E+04  0.15938777182E+04  0.65864270000E+03 0. -1.
    8880022    1    1    2    0    0 -0.29599906866E+03  0.90172147266E+03 -0.50290940553E+02  0.96262032735E+03  0.15294330000E+03 0.  1.
<mgrwt>
<rscale>  0 0.11033497E+04</rscale>
<asrwt>0</asrwt>
<pdfrwt beam="1">  1        2 0.27725773E+00 0.11552174E+04</pdfrwt>
<pdfrwt beam="2">  1       -2 0.11604966E+00 0.11552174E+04</pdfrwt>
<totfact> 0.48642224E+00</totfact>
</mgrwt>
</event>
<event>
 4    1  0.3057048E-007  0.9623050E+03  0.7818608E-02  0.9432627E-01
         -2   -1    0    0    0  501 -0.00000000000E+00  0.00000000000E+00  0.50135059457E+03  0.50135059458E+03  0.25500000000E-02 0.  1.
          2   -1    0    0  501    0  0.00000000000E+00 -0.00000000000E+00 -0.16521835896E+04  0.16521835896E+04  0.25500000000E-02 0. -1.
    8880023    1    1    2    0    0 -0.67109397817E+03 -0.20458153947E+03 -0.23649471928E+03  0.99093929801E+03  0.65864270000E+03 0.  0.
    8880022    1    1    2    0    0  0.67109397817E+03  0.20458153947E+03 -0.91433827576E+03  0.11625948862E+04  0.15294330000E+03 0.  0.
<mgrwt>
<rscale>  0 0.89438597E+03</rscale>
<asrwt>0</asrwt>
<pdfrwt beam="1">  1        2 0.25418209E+00 0.96230501E+03</pdfrwt>
<pdfrwt beam="2">  1       -2 0.77130861E-01 0.96230501E+03</pdfrwt>
<totfact> 0.15680054E+01</totfact>
</mgrwt>
</event>
<event>
 4    1  0.3057048E-007  0.6853436E+03  0.7818608E-02  0.1006449E+00
          2   -1    0    0  501    0  0.00000000000E+00  0.00000000000E+00  0.25892832815E+04  0.25892832815E+04  0.25500000000E-02 0. -1.
         -2   -1    0    0    0  501 -0.00000000000E+00 -0.00000000000E+00 -0.17374941851E+03  0.17374941853E+03  0.25500000000E-02 0.  1.
    8880023    1    1    2    0    0  0.55730812907E+02 -0.18105171150E+03  0.54204437651E+03  0.87378942436E+03  0.65864270000E+03 0.  0.
    8880022    1    1    2    0    0 -0.55730812907E+02  0.18105171150E+03  0.18734894865E+04  0.18892432757E+04  0.15294330000E+03 0.  0.
<mgrwt>
<rscale>  0 0.52910556E+03</rscale>
<asrwt>0</asrwt>
<pdfrwt beam="1">  1        2 0.39835125E+00 0.68534360E+03</pdfrwt>
<pdfrwt beam="2">  1       -2 0.26730682E-01 0.68534360E+03</pdfrwt>
<totfact> 0.41292471E+01</totfact>
</mgrwt>
</event>
<event>
 4    1  0.3057048E-007  0.6591255E+03  0.7818608E-02  0.1025071E+00
         -2   -1    0    0    0  501 -0.00000000000E+00  0.00000000000E+00  0.25609689529E+03  0.25609689530E+03  0.25500000000E-02 0.  1.
          2   -1    0    0  501    0  0.00000000000E+00 -0.00000000000E+00 -0.15292260410E+04  0.15292260410E+04  0.25500000000E-02 0. -1.
    8880023    1    1    2    0    0 -0.12928493923E+02  0.21657899387E+02 -0.18276443276E+03  0.68399506921E+03  0.65864270000E+03 0.  1.
    8880022    1    1    2    0    0  0.12928493923E+02 -0.21657899387E+02 -0.10903647130E+04  0.11013278671E+04  0.15294330000E+03 0.  0.
<mgrwt>
<rscale>  0 0.45900295E+03</rscale>
<asrwt>0</asrwt>
<pdfrwt beam="1">  1        2 0.23526554E+00 0.65912549E+03</pdfrwt>
<pdfrwt beam="2">  1       -2 0.39399523E-01 0.65912549E+03</pdfrwt>
<totfact> 0.76667409E+01</totfact>
</mgrwt>
</event>
<event>
 4    1  0.3057048E-007  0.6871916E+03  0.7818608E-02  0.1005517E+00
          2   -1    0    0  501    0  0.00000000000E+00  0.00000000000E+00  0.11057559174E+04  0.11057559174E+04  0.25500000000E-02 0. -1.
         -2   -1    0    0    0  501 -0.00000000000E+00 -0.00000000000E+00 -0.42584890907E+03  0.42584890908E+03  0.25500000000E-02 0.  1.
    8880023    1    1    2    0    0 -0.25221553741E+02  0.19438626496E+03 -0.11676306585E+03  0.69704086436E+03  0.65864270000E+03 0.  1.
    8880022    1    1    2    0    0  0.25221553741E+02 -0.19438626496E+03  0.79667007421E+03  0.83456396216E+03  0.15294330000E+03 0.  0.
<mgrwt>
<rscale>  0 0.53295935E+03</rscale>
<asrwt>0</asrwt>
<pdfrwt beam="1">  1        2 0.17011629E+00 0.68719164E+03</pdfrwt>
<pdfrwt beam="2">  1       -2 0.65515217E-01 0.68719164E+03</pdfrwt>
<totfact> 0.47440623E+01</totfact>
</mgrwt>
</event>
<event>
 4    1  0.3057048E-007  0.1498019E+04  0.7818608E-02  0.8911036E-01
          2   -1    0    0  501    0  0.00000000000E+00  0.00000000000E+00  0.37760986968E+04  0.37760986968E+04  0.25500000000E-02 0. -1.
         -2   -1    0    0    0  501 -0.00000000000E+00 -0.00000000000E+00 -0.10913642917E+04  0.10913642917E+04  0.25500000000E-02 0.  1.
    8880023    1    1    2    0    0  0.63714470179E+03  0.11850308255E+04  0.31067942786E+04  0.34490915216E+04  0.65864270000E+03 0.  0.
    8880022    1    1    2    0    0 -0.63714470179E+03 -0.11850308255E+04 -0.42205987343E+03  0.14183714669E+04  0.15294330000E+03 0.  0.
<mgrwt>
<rscale>  0 0.14606710E+04</rscale>
<asrwt>0</asrwt>
<pdfrwt beam="1">  1        2 0.58093825E+00 0.14980192E+04</pdfrwt>
<pdfrwt beam="2">  1       -2 0.16790220E+00 0.14980192E+04</pdfrwt>
<totfact> 0.10790082E-01</totfact>
</mgrwt>
</event>
<event>
 4    1  0.3057048E-007  0.7146962E+03  0.7818608E-02  0.9940959E-01
         -2   -1    0    0    0  501 -0.00000000000E+00  0.00000000000E+00  0.78750552175E+03  0.78750552175E+03  0.25500000000E-02 0.  1.
          2   -1    0    0  501    0  0.00000000000E+00 -0.00000000000E+00 -0.87989508054E+03  0.87989508055E+03  0.25500000000E-02 0. -1.
    8880023    1    1    2    0    0 -0.22004862713E+03  0.16899428670E+03  0.58239682470E+03  0.92194182838E+03  0.65864270000E+03 0.  1.
    8880022    1    1    2    0    0  0.22004862713E+03 -0.16899428670E+03 -0.67478638350E+03  0.74545877392E+03  0.15294330000E+03 0.  0.
<mgrwt>
<rscale>  0 0.58316674E+03</rscale>
<asrwt>0</asrwt>
<pdfrwt beam="1">  1        2 0.13536847E+00 0.71469621E+03</pdfrwt>
<pdfrwt beam="2">  1       -2 0.12115470E+00 0.71469621E+03</pdfrwt>
<totfact> 0.15994704E+01</totfact>
</mgrwt>
</event>
<event>
 4    1  0.3057048E-007  0.7524706E+03  0.7818608E-02  0.9825005E-01
          2   -1    0    0  501    0  0.00000000000E+00  0.00000000000E+00  0.12390130342E+04  0.12390130342E+04  0.25500000000E-02 0. -1.
         -2   -1    0    0    0  501 -0.00000000000E+00 -0.00000000000E+00 -0.42300326653E+03  0.42300326653E+03  0.25500000000E-02 0.  1.
    8880023    1    1    2    0    0  0.24868472887E+03  0.26562691188E+03 -0.34204570073E+01  0.75247834286E+03  0.65864270000E+03 0.  0.
    8880022    1    1    2    0    0 -0.24868472887E+03 -0.26562691188E+03  0.81943022469E+03  0.90953795788E+03  0.15294330000E+03 0.  0.
<mgrwt>
<rscale>  0 0.64037707E+03</rscale>
<asrwt>0</asrwt>
<pdfrwt beam="1">  1        2 0.19061739E+00 0.75247057E+03</pdfrwt>
<pdfrwt beam="2">  1       -2 0.65077426E-01 0.75247057E+03</pdfrwt>
<totfact> 0.39819372E+01</totfact>
</mgrwt>
</event>
<event>
 4    1  0.3057048E-007  0.9180187E+03  0.7818608E-02  0.9497704E-01
          2   -1    0    0  501    0  0.00000000000E+00  0.00000000000E+00  0.14592828611E+04  0.14592828611E+04  0.25500000000E-02 0. -1.
         -2   -1    0    0    0  501 -0.00000000000E+00 -0.00000000000E+00 -0.69462475213E+03  0.69462475214E+03  0.25500000000E-02 0.  1.
    8880023    1    1    2    0    0 -0.60025683264E+03 -0.22054454914E+03 -0.24397084775E+03  0.94988427932E+03  0.65864270000E+03 0.  0.
    8880022    1    1    2    0    0  0.60025683264E+03  0.22054454914E+03  0.10086289567E+04  0.12040233339E+04  0.15294330000E+03 0.  0.
<mgrwt>
<rscale>  0 0.84453336E+03</rscale>
<asrwt>0</asrwt>
<pdfrwt beam="1">  1        2 0.22450505E+00 0.91801872E+03</pdfrwt>
<pdfrwt beam="2">  1       -2 0.10686535E+00 0.91801872E+03</pdfrwt>
<totfact> 0.94628550E+00</totfact>
</mgrwt>
</event>
<event>
 4    1  0.3057048E-007  0.6920155E+03  0.7818608E-02  0.1003209E+00
          2   -1    0    0  501    0  0.00000000000E+00  0.00000000000E+00  0.43815858797E+03  0.43815858798E+03  0.25500000000E-02 0. -1.
         -2   -1    0    0    0  501 -0.00000000000E+00 -0.00000000000E+00 -0.63364645146E+03  0.63364645146E+03  0.25500000000E-02 0.  1.
    8880023    1    1    2    0    0  0.14785638712E+03  0.15236041473E+03 -0.34200478260E+03  0.77191494659E+03  0.65864270000E+03 0.  1.
    8880022    1    1    2    0    0 -0.14785638712E+03 -0.15236041473E+03  0.14651691911E+03  0.29989009285E+03  0.15294330000E+03 0.  0.
<mgrwt>
<rscale>  0 0.54265262E+03</rscale>
<asrwt>0</asrwt>
<pdfrwt beam="1">  1        2 0.67409013E-01 0.69201547E+03</pdfrwt>
<pdfrwt beam="2">  1       -2 0.97484070E-01 0.69201547E+03</pdfrwt>
<totfact> 0.63829334E+01</totfact>
</mgrwt>
</event>
<event>
 4    1  0.3057048E-007  0.8854352E+03  0.7818608E-02  0.9549829E-01
          2   -1    0    0  501    0  0.00000000000E+00  0.00000000000E+00  0.15513913624E+04  0.15513913624E+04  0.25500000000E-02 0. -1.
         -2   -1    0    0    0  501 -0.00000000000E+00 -0.00000000000E+00 -0.45903191398E+03  0.45903191399E+03  0.25500000000E-02 0.  1.
    8880023    1    1    2    0    0 -0.45082542228E+03 -0.38332989586E+03  0.10833361936E+04  0.13991471992E+04  0.65864270000E+03 0.  0.
    8880022    1    1    2    0    0  0.45082542228E+03  0.38332989586E+03  0.90232548634E+01  0.61127607722E+03  0.15294330000E+03 0.  0.
<mgrwt>
<rscale>  0 0.80707728E+03</rscale>
<asrwt>0</asrwt>
<pdfrwt beam="1">  1        2 0.23867560E+00 0.88543525E+03</pdfrwt>
<pdfrwt beam="2">  1       -2 0.70620293E-01 0.88543525E+03</pdfrwt>
<totfact> 0.21853774E+01</totfact>
</mgrwt>
</event>
<event>
 4    1  0.3057048E-007  0.8416996E+03  0.7818608E-02  0.9626984E-01
         -2   -1    0    0    0  501 -0.00000000000E+00  0.00000000000E+00  0.43107478349E+03  0.43107478350E+03  0.25500000000E-02 0.  1.
          2   -1    0    0  501    0  0.00000000000E+00 -0.00000000000E+00 -0.19476332529E+04  0.19476332529E+04  0.25500000000E-02 0. -1.
    8880023    1    1    2    0    0  0.37560933064E+03 -0.36546630450E+03 -0.84274943819E+02  0.84590806912E+03  0.65864270000E+03 0.  0.
    8880022    1    1    2    0    0 -0.37560933064E+03  0.36546630450E+03 -0.14322835256E+04  0.15327999672E+04  0.15294330000E+03 0.  0.
<mgrwt>
<rscale>  0 0.75535671E+03</rscale>
<asrwt>0</asrwt>
<pdfrwt beam="1">  1        2 0.29963588E+00 0.84169959E+03</pdfrwt>
<pdfrwt beam="2">  1       -2 0.66319199E-01 0.84169959E+03</pdfrwt>
<totfact> 0.15248662E+01</totfact>
</mgrwt>
</event>
<event>
 4    1  0.3057048E-007  0.9538808E+03  0.7818608E-02  0.9444552E-01
         -2   -1    0    0    0  501 -0.00000000000E+00  0.00000000000E+00  0.22031434870E+04  0.22031434870E+04  0.25500000000E-02 0.  1.
          2   -1    0    0  501    0  0.00000000000E+00 -0.00000000000E+00 -0.37034235706E+03  0.37034235707E+03  0.25500000000E-02 0. -1.
    8880023    1    1    2    0    0  0.15509748616E+03  0.67232662708E+03  0.15335519154E+04  0.18060094150E+04  0.65864270000E+03 0.  1.
    8880022    1    1    2    0    0 -0.15509748616E+03 -0.67232662708E+03  0.29924921452E+03  0.76747642902E+03  0.15294330000E+03 0.  0.
<mgrwt>
<rscale>  0 0.88498161E+03</rscale>
<asrwt>0</asrwt>
<pdfrwt beam="1">  1        2 0.56975747E-01 0.95388077E+03</pdfrwt>
<pdfrwt beam="2">  1       -2 0.33894515E+00 0.95388077E+03</pdfrwt>
<totfact> 0.16156401E+00</totfact>
</mgrwt>
</event>
<event>
 4    1  0.3057048E-007  0.6845801E+03  0.7818608E-02  0.1006843E+00
          2   -1    0    0  501    0  0.00000000000E+00  0.00000000000E+00  0.61423156630E+03  0.61423156630E+03  0.25500000000E-02 0. -1.
         -2   -1    0    0    0  501 -0.00000000000E+00 -0.00000000000E+00 -0.55593944794E+03  0.55593944794E+03  0.25500000000E-02 0.  1.
    8880023    1    1    2    0    0 -0.17546095276E+03 -0.63664334571E+02 -0.29245340681E+03  0.74443192762E+03  0.65864270000E+03 0.  1.
    8880022    1    1    2    0    0  0.17546095276E+03  0.63664334571E+02  0.35074552517E+03  0.42573908663E+03  0.15294330000E+03 0.  0.
<mgrwt>
<rscale>  0 0.52748826E+03</rscale>
<asrwt>0</asrwt>
<pdfrwt beam="1">  1        2 0.94497164E-01 0.68458009E+03</pdfrwt>
<pdfrwt beam="2">  1       -2 0.85529146E-01 0.68458009E+03</pdfrwt>
<totfact> 0.58236214E+01</totfact>
</mgrwt>
</event>
<event>
 4    1  0.3057048E-007  0.7974546E+03  0.7818608E-02  0.9716327E-01
          2   -1    0    0  501    0  0.00000000000E+00  0.00000000000E+00  0.12167455057E+04  0.12167455057E+04  0.25500000000E-02 0. -1.
         -2   -1    0    0    0  501 -0.00000000000E+00 -0.00000000000E+00 -0.42545998291E+03  0.42545998292E+03  0.25500000000E-02 0.  1.
    8880023    1    1    2    0    0  0.42525395213E+03  0.14588614041E+03  0.10025547842E+03  0.80373195593E+03  0.65864270000E+03 0.  1.
    8880022    1    1    2    0    0 -0.42525395213E+03 -0.14588614041E+03  0.69103004433E+03  0.83847353265E+03  0.15294330000E+03 0.  0.
<mgrwt>
<rscale>  0 0.70052962E+03</rscale>
<asrwt>0</asrwt>
<pdfrwt beam="1">  1        2 0.18719161E+00 0.79745464E+03</pdfrwt>
<pdfrwt beam="2">  1       -2 0.65455383E-01 0.79745464E+03</pdfrwt>
<totfact> 0.40355065E+01</totfact>
</mgrwt>
</event>
<event>
 4    1  0.3057048E-007  0.9048507E+03  0.7818608E-02  0.9518289E-01
          2   -1    0    0  501    0  0.00000000000E+00  0.00000000000E+00  0.10002412603E+04  0.10002412603E+04  0.25500000000E-02 0. -1.
         -2   -1    0    0    0  501 -0.00000000000E+00 -0.00000000000E+00 -0.11448399554E+04  0.11448399554E+04  0.25500000000E-02 0.  1.
    8880023    1    1    2    0    0  0.61794156416E+03 -0.55613513017E+02  0.65826565834E+03  0.11189586779E+04  0.65864270000E+03 0.  0.
    8880022    1    1    2    0    0 -0.61794156416E+03  0.55613513017E+02 -0.80286435345E+03  0.10261225378E+04  0.15294330000E+03 0.  0.
<mgrwt>
<rscale>  0 0.82948771E+03</rscale>
<asrwt>0</asrwt>
<pdfrwt beam="1">  1        2 0.15388327E+00 0.90485073E+03</pdfrwt>
<pdfrwt beam="2">  1       -2 0.17612922E+00 0.90485073E+03</pdfrwt>
<totfact> 0.48647778E+00</totfact>
</mgrwt>
</event>
<event>
 4    1  0.3057048E-007  0.8232586E+03  0.7818608E-02  0.9662594E-01
         -2   -1    0    0    0  501 -0.00000000000E+00  0.00000000000E+00  0.55704490464E+03  0.55704490465E+03  0.25500000000E-02 0.  1.
          2   -1    0    0  501    0  0.00000000000E+00 -0.00000000000E+00 -0.11991095331E+04  0.11991095331E+04  0.25500000000E-02 0. -1.
    8880023    1    1    2    0    0  0.24524681110E+02  0.49329814814E+03  0.12337080449E+03  0.83245125059E+03  0.65864270000E+03 0.  1.
    8880022    1    1    2    0    0 -0.24524681110E+02 -0.49329814814E+03 -0.76543543292E+03  0.92370318714E+03  0.15294330000E+03 0.  0.
<mgrwt>
<rscale>  0 0.73288262E+03</rscale>
<asrwt>0</asrwt>
<pdfrwt beam="1">  1        2 0.18447839E+00 0.82325860E+03</pdfrwt>
<pdfrwt beam="2">  1       -2 0.85699216E-01 0.82325860E+03</pdfrwt>
<totfact> 0.22678648E+01</totfact>
</mgrwt>
</event>
<event>
 4    1  0.3057048E-007  0.8429775E+03  0.7818608E-02  0.9624591E-01
         -2   -1    0    0    0  501 -0.00000000000E+00  0.00000000000E+00  0.23189907374E+04  0.23189907374E+04  0.25500000000E-02 0.  1.
          2   -1    0    0  501    0  0.00000000000E+00 -0.00000000000E+00 -0.71329077876E+03  0.71329077877E+03  0.25500000000E-02 0. -1.
    8880023    1    1    2    0    0  0.38038203060E+02 -0.52474187602E+03  0.21196088211E+04  0.22810858603E+04  0.65864270000E+03 0.  1.
    8880022    1    1    2    0    0 -0.38038203060E+02  0.52474187602E+03 -0.51390886251E+03  0.75119565582E+03  0.15294330000E+03 0.  0.
<mgrwt>
<rscale>  0 0.75689738E+03</rscale>
<asrwt>0</asrwt>
<pdfrwt beam="1">  1        2 0.10973704E+00 0.84297755E+03</pdfrwt>
<pdfrwt beam="2">  1       -2 0.35676781E+00 0.84297755E+03</pdfrwt>
<totfact> 0.58611257E-01</totfact>
</mgrwt>
</event>
<event>
 4    1  0.3057048E-007  0.7564996E+03  0.7818608E-02  0.9814255E-01
          2   -1    0    0  501    0  0.00000000000E+00  0.00000000000E+00  0.13902294942E+04  0.13902294942E+04  0.25500000000E-02 0. -1.
         -2   -1    0    0    0  501 -0.00000000000E+00 -0.00000000000E+00 -0.35919653902E+03  0.35919653903E+03  0.25500000000E-02 0.  1.
    8880023    1    1    2    0    0 -0.28686804834E+03 -0.23704054494E+03  0.11061919766E+04  0.13401314832E+04  0.65864270000E+03 0. -1.
    8880022    1    1    2    0    0  0.28686804834E+03  0.23704054494E+03 -0.75159021419E+02  0.40929454995E+03  0.15294330000E+03 0.  0.
<mgrwt>
<rscale>  0 0.64603106E+03</rscale>
<asrwt>0</asrwt>
<pdfrwt beam="1">  1        2 0.21388146E+00 0.75649964E+03</pdfrwt>
<pdfrwt beam="2">  1       -2 0.55261006E-01 0.75649964E+03</pdfrwt>
<totfact> 0.46017568E+01</totfact>
</mgrwt>
</event>
<event>
 4    1  0.3057048E-007  0.6673858E+03  0.7818608E-02  0.1017611E+00
          2   -1    0    0  501    0  0.00000000000E+00  0.00000000000E+00  0.13442920870E+04  0.13442920870E+04  0.25500000000E-02 0. -1.
         -2   -1    0    0    0  501 -0.00000000000E+00 -0.00000000000E+00 -0.30956224903E+03  0.30956224904E+03  0.25500000000E-02 0.  1.
    8880023    1    1    2    0    0 -0.75465561272E+02  0.76802166791E+02  0.69871467867E+02  0.67103342096E+03  0.65864270000E+03 0.  1.
    8880022    1    1    2    0    0  0.75465561272E+02 -0.76802166791E+02  0.96485837012E+03  0.98282091510E+03  0.15294330000E+03 0.  0.
<mgrwt>
<rscale>  0 0.48558850E+03</rscale>
<asrwt>0</asrwt>
<pdfrwt beam="1">  1        2 0.20681417E+00 0.66738582E+03</pdfrwt>
<pdfrwt beam="2">  1       -2 0.47624961E-01 0.66738582E+03</pdfrwt>
<totfact> 0.66842952E+01</totfact>
</mgrwt>
</event>
<event>
 4    1  0.3057048E-007  0.8836291E+03  0.7818608E-02  0.9552840E-01
          2   -1    0    0  501    0  0.00000000000E+00  0.00000000000E+00  0.28237223506E+04  0.28237223506E+04  0.25500000000E-02 0. -1.
         -2   -1    0    0    0  501 -0.00000000000E+00 -0.00000000000E+00 -0.19967821763E+03  0.19967821765E+03  0.25500000000E-02 0.  1.
    8880023    1    1    2    0    0  0.27018949213E+03 -0.52343839897E+03  0.17182070560E+04  0.19321065739E+04  0.65864270000E+03 0. -1.
    8880022    1    1    2    0    0 -0.27018949213E+03  0.52343839897E+03  0.90583707693E+03  0.10912939944E+04  0.15294330000E+03 0.  1.
<mgrwt>
<rscale>  0 0.80497741E+03</rscale>
<asrwt>0</asrwt>
<pdfrwt beam="1">  1        2 0.43441883E+00 0.88362907E+03</pdfrwt>
<pdfrwt beam="2">  1       -2 0.30719725E-01 0.88362907E+03</pdfrwt>
<totfact> 0.22666313E+01</totfact>
</mgrwt>
</event>
<event>
 4    1  0.3057048E-007  0.9601108E+03  0.7818608E-02  0.9435714E-01
         -2   -1    0    0    0  501 -0.00000000000E+00  0.00000000000E+00  0.15593215961E+04  0.15593215961E+04  0.25500000000E-02 0.  1.
          2   -1    0    0  501    0  0.00000000000E+00 -0.00000000000E+00 -0.58442475783E+03  0.58442475784E+03  0.25500000000E-02 0. -1.
    8880023    1    1    2    0    0 -0.65038268573E+03  0.25496073562E+03  0.10522639633E+04  0.14244550780E+04  0.65864270000E+03 0.  1.
    8880022    1    1    2    0    0  0.65038268573E+03 -0.25496073562E+03 -0.77367125005E+02  0.71929127594E+03  0.15294330000E+03 0.  0.
<mgrwt>
<rscale>  0 0.89193973E+03</rscale>
<asrwt>0</asrwt>
<pdfrwt beam="1">  1        2 0.89911500E-01 0.96011084E+03</pdfrwt>
<pdfrwt beam="2">  1       -2 0.23989563E+00 0.96011084E+03</pdfrwt>
<totfact> 0.38060934E+00</totfact>
</mgrwt>
</event>
<event>
 4    1  0.3057048E-007  0.6712066E+03  0.7818608E-02  0.1014812E+00
          2   -1    0    0  501    0  0.00000000000E+00  0.00000000000E+00  0.45422870062E+03  0.45422870062E+03  0.25500000000E-02 0. -1.
         -2   -1    0    0    0  501 -0.00000000000E+00 -0.00000000000E+00 -0.52673947818E+03  0.52673947818E+03  0.25500000000E-02 0.  1.
    8880023    1    1    2    0    0  0.10457111855E+03  0.75979812154E+02 -0.24715112309E+03  0.71526354206E+03  0.65864270000E+03 0.  1.
    8880022    1    1    2    0    0 -0.10457111855E+03 -0.75979812154E+02  0.17464034552E+03  0.26570463675E+03  0.15294330000E+03 0.  0.
<mgrwt>
<rscale>  0 0.49606067E+03</rscale>
<asrwt>0</asrwt>
<pdfrwt beam="1">  1        2 0.69881338E-01 0.67120657E+03</pdfrwt>
<pdfrwt beam="2">  1       -2 0.81036843E-01 0.67120657E+03</pdfrwt>
<totfact> 0.93802177E+01</totfact>
</mgrwt>
</event>
<event>
 4    1  0.3057048E-007  0.7038209E+03  0.7818608E-02  0.9981705E-01
          2   -1    0    0  501    0  0.00000000000E+00  0.00000000000E+00  0.68218110374E+03  0.68218110374E+03  0.25500000000E-02 0. -1.
         -2   -1    0    0    0  501 -0.00000000000E+00 -0.00000000000E+00 -0.48259742024E+03  0.48259742025E+03  0.25500000000E-02 0.  1.
    8880023    1    1    2    0    0 -0.90128074272E+02 -0.23115064237E+03 -0.13964529422E+03  0.71754073313E+03  0.65864270000E+03 0.  0.
    8880022    1    1    2    0    0  0.90128074272E+02  0.23115064237E+03  0.33922897772E+03  0.44723779087E+03  0.15294330000E+03 0.  0.
<mgrwt>
<rscale>  0 0.56459766E+03</rscale>
<asrwt>0</asrwt>
<pdfrwt beam="1">  1        2 0.10495094E+00 0.70382093E+03</pdfrwt>
<pdfrwt beam="2">  1       -2 0.74245758E-01 0.70382093E+03</pdfrwt>
<totfact> 0.70209032E+01</totfact>
</mgrwt>
</event>
<event>
 4    1  0.3057048E-007  0.6860330E+03  0.7818608E-02  0.1006098E+00
          2   -1    0    0  501    0  0.00000000000E+00  0.00000000000E+00  0.13093055324E+04  0.13093055324E+04  0.25500000000E-02 0. -1.
         -2   -1    0    0    0  501 -0.00000000000E+00 -0.00000000000E+00 -0.39824942658E+03  0.39824942659E+03  0.25500000000E-02 0.  1.
    8880023    1    1    2    0    0 -0.13014004729E+02  0.19147248528E+03 -0.76203687714E+02  0.69025233446E+03  0.65864270000E+03 0.  1.
    8880022    1    1    2    0    0  0.13014004729E+02 -0.19147248528E+03  0.98725979355E+03  0.10173026245E+04  0.15294330000E+03 0.  0.
<mgrwt>
<rscale>  0 0.53055305E+03</rscale>
<asrwt>0</asrwt>
<pdfrwt beam="1">  1        2 0.20143162E+00 0.68603300E+03</pdfrwt>
<pdfrwt beam="2">  1       -2 0.61269143E-01 0.68603300E+03</pdfrwt>
<totfact> 0.41522003E+01</totfact>
</mgrwt>
</event>
<event>
 4    1  0.3057048E-007  0.9257058E+03  0.7818608E-02  0.9485965E-01
          2   -1    0    0  501    0  0.00000000000E+00  0.00000000000E+00  0.43204582876E+04  0.43204582876E+04  0.25500000000E-02 0. -1.
         -2   -1    0    0    0  501 -0.00000000000E+00 -0.00000000000E+00 -0.42478774139E+03  0.42478774139E+03  0.25500000000E-02 0.  1.
    8880023    1    1    2    0    0  0.64606247717E+03  0.75659568335E+02  0.14678224301E+03  0.93727068012E+03  0.65864270000E+03 0.  1.
    8880022    1    1    2    0    0 -0.64606247717E+03 -0.75659568335E+02  0.37488883032E+04  0.38079753488E+04  0.15294330000E+03 0.  0.
<mgrwt>
<rscale>  0 0.85326511E+03</rscale>
<asrwt>0</asrwt>
<pdfrwt beam="1">  1        2 0.66468588E+00 0.92570584E+03</pdfrwt>
<pdfrwt beam="2">  1       -2 0.65351961E-01 0.92570584E+03</pdfrwt>
<totfact> 0.42525354E-01</totfact>
</mgrwt>
</event>
<event>
 4    1  0.3057048E-007  0.8973263E+03  0.7818608E-02  0.9530338E-01
         -2   -1    0    0    0  501 -0.00000000000E+00  0.00000000000E+00  0.33893332892E+03  0.33893332893E+03  0.25500000000E-02 0.  1.
          2   -1    0    0  501    0  0.00000000000E+00 -0.00000000000E+00 -0.21805252375E+04  0.21805252375E+04  0.25500000000E-02 0. -1.
    8880023    1    1    2    0    0 -0.46699188234E+03  0.39153902795E+03 -0.47487527945E+03  0.10152344389E+04  0.65864270000E+03 0.  0.
    8880022    1    1    2    0    0  0.46699188234E+03 -0.39153902795E+03 -0.13667166291E+04  0.15042241275E+04  0.15294330000E+03 0.  0.
<mgrwt>
<rscale>  0 0.82083641E+03</rscale>
<asrwt>0</asrwt>
<pdfrwt beam="1">  1        2 0.33546541E+00 0.89732627E+03</pdfrwt>
<pdfrwt beam="2">  1       -2 0.52143591E-01 0.89732627E+03</pdfrwt>
<totfact> 0.18723793E+01</totfact>
</mgrwt>
</event>
<event>
 4    1  0.3057048E-007  0.8002282E+03  0.7818608E-02  0.9710303E-01
          2   -1    0    0  501    0  0.00000000000E+00  0.00000000000E+00  0.11283777531E+04  0.11283777531E+04  0.25500000000E-02 0. -1.
         -2   -1    0    0    0  501 -0.00000000000E+00 -0.00000000000E+00 -0.88180912530E+03  0.88180912530E+03  0.25500000000E-02 0.  1.
    8880023    1    1    2    0    0 -0.41708386180E+03  0.18054351291E+03 -0.62502311156E+03  0.10153910597E+04  0.65864270000E+03 0.  1.
    8880022    1    1    2    0    0  0.41708386180E+03 -0.18054351291E+03  0.87159173936E+03  0.99479581873E+03  0.15294330000E+03 0.  0.
<mgrwt>
<rscale>  0 0.70406659E+03</rscale>
<asrwt>0</asrwt>
<pdfrwt beam="1">  1        2 0.17359658E+00 0.80022816E+03</pdfrwt>
<pdfrwt beam="2">  1       -2 0.13566294E+00 0.80022816E+03</pdfrwt>
<totfact> 0.82598523E+00</totfact>
</mgrwt>
</event>
<event>
 4    1  0.3057048E-007  0.8240550E+03  0.7818608E-02  0.9661012E-01
         -2   -1    0    0    0  501 -0.00000000000E+00  0.00000000000E+00  0.62572076319E+03  0.62572076319E+03  0.25500000000E-02 0.  1.
          2   -1    0    0  501    0  0.00000000000E+00 -0.00000000000E+00 -0.20713319543E+04  0.20713319543E+04  0.25500000000E-02 0. -1.
    8880023    1    1    2    0    0 -0.26044906514E+03  0.42121571268E+03  0.29934841428E+03  0.87674173593E+03  0.65864270000E+03 0.  0.
    8880022    1    1    2    0    0  0.26044906514E+03 -0.42121571268E+03 -0.17449596054E+04  0.18203109816E+04  0.15294330000E+03 0. -1.
<mgrwt>
<rscale>  0 0.73386318E+03</rscale>
<asrwt>0</asrwt>
<pdfrwt beam="1">  1        2 0.31866645E+00 0.82405497E+03</pdfrwt>
<pdfrwt beam="2">  1       -2 0.96264734E-01 0.82405497E+03</pdfrwt>
<totfact> 0.56507796E+00</totfact>
</mgrwt>
</event>
<event>
 4    1  0.3214220E-007  0.7117208E+03  0.7818608E-02  0.9951665E-01
         -2   -1    0    0    0  501 -0.00000000000E+00  0.00000000000E+00  0.73170593737E+03  0.73170593738E+03  0.25500000000E-02 0.  1.
          2   -1    0    0  501    0  0.00000000000E+00 -0.00000000000E+00 -0.20199804417E+04  0.20199804417E+04  0.25500000000E-02 0. -1.
    8880023    1    1    2    0    0  0.12014815201E+03  0.24145552381E+03  0.54246249965E+03  0.89488106372E+03  0.65864270000E+03 0.  1.
    8880022    1    1    2    0    0 -0.12014815201E+03 -0.24145552381E+03 -0.18307370040E+04  0.18568053154E+04  0.15294330000E+03 0.  0.
<mgrwt>
<rscale>  0 0.57821386E+03</rscale>
<asrwt>0</asrwt>
<pdfrwt beam="1">  1        2 0.31076622E+00 0.71172084E+03</pdfrwt>
<pdfrwt beam="2">  1       -2 0.11257015E+00 0.71172084E+03</pdfrwt>
<totfact> 0.42219429E+00</totfact>
</mgrwt>
</event>
<event>
 4    1  0.3057048E-007  0.1310684E+04  0.7818608E-02  0.9056388E-01
         -2   -1    0    0    0  501 -0.00000000000E+00  0.00000000000E+00  0.15545934552E+04  0.15545934552E+04  0.25500000000E-02 0.  1.
          2   -1    0    0  501    0  0.00000000000E+00 -0.00000000000E+00 -0.22533756962E+04  0.22533756962E+04  0.25500000000E-02 0. -1.
    8880023    1    1    2    0    0  0.11025750645E+04 -0.26155194137E+03  0.10766453623E+04  0.16961888554E+04  0.65864270000E+03 0.  0.
    8880022    1    1    2    0    0 -0.11025750645E+04  0.26155194137E+03 -0.17754276033E+04  0.21117802960E+04  0.15294330000E+03 0.  0.
<mgrwt>
<rscale>  0 0.12667108E+04</rscale>
<asrwt>0</asrwt>
<pdfrwt beam="1">  1        2 0.34667318E+00 0.13106836E+04</pdfrwt>
<pdfrwt beam="2">  1       -2 0.23916822E+00 0.13106836E+04</pdfrwt>
<totfact> 0.34651947E-01</totfact>
</mgrwt>
</event>
<event>
 4    1  0.3057048E-007  0.6959155E+03  0.7818608E-02  0.1001459E+00
          2   -1    0    0  501    0  0.00000000000E+00  0.00000000000E+00  0.10994184445E+04  0.10994184445E+04  0.25500000000E-02 0. -1.
         -2   -1    0    0    0  501 -0.00000000000E+00 -0.00000000000E+00 -0.41868715499E+03  0.41868715500E+03  0.25500000000E-02 0.  1.
    8880023    1    1    2    0    0  0.21325960976E+03 -0.70770381057E+02 -0.89196004776E+02  0.70160832486E+03  0.65864270000E+03 0.  1.
    8880022    1    1    2    0    0 -0.21325960976E+03  0.70770381057E+02  0.76992729426E+03  0.81649727461E+03  0.15294330000E+03 0.  0.
<mgrwt>
<rscale>  0 0.55015244E+03</rscale>
<asrwt>0</asrwt>
<pdfrwt beam="1">  1        2 0.16914130E+00 0.69591545E+03</pdfrwt>
<pdfrwt beam="2">  1       -2 0.64413410E-01 0.69591545E+03</pdfrwt>
<totfact> 0.49595183E+01</totfact>
</mgrwt>
</event>
<event>
 4    1  0.3057048E-007  0.7675214E+03  0.7818608E-02  0.9786011E-01
          2   -1    0    0  501    0  0.00000000000E+00  0.00000000000E+00  0.65336243385E+03  0.65336243386E+03  0.25500000000E-02 0. -1.
         -2   -1    0    0    0  501 -0.00000000000E+00 -0.00000000000E+00 -0.57588425573E+03  0.57588425574E+03  0.25500000000E-02 0.  1.
    8880023    1    1    2    0    0 -0.25284263712E+03 -0.30224081735E+03  0.19227966155E+03  0.79123990377E+03  0.65864270000E+03 0.  1.
    8880022    1    1    2    0    0  0.25284263712E+03  0.30224081735E+03 -0.11480148343E+03  0.43800678582E+03  0.15294330000E+03 0.  0.
<mgrwt>
<rscale>  0 0.66118730E+03</rscale>
<asrwt>0</asrwt>
<pdfrwt beam="1">  1        2 0.10051730E+00 0.76752141E+03</pdfrwt>
<pdfrwt beam="2">  1       -2 0.88597578E-01 0.76752141E+03</pdfrwt>
<totfact> 0.49509472E+01</totfact>
</mgrwt>
</event>
<event>
 4    1  0.3057048E-007  0.7580771E+03  0.7818608E-02  0.9810111E-01
         -2   -1    0    0    0  501 -0.00000000000E+00  0.00000000000E+00  0.11423586538E+03  0.11423586541E+03  0.25500000000E-02 0.  1.
          2   -1    0    0  501    0  0.00000000000E+00 -0.00000000000E+00 -0.31064688910E+04  0.31064688910E+04  0.25500000000E-02 0. -1.
    8880023    1    1    2    0    0 -0.96338259699E+02  0.36275292411E+03 -0.15968988130E+04  0.17677009842E+04  0.65864270000E+03 0.  1.
    8880022    1    1    2    0    0  0.96338259699E+02 -0.36275292411E+03 -0.13953342126E+04  0.14530037722E+04  0.15294330000E+03 0. -1.
<mgrwt>
<rscale>  0 0.64822730E+03</rscale>
<asrwt>0</asrwt>
<pdfrwt beam="1">  1        2 0.47791823E+00 0.75807714E+03</pdfrwt>
<pdfrwt beam="2">  1       -2 0.17574751E-01 0.75807714E+03</pdfrwt>
<totfact> 0.42163931E+01</totfact>
</mgrwt>
</event>
<event>
 4    1  0.3386986E-007  0.9620508E+03  0.7818608E-02  0.9432984E-01
          2   -1    0    0  501    0  0.00000000000E+00  0.00000000000E+00  0.15431416580E+04  0.15431416580E+04  0.25500000000E-02 0. -1.
         -2   -1    0    0    0  501 -0.00000000000E+00 -0.00000000000E+00 -0.16485310351E+04  0.16485310351E+04  0.25500000000E-02 0.  1.
    8880023    1    1    2    0    0  0.66793877321E+03 -0.21351654052E+03 -0.14074906753E+04  0.17048670697E+04  0.65864270000E+03 0.  0.
    8880022    1    1    2    0    0 -0.66793877321E+03  0.21351654052E+03  0.13021012982E+04  0.14868056234E+04  0.15294330000E+03 0.  0.
<mgrwt>
<rscale>  0 0.89410266E+03</rscale>
<asrwt>0</asrwt>
<pdfrwt beam="1">  1        2 0.23740641E+00 0.96205079E+03</pdfrwt>
<pdfrwt beam="2">  1       -2 0.25362016E+00 0.96205079E+03</pdfrwt>
<totfact> 0.73636291E-01</totfact>
</mgrwt>
</event>
<event>
 4    1  0.3057048E-007  0.6814728E+03  0.7818608E-02  0.1008503E+00
         -2   -1    0    0    0  501 -0.00000000000E+00  0.00000000000E+00  0.17911179965E+04  0.17911179965E+04  0.25500000000E-02 0.  1.
          2   -1    0    0  501    0  0.00000000000E+00 -0.00000000000E+00 -0.31374751948E+03  0.31374751949E+03  0.25500000000E-02 0. -1.
    8880023    1    1    2    0    0  0.11203636743E+03 -0.13432351606E+03  0.16695892323E+04  0.18033117771E+04  0.65864270000E+03 0.  1.
    8880022    1    1    2    0    0 -0.11203636743E+03  0.13432351606E+03 -0.19221875522E+03  0.30155373894E+03  0.15294330000E+03 0.  0.
<mgrwt>
<rscale>  0 0.52074144E+03</rscale>
<asrwt>0</asrwt>
<pdfrwt beam="1">  1        2 0.48268849E-01 0.68147279E+03</pdfrwt>
<pdfrwt beam="2">  1       -2 0.27555662E+00 0.68147279E+03</pdfrwt>
<totfact> 0.48827342E+00</totfact>
</mgrwt>
</event>
<event>
 4    1  0.3057048E-007  0.8161822E+03  0.7818608E-02  0.9676841E-01
         -2   -1    0    0    0  501 -0.00000000000E+00  0.00000000000E+00  0.16217685752E+03  0.16217685754E+03  0.25500000000E-02 0.  1.
          2   -1    0    0  501    0  0.00000000000E+00 -0.00000000000E+00 -0.27073323526E+04  0.27073323526E+04  0.25500000000E-02 0. -1.
    8880023    1    1    2    0    0 -0.46298864391E+03 -0.13410677466E+03 -0.16691913718E+04  0.18580509017E+04  0.65864270000E+03 0.  0.
    8880022    1    1    2    0    0  0.46298864391E+03  0.13410677466E+03 -0.87596412331E+03  0.10114583085E+04  0.15294330000E+03 0. -1.
<mgrwt>
<rscale>  0 0.72412584E+03</rscale>
<asrwt>0</asrwt>
<pdfrwt beam="1">  1        2 0.41651264E+00 0.81618216E+03</pdfrwt>
<pdfrwt beam="2">  1       -2 0.24950288E-01 0.81618216E+03</pdfrwt>
<totfact> 0.39253183E+01</totfact>
</mgrwt>
</event>
<event>
 4    1  0.3057048E-007  0.8020119E+03  0.7818608E-02  0.9706463E-01
         -2   -1    0    0    0  501 -0.00000000000E+00  0.00000000000E+00  0.48446763982E+03  0.48446763982E+03  0.25500000000E-02 0.  1.
          2   -1    0    0  501    0  0.00000000000E+00 -0.00000000000E+00 -0.30630104464E+04  0.30630104464E+04  0.25500000000E-02 0. -1.
    8880023    1    1    2    0    0 -0.39129907212E+03 -0.23727193505E+03  0.11575112607E+03  0.81032182771E+03  0.65864270000E+03 0.  1.
    8880022    1    1    2    0    0  0.39129907212E+03  0.23727193505E+03 -0.26942939326E+04  0.27371562585E+04  0.15294330000E+03 0.  0.
<mgrwt>
<rscale>  0 0.70633311E+03</rscale>
<asrwt>0</asrwt>
<pdfrwt beam="1">  1        2 0.47123236E+00 0.80201193E+03</pdfrwt>
<pdfrwt beam="2">  1       -2 0.74533485E-01 0.80201193E+03</pdfrwt>
<totfact> 0.27228433E+00</totfact>
</mgrwt>
</event>
<event>
 4    1  0.3057048E-007  0.8960483E+03  0.7818608E-02  0.9532405E-01
         -2   -1    0    0    0  501 -0.00000000000E+00  0.00000000000E+00  0.10273061896E+04  0.10273061896E+04  0.25500000000E-02 0.  1.
          2   -1    0    0  501    0  0.00000000000E+00 -0.00000000000E+00 -0.64151282607E+03  0.64151282607E+03  0.25500000000E-02 0. -1.
    8880023    1    1    2    0    0  0.53109404610E+03  0.29501093449E+03 -0.62862028282E+02  0.89825062101E+03  0.65864270000E+03 0. -1.
    8880022    1    1    2    0    0 -0.53109404610E+03 -0.29501093449E+03  0.44865539186E+03  0.77056839472E+03  0.15294330000E+03 0.  1.
<mgrwt>
<rscale>  0 0.81936292E+03</rscale>
<asrwt>0</asrwt>
<pdfrwt beam="1">  1        2 0.98694281E-01 0.89604829E+03</pdfrwt>
<pdfrwt beam="2">  1       -2 0.15804711E+00 0.89604829E+03</pdfrwt>
<totfact> 0.11919453E+01</totfact>
</mgrwt>
</event>
<event>
 4    1  0.3057048E-007  0.9717404E+03  0.7818608E-02  0.9419501E-01
         -2   -1    0    0    0  501 -0.00000000000E+00  0.00000000000E+00  0.76399202817E+03  0.76399202817E+03  0.25500000000E-02 0.  1.
          2   -1    0    0  501    0  0.00000000000E+00 -0.00000000000E+00 -0.15368378559E+04  0.15368378559E+04  0.25500000000E-02 0. -1.
    8880023    1    1    2    0    0  0.30472953032E+03  0.64622682117E+03  0.28726755890E+03  0.10133124137E+04  0.65864270000E+03 0. -1.
    8880022    1    1    2    0    0 -0.30472953032E+03 -0.64622682117E+03 -0.10601133867E+04  0.12875174704E+04  0.15294330000E+03 0.  0.
<mgrwt>
<rscale>  0 0.90488044E+03</rscale>
<asrwt>0</asrwt>
<pdfrwt beam="1">  1        2 0.23643659E+00 0.97174040E+03</pdfrwt>
<pdfrwt beam="2">  1       -2 0.11753724E+00 0.97174040E+03</pdfrwt>
<totfact> 0.67469212E+00</totfact>
</mgrwt>
</event>
<event>
 4    1  0.3057048E-007  0.7128148E+03  0.7818608E-02  0.9947693E-01
         -2   -1    0    0    0  501 -0.00000000000E+00  0.00000000000E+00  0.12282411248E+03  0.12282411251E+03  0.25500000000E-02 0.  1.
          2   -1    0    0  501    0  0.00000000000E+00 -0.00000000000E+00 -0.21698190804E+04  0.21698190804E+04  0.25500000000E-02 0. -1.
    8880023    1    1    2    0    0 -0.20911144194E+03  0.17483479198E+03 -0.12936498832E+04  0.14770358920E+04  0.65864270000E+03 0.  0.
    8880022    1    1    2    0    0  0.20911144194E+03 -0.17483479198E+03 -0.75334508473E+03  0.81560730093E+03  0.15294330000E+03 0.  0.
<mgrwt>
<rscale>  0 0.58004521E+03</rscale>
<asrwt>0</asrwt>
<pdfrwt beam="1">  1        2 0.33381829E+00 0.71281485E+03</pdfrwt>
<pdfrwt beam="2">  1       -2 0.18896019E-01 0.71281485E+03</pdfrwt>
<totfact> 0.13073202E+02</totfact>
</mgrwt>
</event>
<event>
 4    1  0.3057048E-007  0.1486965E+04  0.7818608E-02  0.8918895E-01
         -2   -1    0    0    0  501 -0.00000000000E+00  0.00000000000E+00  0.10876740155E+04  0.10876740155E+04  0.25500000000E-02 0.  1.
          2   -1    0    0  501    0  0.00000000000E+00 -0.00000000000E+00 -0.41687885013E+04  0.41687885013E+04  0.25500000000E-02 0. -1.
    8880023    1    1    2    0    0  0.12909317235E+04  0.33279290208E+03  0.38809475912E+03  0.15367770101E+04  0.65864270000E+03 0.  0.
    8880022    1    1    2    0    0 -0.12909317235E+04 -0.33279290208E+03 -0.34692092449E+04  0.37196855067E+04  0.15294330000E+03 0.  0.
<mgrwt>
<rscale>  0 0.14492864E+04</rscale>
<asrwt>0</asrwt>
<pdfrwt beam="1">  1        2 0.64135207E+00 0.14869654E+04</pdfrwt>
<pdfrwt beam="2">  1       -2 0.16733447E+00 0.14869654E+04</pdfrwt>
<totfact> 0.53113900E-02</totfact>
</mgrwt>
</event>
<event>
 4    1  0.3057048E-007  0.6721010E+03  0.7818608E-02  0.1014199E+00
          2   -1    0    0  501    0  0.00000000000E+00  0.00000000000E+00  0.43833378869E+03  0.43833378870E+03  0.25500000000E-02 0. -1.
         -2   -1    0    0    0  501 -0.00000000000E+00 -0.00000000000E+00 -0.81016303376E+03  0.81016303376E+03  0.25500000000E-02 0.  1.
    8880023    1    1    2    0    0  0.13362680191E+03 -0.73074922161E+01 -0.62913454578E+03  0.92061392809E+03  0.65864270000E+03 0.  1.
    8880022    1    1    2    0    0 -0.13362680191E+03  0.73074922161E+01  0.25730530071E+03  0.32788289437E+03  0.15294330000E+03 0.  0.
<mgrwt>
<rscale>  0 0.49839215E+03</rscale>
<asrwt>0</asrwt>
<pdfrwt beam="1">  1        2 0.67435968E-01 0.67210098E+03</pdfrwt>
<pdfrwt beam="2">  1       -2 0.12464047E+00 0.67210098E+03</pdfrwt>
<totfact> 0.35230896E+01</totfact>
</mgrwt>
</event>
<event>
 4    1  0.3057048E-007  0.9503525E+03  0.7818608E-02  0.9449607E-01
         -2   -1    0    0    0  501 -0.00000000000E+00  0.00000000000E+00  0.24471426970E+04  0.24471426970E+04  0.25500000000E-02 0.  1.
          2   -1    0    0  501    0  0.00000000000E+00 -0.00000000000E+00 -0.60337416449E+03  0.60337416449E+03  0.25500000000E-02 0. -1.
    8880023    1    1    2    0    0 -0.30497170424E+02 -0.68441922191E+03 -0.12668765629E+03  0.95875946788E+03  0.65864270000E+03 0. -1.
    8880022    1    1    2    0    0  0.30497170424E+02  0.68441922191E+03  0.19704561888E+04  0.20917573936E+04  0.15294330000E+03 0.  0.
<mgrwt>
<rscale>  0 0.88103272E+03</rscale>
<asrwt>0</asrwt>
<pdfrwt beam="1">  1        2 0.92826795E-01 0.95035254E+03</pdfrwt>
<pdfrwt beam="2">  1       -2 0.37648349E+00 0.95035254E+03</pdfrwt>
<totfact> 0.53235600E-01</totfact>
</mgrwt>
</event>
<event>
 4    1  0.3057048E-007  0.6689550E+03  0.7818608E-02  0.1016423E+00
          2   -1    0    0  501    0  0.00000000000E+00  0.00000000000E+00  0.67897551584E+03  0.67897551584E+03  0.25500000000E-02 0. -1.
         -2   -1    0    0    0  501 -0.00000000000E+00 -0.00000000000E+00 -0.41232598748E+03  0.41232598748E+03  0.25500000000E-02 0.  1.
    8880023    1    1    2    0    0  0.11459349370E+03  0.23641277203E+02 -0.10074556735E+03  0.67649867287E+03  0.65864270000E+03 0.  1.
    8880022    1    1    2    0    0 -0.11459349370E+03 -0.23641277203E+02  0.36739509572E+03  0.41480283046E+03  0.15294330000E+03 0.  0.
<mgrwt>
<rscale>  0 0.48999699E+03</rscale>
<asrwt>0</asrwt>
<pdfrwt beam="1">  1        2 0.10445777E+00 0.66895499E+03</pdfrwt>
<pdfrwt beam="2">  1       -2 0.63434768E-01 0.66895499E+03</pdfrwt>
<totfact> 0.99628762E+01</totfact>
</mgrwt>
</event>
<event>
 4    1  0.3057048E-007  0.1030460E+04  0.7818608E-02  0.9342749E-01
         -2   -1    0    0    0  501 -0.00000000000E+00  0.00000000000E+00  0.16630441615E+04  0.16630441615E+04  0.25500000000E-02 0.  1.
          2   -1    0    0  501    0  0.00000000000E+00 -0.00000000000E+00 -0.89163943931E+03  0.89163943931E+03  0.25500000000E-02 0. -1.
    8880023    1    1    2    0    0  0.38957061699E+03 -0.69012429393E+03  0.12471566359E+04  0.16177906810E+04  0.65864270000E+03 0.  0.
    8880022    1    1    2    0    0 -0.38957061699E+03  0.69012429393E+03 -0.47575191376E+03  0.93689291979E+03  0.15294330000E+03 0.  0.
<mgrwt>
<rscale>  0 0.96940794E+03</rscale>
<asrwt>0</asrwt>
<pdfrwt beam="1">  1        2 0.13717530E+00 0.10304596E+04</pdfrwt>
<pdfrwt beam="2">  1       -2 0.25585295E+00 0.10304596E+04</pdfrwt>
<totfact> 0.17470320E+00</totfact>
</mgrwt>
</event>
<event>
 4    1  0.3057048E-007  0.9302030E+03  0.7818608E-02  0.9479189E-01
          2   -1    0    0  501    0  0.00000000000E+00  0.00000000000E+00  0.11153024928E+04  0.11153024928E+04  0.25500000000E-02 0. -1.
         -2   -1    0    0    0  501 -0.00000000000E+00 -0.00000000000E+00 -0.72788975450E+03  0.72788975450E+03  0.25500000000E-02 0.  1.
    8880023    1    1    2    0    0 -0.53468134402E+03 -0.38155365969E+03 -0.19693814413E+03  0.95082184122E+03  0.65864270000E+03 0.  0.
    8880022    1    1    2    0    0  0.53468134402E+03  0.38155365969E+03  0.58435088247E+03  0.89237040612E+03  0.15294330000E+03 0.  0.
<mgrwt>
<rscale>  0 0.85835686E+03</rscale>
<asrwt>0</asrwt>
<pdfrwt beam="1">  1        2 0.17158500E+00 0.93020296E+03</pdfrwt>
<pdfrwt beam="2">  1       -2 0.11198304E+00 0.93020296E+03</pdfrwt>
<totfact> 0.13403691E+01</totfact>
</mgrwt>
</event>
<event>
 4    1  0.3057048E-007  0.6797785E+03  0.7818608E-02  0.1009449E+00
         -2   -1    0    0    0  501 -0.00000000000E+00  0.00000000000E+00  0.15437756846E+04  0.15437756846E+04  0.25500000000E-02 0.  1.
          2   -1    0    0  501    0  0.00000000000E+00 -0.00000000000E+00 -0.14798509553E+03  0.14798509555E+03  0.25500000000E-02 0. -1.
    8880023    1    1    2    0    0 -0.33004288848E+01  0.16815994859E+03  0.12464390882E+04  0.14197567637E+04  0.65864270000E+03 0.  0.
    8880022    1    1    2    0    0  0.33004288848E+01 -0.16815994859E+03  0.14935150082E+03  0.27200401643E+03  0.15294330000E+03 0.  0.
<mgrwt>
<rscale>  0 0.51694130E+03</rscale>
<asrwt>0</asrwt>
<pdfrwt beam="1">  1        2 0.22766940E-01 0.67977854E+03</pdfrwt>
<pdfrwt beam="2">  1       -2 0.23750393E+00 0.67977854E+03</pdfrwt>
<totfact> 0.19305510E+01</totfact>
</mgrwt>
</event>
<event>
 4    1  0.3057048E-007  0.7999868E+03  0.7818608E-02  0.9710825E-01
         -2   -1    0    0    0  501 -0.00000000000E+00  0.00000000000E+00  0.39392673670E+03  0.39392673670E+03  0.25500000000E-02 0.  1.
          2   -1    0    0  501    0  0.00000000000E+00 -0.00000000000E+00 -0.17980957489E+04  0.17980957489E+04  0.25500000000E-02 0. -1.
    8880023    1    1    2    0    0  0.45395512218E+03  0.96679002447E+01 -0.10441614968E+03  0.80677237176E+03  0.65864270000E+03 0.  1.
    8880022    1    1    2    0    0 -0.45395512218E+03 -0.96679002447E+01 -0.12997528625E+04  0.13852501138E+04  0.15294330000E+03 0.  0.
<mgrwt>
<rscale>  0 0.70375946E+03</rscale>
<asrwt>0</asrwt>
<pdfrwt beam="1">  1        2 0.27663011E+00 0.79998683E+03</pdfrwt>
<pdfrwt beam="2">  1       -2 0.60604114E-01 0.79998683E+03</pdfrwt>
<totfact> 0.22436740E+01</totfact>
</mgrwt>
</event>
<event>
 4    1  0.3057048E-007  0.6767324E+03  0.7818608E-02  0.1011236E+00
         -2   -1    0    0    0  501 -0.00000000000E+00  0.00000000000E+00  0.36161739778E+03  0.36161739779E+03  0.25500000000E-02 0.  1.
          2   -1    0    0  501    0  0.00000000000E+00 -0.00000000000E+00 -0.20708729210E+04  0.20708729210E+04  0.25500000000E-02 0. -1.
    8880023    1    1    2    0    0 -0.15542319810E+03  0.47135669768E+00  0.32140320257E+02  0.67749523920E+03  0.65864270000E+03 0.  1.
    8880022    1    1    2    0    0  0.15542319810E+03 -0.47135669768E+00 -0.17413958434E+04  0.17549950795E+04  0.15294330000E+03 0.  0.
<mgrwt>
<rscale>  0 0.50986425E+03</rscale>
<asrwt>0</asrwt>
<pdfrwt beam="1">  1        2 0.31859583E+00 0.67673244E+03</pdfrwt>
<pdfrwt beam="2">  1       -2 0.55633447E-01 0.67673244E+03</pdfrwt>
<totfact> 0.19390683E+01</totfact>
</mgrwt>
</event>
<event>
 4    1  0.3057048E-007  0.8161810E+03  0.7818608E-02  0.9676843E-01
          2   -1    0    0  501    0  0.00000000000E+00  0.00000000000E+00  0.17674916938E+04  0.17674916938E+04  0.25500000000E-02 0. -1.
         -2   -1    0    0    0  501 -0.00000000000E+00 -0.00000000000E+00 -0.35057124877E+03  0.35057124877E+03  0.25500000000E-02 0.  1.
    8880023    1    1    2    0    0 -0.46847870037E+03  0.11344141372E+03  0.26187273344E+03  0.85716321773E+03  0.65864270000E+03 0.  1.
    8880022    1    1    2    0    0  0.46847870037E+03 -0.11344141372E+03  0.11550477116E+04  0.12608997248E+04  0.15294330000E+03 0.  0.
<mgrwt>
<rscale>  0 0.72412442E+03</rscale>
<asrwt>0</asrwt>
<pdfrwt beam="1">  1        2 0.27192180E+00 0.81618102E+03</pdfrwt>
<pdfrwt beam="2">  1       -2 0.53934038E-01 0.81618102E+03</pdfrwt>
<totfact> 0.29709485E+01</totfact>
</mgrwt>
</event>
<event>
 4    1  0.3057048E-007  0.8553195E+03  0.7818608E-02  0.9601944E-01
         -2   -1    0    0    0  501 -0.00000000000E+00  0.00000000000E+00  0.29692905199E+03  0.29692905200E+03  0.25500000000E-02 0.  1.
          2   -1    0    0  501    0  0.00000000000E+00 -0.00000000000E+00 -0.33040159192E+04  0.33040159192E+04  0.25500000000E-02 0. -1.
    8880023    1    1    2    0    0  0.31412813468E+03  0.44618911189E+03 -0.29009160194E+04  0.30243817825E+04  0.65864270000E+03 0.  0.
    8880022    1    1    2    0    0 -0.31412813468E+03 -0.44618911189E+03 -0.10617084778E+03  0.57656318864E+03  0.15294330000E+03 0.  0.
<mgrwt>
<rscale>  0 0.77167645E+03</rscale>
<asrwt>0</asrwt>
<pdfrwt beam="1">  1        2 0.50831012E+00 0.85531948E+03</pdfrwt>
<pdfrwt beam="2">  1       -2 0.45681395E-01 0.85531948E+03</pdfrwt>
<totfact> 0.53087736E+00</totfact>
</mgrwt>
</event>
<event>
 4    1  0.3057048E-007  0.1146149E+04  0.7818608E-02  0.9211335E-01
          2   -1    0    0  501    0  0.00000000000E+00  0.00000000000E+00  0.99399672424E+03  0.99399672424E+03  0.25500000000E-02 0. -1.
         -2   -1    0    0    0  501 -0.00000000000E+00 -0.00000000000E+00 -0.13127803491E+04  0.13127803491E+04  0.25500000000E-02 0.  1.
    8880023    1    1    2    0    0  0.89783172282E+03 -0.27155957573E+03 -0.62854477678E+03  0.13071821405E+04  0.65864270000E+03 0.  1.
    8880022    1    1    2    0    0 -0.89783172282E+03  0.27155957573E+03  0.30976115188E+03  0.99959493291E+03  0.15294330000E+03 0.  0.
<mgrwt>
<rscale>  0 0.10937195E+04</rscale>
<asrwt>0</asrwt>
<pdfrwt beam="1">  1        2 0.15292257E+00 0.11461486E+04</pdfrwt>
<pdfrwt beam="2">  1       -2 0.20196621E+00 0.11461486E+04</pdfrwt>
<totfact> 0.32076322E+00</totfact>
</mgrwt>
</event>
<event>
 4    1  0.3057048E-007  0.8420420E+03  0.7818608E-02  0.9626342E-01
          2   -1    0    0  501    0  0.00000000000E+00  0.00000000000E+00  0.24326280429E+04  0.24326280429E+04  0.25500000000E-02 0. -1.
         -2   -1    0    0    0  501 -0.00000000000E+00 -0.00000000000E+00 -0.36737525648E+03  0.36737525649E+03  0.25500000000E-02 0.  1.
    8880023    1    1    2    0    0  0.52461793638E+03 -0.73214231856E+00  0.21263725928E+03  0.86847528779E+03  0.65864270000E+03 0.  0.
    8880022    1    1    2    0    0 -0.52461793638E+03  0.73214231856E+00  0.18526155272E+04  0.19315280116E+04  0.15294330000E+03 0.  0.
<mgrwt>
<rscale>  0 0.75576970E+03</rscale>
<asrwt>0</asrwt>
<pdfrwt beam="1">  1        2 0.37425048E+00 0.84204200E+03</pdfrwt>
<pdfrwt beam="2">  1       -2 0.56519269E-01 0.84204200E+03</pdfrwt>
<totfact> 0.11537578E+01</totfact>
</mgrwt>
</event>
<event>
 4    1  0.3057048E-007  0.7392685E+03  0.7818608E-02  0.9862083E-01
         -2   -1    0    0    0  501 -0.00000000000E+00  0.00000000000E+00  0.93744398869E+03  0.93744398869E+03  0.25500000000E-02 0.  1.
          2   -1    0    0  501    0  0.00000000000E+00 -0.00000000000E+00 -0.69423134673E+03  0.69423134673E+03  0.25500000000E-02 0. -1.
    8880023    1    1    2    0    0 -0.32093413738E+03 -0.98534519649E+02  0.71790159976E+03  0.10304856551E+04  0.65864270000E+03 0.  1.
    8880022    1    1    2    0    0  0.32093413738E+03  0.98534519649E+02 -0.47468895780E+03  0.60118968036E+03  0.15294330000E+03 0.  0.
<mgrwt>
<rscale>  0 0.62134629E+03</rscale>
<asrwt>0</asrwt>
<pdfrwt beam="1">  1        2 0.10680482E+00 0.73926854E+03</pdfrwt>
<pdfrwt beam="2">  1       -2 0.14422215E+00 0.73926854E+03</pdfrwt>
<totfact> 0.13979586E+01</totfact>
</mgrwt>
</event>
<event>
 4    1  0.3057048E-007  0.8685027E+03  0.7818608E-02  0.9578614E-01
          2   -1    0    0  501    0  0.00000000000E+00  0.00000000000E+00  0.31687249647E+04  0.31687249647E+04  0.25500000000E-02 0. -1.
         -2   -1    0    0    0  501 -0.00000000000E+00 -0.00000000000E+00 -0.29124390430E+03  0.29124390431E+03  0.25500000000E-02 0.  1.
    8880023    1    1    2    0    0 -0.54918110015E+03  0.13742955389E+03  0.27163599505E+04  0.28518254417E+04  0.65864270000E+03 0. -1.
    8880022    1    1    2    0    0  0.54918110015E+03 -0.13742955389E+03  0.16112110984E+03  0.60814342724E+03  0.15294330000E+03 0.  0.
<mgrwt>
<rscale>  0 0.78727960E+03</rscale>
<asrwt>0</asrwt>
<pdfrwt beam="1">  1        2 0.48749614E+00 0.86850272E+03</pdfrwt>
<pdfrwt beam="2">  1       -2 0.44806755E-01 0.86850272E+03</pdfrwt>
<totfact> 0.67288816E+00</totfact>
</mgrwt>
</event>
<event>
 4    1  0.3057048E-007  0.8854076E+03  0.7818608E-02  0.9549875E-01
          2   -1    0    0  501    0  0.00000000000E+00  0.00000000000E+00  0.87114474995E+03  0.87114474995E+03  0.25500000000E-02 0. -1.
         -2   -1    0    0    0  501 -0.00000000000E+00 -0.00000000000E+00 -0.69206243205E+03  0.69206243205E+03  0.25500000000E-02 0.  1.
    8880023    1    1    2    0    0  0.28100619319E+03  0.52074165117E+03  0.31012084891E+03  0.93814790682E+03  0.65864270000E+03 0. -1.
    8880022    1    1    2    0    0 -0.28100619319E+03 -0.52074165117E+03 -0.13103853102E+03  0.62505927519E+03  0.15294330000E+03 0.  0.
<mgrwt>
<rscale>  0 0.80704512E+03</rscale>
<asrwt>0</asrwt>
<pdfrwt beam="1">  1        2 0.13402227E+00 0.88540756E+03</pdfrwt>
<pdfrwt beam="2">  1       -2 0.10647114E+00 0.88540756E+03</pdfrwt>
<totfact> 0.21873925E+01</totfact>
</mgrwt>
</event>
<event>
 4    1  0.3057048E-007  0.8530131E+03  0.7818608E-02  0.9606115E-01
          2   -1    0    0  501    0  0.00000000000E+00  0.00000000000E+00  0.37598102838E+04  0.37598102838E+04  0.25500000000E-02 0. -1.
         -2   -1    0    0    0  501 -0.00000000000E+00 -0.00000000000E+00 -0.25298414806E+03  0.25298414808E+03  0.25500000000E-02 0.  1.
    8880023    1    1    2    0    0 -0.29491359858E+03  0.45480438328E+03  0.33069013992E+04  0.34151468677E+04  0.65864270000E+03 0. -1.
    8880022    1    1    2    0    0  0.29491359858E+03 -0.45480438328E+03  0.19992473654E+03  0.59764756418E+03  0.15294330000E+03 0.  0.
<mgrwt>
<rscale>  0 0.76892783E+03</rscale>
<asrwt>0</asrwt>
<pdfrwt beam="1">  1        2 0.57843229E+00 0.85301305E+03</pdfrwt>
<pdfrwt beam="2">  1       -2 0.38920642E-01 0.85301305E+03</pdfrwt>
<totfact> 0.35261499E+00</totfact>
</mgrwt>
</event>
<event>
 4    1  0.3057048E-007  0.6588364E+03  0.7818608E-02  0.1025382E+00
          2   -1    0    0  501    0  0.00000000000E+00  0.00000000000E+00  0.24653304618E+04  0.24653304618E+04  0.25500000000E-02 0. -1.
         -2   -1    0    0    0  501 -0.00000000000E+00 -0.00000000000E+00 -0.19796798944E+03  0.19796798946E+03  0.25500000000E-02 0.  1.
    8880023    1    1    2    0    0 -0.15951410063E+02 -0.82839196237E+00  0.36199383065E+03  0.75173457644E+03  0.65864270000E+03 0.  1.
    8880022    1    1    2    0    0  0.15951410063E+02  0.82839196237E+00  0.19053686417E+04  0.19115638748E+04  0.15294330000E+03 0.  0.
<mgrwt>
<rscale>  0 0.45793589E+03</rscale>
<asrwt>0</asrwt>
<pdfrwt beam="1">  1        2 0.37928160E+00 0.65883635E+03</pdfrwt>
<pdfrwt beam="2">  1       -2 0.30456615E-01 0.65883635E+03</pdfrwt>
<totfact> 0.38350616E+01</totfact>
</mgrwt>
</event>
<event>
 4    1  0.3057048E-007  0.6901950E+03  0.7818608E-02  0.1004060E+00
          2   -1    0    0  501    0  0.00000000000E+00  0.00000000000E+00  0.21669085442E+04  0.21669085442E+04  0.25500000000E-02 0. -1.
         -2   -1    0    0    0  501 -0.00000000000E+00 -0.00000000000E+00 -0.19044950637E+03  0.19044950639E+03  0.25500000000E-02 0.  1.
    8880023    1    1    2    0    0 -0.20496846128E+03  0.23384104669E+02  0.48404917541E+03  0.84301405501E+03  0.65864270000E+03 0.  0.
    8880022    1    1    2    0    0  0.20496846128E+03 -0.23384104669E+02  0.14924098624E+04  0.15143439955E+04  0.15294330000E+03 0.  0.
<mgrwt>
<rscale>  0 0.53905259E+03</rscale>
<asrwt>0</asrwt>
<pdfrwt beam="1">  1        2 0.33337052E+00 0.69019497E+03</pdfrwt>
<pdfrwt beam="2">  1       -2 0.29299926E-01 0.69019497E+03</pdfrwt>
<totfact> 0.60047063E+01</totfact>
</mgrwt>
</event>
<event>
 4    1  0.3057048E-007  0.7037596E+03  0.7818608E-02  0.9981949E-01
         -2   -1    0    0    0  501 -0.00000000000E+00  0.00000000000E+00  0.42394821558E+03  0.42394821559E+03  0.25500000000E-02 0.  1.
          2   -1    0    0  501    0  0.00000000000E+00 -0.00000000000E+00 -0.16197019778E+04  0.16197019778E+04  0.25500000000E-02 0. -1.
    8880023    1    1    2    0    0  0.20358052041E+03 -0.14150007845E+03  0.10422248041E+03  0.71143505127E+03  0.65864270000E+03 0.  1.
    8880022    1    1    2    0    0 -0.20358052041E+03  0.14150007845E+03 -0.12999762426E+04  0.13322151421E+04  0.15294330000E+03 0.  0.
<mgrwt>
<rscale>  0 0.56448894E+03</rscale>
<asrwt>0</asrwt>
<pdfrwt beam="1">  1        2 0.24918492E+00 0.70375955E+03</pdfrwt>
<pdfrwt beam="2">  1       -2 0.65222803E-01 0.70375955E+03</pdfrwt>
<totfact> 0.24312432E+01</totfact>
</mgrwt>
</event>
<event>
 4    1  0.3057048E-007  0.6994476E+03  0.7818608E-02  0.9999500E-01
          2   -1    0    0  501    0  0.00000000000E+00  0.00000000000E+00  0.21276890693E+04  0.21276890693E+04  0.25500000000E-02 0. -1.
         -2   -1    0    0    0  501 -0.00000000000E+00 -0.00000000000E+00 -0.29467503131E+03  0.29467503132E+03  0.25500000000E-02 0.  1.
    8880023    1    1    2    0    0 -0.19769094959E+03 -0.12780852166E+03  0.14903915600E+03  0.71515005841E+03  0.65864270000E+03 0.  1.
    8880022    1    1    2    0    0  0.19769094959E+03  0.12780852166E+03  0.16839748820E+04  0.17072140422E+04  0.15294330000E+03 0.  0.
<mgrwt>
<rscale>  0 0.55672143E+03</rscale>
<asrwt>0</asrwt>
<pdfrwt beam="1">  1        2 0.32733678E+00 0.69944759E+03</pdfrwt>
<pdfrwt beam="2">  1       -2 0.45334621E-01 0.69944759E+03</pdfrwt>
<totfact> 0.27287949E+01</totfact>
</mgrwt>
</event>
<event>
 4    1  0.3057048E-007  0.7015266E+03  0.7818608E-02  0.9990926E-01
          2   -1    0    0  501    0  0.00000000000E+00  0.00000000000E+00  0.23131916514E+04  0.23131916514E+04  0.25500000000E-02 0. -1.
         -2   -1    0    0    0  501 -0.00000000000E+00 -0.00000000000E+00 -0.32311163861E+03  0.32311163862E+03  0.25500000000E-02 0.  1.
    8880023    1    1    2    0    0  0.10012322296E+03 -0.21978320509E+03  0.81284436676E+02  0.70621999612E+03  0.65864270000E+03 0.  1.
    8880022    1    1    2    0    0 -0.10012322296E+03  0.21978320509E+03  0.19087955761E+04  0.19300832939E+04  0.15294330000E+03 0.  0.
<mgrwt>
<rscale>  0 0.56049892E+03</rscale>
<asrwt>0</asrwt>
<pdfrwt beam="1">  1        2 0.35587565E+00 0.70152657E+03</pdfrwt>
<pdfrwt beam="2">  1       -2 0.49709482E-01 0.70152657E+03</pdfrwt>
<totfact> 0.17910028E+01</totfact>
</mgrwt>
</event>
<event>
 4    1  0.3057048E-007  0.8863183E+03  0.7818608E-02  0.9548362E-01
         -2   -1    0    0    0  501 -0.00000000000E+00  0.00000000000E+00  0.49803891171E+03  0.49803891172E+03  0.25500000000E-02 0.  1.
          2   -1    0    0  501    0  0.00000000000E+00 -0.00000000000E+00 -0.14220241677E+04  0.14220241677E+04  0.25500000000E-02 0. -1.
    8880023    1    1    2    0    0 -0.58880329565E+03 -0.71137360249E+02 -0.97932028789E+02  0.89171224816E+03  0.65864270000E+03 0.  1.
    8880022    1    1    2    0    0  0.58880329565E+03  0.71137360249E+02 -0.82605322724E+03  0.10283508313E+04  0.15294330000E+03 0.  0.
<mgrwt>
<rscale>  0 0.80810289E+03</rscale>
<asrwt>0</asrwt>
<pdfrwt beam="1">  1        2 0.21877295E+00 0.88631826E+03</pdfrwt>
<pdfrwt beam="2">  1       -2 0.76621372E-01 0.88631826E+03</pdfrwt>
<totfact> 0.21564289E+01</totfact>
</mgrwt>
</event>
<event>
 4    1  0.3057048E-007  0.7185717E+03  0.7818608E-02  0.9927449E-01
         -2   -1    0    0    0  501 -0.00000000000E+00  0.00000000000E+00  0.15566920337E+04  0.15566920337E+04  0.25500000000E-02 0.  1.
          2   -1    0    0  501    0  0.00000000000E+00 -0.00000000000E+00 -0.45931396769E+03  0.45931396770E+03  0.25500000000E-02 0. -1.
    8880023    1    1    2    0    0 -0.20910019488E+02 -0.28652729923E+03 -0.14383984215E+03  0.73282687490E+03  0.65864270000E+03 0.  0.
    8880022    1    1    2    0    0  0.20910019488E+02  0.28652729923E+03  0.12412179082E+04  0.12831791265E+04  0.15294330000E+03 0.  0.
<mgrwt>
<rscale>  0 0.58949254E+03</rscale>
<asrwt>0</asrwt>
<pdfrwt beam="1">  1        2 0.70663687E-01 0.71857173E+03</pdfrwt>
<pdfrwt beam="2">  1       -2 0.23949108E+00 0.71857173E+03</pdfrwt>
<totfact> 0.52241007E+00</totfact>
</mgrwt>
</event>
<event>
 4    1  0.3444766E-007  0.8755394E+03  0.7818608E-02  0.9566498E-01
          2   -1    0    0  501    0  0.00000000000E+00  0.00000000000E+00  0.21104533809E+04  0.21104533809E+04  0.25500000000E-02 0. -1.
         -2   -1    0    0    0  501 -0.00000000000E+00 -0.00000000000E+00 -0.89687193425E+03  0.89687193426E+03  0.25500000000E-02 0.  1.
    8880023    1    1    2    0    0  0.48306315516E+03 -0.31529201825E+03 -0.62407590137E+03  0.10751930085E+04  0.65864270000E+03 0.  1.
    8880022    1    1    2    0    0 -0.48306315516E+03  0.31529201825E+03  0.18376573480E+04  0.19321323067E+04  0.15294330000E+03 0.  0.
<mgrwt>
<rscale>  0 0.79553814E+03</rscale>
<asrwt>0</asrwt>
<pdfrwt beam="1">  1        2 0.32468513E+00 0.87553942E+03</pdfrwt>
<pdfrwt beam="2">  1       -2 0.13798030E+00 0.87553942E+03</pdfrwt>
<totfact> 0.22011195E+00</totfact>
</mgrwt>
</event>
<event>
 4    1  0.3057048E-007  0.8503885E+03  0.7818608E-02  0.9610895E-01
         -2   -1    0    0    0  501 -0.00000000000E+00  0.00000000000E+00  0.33534695726E+03  0.33534695726E+03  0.25500000000E-02 0.  1.
          2   -1    0    0  501    0  0.00000000000E+00 -0.00000000000E+00 -0.26969680680E+04  0.26969680680E+04  0.25500000000E-02 0. -1.
    8880023    1    1    2    0    0 -0.47064913867E+03  0.26046068661E+03 -0.30885856004E+03  0.90473985066E+03  0.65864270000E+03 0.  1.
    8880022    1    1    2    0    0  0.47064913867E+03 -0.26046068661E+03 -0.20527625507E+04  0.21275751746E+04  0.15294330000E+03 0.  0.
<mgrwt>
<rscale>  0 0.76579286E+03</rscale>
<asrwt>0</asrwt>
<pdfrwt beam="1">  1        2 0.41491815E+00 0.85038849E+03</pdfrwt>
<pdfrwt beam="2">  1       -2 0.51591841E-01 0.85038849E+03</pdfrwt>
<totfact> 0.98160697E+00</totfact>
</mgrwt>
</event>
<event>
 4    1  0.3057048E-007  0.7492408E+03  0.7818608E-02  0.9833803E-01
         -2   -1    0    0    0  501 -0.00000000000E+00  0.00000000000E+00  0.65627916154E+03  0.65627916154E+03  0.25500000000E-02 0.  1.
          2   -1    0    0  501    0  0.00000000000E+00 -0.00000000000E+00 -0.75322985804E+03  0.75322985804E+03  0.25500000000E-02 0. -1.
    8880023    1    1    2    0    0  0.18184704983E+03  0.30738111360E+03  0.34175243958E+03  0.82350254083E+03  0.65864270000E+03 0.  1.
    8880022    1    1    2    0    0 -0.18184704983E+03 -0.30738111360E+03 -0.43870313608E+03  0.58600647876E+03  0.15294330000E+03 0.  0.
<mgrwt>
<rscale>  0 0.63579590E+03</rscale>
<asrwt>0</asrwt>
<pdfrwt beam="1">  1        2 0.11588152E+00 0.74924075E+03</pdfrwt>
<pdfrwt beam="2">  1       -2 0.10096602E+00 0.74924075E+03</pdfrwt>
<totfact> 0.30522713E+01</totfact>
</mgrwt>
</event>
<event>
 4    1  0.3057048E-007  0.8676151E+03  0.7818608E-02  0.9580158E-01
         -2   -1    0    0    0  501 -0.00000000000E+00  0.00000000000E+00  0.35257150488E+04  0.35257150488E+04  0.25500000000E-02 0.  1.
          2   -1    0    0  501    0  0.00000000000E+00 -0.00000000000E+00 -0.41727749561E+03  0.41727749562E+03  0.25500000000E-02 0. -1.
    8880023    1    1    2    0    0  0.21216987164E+03  0.52338301768E+03  0.32307738264E+04  0.33452437223E+04  0.65864270000E+03 0.  0.
    8880022    1    1    2    0    0 -0.21216987164E+03 -0.52338301768E+03 -0.12233627322E+03  0.59774882216E+03  0.15294330000E+03 0.  0.
<mgrwt>
<rscale>  0 0.78623460E+03</rscale>
<asrwt>0</asrwt>
<pdfrwt beam="1">  1        2 0.64196537E-01 0.86761515E+03</pdfrwt>
<pdfrwt beam="2">  1       -2 0.54241771E+00 0.86761515E+03</pdfrwt>
<totfact> 0.72288928E-02</totfact>
</mgrwt>
</event>
<event>
 4    1  0.3057048E-007  0.7205504E+03  0.7818608E-02  0.9920728E-01
          2   -1    0    0  501    0  0.00000000000E+00  0.00000000000E+00  0.69544903060E+03  0.69544903060E+03  0.25500000000E-02 0. -1.
         -2   -1    0    0    0  501 -0.00000000000E+00 -0.00000000000E+00 -0.56240731682E+03  0.56240731683E+03  0.25500000000E-02 0.  1.
    8880023    1    1    2    0    0 -0.75271581213E+02 -0.28234178501E+03 -0.24042916606E+03  0.75960455808E+03  0.65864270000E+03 0.  1.
    8880022    1    1    2    0    0  0.75271581213E+02  0.28234178501E+03  0.37347087983E+03  0.49825178936E+03  0.15294330000E+03 0.  0.
<mgrwt>
<rscale>  0 0.59267156E+03</rscale>
<asrwt>0</asrwt>
<pdfrwt beam="1">  1        2 0.10699216E+00 0.72055042E+03</pdfrwt>
<pdfrwt beam="2">  1       -2 0.86524203E-01 0.72055042E+03</pdfrwt>
<totfact> 0.48525851E+01</totfact>
</mgrwt>
</event>
<event>
 4    1  0.3057048E-007  0.8719874E+03  0.7818608E-02  0.9572586E-01
         -2   -1    0    0    0  501 -0.00000000000E+00  0.00000000000E+00  0.46306681612E+03  0.46306681613E+03  0.25500000000E-02 0.  1.
          2   -1    0    0  501    0  0.00000000000E+00 -0.00000000000E+00 -0.14219318171E+04  0.14219318171E+04  0.25500000000E-02 0. -1.
    8880023    1    1    2    0    0  0.55534168449E+03  0.13471245009E+03 -0.15298531430E+03  0.88530590385E+03  0.65864270000E+03 0.  0.
    8880022    1    1    2    0    0 -0.55534168449E+03 -0.13471245009E+03 -0.80587968664E+03  0.99969272934E+03  0.15294330000E+03 0.  0.
<mgrwt>
<rscale>  0 0.79137513E+03</rscale>
<asrwt>0</asrwt>
<pdfrwt beam="1">  1        2 0.21875874E+00 0.87198741E+03</pdfrwt>
<pdfrwt beam="2">  1       -2 0.71241049E-01 0.87198741E+03</pdfrwt>
<totfact> 0.25375289E+01</totfact>
</mgrwt>
</event>
<event>
 4    1  0.3057048E-007  0.6814451E+03  0.7818608E-02  0.1008518E+00
          2   -1    0    0  501    0  0.00000000000E+00  0.00000000000E+00  0.13814744597E+04  0.13814744597E+04  0.25500000000E-02 0. -1.
         -2   -1    0    0    0  501 -0.00000000000E+00 -0.00000000000E+00 -0.37561250621E+03  0.37561250622E+03  0.25500000000E-02 0.  1.
    8880023    1    1    2    0    0  0.17271835467E+03  0.26935748387E+02 -0.43014076992E+02  0.68280127538E+03  0.65864270000E+03 0.  1.
    8880022    1    1    2    0    0 -0.17271835467E+03 -0.26935748387E+02  0.10488760305E+04  0.10742856906E+04  0.15294330000E+03 0.  0.
<mgrwt>
<rscale>  0 0.52067998E+03</rscale>
<asrwt>0</asrwt>
<pdfrwt beam="1">  1        2 0.21253453E+00 0.68144506E+03</pdfrwt>
<pdfrwt beam="2">  1       -2 0.57786540E-01 0.68144506E+03</pdfrwt>
<totfact> 0.42748411E+01</totfact>
</mgrwt>
</event>
<event>
 4    1  0.3057048E-007  0.6894097E+03  0.7818608E-02  0.1004434E+00
          2   -1    0    0  501    0  0.00000000000E+00  0.00000000000E+00  0.15655792308E+04  0.15655792308E+04  0.25500000000E-02 0. -1.
         -2   -1    0    0    0  501 -0.00000000000E+00 -0.00000000000E+00 -0.34291884505E+03  0.34291884506E+03  0.25500000000E-02 0.  1.
    8880023    1    1    2    0    0  0.20210139829E+03  0.25111536650E+02  0.31194995996E+02  0.69011513424E+03  0.65864270000E+03 0.  1.
    8880022    1    1    2    0    0 -0.20210139829E+03 -0.25111536650E+02  0.11914653897E+04  0.12183829416E+04  0.15294330000E+03 0.  0.
<mgrwt>
<rscale>  0 0.53747864E+03</rscale>
<asrwt>0</asrwt>
<pdfrwt beam="1">  1        2 0.24085834E+00 0.68940973E+03</pdfrwt>
<pdfrwt beam="2">  1       -2 0.52756747E-01 0.68940973E+03</pdfrwt>
<totfact> 0.40727715E+01</totfact>
</mgrwt>
</event>
<event>
 4    1  0.3057048E-007  0.1013832E+04  0.7818608E-02  0.9363681E-01
          2   -1    0    0  501    0  0.00000000000E+00  0.00000000000E+00  0.22536381355E+04  0.22536381355E+04  0.25500000000E-02 0. -1.
         -2   -1    0    0    0  501 -0.00000000000E+00 -0.00000000000E+00 -0.93947752131E+03  0.93947752131E+03  0.25500000000E-02 0.  1.
    8880023    1    1    2    0    0 -0.11890747532E+02 -0.77065133858E+03  0.19397554954E+04  0.21887225644E+04  0.65864270000E+03 0. -1.
    8880022    1    1    2    0    0  0.11890747532E+02  0.77065133858E+03 -0.62559488128E+03  0.10043930924E+04  0.15294330000E+03 0.  0.
<mgrwt>
<rscale>  0 0.95125838E+03</rscale>
<asrwt>0</asrwt>
<pdfrwt beam="1">  1        2 0.34671356E+00 0.10138319E+04</pdfrwt>
<pdfrwt beam="2">  1       -2 0.14453500E+00 0.10138319E+04</pdfrwt>
<totfact> 0.15909110E+00</totfact>
</mgrwt>
</event>
<event>
 4    1  0.3057048E-007  0.6765247E+03  0.7818608E-02  0.1011362E+00
          2   -1    0    0  501    0  0.00000000000E+00  0.00000000000E+00  0.16645245458E+04  0.16645245458E+04  0.25500000000E-02 0. -1.
         -2   -1    0    0    0  501 -0.00000000000E+00 -0.00000000000E+00 -0.19248832520E+03  0.19248832521E+03  0.25500000000E-02 0.  1.
    8880023    1    1    2    0    0  0.14246622536E+03  0.59823044129E+02  0.45096629452E+03  0.81305364339E+03  0.65864270000E+03 0.  1.
    8880022    1    1    2    0    0 -0.14246622536E+03 -0.59823044129E+02  0.10210699261E+04  0.10439592277E+04  0.15294330000E+03 0.  0.
<mgrwt>
<rscale>  0 0.50936907E+03</rscale>
<asrwt>0</asrwt>
<pdfrwt beam="1">  1        2 0.25608069E+00 0.67652467E+03</pdfrwt>
<pdfrwt beam="2">  1       -2 0.29613590E-01 0.67652467E+03</pdfrwt>
<totfact> 0.11073926E+02</totfact>
</mgrwt>
</event>
<event>
 4    1  0.3057048E-007  0.1158780E+04  0.7818608E-02  0.9198272E-01
         -2   -1    0    0    0  501 -0.00000000000E+00  0.00000000000E+00  0.13459203065E+04  0.13459203066E+04  0.25500000000E-02 0.  1.
          2   -1    0    0  501    0  0.00000000000E+00 -0.00000000000E+00 -0.15696674290E+04  0.15696674290E+04  0.25500000000E-02 0. -1.
    8880023    1    1    2    0    0  0.87503392230E+03 -0.37851759315E+03  0.87560582352E+03  0.14523965361E+04  0.65864270000E+03 0.  1.
    8880022    1    1    2    0    0 -0.87503392230E+03  0.37851759315E+03 -0.10993529460E+04  0.14631911995E+04  0.15294330000E+03 0.  0.
<mgrwt>
<rscale>  0 0.11071287E+04</rscale>
<asrwt>0</asrwt>
<pdfrwt beam="1">  1        2 0.24148730E+00 0.11587796E+04</pdfrwt>
<pdfrwt beam="2">  1       -2 0.20706466E+00 0.11587796E+04</pdfrwt>
<totfact> 0.13521358E+00</totfact>
</mgrwt>
</event>
<event>
 4    1  0.3057048E-007  0.9868636E+03  0.7818608E-02  0.9398949E-01
         -2   -1    0    0    0  501 -0.00000000000E+00  0.00000000000E+00  0.51270167535E+03  0.51270167536E+03  0.25500000000E-02 0.  1.
          2   -1    0    0  501    0  0.00000000000E+00 -0.00000000000E+00 -0.25093672002E+04  0.25093672002E+04  0.25500000000E-02 0. -1.
    8880023    1    1    2    0    0  0.25758556432E+03 -0.68828721097E+03 -0.11173782392E+03  0.99316924806E+03  0.65864270000E+03 0.  1.
    8880022    1    1    2    0    0 -0.25758556432E+03  0.68828721097E+03 -0.18849277009E+04  0.20288996275E+04  0.15294330000E+03 0.  0.
<mgrwt>
<rscale>  0 0.92162191E+03</rscale>
<asrwt>0</asrwt>
<pdfrwt beam="1">  1        2 0.38605649E+00 0.98686362E+03</pdfrwt>
<pdfrwt beam="2">  1       -2 0.78877182E-01 0.98686362E+03</pdfrwt>
<totfact> 0.49659426E+00</totfact>
</mgrwt>
</event>
<event>
 4    1  0.3057048E-007  0.6660631E+03  0.7818608E-02  0.1018658E+00
         -2   -1    0    0    0  501 -0.00000000000E+00  0.00000000000E+00  0.60095655687E+03  0.60095655687E+03  0.25500000000E-02 0.  1.
          2   -1    0    0  501    0  0.00000000000E+00 -0.00000000000E+00 -0.61353807419E+03  0.61353807419E+03  0.25500000000E-02 0. -1.
    8880023    1    1    2    0    0  0.31147830686E+02  0.94126065023E+02  0.39051703470E+03  0.77210340248E+03  0.65864270000E+03 0.  1.
    8880022    1    1    2    0    0 -0.31147830686E+02 -0.94126065023E+02 -0.40309855202E+03  0.44239122858E+03  0.15294330000E+03 0.  0.
<mgrwt>
<rscale>  0 0.48174149E+03</rscale>
<asrwt>0</asrwt>
<pdfrwt beam="1">  1        2 0.94390473E-01 0.66606314E+03</pdfrwt>
<pdfrwt beam="2">  1       -2 0.92454855E-01 0.66606314E+03</pdfrwt>
<totfact> 0.48833900E+01</totfact>
</mgrwt>
</event>
<event>
 4    1  0.3057048E-007  0.1526193E+04  0.7818608E-02  0.8891358E-01
         -2   -1    0    0    0  501 -0.00000000000E+00  0.00000000000E+00  0.89980674903E+03  0.89980674903E+03  0.25500000000E-02 0.  1.
          2   -1    0    0  501    0  0.00000000000E+00 -0.00000000000E+00 -0.31881070765E+04  0.31881070765E+04  0.25500000000E-02 0. -1.
    8880023    1    1    2    0    0  0.14151066032E+03 -0.13694637831E+04 -0.22289914145E+04  0.27014198586E+04  0.65864270000E+03 0. -1.
    8880022    1    1    2    0    0 -0.14151066032E+03  0.13694637831E+04 -0.59308913023E+02  0.13864939670E+04  0.15294330000E+03 0.  1.
<mgrwt>
<rscale>  0 0.14896604E+04</rscale>
<asrwt>0</asrwt>
<pdfrwt beam="1">  1        2 0.49047801E+00 0.15261935E+04</pdfrwt>
<pdfrwt beam="2">  1       -2 0.13843181E+00 0.15261935E+04</pdfrwt>
<totfact> 0.46297764E-01</totfact>
</mgrwt>
</event>
<event>
 4    1  0.5758761E-007  0.8002744E+03  0.7818608E-02  0.9710203E-01
          2   -1    0    0  501    0  0.00000000000E+00  0.00000000000E+00  0.18455823856E+04  0.18455823856E+04  0.25500000000E-02 0. -1.
         -2   -1    0    0    0  501 -0.00000000000E+00 -0.00000000000E+00 -0.16274972513E+04  0.16274972513E+04  0.25500000000E-02 0.  1.
    8880023    1    1    2    0    0  0.43434498156E+03 -0.13406484544E+03 -0.14941353720E+04  0.16949571269E+04  0.65864270000E+03 0.  0.
    8880022    1    1    2    0    0 -0.43434498156E+03  0.13406484544E+03  0.17122205062E+04  0.17781225100E+04  0.15294330000E+03 0.  0.
<mgrwt>
<rscale>  0 0.70412545E+03</rscale>
<asrwt>0</asrwt>
<pdfrwt beam="1">  1        2 0.28393575E+00 0.80027442E+03</pdfrwt>
<pdfrwt beam="2">  1       -2 0.25038419E+00 0.80027442E+03</pdfrwt>
<totfact> 0.54048430E-01</totfact>
</mgrwt>
</event>
<event>
 4    1  0.3057048E-007  0.7265013E+03  0.7818608E-02  0.9901172E-01
         -2   -1    0    0    0  501 -0.00000000000E+00  0.00000000000E+00  0.87794786428E+03  0.87794786428E+03  0.25500000000E-02 0.  1.
          2   -1    0    0  501    0  0.00000000000E+00 -0.00000000000E+00 -0.52570887809E+03  0.52570887810E+03  0.25500000000E-02 0. -1.
    8880023    1    1    2    0    0 -0.27801083048E+03  0.12924341555E+03  0.63076088011E+03  0.96211401428E+03  0.65864270000E+03 0.  0.
    8880022    1    1    2    0    0  0.27801083048E+03 -0.12924341555E+03 -0.27852189393E+03  0.44154272810E+03  0.15294330000E+03 0.  0.
<mgrwt>
<rscale>  0 0.60204521E+03</rscale>
<asrwt>0</asrwt>
<pdfrwt beam="1">  1        2 0.80878290E-01 0.72650127E+03</pdfrwt>
<pdfrwt beam="2">  1       -2 0.13506890E+00 0.72650127E+03</pdfrwt>
<totfact> 0.23222303E+01</totfact>
</mgrwt>
</event>
<event>
 4    1  0.3057048E-007  0.1032774E+04  0.7818608E-02  0.9339882E-01
          2   -1    0    0  501    0  0.00000000000E+00  0.00000000000E+00  0.12392370156E+04  0.12392370156E+04  0.25500000000E-02 0. -1.
         -2   -1    0    0    0  501 -0.00000000000E+00 -0.00000000000E+00 -0.89624614093E+03  0.89624614093E+03  0.25500000000E-02 0.  1.
    8880023    1    1    2    0    0  0.60549145018E+01  0.79547180101E+03 -0.32800451380E+03  0.10836093464E+04  0.65864270000E+03 0.  0.
    8880022    1    1    2    0    0 -0.60549145018E+01 -0.79547180101E+03  0.67099538850E+03  0.10518738102E+04  0.15294330000E+03 0.  0.
<mgrwt>
<rscale>  0 0.97192740E+03</rscale>
<asrwt>0</asrwt>
<pdfrwt beam="1">  1        2 0.19065185E+00 0.10327741E+04</pdfrwt>
<pdfrwt beam="2">  1       -2 0.13788402E+00 0.10327741E+04</pdfrwt>
<totfact> 0.66300733E+00</totfact>
</mgrwt>
</event>
<event>
 4    1  0.3756009E-007  0.1264994E+04  0.7818608E-02  0.9096395E-01
          2   -1    0    0  501    0  0.00000000000E+00  0.00000000000E+00  0.19342077778E+04  0.19342077778E+04  0.25500000000E-02 0. -1.
         -2   -1    0    0    0  501 -0.00000000000E+00 -0.00000000000E+00 -0.18938062463E+04  0.18938062463E+04  0.25500000000E-02 0.  1.
    8880023    1    1    2    0    0 -0.94964433172E+03  0.51436787954E+03 -0.14862643163E+04  0.19517147579E+04  0.65864270000E+03 0.  1.
    8880022    1    1    2    0    0  0.94964433172E+03 -0.51436787954E+03  0.15266658478E+04  0.18762992662E+04  0.15294330000E+03 0.  0.
<mgrwt>
<rscale>  0 0.12189898E+04</rscale>
<asrwt>0</asrwt>
<pdfrwt beam="1">  1        2 0.29757043E+00 0.12649936E+04</pdfrwt>
<pdfrwt beam="2">  1       -2 0.29135481E+00 0.12649936E+04</pdfrwt>
<totfact> 0.25221101E-01</totfact>
</mgrwt>
</event>
<event>
 4    1  0.3057048E-007  0.1137603E+04  0.7818608E-02  0.9220302E-01
          2   -1    0    0  501    0  0.00000000000E+00  0.00000000000E+00  0.33101978172E+04  0.33101978172E+04  0.25500000000E-02 0. -1.
         -2   -1    0    0    0  501 -0.00000000000E+00 -0.00000000000E+00 -0.47652358856E+03  0.47652358856E+03  0.25500000000E-02 0.  1.
    8880023    1    1    2    0    0  0.80331639410E+03 -0.46369391272E+03  0.44822074390E+03  0.12227188210E+04  0.65864270000E+03 0.  1.
    8880022    1    1    2    0    0 -0.80331639410E+03  0.46369391272E+03  0.23854534848E+04  0.25640025848E+04  0.15294330000E+03 0. -1.
<mgrwt>
<rscale>  0 0.10846317E+04</rscale>
<asrwt>0</asrwt>
<pdfrwt beam="1">  1        2 0.50926122E+00 0.11376025E+04</pdfrwt>
<pdfrwt beam="2">  1       -2 0.73311319E-01 0.11376025E+04</pdfrwt>
<totfact> 0.18579882E+00</totfact>
</mgrwt>
</event>
<event>
 4    1  0.3057048E-007  0.6953377E+03  0.7818608E-02  0.1001712E+00
          2   -1    0    0  501    0  0.00000000000E+00  0.00000000000E+00  0.42948559649E+03  0.42948559650E+03  0.25500000000E-02 0. -1.
         -2   -1    0    0    0  501 -0.00000000000E+00 -0.00000000000E+00 -0.93388505270E+03  0.93388505271E+03  0.25500000000E-02 0.  1.
    8880023    1    1    2    0    0  0.76681272245E+02 -0.20929463989E+03 -0.73227524102E+03  0.10098126057E+04  0.65864270000E+03 0.  1.
    8880022    1    1    2    0    0 -0.76681272245E+02  0.20929463989E+03  0.22787578481E+03  0.35355804349E+03  0.15294330000E+03 0.  0.
<mgrwt>
<rscale>  0 0.54905848E+03</rscale>
<asrwt>0</asrwt>
<pdfrwt beam="1">  1        2 0.66074707E-01 0.69533767E+03</pdfrwt>
<pdfrwt beam="2">  1       -2 0.14367462E+00 0.69533767E+03</pdfrwt>
<totfact> 0.25048062E+01</totfact>
</mgrwt>
</event>
<event>
 4    1  0.3057048E-007  0.6810884E+03  0.7818608E-02  0.1008715E+00
         -2   -1    0    0    0  501 -0.00000000000E+00  0.00000000000E+00  0.16087572565E+03  0.16087572567E+03  0.25500000000E-02 0.  1.
          2   -1    0    0  501    0  0.00000000000E+00 -0.00000000000E+00 -0.19557844022E+04  0.19557844022E+04  0.25500000000E-02 0. -1.
    8880023    1    1    2    0    0  0.11348100852E+03  0.13112318112E+03 -0.62589950225E+03  0.92500357897E+03  0.65864270000E+03 0.  1.
    8880022    1    1    2    0    0 -0.11348100852E+03 -0.13112318112E+03 -0.11690091743E+04  0.11916565489E+04  0.15294330000E+03 0.  0.
<mgrwt>
<rscale>  0 0.51988725E+03</rscale>
<asrwt>0</asrwt>
<pdfrwt beam="1">  1        2 0.30088989E+00 0.68108842E+03</pdfrwt>
<pdfrwt beam="2">  1       -2 0.24750113E-01 0.68108842E+03</pdfrwt>
<totfact> 0.10659079E+02</totfact>
</mgrwt>
</event>
<event>
 4    1  0.3057048E-007  0.7186558E+03  0.7818608E-02  0.9927161E-01
          2   -1    0    0  501    0  0.00000000000E+00  0.00000000000E+00  0.17991380271E+04  0.17991380272E+04  0.25500000000E-02 0. -1.
         -2   -1    0    0    0  501 -0.00000000000E+00 -0.00000000000E+00 -0.15736860448E+03  0.15736860450E+03  0.25500000000E-02 0.  1.
    8880023    1    1    2    0    0  0.85060016201E+01 -0.28737350921E+03  0.12933132070E+04  0.14795692425E+04  0.65864270000E+03 0.  0.
    8880022    1    1    2    0    0 -0.85060016201E+01  0.28737350921E+03  0.34845621570E+03  0.47693738912E+03  0.15294330000E+03 0.  1.
<mgrwt>
<rscale>  0 0.58962821E+03</rscale>
<asrwt>0</asrwt>
<pdfrwt beam="1">  1        2 0.27679047E+00 0.71865575E+03</pdfrwt>
<pdfrwt beam="2">  1       -2 0.24210554E-01 0.71865575E+03</pdfrwt>
<totfact> 0.13439477E+02</totfact>
</mgrwt>
</event>
<event>
 4    1  0.3057048E-007  0.6763188E+03  0.7818608E-02  0.1011488E+00
          2   -1    0    0  501    0  0.00000000000E+00  0.00000000000E+00  0.15472089606E+03  0.15472089608E+03  0.25500000000E-02 0. -1.
         -2   -1    0    0    0  501 -0.00000000000E+00 -0.00000000000E+00 -0.20778386761E+04  0.20778386761E+04  0.25500000000E-02 0.  1.
    8880023    1    1    2    0    0 -0.25173598463E+02 -0.15153623908E+03 -0.18973255432E+04  0.20142619902E+04  0.65864270000E+03 0.  1.
    8880022    1    1    2    0    0  0.25173598463E+02  0.15153623908E+03 -0.25792236811E+02  0.21829758200E+03  0.15294330000E+03 0.  0.
<mgrwt>
<rscale>  0 0.50887681E+03</rscale>
<asrwt>0</asrwt>
<pdfrwt beam="1">  1        2 0.23803216E-01 0.67631882E+03</pdfrwt>
<pdfrwt beam="2">  1       -2 0.31966747E+00 0.67631882E+03</pdfrwt>
<totfact> 0.58784014E+00</totfact>
</mgrwt>
</event>
<event>
 4    1  0.3057048E-007  0.7337304E+03  0.7818608E-02  0.9878601E-01
          2   -1    0    0  501    0  0.00000000000E+00  0.00000000000E+00  0.63370062300E+03  0.63370062300E+03  0.25500000000E-02 0. -1.
         -2   -1    0    0    0  501 -0.00000000000E+00 -0.00000000000E+00 -0.57699627612E+03  0.57699627612E+03  0.25500000000E-02 0.  1.
    8880023    1    1    2    0    0 -0.30624711355E+03 -0.10374397953E+03 -0.21152021718E+03  0.76361057902E+03  0.65864270000E+03 0.  1.
    8880022    1    1    2    0    0  0.30624711355E+03  0.10374397953E+03  0.26822456406E+03  0.44708632011E+03  0.15294330000E+03 0.  0.
<mgrwt>
<rscale>  0 0.61309663E+03</rscale>
<asrwt>0</asrwt>
<pdfrwt beam="1">  1        2 0.97492403E-01 0.73373041E+03</pdfrwt>
<pdfrwt beam="2">  1       -2 0.88768658E-01 0.73373041E+03</pdfrwt>
<totfact> 0.51304726E+01</totfact>
</mgrwt>
</event>
<event>
 4    1  0.3057048E-007  0.7693037E+03  0.7818608E-02  0.9781590E-01
          2   -1    0    0  501    0  0.00000000000E+00  0.00000000000E+00  0.18833189199E+04  0.18833189199E+04  0.25500000000E-02 0. -1.
         -2   -1    0    0    0  501 -0.00000000000E+00 -0.00000000000E+00 -0.63137251657E+03  0.63137251658E+03  0.25500000000E-02 0.  1.
    8880023    1    1    2    0    0 -0.87517022541E+02 -0.38776124799E+03 -0.35860042048E+03  0.84877705112E+03  0.65864270000E+03 0.  0.
    8880022    1    1    2    0    0  0.87517022541E+02  0.38776124799E+03  0.16105468238E+04  0.16659143854E+04  0.15294330000E+03 0.  0.
<mgrwt>
<rscale>  0 0.66359932E+03</rscale>
<asrwt>0</asrwt>
<pdfrwt beam="1">  1        2 0.28974136E+00 0.76930372E+03</pdfrwt>
<pdfrwt beam="2">  1       -2 0.97134236E-01 0.76930372E+03</pdfrwt>
<totfact> 0.70681271E+00</totfact>
</mgrwt>
</event>
<event>
 4    1  0.3057048E-007  0.8598778E+03  0.7818608E-02  0.9593781E-01
         -2   -1    0    0    0  501 -0.00000000000E+00  0.00000000000E+00  0.55929814154E+03  0.55929814155E+03  0.25500000000E-02 0.  1.
          2   -1    0    0  501    0  0.00000000000E+00 -0.00000000000E+00 -0.39760787197E+04  0.39760787197E+04  0.25500000000E-02 0. -1.
    8880023    1    1    2    0    0 -0.12040306287E+03 -0.53952087374E+03  0.19220614717E+03  0.88109765635E+03  0.65864270000E+03 0.  1.
    8880022    1    1    2    0    0  0.12040306287E+03  0.53952087374E+03 -0.36089867253E+04  0.36542792049E+04  0.15294330000E+03 0.  0.
<mgrwt>
<rscale>  0 0.77709179E+03</rscale>
<asrwt>0</asrwt>
<pdfrwt beam="1">  1        2 0.61170440E+00 0.85987783E+03</pdfrwt>
<pdfrwt beam="2">  1       -2 0.86045870E-01 0.85987783E+03</pdfrwt>
<totfact> 0.45381247E-01</totfact>
</mgrwt>
</event>
<event>
 4    1  0.3057048E-007  0.9267910E+03  0.7818608E-02  0.9484324E-01
         -2   -1    0    0    0  501 -0.00000000000E+00  0.00000000000E+00  0.42488362239E+03  0.42488362239E+03  0.25500000000E-02 0.  1.
          2   -1    0    0  501    0  0.00000000000E+00 -0.00000000000E+00 -0.16530259041E+04  0.16530259041E+04  0.25500000000E-02 0. -1.
    8880023    1    1    2    0    0  0.64776999881E+03  0.74332976564E+02 -0.10164261706E+04  0.13755230748E+04  0.65864270000E+03 0.  0.
    8880022    1    1    2    0    0 -0.64776999881E+03 -0.74332976564E+02 -0.21171611105E+03  0.70238645164E+03  0.15294330000E+03 0.  0.
<mgrwt>
<rscale>  0 0.85449485E+03</rscale>
<asrwt>0</asrwt>
<pdfrwt beam="1">  1        2 0.25431167E+00 0.92679101E+03</pdfrwt>
<pdfrwt beam="2">  1       -2 0.65366712E-01 0.92679101E+03</pdfrwt>
<totfact> 0.22612924E+01</totfact>
</mgrwt>
</event>
<event>
 4    1  0.3057048E-007  0.1178372E+04  0.7818608E-02  0.9178438E-01
          2   -1    0    0  501    0  0.00000000000E+00  0.00000000000E+00  0.17674371026E+04  0.17674371026E+04  0.25500000000E-02 0. -1.
         -2   -1    0    0    0  501 -0.00000000000E+00 -0.00000000000E+00 -0.81692869226E+03  0.81692869226E+03  0.25500000000E-02 0.  1.
    8880023    1    1    2    0    0  0.92586687451E+03 -0.31228441948E+03 -0.47483035493E+02  0.11793285687E+04  0.65864270000E+03 0.  1.
    8880022    1    1    2    0    0 -0.92586687451E+03  0.31228441948E+03  0.99799144581E+03  0.14050372262E+04  0.15294330000E+03 0. -1.
<mgrwt>
<rscale>  0 0.11278781E+04</rscale>
<asrwt>0</asrwt>
<pdfrwt beam="1">  1        2 0.27191340E+00 0.11783723E+04</pdfrwt>
<pdfrwt beam="2">  1       -2 0.12568134E+00 0.11783723E+04</pdfrwt>
<totfact> 0.41557801E+00</totfact>
</mgrwt>
</event>
<event>
 4    1  0.3057048E-007  0.9750765E+03  0.7818608E-02  0.9414917E-01
         -2   -1    0    0    0  501 -0.00000000000E+00  0.00000000000E+00  0.78157054323E+03  0.78157054323E+03  0.25500000000E-02 0.  1.
          2   -1    0    0  501    0  0.00000000000E+00 -0.00000000000E+00 -0.12991761698E+04  0.12991761698E+04  0.25500000000E-02 0. -1.
    8880023    1    1    2    0    0  0.32315511609E+03  0.64228867651E+03  0.26156534441E+03  0.10095497059E+04  0.65864270000E+03 0.  1.
    8880022    1    1    2    0    0 -0.32315511609E+03 -0.64228867651E+03 -0.77917097096E+03  0.10711970071E+04  0.15294330000E+03 0.  0.
<mgrwt>
<rscale>  0 0.90858168E+03</rscale>
<asrwt>0</asrwt>
<pdfrwt beam="1">  1        2 0.19987326E+00 0.97507650E+03</pdfrwt>
<pdfrwt beam="2">  1       -2 0.12024162E+00 0.97507650E+03</pdfrwt>
<totfact> 0.87039991E+00</totfact>
</mgrwt>
</event>
<event>
 4    1  0.3057048E-007  0.8057328E+03  0.7818608E-02  0.9698535E-01
          2   -1    0    0  501    0  0.00000000000E+00  0.00000000000E+00  0.30081359501E+04  0.30081359501E+04  0.25500000000E-02 0. -1.
         -2   -1    0    0    0  501 -0.00000000000E+00 -0.00000000000E+00 -0.14952244888E+03  0.14952244890E+03  0.25500000000E-02 0.  1.
    8880023    1    1    2    0    0 -0.37436130002E+03 -0.27431505305E+03  0.21575948448E+04  0.23031328342E+04  0.65864270000E+03 0. -1.
    8880022    1    1    2    0    0  0.37436130002E+03  0.27431505305E+03  0.70101865638E+03  0.85452556480E+03  0.15294330000E+03 0.  0.
<mgrwt>
<rscale>  0 0.71104087E+03</rscale>
<asrwt>0</asrwt>
<pdfrwt beam="1">  1        2 0.46279016E+00 0.80573280E+03</pdfrwt>
<pdfrwt beam="2">  1       -2 0.23003453E-01 0.80573280E+03</pdfrwt>
<totfact> 0.30051464E+01</totfact>
</mgrwt>
</event>
<event>
 4    1  0.3057048E-007  0.6688403E+03  0.7818608E-02  0.1016508E+00
         -2   -1    0    0    0  501 -0.00000000000E+00  0.00000000000E+00  0.45313510265E+03  0.45313510265E+03  0.25500000000E-02 0.  1.
          2   -1    0    0  501    0  0.00000000000E+00 -0.00000000000E+00 -0.10257548820E+04  0.10257548820E+04  0.25500000000E-02 0. -1.
    8880023    1    1    2    0    0  0.96648364821E+02 -0.64778374213E+02  0.18768570871E+03  0.69467494248E+03  0.65864270000E+03 0.  1.
    8880022    1    1    2    0    0 -0.96648364821E+02  0.64778374213E+02 -0.76030548803E+03  0.78421504215E+03  0.15294330000E+03 0.  0.
<mgrwt>
<rscale>  0 0.48968012E+03</rscale>
<asrwt>0</asrwt>
<pdfrwt beam="1">  1        2 0.15780844E+00 0.66884030E+03</pdfrwt>
<pdfrwt beam="2">  1       -2 0.69713093E-01 0.66884030E+03</pdfrwt>
<totfact> 0.46564651E+01</totfact>
</mgrwt>
</event>
<event>
 4    1  0.3057048E-007  0.6594952E+03  0.7818608E-02  0.1024680E+00
         -2   -1    0    0    0  501 -0.00000000000E+00  0.00000000000E+00  0.21782666271E+03  0.21782666273E+03  0.25500000000E-02 0.  1.
          2   -1    0    0  501    0  0.00000000000E+00 -0.00000000000E+00 -0.10274067781E+04  0.10274067781E+04  0.25500000000E-02 0. -1.
    8880023    1    1    2    0    0  0.33384909179E+02  0.30270804734E+01 -0.32351395835E+03  0.73457144165E+03  0.65864270000E+03 0.  1.
    8880022    1    1    2    0    0 -0.33384909179E+02 -0.30270804734E+01 -0.48606615707E+03  0.51066199922E+03  0.15294330000E+03 0.  0.
<mgrwt>
<rscale>  0 0.46035041E+03</rscale>
<asrwt>0</asrwt>
<pdfrwt beam="1">  1        2 0.15806258E+00 0.65949520E+03</pdfrwt>
<pdfrwt beam="2">  1       -2 0.33511795E-01 0.65949520E+03</pdfrwt>
<totfact> 0.20454543E+02</totfact>
</mgrwt>
</event>
<event>
 4    1  0.3057048E-007  0.8103317E+03  0.7818608E-02  0.9688886E-01
          2   -1    0    0  501    0  0.00000000000E+00  0.00000000000E+00  0.19067172252E+04  0.19067172252E+04  0.25500000000E-02 0. -1.
         -2   -1    0    0    0  501 -0.00000000000E+00 -0.00000000000E+00 -0.25960175624E+03  0.25960175625E+03  0.25500000000E-02 0.  1.
    8880023    1    1    2    0    0 -0.33599303895E+03 -0.33156590502E+03  0.60228056253E+03  0.10096431815E+04  0.65864270000E+03 0.  0.
    8880022    1    1    2    0    0  0.33599303895E+03  0.33156590502E+03  0.10448349064E+04  0.11566758000E+04  0.15294330000E+03 0.  1.
<mgrwt>
<rscale>  0 0.71682361E+03</rscale>
<asrwt>0</asrwt>
<pdfrwt beam="1">  1        2 0.29334111E+00 0.81033171E+03</pdfrwt>
<pdfrwt beam="2">  1       -2 0.39938732E-01 0.81033171E+03</pdfrwt>
<totfact> 0.45625542E+01</totfact>
</mgrwt>
</event>
<event>
 4    1  0.3057048E-007  0.7168447E+03  0.7818608E-02  0.9933411E-01
         -2   -1    0    0    0  501 -0.00000000000E+00  0.00000000000E+00  0.71842135599E+03  0.71842135599E+03  0.25500000000E-02 0.  1.
          2   -1    0    0  501    0  0.00000000000E+00 -0.00000000000E+00 -0.20988257783E+04  0.20988257783E+04  0.25500000000E-02 0. -1.
    8880023    1    1    2    0    0 -0.18401272247E+03 -0.21493125109E+03  0.52268677194E+03  0.88716841274E+03  0.65864270000E+03 0.  0.
    8880022    1    1    2    0    0  0.18401272247E+03  0.21493125109E+03 -0.19030911943E+04  0.19300787216E+04  0.15294330000E+03 0.  0.
<mgrwt>
<rscale>  0 0.58669037E+03</rscale>
<asrwt>0</asrwt>
<pdfrwt beam="1">  1        2 0.32289627E+00 0.71684470E+03</pdfrwt>
<pdfrwt beam="2">  1       -2 0.11052636E+00 0.71684470E+03</pdfrwt>
<totfact> 0.39934551E+00</totfact>
</mgrwt>
</event>
<event>
 4    1  0.3057048E-007  0.9472783E+03  0.7818608E-02  0.9454041E-01
          2   -1    0    0  501    0  0.00000000000E+00  0.00000000000E+00  0.24289191261E+04  0.24289191261E+04  0.25500000000E-02 0. -1.
         -2   -1    0    0    0  501 -0.00000000000E+00 -0.00000000000E+00 -0.35162434332E+03  0.35162434333E+03  0.25500000000E-02 0.  1.
    8880023    1    1    2    0    0 -0.54606635098E+03 -0.40661706537E+03  0.53542481044E+03  0.10881249154E+04  0.65864270000E+03 0.  1.
    8880022    1    1    2    0    0  0.54606635098E+03  0.40661706537E+03  0.15418699724E+04  0.16924185541E+04  0.15294330000E+03 0.  0.
<mgrwt>
<rscale>  0 0.87758685E+03</rscale>
<asrwt>0</asrwt>
<pdfrwt beam="1">  1        2 0.37367986E+00 0.94727826E+03</pdfrwt>
<pdfrwt beam="2">  1       -2 0.54096053E-01 0.94727826E+03</pdfrwt>
<totfact> 0.12524640E+01</totfact>
</mgrwt>
</event>
<event>
 4    1  0.3057048E-007  0.7730315E+03  0.7818608E-02  0.9772468E-01
         -2   -1    0    0    0  501 -0.00000000000E+00  0.00000000000E+00  0.10932897478E+04  0.10932897478E+04  0.25500000000E-02 0.  1.
          2   -1    0    0  501    0  0.00000000000E+00 -0.00000000000E+00 -0.61109831468E+03  0.61109831469E+03  0.25500000000E-02 0. -1.
    8880023    1    1    2    0    0  0.26296937238E+03 -0.30759478975E+03  0.84102310081E+03  0.11423211054E+04  0.65864270000E+03 0.  1.
    8880022    1    1    2    0    0 -0.26296937238E+03  0.30759478975E+03 -0.35883166769E+03  0.56206695709E+03  0.15294330000E+03 0.  0.
<mgrwt>
<rscale>  0 0.66861213E+03</rscale>
<asrwt>0</asrwt>
<pdfrwt beam="1">  1        2 0.94015125E-01 0.77303147E+03</pdfrwt>
<pdfrwt beam="2">  1       -2 0.16819842E+00 0.77303147E+03</pdfrwt>
<totfact> 0.10794356E+01</totfact>
</mgrwt>
</event>
<event>
 4    1  0.3057048E-007  0.7772853E+03  0.7818608E-02  0.9762253E-01
          2   -1    0    0  501    0  0.00000000000E+00  0.00000000000E+00  0.80282971904E+03  0.80282971905E+03  0.25500000000E-02 0. -1.
         -2   -1    0    0    0  501 -0.00000000000E+00 -0.00000000000E+00 -0.90154820716E+03  0.90154820716E+03  0.25500000000E-02 0.  1.
    8880023    1    1    2    0    0  0.32683671110E+03 -0.25207134812E+03 -0.63989235406E+03  0.10067942348E+04  0.65864270000E+03 0.  1.
    8880022    1    1    2    0    0 -0.32683671110E+03  0.25207134812E+03  0.54117386594E+03  0.69758369137E+03  0.15294330000E+03 0.  0.
<mgrwt>
<rscale>  0 0.67428209E+03</rscale>
<asrwt>0</asrwt>
<pdfrwt beam="1">  1        2 0.12351226E+00 0.77728528E+03</pdfrwt>
<pdfrwt beam="2">  1       -2 0.13869972E+00 0.77728528E+03</pdfrwt>
<totfact> 0.12774275E+01</totfact>
</mgrwt>
</event>
<event>
 4    1  0.3057048E-007  0.8185968E+03  0.7818608E-02  0.9671941E-01
         -2   -1    0    0    0  501 -0.00000000000E+00  0.00000000000E+00  0.10364006287E+04  0.10364006287E+04  0.25500000000E-02 0.  1.
          2   -1    0    0  501    0  0.00000000000E+00 -0.00000000000E+00 -0.12698978027E+04  0.12698978027E+04  0.25500000000E-02 0. -1.
    8880023    1    1    2    0    0  0.48470747198E+03  0.36730607414E+02  0.80588412888E+03  0.11487166345E+04  0.65864270000E+03 0.  0.
    8880022    1    1    2    0    0 -0.48470747198E+03 -0.36730607414E+02 -0.10393813028E+04  0.11575817969E+04  0.15294330000E+03 0.  0.
<mgrwt>
<rscale>  0 0.72712283E+03</rscale>
<asrwt>0</asrwt>
<pdfrwt beam="1">  1        2 0.19536889E+00 0.81859677E+03</pdfrwt>
<pdfrwt beam="2">  1       -2 0.15944625E+00 0.81859677E+03</pdfrwt>
<totfact> 0.44364782E+00</totfact>
</mgrwt>
</event>
<event>
 4    1  0.3057048E-007  0.9236508E+03  0.7818608E-02  0.9489084E-01
         -2   -1    0    0    0  501 -0.00000000000E+00  0.00000000000E+00  0.32528545675E+03  0.32528545676E+03  0.25500000000E-02 0.  1.
          2   -1    0    0  501    0  0.00000000000E+00 -0.00000000000E+00 -0.26066829675E+04  0.26066829675E+04  0.25500000000E-02 0. -1.
    8880023    1    1    2    0    0  0.62510002551E+03  0.16902821411E+03 -0.54499465397E+03  0.10724504456E+04  0.65864270000E+03 0.  0.
    8880022    1    1    2    0    0 -0.62510002551E+03 -0.16902821411E+03 -0.17364028568E+04  0.18595179787E+04  0.15294330000E+03 0.  0.
<mgrwt>
<rscale>  0 0.85093433E+03</rscale>
<asrwt>0</asrwt>
<pdfrwt beam="1">  1        2 0.40102813E+00 0.92365079E+03</pdfrwt>
<pdfrwt beam="2">  1       -2 0.50043918E-01 0.92365079E+03</pdfrwt>
<totfact> 0.11667995E+01</totfact>
</mgrwt>
</event>
<event>
 4    1  0.3057048E-007  0.8620641E+03  0.7818608E-02  0.9589902E-01
         -2   -1    0    0    0  501 -0.00000000000E+00  0.00000000000E+00  0.12282962435E+04  0.12282962435E+04  0.25500000000E-02 0.  1.
          2   -1    0    0  501    0  0.00000000000E+00 -0.00000000000E+00 -0.78750646555E+03  0.78750646555E+03  0.25500000000E-02 0. -1.
    8880023    1    1    2    0    0  0.19241803785E+03 -0.52184259093E+03  0.92372631413E+03  0.12634970917E+04  0.65864270000E+03 0.  1.
    8880022    1    1    2    0    0 -0.19241803785E+03  0.52184259093E+03 -0.48293653615E+03  0.75230561740E+03  0.15294330000E+03 0.  0.
<mgrwt>
<rscale>  0 0.77968139E+03</rscale>
<asrwt>0</asrwt>
<pdfrwt beam="1">  1        2 0.12115484E+00 0.86206415E+03</pdfrwt>
<pdfrwt beam="2">  1       -2 0.18896865E+00 0.86206415E+03</pdfrwt>
<totfact> 0.55761738E+00</totfact>
</mgrwt>
</event>
<event>
 4    1  0.3057048E-007  0.6666136E+03  0.7818608E-02  0.1018216E+00
          2   -1    0    0  501    0  0.00000000000E+00  0.00000000000E+00  0.27556600011E+04  0.27556600011E+04  0.25500000000E-02 0. -1.
         -2   -1    0    0    0  501 -0.00000000000E+00 -0.00000000000E+00 -0.92214408105E+02  0.92214408140E+02  0.25500000000E-02 0.  1.
    8880023    1    1    2    0    0  0.10124281701E+03 -0.17702817570E+02  0.11987433348E+04  0.13716265114E+04  0.65864270000E+03 0.  1.
    8880022    1    1    2    0    0 -0.10124281701E+03  0.17702817570E+02  0.14647022582E+04  0.14762478979E+04  0.15294330000E+03 0.  0.
<mgrwt>
<rscale>  0 0.48335792E+03</rscale>
<asrwt>0</asrwt>
<pdfrwt beam="1">  1        2 0.42394772E+00 0.66661361E+03</pdfrwt>
<pdfrwt beam="2">  1       -2 0.14186831E-01 0.66661361E+03</pdfrwt>
<totfact> 0.10013546E+02</totfact>
</mgrwt>
</event>
<event>
 4    1  0.3057048E-007  0.7419019E+03  0.7818608E-02  0.9854441E-01
          2   -1    0    0  501    0  0.00000000000E+00  0.00000000000E+00  0.20577064877E+04  0.20577064877E+04  0.25500000000E-02 0. -1.
         -2   -1    0    0    0  501 -0.00000000000E+00 -0.00000000000E+00 -0.21479335400E+03  0.21479335402E+03  0.25500000000E-02 0.  1.
    8880023    1    1    2    0    0 -0.28187517314E+03  0.19275519213E+03  0.54185597283E+03  0.91870902841E+03  0.65864270000E+03 0.  0.
    8880022    1    1    2    0    0  0.28187517314E+03 -0.19275519213E+03  0.13010571609E+04  0.13537908133E+04  0.15294330000E+03 0.  0.
<mgrwt>
<rscale>  0 0.62520982E+03</rscale>
<asrwt>0</asrwt>
<pdfrwt beam="1">  1        2 0.31657021E+00 0.74190187E+03</pdfrwt>
<pdfrwt beam="2">  1       -2 0.33045133E-01 0.74190187E+03</pdfrwt>
<totfact> 0.54698116E+01</totfact>
</mgrwt>
</event>
<event>
 4    1  0.3057048E-007  0.7252992E+03  0.7818608E-02  0.9905047E-01
         -2   -1    0    0    0  501 -0.00000000000E+00  0.00000000000E+00  0.26202370679E+03  0.26202370681E+03  0.25500000000E-02 0.  1.
          2   -1    0    0  501    0  0.00000000000E+00 -0.00000000000E+00 -0.20733150371E+04  0.20733150371E+04  0.25500000000E-02 0. -1.
    8880023    1    1    2    0    0  0.13695503627E+03 -0.27109402895E+03 -0.29770152868E+03  0.78401853354E+03  0.65864270000E+03 0.  1.
    8880022    1    1    2    0    0 -0.13695503627E+03  0.27109402895E+03 -0.15135898016E+04  0.15513202104E+04  0.15294330000E+03 0.  0.
<mgrwt>
<rscale>  0 0.60017311E+03</rscale>
<asrwt>0</asrwt>
<pdfrwt beam="1">  1        2 0.31897153E+00 0.72529915E+03</pdfrwt>
<pdfrwt beam="2">  1       -2 0.40311341E-01 0.72529915E+03</pdfrwt>
<totfact> 0.36709580E+01</totfact>
</mgrwt>
</event>
<event>
 4    1  0.3057048E-007  0.7731813E+03  0.7818608E-02  0.9772105E-01
          2   -1    0    0  501    0  0.00000000000E+00  0.00000000000E+00  0.57243226393E+03  0.57243226394E+03  0.25500000000E-02 0. -1.
         -2   -1    0    0    0  501 -0.00000000000E+00 -0.00000000000E+00 -0.16889390940E+04  0.16889390940E+04  0.25500000000E-02 0.  1.
    8880023    1    1    2    0    0  0.40464486315E+03 -0.16173671443E+02  0.26210014978E+03  0.81639803264E+03  0.65864270000E+03 0.  0.
    8880022    1    1    2    0    0 -0.40464486315E+03  0.16173671443E+02 -0.13786069799E+04  0.14449733253E+04  0.15294330000E+03 0.  1.
<mgrwt>
<rscale>  0 0.66881267E+03</rscale>
<asrwt>0</asrwt>
<pdfrwt beam="1">  1        2 0.88066503E-01 0.77318126E+03</pdfrwt>
<pdfrwt beam="2">  1       -2 0.25983678E+00 0.77318126E+03</pdfrwt>
<totfact> 0.30193059E+00</totfact>
</mgrwt>
</event>
<event>
 4    1  0.3057048E-007  0.1005882E+04  0.7818608E-02  0.9373903E-01
         -2   -1    0    0    0  501 -0.00000000000E+00  0.00000000000E+00  0.21475259164E+03  0.21475259166E+03  0.25500000000E-02 0.  1.
          2   -1    0    0  501    0  0.00000000000E+00 -0.00000000000E+00 -0.37824642781E+04  0.37824642781E+04  0.25500000000E-02 0. -1.
    8880023    1    1    2    0    0 -0.59326549565E+03  0.47541977071E+03 -0.17062179304E+04  0.19806508372E+04  0.65864270000E+03 0.  0.
    8880022    1    1    2    0    0  0.59326549565E+03 -0.47541977071E+03 -0.18614937561E+04  0.20165660326E+04  0.15294330000E+03 0.  0.
<mgrwt>
<rscale>  0 0.94254866E+03</rscale>
<asrwt>0</asrwt>
<pdfrwt beam="1">  1        2 0.58191753E+00 0.10058818E+04</pdfrwt>
<pdfrwt beam="2">  1       -2 0.33038863E-01 0.10058818E+04</pdfrwt>
<totfact> 0.45254371E+00</totfact>
</mgrwt>
</event>
<event>
 4    1  0.3057048E-007  0.7521470E+03  0.7818608E-02  0.9825879E-01
          2   -1    0    0  501    0  0.00000000000E+00  0.00000000000E+00  0.14448425456E+04  0.14448425456E+04  0.25500000000E-02 0. -1.
         -2   -1    0    0    0  501 -0.00000000000E+00 -0.00000000000E+00 -0.48885212587E+03  0.48885212588E+03  0.25500000000E-02 0.  1.
    8880023    1    1    2    0    0 -0.25263936864E+03 -0.26093735508E+03 -0.14349766823E+03  0.76571322368E+03  0.65864270000E+03 0.  0.
    8880022    1    1    2    0    0  0.25263936864E+03  0.26093735508E+03  0.10994880880E+04  0.11679814478E+04  0.15294330000E+03 0.  0.
<mgrwt>
<rscale>  0 0.63992017E+03</rscale>
<asrwt>0</asrwt>
<pdfrwt beam="1">  1        2 0.22228347E+00 0.75214703E+03</pdfrwt>
<pdfrwt beam="2">  1       -2 0.75208019E-01 0.75214703E+03</pdfrwt>
<totfact> 0.22139573E+01</totfact>
</mgrwt>
</event>
<event>
 4    1  0.3057048E-007  0.6965954E+03  0.7818608E-02  0.1001163E+00
          2   -1    0    0  501    0  0.00000000000E+00  0.00000000000E+00  0.94514620064E+03  0.94514620064E+03  0.25500000000E-02 0. -1.
         -2   -1    0    0    0  501 -0.00000000000E+00 -0.00000000000E+00 -0.26889098814E+03  0.26889098815E+03  0.25500000000E-02 0.  1.
    8880023    1    1    2    0    0 -0.22190798806E+03 -0.46815814702E+02  0.32458458942E+03  0.76850519687E+03  0.65864270000E+03 0. -1.
    8880022    1    1    2    0    0  0.22190798806E+03  0.46815814702E+02  0.35167062308E+03  0.44553199192E+03  0.15294330000E+03 0.  1.
<mgrwt>
<rscale>  0 0.55143252E+03</rscale>
<asrwt>0</asrwt>
<pdfrwt beam="1">  1        2 0.14540711E+00 0.69659535E+03</pdfrwt>
<pdfrwt beam="2">  1       -2 0.41367844E-01 0.69659535E+03</pdfrwt>
<totfact> 0.15365416E+02</totfact>
</mgrwt>
</event>
<event>
 4    1  0.3057048E-007  0.7071630E+03  0.7818608E-02  0.9968691E-01
          2   -1    0    0  501    0  0.00000000000E+00  0.00000000000E+00  0.50839029055E+03  0.50839029056E+03  0.25500000000E-02 0. -1.
         -2   -1    0    0    0  501 -0.00000000000E+00 -0.00000000000E+00 -0.86795155557E+03  0.86795155557E+03  0.25500000000E-02 0.  1.
    8880023    1    1    2    0    0  0.25201425257E+03  0.52517807380E+02 -0.64903799308E+03  0.95985927423E+03  0.65864270000E+03 0.  1.
    8880022    1    1    2    0    0 -0.25201425257E+03 -0.52517807380E+02  0.28947672806E+03  0.41648257190E+03  0.15294330000E+03 0. -1.
<mgrwt>
<rscale>  0 0.57044670E+03</rscale>
<asrwt>0</asrwt>
<pdfrwt beam="1">  1        2 0.78213891E-01 0.70716300E+03</pdfrwt>
<pdfrwt beam="2">  1       -2 0.13353101E+00 0.70716300E+03</pdfrwt>
<totfact> 0.24904531E+01</totfact>
</mgrwt>
</event>
<event>
 4    1  0.3057048E-007  0.7322580E+03  0.7818608E-02  0.9883101E-01
         -2   -1    0    0    0  501 -0.00000000000E+00  0.00000000000E+00  0.60975922597E+03  0.60975922598E+03  0.25500000000E-02 0.  1.
          2   -1    0    0  501    0  0.00000000000E+00 -0.00000000000E+00 -0.62963510392E+03  0.62963510392E+03  0.25500000000E-02 0. -1.
    8880023    1    1    2    0    0 -0.16455399876E+03  0.27443306041E+03  0.27091141751E+03  0.78076547411E+03  0.65864270000E+03 0.  1.
    8880022    1    1    2    0    0  0.16455399876E+03 -0.27443306041E+03 -0.29078729546E+03  0.45862885579E+03  0.15294330000E+03 0. -1.
<mgrwt>
<rscale>  0 0.61087296E+03</rscale>
<asrwt>0</asrwt>
<pdfrwt beam="1">  1        2 0.96866939E-01 0.73225797E+03</pdfrwt>
<pdfrwt beam="2">  1       -2 0.93809111E-01 0.73225797E+03</pdfrwt>
<totfact> 0.45511011E+01</totfact>
</mgrwt>
</event>
<event>
 4    1  0.3057048E-007  0.6860774E+03  0.7818608E-02  0.1006076E+00
          2   -1    0    0  501    0  0.00000000000E+00  0.00000000000E+00  0.56322027709E+03  0.56322027710E+03  0.25500000000E-02 0. -1.
         -2   -1    0    0    0  501 -0.00000000000E+00 -0.00000000000E+00 -0.18555746701E+04  0.18555746701E+04  0.25500000000E-02 0.  1.
    8880023    1    1    2    0    0  0.19168728308E+03 -0.12165726450E+02 -0.17608903520E+04  0.18898246102E+04  0.65864270000E+03 0.  1.
    8880022    1    1    2    0    0 -0.19168728308E+03  0.12165726450E+02  0.46853595905E+03  0.52897033692E+03  0.15294330000E+03 0.  0.
<mgrwt>
<rscale>  0 0.53064589E+03</rscale>
<asrwt>0</asrwt>
<pdfrwt beam="1">  1        2 0.86649274E-01 0.68607742E+03</pdfrwt>
<pdfrwt beam="2">  1       -2 0.28547302E+00 0.68607742E+03</pdfrwt>
<totfact> 0.21894890E+00</totfact>
</mgrwt>
</event>
<event>
 4    1  0.3057048E-007  0.8128933E+03  0.7818608E-02  0.9683582E-01
          2   -1    0    0  501    0  0.00000000000E+00  0.00000000000E+00  0.88591864144E+03  0.88591864144E+03  0.25500000000E-02 0. -1.
         -2   -1    0    0    0  501 -0.00000000000E+00 -0.00000000000E+00 -0.58908104366E+03  0.58908104366E+03  0.25500000000E-02 0.  1.
    8880023    1    1    2    0    0  0.31558729868E+03  0.35691725310E+03 -0.12259108956E+03  0.82208518425E+03  0.65864270000E+03 0.  1.
    8880022    1    1    2    0    0 -0.31558729868E+03 -0.35691725310E+03  0.41942868735E+03  0.65291450086E+03  0.15294330000E+03 0. -1.
<mgrwt>
<rscale>  0 0.72002808E+03</rscale>
<asrwt>0</asrwt>
<pdfrwt beam="1">  1        2 0.13629518E+00 0.81289327E+03</pdfrwt>
<pdfrwt beam="2">  1       -2 0.90627853E-01 0.81289327E+03</pdfrwt>
<totfact> 0.31464014E+01</totfact>
</mgrwt>
</event>
<event>
 4    1  0.3057048E-007  0.7053925E+03  0.7818608E-02  0.9975526E-01
          2   -1    0    0  501    0  0.00000000000E+00  0.00000000000E+00  0.29488545185E+03  0.29488545186E+03  0.25500000000E-02 0. -1.
         -2   -1    0    0    0  501 -0.00000000000E+00 -0.00000000000E+00 -0.14177866244E+04  0.14177866244E+04  0.25500000000E-02 0.  1.
    8880023    1    1    2    0    0 -0.80574970666E+02 -0.23932411371E+03 -0.12136990546E+04  0.14037962668E+04  0.65864270000E+03 0.  0.
    8880022    1    1    2    0    0  0.80574970666E+02  0.23932411371E+03  0.90797882013E+02  0.30887580950E+03  0.15294330000E+03 0.  0.
<mgrwt>
<rscale>  0 0.56736532E+03</rscale>
<asrwt>0</asrwt>
<pdfrwt beam="1">  1        2 0.45366994E-01 0.70539249E+03</pdfrwt>
<pdfrwt beam="2">  1       -2 0.21812101E+00 0.70539249E+03</pdfrwt>
<totfact> 0.11655347E+01</totfact>
</mgrwt>
</event>
<event>
 4    1  0.3057048E-007  0.6813461E+03  0.7818608E-02  0.1008572E+00
         -2   -1    0    0    0  501 -0.00000000000E+00  0.00000000000E+00  0.13442465214E+03  0.13442465217E+03  0.25500000000E-02 0.  1.
          2   -1    0    0  501    0  0.00000000000E+00 -0.00000000000E+00 -0.17768158102E+04  0.17768158102E+04  0.25500000000E-02 0. -1.
    8880023    1    1    2    0    0  0.11409840384E+03  0.13192362080E+03 -0.87166548202E+03  0.11063603420E+04  0.65864270000E+03 0.  0.
    8880022    1    1    2    0    0 -0.11409840384E+03 -0.13192362080E+03 -0.77072567604E+03  0.80488012040E+03  0.15294330000E+03 0.  0.
<mgrwt>
<rscale>  0 0.52046038E+03</rscale>
<asrwt>0</asrwt>
<pdfrwt beam="1">  1        2 0.27335626E+00 0.68134609E+03</pdfrwt>
<pdfrwt beam="2">  1       -2 0.20680717E-01 0.68134609E+03</pdfrwt>
<totfact> 0.18345688E+02</totfact>
</mgrwt>
</event>
<event>
 4    1  0.3057048E-007  0.6646724E+03  0.7818608E-02  0.1019810E+00
          2   -1    0    0  501    0  0.00000000000E+00  0.00000000000E+00  0.13669447597E+04  0.13669447597E+04  0.25500000000E-02 0. -1.
         -2   -1    0    0    0  501 -0.00000000000E+00 -0.00000000000E+00 -0.22450490595E+03  0.22450490597E+03  0.25500000000E-02 0.  1.
    8880023    1    1    2    0    0 -0.19678137020E+02  0.87131627636E+02  0.29762019867E+03  0.72826309705E+03  0.65864270000E+03 0.  0.
    8880022    1    1    2    0    0  0.19678137020E+02 -0.87131627636E+02  0.84481965506E+03  0.86318656860E+03  0.15294330000E+03 0.  0.
<mgrwt>
<rscale>  0 0.47755283E+03</rscale>
<asrwt>0</asrwt>
<pdfrwt beam="1">  1        2 0.21029919E+00 0.66467237E+03</pdfrwt>
<pdfrwt beam="2">  1       -2 0.34539217E-01 0.66467237E+03</pdfrwt>
<totfact> 0.12154561E+02</totfact>
</mgrwt>
</event>
<event>
 4    1  0.3057048E-007  0.7176860E+03  0.7818608E-02  0.9930495E-01
         -2   -1    0    0    0  501 -0.00000000000E+00  0.00000000000E+00  0.94949844885E+03  0.94949844886E+03  0.25500000000E-02 0.  1.
          2   -1    0    0  501    0  0.00000000000E+00 -0.00000000000E+00 -0.60943509906E+03  0.60943509907E+03  0.25500000000E-02 0. -1.
    8880023    1    1    2    0    0  0.56400249181E+02  0.27943169126E+03  0.74911197968E+03  0.10374208512E+04  0.65864270000E+03 0.  1.
    8880022    1    1    2    0    0 -0.56400249181E+02 -0.27943169126E+03 -0.40904862989E+03  0.52151269670E+03  0.15294330000E+03 0.  0.
<mgrwt>
<rscale>  0 0.58805876E+03</rscale>
<asrwt>0</asrwt>
<pdfrwt beam="1">  1        2 0.93759246E-01 0.71768605E+03</pdfrwt>
<pdfrwt beam="2">  1       -2 0.14607668E+00 0.71768605E+03</pdfrwt>
<totfact> 0.15912064E+01</totfact>
</mgrwt>
</event>
<event>
 4    1  0.3057048E-007  0.9036799E+03  0.7818608E-02  0.9520150E-01
         -2   -1    0    0    0  501 -0.00000000000E+00  0.00000000000E+00  0.27634423928E+03  0.27634423929E+03  0.25500000000E-02 0.  1.
          2   -1    0    0  501    0  0.00000000000E+00 -0.00000000000E+00 -0.22902164719E+04  0.22902164719E+04  0.25500000000E-02 0. -1.
    8880023    1    1    2    0    0  0.53221470349E+03  0.31555464481E+03 -0.85534293308E+03  0.12442865281E+04  0.65864270000E+03 0.  0.
    8880022    1    1    2    0    0 -0.53221470349E+03 -0.31555464481E+03 -0.11585292995E+04  0.13222741831E+04  0.15294330000E+03 0.  0.
<mgrwt>
<rscale>  0 0.82814426E+03</rscale>
<asrwt>0</asrwt>
<pdfrwt beam="1">  1        2 0.35234098E+00 0.90367994E+03</pdfrwt>
<pdfrwt beam="2">  1       -2 0.42514500E-01 0.90367994E+03</pdfrwt>
<totfact> 0.24545158E+01</totfact>
</mgrwt>
</event>
<event>
 4    1  0.3057048E-007  0.6714938E+03  0.7818608E-02  0.1014614E+00
         -2   -1    0    0    0  501 -0.00000000000E+00  0.00000000000E+00  0.25452082218E+03  0.25452082219E+03  0.25500000000E-02 0.  1.
          2   -1    0    0  501    0  0.00000000000E+00 -0.00000000000E+00 -0.18950255782E+04  0.18950255782E+04  0.25500000000E-02 0. -1.
    8880023    1    1    2    0    0 -0.31882739372E+02 -0.12679568882E+03 -0.20798708067E+03  0.70296691797E+03  0.65864270000E+03 0.  1.
    8880022    1    1    2    0    0  0.31882739372E+02  0.12679568882E+03 -0.14325176753E+04  0.14465794824E+04  0.15294330000E+03 0.  0.
<mgrwt>
<rscale>  0 0.49681382E+03</rscale>
<asrwt>0</asrwt>
<pdfrwt beam="1">  1        2 0.29154239E+00 0.67149375E+03</pdfrwt>
<pdfrwt beam="2">  1       -2 0.39157051E-01 0.67149375E+03</pdfrwt>
<totfact> 0.48923221E+01</totfact>
</mgrwt>
</event>
<event>
 4    1  0.3057048E-007  0.6747196E+03  0.7818608E-02  0.1012484E+00
          2   -1    0    0  501    0  0.00000000000E+00  0.00000000000E+00  0.17868034713E+04  0.17868034713E+04  0.25500000000E-02 0. -1.
         -2   -1    0    0    0  501 -0.00000000000E+00 -0.00000000000E+00 -0.34890833254E+03  0.34890833255E+03  0.25500000000E-02 0.  1.
    8880023    1    1    2    0    0 -0.14526964108E+03  0.18248912865E+02 -0.76304733110E+01  0.67476271520E+03  0.65864270000E+03 0.  1.
    8880022    1    1    2    0    0  0.14526964108E+03 -0.18248912865E+02  0.14455256120E+04  0.14609490886E+04  0.15294330000E+03 0.  0.
<mgrwt>
<rscale>  0 0.50499384E+03</rscale>
<asrwt>0</asrwt>
<pdfrwt beam="1">  1        2 0.27489284E+00 0.67471957E+03</pdfrwt>
<pdfrwt beam="2">  1       -2 0.53678205E-01 0.67471957E+03</pdfrwt>
<totfact> 0.29805707E+01</totfact>
</mgrwt>
</event>
<event>
 4    1  0.3057048E-007  0.6842014E+03  0.7818608E-02  0.1007040E+00
          2   -1    0    0  501    0  0.00000000000E+00  0.00000000000E+00  0.39095533580E+03  0.39095533581E+03  0.25500000000E-02 0. -1.
         -2   -1    0    0    0  501 -0.00000000000E+00 -0.00000000000E+00 -0.88830731936E+03  0.88830731936E+03  0.25500000000E-02 0.  1.
    8880023    1    1    2    0    0  0.82131182171E+02  0.16605979232E+03 -0.68970649035E+03  0.97150740337E+03  0.65864270000E+03 0.  0.
    8880022    1    1    2    0    0 -0.82131182171E+02 -0.16605979232E+03  0.19235450679E+03  0.30775525180E+03  0.15294330000E+03 0.  0.
<mgrwt>
<rscale>  0 0.52668048E+03</rscale>
<asrwt>0</asrwt>
<pdfrwt beam="1">  1        2 0.60146975E-01 0.68420143E+03</pdfrwt>
<pdfrwt beam="2">  1       -2 0.13666266E+00 0.68420143E+03</pdfrwt>
<totfact> 0.31728377E+01</totfact>
</mgrwt>
</event>
<event>
 4    1  0.3057048E-007  0.1373674E+04  0.7818608E-02  0.9004414E-01
         -2   -1    0    0    0  501 -0.00000000000E+00  0.00000000000E+00  0.11260036440E+04  0.11260036440E+04  0.25500000000E-02 0.  1.
          2   -1    0    0  501    0  0.00000000000E+00 -0.00000000000E+00 -0.16538130836E+04  0.16538130836E+04  0.25500000000E-02 0. -1.
    8880023    1    1    2    0    0  0.11240432898E+04  0.43554076014E+03  0.16092037457E+03  0.13830671149E+04  0.65864270000E+03 0.  0.
    8880022    1    1    2    0    0 -0.11240432898E+04 -0.43554076014E+03 -0.68872981417E+03  0.13967496128E+04  0.15294330000E+03 0.  0.
<mgrwt>
<rscale>  0 0.13321990E+04</rscale>
<asrwt>0</asrwt>
<pdfrwt beam="1">  1        2 0.25443278E+00 0.13736736E+04</pdfrwt>
<pdfrwt beam="2">  1       -2 0.17323133E+00 0.13736736E+04</pdfrwt>
<totfact> 0.20072954E+00</totfact>
</mgrwt>
</event>
<event>
 4    1  0.3057048E-007  0.7233311E+03  0.7818608E-02  0.9911472E-01
          2   -1    0    0  501    0  0.00000000000E+00  0.00000000000E+00  0.70663224088E+03  0.70663224089E+03  0.25500000000E-02 0. -1.
         -2   -1    0    0    0  501 -0.00000000000E+00 -0.00000000000E+00 -0.17788860787E+04  0.17788860787E+04  0.25500000000E-02 0.  1.
    8880023    1    1    2    0    0 -0.19285540333E+03  0.22848301007E+03 -0.16587896966E+04  0.18096384048E+04  0.65864270000E+03 0.  1.
    8880022    1    1    2    0    0  0.19285540333E+03 -0.22848301007E+03  0.58653585879E+03  0.67587991474E+03  0.15294330000E+03 0.  0.
<mgrwt>
<rscale>  0 0.59708529E+03</rscale>
<asrwt>0</asrwt>
<pdfrwt beam="1">  1        2 0.10871265E+00 0.72333111E+03</pdfrwt>
<pdfrwt beam="2">  1       -2 0.27367478E+00 0.72333111E+03</pdfrwt>
<totfact> 0.19398228E+00</totfact>
</mgrwt>
</event>
<event>
 4    1  0.3057048E-007  0.9803877E+03  0.7818608E-02  0.9407678E-01
          2   -1    0    0  501    0  0.00000000000E+00  0.00000000000E+00  0.15712323000E+04  0.15712323000E+04  0.25500000000E-02 0. -1.
         -2   -1    0    0    0  501 -0.00000000000E+00 -0.00000000000E+00 -0.62804577068E+03  0.62804577068E+03  0.25500000000E-02 0.  1.
    8880023    1    1    2    0    0 -0.68423660574E+03  0.24324920287E+03 -0.23390948677E+02  0.98066673752E+03  0.65864270000E+03 0.  1.
    8880022    1    1    2    0    0  0.68423660574E+03 -0.24324920287E+03  0.96657747801E+03  0.12186113332E+04  0.15294330000E+03 0.  0.
<mgrwt>
<rscale>  0 0.91446457E+03</rscale>
<asrwt>0</asrwt>
<pdfrwt beam="1">  1        2 0.24172804E+00 0.98038774E+03</pdfrwt>
<pdfrwt beam="2">  1       -2 0.96622427E-01 0.98038774E+03</pdfrwt>
<totfact> 0.10349246E+01</totfact>
</mgrwt>
</event>
<event>
 4    1  0.3057048E-007  0.7681341E+03  0.7818608E-02  0.9784487E-01
         -2   -1    0    0    0  501 -0.00000000000E+00  0.00000000000E+00  0.13413731645E+04  0.13413731645E+04  0.25500000000E-02 0.  1.
          2   -1    0    0  501    0  0.00000000000E+00 -0.00000000000E+00 -0.46860023560E+03  0.46860023561E+03  0.25500000000E-02 0. -1.
    8880023    1    1    2    0    0  0.37648735085E+03 -0.12032067913E+03 -0.74974380454E+02  0.77178439681E+03  0.65864270000E+03 0. -1.
    8880022    1    1    2    0    0 -0.37648735085E+03  0.12032067913E+03  0.94774730938E+03  0.10381890033E+04  0.15294330000E+03 0.  0.
<mgrwt>
<rscale>  0 0.66201760E+03</rscale>
<asrwt>0</asrwt>
<pdfrwt beam="1">  1        2 0.72092346E-01 0.76813410E+03</pdfrwt>
<pdfrwt beam="2">  1       -2 0.20636510E+00 0.76813410E+03</pdfrwt>
<totfact> 0.81696660E+00</totfact>
</mgrwt>
</event>
<event>
 4    1  0.3057048E-007  0.7199371E+03  0.7818608E-02  0.9922799E-01
         -2   -1    0    0    0  501 -0.00000000000E+00  0.00000000000E+00  0.26830030968E+03  0.26830030969E+03  0.25500000000E-02 0.  1.
          2   -1    0    0  501    0  0.00000000000E+00 -0.00000000000E+00 -0.15718421610E+04  0.15718421610E+04  0.25500000000E-02 0. -1.
    8880023    1    1    2    0    0 -0.29066820735E+03  0.33595373008E+01 -0.29250961687E+03  0.77709161331E+03  0.65864270000E+03 0.  0.
    8880022    1    1    2    0    0  0.29066820735E+03 -0.33595373008E+01 -0.10110322344E+04  0.10630508573E+04  0.15294330000E+03 0.  0.
<mgrwt>
<rscale>  0 0.59168977E+03</rscale>
<asrwt>0</asrwt>
<pdfrwt beam="1">  1        2 0.24182187E+00 0.71993715E+03</pdfrwt>
<pdfrwt beam="2">  1       -2 0.41276972E-01 0.71993715E+03</pdfrwt>
<totfact> 0.65883841E+01</totfact>
</mgrwt>
</event>
<event>
 4    1  0.3057048E-007  0.8203188E+03  0.7818608E-02  0.9668471E-01
         -2   -1    0    0    0  501 -0.00000000000E+00  0.00000000000E+00  0.30353120435E+03  0.30353120436E+03  0.25500000000E-02 0.  1.
          2   -1    0    0  501    0  0.00000000000E+00 -0.00000000000E+00 -0.14633548245E+04  0.14633548245E+04  0.25500000000E-02 0. -1.
    8880023    1    1    2    0    0  0.34702498767E+03 -0.34450889644E+03 -0.69700123034E+03  0.10764449095E+04  0.65864270000E+03 0.  0.
    8880022    1    1    2    0    0 -0.34702498767E+03  0.34450889644E+03 -0.46282238979E+03  0.69044111936E+03  0.15294330000E+03 0. -1.
<mgrwt>
<rscale>  0 0.72925441E+03</rscale>
<asrwt>0</asrwt>
<pdfrwt beam="1">  1        2 0.22513151E+00 0.82031880E+03</pdfrwt>
<pdfrwt beam="2">  1       -2 0.46697109E-01 0.82031880E+03</pdfrwt>
<totfact> 0.58679093E+01</totfact>
</mgrwt>
</event>
<event>
 4    1  0.3057048E-007  0.8891625E+03  0.7818608E-02  0.9543658E-01
          2   -1    0    0  501    0  0.00000000000E+00  0.00000000000E+00  0.82216242936E+03  0.82216242937E+03  0.25500000000E-02 0. -1.
         -2   -1    0    0    0  501 -0.00000000000E+00 -0.00000000000E+00 -0.74045143940E+03  0.74045143941E+03  0.25500000000E-02 0.  1.
    8880023    1    1    2    0    0 -0.37359171875E+03 -0.46607830890E+03 -0.15418809076E+03  0.90243223343E+03  0.65864270000E+03 0. -1.
    8880022    1    1    2    0    0  0.37359171875E+03  0.46607830890E+03  0.23589908072E+03  0.66018163534E+03  0.15294330000E+03 0.  0.
<mgrwt>
<rscale>  0 0.81140213E+03</rscale>
<asrwt>0</asrwt>
<pdfrwt beam="1">  1        2 0.12648653E+00 0.88916251E+03</pdfrwt>
<pdfrwt beam="2">  1       -2 0.11391561E+00 0.88916251E+03</pdfrwt>
<totfact> 0.20081920E+01</totfact>
</mgrwt>
</event>
<event>
 4    1  0.3057048E-007  0.9303625E+03  0.7818608E-02  0.9478950E-01
         -2   -1    0    0    0  501 -0.00000000000E+00  0.00000000000E+00  0.47256541942E+03  0.47256541943E+03  0.25500000000E-02 0.  1.
          2   -1    0    0  501    0  0.00000000000E+00 -0.00000000000E+00 -0.17536792193E+04  0.17536792193E+04  0.25500000000E-02 0. -1.
    8880023    1    1    2    0    0  0.40718205385E+02 -0.65582489656E+03 -0.19956173960E+03  0.95152475605E+03  0.65864270000E+03 0.  1.
    8880022    1    1    2    0    0 -0.40718205385E+02  0.65582489656E+03 -0.10815520603E+04  0.12747198827E+04  0.15294330000E+03 0. -1.
<mgrwt>
<rscale>  0 0.85853734E+03</rscale>
<asrwt>0</asrwt>
<pdfrwt beam="1">  1        2 0.26979680E+00 0.93036255E+03</pdfrwt>
<pdfrwt beam="2">  1       -2 0.72702373E-01 0.93036255E+03</pdfrwt>
<totfact> 0.15772551E+01</totfact>
</mgrwt>
</event>
<event>
 4    1  0.3057048E-007  0.7072776E+03  0.7818608E-02  0.9968252E-01
         -2   -1    0    0    0  501 -0.00000000000E+00  0.00000000000E+00  0.59452015779E+03  0.59452015779E+03  0.25500000000E-02 0.  1.
          2   -1    0    0  501    0  0.00000000000E+00 -0.00000000000E+00 -0.24325107819E+04  0.24325107819E+04  0.25500000000E-02 0. -1.
    8880023    1    1    2    0    0  0.17983769317E+03  0.18463440375E+03  0.37039950982E+03  0.79839680740E+03  0.65864270000E+03 0.  0.
    8880022    1    1    2    0    0 -0.17983769317E+03 -0.18463440375E+03 -0.22083901339E+04  0.22286341323E+04  0.15294330000E+03 0.  0.
<mgrwt>
<rscale>  0 0.57064493E+03</rscale>
<asrwt>0</asrwt>
<pdfrwt beam="1">  1        2 0.37423242E+00 0.70727764E+03</pdfrwt>
<pdfrwt beam="2">  1       -2 0.91464641E-01 0.70727764E+03</pdfrwt>
<totfact> 0.40957082E+00</totfact>
</mgrwt>
</event>
<event>
 4    1  0.3057048E-007  0.1014184E+04  0.7818608E-02  0.9363232E-01
          2   -1    0    0  501    0  0.00000000000E+00  0.00000000000E+00  0.19022764106E+04  0.19022764106E+04  0.25500000000E-02 0. -1.
         -2   -1    0    0    0  501 -0.00000000000E+00 -0.00000000000E+00 -0.95818648668E+03  0.95818648669E+03  0.25500000000E-02 0.  1.
    8880023    1    1    2    0    0  0.73127609994E+03 -0.24493667587E+03 -0.56347037984E+03  0.11602016138E+04  0.65864270000E+03 0.  1.
    8880022    1    1    2    0    0 -0.73127609994E+03  0.24493667587E+03  0.15075603038E+04  0.17002612835E+04  0.15294330000E+03 0. -1.
<mgrwt>
<rscale>  0 0.95164351E+03</rscale>
<asrwt>0</asrwt>
<pdfrwt beam="1">  1        2 0.29265791E+00 0.10141839E+04</pdfrwt>
<pdfrwt beam="2">  1       -2 0.14741331E+00 0.10141839E+04</pdfrwt>
<totfact> 0.23628348E+00</totfact>
</mgrwt>
</event>
<event>
 4    1  0.3057048E-007  0.7831531E+03  0.7818608E-02  0.9748482E-01
         -2   -1    0    0    0  501 -0.00000000000E+00  0.00000000000E+00  0.25510310385E+03  0.25510310386E+03  0.25500000000E-02 0.  1.
          2   -1    0    0  501    0  0.00000000000E+00 -0.00000000000E+00 -0.21997929722E+04  0.21997929722E+04  0.25500000000E-02 0. -1.
    8880023    1    1    2    0    0  0.33119823991E+03 -0.26424666658E+03 -0.47094843369E+03  0.91384966399E+03  0.65864270000E+03 0.  1.
    8880022    1    1    2    0    0 -0.33119823991E+03  0.26424666658E+03 -0.14737414347E+04  0.15410464121E+04  0.15294330000E+03 0.  0.
<mgrwt>
<rscale>  0 0.68202139E+03</rscale>
<asrwt>0</asrwt>
<pdfrwt beam="1">  1        2 0.33842968E+00 0.78315310E+03</pdfrwt>
<pdfrwt beam="2">  1       -2 0.39246633E-01 0.78315310E+03</pdfrwt>
<totfact> 0.32712023E+01</totfact>
</mgrwt>
</event>
<event>
 4    1  0.3057048E-007  0.1055895E+04  0.7818608E-02  0.9311828E-01
          2   -1    0    0  501    0  0.00000000000E+00  0.00000000000E+00  0.30821735513E+04  0.30821735513E+04  0.25500000000E-02 0. -1.
         -2   -1    0    0    0  501 -0.00000000000E+00 -0.00000000000E+00 -0.38410259296E+03  0.38410259297E+03  0.25500000000E-02 0.  1.
    8880023    1    1    2    0    0  0.37064849871E+03  0.73737606860E+03  0.61849455016E+03  0.12237031875E+04  0.65864270000E+03 0.  1.
    8880022    1    1    2    0    0 -0.37064849871E+03 -0.73737606860E+03  0.20795764082E+04  0.22425729568E+04  0.15294330000E+03 0.  0.
<mgrwt>
<rscale>  0 0.99701177E+03</rscale>
<asrwt>0</asrwt>
<pdfrwt beam="1">  1        2 0.47418055E+00 0.10558949E+04</pdfrwt>
<pdfrwt beam="2">  1       -2 0.59092706E-01 0.10558949E+04</pdfrwt>
<totfact> 0.42010211E+00</totfact>
</mgrwt>
</event>
<event>
 4    1  0.3057048E-007  0.1319126E+04  0.7818608E-02  0.9049217E-01
         -2   -1    0    0    0  501 -0.00000000000E+00  0.00000000000E+00  0.11889381020E+04  0.11889381020E+04  0.25500000000E-02 0.  1.
          2   -1    0    0  501    0  0.00000000000E+00 -0.00000000000E+00 -0.14476706160E+04  0.14476706160E+04  0.25500000000E-02 0. -1.
    8880023    1    1    2    0    0 -0.97060521405E+03  0.60349627746E+03 -0.57786730367E+03  0.14401468902E+04  0.65864270000E+03 0. -1.
    8880022    1    1    2    0    0  0.97060521405E+03 -0.60349627746E+03  0.31913478958E+03  0.11964618278E+04  0.15294330000E+03 0.  1.
<mgrwt>
<rscale>  0 0.12755068E+04</rscale>
<asrwt>0</asrwt>
<pdfrwt beam="1">  1        2 0.22271856E+00 0.13191256E+04</pdfrwt>
<pdfrwt beam="2">  1       -2 0.18291355E+00 0.13191256E+04</pdfrwt>
<totfact> 0.22572006E+00</totfact>
</mgrwt>
</event>
<event>
 4    1  0.3057048E-007  0.7446091E+03  0.7818608E-02  0.9846719E-01
          2   -1    0    0  501    0  0.00000000000E+00  0.00000000000E+00  0.20984089791E+04  0.20984089791E+04  0.25500000000E-02 0. -1.
         -2   -1    0    0    0  501 -0.00000000000E+00 -0.00000000000E+00 -0.21600883284E+03  0.21600883285E+03  0.25500000000E-02 0.  1.
    8880023    1    1    2    0    0  0.25741943520E+03 -0.23316897430E+03  0.54107095970E+03  0.92043496560E+03  0.65864270000E+03 0.  0.
    8880022    1    1    2    0    0 -0.25741943520E+03  0.23316897430E+03  0.13413291866E+04  0.13939828464E+04  0.15294330000E+03 0.  0.
<mgrwt>
<rscale>  0 0.62914492E+03</rscale>
<asrwt>0</asrwt>
<pdfrwt beam="1">  1        2 0.32283215E+00 0.74460912E+03</pdfrwt>
<pdfrwt beam="2">  1       -2 0.33232129E-01 0.74460912E+03</pdfrwt>
<totfact> 0.51396310E+01</totfact>
</mgrwt>
</event>
<event>
 4    1  0.3057048E-007  0.7719246E+03  0.7818608E-02  0.9775160E-01
          2   -1    0    0  501    0  0.00000000000E+00  0.00000000000E+00  0.17077858093E+04  0.17077858093E+04  0.25500000000E-02 0. -1.
         -2   -1    0    0    0  501 -0.00000000000E+00 -0.00000000000E+00 -0.52822057339E+03  0.52822057340E+03  0.25500000000E-02 0.  1.
    8880023    1    1    2    0    0 -0.23461201891E+02 -0.40187935961E+03 -0.19449010585E+03  0.79604902815E+03  0.65864270000E+03 0.  1.
    8880022    1    1    2    0    0  0.23461201891E+02  0.40187935961E+03  0.13740553417E+04  0.14399573545E+04  0.15294330000E+03 0.  0.
<mgrwt>
<rscale>  0 0.66712816E+03</rscale>
<asrwt>0</asrwt>
<pdfrwt beam="1">  1        2 0.26273627E+00 0.77192464E+03</pdfrwt>
<pdfrwt beam="2">  1       -2 0.81264705E-01 0.77192464E+03</pdfrwt>
<totfact> 0.13284810E+01</totfact>
</mgrwt>
</event>
<event>
 4    1  0.3057048E-007  0.1201953E+04  0.7818608E-02  0.9155226E-01
          2   -1    0    0  501    0  0.00000000000E+00  0.00000000000E+00  0.10095467638E+04  0.10095467638E+04  0.25500000000E-02 0. -1.
         -2   -1    0    0    0  501 -0.00000000000E+00 -0.00000000000E+00 -0.16272949193E+04  0.16272949193E+04  0.25500000000E-02 0.  1.
    8880023    1    1    2    0    0  0.53400850879E+03  0.85188951337E+03  0.33028185598E+03  0.12465059732E+04  0.65864270000E+03 0. -1.
    8880022    1    1    2    0    0 -0.53400850879E+03 -0.85188951337E+03 -0.94803001149E+03  0.13903357099E+04  0.15294330000E+03 0.  0.
<mgrwt>
<rscale>  0 0.11527762E+04</rscale>
<asrwt>0</asrwt>
<pdfrwt beam="1">  1        2 0.15531489E+00 0.12019530E+04</pdfrwt>
<pdfrwt beam="2">  1       -2 0.25035306E+00 0.12019530E+04</pdfrwt>
<totfact> 0.15466479E+00</totfact>
</mgrwt>
</event>
<event>
 4    1  0.3057048E-007  0.8184194E+03  0.7818608E-02  0.9672299E-01
         -2   -1    0    0    0  501 -0.00000000000E+00  0.00000000000E+00  0.60826356365E+03  0.60826356366E+03  0.25500000000E-02 0.  1.
          2   -1    0    0  501    0  0.00000000000E+00 -0.00000000000E+00 -0.77222958686E+03  0.77222958687E+03  0.25500000000E-02 0. -1.
    8880023    1    1    2    0    0 -0.87909235535E+02 -0.47777823613E+03  0.67216016191E+02  0.82117493612E+03  0.65864270000E+03 0.  0.
    8880022    1    1    2    0    0  0.87909235535E+02  0.47777823613E+03 -0.23118203940E+03  0.55931821441E+03  0.15294330000E+03 0.  0.
<mgrwt>
<rscale>  0 0.72690297E+03</rscale>
<asrwt>0</asrwt>
<pdfrwt beam="1">  1        2 0.11880455E+00 0.81841938E+03</pdfrwt>
<pdfrwt beam="2">  1       -2 0.93579010E-01 0.81841938E+03</pdfrwt>
<totfact> 0.35131144E+01</totfact>
</mgrwt>
</event>
<event>
 4    1  0.3057048E-007  0.7597431E+03  0.7818608E-02  0.9805773E-01
         -2   -1    0    0    0  501 -0.00000000000E+00  0.00000000000E+00  0.86908936293E+03  0.86908936293E+03  0.25500000000E-02 0.  1.
          2   -1    0    0  501    0  0.00000000000E+00 -0.00000000000E+00 -0.63131181636E+03  0.63131181636E+03  0.25500000000E-02 0. -1.
    8880023    1    1    2    0    0  0.36590523264E+03  0.97533163062E+02 -0.30709621887E+03  0.81946180575E+03  0.65864270000E+03 0. -1.
    8880022    1    1    2    0    0 -0.36590523264E+03 -0.97533163062E+02  0.54487376544E+03  0.68093937355E+03  0.15294330000E+03 0.  0.
<mgrwt>
<rscale>  0 0.65053647E+03</rscale>
<asrwt>0</asrwt>
<pdfrwt beam="1">  1        2 0.97124895E-01 0.75974309E+03</pdfrwt>
<pdfrwt beam="2">  1       -2 0.13370606E+00 0.75974309E+03</pdfrwt>
<totfact> 0.19088004E+01</totfact>
</mgrwt>
</event>
<event>
 4    1  0.3057048E-007  0.7852960E+03  0.7818608E-02  0.9743540E-01
          2   -1    0    0  501    0  0.00000000000E+00  0.00000000000E+00  0.12872303438E+04  0.12872303438E+04  0.25500000000E-02 0. -1.
         -2   -1    0    0    0  501 -0.00000000000E+00 -0.00000000000E+00 -0.37521686034E+03  0.37521686035E+03  0.25500000000E-02 0.  1.
    8880023    1    1    2    0    0  0.69514829625E+02  0.42195649630E+03  0.18753207059E+03  0.80737728484E+03  0.65864270000E+03 0.  1.
    8880022    1    1    2    0    0 -0.69514829625E+02 -0.42195649630E+03  0.72448141287E+03  0.85506991931E+03  0.15294330000E+03 0.  0.
<mgrwt>
<rscale>  0 0.68482542E+03</rscale>
<asrwt>0</asrwt>
<pdfrwt beam="1">  1        2 0.19803544E+00 0.78529600E+03</pdfrwt>
<pdfrwt beam="2">  1       -2 0.57725671E-01 0.78529600E+03</pdfrwt>
<totfact> 0.47987473E+01</totfact>
</mgrwt>
</event>
<event>
 4    1  0.3057048E-007  0.7269096E+03  0.7818608E-02  0.9899864E-01
         -2   -1    0    0    0  501 -0.00000000000E+00  0.00000000000E+00  0.71432413220E+03  0.71432413220E+03  0.25500000000E-02 0.  1.
          2   -1    0    0  501    0  0.00000000000E+00 -0.00000000000E+00 -0.78992535971E+03  0.78992535971E+03  0.25500000000E-02 0. -1.
    8880023    1    1    2    0    0  0.29261948930E+03 -0.94663392639E+02  0.46560970277E+03  0.86324383867E+03  0.65864270000E+03 0.  0.
    8880022    1    1    2    0    0 -0.29261948930E+03  0.94663392639E+02 -0.54121093028E+03  0.64100565324E+03  0.15294330000E+03 0.  0.
<mgrwt>
<rscale>  0 0.60267874E+03</rscale>
<asrwt>0</asrwt>
<pdfrwt beam="1">  1        2 0.12152698E+00 0.72690957E+03</pdfrwt>
<pdfrwt beam="2">  1       -2 0.10989602E+00 0.72690957E+03</pdfrwt>
<totfact> 0.23451344E+01</totfact>
</mgrwt>
</event>
<event>
 4    1  0.3057048E-007  0.6695389E+03  0.7818608E-02  0.1015996E+00
          2   -1    0    0  501    0  0.00000000000E+00  0.00000000000E+00  0.34359350040E+04  0.34359350040E+04  0.25500000000E-02 0. -1.
         -2   -1    0    0    0  501 -0.00000000000E+00 -0.00000000000E+00 -0.73365189014E+02  0.73365189058E+02  0.25500000000E-02 0.  1.
    8880023    1    1    2    0    0  0.55500192953E+02  0.10673243954E+03  0.15781805403E+04  0.17143325550E+04  0.65864270000E+03 0.  1.
    8880022    1    1    2    0    0 -0.55500192953E+02 -0.10673243954E+03  0.17843892747E+04  0.17949676381E+04  0.15294330000E+03 0.  0.
<mgrwt>
<rscale>  0 0.49159763E+03</rscale>
<asrwt>0</asrwt>
<pdfrwt beam="1">  1        2 0.52860539E+00 0.66953886E+03</pdfrwt>
<pdfrwt beam="2">  1       -2 0.11286952E-01 0.66953886E+03</pdfrwt>
<totfact> 0.55121264E+01</totfact>
</mgrwt>
</event>
<event>
 4    1  0.3057048E-007  0.8699178E+03  0.7818608E-02  0.9576159E-01
          2   -1    0    0  501    0  0.00000000000E+00  0.00000000000E+00  0.13145784745E+04  0.13145784745E+04  0.25500000000E-02 0. -1.
         -2   -1    0    0    0  501 -0.00000000000E+00 -0.00000000000E+00 -0.44820834960E+03  0.44820834961E+03  0.25500000000E-02 0.  1.
    8880023    1    1    2    0    0 -0.16286817808E+03 -0.54444531583E+03  0.23804943393E+03  0.90190048488E+03  0.65864270000E+03 0.  1.
    8880022    1    1    2    0    0  0.16286817808E+03  0.54444531583E+03  0.62832069093E+03  0.86088633920E+03  0.15294330000E+03 0.  0.
<mgrwt>
<rscale>  0 0.78894411E+03</rscale>
<asrwt>0</asrwt>
<pdfrwt beam="1">  1        2 0.20224284E+00 0.86991778E+03</pdfrwt>
<pdfrwt beam="2">  1       -2 0.68955131E-01 0.86991778E+03</pdfrwt>
<totfact> 0.31394756E+01</totfact>
</mgrwt>
</event>
<event>
 4    1  0.3057048E-007  0.9744483E+03  0.7818608E-02  0.9415778E-01
          2   -1    0    0  501    0  0.00000000000E+00  0.00000000000E+00  0.12546581163E+04  0.12546581163E+04  0.25500000000E-02 0. -1.
         -2   -1    0    0    0  501 -0.00000000000E+00 -0.00000000000E+00 -0.68673916932E+03  0.68673916933E+03  0.25500000000E-02 0.  1.
    8880023    1    1    2    0    0 -0.54942447969E+03 -0.46246293669E+03 -0.58550444630E+02  0.97620570964E+03  0.65864270000E+03 0.  0.
    8880022    1    1    2    0    0  0.54942447969E+03  0.46246293669E+03  0.62646939156E+03  0.96519157595E+03  0.15294330000E+03 0.  0.
<mgrwt>
<rscale>  0 0.90788506E+03</rscale>
<asrwt>0</asrwt>
<pdfrwt beam="1">  1        2 0.19302433E+00 0.97444827E+03</pdfrwt>
<pdfrwt beam="2">  1       -2 0.10565218E+00 0.97444827E+03</pdfrwt>
<totfact> 0.12680684E+01</totfact>
</mgrwt>
</event>
<event>
 4    1  0.3057048E-007  0.8113538E+03  0.7818608E-02  0.9686764E-01
          2   -1    0    0  501    0  0.00000000000E+00  0.00000000000E+00  0.11355722356E+04  0.11355722356E+04  0.25500000000E-02 0. -1.
         -2   -1    0    0    0  501 -0.00000000000E+00 -0.00000000000E+00 -0.83290341311E+03  0.83290341311E+03  0.25500000000E-02 0.  1.
    8880023    1    1    2    0    0  0.52292085109E+02 -0.47090371911E+03 -0.55062702706E+03  0.98055346822E+03  0.65864270000E+03 0.  1.
    8880022    1    1    2    0    0 -0.52292085109E+02  0.47090371911E+03  0.85329584955E+03  0.98792218050E+03  0.15294330000E+03 0.  0.
<mgrwt>
<rscale>  0 0.71810361E+03</rscale>
<asrwt>0</asrwt>
<pdfrwt beam="1">  1        2 0.17470342E+00 0.81135380E+03</pdfrwt>
<pdfrwt beam="2">  1       -2 0.12813899E+00 0.81135380E+03</pdfrwt>
<totfact> 0.94406147E+00</totfact>
</mgrwt>
</event>
<event>
 4    1  0.3057048E-007  0.6694596E+03  0.7818608E-02  0.1016053E+00
         -2   -1    0    0    0  501 -0.00000000000E+00  0.00000000000E+00  0.58479109187E+03  0.58479109188E+03  0.25500000000E-02 0.  1.
          2   -1    0    0  501    0  0.00000000000E+00 -0.00000000000E+00 -0.98685454668E+03  0.98685454668E+03  0.25500000000E-02 0. -1.
    8880023    1    1    2    0    0  0.33689297223E+02  0.11502595803E+03  0.37727507358E+03  0.76844819421E+03  0.65864270000E+03 0.  1.
    8880022    1    1    2    0    0 -0.33689297223E+02 -0.11502595803E+03 -0.77933852839E+03  0.80319744435E+03  0.15294330000E+03 0.  0.
<mgrwt>
<rscale>  0 0.49138151E+03</rscale>
<asrwt>0</asrwt>
<pdfrwt beam="1">  1        2 0.15182378E+00 0.66945959E+03</pdfrwt>
<pdfrwt beam="2">  1       -2 0.89967860E-01 0.66945959E+03</pdfrwt>
<totfact> 0.27834994E+01</totfact>
</mgrwt>
</event>
<event>
 4    1  0.3057048E-007  0.1293463E+04  0.7818608E-02  0.9071225E-01
          2   -1    0    0  501    0  0.00000000000E+00  0.00000000000E+00  0.15947167300E+04  0.15947167300E+04  0.25500000000E-02 0. -1.
         -2   -1    0    0    0  501 -0.00000000000E+00 -0.00000000000E+00 -0.12593002165E+04  0.12593002165E+04  0.25500000000E-02 0.  1.
    8880023    1    1    2    0    0 -0.10695608060E+04  0.30866989196E+03 -0.56754630303E+03  0.14125000645E+04  0.65864270000E+03 0.  1.
    8880022    1    1    2    0    0  0.10695608060E+04 -0.30866989196E+03  0.90296281651E+03  0.14415168819E+04  0.15294330000E+03 0.  0.
<mgrwt>
<rscale>  0 0.12487488E+04</rscale>
<asrwt>0</asrwt>
<pdfrwt beam="1">  1        2 0.24534104E+00 0.12934634E+04</pdfrwt>
<pdfrwt beam="2">  1       -2 0.19373850E+00 0.12934634E+04</pdfrwt>
<totfact> 0.15780104E+00</totfact>
</mgrwt>
</event>
<event>
 4    1  0.3057048E-007  0.7184671E+03  0.7818608E-02  0.9927807E-01
         -2   -1    0    0    0  501 -0.00000000000E+00  0.00000000000E+00  0.47753086364E+03  0.47753086365E+03  0.25500000000E-02 0.  1.
          2   -1    0    0  501    0  0.00000000000E+00 -0.00000000000E+00 -0.65707129971E+03  0.65707129971E+03  0.25500000000E-02 0. -1.
    8880023    1    1    2    0    0  0.25710470586E+03  0.12760089781E+03  0.73932810751E+02  0.72226109245E+03  0.65864270000E+03 0.  1.
    8880022    1    1    2    0    0 -0.25710470586E+03 -0.12760089781E+03 -0.25347324682E+03  0.41234107091E+03  0.15294330000E+03 0.  0.
<mgrwt>
<rscale>  0 0.58932358E+03</rscale>
<asrwt>0</asrwt>
<pdfrwt beam="1">  1        2 0.10108789E+00 0.71846714E+03</pdfrwt>
<pdfrwt beam="2">  1       -2 0.73466286E-01 0.71846714E+03</pdfrwt>
<totfact> 0.75216186E+01</totfact>
</mgrwt>
</event>
<event>
 4    1  0.3057048E-007  0.7828175E+03  0.7818608E-02  0.9749260E-01
         -2   -1    0    0    0  501 -0.00000000000E+00  0.00000000000E+00  0.24342699057E+04  0.24342699057E+04  0.25500000000E-02 0.  1.
          2   -1    0    0  501    0  0.00000000000E+00 -0.00000000000E+00 -0.16847565577E+03  0.16847565579E+03  0.25500000000E-02 0. -1.
    8880023    1    1    2    0    0 -0.23382466813E+03 -0.35258913723E+03  0.10751327272E+04  0.13299299464E+04  0.65864270000E+03 0.  0.
    8880022    1    1    2    0    0  0.23382466813E+03  0.35258913723E+03  0.11906615228E+04  0.12728156151E+04  0.15294330000E+03 0.  0.
<mgrwt>
<rscale>  0 0.68158123E+03</rscale>
<asrwt>0</asrwt>
<pdfrwt beam="1">  1        2 0.25919332E-01 0.78281753E+03</pdfrwt>
<pdfrwt beam="2">  1       -2 0.37450305E+00 0.78281753E+03</pdfrwt>
<totfact> 0.24011503E+00</totfact>
</mgrwt>
</event>
<event>
 4    1  0.3057048E-007  0.9963172E+03  0.7818608E-02  0.9386392E-01
          2   -1    0    0  501    0  0.00000000000E+00  0.00000000000E+00  0.32536058208E+04  0.32536058208E+04  0.25500000000E-02 0. -1.
         -2   -1    0    0    0  501 -0.00000000000E+00 -0.00000000000E+00 -0.30884253044E+03  0.30884253045E+03  0.25500000000E-02 0.  1.
    8880023    1    1    2    0    0  0.39102251830E+03  0.63713349373E+03  0.77446282913E+03  0.12619194026E+04  0.65864270000E+03 0.  1.
    8880022    1    1    2    0    0 -0.39102251830E+03 -0.63713349373E+03  0.21703004612E+04  0.23005289487E+04  0.15294330000E+03 0.  0.
<mgrwt>
<rscale>  0 0.93204091E+03</rscale>
<asrwt>0</asrwt>
<pdfrwt beam="1">  1        2 0.50055476E+00 0.99631717E+03</pdfrwt>
<pdfrwt beam="2">  1       -2 0.47514234E-01 0.99631717E+03</pdfrwt>
<totfact> 0.51721825E+00</totfact>
</mgrwt>
</event>
<event>
 4    1  0.3057048E-007  0.7217236E+03  0.7818608E-02  0.9916796E-01
          2   -1    0    0  501    0  0.00000000000E+00  0.00000000000E+00  0.85683147398E+03  0.85683147398E+03  0.25500000000E-02 0. -1.
         -2   -1    0    0    0  501 -0.00000000000E+00 -0.00000000000E+00 -0.40169631000E+03  0.40169631001E+03  0.25500000000E-02 0.  1.
    8880023    1    1    2    0    0  0.35606675801E+02  0.29292827501E+03  0.34659301710E+02  0.72255538412E+03  0.65864270000E+03 0.  1.
    8880022    1    1    2    0    0 -0.35606675801E+02 -0.29292827501E+03  0.42047586227E+03  0.53597239987E+03  0.15294330000E+03 0.  0.
<mgrwt>
<rscale>  0 0.59454127E+03</rscale>
<asrwt>0</asrwt>
<pdfrwt beam="1">  1        2 0.13182023E+00 0.72172364E+03</pdfrwt>
<pdfrwt beam="2">  1       -2 0.61799433E-01 0.72172364E+03</pdfrwt>
<totfact> 0.77541080E+01</totfact>
</mgrwt>
</event>
<event>
 4    1  0.3057048E-007  0.7354864E+03  0.7818608E-02  0.9873295E-01
         -2   -1    0    0    0  501 -0.00000000000E+00  0.00000000000E+00  0.36119224132E+03  0.36119224133E+03  0.25500000000E-02 0.  1.
          2   -1    0    0  501    0  0.00000000000E+00 -0.00000000000E+00 -0.11400244031E+04  0.11400244031E+04  0.25500000000E-02 0. -1.
    8880023    1    1    2    0    0 -0.11061757603E+03  0.30804837258E+03 -0.11359372691E+03  0.74420681872E+03  0.65864270000E+03 0.  1.
    8880022    1    1    2    0    0  0.11061757603E+03 -0.30804837258E+03 -0.66523843491E+03  0.75700982574E+03  0.15294330000E+03 0.  0.
<mgrwt>
<rscale>  0 0.61573144E+03</rscale>
<asrwt>0</asrwt>
<pdfrwt beam="1">  1        2 0.17538837E+00 0.73548641E+03</pdfrwt>
<pdfrwt beam="2">  1       -2 0.55568038E-01 0.73548641E+03</pdfrwt>
<totfact> 0.63757881E+01</totfact>
</mgrwt>
</event>
<event>
 4    1  0.3057048E-007  0.6717632E+03  0.7818608E-02  0.1014429E+00
         -2   -1    0    0    0  501 -0.00000000000E+00  0.00000000000E+00  0.73113268576E+02  0.73113268620E+02  0.25500000000E-02 0.  1.
          2   -1    0    0  501    0  0.00000000000E+00 -0.00000000000E+00 -0.28317196057E+04  0.28317196057E+04  0.25500000000E-02 0. -1.
    8880023    1    1    2    0    0  0.13134703482E+03  0.14264904244E+02 -0.17156929950E+04  0.18425168087E+04  0.65864270000E+03 0.  1.
    8880022    1    1    2    0    0 -0.13134703482E+03 -0.14264904244E+02 -0.10429133421E+04  0.10623160656E+04  0.15294330000E+03 0.  0.
<mgrwt>
<rscale>  0 0.49751640E+03</rscale>
<asrwt>0</asrwt>
<pdfrwt beam="1">  1        2 0.43564909E+00 0.67176316E+03</pdfrwt>
<pdfrwt beam="2">  1       -2 0.11248197E-01 0.67176316E+03</pdfrwt>
<totfact> 0.13267242E+02</totfact>
</mgrwt>
</event>
<event>
 4    1  0.3057048E-007  0.6787119E+03  0.7818608E-02  0.1010062E+00
          2   -1    0    0  501    0  0.00000000000E+00  0.00000000000E+00  0.17344396096E+04  0.17344396096E+04  0.25500000000E-02 0. -1.
         -2   -1    0    0    0  501 -0.00000000000E+00 -0.00000000000E+00 -0.13898590448E+03  0.13898590450E+03  0.25500000000E-02 0.  1.
    8880023    1    1    2    0    0  0.10632586004E+03  0.12463749411E+03  0.81073056688E+03  0.10573239578E+04  0.65864270000E+03 0.  0.
    8880022    1    1    2    0    0 -0.10632586004E+03 -0.12463749411E+03  0.78472313824E+03  0.81610155628E+03  0.15294330000E+03 0.  0.
<mgrwt>
<rscale>  0 0.51450070E+03</rscale>
<asrwt>0</asrwt>
<pdfrwt beam="1">  1        2 0.26683687E+00 0.67871194E+03</pdfrwt>
<pdfrwt beam="2">  1       -2 0.21382447E-01 0.67871194E+03</pdfrwt>
<totfact> 0.18248034E+02</totfact>
</mgrwt>
</event>
<event>
 4    1  0.3057048E-007  0.8507215E+03  0.7818608E-02  0.9610286E-01
         -2   -1    0    0    0  501 -0.00000000000E+00  0.00000000000E+00  0.13466657588E+04  0.13466657588E+04  0.25500000000E-02 0.  1.
          2   -1    0    0  501    0  0.00000000000E+00 -0.00000000000E+00 -0.10835264249E+04  0.10835264249E+04  0.25500000000E-02 0. -1.
    8880023    1    1    2    0    0  0.43524433518E+03 -0.31698457054E+03  0.11201527474E+04  0.14065806884E+04  0.65864270000E+03 0.  1.
    8880022    1    1    2    0    0 -0.43524433518E+03  0.31698457054E+03 -0.85701341355E+03  0.10236114953E+04  0.15294330000E+03 0.  0.
<mgrwt>
<rscale>  0 0.76619105E+03</rscale>
<asrwt>0</asrwt>
<pdfrwt beam="1">  1        2 0.16669637E+00 0.85072149E+03</pdfrwt>
<pdfrwt beam="2">  1       -2 0.20717935E+00 0.85072149E+03</pdfrwt>
<totfact> 0.26938373E+00</totfact>
</mgrwt>
</event>
<event>
 4    1  0.3057048E-007  0.7329586E+03  0.7818608E-02  0.9880954E-01
         -2   -1    0    0    0  501 -0.00000000000E+00  0.00000000000E+00  0.61274166388E+03  0.61274166389E+03  0.25500000000E-02 0.  1.
          2   -1    0    0  501    0  0.00000000000E+00 -0.00000000000E+00 -0.62695887725E+03  0.62695887725E+03  0.25500000000E-02 0. -1.
    8880023    1    1    2    0    0  0.31132448139E+03 -0.80592433971E+02  0.27305574294E+03  0.78216859956E+03  0.65864270000E+03 0.  0.
    8880022    1    1    2    0    0 -0.31132448139E+03  0.80592433971E+02 -0.28727295631E+03  0.45753194158E+03  0.15294330000E+03 0.  0.
<mgrwt>
<rscale>  0 0.61193268E+03</rscale>
<asrwt>0</asrwt>
<pdfrwt beam="1">  1        2 0.96455212E-01 0.73295858E+03</pdfrwt>
<pdfrwt beam="2">  1       -2 0.94267948E-01 0.73295858E+03</pdfrwt>
<totfact> 0.45228714E+01</totfact>
</mgrwt>
</event>
<event>
 4    1  0.3057048E-007  0.1061071E+04  0.7818608E-02  0.9305690E-01
          2   -1    0    0  501    0  0.00000000000E+00  0.00000000000E+00  0.31432547055E+04  0.31432547055E+04  0.25500000000E-02 0. -1.
         -2   -1    0    0    0  501 -0.00000000000E+00 -0.00000000000E+00 -0.66878168669E+03  0.66878168670E+03  0.25500000000E-02 0.  1.
    8880023    1    1    2    0    0  0.83046445615E+03 -0.48884345546E+02 -0.13432680797E+03  0.10695395223E+04  0.65864270000E+03 0.  1.
    8880022    1    1    2    0    0 -0.83046445615E+03  0.48884345546E+02  0.26087998268E+04  0.27424968699E+04  0.15294330000E+03 0.  0.
<mgrwt>
<rscale>  0 0.10026073E+04</rscale>
<asrwt>0</asrwt>
<pdfrwt beam="1">  1        2 0.48357765E+00 0.10610707E+04</pdfrwt>
<pdfrwt beam="2">  1       -2 0.10288949E+00 0.10610707E+04</pdfrwt>
<totfact> 0.11034835E+00</totfact>
</mgrwt>
</event>
<event>
 4    1  0.3057048E-007  0.6647988E+03  0.7818608E-02  0.1019703E+00
          2   -1    0    0  501    0  0.00000000000E+00  0.00000000000E+00  0.28003116974E+03  0.28003116975E+03  0.25500000000E-02 0. -1.
         -2   -1    0    0    0  501 -0.00000000000E+00 -0.00000000000E+00 -0.81579098839E+03  0.81579098839E+03  0.25500000000E-02 0.  1.
    8880023    1    1    2    0    0 -0.43381756774E+02 -0.79153231376E+02 -0.61102023139E+03  0.90294138253E+03  0.65864270000E+03 0.  1.
    8880022    1    1    2    0    0  0.43381756774E+02  0.79153231376E+02  0.75260412748E+02  0.19288077561E+03  0.15294330000E+03 0.  0.
<mgrwt>
<rscale>  0 0.47794004E+03</rscale>
<asrwt>0</asrwt>
<pdfrwt beam="1">  1        2 0.43081719E-01 0.66479878E+03</pdfrwt>
<pdfrwt beam="2">  1       -2 0.12550630E+00 0.66479878E+03</pdfrwt>
<totfact> 0.57130307E+01</totfact>
</mgrwt>
</event>
<event>
 4    1  0.3057048E-007  0.8490554E+03  0.7818608E-02  0.9613336E-01
         -2   -1    0    0    0  501 -0.00000000000E+00  0.00000000000E+00  0.28619397281E+03  0.28619397282E+03  0.25500000000E-02 0.  1.
          2   -1    0    0  501    0  0.00000000000E+00 -0.00000000000E+00 -0.26039228766E+04  0.26039228766E+04  0.25500000000E-02 0. -1.
    8880023    1    1    2    0    0  0.48346184187E+03  0.23097526136E+03 -0.49211467361E+03  0.98136230932E+03  0.65864270000E+03 0.  1.
    8880022    1    1    2    0    0 -0.48346184187E+03 -0.23097526136E+03 -0.18256142301E+04  0.19087545401E+04  0.15294330000E+03 0. -1.
<mgrwt>
<rscale>  0 0.76419755E+03</rscale>
<asrwt>0</asrwt>
<pdfrwt beam="1">  1        2 0.40060350E+00 0.84905543E+03</pdfrwt>
<pdfrwt beam="2">  1       -2 0.44029844E-01 0.84905543E+03</pdfrwt>
<totfact> 0.15313603E+01</totfact>
</mgrwt>
</event>
<event>
 4    1  0.3057048E-007  0.1674729E+04  0.7818608E-02  0.8795193E-01
         -2   -1    0    0    0  501 -0.00000000000E+00  0.00000000000E+00  0.13200423001E+04  0.13200423001E+04  0.25500000000E-02 0.  1.
          2   -1    0    0  501    0  0.00000000000E+00 -0.00000000000E+00 -0.19711235229E+04  0.19711235229E+04  0.25500000000E-02 0. -1.
    8880023    1    1    2    0    0 -0.66391599743E+03 -0.13892880390E+04 -0.25609275044E+03  0.16941958004E+04  0.65864270000E+03 0.  1.
    8880022    1    1    2    0    0  0.66391599743E+03  0.13892880390E+04 -0.39498847238E+03  0.15969700226E+04  0.15294330000E+03 0. -1.
<mgrwt>
<rscale>  0 0.16419336E+04</rscale>
<asrwt>0</asrwt>
<pdfrwt beam="1">  1        2 0.30324977E+00 0.16747286E+04</pdfrwt>
<pdfrwt beam="2">  1       -2 0.20308343E+00 0.16747286E+04</pdfrwt>
<totfact> 0.81339712E-01</totfact>
</mgrwt>
</event>
<event>
 4    1  0.3057048E-007  0.1239254E+04  0.7818608E-02  0.9119878E-01
         -2   -1    0    0    0  501 -0.00000000000E+00  0.00000000000E+00  0.67349638276E+03  0.67349638276E+03  0.25500000000E-02 0.  1.
          2   -1    0    0  501    0  0.00000000000E+00 -0.00000000000E+00 -0.22056702566E+04  0.22056702566E+04  0.25500000000E-02 0. -1.
    8880023    1    1    2    0    0 -0.11913688236E+03 -0.10429510799E+04 -0.12944804405E+04  0.17920464193E+04  0.65864270000E+03 0. -1.
    8880022    1    1    2    0    0  0.11913688236E+03  0.10429510799E+04 -0.23769343335E+03  0.10871202201E+04  0.15294330000E+03 0.  0.
<mgrwt>
<rscale>  0 0.11920113E+04</rscale>
<asrwt>0</asrwt>
<pdfrwt beam="1">  1        2 0.33933388E+00 0.12392541E+04</pdfrwt>
<pdfrwt beam="2">  1       -2 0.10361483E+00 0.12392541E+04</pdfrwt>
<totfact> 0.37960513E+00</totfact>
</mgrwt>
</event>
<event>
 4    1  0.3057048E-007  0.7293056E+03  0.7818608E-02  0.9892271E-01
         -2   -1    0    0    0  501 -0.00000000000E+00  0.00000000000E+00  0.33758005108E+03  0.33758005109E+03  0.25500000000E-02 0.  1.
          2   -1    0    0  501    0  0.00000000000E+00 -0.00000000000E+00 -0.10224021857E+04  0.10224021857E+04  0.25500000000E-02 0. -1.
    8880023    1    1    2    0    0  0.30645694860E+03 -0.64503023348E+02 -0.18807476250E+03  0.75316586747E+03  0.65864270000E+03 0.  1.
    8880022    1    1    2    0    0 -0.30645694860E+03  0.64503023348E+02 -0.49674737212E+03  0.60681636933E+03  0.15294330000E+03 0.  0.
<mgrwt>
<rscale>  0 0.60637317E+03</rscale>
<asrwt>0</asrwt>
<pdfrwt beam="1">  1        2 0.15729264E+00 0.72930563E+03</pdfrwt>
<pdfrwt beam="2">  1       -2 0.51935393E-01 0.72930563E+03</pdfrwt>
<totfact> 0.86667217E+01</totfact>
</mgrwt>
</event>
<event>
 4    1  0.3057048E-007  0.1000831E+04  0.7818608E-02  0.9380472E-01
          2   -1    0    0  501    0  0.00000000000E+00  0.00000000000E+00  0.14615198595E+04  0.14615198595E+04  0.25500000000E-02 0. -1.
         -2   -1    0    0    0  501 -0.00000000000E+00 -0.00000000000E+00 -0.10339419285E+04  0.10339419285E+04  0.25500000000E-02 0.  1.
    8880023    1    1    2    0    0  0.37937563479E+03  0.65109582995E+03 -0.63394062502E+03  0.11847120217E+04  0.65864270000E+03 0.  0.
    8880022    1    1    2    0    0 -0.37937563479E+03 -0.65109582995E+03  0.10615185560E+04  0.13107497663E+04  0.15294330000E+03 0.  0.
<mgrwt>
<rscale>  0 0.93700348E+03</rscale>
<asrwt>0</asrwt>
<pdfrwt beam="1">  1        2 0.22484921E+00 0.10008306E+04</pdfrwt>
<pdfrwt beam="2">  1       -2 0.15906799E+00 0.10008306E+04</pdfrwt>
<totfact> 0.33894716E+00</totfact>
</mgrwt>
</event>
<event>
 4    1  0.3057048E-007  0.7653201E+03  0.7818608E-02  0.9791524E-01
          2   -1    0    0  501    0  0.00000000000E+00  0.00000000000E+00  0.24155622310E+04  0.24155622310E+04  0.25500000000E-02 0. -1.
         -2   -1    0    0    0  501 -0.00000000000E+00 -0.00000000000E+00 -0.25431041394E+03  0.25431041396E+03  0.25500000000E-02 0.  1.
    8880023    1    1    2    0    0 -0.27974135402E+03  0.27138419270E+03  0.21143166484E+04  0.22485661433E+04  0.65864270000E+03 0. -1.
    8880022    1    1    2    0    0  0.27974135402E+03 -0.27138419270E+03  0.46935168656E+02  0.42130650157E+03  0.15294330000E+03 0.  0.
<mgrwt>
<rscale>  0 0.65819398E+03</rscale>
<asrwt>0</asrwt>
<pdfrwt beam="1">  1        2 0.37162495E+00 0.76532007E+03</pdfrwt>
<pdfrwt beam="2">  1       -2 0.39124680E-01 0.76532007E+03</pdfrwt>
<totfact> 0.25019519E+01</totfact>
</mgrwt>
</event>
<event>
 4    1  0.3057048E-007  0.1166702E+04  0.7818608E-02  0.9190190E-01
         -2   -1    0    0    0  501 -0.00000000000E+00  0.00000000000E+00  0.16733142350E+04  0.16733142350E+04  0.25500000000E-02 0.  1.
          2   -1    0    0  501    0  0.00000000000E+00 -0.00000000000E+00 -0.11466142461E+04  0.11466142461E+04  0.25500000000E-02 0. -1.
    8880023    1    1    2    0    0  0.29848310317E+03 -0.91558247645E+03 -0.61470728164E+03  0.13187337421E+04  0.65864270000E+03 0.  0.
    8880022    1    1    2    0    0 -0.29848310317E+03  0.91558247645E+03  0.11414072706E+04  0.15011947390E+04  0.15294330000E+03 0.  0.
<mgrwt>
<rscale>  0 0.11155260E+04</rscale>
<asrwt>0</asrwt>
<pdfrwt beam="1">  1        2 0.17640219E+00 0.11667020E+04</pdfrwt>
<pdfrwt beam="2">  1       -2 0.25743296E+00 0.11667020E+04</pdfrwt>
<totfact> 0.11531662E+00</totfact>
</mgrwt>
</event>
<event>
 4    1  0.3057048E-007  0.1130198E+04  0.7818608E-02  0.9228156E-01
          2   -1    0    0  501    0  0.00000000000E+00  0.00000000000E+00  0.14717696521E+04  0.14717696521E+04  0.25500000000E-02 0. -1.
         -2   -1    0    0    0  501 -0.00000000000E+00 -0.00000000000E+00 -0.91123252251E+03  0.91123252252E+03  0.25500000000E-02 0.  1.
    8880023    1    1    2    0    0 -0.68339919161E+03  0.61359886051E+03 -0.23962978905E+03  0.11553227509E+04  0.65864270000E+03 0.  0.
    8880022    1    1    2    0    0  0.68339919161E+03 -0.61359886051E+03  0.80016691867E+03  0.12276794237E+04  0.15294330000E+03 0.  0.
<mgrwt>
<rscale>  0 0.10767478E+04</rscale>
<asrwt>0</asrwt>
<pdfrwt beam="1">  1        2 0.22642610E+00 0.11301983E+04</pdfrwt>
<pdfrwt beam="2">  1       -2 0.14018962E+00 0.11301983E+04</pdfrwt>
<totfact> 0.46162921E+00</totfact>
</mgrwt>
</event>
<event>
 4    1  0.3057048E-007  0.6951988E+03  0.7818608E-02  0.1001773E+00
         -2   -1    0    0    0  501 -0.00000000000E+00  0.00000000000E+00  0.34483921280E+03  0.34483921281E+03  0.25500000000E-02 0.  1.
          2   -1    0    0  501    0  0.00000000000E+00 -0.00000000000E+00 -0.20122650474E+04  0.20122650474E+04  0.25500000000E-02 0. -1.
    8880023    1    1    2    0    0 -0.20472312698E+03 -0.87061035937E+02 -0.28172774325E+02  0.69576942601E+03  0.65864270000E+03 0.  1.
    8880022    1    1    2    0    0  0.20472312698E+03  0.87061035937E+02 -0.16392530603E+04  0.16613348342E+04  0.15294330000E+03 0.  0.
<mgrwt>
<rscale>  0 0.54879472E+03</rscale>
<asrwt>0</asrwt>
<pdfrwt beam="1">  1        2 0.30957923E+00 0.69519881E+03</pdfrwt>
<pdfrwt beam="2">  1       -2 0.53052188E-01 0.69519881E+03</pdfrwt>
<totfact> 0.22959401E+01</totfact>
</mgrwt>
</event>
<event>
 4    1  0.3057048E-007  0.8208828E+03  0.7818608E-02  0.9667339E-01
         -2   -1    0    0    0  501 -0.00000000000E+00  0.00000000000E+00  0.41078158404E+03  0.41078158405E+03  0.25500000000E-02 0.  1.
          2   -1    0    0  501    0  0.00000000000E+00 -0.00000000000E+00 -0.12010188976E+04  0.12010188976E+04  0.25500000000E-02 0. -1.
    8880023    1    1    2    0    0 -0.32891566814E+03 -0.36311545178E+03 -0.23106047633E+03  0.85278221021E+03  0.65864270000E+03 0.  0.
    8880022    1    1    2    0    0  0.32891566814E+03  0.36311545178E+03 -0.55917683725E+03  0.75901827146E+03  0.15294330000E+03 0.  0.
<mgrwt>
<rscale>  0 0.72995152E+03</rscale>
<asrwt>0</asrwt>
<pdfrwt beam="1">  1        2 0.18477214E+00 0.82088279E+03</pdfrwt>
<pdfrwt beam="2">  1       -2 0.63197167E-01 0.82088279E+03</pdfrwt>
<totfact> 0.44360921E+01</totfact>
</mgrwt>
</event>
<event>
 4    1  0.3057048E-007  0.6622253E+03  0.7818608E-02  0.1021984E+00
         -2   -1    0    0    0  501 -0.00000000000E+00  0.00000000000E+00  0.12601052962E+03  0.12601052964E+03  0.25500000000E-02 0.  1.
          2   -1    0    0  501    0  0.00000000000E+00 -0.00000000000E+00 -0.20937096191E+04  0.20937096191E+04  0.25500000000E-02 0. -1.
    8880023    1    1    2    0    0 -0.55616388892E+02  0.40484181532E+02 -0.79315983557E+03  0.10332690273E+04  0.65864270000E+03 0.  1.
    8880022    1    1    2    0    0  0.55616388892E+02 -0.40484181532E+02 -0.11745392539E+04  0.11864511215E+04  0.15294330000E+03 0.  0.
<mgrwt>
<rscale>  0 0.46977358E+03</rscale>
<asrwt>0</asrwt>
<pdfrwt beam="1">  1        2 0.32210915E+00 0.66222531E+03</pdfrwt>
<pdfrwt beam="2">  1       -2 0.19386237E-01 0.66222531E+03</pdfrwt>
<totfact> 0.13840950E+02</totfact>
</mgrwt>
</event>
<event>
 4    1  0.3057048E-007  0.6668152E+03  0.7818608E-02  0.1018057E+00
         -2   -1    0    0    0  501 -0.00000000000E+00  0.00000000000E+00  0.25426867927E+03  0.25426867928E+03  0.25500000000E-02 0.  1.
          2   -1    0    0  501    0  0.00000000000E+00 -0.00000000000E+00 -0.20214222220E+04  0.20214222220E+04  0.25500000000E-02 0. -1.
    8880023    1    1    2    0    0  0.57941788735E+02 -0.86458042018E+02 -0.19788841708E+03  0.69555896644E+03  0.65864270000E+03 0.  1.
    8880022    1    1    2    0    0 -0.57941788735E+02  0.86458042018E+02 -0.15692651257E+04  0.15801319349E+04  0.15294330000E+03 0.  0.
<mgrwt>
<rscale>  0 0.48394419E+03</rscale>
<asrwt>0</asrwt>
<pdfrwt beam="1">  1        2 0.31098802E+00 0.66681515E+03</pdfrwt>
<pdfrwt beam="2">  1       -2 0.39118260E-01 0.66681515E+03</pdfrwt>
<totfact> 0.41874738E+01</totfact>
</mgrwt>
</event>
<event>
 4    1  0.3057048E-007  0.6895766E+03  0.7818608E-02  0.1004354E+00
         -2   -1    0    0    0  501 -0.00000000000E+00  0.00000000000E+00  0.11004737977E+04  0.11004737977E+04  0.25500000000E-02 0.  1.
          2   -1    0    0  501    0  0.00000000000E+00 -0.00000000000E+00 -0.67587868598E+03  0.67587868599E+03  0.25500000000E-02 0. -1.
    8880023    1    1    2    0    0 -0.15569401276E+03 -0.13215518822E+03  0.96073813617E+03  0.11825961238E+04  0.65864270000E+03 0.  1.
    8880022    1    1    2    0    0  0.15569401276E+03  0.13215518822E+03 -0.53614302440E+03  0.59375635998E+03  0.15294330000E+03 0.  0.
<mgrwt>
<rscale>  0 0.53781414E+03</rscale>
<asrwt>0</asrwt>
<pdfrwt beam="1">  1        2 0.10398134E+00 0.68957656E+03</pdfrwt>
<pdfrwt beam="2">  1       -2 0.16930366E+00 0.68957656E+03</pdfrwt>
<totfact> 0.94533598E+00</totfact>
</mgrwt>
</event>
<event>
 4    1  0.3057048E-007  0.7150818E+03  0.7818608E-02  0.9939593E-01
         -2   -1    0    0    0  501 -0.00000000000E+00  0.00000000000E+00  0.48012194386E+03  0.48012194387E+03  0.25500000000E-02 0.  1.
          2   -1    0    0  501    0  0.00000000000E+00 -0.00000000000E+00 -0.85607940177E+03  0.85607940177E+03  0.25500000000E-02 0. -1.
    8880023    1    1    2    0    0 -0.27421048760E+03 -0.48378195010E+02  0.14155638436E+03  0.72895833727E+03  0.65864270000E+03 0.  1.
    8880022    1    1    2    0    0  0.27421048760E+03  0.48378195010E+02 -0.51751384226E+03  0.60724300837E+03  0.15294330000E+03 0.  0.
<mgrwt>
<rscale>  0 0.58380236E+03</rscale>
<asrwt>0</asrwt>
<pdfrwt beam="1">  1        2 0.13170452E+00 0.71508185E+03</pdfrwt>
<pdfrwt beam="2">  1       -2 0.73864915E-01 0.71508185E+03</pdfrwt>
<totfact> 0.52793847E+01</totfact>
</mgrwt>
</event>
<event>
 4    1  0.3057048E-007  0.6619006E+03  0.7818608E-02  0.1022288E+00
          2   -1    0    0  501    0  0.00000000000E+00  0.00000000000E+00  0.47307080821E+03  0.47307080821E+03  0.25500000000E-02 0. -1.
         -2   -1    0    0    0  501 -0.00000000000E+00 -0.00000000000E+00 -0.62398054616E+03  0.62398054616E+03  0.25500000000E-02 0.  1.
    8880023    1    1    2    0    0  0.10939365286E+02  0.64672908255E+02 -0.41765316094E+03  0.78265357846E+03  0.65864270000E+03 0.  1.
    8880022    1    1    2    0    0 -0.10939365286E+02 -0.64672908255E+02  0.26674342299E+03  0.31439777591E+03  0.15294330000E+03 0.  0.
<mgrwt>
<rscale>  0 0.46869750E+03</rscale>
<asrwt>0</asrwt>
<pdfrwt beam="1">  1        2 0.72780124E-01 0.66190064E+03</pdfrwt>
<pdfrwt beam="2">  1       -2 0.95997007E-01 0.66190064E+03</pdfrwt>
<totfact> 0.60750865E+01</totfact>
</mgrwt>
</event>
<event>
 4    1  0.3057048E-007  0.7914077E+03  0.7818608E-02  0.9729692E-01
          2   -1    0    0  501    0  0.00000000000E+00  0.00000000000E+00  0.15949267755E+04  0.15949267755E+04  0.25500000000E-02 0. -1.
         -2   -1    0    0    0  501 -0.00000000000E+00 -0.00000000000E+00 -0.36045444721E+03  0.36045444722E+03  0.25500000000E-02 0.  1.
    8880023    1    1    2    0    0 -0.22020730184E+03  0.37950574993E+03  0.19247719802E+03  0.81447746932E+03  0.65864270000E+03 0.  0.
    8880022    1    1    2    0    0  0.22020730184E+03 -0.37950574993E+03  0.10419951303E+04  0.11409037534E+04  0.15294330000E+03 0.  0.
<mgrwt>
<rscale>  0 0.69276136E+03</rscale>
<asrwt>0</asrwt>
<pdfrwt beam="1">  1        2 0.24537335E+00 0.79140765E+03</pdfrwt>
<pdfrwt beam="2">  1       -2 0.55454530E-01 0.79140765E+03</pdfrwt>
<totfact> 0.34982163E+01</totfact>
</mgrwt>
</event>
<event>
 4    1  0.3057048E-007  0.8031789E+03  0.7818608E-02  0.9703964E-01
          2   -1    0    0  501    0  0.00000000000E+00  0.00000000000E+00  0.99797923488E+03  0.99797923488E+03  0.25500000000E-02 0. -1.
         -2   -1    0    0    0  501 -0.00000000000E+00 -0.00000000000E+00 -0.55869113563E+03  0.55869113563E+03  0.25500000000E-02 0.  1.
    8880023    1    1    2    0    0 -0.45793579743E+03 -0.39761290000E+02  0.64525517831E+03  0.10302672499E+04  0.65864270000E+03 0.  0.
    8880022    1    1    2    0    0  0.45793579743E+03  0.39761290000E+02 -0.20596707906E+03  0.52640312065E+03  0.15294330000E+03 0.  0.
<mgrwt>
<rscale>  0 0.70781249E+03</rscale>
<asrwt>0</asrwt>
<pdfrwt beam="1">  1        2 0.15353527E+00 0.80317891E+03</pdfrwt>
<pdfrwt beam="2">  1       -2 0.85952483E-01 0.80317891E+03</pdfrwt>
<totfact> 0.30005560E+01</totfact>
</mgrwt>
</event>
<event>
 4    1  0.3057048E-007  0.7719370E+03  0.7818608E-02  0.9775130E-01
          2   -1    0    0  501    0  0.00000000000E+00  0.00000000000E+00  0.63616073831E+03  0.63616073831E+03  0.25500000000E-02 0. -1.
         -2   -1    0    0    0  501 -0.00000000000E+00 -0.00000000000E+00 -0.13694066539E+04  0.13694066539E+04  0.25500000000E-02 0.  1.
    8880023    1    1    2    0    0 -0.10695925507E+02  0.40244516755E+03 -0.11638385600E+04  0.13965696960E+04  0.65864270000E+03 0.  1.
    8880022    1    1    2    0    0  0.10695925507E+02 -0.40244516755E+03  0.43059264435E+03  0.60899769629E+03  0.15294330000E+03 0.  0.
<mgrwt>
<rscale>  0 0.66714474E+03</rscale>
<asrwt>0</asrwt>
<pdfrwt beam="1">  1        2 0.97870883E-01 0.77193699E+03</pdfrwt>
<pdfrwt beam="2">  1       -2 0.21067795E+00 0.77193699E+03</pdfrwt>
<totfact> 0.53361302E+00</totfact>
</mgrwt>
</event>
<event>
 4    1  0.3057048E-007  0.1029401E+04  0.7818608E-02  0.9344064E-01
          2   -1    0    0  501    0  0.00000000000E+00  0.00000000000E+00  0.58291647100E+03  0.58291647101E+03  0.25500000000E-02 0. -1.
         -2   -1    0    0    0  501 -0.00000000000E+00 -0.00000000000E+00 -0.23955825771E+04  0.23955825771E+04  0.25500000000E-02 0.  1.
    8880023    1    1    2    0    0  0.23106321246E+03  0.75661508832E+03 -0.19071383965E+04  0.21672202633E+04  0.65864270000E+03 0.  0.
    8880022    1    1    2    0    0 -0.23106321246E+03 -0.75661508832E+03  0.94472290391E+02  0.81127878481E+03  0.15294330000E+03 0.  0.
<mgrwt>
<rscale>  0 0.96825522E+03</rscale>
<asrwt>0</asrwt>
<pdfrwt beam="1">  1        2 0.89679458E-01 0.10294012E+04</pdfrwt>
<pdfrwt beam="2">  1       -2 0.36855116E+00 0.10294012E+04</pdfrwt>
<totfact> 0.61642708E-01</totfact>
</mgrwt>
</event>
<event>
 4    1  0.3057048E-007  0.7517590E+03  0.7818608E-02  0.9826930E-01
          2   -1    0    0  501    0  0.00000000000E+00  0.00000000000E+00  0.13245271467E+04  0.13245271467E+04  0.25500000000E-02 0. -1.
         -2   -1    0    0    0  501 -0.00000000000E+00 -0.00000000000E+00 -0.38272911166E+03  0.38272911166E+03  0.25500000000E-02 0.  1.
    8880023    1    1    2    0    0 -0.32770971053E+03 -0.15471799990E+03  0.75132438282E+02  0.75550407240E+03  0.65864270000E+03 0.  0.
    8880022    1    1    2    0    0  0.32770971053E+03  0.15471799990E+03  0.86666559680E+03  0.95175218601E+03  0.15294330000E+03 0.  0.
<mgrwt>
<rscale>  0 0.63937154E+03</rscale>
<asrwt>0</asrwt>
<pdfrwt beam="1">  1        2 0.20377341E+00 0.75175895E+03</pdfrwt>
<pdfrwt beam="2">  1       -2 0.58881401E-01 0.75175895E+03</pdfrwt>
<totfact> 0.43950374E+01</totfact>
</mgrwt>
</event>
<event>
 4    1  0.3151153E-007  0.7828393E+03  0.7818608E-02  0.9749209E-01
         -2   -1    0    0    0  501 -0.00000000000E+00  0.00000000000E+00  0.64725106428E+03  0.64725106429E+03  0.25500000000E-02 0.  1.
          2   -1    0    0  501    0  0.00000000000E+00 -0.00000000000E+00 -0.35414543575E+04  0.35414543575E+04  0.25500000000E-02 0. -1.
    8880023    1    1    2    0    0 -0.17742902289E+03 -0.38411731185E+03  0.38945792264E+03  0.87436539684E+03  0.65864270000E+03 0.  1.
    8880022    1    1    2    0    0  0.17742902289E+03  0.38411731185E+03 -0.32836612158E+04  0.33143400249E+04  0.15294330000E+03 0.  0.
<mgrwt>
<rscale>  0 0.68160980E+03</rscale>
<asrwt>0</asrwt>
<pdfrwt beam="1">  1        2 0.54483912E+00 0.78283930E+03</pdfrwt>
<pdfrwt beam="2">  1       -2 0.99577089E-01 0.78283930E+03</pdfrwt>
<totfact> 0.68630647E-01</totfact>
</mgrwt>
</event>
<event>
 4    1  0.3057048E-007  0.1630015E+04  0.7818608E-02  0.8822896E-01
         -2   -1    0    0    0  501 -0.00000000000E+00  0.00000000000E+00  0.10374041532E+04  0.10374041532E+04  0.25500000000E-02 0.  1.
          2   -1    0    0  501    0  0.00000000000E+00 -0.00000000000E+00 -0.35916337328E+04  0.35916337328E+04  0.25500000000E-02 0. -1.
    8880023    1    1    2    0    0 -0.14810855704E+04 -0.17182634311E+03  0.42739387086E+02  0.16305752422E+04  0.65864270000E+03 0.  0.
    8880022    1    1    2    0    0  0.14810855704E+04  0.17182634311E+03 -0.25969689666E+04  0.29984626437E+04  0.15294330000E+03 0.  0.
<mgrwt>
<rscale>  0 0.15961832E+04</rscale>
<asrwt>0</asrwt>
<pdfrwt beam="1">  1        2 0.55255903E+00 0.16300150E+04</pdfrwt>
<pdfrwt beam="2">  1       -2 0.15960064E+00 0.16300150E+04</pdfrwt>
<totfact> 0.16648346E-01</totfact>
</mgrwt>
</event>
<event>
 4    1  0.3057048E-007  0.9005850E+03  0.7818608E-02  0.9525093E-01
         -2   -1    0    0    0  501 -0.00000000000E+00  0.00000000000E+00  0.58166897250E+03  0.58166897251E+03  0.25500000000E-02 0.  1.
          2   -1    0    0  501    0  0.00000000000E+00 -0.00000000000E+00 -0.12047675862E+04  0.12047675862E+04  0.25500000000E-02 0. -1.
    8880023    1    1    2    0    0 -0.37967394676E+03  0.48279480585E+03 -0.33509545597E+01  0.90059123111E+03  0.65864270000E+03 0.  0.
    8880022    1    1    2    0    0  0.37967394676E+03 -0.48279480585E+03 -0.61974765915E+03  0.88584532760E+03  0.15294330000E+03 0.  0.
<mgrwt>
<rscale>  0 0.82458819E+03</rscale>
<asrwt>0</asrwt>
<pdfrwt beam="1">  1        2 0.18534886E+00 0.90058500E+03</pdfrwt>
<pdfrwt beam="2">  1       -2 0.89487535E-01 0.90058500E+03</pdfrwt>
<totfact> 0.20224392E+01</totfact>
</mgrwt>
</event>
<event>
 4    1  0.3057048E-007  0.6633358E+03  0.7818608E-02  0.1020972E+00
         -2   -1    0    0    0  501 -0.00000000000E+00  0.00000000000E+00  0.18729945743E+03  0.18729945745E+03  0.25500000000E-02 0.  1.
          2   -1    0    0  501    0  0.00000000000E+00 -0.00000000000E+00 -0.20302630649E+04  0.20302630649E+04  0.25500000000E-02 0. -1.
    8880023    1    1    2    0    0  0.19082326320E+02 -0.76420091448E+02 -0.42193316478E+03  0.78615645221E+03  0.65864270000E+03 0.  1.
    8880022    1    1    2    0    0 -0.19082326320E+02  0.76420091448E+02 -0.14210304427E+04  0.14314060701E+04  0.15294330000E+03 0.  0.
<mgrwt>
<rscale>  0 0.47337342E+03</rscale>
<asrwt>0</asrwt>
<pdfrwt beam="1">  1        2 0.31234815E+00 0.66333579E+03</pdfrwt>
<pdfrwt beam="2">  1       -2 0.28815303E-01 0.66333579E+03</pdfrwt>
<totfact> 0.73790077E+01</totfact>
</mgrwt>
</event>
<event>
 4    1  0.3057048E-007  0.7947808E+03  0.7818608E-02  0.9722197E-01
         -2   -1    0    0    0  501 -0.00000000000E+00  0.00000000000E+00  0.13367437245E+04  0.13367437245E+04  0.25500000000E-02 0.  1.
          2   -1    0    0  501    0  0.00000000000E+00 -0.00000000000E+00 -0.11176819047E+04  0.11176819047E+04  0.25500000000E-02 0. -1.
    8880023    1    1    2    0    0  0.35524775759E+03 -0.26770378904E+03  0.11578519974E+04  0.14043851830E+04  0.65864270000E+03 0.  1.
    8880022    1    1    2    0    0 -0.35524775759E+03  0.26770378904E+03 -0.93879017766E+03  0.10500404462E+04  0.15294330000E+03 0.  0.
<mgrwt>
<rscale>  0 0.69710449E+03</rscale>
<asrwt>0</asrwt>
<pdfrwt beam="1">  1        2 0.17195106E+00 0.79478078E+03</pdfrwt>
<pdfrwt beam="2">  1       -2 0.20565288E+00 0.79478078E+03</pdfrwt>
<totfact> 0.26466842E+00</totfact>
</mgrwt>
</event>
<event>
 4    1  0.3057048E-007  0.1039704E+04  0.7818608E-02  0.9331362E-01
          2   -1    0    0  501    0  0.00000000000E+00  0.00000000000E+00  0.12239155568E+04  0.12239155568E+04  0.25500000000E-02 0. -1.
         -2   -1    0    0    0  501 -0.00000000000E+00 -0.00000000000E+00 -0.87491311434E+03  0.87491311434E+03  0.25500000000E-02 0.  1.
    8880023    1    1    2    0    0  0.79514560380E+03  0.12214040088E+03  0.65024402839E+03  0.12262961761E+04  0.65864270000E+03 0.  0.
    8880022    1    1    2    0    0 -0.79514560380E+03 -0.12214040088E+03 -0.30124158594E+03  0.87253249503E+03  0.15294330000E+03 0.  0.
<mgrwt>
<rscale>  0 0.97946203E+03</rscale>
<asrwt>0</asrwt>
<pdfrwt beam="1">  1        2 0.18829470E+00 0.10397043E+04</pdfrwt>
<pdfrwt beam="2">  1       -2 0.13460202E+00 0.10397043E+04</pdfrwt>
<totfact> 0.71991055E+00</totfact>
</mgrwt>
</event>
<event>
 4    1  0.3057048E-007  0.7189672E+03  0.7818608E-02  0.9926096E-01
         -2   -1    0    0    0  501 -0.00000000000E+00  0.00000000000E+00  0.50119694430E+03  0.50119694431E+03  0.25500000000E-02 0.  1.
          2   -1    0    0  501    0  0.00000000000E+00 -0.00000000000E+00 -0.81458954501E+03  0.81458954501E+03  0.25500000000E-02 0. -1.
    8880023    1    1    2    0    0  0.26061382536E+03 -0.12322374103E+03  0.16407577064E+03  0.73745150423E+03  0.65864270000E+03 0.  0.
    8880022    1    1    2    0    0 -0.26061382536E+03  0.12322374103E+03 -0.47746837135E+03  0.57833498508E+03  0.15294330000E+03 0.  0.
<mgrwt>
<rscale>  0 0.59013059E+03</rscale>
<asrwt>0</asrwt>
<pdfrwt beam="1">  1        2 0.12532147E+00 0.71896722E+03</pdfrwt>
<pdfrwt beam="2">  1       -2 0.77107222E-01 0.71896722E+03</pdfrwt>
<totfact> 0.51300225E+01</totfact>
</mgrwt>
</event>
<event>
 4    1  0.3057048E-007  0.7314080E+03  0.7818608E-02  0.9885721E-01
          2   -1    0    0  501    0  0.00000000000E+00  0.00000000000E+00  0.59549211391E+03  0.59549211391E+03  0.25500000000E-02 0. -1.
         -2   -1    0    0    0  501 -0.00000000000E+00 -0.00000000000E+00 -0.63421150794E+03  0.63421150795E+03  0.25500000000E-02 0.  1.
    8880023    1    1    2    0    0 -0.53299903224E+02  0.31353887099E+03 -0.30006499405E+03  0.79056733440E+03  0.65864270000E+03 0.  1.
    8880022    1    1    2    0    0  0.53299903224E+02 -0.31353887099E+03  0.26134560001E+03  0.43913628746E+03  0.15294330000E+03 0.  0.
<mgrwt>
<rscale>  0 0.60958326E+03</rscale>
<asrwt>0</asrwt>
<pdfrwt beam="1">  1        2 0.91614172E-01 0.73140803E+03</pdfrwt>
<pdfrwt beam="2">  1       -2 0.97571001E-01 0.73140803E+03</pdfrwt>
<totfact> 0.44417625E+01</totfact>
</mgrwt>
</event>
<event>
 4    1  0.3057048E-007  0.6621887E+03  0.7818608E-02  0.1022018E+00
         -2   -1    0    0    0  501 -0.00000000000E+00  0.00000000000E+00  0.79177227972E+03  0.79177227972E+03  0.25500000000E-02 0.  1.
          2   -1    0    0  501    0  0.00000000000E+00 -0.00000000000E+00 -0.22253493627E+03  0.22253493628E+03  0.25500000000E-02 0. -1.
    8880023    1    1    2    0    0  0.59177320324E+02 -0.34375291287E+02  0.51269853563E+03  0.83746857290E+03  0.65864270000E+03 0.  1.
    8880022    1    1    2    0    0 -0.59177320324E+02  0.34375291287E+02  0.56538807823E+02  0.17683864311E+03  0.15294330000E+03 0.  0.
<mgrwt>
<rscale>  0 0.46965267E+03</rscale>
<asrwt>0</asrwt>
<pdfrwt beam="1">  1        2 0.34236144E-01 0.66218866E+03</pdfrwt>
<pdfrwt beam="2">  1       -2 0.12181112E+00 0.66218866E+03</pdfrwt>
<totfact> 0.79512144E+01</totfact>
</mgrwt>
</event>
<event>
 4    1  0.3057048E-007  0.7196251E+03  0.7818608E-02  0.9923856E-01
          2   -1    0    0  501    0  0.00000000000E+00  0.00000000000E+00  0.58862940432E+03  0.58862940433E+03  0.25500000000E-02 0. -1.
         -2   -1    0    0    0  501 -0.00000000000E+00 -0.00000000000E+00 -0.71680286341E+03  0.71680286341E+03  0.25500000000E-02 0.  1.
    8880023    1    1    2    0    0 -0.25961499266E+03 -0.12903553774E+03 -0.44782619844E+03  0.84758989180E+03  0.65864270000E+03 0.  1.
    8880022    1    1    2    0    0  0.25961499266E+03  0.12903553774E+03  0.31965273935E+03  0.45784237594E+03  0.15294330000E+03 0.  0.
<mgrwt>
<rscale>  0 0.59118905E+03</rscale>
<asrwt>0</asrwt>
<pdfrwt beam="1">  1        2 0.90558370E-01 0.71962513E+03</pdfrwt>
<pdfrwt beam="2">  1       -2 0.11027736E+00 0.71962513E+03</pdfrwt>
<totfact> 0.33645131E+01</totfact>
</mgrwt>
</event>
<event>
 4    1  0.3057048E-007  0.6683237E+03  0.7818608E-02  0.1016894E+00
         -2   -1    0    0    0  501 -0.00000000000E+00  0.00000000000E+00  0.73253316421E+03  0.73253316421E+03  0.25500000000E-02 0.  1.
          2   -1    0    0  501    0  0.00000000000E+00 -0.00000000000E+00 -0.74327209282E+03  0.74327209282E+03  0.25500000000E-02 0. -1.
    8880023    1    1    2    0    0  0.98272417609E+02 -0.56470851552E+02  0.56140104667E+03  0.87282745523E+03  0.65864270000E+03 0.  1.
    8880022    1    1    2    0    0 -0.98272417609E+02  0.56470851552E+02 -0.57213997528E+03  0.60297780180E+03  0.15294330000E+03 0.  0.
<mgrwt>
<rscale>  0 0.48824276E+03</rscale>
<asrwt>0</asrwt>
<pdfrwt beam="1">  1        2 0.11434955E+00 0.66832375E+03</pdfrwt>
<pdfrwt beam="2">  1       -2 0.11269741E+00 0.66832375E+03</pdfrwt>
<totfact> 0.24020906E+01</totfact>
</mgrwt>
</event>
<event>
 4    1  0.3057048E-007  0.7546071E+03  0.7818608E-02  0.9819275E-01
          2   -1    0    0  501    0  0.00000000000E+00  0.00000000000E+00  0.15005573068E+04  0.15005573068E+04  0.25500000000E-02 0. -1.
         -2   -1    0    0    0  501 -0.00000000000E+00 -0.00000000000E+00 -0.23000686785E+03  0.23000686786E+03  0.25500000000E-02 0.  1.
    8880023    1    1    2    0    0 -0.70261513646E+02 -0.36150372939E+03  0.66674546170E+03  0.10069664064E+04  0.65864270000E+03 0.  0.
    8880022    1    1    2    0    0  0.70261513646E+02  0.36150372939E+03  0.60380497726E+03  0.72359776827E+03  0.15294330000E+03 0.  1.
<mgrwt>
<rscale>  0 0.64338336E+03</rscale>
<asrwt>0</asrwt>
<pdfrwt beam="1">  1        2 0.23085497E+00 0.75460707E+03</pdfrwt>
<pdfrwt beam="2">  1       -2 0.35385673E-01 0.75460707E+03</pdfrwt>
<totfact> 0.96864335E+01</totfact>
</mgrwt>
</event>
<event>
 4    1  0.3057048E-007  0.8624926E+03  0.7818608E-02  0.9589145E-01
         -2   -1    0    0    0  501 -0.00000000000E+00  0.00000000000E+00  0.26588403209E+03  0.26588403210E+03  0.25500000000E-02 0.  1.
          2   -1    0    0  501    0  0.00000000000E+00 -0.00000000000E+00 -0.24911428870E+04  0.24911428870E+04  0.25500000000E-02 0. -1.
    8880023    1    1    2    0    0  0.52707443245E+03 -0.17965489628E+03 -0.65220347583E+03  0.10813246133E+04  0.65864270000E+03 0.  1.
    8880022    1    1    2    0    0 -0.52707443245E+03  0.17965489628E+03 -0.15730553791E+04  0.16757023058E+04  0.15294330000E+03 0.  0.
<mgrwt>
<rscale>  0 0.78018834E+03</rscale>
<asrwt>0</asrwt>
<pdfrwt beam="1">  1        2 0.38325274E+00 0.86249263E+03</pdfrwt>
<pdfrwt beam="2">  1       -2 0.40905237E-01 0.86249263E+03</pdfrwt>
<totfact> 0.20512435E+01</totfact>
</mgrwt>
</event>
<event>
 4    1  0.3057048E-007  0.1187186E+04  0.7818608E-02  0.9169680E-01
          2   -1    0    0  501    0  0.00000000000E+00  0.00000000000E+00  0.87165547388E+03  0.87165547388E+03  0.25500000000E-02 0. -1.
         -2   -1    0    0    0  501 -0.00000000000E+00 -0.00000000000E+00 -0.23137380020E+04  0.23137380020E+04  0.25500000000E-02 0.  1.
    8880023    1    1    2    0    0 -0.96966743726E+03 -0.18800165447E+03 -0.17719339628E+04  0.21328759307E+04  0.65864270000E+03 0.  1.
    8880022    1    1    2    0    0  0.96966743726E+03  0.18800165447E+03  0.32985143467E+03  0.10525175452E+04  0.15294330000E+03 0.  0.
<mgrwt>
<rscale>  0 0.11371930E+04</rscale>
<asrwt>0</asrwt>
<pdfrwt beam="1">  1        2 0.13410084E+00 0.11871856E+04</pdfrwt>
<pdfrwt beam="2">  1       -2 0.35595969E+00 0.11871856E+04</pdfrwt>
<totfact> 0.43139213E-01</totfact>
</mgrwt>
</event>
<event>
 4    1  0.3057048E-007  0.7715530E+03  0.7818608E-02  0.9776067E-01
         -2   -1    0    0    0  501 -0.00000000000E+00  0.00000000000E+00  0.31677471951E+03  0.31677471952E+03  0.25500000000E-02 0.  1.
          2   -1    0    0  501    0  0.00000000000E+00 -0.00000000000E+00 -0.19275841327E+04  0.19275841327E+04  0.25500000000E-02 0. -1.
    8880023    1    1    2    0    0  0.18645951949E+03 -0.35597284710E+03 -0.24048780090E+03  0.80816360282E+03  0.65864270000E+03 0.  1.
    8880022    1    1    2    0    0 -0.18645951949E+03  0.35597284710E+03 -0.13703216123E+04  0.14361952494E+04  0.15294330000E+03 0.  0.
<mgrwt>
<rscale>  0 0.66662905E+03</rscale>
<asrwt>0</asrwt>
<pdfrwt beam="1">  1        2 0.29655140E+00 0.77155300E+03</pdfrwt>
<pdfrwt beam="2">  1       -2 0.48734573E-01 0.77155300E+03</pdfrwt>
<totfact> 0.30054136E+01</totfact>
</mgrwt>
</event>
<event>
 4    1  0.3917491E-007  0.8456196E+03  0.7818608E-02  0.9619674E-01
          2   -1    0    0  501    0  0.00000000000E+00  0.00000000000E+00  0.20724364410E+04  0.20724364410E+04  0.25500000000E-02 0. -1.
         -2   -1    0    0    0  501 -0.00000000000E+00 -0.00000000000E+00 -0.92641501028E+03  0.92641501028E+03  0.25500000000E-02 0.  1.
    8880023    1    1    2    0    0 -0.17604319516E+03 -0.50027096100E+03 -0.68386042875E+03  0.10875373710E+04  0.65864270000E+03 0.  0.
    8880022    1    1    2    0    0  0.17604319516E+03  0.50027096100E+03  0.18298818595E+04  0.19113140803E+04  0.15294330000E+03 0.  0.
<mgrwt>
<rscale>  0 0.76007616E+03</rscale>
<asrwt>0</asrwt>
<pdfrwt beam="1">  1        2 0.31883637E+00 0.84561956E+03</pdfrwt>
<pdfrwt beam="2">  1       -2 0.14252539E+00 0.84561956E+03</pdfrwt>
<totfact> 0.21333107E+00</totfact>
</mgrwt>
</event>
<event>
 4    1  0.3057048E-007  0.1222265E+04  0.7818608E-02  0.9135778E-01
         -2   -1    0    0    0  501 -0.00000000000E+00  0.00000000000E+00  0.54310572806E+03  0.54310572806E+03  0.25500000000E-02 0.  1.
          2   -1    0    0  501    0  0.00000000000E+00 -0.00000000000E+00 -0.35779394790E+04  0.35779394790E+04  0.25500000000E-02 0. -1.
    8880023    1    1    2    0    0 -0.46386206194E+02 -0.10285763003E+04 -0.39677934946E+03  0.12850544518E+04  0.65864270000E+03 0.  0.
    8880022    1    1    2    0    0  0.46386206194E+02  0.10285763003E+04 -0.26380544015E+04  0.28359907553E+04  0.15294330000E+03 0.  0.
<mgrwt>
<rscale>  0 0.11741625E+04</rscale>
<asrwt>0</asrwt>
<pdfrwt beam="1">  1        2 0.55045221E+00 0.12222647E+04</pdfrwt>
<pdfrwt beam="2">  1       -2 0.83554730E-01 0.12222647E+04</pdfrwt>
<totfact> 0.89839913E-01</totfact>
</mgrwt>
</event>
<event>
 4    1  0.3057048E-007  0.1181324E+04  0.7818608E-02  0.9175494E-01
          2   -1    0    0  501    0  0.00000000000E+00  0.00000000000E+00  0.14491811158E+04  0.14491811158E+04  0.25500000000E-02 0. -1.
         -2   -1    0    0    0  501 -0.00000000000E+00 -0.00000000000E+00 -0.12637416232E+04  0.12637416232E+04  0.25500000000E-02 0.  1.
    8880023    1    1    2    0    0 -0.96686029926E+03  0.16400199189E+03 -0.70822383255E+03  0.13773549633E+04  0.65864270000E+03 0.  0.
    8880022    1    1    2    0    0  0.96686029926E+03 -0.16400199189E+03  0.89366332524E+03  0.13355677757E+04  0.15294330000E+03 0.  0.
<mgrwt>
<rscale>  0 0.11309987E+04</rscale>
<asrwt>0</asrwt>
<pdfrwt beam="1">  1        2 0.22295094E+00 0.11813237E+04</pdfrwt>
<pdfrwt beam="2">  1       -2 0.19442179E+00 0.11813237E+04</pdfrwt>
<totfact> 0.19093415E+00</totfact>
</mgrwt>
</event>
<event>
 4    1  0.3057048E-007  0.6755683E+03  0.7818608E-02  0.1011950E+00
         -2   -1    0    0    0  501 -0.00000000000E+00  0.00000000000E+00  0.46395051173E+03  0.46395051174E+03  0.25500000000E-02 0.  1.
          2   -1    0    0  501    0  0.00000000000E+00 -0.00000000000E+00 -0.19635415901E+04  0.19635415901E+04  0.25500000000E-02 0. -1.
    8880023    1    1    2    0    0  0.88114702995E+02  0.12172944779E+03  0.20771096361E+03  0.70677882680E+03  0.65864270000E+03 0.  1.
    8880022    1    1    2    0    0 -0.88114702995E+02 -0.12172944779E+03 -0.17073020419E+04  0.17207132750E+04  0.15294330000E+03 0.  0.
<mgrwt>
<rscale>  0 0.50706760E+03</rscale>
<asrwt>0</asrwt>
<pdfrwt beam="1">  1        2 0.30208332E+00 0.67556825E+03</pdfrwt>
<pdfrwt beam="2">  1       -2 0.71377003E-01 0.67556825E+03</pdfrwt>
<totfact> 0.13044616E+01</totfact>
</mgrwt>
</event>
<event>
 4    1  0.3057048E-007  0.6620844E+03  0.7818608E-02  0.1022116E+00
         -2   -1    0    0    0  501 -0.00000000000E+00  0.00000000000E+00  0.44146800055E+03  0.44146800056E+03  0.25500000000E-02 0.  1.
          2   -1    0    0  501    0  0.00000000000E+00 -0.00000000000E+00 -0.76483739940E+03  0.76483739941E+03  0.25500000000E-02 0. -1.
    8880023    1    1    2    0    0  0.71408446985E+01  0.67041854388E+02  0.17152964948E+03  0.68394314736E+03  0.65864270000E+03 0.  1.
    8880022    1    1    2    0    0 -0.71408446985E+01 -0.67041854388E+02 -0.49489904833E+03  0.52236225261E+03  0.15294330000E+03 0.  0.
<mgrwt>
<rscale>  0 0.46930805E+03</rscale>
<asrwt>0</asrwt>
<pdfrwt beam="1">  1        2 0.11766729E+00 0.66208444E+03</pdfrwt>
<pdfrwt beam="2">  1       -2 0.67918154E-01 0.66208444E+03</pdfrwt>
<totfact> 0.73988520E+01</totfact>
</mgrwt>
</event>
<event>
 4    1  0.3057048E-007  0.7652412E+03  0.7818608E-02  0.9791723E-01
         -2   -1    0    0    0  501 -0.00000000000E+00  0.00000000000E+00  0.47136620694E+03  0.47136620695E+03  0.25500000000E-02 0.  1.
          2   -1    0    0  501    0  0.00000000000E+00 -0.00000000000E+00 -0.98278556600E+03  0.98278556601E+03  0.25500000000E-02 0. -1.
    8880023    1    1    2    0    0 -0.34239977758E+03  0.18586646809E+03  0.34780495443E+02  0.76603122702E+03  0.65864270000E+03 0.  0.
    8880022    1    1    2    0    0  0.34239977758E+03 -0.18586646809E+03 -0.54619985451E+03  0.68812054593E+03  0.15294330000E+03 0.  0.
<mgrwt>
<rscale>  0 0.65808650E+03</rscale>
<asrwt>0</asrwt>
<pdfrwt beam="1">  1        2 0.15119778E+00 0.76524124E+03</pdfrwt>
<pdfrwt beam="2">  1       -2 0.72517878E-01 0.76524124E+03</pdfrwt>
<totfact> 0.45080346E+01</totfact>
</mgrwt>
</event>
<event>
 4    1  0.3057048E-007  0.1156933E+04  0.7818608E-02  0.9200167E-01
          2   -1    0    0  501    0  0.00000000000E+00  0.00000000000E+00  0.21758864468E+04  0.21758864468E+04  0.25500000000E-02 0. -1.
         -2   -1    0    0    0  501 -0.00000000000E+00 -0.00000000000E+00 -0.58153889480E+03  0.58153889481E+03  0.25500000000E-02 0.  1.
    8880023    1    1    2    0    0 -0.39978335206E+03 -0.86305123054E+03  0.13210608164E+04  0.17560455695E+04  0.65864270000E+03 0. -1.
    8880022    1    1    2    0    0  0.39978335206E+03  0.86305123054E+03  0.27328673554E+03  0.10013797721E+04  0.15294330000E+03 0.  1.
<mgrwt>
<rscale>  0 0.11051701E+04</rscale>
<asrwt>0</asrwt>
<pdfrwt beam="1">  1        2 0.33475176E+00 0.11569332E+04</pdfrwt>
<pdfrwt beam="2">  1       -2 0.89467522E-01 0.11569332E+04</pdfrwt>
<totfact> 0.56284350E+00</totfact>
</mgrwt>
</event>
<event>
 4    1  0.3057048E-007  0.8693838E+03  0.7818608E-02  0.9577085E-01
          2   -1    0    0  501    0  0.00000000000E+00  0.00000000000E+00  0.17928122795E+04  0.17928122795E+04  0.25500000000E-02 0. -1.
         -2   -1    0    0    0  501 -0.00000000000E+00 -0.00000000000E+00 -0.48028655164E+03  0.48028655165E+03  0.25500000000E-02 0.  1.
    8880023    1    1    2    0    0  0.56299733579E+03  0.71077628429E+02  0.38717374484E+02  0.87024552324E+03  0.65864270000E+03 0.  0.
    8880022    1    1    2    0    0 -0.56299733579E+03 -0.71077628429E+02  0.12738083534E+04  0.14028533079E+04  0.15294330000E+03 0.  0.
<mgrwt>
<rscale>  0 0.78831625E+03</rscale>
<asrwt>0</asrwt>
<pdfrwt beam="1">  1        2 0.27581727E+00 0.86938383E+03</pdfrwt>
<pdfrwt beam="2">  1       -2 0.73890239E-01 0.86938383E+03</pdfrwt>
<totfact> 0.14582151E+01</totfact>
</mgrwt>
</event>
<event>
 4    1  0.3057048E-007  0.6682351E+03  0.7818608E-02  0.1016961E+00
         -2   -1    0    0    0  501 -0.00000000000E+00  0.00000000000E+00  0.95833098566E+02  0.95833098600E+02  0.25500000000E-02 0.  1.
          2   -1    0    0  501    0  0.00000000000E+00 -0.00000000000E+00 -0.19567311823E+04  0.19567311823E+04  0.25500000000E-02 0. -1.
    8880023    1    1    2    0    0  0.10283406548E+03 -0.46401212240E+02 -0.13250957503E+04  0.14840542009E+04  0.65864270000E+03 0.  0.
    8880022    1    1    2    0    0 -0.10283406548E+03  0.46401212240E+02 -0.53580233339E+03  0.56851007995E+03  0.15294330000E+03 0.  0.
<mgrwt>
<rscale>  0 0.48799433E+03</rscale>
<asrwt>0</asrwt>
<pdfrwt beam="1">  1        2 0.30103554E+00 0.66823508E+03</pdfrwt>
<pdfrwt beam="2">  1       -2 0.14743555E-01 0.66823508E+03</pdfrwt>
<totfact> 0.26234842E+02</totfact>
</mgrwt>
</event>
<event>
 4    1  0.3057048E-007  0.7353015E+03  0.7818608E-02  0.9873851E-01
         -2   -1    0    0    0  501 -0.00000000000E+00  0.00000000000E+00  0.44685402377E+03  0.44685402378E+03  0.25500000000E-02 0.  1.
          2   -1    0    0  501    0  0.00000000000E+00 -0.00000000000E+00 -0.89140934978E+03  0.89140934978E+03  0.25500000000E-02 0. -1.
    8880023    1    1    2    0    0  0.25089080139E+03 -0.20955176499E+03  0.37289635365E+02  0.73624646661E+03  0.65864270000E+03 0.  0.
    8880022    1    1    2    0    0 -0.25089080139E+03  0.20955176499E+03 -0.48184496137E+03  0.60201690694E+03  0.15294330000E+03 0.  0.
<mgrwt>
<rscale>  0 0.61545490E+03</rscale>
<asrwt>0</asrwt>
<pdfrwt beam="1">  1        2 0.13713990E+00 0.73530153E+03</pdfrwt>
<pdfrwt beam="2">  1       -2 0.68746773E-01 0.73530153E+03</pdfrwt>
<totfact> 0.58349817E+01</totfact>
</mgrwt>
</event>
<event>
 4    1  0.3057048E-007  0.7159799E+03  0.7818608E-02  0.9936431E-01
         -2   -1    0    0    0  501 -0.00000000000E+00  0.00000000000E+00  0.46821936219E+03  0.46821936220E+03  0.25500000000E-02 0.  1.
          2   -1    0    0  501    0  0.00000000000E+00 -0.00000000000E+00 -0.61676733906E+03  0.61676733906E+03  0.25500000000E-02 0. -1.
    8880023    1    1    2    0    0 -0.83217332546E+02 -0.26812661777E+03  0.34096947198E+02  0.71679133342E+03  0.65864270000E+03 0.  1.
    8880022    1    1    2    0    0  0.83217332546E+02  0.26812661777E+03 -0.18264492406E+03  0.36819536784E+03  0.15294330000E+03 0. -1.
<mgrwt>
<rscale>  0 0.58527717E+03</rscale>
<asrwt>0</asrwt>
<pdfrwt beam="1">  1        2 0.94887283E-01 0.71597990E+03</pdfrwt>
<pdfrwt beam="2">  1       -2 0.72033748E-01 0.71597990E+03</pdfrwt>
<totfact> 0.84895383E+01</totfact>
</mgrwt>
</event>
<event>
 4    1  0.3057048E-007  0.9306542E+03  0.7818608E-02  0.9478512E-01
         -2   -1    0    0    0  501 -0.00000000000E+00  0.00000000000E+00  0.52948555999E+03  0.52948555999E+03  0.25500000000E-02 0.  1.
          2   -1    0    0  501    0  0.00000000000E+00 -0.00000000000E+00 -0.18127009648E+04  0.18127009648E+04  0.25500000000E-02 0. -1.
    8880023    1    1    2    0    0  0.38562861622E+03 -0.53253890990E+03 -0.44795425182E+02  0.93173169774E+03  0.65864270000E+03 0.  0.
    8880022    1    1    2    0    0 -0.38562861622E+03  0.53253890990E+03 -0.12384199797E+04  0.14104548271E+04  0.15294330000E+03 0.  0.
<mgrwt>
<rscale>  0 0.85886718E+03</rscale>
<asrwt>0</asrwt>
<pdfrwt beam="1">  1        2 0.27887707E+00 0.93065425E+03</pdfrwt>
<pdfrwt beam="2">  1       -2 0.81459318E-01 0.93065425E+03</pdfrwt>
<totfact> 0.11350242E+01</totfact>
</mgrwt>
</event>
<event>
 4    1  0.3057048E-007  0.1341629E+04  0.7818608E-02  0.9030419E-01
          2   -1    0    0  501    0  0.00000000000E+00  0.00000000000E+00  0.27649242775E+04  0.27649242775E+04  0.25500000000E-02 0. -1.
         -2   -1    0    0    0  501 -0.00000000000E+00 -0.00000000000E+00 -0.83902146479E+03  0.83902146479E+03  0.25500000000E-02 0.  1.
    8880023    1    1    2    0    0 -0.80600036484E+03  0.84647670773E+03 -0.50247683598E+01  0.13416388707E+04  0.65864270000E+03 0.  0.
    8880022    1    1    2    0    0  0.80600036484E+03 -0.84647670773E+03  0.19309275811E+04  0.22623068716E+04  0.15294330000E+03 0.  0.
<mgrwt>
<rscale>  0 0.12989240E+04</rscale>
<asrwt>0</asrwt>
<pdfrwt beam="1">  1        2 0.42537296E+00 0.13416295E+04</pdfrwt>
<pdfrwt beam="2">  1       -2 0.12908023E+00 0.13416295E+04</pdfrwt>
<totfact> 0.10372163E+00</totfact>
</mgrwt>
</event>
<event>
 4    1  0.3057048E-007  0.7466941E+03  0.7818608E-02  0.9840860E-01
         -2   -1    0    0    0  501 -0.00000000000E+00  0.00000000000E+00  0.48778287949E+03  0.48778287950E+03  0.25500000000E-02 0.  1.
          2   -1    0    0  501    0  0.00000000000E+00 -0.00000000000E+00 -0.96427157038E+03  0.96427157038E+03  0.25500000000E-02 0. -1.
    8880023    1    1    2    0    0  0.35124419916E+03  0.19218313997E+02  0.10644175725E+03  0.75424259027E+03  0.65864270000E+03 0.  1.
    8880022    1    1    2    0    0 -0.35124419916E+03 -0.19218313997E+02 -0.58293044814E+03  0.69781185961E+03  0.15294330000E+03 0.  0.
<mgrwt>
<rscale>  0 0.63215120E+03</rscale>
<asrwt>0</asrwt>
<pdfrwt beam="1">  1        2 0.14834947E+00 0.74669407E+03</pdfrwt>
<pdfrwt beam="2">  1       -2 0.75043520E-01 0.74669407E+03</pdfrwt>
<totfact> 0.43035179E+01</totfact>
</mgrwt>
</event>
<event>
 4    1  0.4433639E-007  0.9327655E+03  0.7818608E-02  0.9475357E-01
          2   -1    0    0  501    0  0.00000000000E+00  0.00000000000E+00  0.17965588062E+04  0.17965588062E+04  0.25500000000E-02 0. -1.
         -2   -1    0    0    0  501 -0.00000000000E+00 -0.00000000000E+00 -0.13337120634E+04  0.13337120634E+04  0.25500000000E-02 0.  1.
    8880023    1    1    2    0    0  0.11155973301E+03  0.65099587532E+03 -0.10907471514E+04  0.14351936309E+04  0.65864270000E+03 0.  0.
    8880022    1    1    2    0    0 -0.11155973301E+03 -0.65099587532E+03  0.15535938943E+04  0.16950772387E+04  0.15294330000E+03 0.  0.
<mgrwt>
<rscale>  0 0.86125296E+03</rscale>
<asrwt>0</asrwt>
<pdfrwt beam="1">  1        2 0.27639366E+00 0.93276546E+03</pdfrwt>
<pdfrwt beam="2">  1       -2 0.20518647E+00 0.93276546E+03</pdfrwt>
<totfact> 0.10733472E+00</totfact>
</mgrwt>
</event>
<event>
 4    1  0.3057048E-007  0.7417694E+03  0.7818608E-02  0.9854822E-01
         -2   -1    0    0    0  501 -0.00000000000E+00  0.00000000000E+00  0.11460450885E+03  0.11460450888E+03  0.25500000000E-02 0.  1.
          2   -1    0    0  501    0  0.00000000000E+00 -0.00000000000E+00 -0.37164949734E+04  0.37164949734E+04  0.25500000000E-02 0. -1.
    8880023    1    1    2    0    0 -0.17093535524E+03 -0.29528428810E+03 -0.12808441372E+04  0.14801295945E+04  0.65864270000E+03 0.  0.
    8880022    1    1    2    0    0  0.17093535524E+03  0.29528428810E+03 -0.23210463273E+04  0.23509698878E+04  0.15294330000E+03 0.  0.
<mgrwt>
<rscale>  0 0.62501639E+03</rscale>
<asrwt>0</asrwt>
<pdfrwt beam="1">  1        2 0.57176836E+00 0.74176945E+03</pdfrwt>
<pdfrwt beam="2">  1       -2 0.17631466E-01 0.74176945E+03</pdfrwt>
<totfact> 0.16414484E+01</totfact>
</mgrwt>
</event>
<event>
 4    1  0.3057048E-007  0.8356444E+03  0.7818608E-02  0.9638448E-01
         -2   -1    0    0    0  501 -0.00000000000E+00  0.00000000000E+00  0.14061599195E+04  0.14061599195E+04  0.25500000000E-02 0.  1.
          2   -1    0    0  501    0  0.00000000000E+00 -0.00000000000E+00 -0.99247459742E+03  0.99247459742E+03  0.25500000000E-02 0. -1.
    8880023    1    1    2    0    0 -0.50496168152E+03 -0.97493713394E+02  0.11905167755E+04  0.14545211318E+04  0.65864270000E+03 0.  1.
    8880022    1    1    2    0    0  0.50496168152E+03  0.97493713394E+02 -0.77683145339E+03  0.94411338511E+03  0.15294330000E+03 0.  0.
<mgrwt>
<rscale>  0 0.74802846E+03</rscale>
<asrwt>0</asrwt>
<pdfrwt beam="1">  1        2 0.15268840E+00 0.83564438E+03</pdfrwt>
<pdfrwt beam="2">  1       -2 0.21633230E+00 0.83564438E+03</pdfrwt>
<totfact> 0.26938300E+00</totfact>
</mgrwt>
</event>
<event>
 4    1  0.3057048E-007  0.6660972E+03  0.7818608E-02  0.1018630E+00
          2   -1    0    0  501    0  0.00000000000E+00  0.00000000000E+00  0.82772995422E+03  0.82772995422E+03  0.25500000000E-02 0. -1.
         -2   -1    0    0    0  501 -0.00000000000E+00 -0.00000000000E+00 -0.69986486939E+03  0.69986486939E+03  0.25500000000E-02 0.  1.
    8880023    1    1    2    0    0 -0.38336544060E+02 -0.91682224716E+02 -0.52601665618E+03  0.84875146526E+03  0.65864270000E+03 0.  1.
    8880022    1    1    2    0    0  0.38336544060E+02  0.91682224716E+02  0.65388174101E+03  0.67884335836E+03  0.15294330000E+03 0.  0.
<mgrwt>
<rscale>  0 0.48184226E+03</rscale>
<asrwt>0</asrwt>
<pdfrwt beam="1">  1        2 0.12734307E+00 0.66609724E+03</pdfrwt>
<pdfrwt beam="2">  1       -2 0.10767152E+00 0.66609724E+03</pdfrwt>
<totfact> 0.23299162E+01</totfact>
</mgrwt>
</event>
<event>
 4    1  0.3057048E-007  0.7552747E+03  0.7818608E-02  0.9817498E-01
          2   -1    0    0  501    0  0.00000000000E+00  0.00000000000E+00  0.12361025052E+04  0.12361025052E+04  0.25500000000E-02 0. -1.
         -2   -1    0    0    0  501 -0.00000000000E+00 -0.00000000000E+00 -0.40360312070E+03  0.40360312071E+03  0.25500000000E-02 0.  1.
    8880023    1    1    2    0    0  0.40220953522E+02  0.36743973670E+03  0.45221827528E+02  0.75662732250E+03  0.65864270000E+03 0.  1.
    8880022    1    1    2    0    0 -0.40220953522E+02 -0.36743973670E+03  0.78727755695E+03  0.88307830338E+03  0.15294330000E+03 0. -1.
<mgrwt>
<rscale>  0 0.64431901E+03</rscale>
<asrwt>0</asrwt>
<pdfrwt beam="1">  1        2 0.19016962E+00 0.75527471E+03</pdfrwt>
<pdfrwt beam="2">  1       -2 0.62092788E-01 0.75527471E+03</pdfrwt>
<totfact> 0.44184811E+01</totfact>
</mgrwt>
</event>
<event>
 4    1  0.3057048E-007  0.6924717E+03  0.7818608E-02  0.1002999E+00
         -2   -1    0    0    0  501 -0.00000000000E+00  0.00000000000E+00  0.10806524561E+04  0.10806524561E+04  0.25500000000E-02 0.  1.
          2   -1    0    0  501    0  0.00000000000E+00 -0.00000000000E+00 -0.12692439938E+04  0.12692439938E+04  0.25500000000E-02 0. -1.
    8880023    1    1    2    0    0 -0.16636642914E+03 -0.13427249749E+03  0.95323200055E+03  0.11782055616E+04  0.65864270000E+03 0.  1.
    8880022    1    1    2    0    0  0.16636642914E+03  0.13427249749E+03 -0.11418235382E+04  0.11716908883E+04  0.15294330000E+03 0.  0.
<mgrwt>
<rscale>  0 0.54354456E+03</rscale>
<asrwt>0</asrwt>
<pdfrwt beam="1">  1        2 0.19526831E+00 0.69247173E+03</pdfrwt>
<pdfrwt beam="2">  1       -2 0.16625422E+00 0.69247173E+03</pdfrwt>
<totfact> 0.40361568E+00</totfact>
</mgrwt>
</event>
<event>
 4    1  0.3057048E-007  0.7905116E+03  0.7818608E-02  0.9731700E-01
          2   -1    0    0  501    0  0.00000000000E+00  0.00000000000E+00  0.24214969956E+04  0.24214969956E+04  0.25500000000E-02 0. -1.
         -2   -1    0    0    0  501 -0.00000000000E+00 -0.00000000000E+00 -0.34343133903E+03  0.34343133904E+03  0.25500000000E-02 0.  1.
    8880023    1    1    2    0    0  0.28080486532E+02 -0.43624518785E+03  0.17942445012E+03  0.81061810812E+03  0.65864270000E+03 0.  1.
    8880022    1    1    2    0    0 -0.28080486532E+02  0.43624518785E+03  0.18986412064E+04  0.19543102265E+04  0.15294330000E+03 0. -1.
<mgrwt>
<rscale>  0 0.69160333E+03</rscale>
<asrwt>0</asrwt>
<pdfrwt beam="1">  1        2 0.37253800E+00 0.79051160E+03</pdfrwt>
<pdfrwt beam="2">  1       -2 0.52835591E-01 0.79051160E+03</pdfrwt>
<totfact> 0.13564868E+01</totfact>
</mgrwt>
</event>
<event>
 4    1  0.3057048E-007  0.8101168E+03  0.7818608E-02  0.9689334E-01
          2   -1    0    0  501    0  0.00000000000E+00  0.00000000000E+00  0.38844714489E+04  0.38844714489E+04  0.25500000000E-02 0. -1.
         -2   -1    0    0    0  501 -0.00000000000E+00 -0.00000000000E+00 -0.11094934629E+03  0.11094934632E+03  0.25500000000E-02 0.  1.
    8880023    1    1    2    0    0 -0.45806052921E+03  0.11251442748E+03  0.21357764673E+04  0.22842570497E+04  0.65864270000E+03 0. -1.
    8880022    1    1    2    0    0  0.45806052921E+03 -0.11251442748E+03  0.16377456353E+04  0.17111637455E+04  0.15294330000E+03 0.  1.
<mgrwt>
<rscale>  0 0.71655418E+03</rscale>
<asrwt>0</asrwt>
<pdfrwt beam="1">  1        2 0.59761099E+00 0.81011675E+03</pdfrwt>
<pdfrwt beam="2">  1       -2 0.17069130E-01 0.81011675E+03</pdfrwt>
<totfact> 0.12867056E+01</totfact>
</mgrwt>
</event>
<event>
 4    1  0.3057048E-007  0.1062675E+04  0.7818608E-02  0.9303797E-01
          2   -1    0    0  501    0  0.00000000000E+00  0.00000000000E+00  0.24986997622E+04  0.24986997622E+04  0.25500000000E-02 0. -1.
         -2   -1    0    0    0  501 -0.00000000000E+00 -0.00000000000E+00 -0.36703968510E+03  0.36703968511E+03  0.25500000000E-02 0.  1.
    8880023    1    1    2    0    0  0.34652438476E+03 -0.75854416869E+03  0.12857936689E+04  0.16680959116E+04  0.65864270000E+03 0.  1.
    8880022    1    1    2    0    0 -0.34652438476E+03  0.75854416869E+03  0.84586640825E+03  0.11976435357E+04  0.15294330000E+03 0.  0.
<mgrwt>
<rscale>  0 0.10043405E+04</rscale>
<asrwt>0</asrwt>
<pdfrwt beam="1">  1        2 0.38441536E+00 0.10626752E+04</pdfrwt>
<pdfrwt beam="2">  1       -2 0.56467643E-01 0.10626752E+04</pdfrwt>
<totfact> 0.10307149E+01</totfact>
</mgrwt>
</event>
<event>
 4    1  0.3057048E-007  0.6735423E+03  0.7818608E-02  0.1013241E+00
         -2   -1    0    0    0  501 -0.00000000000E+00  0.00000000000E+00  0.34396258931E+03  0.34396258932E+03  0.25500000000E-02 0.  1.
          2   -1    0    0  501    0  0.00000000000E+00 -0.00000000000E+00 -0.75457777130E+03  0.75457777130E+03  0.25500000000E-02 0. -1.
    8880023    1    1    2    0    0 -0.14087490134E+03  0.18035861310E+01 -0.41423277108E+02  0.67481485231E+03  0.65864270000E+03 0.  1.
    8880022    1    1    2    0    0  0.14087490134E+03 -0.18035861310E+01 -0.36919190488E+03  0.42372550831E+03  0.15294330000E+03 0.  0.
<mgrwt>
<rscale>  0 0.50206525E+03</rscale>
<asrwt>0</asrwt>
<pdfrwt beam="1">  1        2 0.11608889E+00 0.67354228E+03</pdfrwt>
<pdfrwt beam="2">  1       -2 0.52917322E-01 0.67354228E+03</pdfrwt>
<totfact> 0.12734038E+02</totfact>
</mgrwt>
</event>
<event>
 4    1  0.3057048E-007  0.1059101E+04  0.7818608E-02  0.9308020E-01
          2   -1    0    0  501    0  0.00000000000E+00  0.00000000000E+00  0.74883842938E+03  0.74883842938E+03  0.25500000000E-02 0. -1.
         -2   -1    0    0    0  501 -0.00000000000E+00 -0.00000000000E+00 -0.17806686386E+04  0.17806686386E+04  0.25500000000E-02 0.  1.
    8880023    1    1    2    0    0 -0.41158271908E+03  0.72005797807E+03  0.15828215330E+03  0.10708628636E+04  0.65864270000E+03 0.  1.
    8880022    1    1    2    0    0  0.41158271908E+03 -0.72005797807E+03 -0.11901123626E+04  0.14586442044E+04  0.15294330000E+03 0.  0.
<mgrwt>
<rscale>  0 0.10004782E+04</rscale>
<asrwt>0</asrwt>
<pdfrwt beam="1">  1        2 0.11520591E+00 0.10591006E+04</pdfrwt>
<pdfrwt beam="2">  1       -2 0.27394902E+00 0.10591006E+04</pdfrwt>
<totfact> 0.17124739E+00</totfact>
</mgrwt>
</event>
<event>
 4    1  0.3057048E-007  0.6890298E+03  0.7818608E-02  0.1004617E+00
          2   -1    0    0  501    0  0.00000000000E+00  0.00000000000E+00  0.27199523213E+04  0.27199523213E+04  0.25500000000E-02 0. -1.
         -2   -1    0    0    0  501 -0.00000000000E+00 -0.00000000000E+00 -0.11703395747E+03  0.11703395750E+03  0.25500000000E-02 0.  1.
    8880023    1    1    2    0    0  0.16939631750E+03 -0.11071028956E+03  0.10016860909E+04  0.12157866226E+04  0.65864270000E+03 0.  1.
    8880022    1    1    2    0    0 -0.16939631750E+03  0.11071028956E+03  0.16012322729E+04  0.16211996562E+04  0.15294330000E+03 0.  0.
<mgrwt>
<rscale>  0 0.53671239E+03</rscale>
<asrwt>0</asrwt>
<pdfrwt beam="1">  1        2 0.41845412E+00 0.68902982E+03</pdfrwt>
<pdfrwt beam="2">  1       -2 0.18005228E-01 0.68902982E+03</pdfrwt>
<totfact> 0.69824332E+01</totfact>
</mgrwt>
</event>
<event>
 4    1  0.3057048E-007  0.8285163E+03  0.7818608E-02  0.9652226E-01
          2   -1    0    0  501    0  0.00000000000E+00  0.00000000000E+00  0.30774056557E+04  0.30774056557E+04  0.25500000000E-02 0. -1.
         -2   -1    0    0    0  501 -0.00000000000E+00 -0.00000000000E+00 -0.33540253900E+03  0.33540253901E+03  0.25500000000E-02 0.  1.
    8880023    1    1    2    0    0 -0.12988274460E+03 -0.48555080279E+03  0.24911163349E+03  0.86515658793E+03  0.65864270000E+03 0.  1.
    8880022    1    1    2    0    0  0.12988274460E+03  0.48555080279E+03  0.24928914832E+04  0.25476516068E+04  0.15294330000E+03 0.  0.
<mgrwt>
<rscale>  0 0.73933885E+03</rscale>
<asrwt>0</asrwt>
<pdfrwt beam="1">  1        2 0.47344702E+00 0.82851633E+03</pdfrwt>
<pdfrwt beam="2">  1       -2 0.51600391E-01 0.82851633E+03</pdfrwt>
<totfact> 0.58109827E+00</totfact>
</mgrwt>
</event>
<event>
 4    1  0.3057048E-007  0.7816748E+03  0.7818608E-02  0.9751918E-01
         -2   -1    0    0    0  501 -0.00000000000E+00  0.00000000000E+00  0.13802951391E+04  0.13802951391E+04  0.25500000000E-02 0.  1.
          2   -1    0    0  501    0  0.00000000000E+00 -0.00000000000E+00 -0.28721283324E+03  0.28721283325E+03  0.25500000000E-02 0. -1.
    8880023    1    1    2    0    0  0.41516948005E+03 -0.69566729631E+02  0.86160019830E+03  0.11633444610E+04  0.65864270000E+03 0. -1.
    8880022    1    1    2    0    0 -0.41516948005E+03  0.69566729631E+02  0.23148210760E+03  0.50416351136E+03  0.15294330000E+03 0.  0.
<mgrwt>
<rscale>  0 0.68008013E+03</rscale>
<asrwt>0</asrwt>
<pdfrwt beam="1">  1        2 0.44186590E-01 0.78167476E+03</pdfrwt>
<pdfrwt beam="2">  1       -2 0.21235310E+00 0.78167476E+03</pdfrwt>
<totfact> 0.12955103E+01</totfact>
</mgrwt>
</event>
<event>
 4    1  0.3057048E-007  0.8134057E+03  0.7818608E-02  0.9682526E-01
         -2   -1    0    0    0  501 -0.00000000000E+00  0.00000000000E+00  0.44751366332E+03  0.44751366332E+03  0.25500000000E-02 0.  1.
          2   -1    0    0  501    0  0.00000000000E+00 -0.00000000000E+00 -0.19256105922E+04  0.19256105922E+04  0.25500000000E-02 0. -1.
    8880023    1    1    2    0    0  0.36755575598E+03  0.30450183347E+03 -0.11035524250E+01  0.81340643250E+03  0.65864270000E+03 0.  1.
    8880022    1    1    2    0    0 -0.36755575598E+03 -0.30450183347E+03 -0.14769933765E+04  0.15597178230E+04  0.15294330000E+03 0.  0.
<mgrwt>
<rscale>  0 0.72066772E+03</rscale>
<asrwt>0</asrwt>
<pdfrwt beam="1">  1        2 0.29624778E+00 0.81340568E+03</pdfrwt>
<pdfrwt beam="2">  1       -2 0.68848257E-01 0.81340568E+03</pdfrwt>
<totfact> 0.14507709E+01</totfact>
</mgrwt>
</event>
<event>
 4    1  0.3057048E-007  0.7141840E+03  0.7818608E-02  0.9942780E-01
          2   -1    0    0  501    0  0.00000000000E+00  0.00000000000E+00  0.66626520887E+03  0.66626520887E+03  0.25500000000E-02 0. -1.
         -2   -1    0    0    0  501 -0.00000000000E+00 -0.00000000000E+00 -0.12352597752E+04  0.12352597752E+04  0.25500000000E-02 0.  1.
    8880023    1    1    2    0    0 -0.26922011105E+03  0.61393477966E+02 -0.10836206427E+04  0.12978029630E+04  0.65864270000E+03 0.  1.
    8880022    1    1    2    0    0  0.26922011105E+03 -0.61393477966E+02  0.51462607630E+03  0.60372202109E+03  0.15294330000E+03 0.  0.
<mgrwt>
<rscale>  0 0.58232035E+03</rscale>
<asrwt>0</asrwt>
<pdfrwt beam="1">  1        2 0.10250234E+00 0.71418403E+03</pdfrwt>
<pdfrwt beam="2">  1       -2 0.19003996E+00 0.71418403E+03</pdfrwt>
<totfact> 0.69139001E+00</totfact>
</mgrwt>
</event>
<event>
 4    1  0.3057048E-007  0.7337816E+03  0.7818608E-02  0.9878446E-01
         -2   -1    0    0    0  501 -0.00000000000E+00  0.00000000000E+00  0.17254929777E+04  0.17254929777E+04  0.25500000000E-02 0.  1.
          2   -1    0    0  501    0  0.00000000000E+00 -0.00000000000E+00 -0.28917716944E+03  0.28917716945E+03  0.25500000000E-02 0. -1.
    8880023    1    1    2    0    0  0.19226991704E+03  0.26011044838E+03  0.14822543291E+04  0.16539387137E+04  0.65864270000E+03 0.  1.
    8880022    1    1    2    0    0 -0.19226991704E+03 -0.26011044838E+03 -0.45938520830E+02  0.36073143343E+03  0.15294330000E+03 0.  0.
<mgrwt>
<rscale>  0 0.61317363E+03</rscale>
<asrwt>0</asrwt>
<pdfrwt beam="1">  1        2 0.44488795E-01 0.73378156E+03</pdfrwt>
<pdfrwt beam="2">  1       -2 0.26546046E+00 0.73378156E+03</pdfrwt>
<totfact> 0.61032023E+00</totfact>
</mgrwt>
</event>
<event>
 4    1  0.3057048E-007  0.7816343E+03  0.7818608E-02  0.9752012E-01
         -2   -1    0    0    0  501 -0.00000000000E+00  0.00000000000E+00  0.15924727569E+04  0.15924727569E+04  0.25500000000E-02 0.  1.
          2   -1    0    0  501    0  0.00000000000E+00 -0.00000000000E+00 -0.34275802512E+03  0.34275802513E+03  0.25500000000E-02 0. -1.
    8880023    1    1    2    0    0 -0.41255867480E+03 -0.83290374070E+02  0.12651779221E+04  0.14871541035E+04  0.65864270000E+03 0.  1.
    8880022    1    1    2    0    0  0.41255867480E+03  0.83290374070E+02 -0.15463190385E+02  0.44807667853E+03  0.15294330000E+03 0.  0.
<mgrwt>
<rscale>  0 0.68002690E+03</rscale>
<asrwt>0</asrwt>
<pdfrwt beam="1">  1        2 0.52732005E-01 0.78163428E+03</pdfrwt>
<pdfrwt beam="2">  1       -2 0.24499581E+00 0.78163428E+03</pdfrwt>
<totfact> 0.66765714E+00</totfact>
</mgrwt>
</event>
<event>
 4    1  0.3057048E-007  0.7467502E+03  0.7818608E-02  0.9840703E-01
          2   -1    0    0  501    0  0.00000000000E+00  0.00000000000E+00  0.93557889121E+03  0.93557889122E+03  0.25500000000E-02 0. -1.
         -2   -1    0    0    0  501 -0.00000000000E+00 -0.00000000000E+00 -0.95671979254E+03  0.95671979254E+03  0.25500000000E-02 0.  1.
    8880023    1    1    2    0    0 -0.32108195736E+02  0.35042072314E+03 -0.75642378844E+03  0.10629265137E+04  0.65864270000E+03 0.  1.
    8880022    1    1    2    0    0  0.32108195736E+02 -0.35042072314E+03  0.73528288712E+03  0.82937217010E+03  0.15294330000E+03 0.  0.
<mgrwt>
<rscale>  0 0.63223181E+03</rscale>
<asrwt>0</asrwt>
<pdfrwt beam="1">  1        2 0.14393522E+00 0.74675018E+03</pdfrwt>
<pdfrwt beam="2">  1       -2 0.14718766E+00 0.74675018E+03</pdfrwt>
<totfact> 0.88986115E+00</totfact>
</mgrwt>
</event>
<event>
 4    1  0.3057048E-007  0.8211316E+03  0.7818608E-02  0.9666840E-01
          2   -1    0    0  501    0  0.00000000000E+00  0.00000000000E+00  0.13955082996E+04  0.13955082996E+04  0.25500000000E-02 0. -1.
         -2   -1    0    0    0  501 -0.00000000000E+00 -0.00000000000E+00 -0.39340469648E+03  0.39340469649E+03  0.25500000000E-02 0.  1.
    8880023    1    1    2    0    0  0.29624534562E+03 -0.39074996976E+03  0.97477200324E+03  0.12745342319E+04  0.65864270000E+03 0.  0.
    8880022    1    1    2    0    0 -0.29624534562E+03  0.39074996976E+03  0.27331599847E+02  0.51437876417E+03  0.15294330000E+03 0.  0.
<mgrwt>
<rscale>  0 0.73025885E+03</rscale>
<asrwt>0</asrwt>
<pdfrwt beam="1">  1        2 0.21469358E+00 0.82113157E+03</pdfrwt>
<pdfrwt beam="2">  1       -2 0.60523800E-01 0.82113157E+03</pdfrwt>
<totfact> 0.37520475E+01</totfact>
</mgrwt>
</event>
<event>
 4    1  0.3057048E-007  0.6799736E+03  0.7818608E-02  0.1009339E+00
          2   -1    0    0  501    0  0.00000000000E+00  0.00000000000E+00  0.91760686775E+03  0.91760686776E+03  0.25500000000E-02 0. -1.
         -2   -1    0    0    0  501 -0.00000000000E+00 -0.00000000000E+00 -0.71779155639E+03  0.71779155639E+03  0.25500000000E-02 0.  1.
    8880023    1    1    2    0    0  0.10229215780E+03 -0.13449962207E+03 -0.53553268657E+03  0.86553988847E+03  0.65864270000E+03 0.  1.
    8880022    1    1    2    0    0 -0.10229215780E+03  0.13449962207E+03  0.73534799793E+03  0.76985853568E+03  0.15294330000E+03 0.  0.
<mgrwt>
<rscale>  0 0.51738341E+03</rscale>
<asrwt>0</asrwt>
<pdfrwt beam="1">  1        2 0.14117029E+00 0.67997356E+03</pdfrwt>
<pdfrwt beam="2">  1       -2 0.11042947E+00 0.67997356E+03</pdfrwt>
<totfact> 0.19004081E+01</totfact>
</mgrwt>
</event>
<event>
 4    1  0.3057048E-007  0.7245768E+03  0.7818608E-02  0.9907393E-01
          2   -1    0    0  501    0  0.00000000000E+00  0.00000000000E+00  0.98794582295E+03  0.98794582295E+03  0.25500000000E-02 0. -1.
         -2   -1    0    0    0  501 -0.00000000000E+00 -0.00000000000E+00 -0.53570999560E+03  0.53570999561E+03  0.25500000000E-02 0.  1.
    8880023    1    1    2    0    0  0.20874631213E+03 -0.21823441369E+03 -0.23154088460E+03  0.76067251143E+03  0.65864270000E+03 0.  1.
    8880022    1    1    2    0    0 -0.20874631213E+03  0.21823441369E+03  0.68377671194E+03  0.76298330712E+03  0.15294330000E+03 0.  0.
<mgrwt>
<rscale>  0 0.59904305E+03</rscale>
<asrwt>0</asrwt>
<pdfrwt beam="1">  1        2 0.15199166E+00 0.72457677E+03</pdfrwt>
<pdfrwt beam="2">  1       -2 0.82416923E-01 0.72457677E+03</pdfrwt>
<totfact> 0.33750799E+01</totfact>
</mgrwt>
</event>
<event>
 4    1  0.3057048E-007  0.9900069E+03  0.7818608E-02  0.9394750E-01
         -2   -1    0    0    0  501 -0.00000000000E+00  0.00000000000E+00  0.15293900372E+04  0.15293900372E+04  0.25500000000E-02 0.  1.
          2   -1    0    0  501    0  0.00000000000E+00 -0.00000000000E+00 -0.70665837053E+03  0.70665837053E+03  0.25500000000E-02 0. -1.
    8880023    1    1    2    0    0  0.27375239609E+03 -0.68655879880E+03  0.10545787070E+04  0.14464611347E+04  0.65864270000E+03 0.  0.
    8880022    1    1    2    0    0 -0.27375239609E+03  0.68655879880E+03 -0.23184704038E+03  0.78958727303E+03  0.15294330000E+03 0.  0.
<mgrwt>
<rscale>  0 0.92508993E+03</rscale>
<asrwt>0</asrwt>
<pdfrwt beam="1">  1        2 0.10871668E+00 0.99000685E+03</pdfrwt>
<pdfrwt beam="2">  1       -2 0.23529077E+00 0.99000685E+03</pdfrwt>
<totfact> 0.31996441E+00</totfact>
</mgrwt>
</event>
<event>
 4    1  0.3057048E-007  0.1048069E+04  0.7818608E-02  0.9321207E-01
         -2   -1    0    0    0  501 -0.00000000000E+00  0.00000000000E+00  0.64931176306E+03  0.64931176307E+03  0.25500000000E-02 0.  1.
          2   -1    0    0  501    0  0.00000000000E+00 -0.00000000000E+00 -0.43601364896E+04  0.43601364896E+04  0.25500000000E-02 0. -1.
    8880023    1    1    2    0    0 -0.76790023072E+03  0.27380051642E+03  0.15158608768E+03  0.10589740485E+04  0.65864270000E+03 0.  0.
    8880022    1    1    2    0    0  0.76790023072E+03 -0.27380051642E+03 -0.38624108142E+04  0.39504742042E+04  0.15294330000E+03 0.  0.
<mgrwt>
<rscale>  0 0.98853744E+03</rscale>
<asrwt>0</asrwt>
<pdfrwt beam="1">  1        2 0.67079021E+00 0.10480686E+04</pdfrwt>
<pdfrwt beam="2">  1       -2 0.99894120E-01 0.10480686E+04</pdfrwt>
<totfact> 0.14606191E-01</totfact>
</mgrwt>
</event>
<event>
 4    1  0.3057048E-007  0.6922664E+03  0.7818608E-02  0.1003093E+00
         -2   -1    0    0    0  501 -0.00000000000E+00  0.00000000000E+00  0.25808961955E+03  0.25808961956E+03  0.25500000000E-02 0.  1.
          2   -1    0    0  501    0  0.00000000000E+00 -0.00000000000E+00 -0.10088883937E+04  0.10088883937E+04  0.25500000000E-02 0. -1.
    8880023    1    1    2    0    0 -0.15953224803E+03  0.14132224241E+03 -0.72653034064E+03  0.10035332862E+04  0.65864270000E+03 0.  0.
    8880022    1    1    2    0    0  0.15953224803E+03 -0.14132224241E+03 -0.24268433559E+02  0.26344472711E+03  0.15294330000E+03 0.  0.
<mgrwt>
<rscale>  0 0.54314359E+03</rscale>
<asrwt>0</asrwt>
<pdfrwt beam="1">  1        2 0.15521360E+00 0.69226637E+03</pdfrwt>
<pdfrwt beam="2">  1       -2 0.39706096E-01 0.69226637E+03</pdfrwt>
<totfact> 0.15149875E+02</totfact>
</mgrwt>
</event>
<event>
 4    1  0.3057048E-007  0.6702827E+03  0.7818608E-02  0.1015461E+00
          2   -1    0    0  501    0  0.00000000000E+00  0.00000000000E+00  0.18052272226E+04  0.18052272226E+04  0.25500000000E-02 0. -1.
         -2   -1    0    0    0  501 -0.00000000000E+00 -0.00000000000E+00 -0.16134852049E+03  0.16134852051E+03  0.25500000000E-02 0.  1.
    8880023    1    1    2    0    0  0.12254672011E+03 -0.21237431030E+02  0.58549634740E+03  0.88999152028E+03  0.65864270000E+03 0.  1.
    8880022    1    1    2    0    0 -0.12254672011E+03  0.21237431030E+02  0.10583823547E+04  0.10765842228E+04  0.15294330000E+03 0.  0.
<mgrwt>
<rscale>  0 0.49360767E+03</rscale>
<asrwt>0</asrwt>
<pdfrwt beam="1">  1        2 0.27772724E+00 0.67028273E+03</pdfrwt>
<pdfrwt beam="2">  1       -2 0.24822852E-01 0.67028273E+03</pdfrwt>
<totfact> 0.12814882E+02</totfact>
</mgrwt>
</event>
<event>
 4    1  0.3057048E-007  0.6590888E+03  0.7818608E-02  0.1025110E+00
          2   -1    0    0  501    0  0.00000000000E+00  0.00000000000E+00  0.34762192064E+04  0.34762192064E+04  0.25500000000E-02 0. -1.
         -2   -1    0    0    0  501 -0.00000000000E+00 -0.00000000000E+00 -0.51794685429E+02  0.51794685491E+02  0.25500000000E-02 0.  1.
    8880023    1    1    2    0    0  0.11285561373E+02  0.21458036782E+02  0.22863482047E+04  0.23794508044E+04  0.65864270000E+03 0.  1.
    8880022    1    1    2    0    0 -0.11285561373E+02 -0.21458036782E+02  0.11380763163E+04  0.11485630875E+04  0.15294330000E+03 0.  0.
<mgrwt>
<rscale>  0 0.45886811E+03</rscale>
<asrwt>0</asrwt>
<pdfrwt beam="1">  1        2 0.53480288E+00 0.65908878E+03</pdfrwt>
<pdfrwt beam="2">  1       -2 0.79684143E-02 0.65908878E+03</pdfrwt>
<totfact> 0.91139716E+01</totfact>
</mgrwt>
</event>
<event>
 4    1  0.3057048E-007  0.6884657E+03  0.7818608E-02  0.1004890E+00
          2   -1    0    0  501    0  0.00000000000E+00  0.00000000000E+00  0.27785469984E+03  0.27785469985E+03  0.25500000000E-02 0. -1.
         -2   -1    0    0    0  501 -0.00000000000E+00 -0.00000000000E+00 -0.12417404554E+04  0.12417404554E+04  0.25500000000E-02 0.  1.
    8880023    1    1    2    0    0 -0.13266485035E+03 -0.15024913444E+03 -0.10479138618E+04  0.12538374826E+04  0.65864270000E+03 0.  1.
    8880022    1    1    2    0    0  0.13266485035E+03  0.15024913444E+03  0.84028106194E+02  0.26575767264E+03  0.15294330000E+03 0.  0.
<mgrwt>
<rscale>  0 0.53556869E+03</rscale>
<asrwt>0</asrwt>
<pdfrwt beam="1">  1        2 0.42746877E-01 0.68846566E+03</pdfrwt>
<pdfrwt beam="2">  1       -2 0.19103699E+00 0.68846566E+03</pdfrwt>
<totfact> 0.18631923E+01</totfact>
</mgrwt>
</event>
<event>
 4    1  0.3057048E-007  0.8651654E+03  0.7818608E-02  0.9584440E-01
         -2   -1    0    0    0  501 -0.00000000000E+00  0.00000000000E+00  0.76571221421E+03  0.76571221421E+03  0.25500000000E-02 0.  1.
          2   -1    0    0  501    0  0.00000000000E+00 -0.00000000000E+00 -0.95118413525E+03  0.95118413525E+03  0.25500000000E-02 0. -1.
    8880023    1    1    2    0    0 -0.27016175855E+03 -0.49164384105E+03  0.34346733025E+03  0.93084964169E+03  0.65864270000E+03 0.  1.
    8880022    1    1    2    0    0  0.27016175855E+03  0.49164384105E+03 -0.52893925130E+03  0.78604670777E+03  0.15294330000E+03 0.  0.
<mgrwt>
<rscale>  0 0.78334639E+03</rscale>
<asrwt>0</asrwt>
<pdfrwt beam="1">  1        2 0.14633602E+00 0.86516545E+03</pdfrwt>
<pdfrwt beam="2">  1       -2 0.11780188E+00 0.86516545E+03</pdfrwt>
<totfact> 0.15133270E+01</totfact>
</mgrwt>
</event>
<event>
 4    1  0.3057048E-007  0.9212141E+03  0.7818608E-02  0.9492800E-01
         -2   -1    0    0    0  501 -0.00000000000E+00  0.00000000000E+00  0.68022052618E+03  0.68022052619E+03  0.25500000000E-02 0.  1.
          2   -1    0    0  501    0  0.00000000000E+00 -0.00000000000E+00 -0.14134970616E+04  0.14134970616E+04  0.25500000000E-02 0. -1.
    8880023    1    1    2    0    0 -0.63413071984E+02  0.64093995271E+03  0.20661798992E+03  0.94410086363E+03  0.65864270000E+03 0.  0.
    8880022    1    1    2    0    0  0.63413071984E+02 -0.64093995271E+03 -0.93989452529E+03  0.11496167241E+04  0.15294330000E+03 0.  0.
<mgrwt>
<rscale>  0 0.84816740E+03</rscale>
<asrwt>0</asrwt>
<pdfrwt beam="1">  1        2 0.21746109E+00 0.92121412E+03</pdfrwt>
<pdfrwt beam="2">  1       -2 0.10464931E+00 0.92121412E+03</pdfrwt>
<totfact> 0.10561418E+01</totfact>
</mgrwt>
</event>
<event>
 4    1  0.3057048E-007  0.1037127E+04  0.7818608E-02  0.9334519E-01
          2   -1    0    0  501    0  0.00000000000E+00  0.00000000000E+00  0.31428978868E+04  0.31428978868E+04  0.25500000000E-02 0. -1.
         -2   -1    0    0    0  501 -0.00000000000E+00 -0.00000000000E+00 -0.38794290192E+03  0.38794290193E+03  0.25500000000E-02 0.  1.
    8880023    1    1    2    0    0 -0.38270123183E+03  0.70381980499E+03  0.53747408648E+03  0.11681229176E+04  0.65864270000E+03 0.  0.
    8880022    1    1    2    0    0  0.38270123183E+03 -0.70381980499E+03  0.22174808984E+04  0.23627178711E+04  0.15294330000E+03 0.  0.
<mgrwt>
<rscale>  0 0.97666179E+03</rscale>
<asrwt>0</asrwt>
<pdfrwt beam="1">  1        2 0.48352277E+00 0.10371272E+04</pdfrwt>
<pdfrwt beam="2">  1       -2 0.59683521E-01 0.10371272E+04</pdfrwt>
<totfact> 0.37760197E+00</totfact>
</mgrwt>
</event>
<event>
 4    1  0.3057048E-007  0.7482651E+03  0.7818608E-02  0.9836494E-01
         -2   -1    0    0    0  501 -0.00000000000E+00  0.00000000000E+00  0.92553730370E+02  0.92553730406E+02  0.25500000000E-02 0.  1.
          2   -1    0    0  501    0  0.00000000000E+00 -0.00000000000E+00 -0.40293160492E+04  0.40293160492E+04  0.25500000000E-02 0. -1.
    8880023    1    1    2    0    0  0.30335558352E+03  0.18456922163E+03 -0.17824636538E+04  0.19331521645E+04  0.65864270000E+03 0.  0.
    8880022    1    1    2    0    0 -0.30335558352E+03 -0.18456922163E+03 -0.21542986651E+04  0.21887176152E+04  0.15294330000E+03 0.  0.
<mgrwt>
<rscale>  0 0.63440302E+03</rscale>
<asrwt>0</asrwt>
<pdfrwt beam="1">  1        2 0.61989464E+00 0.74826507E+03</pdfrwt>
<pdfrwt beam="2">  1       -2 0.14239039E-01 0.74826507E+03</pdfrwt>
<totfact> 0.13664517E+01</totfact>
</mgrwt>
</event>
<event>
 4    1  0.3057048E-007  0.7441749E+03  0.7818608E-02  0.9847949E-01
         -2   -1    0    0    0  501 -0.00000000000E+00  0.00000000000E+00  0.20702484121E+03  0.20702484123E+03  0.25500000000E-02 0.  1.
          2   -1    0    0  501    0  0.00000000000E+00 -0.00000000000E+00 -0.19192701806E+04  0.19192701806E+04  0.25500000000E-02 0. -1.
    8880023    1    1    2    0    0  0.21426358560E+03  0.27217115124E+03 -0.61454848151E+03  0.96512489455E+03  0.65864270000E+03 0.  1.
    8880022    1    1    2    0    0 -0.21426358560E+03 -0.27217115124E+03 -0.10976968579E+04  0.11611701273E+04  0.15294330000E+03 0.  0.
<mgrwt>
<rscale>  0 0.62851614E+03</rscale>
<asrwt>0</asrwt>
<pdfrwt beam="1">  1        2 0.29527232E+00 0.74417486E+03</pdfrwt>
<pdfrwt beam="2">  1       -2 0.31849977E-01 0.74417486E+03</pdfrwt>
<totfact> 0.69737243E+01</totfact>
</mgrwt>
</event>
<event>
 4    1  0.3057048E-007  0.1299079E+04  0.7818608E-02  0.9066355E-01
         -2   -1    0    0    0  501 -0.00000000000E+00  0.00000000000E+00  0.11917855361E+04  0.11917855361E+04  0.25500000000E-02 0.  1.
          2   -1    0    0  501    0  0.00000000000E+00 -0.00000000000E+00 -0.21977911882E+04  0.21977911882E+04  0.25500000000E-02 0. -1.
    8880023    1    1    2    0    0 -0.88693316775E+03  0.68348094383E+03  0.59583014946E+03  0.14292027211E+04  0.65864270000E+03 0.  0.
    8880022    1    1    2    0    0  0.88693316775E+03 -0.68348094383E+03 -0.16018358016E+04  0.19603740033E+04  0.15294330000E+03 0.  0.
<mgrwt>
<rscale>  0 0.12546096E+04</rscale>
<asrwt>0</asrwt>
<pdfrwt beam="1">  1        2 0.33812172E+00 0.12990792E+04</pdfrwt>
<pdfrwt beam="2">  1       -2 0.18335162E+00 0.12990792E+04</pdfrwt>
<totfact> 0.85596865E-01</totfact>
</mgrwt>
</event>
<event>
 4    1  0.3057048E-007  0.8115228E+03  0.7818608E-02  0.9686414E-01
          2   -1    0    0  501    0  0.00000000000E+00  0.00000000000E+00  0.52366337415E+03  0.52366337416E+03  0.25500000000E-02 0. -1.
         -2   -1    0    0    0  501 -0.00000000000E+00 -0.00000000000E+00 -0.19292448694E+04  0.19292448694E+04  0.25500000000E-02 0.  1.
    8880023    1    1    2    0    0 -0.21738162673E+03 -0.42131251181E+03 -0.16932432042E+04  0.18776692358E+04  0.65864270000E+03 0.  0.
    8880022    1    1    2    0    0  0.21738162673E+03  0.42131251181E+03  0.28766170895E+03  0.57523900777E+03  0.15294330000E+03 0.  0.
<mgrwt>
<rscale>  0 0.71831504E+03</rscale>
<asrwt>0</asrwt>
<pdfrwt beam="1">  1        2 0.80563597E-01 0.81152277E+03</pdfrwt>
<pdfrwt beam="2">  1       -2 0.29680690E+00 0.81152277E+03</pdfrwt>
<totfact> 0.20001153E+00</totfact>
</mgrwt>
</event>
<event>
 4    1  0.3057048E-007  0.6813453E+03  0.7818608E-02  0.1008573E+00
          2   -1    0    0  501    0  0.00000000000E+00  0.00000000000E+00  0.79600272288E+03  0.79600272289E+03  0.25500000000E-02 0. -1.
         -2   -1    0    0    0  501 -0.00000000000E+00 -0.00000000000E+00 -0.51269342553E+03  0.51269342554E+03  0.25500000000E-02 0.  1.
    8880023    1    1    2    0    0 -0.15218685553E+03  0.85207915054E+02 -0.25107472608E+03  0.72613356356E+03  0.65864270000E+03 0.  0.
    8880022    1    1    2    0    0  0.15218685553E+03 -0.85207915054E+02  0.53438402342E+03  0.58256258487E+03  0.15294330000E+03 0.  0.
<mgrwt>
<rscale>  0 0.52045865E+03</rscale>
<asrwt>0</asrwt>
<pdfrwt beam="1">  1        2 0.12246196E+00 0.68134531E+03</pdfrwt>
<pdfrwt beam="2">  1       -2 0.78875912E-01 0.68134531E+03</pdfrwt>
<totfact> 0.50442244E+01</totfact>
</mgrwt>
</event>
<event>
 4    1  0.3057048E-007  0.6648834E+03  0.7818608E-02  0.1019631E+00
         -2   -1    0    0    0  501 -0.00000000000E+00  0.00000000000E+00  0.30743099705E+03  0.30743099706E+03  0.25500000000E-02 0.  1.
          2   -1    0    0  501    0  0.00000000000E+00 -0.00000000000E+00 -0.13412732405E+04  0.13412732405E+04  0.25500000000E-02 0. -1.
    8880023    1    1    2    0    0  0.53149944398E+02 -0.73721066277E+02 -0.69974898703E+02  0.66855546136E+03  0.65864270000E+03 0.  1.
    8880022    1    1    2    0    0 -0.53149944398E+02  0.73721066277E+02 -0.96386734477E+03  0.98014877622E+03  0.15294330000E+03 0.  0.
<mgrwt>
<rscale>  0 0.47819845E+03</rscale>
<asrwt>0</asrwt>
<pdfrwt beam="1">  1        2 0.20634973E+00 0.66488339E+03</pdfrwt>
<pdfrwt beam="2">  1       -2 0.47297077E-01 0.66488339E+03</pdfrwt>
<totfact> 0.68064705E+01</totfact>
</mgrwt>
</event>
<event>
 4    1  0.3057048E-007  0.1063587E+04  0.7818608E-02  0.9302724E-01
         -2   -1    0    0    0  501 -0.00000000000E+00  0.00000000000E+00  0.85819389930E+03  0.85819389930E+03  0.25500000000E-02 0.  1.
          2   -1    0    0  501    0  0.00000000000E+00 -0.00000000000E+00 -0.18272534061E+04  0.18272534061E+04  0.25500000000E-02 0. -1.
    8880023    1    1    2    0    0 -0.10902881973E+03  0.82796059918E+03  0.34747072605E+03  0.11189066758E+04  0.65864270000E+03 0.  1.
    8880022    1    1    2    0    0  0.10902881973E+03 -0.82796059918E+03 -0.13165302329E+04  0.15665406297E+04  0.15294330000E+03 0.  0.
<mgrwt>
<rscale>  0 0.10053245E+04</rscale>
<asrwt>0</asrwt>
<pdfrwt beam="1">  1        2 0.28111591E+00 0.10635865E+04</pdfrwt>
<pdfrwt beam="2">  1       -2 0.13202983E+00 0.10635865E+04</pdfrwt>
<totfact> 0.34401917E+00</totfact>
</mgrwt>
</event>
<event>
 4    1  0.3057048E-007  0.8112071E+03  0.7818608E-02  0.9687068E-01
          2   -1    0    0  501    0  0.00000000000E+00  0.00000000000E+00  0.14887742787E+04  0.14887742787E+04  0.25500000000E-02 0. -1.
         -2   -1    0    0    0  501 -0.00000000000E+00 -0.00000000000E+00 -0.35738454214E+03  0.35738454215E+03  0.25500000000E-02 0.  1.
    8880023    1    1    2    0    0  0.46543224321E+03  0.87290178960E+02  0.27660190512E+03  0.85706800695E+03  0.65864270000E+03 0.  0.
    8880022    1    1    2    0    0 -0.46543224321E+03 -0.87290178960E+02  0.85478783147E+03  0.98909081393E+03  0.15294330000E+03 0.  0.
<mgrwt>
<rscale>  0 0.71792000E+03</rscale>
<asrwt>0</asrwt>
<pdfrwt beam="1">  1        2 0.22904220E+00 0.81120710E+03</pdfrwt>
<pdfrwt beam="2">  1       -2 0.54982237E-01 0.81120710E+03</pdfrwt>
<totfact> 0.40705301E+01</totfact>
</mgrwt>
</event>
<event>
 4    1  0.3057048E-007  0.1042151E+04  0.7818608E-02  0.9328377E-01
          2   -1    0    0  501    0  0.00000000000E+00  0.00000000000E+00  0.19316664105E+04  0.19316664105E+04  0.25500000000E-02 0. -1.
         -2   -1    0    0    0  501 -0.00000000000E+00 -0.00000000000E+00 -0.50296777072E+03  0.50296777073E+03  0.25500000000E-02 0.  1.
    8880023    1    1    2    0    0 -0.71111916937E+03  0.38285463956E+03  0.11833133186E+04  0.15768033372E+04  0.65864270000E+03 0.  0.
    8880022    1    1    2    0    0  0.71111916937E+03 -0.38285463956E+03  0.24538532121E+03  0.85783084402E+03  0.15294330000E+03 0.  0.
<mgrwt>
<rscale>  0 0.98211862E+03</rscale>
<asrwt>0</asrwt>
<pdfrwt beam="1">  1        2 0.29717945E+00 0.10421508E+04</pdfrwt>
<pdfrwt beam="2">  1       -2 0.77379656E-01 0.10421508E+04</pdfrwt>
<totfact> 0.10828632E+01</totfact>
</mgrwt>
</event>
<event>
 4    1  0.3799431E-007  0.9618149E+03  0.7818608E-02  0.9433315E-01
          2   -1    0    0  501    0  0.00000000000E+00  0.00000000000E+00  0.16610096560E+04  0.16610096560E+04  0.25500000000E-02 0. -1.
         -2   -1    0    0    0  501 -0.00000000000E+00 -0.00000000000E+00 -0.13994503943E+04  0.13994503943E+04  0.25500000000E-02 0.  1.
    8880023    1    1    2    0    0 -0.39311188847E+03  0.58029374645E+03 -0.11366290598E+04  0.14889639400E+04  0.65864270000E+03 0.  0.
    8880022    1    1    2    0    0  0.39311188847E+03 -0.58029374645E+03  0.13981883215E+04  0.15714961102E+04  0.15294330000E+03 0.  0.
<mgrwt>
<rscale>  0 0.89383980E+03</rscale>
<asrwt>0</asrwt>
<pdfrwt beam="1">  1        2 0.25553995E+00 0.96181495E+03</pdfrwt>
<pdfrwt beam="2">  1       -2 0.21530006E+00 0.96181495E+03</pdfrwt>
<totfact> 0.10933401E+00</totfact>
</mgrwt>
</event>
<event>
 4    1  0.3057048E-007  0.7086054E+03  0.7818608E-02  0.9963217E-01
          2   -1    0    0  501    0  0.00000000000E+00  0.00000000000E+00  0.38417090278E+03  0.38417090279E+03  0.25500000000E-02 0. -1.
         -2   -1    0    0    0  501 -0.00000000000E+00 -0.00000000000E+00 -0.73738938590E+03  0.73738938591E+03  0.25500000000E-02 0.  1.
    8880023    1    1    2    0    0  0.25405623340E+03 -0.61374081118E+02 -0.40221109281E+03  0.81479771539E+03  0.65864270000E+03 0.  1.
    8880022    1    1    2    0    0 -0.25405623340E+03  0.61374081118E+02  0.48992609692E+02  0.30676257331E+03  0.15294330000E+03 0.  0.
<mgrwt>
<rscale>  0 0.57292961E+03</rscale>
<asrwt>0</asrwt>
<pdfrwt beam="1">  1        2 0.59103216E-01 0.70860536E+03</pdfrwt>
<pdfrwt beam="2">  1       -2 0.11344452E+00 0.70860536E+03</pdfrwt>
<totfact> 0.51427546E+01</totfact>
</mgrwt>
</event>
<event>
 4    1  0.3057048E-007  0.1121527E+04  0.7818608E-02  0.9237459E-01
          2   -1    0    0  501    0  0.00000000000E+00  0.00000000000E+00  0.11370263937E+04  0.11370263937E+04  0.25500000000E-02 0. -1.
         -2   -1    0    0    0  501 -0.00000000000E+00 -0.00000000000E+00 -0.11192068384E+04  0.11192068384E+04  0.25500000000E-02 0.  1.
    8880023    1    1    2    0    0 -0.68157911549E+03 -0.59955215999E+03 -0.46811754056E+03  0.12153012471E+04  0.65864270000E+03 0.  0.
    8880022    1    1    2    0    0  0.68157911549E+03  0.59955215999E+03  0.48593709592E+03  0.10409319850E+04  0.15294330000E+03 0.  0.
<mgrwt>
<rscale>  0 0.10675020E+04</rscale>
<asrwt>0</asrwt>
<pdfrwt beam="1">  1        2 0.17492714E+00 0.11215271E+04</pdfrwt>
<pdfrwt beam="2">  1       -2 0.17218567E+00 0.11215271E+04</pdfrwt>
<totfact> 0.41632434E+00</totfact>
</mgrwt>
</event>
<event>
 4    1  0.3057048E-007  0.7620808E+03  0.7818608E-02  0.9799750E-01
          2   -1    0    0  501    0  0.00000000000E+00  0.00000000000E+00  0.13823547357E+04  0.13823547357E+04  0.25500000000E-02 0. -1.
         -2   -1    0    0    0  501 -0.00000000000E+00 -0.00000000000E+00 -0.46832928441E+03  0.46832928442E+03  0.25500000000E-02 0.  1.
    8880023    1    1    2    0    0 -0.36631707092E+03  0.11299869537E+03 -0.87846258933E+02  0.76712715574E+03  0.65864270000E+03 0.  0.
    8880022    1    1    2    0    0  0.36631707092E+03 -0.11299869537E+03  0.10018717102E+04  0.10835568644E+04  0.15294330000E+03 0.  0.
<mgrwt>
<rscale>  0 0.65375957E+03</rscale>
<asrwt>0</asrwt>
<pdfrwt beam="1">  1        2 0.21266996E+00 0.76208078E+03</pdfrwt>
<pdfrwt beam="2">  1       -2 0.72050660E-01 0.76208078E+03</pdfrwt>
<totfact> 0.26366685E+01</totfact>
</mgrwt>
</event>
<event>
 4    1  0.3057048E-007  0.6628579E+03  0.7818608E-02  0.1021402E+00
         -2   -1    0    0    0  501 -0.00000000000E+00  0.00000000000E+00  0.19251796215E+03  0.19251796217E+03  0.25500000000E-02 0.  1.
          2   -1    0    0  501    0  0.00000000000E+00 -0.00000000000E+00 -0.10689914422E+04  0.10689914422E+04  0.25500000000E-02 0. -1.
    8880023    1    1    2    0    0  0.58192592021E+02 -0.46733231126E+02 -0.44685587017E+03  0.79941275173E+03  0.65864270000E+03 0.  0.
    8880022    1    1    2    0    0 -0.58192592021E+02  0.46733231126E+02 -0.42961760988E+03  0.46209665265E+03  0.15294330000E+03 0.  0.
<mgrwt>
<rscale>  0 0.47183911E+03</rscale>
<asrwt>0</asrwt>
<pdfrwt beam="1">  1        2 0.16446022E+00 0.66285789E+03</pdfrwt>
<pdfrwt beam="2">  1       -2 0.29618149E-01 0.66285789E+03</pdfrwt>
<totfact> 0.24265661E+02</totfact>
</mgrwt>
</event>
<event>
 4    1  0.3057048E-007  0.8587887E+03  0.7818608E-02  0.9595722E-01
          2   -1    0    0  501    0  0.00000000000E+00  0.00000000000E+00  0.12134022755E+04  0.12134022755E+04  0.25500000000E-02 0. -1.
         -2   -1    0    0    0  501 -0.00000000000E+00 -0.00000000000E+00 -0.47690855608E+03  0.47690855609E+03  0.25500000000E-02 0.  1.
    8880023    1    1    2    0    0 -0.42040200986E+03 -0.35632842246E+03  0.15123528660E+03  0.87200350500E+03  0.65864270000E+03 0.  0.
    8880022    1    1    2    0    0  0.42040200986E+03  0.35632842246E+03  0.58525843277E+03  0.81830732656E+03  0.15294330000E+03 0.  0.
<mgrwt>
<rscale>  0 0.77579988E+03</rscale>
<asrwt>0</asrwt>
<pdfrwt beam="1">  1        2 0.18667727E+00 0.85878868E+03</pdfrwt>
<pdfrwt beam="2">  1       -2 0.73370547E-01 0.85878868E+03</pdfrwt>
<totfact> 0.31425647E+01</totfact>
</mgrwt>
</event>
<event>
 4    1  0.3057048E-007  0.6654159E+03  0.7818608E-02  0.1019187E+00
         -2   -1    0    0    0  501 -0.00000000000E+00  0.00000000000E+00  0.16671202724E+03  0.16671202726E+03  0.25500000000E-02 0.  1.
          2   -1    0    0  501    0  0.00000000000E+00 -0.00000000000E+00 -0.15334620249E+04  0.15334620249E+04  0.25500000000E-02 0. -1.
    8880023    1    1    2    0    0 -0.90509370630E+02 -0.27858795185E+02 -0.54837229683E+03  0.86225891752E+03  0.65864270000E+03 0.  1.
    8880022    1    1    2    0    0  0.90509370630E+02  0.27858795185E+02 -0.81837770080E+03  0.83791513462E+03  0.15294330000E+03 0.  0.
<mgrwt>
<rscale>  0 0.47981127E+03</rscale>
<asrwt>0</asrwt>
<pdfrwt beam="1">  1        2 0.23591723E+00 0.66541586E+03</pdfrwt>
<pdfrwt beam="2">  1       -2 0.25648005E-01 0.66541586E+03</pdfrwt>
<totfact> 0.17017340E+02</totfact>
</mgrwt>
</event>
<event>
 4    1  0.3057048E-007  0.6679890E+03  0.7818608E-02  0.1017147E+00
          2   -1    0    0  501    0  0.00000000000E+00  0.00000000000E+00  0.19337107002E+04  0.19337107002E+04  0.25500000000E-02 0. -1.
         -2   -1    0    0    0  501 -0.00000000000E+00 -0.00000000000E+00 -0.19166112883E+03  0.19166112884E+03  0.25500000000E-02 0.  1.
    8880023    1    1    2    0    0  0.75103815114E+02  0.82210570131E+02  0.41825768283E+03  0.78812997430E+03  0.65864270000E+03 0.  1.
    8880022    1    1    2    0    0 -0.75103815114E+02 -0.82210570131E+02  0.13237918886E+04  0.13372418548E+04  0.15294330000E+03 0.  0.
<mgrwt>
<rscale>  0 0.48730229E+03</rscale>
<asrwt>0</asrwt>
<pdfrwt beam="1">  1        2 0.29749394E+00 0.66798905E+03</pdfrwt>
<pdfrwt beam="2">  1       -2 0.29486329E-01 0.66798905E+03</pdfrwt>
<totfact> 0.79759531E+01</totfact>
</mgrwt>
</event>
<event>
 4    1  0.3057048E-007  0.7989123E+03  0.7818608E-02  0.9713153E-01
         -2   -1    0    0    0  501 -0.00000000000E+00  0.00000000000E+00  0.81802890940E+03  0.81802890940E+03  0.25500000000E-02 0.  1.
          2   -1    0    0  501    0  0.00000000000E+00 -0.00000000000E+00 -0.61187596201E+03  0.61187596202E+03  0.25500000000E-02 0. -1.
    8880023    1    1    2    0    0 -0.35849710348E+03 -0.27555477306E+03  0.42485985058E+03  0.90485728436E+03  0.65864270000E+03 0.  0.
    8880022    1    1    2    0    0  0.35849710348E+03  0.27555477306E+03 -0.21870690320E+03  0.52504758706E+03  0.15294330000E+03 0.  0.
<mgrwt>
<rscale>  0 0.70239046E+03</rscale>
<asrwt>0</asrwt>
<pdfrwt beam="1">  1        2 0.94134763E-01 0.79891227E+03</pdfrwt>
<pdfrwt beam="2">  1       -2 0.12585060E+00 0.79891227E+03</pdfrwt>
<totfact> 0.23034800E+01</totfact>
</mgrwt>
</event>
<event>
 4    1  0.3057048E-007  0.7534381E+03  0.7818608E-02  0.9822401E-01
          2   -1    0    0  501    0  0.00000000000E+00  0.00000000000E+00  0.23435874422E+04  0.23435874422E+04  0.25500000000E-02 0. -1.
         -2   -1    0    0    0  501 -0.00000000000E+00 -0.00000000000E+00 -0.27834300035E+03  0.27834300036E+03  0.25500000000E-02 0.  1.
    8880023    1    1    2    0    0 -0.29068926807E+03  0.22216790326E+03  0.29715875640E+03  0.80992120640E+03  0.65864270000E+03 0.  1.
    8880022    1    1    2    0    0  0.29068926807E+03 -0.22216790326E+03  0.17680856855E+04  0.18120092362E+04  0.15294330000E+03 0.  0.
<mgrwt>
<rscale>  0 0.64174087E+03</rscale>
<asrwt>0</asrwt>
<pdfrwt beam="1">  1        2 0.36055191E+00 0.75343814E+03</pdfrwt>
<pdfrwt beam="2">  1       -2 0.42822001E-01 0.75343814E+03</pdfrwt>
<totfact> 0.23040086E+01</totfact>
</mgrwt>
</event>
<event>
 4    1  0.3057048E-007  0.9550475E+03  0.7818608E-02  0.9442889E-01
         -2   -1    0    0    0  501 -0.00000000000E+00  0.00000000000E+00  0.89051125235E+03  0.89051125235E+03  0.25500000000E-02 0.  1.
          2   -1    0    0  501    0  0.00000000000E+00 -0.00000000000E+00 -0.13530986904E+04  0.13530986904E+04  0.25500000000E-02 0. -1.
    8880023    1    1    2    0    0  0.10395677411E+03  0.68373866498E+03  0.47652729844E+03  0.10673303356E+04  0.65864270000E+03 0.  0.
    8880022    1    1    2    0    0 -0.10395677411E+03 -0.68373866498E+03 -0.93911473648E+03  0.11762796071E+04  0.15294330000E+03 0.  0.
<mgrwt>
<rscale>  0 0.88628613E+03</rscale>
<asrwt>0</asrwt>
<pdfrwt beam="1">  1        2 0.20816903E+00 0.95504753E+03</pdfrwt>
<pdfrwt beam="2">  1       -2 0.13700173E+00 0.95504753E+03</pdfrwt>
<totfact> 0.58329954E+00</totfact>
</mgrwt>
</event>
<event>
 4    1  0.3057048E-007  0.7272711E+03  0.7818608E-02  0.9898709E-01
         -2   -1    0    0    0  501 -0.00000000000E+00  0.00000000000E+00  0.37046852928E+03  0.37046852929E+03  0.25500000000E-02 0.  1.
          2   -1    0    0  501    0  0.00000000000E+00 -0.00000000000E+00 -0.14750539460E+04  0.14750539460E+04  0.25500000000E-02 0. -1.
    8880023    1    1    2    0    0  0.13588988461E+03  0.27685196219E+03 -0.41907335696E+02  0.72847752248E+03  0.65864270000E+03 0.  1.
    8880022    1    1    2    0    0 -0.13588988461E+03 -0.27685196219E+03 -0.10626780810E+04  0.11170449528E+04  0.15294330000E+03 0.  0.
<mgrwt>
<rscale>  0 0.60323872E+03</rscale>
<asrwt>0</asrwt>
<pdfrwt beam="1">  1        2 0.22693137E+00 0.72727112E+03</pdfrwt>
<pdfrwt beam="2">  1       -2 0.56995159E-01 0.72727112E+03</pdfrwt>
<totfact> 0.38781804E+01</totfact>
</mgrwt>
</event>
<event>
 4    1  0.3057048E-007  0.7837861E+03  0.7818608E-02  0.9747017E-01
          2   -1    0    0  501    0  0.00000000000E+00  0.00000000000E+00  0.53965872818E+03  0.53965872819E+03  0.25500000000E-02 0. -1.
         -2   -1    0    0    0  501 -0.00000000000E+00 -0.00000000000E+00 -0.20876850356E+04  0.20876850356E+04  0.25500000000E-02 0.  1.
    8880023    1    1    2    0    0 -0.33980850424E+03 -0.25503052727E+03 -0.18996759269E+04  0.20550156259E+04  0.65864270000E+03 0.  0.
    8880022    1    1    2    0    0  0.33980850424E+03  0.25503052727E+03  0.35164961952E+03  0.57232813780E+03  0.15294330000E+03 0.  0.
<mgrwt>
<rscale>  0 0.68285084E+03</rscale>
<asrwt>0</asrwt>
<pdfrwt beam="1">  1        2 0.83024421E-01 0.78378606E+03</pdfrwt>
<pdfrwt beam="2">  1       -2 0.32118231E+00 0.78378606E+03</pdfrwt>
<totfact> 0.13805696E+00</totfact>
</mgrwt>
</event>
<event>
 4    1  0.3057048E-007  0.1208106E+04  0.7818608E-02  0.9149283E-01
         -2   -1    0    0    0  501 -0.00000000000E+00  0.00000000000E+00  0.81380152763E+03  0.81380152764E+03  0.25500000000E-02 0.  1.
          2   -1    0    0  501    0  0.00000000000E+00 -0.00000000000E+00 -0.32626751754E+04  0.32626751754E+04  0.25500000000E-02 0. -1.
    8880023    1    1    2    0    0 -0.68875966516E+03 -0.74250898758E+03  0.21083271218E+03  0.12263645917E+04  0.65864270000E+03 0.  0.
    8880022    1    1    2    0    0  0.68875966516E+03  0.74250898758E+03 -0.26597063599E+04  0.28501121113E+04  0.15294330000E+03 0.  0.
<mgrwt>
<rscale>  0 0.11592601E+04</rscale>
<asrwt>0</asrwt>
<pdfrwt beam="1">  1        2 0.50195002E+00 0.12081058E+04</pdfrwt>
<pdfrwt beam="2">  1       -2 0.12520024E+00 0.12081058E+04</pdfrwt>
<totfact> 0.55812642E-01</totfact>
</mgrwt>
</event>
<event>
 4    1  0.3057048E-007  0.1426639E+04  0.7818608E-02  0.8963255E-01
          2   -1    0    0  501    0  0.00000000000E+00  0.00000000000E+00  0.22187799865E+04  0.22187799865E+04  0.25500000000E-02 0. -1.
         -2   -1    0    0    0  501 -0.00000000000E+00 -0.00000000000E+00 -0.11893542627E+04  0.11893542627E+04  0.25500000000E-02 0.  1.
    8880023    1    1    2    0    0 -0.12654919456E+04 -0.44035609364E+01 -0.41100997139E+03  0.14846644936E+04  0.65864270000E+03 0.  0.
    8880022    1    1    2    0    0  0.12654919456E+04  0.44035609364E+01  0.14404356952E+04  0.19234697556E+04  0.15294330000E+03 0.  0.
<mgrwt>
<rscale>  0 0.13870378E+04</rscale>
<asrwt>0</asrwt>
<pdfrwt beam="1">  1        2 0.34135076E+00 0.14266392E+04</pdfrwt>
<pdfrwt beam="2">  1       -2 0.18297758E+00 0.14266392E+04</pdfrwt>
<totfact> 0.82615676E-01</totfact>
</mgrwt>
</event>
<event>
 4    1  0.3057048E-007  0.6922264E+03  0.7818608E-02  0.1003112E+00
          2   -1    0    0  501    0  0.00000000000E+00  0.00000000000E+00  0.31412301903E+04  0.31412301903E+04  0.25500000000E-02 0. -1.
         -2   -1    0    0    0  501 -0.00000000000E+00 -0.00000000000E+00 -0.14623552817E+03  0.14623552819E+03  0.25500000000E-02 0.  1.
    8880023    1    1    2    0    0  0.19542592400E+03 -0.84710593549E+02  0.72508227113E+03  0.10024578209E+04  0.65864270000E+03 0.  1.
    8880022    1    1    2    0    0 -0.19542592400E+03  0.84710593549E+02  0.22699123910E+04  0.22850078977E+04  0.15294330000E+03 0.  0.
<mgrwt>
<rscale>  0 0.54306545E+03</rscale>
<asrwt>0</asrwt>
<pdfrwt beam="1">  1        2 0.48326610E+00 0.69222640E+03</pdfrwt>
<pdfrwt beam="2">  1       -2 0.22497777E-01 0.69222640E+03</pdfrwt>
<totfact> 0.26322466E+01</totfact>
</mgrwt>
</event>
<event>
 4    1  0.3057048E-007  0.1063434E+04  0.7818608E-02  0.9302904E-01
         -2   -1    0    0    0  501 -0.00000000000E+00  0.00000000000E+00  0.51683608538E+03  0.51683608539E+03  0.25500000000E-02 0.  1.
          2   -1    0    0  501    0  0.00000000000E+00 -0.00000000000E+00 -0.19876699818E+04  0.19876699818E+04  0.25500000000E-02 0. -1.
    8880023    1    1    2    0    0  0.62291000777E+03 -0.55593502347E+03 -0.12220995739E+04  0.16200056182E+04  0.65864270000E+03 0. -1.
    8880022    1    1    2    0    0 -0.62291000777E+03  0.55593502347E+03 -0.24873432252E+03  0.88450044902E+03  0.15294330000E+03 0.  0.
<mgrwt>
<rscale>  0 0.10051593E+04</rscale>
<asrwt>0</asrwt>
<pdfrwt beam="1">  1        2 0.30579538E+00 0.10634335E+04</pdfrwt>
<pdfrwt beam="2">  1       -2 0.79513245E-01 0.10634335E+04</pdfrwt>
<totfact> 0.94658782E+00</totfact>
</mgrwt>
</event>
<event>
 4    1  0.3057048E-007  0.6659111E+03  0.7818608E-02  0.1018781E+00
         -2   -1    0    0    0  501 -0.00000000000E+00  0.00000000000E+00  0.23261067665E+03  0.23261067666E+03  0.25500000000E-02 0.  1.
          2   -1    0    0  501    0  0.00000000000E+00 -0.00000000000E+00 -0.20853425001E+04  0.20853425001E+04  0.25500000000E-02 0. -1.
    8880023    1    1    2    0    0  0.64855736732E+02 -0.73628106898E+02 -0.25996758584E+03  0.71485713024E+03  0.65864270000E+03 0.  1.
    8880022    1    1    2    0    0 -0.64855736732E+02  0.73628106898E+02 -0.15927642376E+04  0.16030960465E+04  0.15294330000E+03 0.  0.
<mgrwt>
<rscale>  0 0.48129096E+03</rscale>
<asrwt>0</asrwt>
<pdfrwt beam="1">  1        2 0.32082191E+00 0.66591108E+03</pdfrwt>
<pdfrwt beam="2">  1       -2 0.35786259E-01 0.66591108E+03</pdfrwt>
<totfact> 0.45871771E+01</totfact>
</mgrwt>
</event>
<event>
 4    1  0.3667023E-007  0.1032560E+04  0.7818608E-02  0.9340146E-01
         -2   -1    0    0    0  501 -0.00000000000E+00  0.00000000000E+00  0.13620637757E+04  0.13620637757E+04  0.25500000000E-02 0.  1.
          2   -1    0    0  501    0  0.00000000000E+00 -0.00000000000E+00 -0.24112150770E+04  0.24112150770E+04  0.25500000000E-02 0. -1.
    8880023    1    1    2    0    0 -0.38890092039E+02 -0.79426588154E+03  0.10806927836E+04  0.14946831867E+04  0.65864270000E+03 0.  0.
    8880022    1    1    2    0    0  0.38890092039E+02  0.79426588154E+03 -0.21298440849E+04  0.22785956659E+04  0.15294330000E+03 0.  0.
<mgrwt>
<rscale>  0 0.97169486E+03</rscale>
<asrwt>0</asrwt>
<pdfrwt beam="1">  1        2 0.37095616E+00 0.10325604E+04</pdfrwt>
<pdfrwt beam="2">  1       -2 0.20954827E+00 0.10325604E+04</pdfrwt>
<totfact> 0.45160388E-01</totfact>
</mgrwt>
</event>
<event>
 4    1  0.3057048E-007  0.9074357E+03  0.7818608E-02  0.9514199E-01
          2   -1    0    0  501    0  0.00000000000E+00  0.00000000000E+00  0.24196923498E+04  0.24196923498E+04  0.25500000000E-02 0. -1.
         -2   -1    0    0    0  501 -0.00000000000E+00 -0.00000000000E+00 -0.41430978505E+03  0.41430978506E+03  0.25500000000E-02 0.  1.
    8880023    1    1    2    0    0  0.56569736239E+03 -0.26384829495E+03  0.21611130898E+03  0.93281495094E+03  0.65864270000E+03 0. -1.
    8880022    1    1    2    0    0 -0.56569736239E+03  0.26384829495E+03  0.17892712558E+04  0.19011871839E+04  0.15294330000E+03 0.  0.
<mgrwt>
<rscale>  0 0.83245054E+03</rscale>
<asrwt>0</asrwt>
<pdfrwt beam="1">  1        2 0.37226036E+00 0.90743575E+03</pdfrwt>
<pdfrwt beam="2">  1       -2 0.63739968E-01 0.90743575E+03</pdfrwt>
<totfact> 0.90144546E+00</totfact>
</mgrwt>
</event>
<event>
 4    1  0.3057048E-007  0.8376094E+03  0.7818608E-02  0.9634704E-01
         -2   -1    0    0    0  501 -0.00000000000E+00  0.00000000000E+00  0.73041509643E+03  0.73041509644E+03  0.25500000000E-02 0.  1.
          2   -1    0    0  501    0  0.00000000000E+00 -0.00000000000E+00 -0.92267199776E+03  0.92267199777E+03  0.25500000000E-02 0. -1.
    8880023    1    1    2    0    0 -0.41733297470E+03  0.30596169512E+03 -0.55328298990E+03  0.10038484168E+04  0.65864270000E+03 0.  0.
    8880022    1    1    2    0    0  0.41733297470E+03 -0.30596169512E+03  0.36102608857E+03  0.64923867745E+03  0.15294330000E+03 0.  0.
<mgrwt>
<rscale>  0 0.75041187E+03</rscale>
<asrwt>0</asrwt>
<pdfrwt beam="1">  1        2 0.14194954E+00 0.83760944E+03</pdfrwt>
<pdfrwt beam="2">  1       -2 0.11237155E+00 0.83760944E+03</pdfrwt>
<totfact> 0.17785637E+01</totfact>
</mgrwt>
</event>
<event>
 4    1  0.3057048E-007  0.7830597E+03  0.7818608E-02  0.9748698E-01
          2   -1    0    0  501    0  0.00000000000E+00  0.00000000000E+00  0.59704325983E+03  0.59704325983E+03  0.25500000000E-02 0. -1.
         -2   -1    0    0    0  501 -0.00000000000E+00 -0.00000000000E+00 -0.66124559771E+03  0.66124559771E+03  0.25500000000E-02 0.  1.
    8880023    1    1    2    0    0  0.27246782735E+03  0.32424302887E+03 -0.15672265777E+03  0.79858904102E+03  0.65864270000E+03 0.  0.
    8880022    1    1    2    0    0 -0.27246782735E+03 -0.32424302887E+03  0.92520319888E+02  0.45969981653E+03  0.15294330000E+03 0.  1.
<mgrwt>
<rscale>  0 0.68189888E+03</rscale>
<asrwt>0</asrwt>
<pdfrwt beam="1">  1        2 0.91852809E-01 0.78305968E+03</pdfrwt>
<pdfrwt beam="2">  1       -2 0.10173009E+00 0.78305968E+03</pdfrwt>
<totfact> 0.39959095E+01</totfact>
</mgrwt>
</event>
<event>
 4    1  0.3057048E-007  0.8953019E+03  0.7818608E-02  0.9533616E-01
         -2   -1    0    0    0  501 -0.00000000000E+00  0.00000000000E+00  0.74934891937E+03  0.74934891937E+03  0.25500000000E-02 0.  1.
          2   -1    0    0  501    0  0.00000000000E+00 -0.00000000000E+00 -0.14930835410E+04  0.14930835410E+04  0.25500000000E-02 0. -1.
    8880023    1    1    2    0    0 -0.12140064847E+03  0.59415249663E+03  0.36709821513E+03  0.96763971214E+03  0.65864270000E+03 0.  1.
    8880022    1    1    2    0    0  0.12140064847E+03 -0.59415249663E+03 -0.11108328367E+04  0.12747927482E+04  0.15294330000E+03 0.  0.
<mgrwt>
<rscale>  0 0.81850178E+03</rscale>
<asrwt>0</asrwt>
<pdfrwt beam="1">  1        2 0.22970516E+00 0.89530191E+03</pdfrwt>
<pdfrwt beam="2">  1       -2 0.11528445E+00 0.89530191E+03</pdfrwt>
<totfact> 0.75512046E+00</totfact>
</mgrwt>
</event>
<event>
 4    1  0.3057048E-007  0.7710496E+03  0.7818608E-02  0.9777298E-01
          2   -1    0    0  501    0  0.00000000000E+00  0.00000000000E+00  0.26663723112E+03  0.26663723113E+03  0.25500000000E-02 0. -1.
         -2   -1    0    0    0  501 -0.00000000000E+00 -0.00000000000E+00 -0.15479047600E+04  0.15479047600E+04  0.25500000000E-02 0.  1.
    8880023    1    1    2    0    0 -0.36189024214E+03  0.17246096453E+03 -0.11122767327E+04  0.13533946461E+04  0.65864270000E+03 0.  1.
    8880022    1    1    2    0    0  0.36189024214E+03 -0.17246096453E+03 -0.16899079616E+03  0.46114734505E+03  0.15294330000E+03 0. -1.
<mgrwt>
<rscale>  0 0.66595238E+03</rscale>
<asrwt>0</asrwt>
<pdfrwt beam="1">  1        2 0.41021113E-01 0.77104963E+03</pdfrwt>
<pdfrwt beam="2">  1       -2 0.23813919E+00 0.77104963E+03</pdfrwt>
<totfact> 0.97356141E+00</totfact>
</mgrwt>
</event>
<event>
 4    1  0.3057048E-007  0.9231995E+03  0.7818608E-02  0.9489770E-01
         -2   -1    0    0    0  501 -0.00000000000E+00  0.00000000000E+00  0.33526491584E+03  0.33526491585E+03  0.25500000000E-02 0.  1.
          2   -1    0    0  501    0  0.00000000000E+00 -0.00000000000E+00 -0.22480488379E+04  0.22480488379E+04  0.25500000000E-02 0. -1.
    8880023    1    1    2    0    0 -0.23219031538E+03  0.60380032225E+03 -0.56996871912E+03  0.10849708377E+04  0.65864270000E+03 0.  1.
    8880022    1    1    2    0    0  0.23219031538E+03 -0.60380032225E+03 -0.13428152029E+04  0.14983429160E+04  0.15294330000E+03 0. -1.
<mgrwt>
<rscale>  0 0.85042218E+03</rscale>
<asrwt>0</asrwt>
<pdfrwt beam="1">  1        2 0.34585366E+00 0.92319953E+03</pdfrwt>
<pdfrwt beam="2">  1       -2 0.51579219E-01 0.92319953E+03</pdfrwt>
<totfact> 0.17510269E+01</totfact>
</mgrwt>
</event>
<event>
 4    1  0.3057048E-007  0.1769007E+04  0.7818608E-02  0.8739877E-01
         -2   -1    0    0    0  501 -0.00000000000E+00  0.00000000000E+00  0.19158121576E+04  0.19158121576E+04  0.25500000000E-02 0.  1.
          2   -1    0    0  501    0  0.00000000000E+00 -0.00000000000E+00 -0.33110330737E+04  0.33110330737E+04  0.25500000000E-02 0. -1.
    8880023    1    1    2    0    0 -0.40083732569E+03  0.15921389439E+04  0.12102833319E+04  0.21434021853E+04  0.65864270000E+03 0.  0.
    8880022    1    1    2    0    0  0.40083732569E+03 -0.15921389439E+04 -0.26055042480E+04  0.30834430460E+04  0.15294330000E+03 0.  0.
<mgrwt>
<rscale>  0 0.17381921E+04</rscale>
<asrwt>0</asrwt>
<pdfrwt beam="1">  1        2 0.50938970E+00 0.17690074E+04</pdfrwt>
<pdfrwt beam="2">  1       -2 0.29474033E+00 0.17690074E+04</pdfrwt>
<totfact> 0.34088494E-02</totfact>
</mgrwt>
</event>
<event>
 4    1  0.3057048E-007  0.9034685E+03  0.7818608E-02  0.9520486E-01
          2   -1    0    0  501    0  0.00000000000E+00  0.00000000000E+00  0.36063781940E+04  0.36063781940E+04  0.25500000000E-02 0. -1.
         -2   -1    0    0    0  501 -0.00000000000E+00 -0.00000000000E+00 -0.45858290674E+03  0.45858290675E+03  0.25500000000E-02 0.  1.
    8880023    1    1    2    0    0  0.51080976608E+03  0.34859516041E+03  0.52721370061E+02  0.90500549838E+03  0.65864270000E+03 0.  1.
    8880022    1    1    2    0    0 -0.51080976608E+03 -0.34859516041E+03  0.30950739172E+04  0.31599556024E+04  0.15294330000E+03 0.  0.
<mgrwt>
<rscale>  0 0.82790158E+03</rscale>
<asrwt>0</asrwt>
<pdfrwt beam="1">  1        2 0.55482740E+00 0.90346854E+03</pdfrwt>
<pdfrwt beam="2">  1       -2 0.70551218E-01 0.90346854E+03</pdfrwt>
<totfact> 0.13204792E+00</totfact>
</mgrwt>
</event>
<event>
 4    1  0.3057048E-007  0.8362624E+03  0.7818608E-02  0.9637269E-01
         -2   -1    0    0    0  501 -0.00000000000E+00  0.00000000000E+00  0.43020735923E+03  0.43020735924E+03  0.25500000000E-02 0.  1.
          2   -1    0    0  501    0  0.00000000000E+00 -0.00000000000E+00 -0.19267283759E+04  0.19267283759E+04  0.25500000000E-02 0. -1.
    8880023    1    1    2    0    0  0.27813502724E+03 -0.43378039075E+03 -0.77881293930E+02  0.83988107669E+03  0.65864270000E+03 0.  1.
    8880022    1    1    2    0    0 -0.27813502724E+03  0.43378039075E+03 -0.14186397227E+04  0.15170546584E+04  0.15294330000E+03 0.  0.
<mgrwt>
<rscale>  0 0.74877855E+03</rscale>
<asrwt>0</asrwt>
<pdfrwt beam="1">  1        2 0.29641975E+00 0.83626236E+03</pdfrwt>
<pdfrwt beam="2">  1       -2 0.66185749E-01 0.83626236E+03</pdfrwt>
<totfact> 0.15734687E+01</totfact>
</mgrwt>
</event>
<event>
 4    1  0.3057048E-007  0.8483008E+03  0.7818608E-02  0.9614723E-01
          2   -1    0    0  501    0  0.00000000000E+00  0.00000000000E+00  0.13126710072E+04  0.13126710072E+04  0.25500000000E-02 0. -1.
         -2   -1    0    0    0  501 -0.00000000000E+00 -0.00000000000E+00 -0.63755268712E+03  0.63755268712E+03  0.25500000000E-02 0.  1.
    8880023    1    1    2    0    0  0.33470671824E+03 -0.41686386776E+03 -0.23805842935E+03  0.88107099233E+03  0.65864270000E+03 0.  0.
    8880022    1    1    2    0    0 -0.33470671824E+03  0.41686386776E+03  0.91317674943E+03  0.10691527020E+04  0.15294330000E+03 0.  0.
<mgrwt>
<rscale>  0 0.76329356E+03</rscale>
<asrwt>0</asrwt>
<pdfrwt beam="1">  1        2 0.20194938E+00 0.84830082E+03</pdfrwt>
<pdfrwt beam="2">  1       -2 0.98085031E-01 0.84830082E+03</pdfrwt>
<totfact> 0.14188111E+01</totfact>
</mgrwt>
</event>
<event>
 4    1  0.3057048E-007  0.1084054E+04  0.7818608E-02  0.9279021E-01
         -2   -1    0    0    0  501 -0.00000000000E+00  0.00000000000E+00  0.38721285183E+03  0.38721285184E+03  0.25500000000E-02 0.  1.
          2   -1    0    0  501    0  0.00000000000E+00 -0.00000000000E+00 -0.33378831200E+04  0.33378831200E+04  0.25500000000E-02 0. -1.
    8880023    1    1    2    0    0  0.86044385775E+03  0.31622531104E+02 -0.25345255945E+04  0.27566272530E+04  0.65864270000E+03 0. -1.
    8880022    1    1    2    0    0 -0.86044385775E+03 -0.31622531104E+02 -0.41614467366E+03  0.96846871878E+03  0.15294330000E+03 0.  0.
<mgrwt>
<rscale>  0 0.10273741E+04</rscale>
<asrwt>0</asrwt>
<pdfrwt beam="1">  1        2 0.51352046E+00 0.10840543E+04</pdfrwt>
<pdfrwt beam="2">  1       -2 0.59571210E-01 0.10840543E+04</pdfrwt>
<totfact> 0.28148202E+00</totfact>
</mgrwt>
</event>
<event>
 4    1  0.4807698E-007  0.7337085E+03  0.7818608E-02  0.9878668E-01
         -2   -1    0    0    0  501 -0.00000000000E+00  0.00000000000E+00  0.11626080399E+04  0.11626080399E+04  0.25500000000E-02 0.  1.
          2   -1    0    0  501    0  0.00000000000E+00 -0.00000000000E+00 -0.21512003576E+04  0.21512003576E+04  0.25500000000E-02 0. -1.
    8880023    1    1    2    0    0 -0.28047738852E+03 -0.16078060842E+03  0.10295398091E+04  0.12642311475E+04  0.65864270000E+03 0.  1.
    8880022    1    1    2    0    0  0.28047738852E+03  0.16078060842E+03 -0.20181321268E+04  0.20495772500E+04  0.15294330000E+03 0.  0.
<mgrwt>
<rscale>  0 0.61306365E+03</rscale>
<asrwt>0</asrwt>
<pdfrwt beam="1">  1        2 0.33095390E+00 0.73370851E+03</pdfrwt>
<pdfrwt beam="2">  1       -2 0.17886278E+00 0.73370851E+03</pdfrwt>
<totfact> 0.10647743E+00</totfact>
</mgrwt>
</event>
<event>
 4    1  0.3057048E-007  0.7654141E+03  0.7818608E-02  0.9791287E-01
         -2   -1    0    0    0  501 -0.00000000000E+00  0.00000000000E+00  0.15795298920E+03  0.15795298922E+03  0.25500000000E-02 0.  1.
          2   -1    0    0  501    0  0.00000000000E+00 -0.00000000000E+00 -0.25979552867E+04  0.25979552867E+04  0.25500000000E-02 0. -1.
    8880023    1    1    2    0    0  0.14081998216E+03  0.36361834449E+03 -0.10189272910E+04  0.12743906773E+04  0.65864270000E+03 0.  1.
    8880022    1    1    2    0    0 -0.14081998216E+03 -0.36361834449E+03 -0.14210750065E+04  0.14815175986E+04  0.15294330000E+03 0.  0.
<mgrwt>
<rscale>  0 0.65832220E+03</rscale>
<asrwt>0</asrwt>
<pdfrwt beam="1">  1        2 0.39968540E+00 0.76541412E+03</pdfrwt>
<pdfrwt beam="2">  1       -2 0.24300462E-01 0.76541412E+03</pdfrwt>
<totfact> 0.47950217E+01</totfact>
</mgrwt>
</event>
<event>
 4    1  0.3057048E-007  0.7713610E+03  0.7818608E-02  0.9776536E-01
          2   -1    0    0  501    0  0.00000000000E+00  0.00000000000E+00  0.25688692320E+04  0.25688692320E+04  0.25500000000E-02 0. -1.
         -2   -1    0    0    0  501 -0.00000000000E+00 -0.00000000000E+00 -0.53173085655E+03  0.53173085656E+03  0.25500000000E-02 0.  1.
    8880023    1    1    2    0    0  0.31625895337E+03 -0.24732127950E+03 -0.22064982080E+03  0.80229925250E+03  0.65864270000E+03 0.  1.
    8880022    1    1    2    0    0 -0.31625895337E+03  0.24732127950E+03  0.22577881963E+04  0.22983008361E+04  0.15294330000E+03 0.  0.
<mgrwt>
<rscale>  0 0.66637100E+03</rscale>
<asrwt>0</asrwt>
<pdfrwt beam="1">  1        2 0.39521065E+00 0.77136097E+03</pdfrwt>
<pdfrwt beam="2">  1       -2 0.81804748E-01 0.77136097E+03</pdfrwt>
<totfact> 0.43723448E+00</totfact>
</mgrwt>
</event>
<event>
 4    1  0.3057048E-007  0.7582253E+03  0.7818608E-02  0.9809724E-01
          2   -1    0    0  501    0  0.00000000000E+00  0.00000000000E+00  0.19474271271E+04  0.19474271271E+04  0.25500000000E-02 0. -1.
         -2   -1    0    0    0  501 -0.00000000000E+00 -0.00000000000E+00 -0.18968224400E+03  0.18968224402E+03  0.25500000000E-02 0.  1.
    8880023    1    1    2    0    0 -0.35493047085E+03 -0.12296230275E+03  0.82777211170E+03  0.11225472116E+04  0.65864270000E+03 0.  0.
    8880022    1    1    2    0    0  0.35493047085E+03  0.12296230275E+03  0.92997277139E+03  0.10145621595E+04  0.15294330000E+03 0.  0.
<mgrwt>
<rscale>  0 0.64843306E+03</rscale>
<asrwt>0</asrwt>
<pdfrwt beam="1">  1        2 0.29960418E+00 0.75822528E+03</pdfrwt>
<pdfrwt beam="2">  1       -2 0.29181883E-01 0.75822528E+03</pdfrwt>
<totfact> 0.79098422E+01</totfact>
</mgrwt>
</event>
<event>
 4    1  0.3057048E-007  0.9542102E+03  0.7818608E-02  0.9444082E-01
          2   -1    0    0  501    0  0.00000000000E+00  0.00000000000E+00  0.30754464748E+04  0.30754464748E+04  0.25500000000E-02 0. -1.
         -2   -1    0    0    0  501 -0.00000000000E+00 -0.00000000000E+00 -0.56655958710E+03  0.56655958711E+03  0.25500000000E-02 0.  1.
    8880023    1    1    2    0    0  0.46264414249E+03 -0.51251082607E+03 -0.80680053549E+02  0.95761496789E+03  0.65864270000E+03 0.  0.
    8880022    1    1    2    0    0 -0.46264414249E+03  0.51251082607E+03  0.25895669413E+04  0.26843910940E+04  0.15294330000E+03 0.  0.
<mgrwt>
<rscale>  0 0.88535003E+03</rscale>
<asrwt>0</asrwt>
<pdfrwt beam="1">  1        2 0.47314562E+00 0.95421023E+03</pdfrwt>
<pdfrwt beam="2">  1       -2 0.87163011E-01 0.95421023E+03</pdfrwt>
<totfact> 0.18283941E+00</totfact>
</mgrwt>
</event>
<event>
 4    1  0.3057048E-007  0.7151805E+03  0.7818608E-02  0.9939244E-01
          2   -1    0    0  501    0  0.00000000000E+00  0.00000000000E+00  0.88232352614E+03  0.88232352614E+03  0.25500000000E-02 0. -1.
         -2   -1    0    0    0  501 -0.00000000000E+00 -0.00000000000E+00 -0.47374617512E+03  0.47374617513E+03  0.25500000000E-02 0.  1.
    8880023    1    1    2    0    0  0.21868399143E+03 -0.17277211788E+03 -0.13361030150E+03  0.72755399233E+03  0.65864270000E+03 0.  1.
    8880022    1    1    2    0    0 -0.21868399143E+03  0.17277211788E+03  0.54218765252E+03  0.62851570894E+03  0.15294330000E+03 0.  0.
<mgrwt>
<rscale>  0 0.58396469E+03</rscale>
<asrwt>0</asrwt>
<pdfrwt beam="1">  1        2 0.13574208E+00 0.71518047E+03</pdfrwt>
<pdfrwt beam="2">  1       -2 0.72884027E-01 0.71518047E+03</pdfrwt>
<totfact> 0.52168431E+01</totfact>
</mgrwt>
</event>
<event>
 4    1  0.3057048E-007  0.1205674E+04  0.7818608E-02  0.9151627E-01
         -2   -1    0    0    0  501 -0.00000000000E+00  0.00000000000E+00  0.12432089418E+04  0.12432089418E+04  0.25500000000E-02 0.  1.
          2   -1    0    0  501    0  0.00000000000E+00 -0.00000000000E+00 -0.28460436707E+04  0.28460436707E+04  0.25500000000E-02 0. -1.
    8880023    1    1    2    0    0  0.84917862728E+03  0.54656648702E+03  0.82123166068E+03  0.14587909077E+04  0.65864270000E+03 0.  1.
    8880022    1    1    2    0    0 -0.84917862728E+03 -0.54656648702E+03 -0.24240663896E+04  0.26304617047E+04  0.15294330000E+03 0.  0.
<mgrwt>
<rscale>  0 0.11566979E+04</rscale>
<asrwt>0</asrwt>
<pdfrwt beam="1">  1        2 0.43785287E+00 0.12056739E+04</pdfrwt>
<pdfrwt beam="2">  1       -2 0.19126291E+00 0.12056739E+04</pdfrwt>
<totfact> 0.32286661E-01</totfact>
</mgrwt>
</event>
<event>
 4    1  0.3057048E-007  0.8206283E+03  0.7818608E-02  0.9667849E-01
          2   -1    0    0  501    0  0.00000000000E+00  0.00000000000E+00  0.30864374465E+04  0.30864374465E+04  0.25500000000E-02 0. -1.
         -2   -1    0    0    0  501 -0.00000000000E+00 -0.00000000000E+00 -0.26338129338E+03  0.26338129339E+03  0.25500000000E-02 0.  1.
    8880023    1    1    2    0    0  0.46975397791E+03 -0.13766581433E+03  0.47874481954E+03  0.95006709484E+03  0.65864270000E+03 0.  0.
    8880022    1    1    2    0    0 -0.46975397791E+03  0.13766581433E+03  0.23443113335E+04  0.23997516450E+04  0.15294330000E+03 0.  0.
<mgrwt>
<rscale>  0 0.72963708E+03</rscale>
<asrwt>0</asrwt>
<pdfrwt beam="1">  1        2 0.47483656E+00 0.82062835E+03</pdfrwt>
<pdfrwt beam="2">  1       -2 0.40520196E-01 0.82062835E+03</pdfrwt>
<totfact> 0.93226291E+00</totfact>
</mgrwt>
</event>
<event>
 4    1  0.3057048E-007  0.7185966E+03  0.7818608E-02  0.9927364E-01
         -2   -1    0    0    0  501 -0.00000000000E+00  0.00000000000E+00  0.18822718981E+03  0.18822718983E+03  0.25500000000E-02 0.  1.
          2   -1    0    0  501    0  0.00000000000E+00 -0.00000000000E+00 -0.14510051994E+04  0.14510051994E+04  0.25500000000E-02 0. -1.
    8880023    1    1    2    0    0  0.27573369681E+03 -0.80881065527E+02 -0.90341663322E+03  0.11543581064E+04  0.65864270000E+03 0.  0.
    8880022    1    1    2    0    0 -0.27573369681E+03  0.80881065527E+02 -0.35936137632E+03  0.48487428281E+03  0.15294330000E+03 0. -1.
<mgrwt>
<rscale>  0 0.58953265E+03</rscale>
<asrwt>0</asrwt>
<pdfrwt beam="1">  1        2 0.22323156E+00 0.71859657E+03</pdfrwt>
<pdfrwt beam="2">  1       -2 0.28958030E-01 0.71859657E+03</pdfrwt>
<totfact> 0.15083015E+02</totfact>
</mgrwt>
</event>
<event>
 4    1  0.3057048E-007  0.6813127E+03  0.7818608E-02  0.1008591E+00
          2   -1    0    0  501    0  0.00000000000E+00  0.00000000000E+00  0.10283810779E+04  0.10283810779E+04  0.25500000000E-02 0. -1.
         -2   -1    0    0    0  501 -0.00000000000E+00 -0.00000000000E+00 -0.74106805084E+03  0.74106805084E+03  0.25500000000E-02 0.  1.
    8880023    1    1    2    0    0 -0.17053684180E+03  0.35970912944E+02 -0.56565537101E+03  0.88552409679E+03  0.65864270000E+03 0.  1.
    8880022    1    1    2    0    0  0.17053684180E+03 -0.35970912944E+02  0.85296839807E+03  0.88392503195E+03  0.15294330000E+03 0.  0.
<mgrwt>
<rscale>  0 0.52038612E+03</rscale>
<asrwt>0</asrwt>
<pdfrwt beam="1">  1        2 0.15821247E+00 0.68131265E+03</pdfrwt>
<pdfrwt beam="2">  1       -2 0.11401047E+00 0.68131265E+03</pdfrwt>
<totfact> 0.14917753E+01</totfact>
</mgrwt>
</event>
<event>
 4    1  0.3057048E-007  0.1011153E+04  0.7818608E-02  0.9367109E-01
          2   -1    0    0  501    0  0.00000000000E+00  0.00000000000E+00  0.19276782446E+04  0.19276782446E+04  0.25500000000E-02 0. -1.
         -2   -1    0    0    0  501 -0.00000000000E+00 -0.00000000000E+00 -0.48823232527E+03  0.48823232527E+03  0.25500000000E-02 0.  1.
    8880023    1    1    2    0    0 -0.62416321619E+03  0.44613942838E+03  0.34048836062E+03  0.10669407856E+04  0.65864270000E+03 0.  1.
    8880022    1    1    2    0    0  0.62416321619E+03 -0.44613942838E+03  0.10989575587E+04  0.13489697842E+04  0.15294330000E+03 0.  0.
<mgrwt>
<rscale>  0 0.94832591E+03</rscale>
<asrwt>0</asrwt>
<pdfrwt beam="1">  1        2 0.29656589E+00 0.10111530E+04</pdfrwt>
<pdfrwt beam="2">  1       -2 0.75112664E-01 0.10111530E+04</pdfrwt>
<totfact> 0.11669671E+01</totfact>
</mgrwt>
</event>
<event>
 4    1  0.3057048E-007  0.1281606E+04  0.7818608E-02  0.9081609E-01
          2   -1    0    0  501    0  0.00000000000E+00  0.00000000000E+00  0.16092487268E+04  0.16092487268E+04  0.25500000000E-02 0. -1.
         -2   -1    0    0    0  501 -0.00000000000E+00 -0.00000000000E+00 -0.98614836649E+03  0.98614836649E+03  0.25500000000E-02 0.  1.
    8880023    1    1    2    0    0  0.85344564188E+02  0.10960927801E+04 -0.75549698274E+02  0.12838306121E+04  0.65864270000E+03 0.  0.
    8880022    1    1    2    0    0 -0.85344564188E+02 -0.10960927801E+04  0.69865005860E+03  0.13115664812E+04  0.15294330000E+03 0.  0.
<mgrwt>
<rscale>  0 0.12363640E+04</rscale>
<asrwt>0</asrwt>
<pdfrwt beam="1">  1        2 0.24757673E+00 0.12816057E+04</pdfrwt>
<pdfrwt beam="2">  1       -2 0.15171513E+00 0.12816057E+04</pdfrwt>
<totfact> 0.30888645E+00</totfact>
</mgrwt>
</event>
<event>
 4    1  0.3057048E-007  0.7203966E+03  0.7818608E-02  0.9921246E-01
          2   -1    0    0  501    0  0.00000000000E+00  0.00000000000E+00  0.51983671511E+03  0.51983671512E+03  0.25500000000E-02 0. -1.
         -2   -1    0    0    0  501 -0.00000000000E+00 -0.00000000000E+00 -0.10321366284E+04  0.10321366285E+04  0.25500000000E-02 0.  1.
    8880023    1    1    2    0    0  0.29181724918E+03  0.19524498571E+01 -0.82671336459E+03  0.10965520108E+04  0.65864270000E+03 0.  1.
    8880022    1    1    2    0    0 -0.29181724918E+03 -0.19524498571E+01  0.31441345125E+03  0.45542133275E+03  0.15294330000E+03 0.  0.
<mgrwt>
<rscale>  0 0.59242568E+03</rscale>
<asrwt>0</asrwt>
<pdfrwt beam="1">  1        2 0.79974880E-01 0.72039664E+03</pdfrwt>
<pdfrwt beam="2">  1       -2 0.15879025E+00 0.72039664E+03</pdfrwt>
<totfact> 0.15394045E+01</totfact>
</mgrwt>
</event>
<event>
 4    1  0.3057048E-007  0.8741899E+03  0.7818608E-02  0.9568804E-01
          2   -1    0    0  501    0  0.00000000000E+00  0.00000000000E+00  0.12201186339E+04  0.12201186339E+04  0.25500000000E-02 0. -1.
         -2   -1    0    0    0  501 -0.00000000000E+00 -0.00000000000E+00 -0.11065670766E+04  0.11065670766E+04  0.25500000000E-02 0.  1.
    8880023    1    1    2    0    0  0.36868968256E+03  0.44098256498E+03 -0.83381144153E+03  0.12080767488E+04  0.65864270000E+03 0.  1.
    8880022    1    1    2    0    0 -0.36868968256E+03 -0.44098256498E+03  0.94736299885E+03  0.11186089617E+04  0.15294330000E+03 0.  0.
<mgrwt>
<rscale>  0 0.79395780E+03</rscale>
<asrwt>0</asrwt>
<pdfrwt beam="1">  1        2 0.18771056E+00 0.87418986E+03</pdfrwt>
<pdfrwt beam="2">  1       -2 0.17024109E+00 0.87418986E+03</pdfrwt>
<totfact> 0.39352696E+00</totfact>
</mgrwt>
</event>
<event>
 4    1  0.3057048E-007  0.1058529E+04  0.7818608E-02  0.9308698E-01
          2   -1    0    0  501    0  0.00000000000E+00  0.00000000000E+00  0.23807484151E+04  0.23807484151E+04  0.25500000000E-02 0. -1.
         -2   -1    0    0    0  501 -0.00000000000E+00 -0.00000000000E+00 -0.43466564607E+03  0.43466564608E+03  0.25500000000E-02 0.  1.
    8880023    1    1    2    0    0 -0.60714214961E+03 -0.56396100639E+03  0.57109973946E+03  0.12027629547E+04  0.65864270000E+03 0.  0.
    8880022    1    1    2    0    0  0.60714214961E+03  0.56396100639E+03  0.13749830295E+04  0.16126511064E+04  0.15294330000E+03 0.  0.
<mgrwt>
<rscale>  0 0.99986042E+03</rscale>
<asrwt>0</asrwt>
<pdfrwt beam="1">  1        2 0.36626899E+00 0.10585291E+04</pdfrwt>
<pdfrwt beam="2">  1       -2 0.66871637E-01 0.10585291E+04</pdfrwt>
<totfact> 0.83905678E+00</totfact>
</mgrwt>
</event>
<event>
 4    1  0.3057048E-007  0.8653261E+03  0.7818608E-02  0.9584159E-01
          2   -1    0    0  501    0  0.00000000000E+00  0.00000000000E+00  0.16689540571E+04  0.16689540571E+04  0.25500000000E-02 0. -1.
         -2   -1    0    0    0  501 -0.00000000000E+00 -0.00000000000E+00 -0.53899923468E+03  0.53899923468E+03  0.25500000000E-02 0.  1.
    8880023    1    1    2    0    0  0.55063127297E+03 -0.10855532776E+03 -0.76383940662E+02  0.86869083719E+03  0.65864270000E+03 0.  1.
    8880022    1    1    2    0    0 -0.55063127297E+03  0.10855532776E+03  0.12063387631E+04  0.13392624546E+04  0.15294330000E+03 0.  0.
<mgrwt>
<rscale>  0 0.78353599E+03</rscale>
<asrwt>0</asrwt>
<pdfrwt beam="1">  1        2 0.25676216E+00 0.86532610E+03</pdfrwt>
<pdfrwt beam="2">  1       -2 0.82922960E-01 0.86532610E+03</pdfrwt>
<totfact> 0.13174983E+01</totfact>
</mgrwt>
</event>
<event>
 4    1  0.3057048E-007  0.6748650E+03  0.7818608E-02  0.1012392E+00
          2   -1    0    0  501    0  0.00000000000E+00  0.00000000000E+00  0.15603648219E+04  0.15603648219E+04  0.25500000000E-02 0. -1.
         -2   -1    0    0    0  501 -0.00000000000E+00 -0.00000000000E+00 -0.34689640996E+03  0.34689640997E+03  0.25500000000E-02 0.  1.
    8880023    1    1    2    0    0  0.14591454805E+03  0.18478718315E+02 -0.52330157816E+00  0.67486517059E+03  0.65864270000E+03 0.  1.
    8880022    1    1    2    0    0 -0.14591454805E+03 -0.18478718315E+02  0.12139917135E+04  0.12323960612E+04  0.15294330000E+03 0.  0.
<mgrwt>
<rscale>  0 0.50535129E+03</rscale>
<asrwt>0</asrwt>
<pdfrwt beam="1">  1        2 0.24005613E+00 0.67486497E+03</pdfrwt>
<pdfrwt beam="2">  1       -2 0.53368678E-01 0.67486497E+03</pdfrwt>
<totfact> 0.40108495E+01</totfact>
</mgrwt>
</event>
<event>
 4    1  0.3057048E-007  0.6589041E+03  0.7818608E-02  0.1025308E+00
         -2   -1    0    0    0  501 -0.00000000000E+00  0.00000000000E+00  0.27727260932E+03  0.27727260933E+03  0.25500000000E-02 0.  1.
          2   -1    0    0  501    0  0.00000000000E+00 -0.00000000000E+00 -0.17654891513E+04  0.17654891513E+04  0.25500000000E-02 0. -1.
    8880023    1    1    2    0    0  0.23947474954E+01 -0.18404091133E+02 -0.12473895248E+03  0.67060752897E+03  0.65864270000E+03 0.  1.
    8880022    1    1    2    0    0 -0.23947474954E+01  0.18404091133E+02 -0.13634775895E+04  0.13721542317E+04  0.15294330000E+03 0.  0.
<mgrwt>
<rscale>  0 0.45818708E+03</rscale>
<asrwt>0</asrwt>
<pdfrwt beam="1">  1        2 0.27161371E+00 0.65890413E+03</pdfrwt>
<pdfrwt beam="2">  1       -2 0.42657326E-01 0.65890413E+03</pdfrwt>
<totfact> 0.48740807E+01</totfact>
</mgrwt>
</event>
<event>
 4    1  0.3057048E-007  0.8535391E+03  0.7818608E-02  0.9605161E-01
         -2   -1    0    0    0  501 -0.00000000000E+00  0.00000000000E+00  0.44954153706E+03  0.44954153707E+03  0.25500000000E-02 0.  1.
          2   -1    0    0  501    0  0.00000000000E+00 -0.00000000000E+00 -0.31464767543E+04  0.31464767543E+04  0.25500000000E-02 0. -1.
    8880023    1    1    2    0    0 -0.47357118270E+03 -0.26542238729E+03 -0.13183437789E+02  0.85364086011E+03  0.65864270000E+03 0.  1.
    8880022    1    1    2    0    0  0.47357118270E+03  0.26542238729E+03 -0.26837517794E+04  0.27423774312E+04  0.15294330000E+03 0.  0.
<mgrwt>
<rscale>  0 0.76955520E+03</rscale>
<asrwt>0</asrwt>
<pdfrwt beam="1">  1        2 0.48407333E+00 0.85353905E+03</pdfrwt>
<pdfrwt beam="2">  1       -2 0.69160239E-01 0.85353905E+03</pdfrwt>
<totfact> 0.28183458E+00</totfact>
</mgrwt>
</event>
<event>
 4    1  0.3057048E-007  0.6850677E+03  0.7818608E-02  0.1006591E+00
         -2   -1    0    0    0  501 -0.00000000000E+00  0.00000000000E+00  0.61818091523E+03  0.61818091524E+03  0.25500000000E-02 0.  1.
          2   -1    0    0  501    0  0.00000000000E+00 -0.00000000000E+00 -0.80883886470E+03  0.80883886471E+03  0.25500000000E-02 0. -1.
    8880023    1    1    2    0    0  0.11906505230E+03 -0.14605154848E+03  0.39660235340E+03  0.79158775539E+03  0.65864270000E+03 0.  1.
    8880022    1    1    2    0    0 -0.11906505230E+03  0.14605154848E+03 -0.58726030287E+03  0.63543202456E+03  0.15294330000E+03 0.  0.
<mgrwt>
<rscale>  0 0.52852287E+03</rscale>
<asrwt>0</asrwt>
<pdfrwt beam="1">  1        2 0.12443675E+00 0.68506770E+03</pdfrwt>
<pdfrwt beam="2">  1       -2 0.95104756E-01 0.68506770E+03</pdfrwt>
<totfact> 0.32194277E+01</totfact>
</mgrwt>
</event>
<event>
 4    1  0.3057048E-007  0.6676750E+03  0.7818608E-02  0.1017387E+00
          2   -1    0    0  501    0  0.00000000000E+00  0.00000000000E+00  0.68383630030E+03  0.68383630031E+03  0.25500000000E-02 0. -1.
         -2   -1    0    0    0  501 -0.00000000000E+00 -0.00000000000E+00 -0.43232831506E+03  0.43232831507E+03  0.25500000000E-02 0.  1.
    8880023    1    1    2    0    0  0.10342031449E+02 -0.10896199983E+03 -0.13966675781E+03  0.68212658981E+03  0.65864270000E+03 0.  1.
    8880022    1    1    2    0    0 -0.10342031449E+02  0.10896199983E+03  0.39117474305E+03  0.43403802557E+03  0.15294330000E+03 0.  0.
<mgrwt>
<rscale>  0 0.48641308E+03</rscale>
<asrwt>0</asrwt>
<pdfrwt beam="1">  1        2 0.10520558E+00 0.66767498E+03</pdfrwt>
<pdfrwt beam="2">  1       -2 0.66512049E-01 0.66767498E+03</pdfrwt>
<totfact> 0.89216660E+01</totfact>
</mgrwt>
</event>
<event>
 4    1  0.3057048E-007  0.8050488E+03  0.7818608E-02  0.9699984E-01
          2   -1    0    0  501    0  0.00000000000E+00  0.00000000000E+00  0.19973317037E+04  0.19973317037E+04  0.25500000000E-02 0. -1.
         -2   -1    0    0    0  501 -0.00000000000E+00 -0.00000000000E+00 -0.60579482193E+03  0.60579482194E+03  0.25500000000E-02 0.  1.
    8880023    1    1    2    0    0  0.24027389971E+03  0.39567898630E+03  0.17969582464E+04  0.19690511808E+04  0.65864270000E+03 0. -1.
    8880022    1    1    2    0    0 -0.24027389971E+03 -0.39567898630E+03 -0.40542136459E+03  0.63407534486E+03  0.15294330000E+03 0.  0.
<mgrwt>
<rscale>  0 0.71017749E+03</rscale>
<asrwt>0</asrwt>
<pdfrwt beam="1">  1        2 0.30728180E+00 0.80504883E+03</pdfrwt>
<pdfrwt beam="2">  1       -2 0.93199204E-01 0.80504883E+03</pdfrwt>
<totfact> 0.67104414E+00</totfact>
</mgrwt>
</event>
<event>
 4    1  0.3057048E-007  0.9411601E+03  0.7818608E-02  0.9462948E-01
         -2   -1    0    0    0  501 -0.00000000000E+00  0.00000000000E+00  0.58907834930E+03  0.58907834931E+03  0.25500000000E-02 0.  1.
          2   -1    0    0  501    0  0.00000000000E+00 -0.00000000000E+00 -0.26361560945E+04  0.26361560945E+04  0.25500000000E-02 0. -1.
    8880023    1    1    2    0    0  0.72938906846E+02 -0.66832032770E+03  0.12216743462E+03  0.94905596932E+03  0.65864270000E+03 0.  0.
    8880022    1    1    2    0    0 -0.72938906846E+02  0.66832032770E+03 -0.21692451798E+04  0.22761784745E+04  0.15294330000E+03 0. -1.
<mgrwt>
<rscale>  0 0.87071474E+03</rscale>
<asrwt>0</asrwt>
<pdfrwt beam="1">  1        2 0.40556247E+00 0.94116011E+03</pdfrwt>
<pdfrwt beam="2">  1       -2 0.90627440E-01 0.94116011E+03</pdfrwt>
<totfact> 0.30762491E+00</totfact>
</mgrwt>
</event>
<event>
 4    1  0.3057048E-007  0.7459441E+03  0.7818608E-02  0.9842959E-01
          2   -1    0    0  501    0  0.00000000000E+00  0.00000000000E+00  0.21563877039E+03  0.21563877040E+03  0.25500000000E-02 0. -1.
         -2   -1    0    0    0  501 -0.00000000000E+00 -0.00000000000E+00 -0.20710240698E+04  0.20710240698E+04  0.25500000000E-02 0.  1.
    8880023    1    1    2    0    0 -0.28224454581E+03  0.20726881991E+03 -0.17308758767E+04  0.18847715655E+04  0.65864270000E+03 0.  1.
    8880022    1    1    2    0    0  0.28224454581E+03 -0.20726881991E+03 -0.12450942278E+03  0.40189127475E+03  0.15294330000E+03 0.  0.
<mgrwt>
<rscale>  0 0.63107215E+03</rscale>
<asrwt>0</asrwt>
<pdfrwt beam="1">  1        2 0.33175197E-01 0.74594407E+03</pdfrwt>
<pdfrwt beam="2">  1       -2 0.31861907E+00 0.74594407E+03</pdfrwt>
<totfact> 0.40497317E+00</totfact>
</mgrwt>
</event>
<event>
 4    1  0.3057048E-007  0.7093198E+03  0.7818608E-02  0.9960535E-01
         -2   -1    0    0    0  501 -0.00000000000E+00  0.00000000000E+00  0.30189685731E+03  0.30189685732E+03  0.25500000000E-02 0.  1.
          2   -1    0    0  501    0  0.00000000000E+00 -0.00000000000E+00 -0.89517335747E+03  0.89517335748E+03  0.25500000000E-02 0. -1.
    8880023    1    1    2    0    0  0.12120859456E+03 -0.23373675974E+03 -0.28697912507E+03  0.76517424208E+03  0.65864270000E+03 0. -1.
    8880022    1    1    2    0    0 -0.12120859456E+03  0.23373675974E+03 -0.30629737509E+03  0.43189597272E+03  0.15294330000E+03 0.  1.
<mgrwt>
<rscale>  0 0.57415075E+03</rscale>
<asrwt>0</asrwt>
<pdfrwt beam="1">  1        2 0.13771898E+00 0.70931982E+03</pdfrwt>
<pdfrwt beam="2">  1       -2 0.46445671E-01 0.70931982E+03</pdfrwt>
<totfact> 0.13172706E+02</totfact>
</mgrwt>
</event>
<event>
 4    1  0.3057048E-007  0.6767619E+03  0.7818608E-02  0.1011218E+00
          2   -1    0    0  501    0  0.00000000000E+00  0.00000000000E+00  0.15730102951E+04  0.15730102951E+04  0.25500000000E-02 0. -1.
         -2   -1    0    0    0  501 -0.00000000000E+00 -0.00000000000E+00 -0.12785417568E+03  0.12785417571E+03  0.25500000000E-02 0.  1.
    8880023    1    1    2    0    0  0.92039076167E+02 -0.12540027250E+03  0.11401250294E+04  0.13258550859E+04  0.65864270000E+03 0.  0.
    8880022    1    1    2    0    0 -0.92039076167E+02  0.12540027250E+03  0.30503109010E+03  0.37500938498E+03  0.15294330000E+03 0. -1.
<mgrwt>
<rscale>  0 0.50993424E+03</rscale>
<asrwt>0</asrwt>
<pdfrwt beam="1">  1        2 0.24200159E+00 0.67676187E+03</pdfrwt>
<pdfrwt beam="2">  1       -2 0.19669872E-01 0.67676187E+03</pdfrwt>
<totfact> 0.25892641E+02</totfact>
</mgrwt>
</event>
<event>
 4    1  0.3057048E-007  0.7059967E+03  0.7818608E-02  0.9973178E-01
         -2   -1    0    0    0  501 -0.00000000000E+00  0.00000000000E+00  0.84811427474E+03  0.84811427474E+03  0.25500000000E-02 0.  1.
          2   -1    0    0  501    0  0.00000000000E+00 -0.00000000000E+00 -0.77898764444E+03  0.77898764444E+03  0.25500000000E-02 0. -1.
    8880023    1    1    2    0    0 -0.25420289702E+03 -0.14239813029E+01  0.65967026180E+03  0.96622782051E+03  0.65864270000E+03 0.  1.
    8880022    1    1    2    0    0  0.25420289702E+03  0.14239813029E+01 -0.59054363149E+03  0.66087409867E+03  0.15294330000E+03 0.  0.
<mgrwt>
<rscale>  0 0.56842115E+03</rscale>
<asrwt>0</asrwt>
<pdfrwt beam="1">  1        2 0.11984425E+00 0.70599670E+03</pdfrwt>
<pdfrwt beam="2">  1       -2 0.13047912E+00 0.70599670E+03</pdfrwt>
<totfact> 0.15654043E+01</totfact>
</mgrwt>
</event>
<event>
 4    1  0.3057048E-007  0.1038339E+04  0.7818608E-02  0.9333033E-01
          2   -1    0    0  501    0  0.00000000000E+00  0.00000000000E+00  0.21691888538E+04  0.21691888538E+04  0.25500000000E-02 0. -1.
         -2   -1    0    0    0  501 -0.00000000000E+00 -0.00000000000E+00 -0.44158889851E+03  0.44158889851E+03  0.25500000000E-02 0.  1.
    8880023    1    1    2    0    0 -0.77581373766E+03 -0.20603411653E+03  0.54319570715E+03  0.11718399188E+04  0.65864270000E+03 0.  0.
    8880022    1    1    2    0    0  0.77581373766E+03  0.20603411653E+03  0.11844042481E+04  0.14389378335E+04  0.15294330000E+03 0.  0.
<mgrwt>
<rscale>  0 0.97797843E+03</rscale>
<asrwt>0</asrwt>
<pdfrwt beam="1">  1        2 0.33372136E+00 0.10383387E+04</pdfrwt>
<pdfrwt beam="2">  1       -2 0.67936754E-01 0.10383387E+04</pdfrwt>
<totfact> 0.10675487E+01</totfact>
</mgrwt>
</event>
<event>
 4    1  0.3057048E-007  0.1311402E+04  0.7818608E-02  0.9055775E-01
         -2   -1    0    0    0  501 -0.00000000000E+00  0.00000000000E+00  0.14809336111E+04  0.14809336111E+04  0.25500000000E-02 0.  1.
          2   -1    0    0  501    0  0.00000000000E+00 -0.00000000000E+00 -0.15105807099E+04  0.15105807099E+04  0.25500000000E-02 0. -1.
    8880023    1    1    2    0    0  0.94902780976E+03  0.62073522627E+03  0.83730384624E+03  0.15559093618E+04  0.65864270000E+03 0.  1.
    8880022    1    1    2    0    0 -0.94902780976E+03 -0.62073522627E+03 -0.86695094503E+03  0.14356049592E+04  0.15294330000E+03 0.  0.
<mgrwt>
<rscale>  0 0.12674600E+04</rscale>
<asrwt>0</asrwt>
<pdfrwt beam="1">  1        2 0.23239703E+00 0.13114024E+04</pdfrwt>
<pdfrwt beam="2">  1       -2 0.22783594E+00 0.13114024E+04</pdfrwt>
<totfact> 0.10586937E+00</totfact>
</mgrwt>
</event>
<event>
 4    1  0.3057048E-007  0.8153046E+03  0.7818608E-02  0.9678632E-01
          2   -1    0    0  501    0  0.00000000000E+00  0.00000000000E+00  0.54363553601E+03  0.54363553602E+03  0.25500000000E-02 0. -1.
         -2   -1    0    0    0  501 -0.00000000000E+00 -0.00000000000E+00 -0.13261243790E+04  0.13261243790E+04  0.25500000000E-02 0.  1.
    8880023    1    1    2    0    0  0.42444207025E+03  0.22530043771E+03 -0.10253954559E+04  0.13100219103E+04  0.65864270000E+03 0.  0.
    8880022    1    1    2    0    0 -0.42444207025E+03 -0.22530043771E+03  0.24290661297E+03  0.55973800467E+03  0.15294330000E+03 0.  0.
<mgrwt>
<rscale>  0 0.72303422E+03</rscale>
<asrwt>0</asrwt>
<pdfrwt beam="1">  1        2 0.83636237E-01 0.81530458E+03</pdfrwt>
<pdfrwt beam="2">  1       -2 0.20401913E+00 0.81530458E+03</pdfrwt>
<totfact> 0.70780581E+00</totfact>
</mgrwt>
</event>
<event>
 4    1  0.3057048E-007  0.8068531E+03  0.7818608E-02  0.9696170E-01
         -2   -1    0    0    0  501 -0.00000000000E+00  0.00000000000E+00  0.57781601893E+03  0.57781601894E+03  0.25500000000E-02 0.  1.
          2   -1    0    0  501    0  0.00000000000E+00 -0.00000000000E+00 -0.95814108371E+03  0.95814108372E+03  0.25500000000E-02 0. -1.
    8880023    1    1    2    0    0  0.10805480202E+03 -0.45334957480E+03  0.14219143590E+03  0.81928645046E+03  0.65864270000E+03 0.  0.
    8880022    1    1    2    0    0 -0.10805480202E+03  0.45334957480E+03 -0.52251650068E+03  0.71667065219E+03  0.15294330000E+03 0.  0.
<mgrwt>
<rscale>  0 0.71245312E+03</rscale>
<asrwt>0</asrwt>
<pdfrwt beam="1">  1        2 0.14740632E+00 0.80685307E+03</pdfrwt>
<pdfrwt beam="2">  1       -2 0.88894772E-01 0.80685307E+03</pdfrwt>
<totfact> 0.29463146E+01</totfact>
</mgrwt>
</event>
<event>
 4    1  0.3057048E-007  0.9096665E+03  0.7818608E-02  0.9510689E-01
          2   -1    0    0  501    0  0.00000000000E+00  0.00000000000E+00  0.14920504727E+04  0.14920504727E+04  0.25500000000E-02 0. -1.
         -2   -1    0    0    0  501 -0.00000000000E+00 -0.00000000000E+00 -0.59892208128E+03  0.59892208129E+03  0.25500000000E-02 0.  1.
    8880023    1    1    2    0    0  0.39186428357E+03 -0.49002580466E+03 -0.90634073247E+02  0.91417046959E+03  0.65864270000E+03 0.  1.
    8880022    1    1    2    0    0 -0.39186428357E+03  0.49002580466E+03  0.98376246470E+03  0.11768020844E+04  0.15294330000E+03 0.  0.
<mgrwt>
<rscale>  0 0.83500362E+03</rscale>
<asrwt>0</asrwt>
<pdfrwt beam="1">  1        2 0.22954622E+00 0.90966648E+03</pdfrwt>
<pdfrwt beam="2">  1       -2 0.92141860E-01 0.90966648E+03</pdfrwt>
<totfact> 0.12903062E+01</totfact>
</mgrwt>
</event>
<event>
 4    1  0.3057048E-007  0.6762264E+03  0.7818608E-02  0.1011544E+00
         -2   -1    0    0    0  501 -0.00000000000E+00  0.00000000000E+00  0.41532368677E+03  0.41532368678E+03  0.25500000000E-02 0.  1.
          2   -1    0    0  501    0  0.00000000000E+00 -0.00000000000E+00 -0.57110119993E+03  0.57110119994E+03  0.25500000000E-02 0. -1.
    8880023    1    1    2    0    0 -0.11600215536E+03 -0.10007705636E+03  0.62367547288E+02  0.67909633667E+03  0.65864270000E+03 0.  0.
    8880022    1    1    2    0    0  0.11600215536E+03  0.10007705636E+03 -0.21814506045E+03  0.30732855004E+03  0.15294330000E+03 0.  0.
<mgrwt>
<rscale>  0 0.50865522E+03</rscale>
<asrwt>0</asrwt>
<pdfrwt beam="1">  1        2 0.87861723E-01 0.67622638E+03</pdfrwt>
<pdfrwt beam="2">  1       -2 0.63895952E-01 0.67622638E+03</pdfrwt>
<totfact> 0.12101762E+02</totfact>
</mgrwt>
</event>
<event>
 4    1  0.3057048E-007  0.6684037E+03  0.7818608E-02  0.1016834E+00
          2   -1    0    0  501    0  0.00000000000E+00  0.00000000000E+00  0.11452990045E+04  0.11452990045E+04  0.25500000000E-02 0. -1.
         -2   -1    0    0    0  501 -0.00000000000E+00 -0.00000000000E+00 -0.17611463557E+03  0.17611463559E+03  0.25500000000E-02 0.  1.
    8880023    1    1    2    0    0 -0.11301633127E+03 -0.13436988054E+02  0.89454463073E+03  0.11166796973E+04  0.65864270000E+03 0. -1.
    8880022    1    1    2    0    0  0.11301633127E+03  0.13436988054E+02  0.74639738169E+02  0.20473394274E+03  0.15294330000E+03 0.  0.
<mgrwt>
<rscale>  0 0.48846623E+03</rscale>
<asrwt>0</asrwt>
<pdfrwt beam="1">  1        2 0.17619985E+00 0.66840366E+03</pdfrwt>
<pdfrwt beam="2">  1       -2 0.27094559E-01 0.66840366E+03</pdfrwt>
<totfact> 0.25671458E+02</totfact>
</mgrwt>
</event>
<event>
 4    1  0.3057048E-007  0.1024873E+04  0.7818608E-02  0.9349717E-01
          2   -1    0    0  501    0  0.00000000000E+00  0.00000000000E+00  0.30781292870E+04  0.30781292870E+04  0.25500000000E-02 0. -1.
         -2   -1    0    0    0  501 -0.00000000000E+00 -0.00000000000E+00 -0.30492154893E+03  0.30492154894E+03  0.25500000000E-02 0.  1.
    8880023    1    1    2    0    0  0.30208495011E+03 -0.72477453279E+03  0.97336365081E+03  0.14134356878E+04  0.65864270000E+03 0.  0.
    8880022    1    1    2    0    0 -0.30208495011E+03  0.72477453279E+03  0.17998440873E+04  0.19696151482E+04  0.15294330000E+03 0.  0.
<mgrwt>
<rscale>  0 0.96331921E+03</rscale>
<asrwt>0</asrwt>
<pdfrwt beam="1">  1        2 0.47355835E+00 0.10248725E+04</pdfrwt>
<pdfrwt beam="2">  1       -2 0.46911007E-01 0.10248725E+04</pdfrwt>
<totfact> 0.68386293E+00</totfact>
</mgrwt>
</event>
<event>
 4    1  0.3057048E-007  0.7627087E+03  0.7818608E-02  0.9798145E-01
         -2   -1    0    0    0  501 -0.00000000000E+00  0.00000000000E+00  0.60443721860E+03  0.60443721861E+03  0.25500000000E-02 0.  1.
          2   -1    0    0  501    0  0.00000000000E+00 -0.00000000000E+00 -0.97457002093E+03  0.97457002093E+03  0.25500000000E-02 0. -1.
    8880023    1    1    2    0    0  0.23747526263E+03  0.30252257211E+03  0.27647992651E+03  0.81127416021E+03  0.65864270000E+03 0.  1.
    8880022    1    1    2    0    0 -0.23747526263E+03 -0.30252257211E+03 -0.64661272884E+03  0.76773307933E+03  0.15294330000E+03 0.  0.
<mgrwt>
<rscale>  0 0.65462205E+03</rscale>
<asrwt>0</asrwt>
<pdfrwt beam="1">  1        2 0.14993385E+00 0.76270873E+03</pdfrwt>
<pdfrwt beam="2">  1       -2 0.92990342E-01 0.76270873E+03</pdfrwt>
<totfact> 0.26007803E+01</totfact>
</mgrwt>
</event>
<event>
 4    1  0.3057048E-007  0.8644227E+03  0.7818608E-02  0.9585744E-01
         -2   -1    0    0    0  501 -0.00000000000E+00  0.00000000000E+00  0.28887915475E+03  0.28887915476E+03  0.25500000000E-02 0.  1.
          2   -1    0    0  501    0  0.00000000000E+00 -0.00000000000E+00 -0.25147922417E+04  0.25147922417E+04  0.25500000000E-02 0. -1.
    8880023    1    1    2    0    0  0.57592241332E+02  0.55686580616E+03 -0.53655487444E+03  0.10174073579E+04  0.65864270000E+03 0.  0.
    8880022    1    1    2    0    0 -0.57592241332E+02 -0.55686580616E+03 -0.16893582125E+04  0.17862640386E+04  0.15294330000E+03 0.  0.
<mgrwt>
<rscale>  0 0.78246952E+03</rscale>
<asrwt>0</asrwt>
<pdfrwt beam="1">  1        2 0.38689110E+00 0.86442270E+03</pdfrwt>
<pdfrwt beam="2">  1       -2 0.44442948E-01 0.86442270E+03</pdfrwt>
<totfact> 0.16872555E+01</totfact>
</mgrwt>
</event>
<event>
 4    1  0.3057048E-007  0.7359743E+03  0.7818608E-02  0.9871832E-01
         -2   -1    0    0    0  501 -0.00000000000E+00  0.00000000000E+00  0.15603131355E+04  0.15603131355E+04  0.25500000000E-02 0.  1.
          2   -1    0    0  501    0  0.00000000000E+00 -0.00000000000E+00 -0.28393974216E+03  0.28393974217E+03  0.25500000000E-02 0. -1.
    8880023    1    1    2    0    0 -0.32695821455E+03  0.30762977160E+02  0.12861657271E+04  0.14818503699E+04  0.65864270000E+03 0.  0.
    8880022    1    1    2    0    0  0.32695821455E+03 -0.30762977160E+02 -0.97923338082E+01  0.36240250778E+03  0.15294330000E+03 0.  0.
<mgrwt>
<rscale>  0 0.61646036E+03</rscale>
<asrwt>0</asrwt>
<pdfrwt beam="1">  1        2 0.43683036E-01 0.73597435E+03</pdfrwt>
<pdfrwt beam="2">  1       -2 0.24004818E+00 0.73597435E+03</pdfrwt>
<totfact> 0.88697379E+00</totfact>
</mgrwt>
</event>
<event>
 4    1  0.3057048E-007  0.1037837E+04  0.7818608E-02  0.9333648E-01
          2   -1    0    0  501    0  0.00000000000E+00  0.00000000000E+00  0.96031573241E+03  0.96031573241E+03  0.25500000000E-02 0. -1.
         -2   -1    0    0    0  501 -0.00000000000E+00 -0.00000000000E+00 -0.13263670854E+04  0.13263670854E+04  0.25500000000E-02 0.  1.
    8880023    1    1    2    0    0  0.22765642266E+03 -0.76906893365E+03  0.45098842485E+03  0.11315896947E+04  0.65864270000E+03 0.  0.
    8880022    1    1    2    0    0 -0.22765642266E+03  0.76906893365E+03 -0.81703977780E+03  0.11550931231E+04  0.15294330000E+03 0.  0.
<mgrwt>
<rscale>  0 0.97743277E+03</rscale>
<asrwt>0</asrwt>
<pdfrwt beam="1">  1        2 0.14774088E+00 0.10378365E+04</pdfrwt>
<pdfrwt beam="2">  1       -2 0.20405648E+00 0.10378365E+04</pdfrwt>
<totfact> 0.33056876E+00</totfact>
</mgrwt>
</event>
<event>
 4    1  0.3057048E-007  0.9932097E+03  0.7818608E-02  0.9390496E-01
         -2   -1    0    0    0  501 -0.00000000000E+00  0.00000000000E+00  0.75208202898E+03  0.75208202898E+03  0.25500000000E-02 0.  1.
          2   -1    0    0  501    0  0.00000000000E+00 -0.00000000000E+00 -0.12901916817E+04  0.12901916817E+04  0.25500000000E-02 0. -1.
    8880023    1    1    2    0    0 -0.17112995507E+03 -0.72344301242E+03 -0.76101196718E+03  0.12512412534E+04  0.65864270000E+03 0.  0.
    8880022    1    1    2    0    0  0.17112995507E+03  0.72344301242E+03  0.22290231444E+03  0.79103245732E+03  0.15294330000E+03 0.  0.
<mgrwt>
<rscale>  0 0.92861980E+03</rscale>
<asrwt>0</asrwt>
<pdfrwt beam="1">  1        2 0.19849103E+00 0.99320968E+03</pdfrwt>
<pdfrwt beam="2">  1       -2 0.11570493E+00 0.99320968E+03</pdfrwt>
<totfact> 0.96712444E+00</totfact>
</mgrwt>
</event>
<event>
 4    1  0.3057048E-007  0.7277534E+03  0.7818608E-02  0.9897174E-01
         -2   -1    0    0    0  501 -0.00000000000E+00  0.00000000000E+00  0.25894452974E+03  0.25894452976E+03  0.25500000000E-02 0.  1.
          2   -1    0    0  501    0  0.00000000000E+00 -0.00000000000E+00 -0.20878415497E+04  0.20878415497E+04  0.25500000000E-02 0. -1.
    8880023    1    1    2    0    0 -0.51640039801E+02 -0.30520182623E+03 -0.31324314320E+03  0.79230443737E+03  0.65864270000E+03 0.  1.
    8880022    1    1    2    0    0  0.51640039801E+02  0.30520182623E+03 -0.15156538768E+04  0.15544816421E+04  0.15294330000E+03 0.  0.
<mgrwt>
<rscale>  0 0.60398435E+03</rscale>
<asrwt>0</asrwt>
<pdfrwt beam="1">  1        2 0.32120638E+00 0.72775343E+03</pdfrwt>
<pdfrwt beam="2">  1       -2 0.39837621E-01 0.72775343E+03</pdfrwt>
<totfact> 0.36872770E+01</totfact>
</mgrwt>
</event>
<event>
 4    1  0.3057048E-007  0.7055919E+03  0.7818608E-02  0.9974749E-01
         -2   -1    0    0    0  501 -0.00000000000E+00  0.00000000000E+00  0.74457567047E+03  0.74457567047E+03  0.25500000000E-02 0.  1.
          2   -1    0    0  501    0  0.00000000000E+00 -0.00000000000E+00 -0.86830846377E+03  0.86830846377E+03  0.25500000000E-02 0. -1.
    8880023    1    1    2    0    0  0.16160532069E+03 -0.19476511753E+03  0.53851657198E+03  0.88761480116E+03  0.65864270000E+03 0.  1.
    8880022    1    1    2    0    0 -0.16160532069E+03  0.19476511753E+03 -0.66224936528E+03  0.72526933309E+03  0.15294330000E+03 0.  0.
<mgrwt>
<rscale>  0 0.56771428E+03</rscale>
<asrwt>0</asrwt>
<pdfrwt beam="1">  1        2 0.13358592E+00 0.70559191E+03</pdfrwt>
<pdfrwt beam="2">  1       -2 0.11455010E+00 0.70559191E+03</pdfrwt>
<totfact> 0.18715659E+01</totfact>
</mgrwt>
</event>
<event>
 4    1  0.3057048E-007  0.7394883E+03  0.7818608E-02  0.9861440E-01
          2   -1    0    0  501    0  0.00000000000E+00  0.00000000000E+00  0.35861274665E+04  0.35861274665E+04  0.25500000000E-02 0. -1.
         -2   -1    0    0    0  501 -0.00000000000E+00 -0.00000000000E+00 -0.22169907148E+03  0.22169907150E+03  0.25500000000E-02 0.  1.
    8880023    1    1    2    0    0  0.27632392538E+03 -0.19151446738E+03  0.44067526381E+03  0.86083540666E+03  0.65864270000E+03 0.  0.
    8880022    1    1    2    0    0 -0.27632392538E+03  0.19151446738E+03  0.29237531312E+04  0.29469911313E+04  0.15294330000E+03 0.  0.
<mgrwt>
<rscale>  0 0.62167007E+03</rscale>
<asrwt>0</asrwt>
<pdfrwt beam="1">  1        2 0.55171190E+00 0.73948828E+03</pdfrwt>
<pdfrwt beam="2">  1       -2 0.34107551E-01 0.73948828E+03</pdfrwt>
<totfact> 0.61862042E+00</totfact>
</mgrwt>
</event>
<event>
 4    1  0.3057048E-007  0.7424508E+03  0.7818608E-02  0.9852865E-01
          2   -1    0    0  501    0  0.00000000000E+00  0.00000000000E+00  0.34866252905E+04  0.34866252905E+04  0.25500000000E-02 0. -1.
         -2   -1    0    0    0  501 -0.00000000000E+00 -0.00000000000E+00 -0.10317837533E+03  0.10317837537E+03  0.25500000000E-02 0.  1.
    8880023    1    1    2    0    0 -0.25724896753E+03 -0.22637552808E+03  0.15537862661E+04  0.17220583260E+04  0.65864270000E+03 0.  0.
    8880022    1    1    2    0    0  0.25724896753E+03  0.22637552808E+03  0.18296606490E+04  0.18677453399E+04  0.15294330000E+03 0.  0.
<mgrwt>
<rscale>  0 0.62601060E+03</rscale>
<asrwt>0</asrwt>
<pdfrwt beam="1">  1        2 0.53640387E+00 0.74245075E+03</pdfrwt>
<pdfrwt beam="2">  1       -2 0.15873597E-01 0.74245075E+03</pdfrwt>
<totfact> 0.28464031E+01</totfact>
</mgrwt>
</event>
<event>
 4    1  0.3057048E-007  0.7781210E+03  0.7818608E-02  0.9760269E-01
          2   -1    0    0  501    0  0.00000000000E+00  0.00000000000E+00  0.20422480425E+04  0.20422480425E+04  0.25500000000E-02 0. -1.
         -2   -1    0    0    0  501 -0.00000000000E+00 -0.00000000000E+00 -0.50957680390E+03  0.50957680391E+03  0.25500000000E-02 0.  1.
    8880023    1    1    2    0    0  0.90488366938E+02  0.40431919530E+03 -0.16689035845E+03  0.79581703566E+03  0.65864270000E+03 0.  0.
    8880022    1    1    2    0    0 -0.90488366938E+02 -0.40431919530E+03  0.16995615971E+04  0.17560078108E+04  0.15294330000E+03 0. -1.
<mgrwt>
<rscale>  0 0.67539008E+03</rscale>
<asrwt>0</asrwt>
<pdfrwt beam="1">  1        2 0.31419201E+00 0.77812105E+03</pdfrwt>
<pdfrwt beam="2">  1       -2 0.78396431E-01 0.77812105E+03</pdfrwt>
<totfact> 0.94493701E+00</totfact>
</mgrwt>
</event>
<event>
 4    1  0.3057048E-007  0.8492097E+03  0.7818608E-02  0.9613053E-01
         -2   -1    0    0    0  501 -0.00000000000E+00  0.00000000000E+00  0.49012000597E+03  0.49012000597E+03  0.25500000000E-02 0.  1.
          2   -1    0    0  501    0  0.00000000000E+00 -0.00000000000E+00 -0.10183580243E+04  0.10183580243E+04  0.25500000000E-02 0. -1.
    8880023    1    1    2    0    0  0.53287891548E+03 -0.58197198821E+02 -0.24871333992E+03  0.88488156509E+03  0.65864270000E+03 0.  0.
    8880022    1    1    2    0    0 -0.53287891548E+03  0.58197198821E+02 -0.27952467839E+03  0.62359646516E+03  0.15294330000E+03 0.  1.
<mgrwt>
<rscale>  0 0.76438223E+03</rscale>
<asrwt>0</asrwt>
<pdfrwt beam="1">  1        2 0.15667047E+00 0.84920967E+03</pdfrwt>
<pdfrwt beam="2">  1       -2 0.75403078E-01 0.84920967E+03</pdfrwt>
<totfact> 0.38967111E+01</totfact>
</mgrwt>
</event>
<event>
 4    1  0.3057048E-007  0.1272259E+04  0.7818608E-02  0.9089894E-01
         -2   -1    0    0    0  501 -0.00000000000E+00  0.00000000000E+00  0.85290754226E+03  0.85290754227E+03  0.25500000000E-02 0.  1.
          2   -1    0    0  501    0  0.00000000000E+00 -0.00000000000E+00 -0.20513942311E+04  0.20513942311E+04  0.25500000000E-02 0. -1.
    8880023    1    1    2    0    0 -0.10751716376E+04 -0.16982192688E+03 -0.12766236798E+04  0.18023350863E+04  0.65864270000E+03 0. -1.
    8880022    1    1    2    0    0  0.10751716376E+04  0.16982192688E+03  0.78136990940E+02  0.11019666871E+04  0.15294330000E+03 0.  0.
<mgrwt>
<rscale>  0 0.12265922E+04</rscale>
<asrwt>0</asrwt>
<pdfrwt beam="1">  1        2 0.31559911E+00 0.12722593E+04</pdfrwt>
<pdfrwt beam="2">  1       -2 0.13121655E+00 0.12722593E+04</pdfrwt>
<totfact> 0.25678766E+00</totfact>
</mgrwt>
</event>
<event>
 4    1  0.3057048E-007  0.6586444E+03  0.7818608E-02  0.1025590E+00
          2   -1    0    0  501    0  0.00000000000E+00  0.00000000000E+00  0.21771044858E+04  0.21771044858E+04  0.25500000000E-02 0. -1.
         -2   -1    0    0    0  501 -0.00000000000E+00 -0.00000000000E+00 -0.54728948050E+03  0.54728948051E+03  0.25500000000E-02 0.  1.
    8880023    1    1    2    0    0 -0.29974880506E+00 -0.14523644939E+01 -0.34509198883E+03  0.74357305373E+03  0.65864270000E+03 0.  1.
    8880022    1    1    2    0    0  0.29974880506E+00  0.14523644939E+01  0.19749069941E+04  0.19808209126E+04  0.15294330000E+03 0.  0.
<mgrwt>
<rscale>  0 0.45722077E+03</rscale>
<asrwt>0</asrwt>
<pdfrwt beam="1">  1        2 0.33493916E+00 0.65864437E+03</pdfrwt>
<pdfrwt beam="2">  1       -2 0.84198381E-01 0.65864437E+03</pdfrwt>
<totfact> 0.69235756E+00</totfact>
</mgrwt>
</event>
<event>
 4    1  0.3057048E-007  0.7393106E+03  0.7818608E-02  0.9861960E-01
         -2   -1    0    0    0  501 -0.00000000000E+00  0.00000000000E+00  0.53343532810E+03  0.53343532811E+03  0.25500000000E-02 0.  1.
          2   -1    0    0  501    0  0.00000000000E+00 -0.00000000000E+00 -0.79230081768E+03  0.79230081768E+03  0.25500000000E-02 0. -1.
    8880023    1    1    2    0    0  0.11832305989E+03 -0.31427641965E+03  0.17139240432E+03  0.75891737164E+03  0.65864270000E+03 0.  1.
    8880022    1    1    2    0    0 -0.11832305989E+03  0.31427641965E+03 -0.43025789390E+03  0.56681877415E+03  0.15294330000E+03 0.  0.
<mgrwt>
<rscale>  0 0.62140834E+03</rscale>
<asrwt>0</asrwt>
<pdfrwt beam="1">  1        2 0.12189243E+00 0.73931064E+03</pdfrwt>
<pdfrwt beam="2">  1       -2 0.82066974E-01 0.73931064E+03</pdfrwt>
<totfact> 0.46195438E+01</totfact>
</mgrwt>
</event>
<event>
 4    1  0.3057048E-007  0.8482026E+03  0.7818608E-02  0.9614903E-01
         -2   -1    0    0    0  501 -0.00000000000E+00  0.00000000000E+00  0.57050981146E+03  0.57050981147E+03  0.25500000000E-02 0.  1.
          2   -1    0    0  501    0  0.00000000000E+00 -0.00000000000E+00 -0.16668115868E+04  0.16668115868E+04  0.25500000000E-02 0. -1.
    8880023    1    1    2    0    0 -0.51968685723E+03 -0.12475167289E+03  0.16032831951E+03  0.86322232696E+03  0.65864270000E+03 0.  0.
    8880022    1    1    2    0    0  0.51968685723E+03  0.12475167289E+03 -0.12566300949E+04  0.13740990713E+04  0.15294330000E+03 0.  0.
<mgrwt>
<rscale>  0 0.76317583E+03</rscale>
<asrwt>0</asrwt>
<pdfrwt beam="1">  1        2 0.25643255E+00 0.84820258E+03</pdfrwt>
<pdfrwt beam="2">  1       -2 0.87770741E-01 0.84820258E+03</pdfrwt>
<totfact> 0.11627236E+01</totfact>
</mgrwt>
</event>
<event>
 4    1  0.3057048E-007  0.7297907E+03  0.7818608E-02  0.9890751E-01
          2   -1    0    0  501    0  0.00000000000E+00  0.00000000000E+00  0.66811431489E+03  0.66811431489E+03  0.25500000000E-02 0. -1.
         -2   -1    0    0    0  501 -0.00000000000E+00 -0.00000000000E+00 -0.84033740718E+03  0.84033740718E+03  0.25500000000E-02 0.  1.
    8880023    1    1    2    0    0  0.30995894215E+03  0.52055504342E+02 -0.60795765257E+03  0.94984579534E+03  0.65864270000E+03 0.  0.
    8880022    1    1    2    0    0 -0.30995894215E+03 -0.52055504342E+02  0.43573456028E+03  0.55860592673E+03  0.15294330000E+03 0.  0.
<mgrwt>
<rscale>  0 0.60711643E+03</rscale>
<asrwt>0</asrwt>
<pdfrwt beam="1">  1        2 0.10278682E+00 0.72979074E+03</pdfrwt>
<pdfrwt beam="2">  1       -2 0.12928268E+00 0.72979074E+03</pdfrwt>
<totfact> 0.19438440E+01</totfact>
</mgrwt>
</event>
<event>
 4    1  0.3057048E-007  0.7146747E+03  0.7818608E-02  0.9941035E-01
         -2   -1    0    0    0  501 -0.00000000000E+00  0.00000000000E+00  0.92835228799E+03  0.92835228800E+03  0.25500000000E-02 0.  1.
          2   -1    0    0  501    0  0.00000000000E+00 -0.00000000000E+00 -0.36278428492E+03  0.36278428493E+03  0.25500000000E-02 0. -1.
    8880023    1    1    2    0    0  0.24705621361E+03  0.12614671715E+03  0.64703486283E+03  0.96406124645E+03  0.65864270000E+03 0.  0.
    8880022    1    1    2    0    0 -0.24705621361E+03 -0.12614671715E+03 -0.81466859763E+02  0.32707532647E+03  0.15294330000E+03 0.  0.
<mgrwt>
<rscale>  0 0.58313130E+03</rscale>
<asrwt>0</asrwt>
<pdfrwt beam="1">  1        2 0.55812968E-01 0.71467473E+03</pdfrwt>
<pdfrwt beam="2">  1       -2 0.14282343E+00 0.71467473E+03</pdfrwt>
<totfact> 0.30706276E+01</totfact>
</mgrwt>
</event>
<event>
 4    1  0.3057048E-007  0.6862863E+03  0.7818608E-02  0.1005970E+00
         -2   -1    0    0    0  501 -0.00000000000E+00  0.00000000000E+00  0.49050323594E+03  0.49050323595E+03  0.25500000000E-02 0.  1.
          2   -1    0    0  501    0  0.00000000000E+00 -0.00000000000E+00 -0.83470318472E+03  0.83470318473E+03  0.25500000000E-02 0. -1.
    8880023    1    1    2    0    0 -0.17354545911E+03  0.84028087881E+02  0.21092784446E+03  0.71796901588E+03  0.65864270000E+03 0.  1.
    8880022    1    1    2    0    0  0.17354545911E+03 -0.84028087881E+02 -0.55512779325E+03  0.60723740479E+03  0.15294330000E+03 0.  0.
<mgrwt>
<rscale>  0 0.53108199E+03</rscale>
<asrwt>0</asrwt>
<pdfrwt beam="1">  1        2 0.12841587E+00 0.68628635E+03</pdfrwt>
<pdfrwt beam="2">  1       -2 0.75462037E-01 0.68628635E+03</pdfrwt>
<totfact> 0.52234948E+01</totfact>
</mgrwt>
</event>
<event>
 4    1  0.3057048E-007  0.8138708E+03  0.7818608E-02  0.9681570E-01
         -2   -1    0    0    0  501 -0.00000000000E+00  0.00000000000E+00  0.25249401921E+03  0.25249401922E+03  0.25500000000E-02 0.  1.
          2   -1    0    0  501    0  0.00000000000E+00 -0.00000000000E+00 -0.33426222204E+04  0.33426222204E+04  0.25500000000E-02 0. -1.
    8880023    1    1    2    0    0 -0.35998821049E+03  0.31461707140E+03 -0.29692947472E+04  0.30788142060E+04  0.65864270000E+03 0. -1.
    8880022    1    1    2    0    0  0.35998821049E+03 -0.31461707140E+03 -0.12083345405E+03  0.51630203364E+03  0.15294330000E+03 0.  0.
<mgrwt>
<rscale>  0 0.72124789E+03</rscale>
<asrwt>0</asrwt>
<pdfrwt beam="1">  1        2 0.51424954E+00 0.81387076E+03</pdfrwt>
<pdfrwt beam="2">  1       -2 0.38845236E-01 0.81387076E+03</pdfrwt>
<totfact> 0.69462998E+00</totfact>
</mgrwt>
</event>
<event>
 4    1  0.3057048E-007  0.8959513E+03  0.7818608E-02  0.9532563E-01
         -2   -1    0    0    0  501 -0.00000000000E+00  0.00000000000E+00  0.27503524577E+03  0.27503524578E+03  0.25500000000E-02 0.  1.
          2   -1    0    0  501    0  0.00000000000E+00 -0.00000000000E+00 -0.26494834543E+04  0.26494834543E+04  0.25500000000E-02 0. -1.
    8880023    1    1    2    0    0 -0.42457841834E+03 -0.43434057357E+03 -0.70069822373E+03  0.11374123149E+04  0.65864270000E+03 0.  1.
    8880022    1    1    2    0    0  0.42457841834E+03  0.43434057357E+03 -0.16737499848E+04  0.17871063851E+04  0.15294330000E+03 0. -1.
<mgrwt>
<rscale>  0 0.81925106E+03</rscale>
<asrwt>0</asrwt>
<pdfrwt beam="1">  1        2 0.40761282E+00 0.89595132E+03</pdfrwt>
<pdfrwt beam="2">  1       -2 0.42313117E-01 0.89595132E+03</pdfrwt>
<totfact> 0.15493968E+01</totfact>
</mgrwt>
</event>
<event>
 4    1  0.3057048E-007  0.1360561E+04  0.7818608E-02  0.9014950E-01
         -2   -1    0    0    0  501 -0.00000000000E+00  0.00000000000E+00  0.10595816608E+04  0.10595816608E+04  0.25500000000E-02 0.  1.
          2   -1    0    0  501    0  0.00000000000E+00 -0.00000000000E+00 -0.23633177901E+04  0.23633177901E+04  0.25500000000E-02 0. -1.
    8880023    1    1    2    0    0  0.15202889812E+03 -0.11807637294E+04  0.32579319546E+03  0.13990236535E+04  0.65864270000E+03 0.  0.
    8880022    1    1    2    0    0 -0.15202889812E+03  0.11807637294E+04 -0.16295293248E+04  0.20238757975E+04  0.15294330000E+03 0.  0.
<mgrwt>
<rscale>  0 0.13185921E+04</rscale>
<asrwt>0</asrwt>
<pdfrwt beam="1">  1        2 0.36358735E+00 0.13605609E+04</pdfrwt>
<pdfrwt beam="2">  1       -2 0.16301256E+00 0.13605609E+04</pdfrwt>
<totfact> 0.95567960E-01</totfact>
</mgrwt>
</event>
<event>
 4    1  0.3057048E-007  0.8152783E+03  0.7818608E-02  0.9678685E-01
          2   -1    0    0  501    0  0.00000000000E+00  0.00000000000E+00  0.86972763106E+03  0.86972763106E+03  0.25500000000E-02 0. -1.
         -2   -1    0    0    0  501 -0.00000000000E+00 -0.00000000000E+00 -0.50080670437E+03  0.50080670438E+03  0.25500000000E-02 0.  1.
    8880023    1    1    2    0    0 -0.47627695100E+03 -0.63472683751E+02  0.24485418016E+03  0.85125336501E+03  0.65864270000E+03 0.  1.
    8880022    1    1    2    0    0  0.47627695100E+03  0.63472683751E+02  0.12406674652E+03  0.51928097043E+03  0.15294330000E+03 0. -1.
<mgrwt>
<rscale>  0 0.72300152E+03</rscale>
<asrwt>0</asrwt>
<pdfrwt beam="1">  1        2 0.13380425E+00 0.81527831E+03</pdfrwt>
<pdfrwt beam="2">  1       -2 0.77047185E-01 0.81527831E+03</pdfrwt>
<totfact> 0.46668560E+01</totfact>
</mgrwt>
</event>
<event>
 4    1  0.3057048E-007  0.6815080E+03  0.7818608E-02  0.1008483E+00
          2   -1    0    0  501    0  0.00000000000E+00  0.00000000000E+00  0.25650987530E+04  0.25650987530E+04  0.25500000000E-02 0. -1.
         -2   -1    0    0    0  501 -0.00000000000E+00 -0.00000000000E+00 -0.34743891475E+03  0.34743891476E+03  0.25500000000E-02 0.  1.
    8880023    1    1    2    0    0 -0.92260640191E+02  0.14876451985E+03 -0.12259243313E+01  0.68150907349E+03  0.65864270000E+03 0.  0.
    8880022    1    1    2    0    0  0.92260640191E+02 -0.14876451985E+03  0.22188857626E+04  0.22310285943E+04  0.15294330000E+03 0.  0.
<mgrwt>
<rscale>  0 0.52081941E+03</rscale>
<asrwt>0</asrwt>
<pdfrwt beam="1">  1        2 0.39463060E+00 0.68150797E+03</pdfrwt>
<pdfrwt beam="2">  1       -2 0.53452138E-01 0.68150797E+03</pdfrwt>
<totfact> 0.11183189E+01</totfact>
</mgrwt>
</event>
<event>
 4    1  0.3057048E-007  0.7155846E+03  0.7818608E-02  0.9937819E-01
          2   -1    0    0  501    0  0.00000000000E+00  0.00000000000E+00  0.13768814526E+04  0.13768814526E+04  0.25500000000E-02 0. -1.
         -2   -1    0    0    0  501 -0.00000000000E+00 -0.00000000000E+00 -0.25304932799E+03  0.25304932800E+03  0.25500000000E-02 0.  1.
    8880023    1    1    2    0    0 -0.13075202444E+03 -0.24729542193E+03  0.35748128540E+03  0.79990886561E+03  0.65864270000E+03 0.  1.
    8880022    1    1    2    0    0  0.13075202444E+03  0.24729542193E+03  0.76635083919E+03  0.83002191498E+03  0.15294330000E+03 0.  1.
<mgrwt>
<rscale>  0 0.58462893E+03</rscale>
<asrwt>0</asrwt>
<pdfrwt beam="1">  1        2 0.21182791E+00 0.71558460E+03</pdfrwt>
<pdfrwt beam="2">  1       -2 0.38930667E-01 0.71558460E+03</pdfrwt>
<totfact> 0.94928323E+01</totfact>
</mgrwt>
</event>
<event>
 4    1  0.3057048E-007  0.9161756E+03  0.7818608E-02  0.9500548E-01
         -2   -1    0    0    0  501 -0.00000000000E+00  0.00000000000E+00  0.62241609286E+03  0.62241609287E+03  0.25500000000E-02 0.  1.
          2   -1    0    0  501    0  0.00000000000E+00 -0.00000000000E+00 -0.10405834286E+04  0.10405834286E+04  0.25500000000E-02 0. -1.
    8880023    1    1    2    0    0  0.63684160769E+03  0.44826749540E+00 -0.63962568844E+02  0.91840560250E+03  0.65864270000E+03 0. -1.
    8880022    1    1    2    0    0 -0.63684160769E+03 -0.44826749540E+00 -0.35420476686E+03  0.74459391894E+03  0.15294330000E+03 0.  0.
<mgrwt>
<rscale>  0 0.84243424E+03</rscale>
<asrwt>0</asrwt>
<pdfrwt beam="1">  1        2 0.16008976E+00 0.91617555E+03</pdfrwt>
<pdfrwt beam="2">  1       -2 0.95756322E-01 0.91617555E+03</pdfrwt>
<totfact> 0.21735619E+01</totfact>
</mgrwt>
</event>
<event>
 4    1  0.3057048E-007  0.8609591E+03  0.7818608E-02  0.9591860E-01
          2   -1    0    0  501    0  0.00000000000E+00  0.00000000000E+00  0.18878898284E+04  0.18878898284E+04  0.25500000000E-02 0. -1.
         -2   -1    0    0    0  501 -0.00000000000E+00 -0.00000000000E+00 -0.31718478311E+03  0.31718478312E+03  0.25500000000E-02 0.  1.
    8880023    1    1    2    0    0 -0.36780592324E+03  0.41492062629E+03  0.51605132892E+03  0.10037726354E+04  0.65864270000E+03 0.  1.
    8880022    1    1    2    0    0  0.36780592324E+03 -0.41492062629E+03  0.10546537163E+04  0.12013019760E+04  0.15294330000E+03 0. -1.
<mgrwt>
<rscale>  0 0.77837310E+03</rscale>
<asrwt>0</asrwt>
<pdfrwt beam="1">  1        2 0.29044458E+00 0.86095908E+03</pdfrwt>
<pdfrwt beam="2">  1       -2 0.48797660E-01 0.86095908E+03</pdfrwt>
<totfact> 0.31183037E+01</totfact>
</mgrwt>
</event>
<event>
 4    1  0.3057048E-007  0.9847644E+03  0.7818608E-02  0.9401768E-01
          2   -1    0    0  501    0  0.00000000000E+00  0.00000000000E+00  0.15074635640E+04  0.15074635640E+04  0.25500000000E-02 0. -1.
         -2   -1    0    0    0  501 -0.00000000000E+00 -0.00000000000E+00 -0.53120914680E+03  0.53120914681E+03  0.25500000000E-02 0.  1.
    8880023    1    1    2    0    0 -0.59325775540E+03  0.42894746418E+03  0.80378131253E+03  0.12711511696E+04  0.65864270000E+03 0.  0.
    8880022    1    1    2    0    0  0.59325775540E+03 -0.42894746418E+03  0.17247310467E+03  0.76752154120E+03  0.15294330000E+03 0.  0.
<mgrwt>
<rscale>  0 0.91930360E+03</rscale>
<asrwt>0</asrwt>
<pdfrwt beam="1">  1        2 0.23191747E+00 0.98476439E+03</pdfrwt>
<pdfrwt beam="2">  1       -2 0.81724485E-01 0.98476439E+03</pdfrwt>
<totfact> 0.16535167E+01</totfact>
</mgrwt>
</event>
<event>
 4    1  0.3057048E-007  0.6631176E+03  0.7818608E-02  0.1021168E+00
         -2   -1    0    0    0  501 -0.00000000000E+00  0.00000000000E+00  0.10333617198E+04  0.10333617198E+04  0.25500000000E-02 0.  1.
          2   -1    0    0  501    0  0.00000000000E+00 -0.00000000000E+00 -0.62564339807E+03  0.62564339808E+03  0.25500000000E-02 0. -1.
    8880023    1    1    2    0    0  0.66320128123E+02 -0.38941374774E+02  0.91135270897E+03  0.11270708746E+04  0.65864270000E+03 0.  1.
    8880022    1    1    2    0    0 -0.66320128123E+02  0.38941374774E+02 -0.50363438726E+03  0.53193424322E+03  0.15294330000E+03 0.  0.
<mgrwt>
<rscale>  0 0.47267575E+03</rscale>
<asrwt>0</asrwt>
<pdfrwt beam="1">  1        2 0.96252831E-01 0.66311763E+03</pdfrwt>
<pdfrwt beam="2">  1       -2 0.15897873E+00 0.66311763E+03</pdfrwt>
<totfact> 0.12382951E+01</totfact>
</mgrwt>
</event>
<event>
 4    1  0.3057048E-007  0.8346285E+03  0.7818608E-02  0.9640393E-01
          2   -1    0    0  501    0  0.00000000000E+00  0.00000000000E+00  0.30783028370E+04  0.30783028370E+04  0.25500000000E-02 0. -1.
         -2   -1    0    0    0  501 -0.00000000000E+00 -0.00000000000E+00 -0.22208034849E+03  0.22208034850E+03  0.25500000000E-02 0.  1.
    8880023    1    1    2    0    0  0.25081329947E+03  0.44708744474E+03  0.73301399449E+03  0.11108169142E+04  0.65864270000E+03 0.  1.
    8880022    1    1    2    0    0 -0.25081329947E+03 -0.44708744474E+03  0.21232084940E+04  0.21895662713E+04  0.15294330000E+03 0.  0.
<mgrwt>
<rscale>  0 0.74679427E+03</rscale>
<asrwt>0</asrwt>
<pdfrwt beam="1">  1        2 0.47358504E+00 0.83462848E+03</pdfrwt>
<pdfrwt beam="2">  1       -2 0.34166209E-01 0.83462848E+03</pdfrwt>
<totfact> 0.13074984E+01</totfact>
</mgrwt>
</event>
<event>
 4    1  0.3057048E-007  0.6658527E+03  0.7818608E-02  0.1018828E+00
          2   -1    0    0  501    0  0.00000000000E+00  0.00000000000E+00  0.53388155703E+03  0.53388155704E+03  0.25500000000E-02 0. -1.
         -2   -1    0    0    0  501 -0.00000000000E+00 -0.00000000000E+00 -0.88041242399E+03  0.88041242399E+03  0.25500000000E-02 0.  1.
    8880023    1    1    2    0    0 -0.74397564625E+02  0.63361208830E+02 -0.73120690722E+03  0.98895064985E+03  0.65864270000E+03 0.  1.
    8880022    1    1    2    0    0  0.74397564625E+02 -0.63361208830E+02  0.38467604027E+03  0.42534333118E+03  0.15294330000E+03 0.  0.
<mgrwt>
<rscale>  0 0.48111757E+03</rscale>
<asrwt>0</asrwt>
<pdfrwt beam="1">  1        2 0.82135625E-01 0.66585272E+03</pdfrwt>
<pdfrwt beam="2">  1       -2 0.13544806E+00 0.66585272E+03</pdfrwt>
<totfact> 0.22769558E+01</totfact>
</mgrwt>
</event>
<event>
 4    1  0.3057048E-007  0.6718081E+03  0.7818608E-02  0.1014399E+00
         -2   -1    0    0    0  501 -0.00000000000E+00  0.00000000000E+00  0.20191748226E+03  0.20191748228E+03  0.25500000000E-02 0.  1.
          2   -1    0    0  501    0  0.00000000000E+00 -0.00000000000E+00 -0.10609810933E+04  0.10609810933E+04  0.25500000000E-02 0. -1.
    8880023    1    1    2    0    0  0.13004491326E+03 -0.24580565186E+02 -0.45604272062E+03  0.81197355434E+03  0.65864270000E+03 0.  1.
    8880022    1    1    2    0    0 -0.13004491326E+03  0.24580565186E+02 -0.40302089039E+03  0.45092502121E+03  0.15294330000E+03 0. -1.
<mgrwt>
<rscale>  0 0.49763318E+03</rscale>
<asrwt>0</asrwt>
<pdfrwt beam="1">  1        2 0.16322786E+00 0.67180808E+03</pdfrwt>
<pdfrwt beam="2">  1       -2 0.31064229E-01 0.67180808E+03</pdfrwt>
<totfact> 0.22452500E+02</totfact>
</mgrwt>
</event>
<event>
 4    1  0.3057048E-007  0.6955629E+03  0.7818608E-02  0.1001613E+00
         -2   -1    0    0    0  501 -0.00000000000E+00  0.00000000000E+00  0.10820184398E+04  0.10820184398E+04  0.25500000000E-02 0.  1.
          2   -1    0    0  501    0  0.00000000000E+00 -0.00000000000E+00 -0.46894664170E+03  0.46894664171E+03  0.25500000000E-02 0. -1.
    8880023    1    1    2    0    0  0.22349487316E+03 -0.68944902400E+01  0.91237142765E+03  0.11472703781E+04  0.65864270000E+03 0.  1.
    8880022    1    1    2    0    0 -0.22349487316E+03  0.68944902400E+01 -0.29929962950E+03  0.40369470341E+03  0.15294330000E+03 0.  0.
<mgrwt>
<rscale>  0 0.54948554E+03</rscale>
<asrwt>0</asrwt>
<pdfrwt beam="1">  1        2 0.72145638E-01 0.69556286E+03</pdfrwt>
<pdfrwt beam="2">  1       -2 0.16646437E+00 0.69556286E+03</pdfrwt>
<totfact> 0.15288779E+01</totfact>
</mgrwt>
</event>
<event>
 4    1  0.3057048E-007  0.9441721E+03  0.7818608E-02  0.9458549E-01
         -2   -1    0    0    0  501 -0.00000000000E+00  0.00000000000E+00  0.29094303775E+03  0.29094303776E+03  0.25500000000E-02 0.  1.
          2   -1    0    0  501    0  0.00000000000E+00 -0.00000000000E+00 -0.30873439001E+04  0.30873439001E+04  0.25500000000E-02 0. -1.
    8880023    1    1    2    0    0 -0.63206698712E+03 -0.24112654596E+03 -0.71494345913E+03  0.11843162768E+04  0.65864270000E+03 0.  1.
    8880022    1    1    2    0    0  0.63206698712E+03  0.24112654596E+03 -0.20814574032E+04  0.21939706611E+04  0.15294330000E+03 0.  0.
<mgrwt>
<rscale>  0 0.87410031E+03</rscale>
<asrwt>0</asrwt>
<pdfrwt beam="1">  1        2 0.47497596E+00 0.94417207E+03</pdfrwt>
<pdfrwt beam="2">  1       -2 0.44760469E-01 0.94417207E+03</pdfrwt>
<totfact> 0.75007767E+00</totfact>
</mgrwt>
</event>
<event>
 4    1  0.3057048E-007  0.7349786E+03  0.7818608E-02  0.9874823E-01
          2   -1    0    0  501    0  0.00000000000E+00  0.00000000000E+00  0.80608169462E+03  0.80608169462E+03  0.25500000000E-02 0. -1.
         -2   -1    0    0    0  501 -0.00000000000E+00 -0.00000000000E+00 -0.39609283212E+03  0.39609283213E+03  0.25500000000E-02 0.  1.
    8880023    1    1    2    0    0  0.32474972101E+03 -0.30346387121E+02  0.13106720847E+03  0.74657357568E+03  0.65864270000E+03 0.  1.
    8880022    1    1    2    0    0 -0.32474972101E+03  0.30346387121E+02  0.27892165403E+03  0.45560095106E+03  0.15294330000E+03 0.  0.
<mgrwt>
<rscale>  0 0.61497131E+03</rscale>
<asrwt>0</asrwt>
<pdfrwt beam="1">  1        2 0.12401257E+00 0.73497856E+03</pdfrwt>
<pdfrwt beam="2">  1       -2 0.60937359E-01 0.73497856E+03</pdfrwt>
<totfact> 0.86639713E+01</totfact>
</mgrwt>
</event>
<event>
 4    1  0.3057048E-007  0.9814969E+03  0.7818608E-02  0.9406176E-01
         -2   -1    0    0    0  501 -0.00000000000E+00  0.00000000000E+00  0.67438465749E+03  0.67438465749E+03  0.25500000000E-02 0.  1.
          2   -1    0    0  501    0  0.00000000000E+00 -0.00000000000E+00 -0.14822539224E+04  0.14822539224E+04  0.25500000000E-02 0. -1.
    8880023    1    1    2    0    0 -0.20123591899E+02  0.72740700428E+03 -0.98682951371E+03  0.13918220447E+04  0.65864270000E+03 0.  1.
    8880022    1    1    2    0    0  0.20123591899E+02 -0.72740700428E+03  0.17896024878E+03  0.76481653518E+03  0.15294330000E+03 0.  0.
<mgrwt>
<rscale>  0 0.91569162E+03</rscale>
<asrwt>0</asrwt>
<pdfrwt beam="1">  1        2 0.22803906E+00 0.98149687E+03</pdfrwt>
<pdfrwt beam="2">  1       -2 0.10375149E+00 0.98149687E+03</pdfrwt>
<totfact> 0.97973875E+00</totfact>
</mgrwt>
</event>
<event>
 4    1  0.3057048E-007  0.7842768E+03  0.7818608E-02  0.9745885E-01
          2   -1    0    0  501    0  0.00000000000E+00  0.00000000000E+00  0.16913721187E+04  0.16913721187E+04  0.25500000000E-02 0. -1.
         -2   -1    0    0    0  501 -0.00000000000E+00 -0.00000000000E+00 -0.69016699191E+03  0.69016699191E+03  0.25500000000E-02 0.  1.
    8880023    1    1    2    0    0 -0.38288160671E+03 -0.18622975096E+03 -0.42028599188E+03  0.88979231629E+03  0.65864270000E+03 0.  0.
    8880022    1    1    2    0    0  0.38288160671E+03  0.18622975096E+03  0.14214911187E+04  0.14917467944E+04  0.15294330000E+03 0. -1.
<mgrwt>
<rscale>  0 0.68349318E+03</rscale>
<asrwt>0</asrwt>
<pdfrwt beam="1">  1        2 0.26021109E+00 0.78427677E+03</pdfrwt>
<pdfrwt beam="2">  1       -2 0.10617954E+00 0.78427677E+03</pdfrwt>
<totfact> 0.72637316E+00</totfact>
</mgrwt>
</event>
<event>
 4    1  0.3057048E-007  0.8104142E+03  0.7818608E-02  0.9688715E-01
          2   -1    0    0  501    0  0.00000000000E+00  0.00000000000E+00  0.13282613003E+04  0.13282613003E+04  0.25500000000E-02 0. -1.
         -2   -1    0    0    0  501 -0.00000000000E+00 -0.00000000000E+00 -0.10270653329E+04  0.10270653329E+04  0.25500000000E-02 0.  1.
    8880023    1    1    2    0    0 -0.21586573669E+03  0.41995588546E+03 -0.80537422030E+03  0.11425405039E+04  0.65864270000E+03 0.  1.
    8880022    1    1    2    0    0  0.21586573669E+03 -0.41995588546E+03  0.11065701877E+04  0.12127861293E+04  0.15294330000E+03 0.  0.
<mgrwt>
<rscale>  0 0.71692698E+03</rscale>
<asrwt>0</asrwt>
<pdfrwt beam="1">  1        2 0.20434789E+00 0.81041420E+03</pdfrwt>
<pdfrwt beam="2">  1       -2 0.15801005E+00 0.81041420E+03</pdfrwt>
<totfact> 0.42111808E+00</totfact>
</mgrwt>
</event>
<event>
 4    1  0.3057048E-007  0.9348996E+03  0.7818608E-02  0.9472181E-01
         -2   -1    0    0    0  501 -0.00000000000E+00  0.00000000000E+00  0.24103614160E+03  0.24103614162E+03  0.25500000000E-02 0.  1.
          2   -1    0    0  501    0  0.00000000000E+00 -0.00000000000E+00 -0.32092929286E+04  0.32092929286E+04  0.25500000000E-02 0. -1.
    8880023    1    1    2    0    0 -0.12093381452E+03 -0.65238188449E+03 -0.23557370986E+04  0.25344692925E+04  0.65864270000E+03 0.  0.
    8880022    1    1    2    0    0  0.12093381452E+03  0.65238188449E+03 -0.61251968835E+03  0.91585977766E+03  0.15294330000E+03 0.  0.
<mgrwt>
<rscale>  0 0.86366211E+03</rscale>
<asrwt>0</asrwt>
<pdfrwt beam="1">  1        2 0.49373734E+00 0.93489963E+03</pdfrwt>
<pdfrwt beam="2">  1       -2 0.37082486E-01 0.93489963E+03</pdfrwt>
<totfact> 0.90972974E+00</totfact>
</mgrwt>
</event>
<event>
 4    1  0.3057048E-007  0.9551754E+03  0.7818608E-02  0.9442707E-01
         -2   -1    0    0    0  501 -0.00000000000E+00  0.00000000000E+00  0.74306099564E+03  0.74306099564E+03  0.25500000000E-02 0.  1.
          2   -1    0    0  501    0  0.00000000000E+00 -0.00000000000E+00 -0.99932498591E+03  0.99932498591E+03  0.25500000000E-02 0. -1.
    8880023    1    1    2    0    0  0.36453487364E+03 -0.58793214821E+03  0.79290951112E+02  0.95846082142E+03  0.65864270000E+03 0.  0.
    8880022    1    1    2    0    0 -0.36453487364E+03  0.58793214821E+03 -0.33555494138E+03  0.78392516014E+03  0.15294330000E+03 0.  0.
<mgrwt>
<rscale>  0 0.88642908E+03</rscale>
<asrwt>0</asrwt>
<pdfrwt beam="1">  1        2 0.15374231E+00 0.95517542E+03</pdfrwt>
<pdfrwt beam="2">  1       -2 0.11431708E+00 0.95517542E+03</pdfrwt>
<totfact> 0.15035967E+01</totfact>
</mgrwt>
</event>
<event>
 4    1  0.3057048E-007  0.7756634E+03  0.7818608E-02  0.9766124E-01
         -2   -1    0    0    0  501 -0.00000000000E+00  0.00000000000E+00  0.38807323407E+03  0.38807323408E+03  0.25500000000E-02 0.  1.
          2   -1    0    0  501    0  0.00000000000E+00 -0.00000000000E+00 -0.13115764505E+04  0.13115764505E+04  0.25500000000E-02 0. -1.
    8880023    1    1    2    0    0 -0.25021344286E+03  0.32440202779E+03 -0.12005183288E+03  0.78489877785E+03  0.65864270000E+03 0.  1.
    8880022    1    1    2    0    0  0.25021344286E+03 -0.32440202779E+03 -0.80345138358E+03  0.91475090676E+03  0.15294330000E+03 0.  0.
<mgrwt>
<rscale>  0 0.67212633E+03</rscale>
<asrwt>0</asrwt>
<pdfrwt beam="1">  1        2 0.20178099E+00 0.77566336E+03</pdfrwt>
<pdfrwt beam="2">  1       -2 0.59703575E-01 0.77566336E+03</pdfrwt>
<totfact> 0.43320077E+01</totfact>
</mgrwt>
</event>
<event>
 4    1  0.3057048E-007  0.9349119E+03  0.7818608E-02  0.9472163E-01
         -2   -1    0    0    0  501 -0.00000000000E+00  0.00000000000E+00  0.13472049091E+04  0.13472049091E+04  0.25500000000E-02 0.  1.
          2   -1    0    0  501    0  0.00000000000E+00 -0.00000000000E+00 -0.96721195113E+03  0.96721195113E+03  0.25500000000E-02 0. -1.
    8880023    1    1    2    0    0  0.91796011427E+01 -0.66344991741E+03  0.10173944494E+04  0.13817205687E+04  0.65864270000E+03 0.  0.
    8880022    1    1    2    0    0 -0.91796011427E+01  0.66344991741E+03 -0.63740149142E+03  0.93269629155E+03  0.15294330000E+03 0.  0.
<mgrwt>
<rscale>  0 0.86367596E+03</rscale>
<asrwt>0</asrwt>
<pdfrwt beam="1">  1        2 0.14880184E+00 0.93491190E+03</pdfrwt>
<pdfrwt beam="2">  1       -2 0.20726229E+00 0.93491190E+03</pdfrwt>
<totfact> 0.31552375E+00</totfact>
</mgrwt>
</event>
<event>
 4    1  0.3057048E-007  0.7276117E+03  0.7818608E-02  0.9897625E-01
         -2   -1    0    0    0  501 -0.00000000000E+00  0.00000000000E+00  0.21131441253E+03  0.21131441255E+03  0.25500000000E-02 0.  1.
          2   -1    0    0  501    0  0.00000000000E+00 -0.00000000000E+00 -0.14818935724E+04  0.14818935724E+04  0.25500000000E-02 0. -1.
    8880023    1    1    2    0    0 -0.26268957353E+03  0.16310352135E+03 -0.61623565559E+03  0.95350152606E+03  0.65864270000E+03 0.  1.
    8880022    1    1    2    0    0  0.26268957353E+03 -0.16310352135E+03 -0.65434350426E+03  0.73970645888E+03  0.15294330000E+03 0.  0.
<mgrwt>
<rscale>  0 0.60376541E+03</rscale>
<asrwt>0</asrwt>
<pdfrwt beam="1">  1        2 0.22798362E+00 0.72761169E+03</pdfrwt>
<pdfrwt beam="2">  1       -2 0.32509910E-01 0.72761169E+03</pdfrwt>
<totfact> 0.11677024E+02</totfact>
</mgrwt>
</event>
<event>
 4    1  0.3057048E-007  0.1028082E+04  0.7818608E-02  0.9345706E-01
         -2   -1    0    0    0  501 -0.00000000000E+00  0.00000000000E+00  0.20793128312E+04  0.20793128312E+04  0.25500000000E-02 0.  1.
          2   -1    0    0  501    0  0.00000000000E+00 -0.00000000000E+00 -0.49777532513E+03  0.49777532514E+03  0.25500000000E-02 0. -1.
    8880023    1    1    2    0    0  0.20197491336E+03  0.76311752022E+03  0.14262385154E+04  0.17581549204E+04  0.65864270000E+03 0.  1.
    8880022    1    1    2    0    0 -0.20197491336E+03 -0.76311752022E+03  0.15529899068E+03  0.81893323587E+03  0.15294330000E+03 0.  0.
<mgrwt>
<rscale>  0 0.96681794E+03</rscale>
<asrwt>0</asrwt>
<pdfrwt beam="1">  1        2 0.76580818E-01 0.10280819E+04</pdfrwt>
<pdfrwt beam="2">  1       -2 0.31989429E+00 0.10280819E+04</pdfrwt>
<totfact> 0.14944186E+00</totfact>
</mgrwt>
</event>
<event>
 4    1  0.3057048E-007  0.6704200E+03  0.7818608E-02  0.1015364E+00
          2   -1    0    0  501    0  0.00000000000E+00  0.00000000000E+00  0.13921400873E+04  0.13921400873E+04  0.25500000000E-02 0. -1.
         -2   -1    0    0    0  501 -0.00000000000E+00 -0.00000000000E+00 -0.31555940007E+03  0.31555940008E+03  0.25500000000E-02 0.  1.
    8880023    1    1    2    0    0 -0.45898422704E+02  0.11638780493E+03  0.61128834630E+02  0.67320110445E+03  0.65864270000E+03 0.  1.
    8880022    1    1    2    0    0  0.45898422704E+02 -0.11638780493E+03  0.10154518526E+04  0.10344983830E+04  0.15294330000E+03 0.  0.
<mgrwt>
<rscale>  0 0.49397518E+03</rscale>
<asrwt>0</asrwt>
<pdfrwt beam="1">  1        2 0.21417540E+00 0.67042001E+03</pdfrwt>
<pdfrwt beam="2">  1       -2 0.48547601E-01 0.67042001E+03</pdfrwt>
<totfact> 0.60396659E+01</totfact>
</mgrwt>
</event>
<event>
 4    1  0.3057048E-007  0.8590261E+03  0.7818608E-02  0.9595298E-01
          2   -1    0    0  501    0  0.00000000000E+00  0.00000000000E+00  0.39425007486E+03  0.39425007487E+03  0.25500000000E-02 0. -1.
         -2   -1    0    0    0  501 -0.00000000000E+00 -0.00000000000E+00 -0.23245968933E+04  0.23245968933E+04  0.25500000000E-02 0.  1.
    8880023    1    1    2    0    0 -0.53309148387E+03  0.14117059592E+03 -0.19659749523E+04  0.21454564518E+04  0.65864270000E+03 0.  0.
    8880022    1    1    2    0    0  0.53309148387E+03 -0.14117059592E+03  0.35628133833E+02  0.57339051637E+03  0.15294330000E+03 0.  0.
<mgrwt>
<rscale>  0 0.77608163E+03</rscale>
<asrwt>0</asrwt>
<pdfrwt beam="1">  1        2 0.60653859E-01 0.85902612E+03</pdfrwt>
<pdfrwt beam="2">  1       -2 0.35763028E+00 0.85902612E+03</pdfrwt>
<totfact> 0.11666154E+00</totfact>
</mgrwt>
</event>
<event>
 4    1  0.3057048E-007  0.6729583E+03  0.7818608E-02  0.1013625E+00
          2   -1    0    0  501    0  0.00000000000E+00  0.00000000000E+00  0.23756203727E+03  0.23756203729E+03  0.25500000000E-02 0. -1.
         -2   -1    0    0    0  501 -0.00000000000E+00 -0.00000000000E+00 -0.12458540914E+04  0.12458540914E+04  0.25500000000E-02 0.  1.
    8880023    1    1    2    0    0  0.11585768913E+03  0.75097285240E+02 -0.10737654351E+04  0.12672194057E+04  0.65864270000E+03 0.  1.
    8880022    1    1    2    0    0 -0.11585768913E+03 -0.75097285240E+02  0.65473380982E+02  0.21619672295E+03  0.15294330000E+03 0.  0.
<mgrwt>
<rscale>  0 0.50058894E+03</rscale>
<asrwt>0</asrwt>
<pdfrwt beam="1">  1        2 0.36548006E-01 0.67295825E+03</pdfrwt>
<pdfrwt beam="2">  1       -2 0.19166986E+00 0.67295825E+03</pdfrwt>
<totfact> 0.21996680E+01</totfact>
</mgrwt>
</event>
<event>
 4    1  0.3057048E-007  0.8287279E+03  0.7818608E-02  0.9651813E-01
          2   -1    0    0  501    0  0.00000000000E+00  0.00000000000E+00  0.19089195944E+04  0.19089195944E+04  0.25500000000E-02 0. -1.
         -2   -1    0    0    0  501 -0.00000000000E+00 -0.00000000000E+00 -0.31285553460E+03  0.31285553461E+03  0.25500000000E-02 0.  1.
    8880023    1    1    2    0    0  0.44429992847E+03 -0.23574849015E+03  0.14598965968E+04  0.16787161930E+04  0.65864270000E+03 0. -1.
    8880022    1    1    2    0    0 -0.44429992847E+03  0.23574849015E+03  0.13616746308E+03  0.54305893608E+03  0.15294330000E+03 0.  0.
<mgrwt>
<rscale>  0 0.73959783E+03</rscale>
<asrwt>0</asrwt>
<pdfrwt beam="1">  1        2 0.29367994E+00 0.82872793E+03</pdfrwt>
<pdfrwt beam="2">  1       -2 0.48131620E-01 0.82872793E+03</pdfrwt>
<totfact> 0.31338865E+01</totfact>
</mgrwt>
</event>
<event>
 4    1  0.3057048E-007  0.7892818E+03  0.7818608E-02  0.9734469E-01
          2   -1    0    0  501    0  0.00000000000E+00  0.00000000000E+00  0.10349717273E+04  0.10349717273E+04  0.25500000000E-02 0. -1.
         -2   -1    0    0    0  501 -0.00000000000E+00 -0.00000000000E+00 -0.38521756854E+03  0.38521756855E+03  0.25500000000E-02 0.  1.
    8880023    1    1    2    0    0  0.20911134580E+03  0.38135026164E+03  0.50482548455E+03  0.93691758074E+03  0.65864270000E+03 0.  1.
    8880022    1    1    2    0    0 -0.20911134580E+03 -0.38135026164E+03  0.14492867419E+03  0.48327171509E+03  0.15294330000E+03 0.  0.
<mgrwt>
<rscale>  0 0.69001098E+03</rscale>
<asrwt>0</asrwt>
<pdfrwt beam="1">  1        2 0.15922642E+00 0.78928181E+03</pdfrwt>
<pdfrwt beam="2">  1       -2 0.59264241E-01 0.78928181E+03</pdfrwt>
<totfact> 0.64369421E+01</totfact>
</mgrwt>
</event>
<event>
 4    1  0.3057048E-007  0.7816029E+03  0.7818608E-02  0.9752085E-01
         -2   -1    0    0    0  501 -0.00000000000E+00  0.00000000000E+00  0.32393487374E+03  0.32393487375E+03  0.25500000000E-02 0.  1.
          2   -1    0    0  501    0  0.00000000000E+00 -0.00000000000E+00 -0.15428661090E+04  0.15428661090E+04  0.25500000000E-02 0. -1.
    8880023    1    1    2    0    0 -0.37177996130E+03  0.19716134430E+03 -0.28653993255E+03  0.83247118540E+03  0.65864270000E+03 0.  0.
    8880022    1    1    2    0    0  0.37177996130E+03 -0.19716134430E+03 -0.93239130267E+03  0.10343297973E+04  0.15294330000E+03 0.  0.
<mgrwt>
<rscale>  0 0.67998567E+03</rscale>
<asrwt>0</asrwt>
<pdfrwt beam="1">  1        2 0.23736401E+00 0.78160293E+03</pdfrwt>
<pdfrwt beam="2">  1       -2 0.49836135E-01 0.78160293E+03</pdfrwt>
<totfact> 0.46620946E+01</totfact>
</mgrwt>
</event>
<event>
 4    1  0.3057048E-007  0.6791810E+03  0.7818608E-02  0.1009791E+00
          2   -1    0    0  501    0  0.00000000000E+00  0.00000000000E+00  0.86613720551E+03  0.86613720551E+03  0.25500000000E-02 0. -1.
         -2   -1    0    0    0  501 -0.00000000000E+00 -0.00000000000E+00 -0.29506464843E+03  0.29506464844E+03  0.25500000000E-02 0.  1.
    8880023    1    1    2    0    0  0.14086860197E+03 -0.87365415588E+02  0.16852462459E+03  0.69977670311E+03  0.65864270000E+03 0. -1.
    8880022    1    1    2    0    0 -0.14086860197E+03  0.87365415588E+02  0.40254793249E+03  0.46142515084E+03  0.15294330000E+03 0.  0.
<mgrwt>
<rscale>  0 0.51557886E+03</rscale>
<asrwt>0</asrwt>
<pdfrwt beam="1">  1        2 0.13325188E+00 0.67918104E+03</pdfrwt>
<pdfrwt beam="2">  1       -2 0.45394561E-01 0.67918104E+03</pdfrwt>
<totfact> 0.14459435E+02</totfact>
</mgrwt>
</event>
<event>
 4    1  0.3057048E-007  0.7138675E+03  0.7818608E-02  0.9943910E-01
         -2   -1    0    0    0  501 -0.00000000000E+00  0.00000000000E+00  0.11518206068E+04  0.11518206068E+04  0.25500000000E-02 0.  1.
          2   -1    0    0  501    0  0.00000000000E+00 -0.00000000000E+00 -0.58854313182E+03  0.58854313183E+03  0.25500000000E-02 0. -1.
    8880023    1    1    2    0    0  0.24920256519E+03  0.11702432394E+03  0.98346989340E+03  0.12152447689E+04  0.65864270000E+03 0.  1.
    8880022    1    1    2    0    0 -0.24920256519E+03 -0.11702432394E+03 -0.42019241840E+03  0.52511896974E+03  0.15294330000E+03 0.  0.
<mgrwt>
<rscale>  0 0.58179602E+03</rscale>
<asrwt>0</asrwt>
<pdfrwt beam="1">  1        2 0.90545098E-01 0.71386751E+03</pdfrwt>
<pdfrwt beam="2">  1       -2 0.17720317E+00 0.71386751E+03</pdfrwt>
<totfact> 0.98283296E+00</totfact>
</mgrwt>
</event>
<event>
 4    1  0.3057048E-007  0.1332297E+04  0.7818608E-02  0.9038160E-01
         -2   -1    0    0    0  501 -0.00000000000E+00  0.00000000000E+00  0.87493021737E+03  0.87493021737E+03  0.25500000000E-02 0.  1.
          2   -1    0    0  501    0  0.00000000000E+00 -0.00000000000E+00 -0.24178214248E+04  0.24178214248E+04  0.25500000000E-02 0. -1.
    8880023    1    1    2    0    0 -0.27305325873E+03  0.11254537825E+04 -0.16488003781E+04  0.21198012152E+04  0.65864270000E+03 0. -1.
    8880022    1    1    2    0    0  0.27305325873E+03 -0.11254537825E+04  0.10590917067E+03  0.11729504270E+04  0.15294330000E+03 0.  0.
<mgrwt>
<rscale>  0 0.12892176E+04</rscale>
<asrwt>0</asrwt>
<pdfrwt beam="1">  1        2 0.37197252E+00 0.13322967E+04</pdfrwt>
<pdfrwt beam="2">  1       -2 0.13460465E+00 0.13322967E+04</pdfrwt>
<totfact> 0.14869279E+00</totfact>
</mgrwt>
</event>
<event>
 4    1  0.3057048E-007  0.7419730E+03  0.7818608E-02  0.9854237E-01
         -2   -1    0    0    0  501 -0.00000000000E+00  0.00000000000E+00  0.84241921578E+03  0.84241921578E+03  0.25500000000E-02 0.  1.
          2   -1    0    0  501    0  0.00000000000E+00 -0.00000000000E+00 -0.10637038469E+04  0.10637038469E+04  0.25500000000E-02 0. -1.
    8880023    1    1    2    0    0  0.12951358040E+03 -0.31613279306E+03  0.63180681165E+03  0.97452745670E+03  0.65864270000E+03 0.  0.
    8880022    1    1    2    0    0 -0.12951358040E+03  0.31613279306E+03 -0.85309144279E+03  0.93159560601E+03  0.15294330000E+03 0.  0.
<mgrwt>
<rscale>  0 0.62531366E+03</rscale>
<asrwt>0</asrwt>
<pdfrwt beam="1">  1        2 0.16364675E+00 0.74197299E+03</pdfrwt>
<pdfrwt beam="2">  1       -2 0.12960296E+00 0.74197299E+03</pdfrwt>
<totfact> 0.10236574E+01</totfact>
</mgrwt>
</event>
<event>
 4    1  0.3057048E-007  0.1205688E+04  0.7818608E-02  0.9151613E-01
          2   -1    0    0  501    0  0.00000000000E+00  0.00000000000E+00  0.29382855477E+04  0.29382855477E+04  0.25500000000E-02 0. -1.
         -2   -1    0    0    0  501 -0.00000000000E+00 -0.00000000000E+00 -0.46099618953E+03  0.46099618954E+03  0.25500000000E-02 0.  1.
    8880023    1    1    2    0    0 -0.89709850914E+03  0.46377661584E+03  0.83975095840E+03  0.14693081239E+04  0.65864270000E+03 0.  1.
    8880022    1    1    2    0    0  0.89709850914E+03 -0.46377661584E+03  0.16375383998E+04  0.19299736134E+04  0.15294330000E+03 0.  0.
<mgrwt>
<rscale>  0 0.11567133E+04</rscale>
<asrwt>0</asrwt>
<pdfrwt beam="1">  1        2 0.45204395E+00 0.12056885E+04</pdfrwt>
<pdfrwt beam="2">  1       -2 0.70922488E-01 0.12056885E+04</pdfrwt>
<totfact> 0.34132739E+00</totfact>
</mgrwt>
</event>
<event>
 4    1  0.3057048E-007  0.8038411E+03  0.7818608E-02  0.9702551E-01
          2   -1    0    0  501    0  0.00000000000E+00  0.00000000000E+00  0.17771300096E+04  0.17771300096E+04  0.25500000000E-02 0. -1.
         -2   -1    0    0    0  501 -0.00000000000E+00 -0.00000000000E+00 -0.37313155767E+03  0.37313155768E+03  0.25500000000E-02 0.  1.
    8880023    1    1    2    0    0 -0.41389328887E+03  0.20258993421E+03  0.16647516207E+03  0.82089860632E+03  0.65864270000E+03 0.  1.
    8880022    1    1    2    0    0  0.41389328887E+03 -0.20258993421E+03  0.12375232899E+04  0.13293629610E+04  0.15294330000E+03 0.  0.
<mgrwt>
<rscale>  0 0.70865080E+03</rscale>
<asrwt>0</asrwt>
<pdfrwt beam="1">  1        2 0.27340462E+00 0.80384112E+03</pdfrwt>
<pdfrwt beam="2">  1       -2 0.57404854E-01 0.80384112E+03</pdfrwt>
<totfact> 0.25812770E+01</totfact>
</mgrwt>
</event>
<event>
 4    1  0.3057048E-007  0.7429180E+03  0.7818608E-02  0.9851527E-01
         -2   -1    0    0    0  501 -0.00000000000E+00  0.00000000000E+00  0.36229020952E+03  0.36229020953E+03  0.25500000000E-02 0.  1.
          2   -1    0    0  501    0  0.00000000000E+00 -0.00000000000E+00 -0.19593821792E+04  0.19593821792E+04  0.25500000000E-02 0. -1.
    8880023    1    1    2    0    0 -0.28494423851E+03 -0.19215557127E+03 -0.66904862339E+02  0.74592456019E+03  0.65864270000E+03 0.  1.
    8880022    1    1    2    0    0  0.28494423851E+03  0.19215557127E+03 -0.15301871074E+04  0.15757478286E+04  0.15294330000E+03 0.  0.
<mgrwt>
<rscale>  0 0.62669112E+03</rscale>
<asrwt>0</asrwt>
<pdfrwt beam="1">  1        2 0.30144341E+00 0.74291802E+03</pdfrwt>
<pdfrwt beam="2">  1       -2 0.55736957E-01 0.74291802E+03</pdfrwt>
<totfact> 0.22002520E+01</totfact>
</mgrwt>
</event>
<event>
 4    1  0.3057048E-007  0.1027761E+04  0.7818608E-02  0.9346106E-01
          2   -1    0    0  501    0  0.00000000000E+00  0.00000000000E+00  0.26652909801E+04  0.26652909801E+04  0.25500000000E-02 0. -1.
         -2   -1    0    0    0  501 -0.00000000000E+00 -0.00000000000E+00 -0.55600477239E+03  0.55600477239E+03  0.25500000000E-02 0.  1.
    8880023    1    1    2    0    0 -0.51204483523E+03 -0.60024450787E+03  0.70902794223E+02  0.10302042492E+04  0.65864270000E+03 0.  1.
    8880022    1    1    2    0    0  0.51204483523E+03  0.60024450787E+03  0.20383834135E+04  0.21910915033E+04  0.15294330000E+03 0.  0.
<mgrwt>
<rscale>  0 0.96646872E+03</rscale>
<asrwt>0</asrwt>
<pdfrwt beam="1">  1        2 0.41004476E+00 0.10277614E+04</pdfrwt>
<pdfrwt beam="2">  1       -2 0.85539197E-01 0.10277614E+04</pdfrwt>
<totfact> 0.33376895E+00</totfact>
</mgrwt>
</event>
<event>
 4    1  0.3057048E-007  0.8700616E+03  0.7818608E-02  0.9575910E-01
          2   -1    0    0  501    0  0.00000000000E+00  0.00000000000E+00  0.10444271265E+04  0.10444271265E+04  0.25500000000E-02 0. -1.
         -2   -1    0    0    0  501 -0.00000000000E+00 -0.00000000000E+00 -0.86512088185E+03  0.86512088186E+03  0.25500000000E-02 0.  1.
    8880023    1    1    2    0    0 -0.56837200274E+03  0.12258161181E+02  0.70534349151E+03  0.11200520717E+04  0.65864270000E+03 0. -1.
    8880022    1    1    2    0    0  0.56837200274E+03 -0.12258161181E+02 -0.52603724683E+03  0.78949593671E+03  0.15294330000E+03 0.  0.
<mgrwt>
<rscale>  0 0.78911318E+03</rscale>
<asrwt>0</asrwt>
<pdfrwt beam="1">  1        2 0.16068110E+00 0.87006161E+03</pdfrwt>
<pdfrwt beam="2">  1       -2 0.13309552E+00 0.87006161E+03</pdfrwt>
<totfact> 0.96961741E+00</totfact>
</mgrwt>
</event>
<event>
 4    1  0.3057048E-007  0.7069432E+03  0.7818608E-02  0.9969532E-01
          2   -1    0    0  501    0  0.00000000000E+00  0.00000000000E+00  0.49893647381E+03  0.49893647382E+03  0.25500000000E-02 0. -1.
         -2   -1    0    0    0  501 -0.00000000000E+00 -0.00000000000E+00 -0.64650129977E+03  0.64650129978E+03  0.25500000000E-02 0.  1.
    8880023    1    1    2    0    0 -0.25491511430E+03  0.31252167072E+02 -0.34557607885E+03  0.78688718758E+03  0.65864270000E+03 0.  0.
    8880022    1    1    2    0    0  0.25491511430E+03 -0.31252167072E+02  0.19801125289E+03  0.35855058601E+03  0.15294330000E+03 0.  0.
<mgrwt>
<rscale>  0 0.57006612E+03</rscale>
<asrwt>0</asrwt>
<pdfrwt beam="1">  1        2 0.76759458E-01 0.70694315E+03</pdfrwt>
<pdfrwt beam="2">  1       -2 0.99461738E-01 0.70694315E+03</pdfrwt>
<totfact> 0.52403280E+01</totfact>
</mgrwt>
</event>
<event>
 4    1  0.3556634E-007  0.6647526E+03  0.7818608E-02  0.1019742E+00
         -2   -1    0    0    0  501 -0.00000000000E+00  0.00000000000E+00  0.18589231761E+04  0.18589231761E+04  0.25500000000E-02 0.  1.
          2   -1    0    0  501    0  0.00000000000E+00 -0.00000000000E+00 -0.10375922017E+04  0.10375922017E+04  0.25500000000E-02 0. -1.
    8880023    1    1    2    0    0 -0.86748422610E+02  0.23674540392E+02  0.17911886065E+04  0.19105634256E+04  0.65864270000E+03 0.  1.
    8880022    1    1    2    0    0  0.86748422610E+02 -0.23674540392E+02 -0.96985763213E+03  0.98595195233E+03  0.15294330000E+03 0.  0.
<mgrwt>
<rscale>  0 0.47779865E+03</rscale>
<asrwt>0</asrwt>
<pdfrwt beam="1">  1        2 0.15962957E+00 0.66475257E+03</pdfrwt>
<pdfrwt beam="2">  1       -2 0.28598818E+00 0.66475257E+03</pdfrwt>
<totfact> 0.97950037E-01</totfact>
</mgrwt>
</event>
<event>
 4    1  0.3057048E-007  0.8919774E+03  0.7818608E-02  0.9539035E-01
          2   -1    0    0  501    0  0.00000000000E+00  0.00000000000E+00  0.20656611226E+04  0.20656611226E+04  0.25500000000E-02 0. -1.
         -2   -1    0    0    0  501 -0.00000000000E+00 -0.00000000000E+00 -0.29752784918E+03  0.29752784919E+03  0.25500000000E-02 0.  1.
    8880023    1    1    2    0    0  0.26965926103E+03  0.53767780202E+03  0.72533187419E+03  0.11496651990E+04  0.65864270000E+03 0.  0.
    8880022    1    1    2    0    0 -0.26965926103E+03 -0.53767780202E+03  0.10428013992E+04  0.12135237728E+04  0.15294330000E+03 0.  0.
<mgrwt>
<rscale>  0 0.81466098E+03</rscale>
<asrwt>0</asrwt>
<pdfrwt beam="1">  1        2 0.31779402E+00 0.89197743E+03</pdfrwt>
<pdfrwt beam="2">  1       -2 0.45773515E-01 0.89197743E+03</pdfrwt>
<totfact> 0.28249008E+01</totfact>
</mgrwt>
</event>
<event>
 4    1  0.3057048E-007  0.7237410E+03  0.7818608E-02  0.9910125E-01
         -2   -1    0    0    0  501 -0.00000000000E+00  0.00000000000E+00  0.21935538534E+03  0.21935538535E+03  0.25500000000E-02 0.  1.
          2   -1    0    0  501    0  0.00000000000E+00 -0.00000000000E+00 -0.18574512547E+04  0.18574512547E+04  0.25500000000E-02 0. -1.
    8880023    1    1    2    0    0 -0.17854299264E+03 -0.24106690203E+03 -0.47437948515E+03  0.86535365815E+03  0.65864270000E+03 0.  0.
    8880022    1    1    2    0    0  0.17854299264E+03  0.24106690203E+03 -0.11637163842E+04  0.12114529819E+04  0.15294330000E+03 0.  0.
<mgrwt>
<rscale>  0 0.59773081E+03</rscale>
<asrwt>0</asrwt>
<pdfrwt beam="1">  1        2 0.28576172E+00 0.72374102E+03</pdfrwt>
<pdfrwt beam="2">  1       -2 0.33746984E-01 0.72374102E+03</pdfrwt>
<totfact> 0.67734628E+01</totfact>
</mgrwt>
</event>
<event>
 4    1  0.3057048E-007  0.6590258E+03  0.7818608E-02  0.1025177E+00
          2   -1    0    0  501    0  0.00000000000E+00  0.00000000000E+00  0.10799577953E+04  0.10799577953E+04  0.25500000000E-02 0. -1.
         -2   -1    0    0    0  501 -0.00000000000E+00 -0.00000000000E+00 -0.23662274856E+03  0.23662274858E+03  0.25500000000E-02 0.  1.
    8880023    1    1    2    0    0 -0.20098728746E+02 -0.10044195163E+02  0.25230992727E+03  0.70567368551E+03  0.65864270000E+03 0.  1.
    8880022    1    1    2    0    0  0.20098728746E+02  0.10044195163E+02  0.59102511950E+03  0.61090685841E+03  0.15294330000E+03 0.  0.
<mgrwt>
<rscale>  0 0.45863650E+03</rscale>
<asrwt>0</asrwt>
<pdfrwt beam="1">  1        2 0.16614735E+00 0.65902583E+03</pdfrwt>
<pdfrwt beam="2">  1       -2 0.36403500E-01 0.65902583E+03</pdfrwt>
<totfact> 0.16214570E+02</totfact>
</mgrwt>
</event>
<event>
 4    1  0.3057048E-007  0.1724353E+04  0.7818608E-02  0.8765577E-01
          2   -1    0    0  501    0  0.00000000000E+00  0.00000000000E+00  0.31260895209E+04  0.31260895209E+04  0.25500000000E-02 0. -1.
         -2   -1    0    0    0  501 -0.00000000000E+00 -0.00000000000E+00 -0.11836210367E+04  0.11836210367E+04  0.25500000000E-02 0.  1.
    8880023    1    1    2    0    0  0.12604053276E+04 -0.97517268946E+03 -0.84918346016E+02  0.17264427867E+04  0.65864270000E+03 0.  0.
    8880022    1    1    2    0    0 -0.12604053276E+04  0.97517268946E+03  0.20273868302E+04  0.25832677710E+04  0.15294330000E+03 0.  0.
<mgrwt>
<rscale>  0 0.16926326E+04</rscale>
<asrwt>0</asrwt>
<pdfrwt beam="1">  1        2 0.48093685E+00 0.17243531E+04</pdfrwt>
<pdfrwt beam="2">  1       -2 0.18209555E+00 0.17243531E+04</pdfrwt>
<totfact> 0.23395194E-01</totfact>
</mgrwt>
</event>
<event>
 4    1  0.3057048E-007  0.7388584E+03  0.7818608E-02  0.9863285E-01
         -2   -1    0    0    0  501 -0.00000000000E+00  0.00000000000E+00  0.27396302219E+03  0.27396302220E+03  0.25500000000E-02 0.  1.
          2   -1    0    0  501    0  0.00000000000E+00 -0.00000000000E+00 -0.38828007802E+04  0.38828007802E+04  0.25500000000E-02 0. -1.
    8880023    1    1    2    0    0 -0.33045758144E+03  0.53845938738E+02 -0.25326205131E+03  0.78105919823E+03  0.65864270000E+03 0.  1.
    8880022    1    1    2    0    0  0.33045758144E+03 -0.53845938738E+02 -0.33555757067E+04  0.33757046041E+04  0.15294330000E+03 0.  0.
<mgrwt>
<rscale>  0 0.62074130E+03</rscale>
<asrwt>0</asrwt>
<pdfrwt beam="1">  1        2 0.59735392E+00 0.73885845E+03</pdfrwt>
<pdfrwt beam="2">  1       -2 0.42148160E-01 0.73885845E+03</pdfrwt>
<totfact> 0.25019171E+00</totfact>
</mgrwt>
</event>
<event>
 4    1  0.3057048E-007  0.7954002E+03  0.7818608E-02  0.9720832E-01
          2   -1    0    0  501    0  0.00000000000E+00  0.00000000000E+00  0.20732923705E+04  0.20732923705E+04  0.25500000000E-02 0. -1.
         -2   -1    0    0    0  501 -0.00000000000E+00 -0.00000000000E+00 -0.28609829058E+03  0.28609829059E+03  0.25500000000E-02 0.  1.
    8880023    1    1    2    0    0 -0.40992692897E+03 -0.17553098025E+03  0.39209315347E+03  0.88679110245E+03  0.65864270000E+03 0.  1.
    8880022    1    1    2    0    0  0.40992692897E+03  0.17553098025E+03  0.13951009264E+04  0.14725995586E+04  0.15294330000E+03 0.  0.
<mgrwt>
<rscale>  0 0.69789926E+03</rscale>
<asrwt>0</asrwt>
<pdfrwt beam="1">  1        2 0.31896806E+00 0.79540016E+03</pdfrwt>
<pdfrwt beam="2">  1       -2 0.44015121E-01 0.79540016E+03</pdfrwt>
<totfact> 0.30599423E+01</totfact>
</mgrwt>
</event>
<event>
 4    1  0.3057048E-007  0.7573443E+03  0.7818608E-02  0.9812032E-01
         -2   -1    0    0    0  501 -0.00000000000E+00  0.00000000000E+00  0.49002483416E+03  0.49002483417E+03  0.25500000000E-02 0.  1.
          2   -1    0    0  501    0  0.00000000000E+00 -0.00000000000E+00 -0.13211069848E+04  0.13211069848E+04  0.25500000000E-02 0. -1.
    8880023    1    1    2    0    0 -0.27477574601E+03  0.25349261772E+03  0.13018266583E+03  0.76845165793E+03  0.65864270000E+03 0.  1.
    8880022    1    1    2    0    0  0.27477574601E+03 -0.25349261772E+03 -0.96126481646E+03  0.10426801610E+04  0.15294330000E+03 0.  0.
<mgrwt>
<rscale>  0 0.64720824E+03</rscale>
<asrwt>0</asrwt>
<pdfrwt beam="1">  1        2 0.20324723E+00 0.75734432E+03</pdfrwt>
<pdfrwt beam="2">  1       -2 0.75388436E-01 0.75734432E+03</pdfrwt>
<totfact> 0.25870492E+01</totfact>
</mgrwt>
</event>
<event>
 4    1  0.3057048E-007  0.9007054E+03  0.7818608E-02  0.9524900E-01
          2   -1    0    0  501    0  0.00000000000E+00  0.00000000000E+00  0.18107733467E+04  0.18107733467E+04  0.25500000000E-02 0. -1.
         -2   -1    0    0    0  501 -0.00000000000E+00 -0.00000000000E+00 -0.40096089563E+03  0.40096089564E+03  0.25500000000E-02 0.  1.
    8880023    1    1    2    0    0 -0.57057304773E+03  0.22782985117E+03  0.32857201031E+03  0.95876473449E+03  0.65864270000E+03 0.  0.
    8880022    1    1    2    0    0  0.57057304773E+03 -0.22782985117E+03  0.10812404408E+04  0.12529695079E+04  0.15294330000E+03 0.  0.
<mgrwt>
<rscale>  0 0.82472669E+03</rscale>
<asrwt>0</asrwt>
<pdfrwt beam="1">  1        2 0.27858051E+00 0.90070542E+03</pdfrwt>
<pdfrwt beam="2">  1       -2 0.61686292E-01 0.90070542E+03</pdfrwt>
<totfact> 0.21021719E+01</totfact>
</mgrwt>
</event>
<event>
 4    1  0.3057048E-007  0.7721336E+03  0.7818608E-02  0.9774651E-01
          2   -1    0    0  501    0  0.00000000000E+00  0.00000000000E+00  0.22947317165E+04  0.22947317165E+04  0.25500000000E-02 0. -1.
         -2   -1    0    0    0  501 -0.00000000000E+00 -0.00000000000E+00 -0.26150231260E+03  0.26150231261E+03  0.25500000000E-02 0.  1.
    8880023    1    1    2    0    0 -0.40264258990E+03 -0.16094587310E+02  0.40496016120E+03  0.87188475693E+03  0.65864270000E+03 0.  0.
    8880022    1    1    2    0    0  0.40264258990E+03  0.16094587310E+02  0.16282692427E+04  0.16843492721E+04  0.15294330000E+03 0.  0.
<mgrwt>
<rscale>  0 0.66740860E+03</rscale>
<asrwt>0</asrwt>
<pdfrwt beam="1">  1        2 0.35303565E+00 0.77213360E+03</pdfrwt>
<pdfrwt beam="2">  1       -2 0.40231125E-01 0.77213360E+03</pdfrwt>
<totfact> 0.27656132E+01</totfact>
</mgrwt>
</event>
<event>
 4    1  0.3057048E-007  0.8403659E+03  0.7818608E-02  0.9629491E-01
         -2   -1    0    0    0  501 -0.00000000000E+00  0.00000000000E+00  0.79847437032E+03  0.79847437033E+03  0.25500000000E-02 0.  1.
          2   -1    0    0  501    0  0.00000000000E+00 -0.00000000000E+00 -0.13533354649E+04  0.13533354649E+04  0.25500000000E-02 0. -1.
    8880023    1    1    2    0    0  0.47750724354E+03 -0.21069284499E+03  0.49078183972E+03  0.97318120770E+03  0.65864270000E+03 0.  1.
    8880022    1    1    2    0    0 -0.47750724354E+03  0.21069284499E+03 -0.10456429343E+04  0.11786286275E+04  0.15294330000E+03 0.  0.
<mgrwt>
<rscale>  0 0.75374667E+03</rscale>
<asrwt>0</asrwt>
<pdfrwt beam="1">  1        2 0.20820546E+00 0.84036590E+03</pdfrwt>
<pdfrwt beam="2">  1       -2 0.12284221E+00 0.84036590E+03</pdfrwt>
<totfact> 0.77924483E+00</totfact>
</mgrwt>
</event>
<event>
 4    1  0.3057048E-007  0.7066476E+03  0.7818608E-02  0.9970667E-01
          2   -1    0    0  501    0  0.00000000000E+00  0.00000000000E+00  0.27545737119E+04  0.27545737119E+04  0.25500000000E-02 0. -1.
         -2   -1    0    0    0  501 -0.00000000000E+00 -0.00000000000E+00 -0.14110653088E+03  0.14110653090E+03  0.25500000000E-02 0.  1.
    8880023    1    1    2    0    0  0.18427292627E+03  0.17771915388E+03  0.84175754590E+03  0.10990480341E+04  0.65864270000E+03 0.  0.
    8880022    1    1    2    0    0 -0.18427292627E+03 -0.17771915388E+03  0.17717096351E+04  0.17966322087E+04  0.15294330000E+03 0.  0.
<mgrwt>
<rscale>  0 0.56955357E+03</rscale>
<asrwt>0</asrwt>
<pdfrwt beam="1">  1        2 0.42378056E+00 0.70664759E+03</pdfrwt>
<pdfrwt beam="2">  1       -2 0.21708698E-01 0.70664759E+03</pdfrwt>
<totfact> 0.47956605E+01</totfact>
</mgrwt>
</event>
<event>
 4    1  0.3057048E-007  0.7561221E+03  0.7818608E-02  0.9815252E-01
         -2   -1    0    0    0  501 -0.00000000000E+00  0.00000000000E+00  0.24181796916E+03  0.24181796917E+03  0.25500000000E-02 0.  1.
          2   -1    0    0  501    0  0.00000000000E+00 -0.00000000000E+00 -0.24303937360E+04  0.24303937360E+04  0.25500000000E-02 0. -1.
    8880023    1    1    2    0    0  0.16761363359E+03 -0.33138518436E+03 -0.43309324261E+03  0.87137272945E+03  0.65864270000E+03 0. -1.
    8880022    1    1    2    0    0 -0.16761363359E+03  0.33138518436E+03 -0.17554825243E+04  0.18008389758E+04  0.15294330000E+03 0.  0.
<mgrwt>
<rscale>  0 0.64550405E+03</rscale>
<asrwt>0</asrwt>
<pdfrwt beam="1">  1        2 0.37390671E+00 0.75612213E+03</pdfrwt>
<pdfrwt beam="2">  1       -2 0.37202766E-01 0.75612213E+03</pdfrwt>
<totfact> 0.27090130E+01</totfact>
</mgrwt>
</event>
<event>
 4    1  0.3057048E-007  0.1618290E+04  0.7818608E-02  0.8830330E-01
         -2   -1    0    0    0  501 -0.00000000000E+00  0.00000000000E+00  0.20852926137E+04  0.20852926137E+04  0.25500000000E-02 0.  1.
          2   -1    0    0  501    0  0.00000000000E+00 -0.00000000000E+00 -0.14499065201E+04  0.14499065201E+04  0.25500000000E-02 0. -1.
    8880023    1    1    2    0    0  0.20789395553E+03  0.14634996673E+04  0.11245788673E+04  0.19706696852E+04  0.65864270000E+03 0.  0.
    8880022    1    1    2    0    0 -0.20789395553E+03 -0.14634996673E+04 -0.48919277369E+03  0.15645294487E+04  0.15294330000E+03 0.  0.
<mgrwt>
<rscale>  0 0.15841743E+04</rscale>
<asrwt>0</asrwt>
<pdfrwt beam="1">  1        2 0.22306254E+00 0.16182896E+04</pdfrwt>
<pdfrwt beam="2">  1       -2 0.32081425E+00 0.16182896E+04</pdfrwt>
<totfact> 0.29838175E-01</totfact>
</mgrwt>
</event>
<event>
 4    1  0.3057048E-007  0.6686986E+03  0.7818608E-02  0.1016613E+00
         -2   -1    0    0    0  501 -0.00000000000E+00  0.00000000000E+00  0.12668162288E+03  0.12668162291E+03  0.25500000000E-02 0.  1.
          2   -1    0    0  501    0  0.00000000000E+00 -0.00000000000E+00 -0.23859603828E+04  0.23859603828E+04  0.25500000000E-02 0. -1.
    8880023    1    1    2    0    0  0.47108393746E+02  0.10549116032E+03 -0.80826617368E+03  0.10490243083E+04  0.65864270000E+03 0.  1.
    8880022    1    1    2    0    0 -0.47108393746E+02 -0.10549116032E+03 -0.14510125862E+04  0.14636176974E+04  0.15294330000E+03 0.  0.
<mgrwt>
<rscale>  0 0.48928744E+03</rscale>
<asrwt>0</asrwt>
<pdfrwt beam="1">  1        2 0.36707079E+00 0.66869858E+03</pdfrwt>
<pdfrwt beam="2">  1       -2 0.19489482E-01 0.66869858E+03</pdfrwt>
<totfact> 0.94572086E+01</totfact>
</mgrwt>
</event>
<event>
 4    1  0.4222989E-007  0.6997390E+03  0.7818608E-02  0.9998286E-01
         -2   -1    0    0    0  501 -0.00000000000E+00  0.00000000000E+00  0.13419819124E+04  0.13419819124E+04  0.25500000000E-02 0.  1.
          2   -1    0    0  501    0  0.00000000000E+00 -0.00000000000E+00 -0.13685037283E+04  0.13685037283E+04  0.25500000000E-02 0. -1.
    8880023    1    1    2    0    0  0.10883117304E+01 -0.23626951937E+03  0.12341822856E+04  0.14187461333E+04  0.65864270000E+03 0.  1.
    8880022    1    1    2    0    0 -0.10883117304E+01  0.23626951937E+03 -0.12607041016E+04  0.12917395074E+04  0.15294330000E+03 0.  0.
<mgrwt>
<rscale>  0 0.55725473E+03</rscale>
<asrwt>0</asrwt>
<pdfrwt beam="1">  1        2 0.21053903E+00 0.69973901E+03</pdfrwt>
<pdfrwt beam="2">  1       -2 0.20645876E+00 0.69973901E+03</pdfrwt>
<totfact> 0.18943917E+00</totfact>
</mgrwt>
</event>
<event>
 4    1  0.3057048E-007  0.1362276E+04  0.7818608E-02  0.9013564E-01
          2   -1    0    0  501    0  0.00000000000E+00  0.00000000000E+00  0.18946734733E+04  0.18946734733E+04  0.25500000000E-02 0. -1.
         -2   -1    0    0    0  501 -0.00000000000E+00 -0.00000000000E+00 -0.11487390149E+04  0.11487390149E+04  0.25500000000E-02 0.  1.
    8880023    1    1    2    0    0 -0.16923152511E+03 -0.11804004623E+04 -0.36088722682E+03  0.14092673122E+04  0.65864270000E+03 0.  1.
    8880022    1    1    2    0    0  0.16923152511E+03  0.11804004623E+04  0.11068216852E+04  0.16341451760E+04  0.15294330000E+03 0.  0.
<mgrwt>
<rscale>  0 0.13203721E+04</rscale>
<asrwt>0</asrwt>
<pdfrwt beam="1">  1        2 0.29148823E+00 0.13622756E+04</pdfrwt>
<pdfrwt beam="2">  1       -2 0.17672908E+00 0.13622756E+04</pdfrwt>
<totfact> 0.13941162E+00</totfact>
</mgrwt>
</event>
<event>
 4    1  0.3057048E-007  0.9105806E+03  0.7818608E-02  0.9509255E-01
         -2   -1    0    0    0  501 -0.00000000000E+00  0.00000000000E+00  0.11097564772E+04  0.11097564772E+04  0.25500000000E-02 0.  1.
          2   -1    0    0  501    0  0.00000000000E+00 -0.00000000000E+00 -0.13958732930E+04  0.13958732930E+04  0.25500000000E-02 0. -1.
    8880023    1    1    2    0    0  0.11042217350E+03  0.61899414605E+03  0.81918611140E+03  0.12248358668E+04  0.65864270000E+03 0.  1.
    8880022    1    1    2    0    0 -0.11042217350E+03 -0.61899414605E+03 -0.11053029272E+04  0.12807939034E+04  0.15294330000E+03 0.  0.
<mgrwt>
<rscale>  0 0.83604884E+03</rscale>
<asrwt>0</asrwt>
<pdfrwt beam="1">  1        2 0.21474974E+00 0.91058059E+03</pdfrwt>
<pdfrwt beam="2">  1       -2 0.17073177E+00 0.91058059E+03</pdfrwt>
<totfact> 0.30734022E+00</totfact>
</mgrwt>
</event>
<event>
 4    1  0.3057048E-007  0.1124808E+04  0.7818608E-02  0.9233926E-01
          2   -1    0    0  501    0  0.00000000000E+00  0.00000000000E+00  0.14251253969E+04  0.14251253969E+04  0.25500000000E-02 0. -1.
         -2   -1    0    0    0  501 -0.00000000000E+00 -0.00000000000E+00 -0.10017870415E+04  0.10017870415E+04  0.25500000000E-02 0.  1.
    8880023    1    1    2    0    0  0.21227425311E+03 -0.88674779696E+03 -0.39507800554E+03  0.11921740018E+04  0.65864270000E+03 0.  0.
    8880022    1    1    2    0    0 -0.21227425311E+03  0.88674779696E+03  0.81841636088E+03  0.12347384366E+04  0.15294330000E+03 0.  0.
<mgrwt>
<rscale>  0 0.10710015E+04</rscale>
<asrwt>0</asrwt>
<pdfrwt beam="1">  1        2 0.21925006E+00 0.11248076E+04</pdfrwt>
<pdfrwt beam="2">  1       -2 0.15412108E+00 0.11248076E+04</pdfrwt>
<totfact> 0.38202974E+00</totfact>
</mgrwt>
</event>
<event>
 4    1  0.3057048E-007  0.1052509E+04  0.7818608E-02  0.9315872E-01
          2   -1    0    0  501    0  0.00000000000E+00  0.00000000000E+00  0.32055699217E+04  0.32055699217E+04  0.25500000000E-02 0. -1.
         -2   -1    0    0    0  501 -0.00000000000E+00 -0.00000000000E+00 -0.48503467270E+03  0.48503467271E+03  0.25500000000E-02 0.  1.
    8880023    1    1    2    0    0 -0.75412547784E+03 -0.32443701714E+03  0.24866287470E+03  0.10814841866E+04  0.65864270000E+03 0.  0.
    8880022    1    1    2    0    0  0.75412547784E+03  0.32443701714E+03  0.24718723742E+04  0.26091204077E+04  0.15294330000E+03 0.  0.
<mgrwt>
<rscale>  0 0.99334737E+03</rscale>
<asrwt>0</asrwt>
<pdfrwt beam="1">  1        2 0.49316461E+00 0.10525088E+04</pdfrwt>
<pdfrwt beam="2">  1       -2 0.74620718E-01 0.10525088E+04</pdfrwt>
<totfact> 0.21154758E+00</totfact>
</mgrwt>
</event>
<event>
 4    1  0.3057048E-007  0.8054824E+03  0.7818608E-02  0.9699065E-01
         -2   -1    0    0    0  501 -0.00000000000E+00  0.00000000000E+00  0.72294874468E+03  0.72294874469E+03  0.25500000000E-02 0.  1.
          2   -1    0    0  501    0  0.00000000000E+00 -0.00000000000E+00 -0.80512305944E+03  0.80512305944E+03  0.25500000000E-02 0. -1.
    8880023    1    1    2    0    0 -0.18694683144E+03 -0.42431422076E+03  0.34791631291E+03  0.87740962086E+03  0.65864270000E+03 0.  0.
    8880022    1    1    2    0    0  0.18694683144E+03  0.42431422076E+03 -0.43009062767E+03  0.65066218327E+03  0.15294330000E+03 0.  0.
<mgrwt>
<rscale>  0 0.71072489E+03</rscale>
<asrwt>0</asrwt>
<pdfrwt beam="1">  1        2 0.12386509E+00 0.80548239E+03</pdfrwt>
<pdfrwt beam="2">  1       -2 0.11122288E+00 0.80548239E+03</pdfrwt>
<totfact> 0.22050116E+01</totfact>
</mgrwt>
</event>
<event>
 4    1  0.3057048E-007  0.7602634E+03  0.7818608E-02  0.9804426E-01
          2   -1    0    0  501    0  0.00000000000E+00  0.00000000000E+00  0.12827742695E+04  0.12827742695E+04  0.25500000000E-02 0. -1.
         -2   -1    0    0    0  501 -0.00000000000E+00 -0.00000000000E+00 -0.34846130407E+03  0.34846130408E+03  0.25500000000E-02 0.  1.
    8880023    1    1    2    0    0  0.37842858250E+03  0.31336863749E+02  0.19296210078E+03  0.78436902647E+03  0.65864270000E+03 0. -1.
    8880022    1    1    2    0    0 -0.37842858250E+03 -0.31336863749E+02  0.74135086465E+03  0.84686654711E+03  0.15294330000E+03 0.  0.
<mgrwt>
<rscale>  0 0.65125553E+03</rscale>
<asrwt>0</asrwt>
<pdfrwt beam="1">  1        2 0.19734988E+00 0.76026337E+03</pdfrwt>
<pdfrwt beam="2">  1       -2 0.53609432E-01 0.76026337E+03</pdfrwt>
<totfact> 0.56439061E+01</totfact>
</mgrwt>
</event>
<event>
 4    1  0.3057048E-007  0.1143388E+04  0.7818608E-02  0.9214220E-01
         -2   -1    0    0    0  501 -0.00000000000E+00  0.00000000000E+00  0.54738690420E+03  0.54738690421E+03  0.25500000000E-02 0.  1.
          2   -1    0    0  501    0  0.00000000000E+00 -0.00000000000E+00 -0.26822466097E+04  0.26822466097E+04  0.25500000000E-02 0. -1.
    8880023    1    1    2    0    0  0.73009833074E+03  0.58350877542E+03 -0.32781203592E+03  0.11894523953E+04  0.65864270000E+03 0.  1.
    8880022    1    1    2    0    0 -0.73009833074E+03 -0.58350877542E+03 -0.18070476696E+04  0.20401811186E+04  0.15294330000E+03 0. -1.
<mgrwt>
<rscale>  0 0.10907854E+04</rscale>
<asrwt>0</asrwt>
<pdfrwt beam="1">  1        2 0.41265332E+00 0.11433881E+04</pdfrwt>
<pdfrwt beam="2">  1       -2 0.84213372E-01 0.11433881E+04</pdfrwt>
<totfact> 0.33308699E+00</totfact>
</mgrwt>
</event>
<event>
 4    1  0.3057048E-007  0.7119373E+03  0.7818608E-02  0.9950876E-01
         -2   -1    0    0    0  501 -0.00000000000E+00  0.00000000000E+00  0.45496165189E+03  0.45496165190E+03  0.25500000000E-02 0.  1.
          2   -1    0    0  501    0  0.00000000000E+00 -0.00000000000E+00 -0.58041865206E+03  0.58041865207E+03  0.25500000000E-02 0. -1.
    8880023    1    1    2    0    0  0.13621112587E+03  0.23343304929E+03 -0.13531348795E+03  0.72468227907E+03  0.65864270000E+03 0.  1.
    8880022    1    1    2    0    0 -0.13621112587E+03 -0.23343304929E+03  0.98564877807E+01  0.31069802490E+03  0.15294330000E+03 0.  0.
<mgrwt>
<rscale>  0 0.57857712E+03</rscale>
<asrwt>0</asrwt>
<pdfrwt beam="1">  1        2 0.89295177E-01 0.71193726E+03</pdfrwt>
<pdfrwt beam="2">  1       -2 0.69994100E-01 0.71193726E+03</pdfrwt>
<totfact> 0.97292500E+01</totfact>
</mgrwt>
</event>
<event>
 4    1  0.3057048E-007  0.6804663E+03  0.7818608E-02  0.1009061E+00
         -2   -1    0    0    0  501 -0.00000000000E+00  0.00000000000E+00  0.64879972808E+03  0.64879972808E+03  0.25500000000E-02 0.  1.
          2   -1    0    0  501    0  0.00000000000E+00 -0.00000000000E+00 -0.53040963408E+03  0.53040963409E+03  0.25500000000E-02 0. -1.
    8880023    1    1    2    0    0 -0.17088999528E+03  0.45564215590E+01  0.42048252257E+03  0.79989993719E+03  0.65864270000E+03 0.  1.
    8880022    1    1    2    0    0  0.17088999528E+03 -0.45564215590E+01 -0.30209242857E+03  0.37930942498E+03  0.15294330000E+03 0.  0.
<mgrwt>
<rscale>  0 0.51849489E+03</rscale>
<asrwt>0</asrwt>
<pdfrwt beam="1">  1        2 0.81601482E-01 0.68046628E+03</pdfrwt>
<pdfrwt beam="2">  1       -2 0.99815343E-01 0.68046628E+03</pdfrwt>
<totfact> 0.48484857E+01</totfact>
</mgrwt>
</event>
<event>
 4    1  0.3057048E-007  0.9787103E+03  0.7818608E-02  0.9409957E-01
          2   -1    0    0  501    0  0.00000000000E+00  0.00000000000E+00  0.15570784497E+04  0.15570784497E+04  0.25500000000E-02 0. -1.
         -2   -1    0    0    0  501 -0.00000000000E+00 -0.00000000000E+00 -0.51077211043E+03  0.51077211044E+03  0.25500000000E-02 0.  1.
    8880023    1    1    2    0    0  0.71508121446E+03 -0.11279364912E+03  0.86472008317E+03  0.13059917990E+04  0.65864270000E+03 0.  0.
    8880022    1    1    2    0    0 -0.71508121446E+03  0.11279364912E+03  0.18158625613E+03  0.76185876118E+03  0.15294330000E+03 0.  0.
<mgrwt>
<rscale>  0 0.91260780E+03</rscale>
<asrwt>0</asrwt>
<pdfrwt beam="1">  1        2 0.23955053E+00 0.97871025E+03</pdfrwt>
<pdfrwt beam="2">  1       -2 0.78580324E-01 0.97871025E+03</pdfrwt>
<totfact> 0.16957319E+01</totfact>
</mgrwt>
</event>
<event>
 4    1  0.3057048E-007  0.7337977E+03  0.7818608E-02  0.9878397E-01
          2   -1    0    0  501    0  0.00000000000E+00  0.00000000000E+00  0.42231709568E+04  0.42231709568E+04  0.25500000000E-02 0. -1.
         -2   -1    0    0    0  501 -0.00000000000E+00 -0.00000000000E+00 -0.86232929984E+02  0.86232930022E+02  0.25500000000E-02 0.  1.
    8880023    1    1    2    0    0  0.26822815760E+03  0.18083849477E+03  0.17778580877E+04  0.19233404514E+04  0.65864270000E+03 0.  0.
    8880022    1    1    2    0    0 -0.26822815760E+03 -0.18083849477E+03  0.23590799392E+04  0.23860634355E+04  0.15294330000E+03 0.  0.
<mgrwt>
<rscale>  0 0.61319798E+03</rscale>
<asrwt>0</asrwt>
<pdfrwt beam="1">  1        2 0.64971871E+00 0.73379773E+03</pdfrwt>
<pdfrwt beam="2">  1       -2 0.13266603E-01 0.73379773E+03</pdfrwt>
<totfact> 0.10684331E+01</totfact>
</mgrwt>
</event>
<event>
 4    1  0.3057048E-007  0.8172325E+03  0.7818608E-02  0.9674704E-01
         -2   -1    0    0    0  501 -0.00000000000E+00  0.00000000000E+00  0.63355157216E+03  0.63355157216E+03  0.25500000000E-02 0.  1.
          2   -1    0    0  501    0  0.00000000000E+00 -0.00000000000E+00 -0.12513472337E+04  0.12513472337E+04  0.25500000000E-02 0. -1.
    8880023    1    1    2    0    0 -0.46653002729E+02  0.48154149620E+03  0.27140192658E+03  0.86112015843E+03  0.65864270000E+03 0.  1.
    8880022    1    1    2    0    0  0.46653002729E+02 -0.48154149620E+03 -0.88919758816E+03  0.10237786475E+04  0.15294330000E+03 0.  0.
<mgrwt>
<rscale>  0 0.72543065E+03</rscale>
<asrwt>0</asrwt>
<pdfrwt beam="1">  1        2 0.19251496E+00 0.81723248E+03</pdfrwt>
<pdfrwt beam="2">  1       -2 0.97469473E-01 0.81723248E+03</pdfrwt>
<totfact> 0.15684737E+01</totfact>
</mgrwt>
</event>
<event>
 4    1  0.3057048E-007  0.9770002E+03  0.7818608E-02  0.9412287E-01
         -2   -1    0    0    0  501 -0.00000000000E+00  0.00000000000E+00  0.22864644934E+03  0.22864644936E+03  0.25500000000E-02 0.  1.
          2   -1    0    0  501    0  0.00000000000E+00 -0.00000000000E+00 -0.33737673833E+04  0.33737673833E+04  0.25500000000E-02 0. -1.
    8880023    1    1    2    0    0 -0.18887997842E+03  0.69645072960E+03 -0.21693639387E+04  0.23792161251E+04  0.65864270000E+03 0.  0.
    8880022    1    1    2    0    0  0.18887997842E+03 -0.69645072960E+03 -0.97575699523E+03  0.12231977076E+04  0.15294330000E+03 0. -1.
<mgrwt>
<rscale>  0 0.91071383E+03</rscale>
<asrwt>0</asrwt>
<pdfrwt beam="1">  1        2 0.51904110E+00 0.97700024E+03</pdfrwt>
<pdfrwt beam="2">  1       -2 0.35176379E-01 0.97700024E+03</pdfrwt>
<totfact> 0.78117833E+00</totfact>
</mgrwt>
</event>
<event>
 4    1  0.3057048E-007  0.8156034E+03  0.7818608E-02  0.9678021E-01
         -2   -1    0    0    0  501 -0.00000000000E+00  0.00000000000E+00  0.72074613778E+03  0.72074613778E+03  0.25500000000E-02 0.  1.
          2   -1    0    0  501    0  0.00000000000E+00 -0.00000000000E+00 -0.78349073272E+03  0.78349073273E+03  0.25500000000E-02 0. -1.
    8880023    1    1    2    0    0 -0.43552112854E+03  0.20425471125E+03  0.31443332636E+03  0.87411507450E+03  0.65864270000E+03 0.  1.
    8880022    1    1    2    0    0  0.43552112854E+03 -0.20425471125E+03 -0.37717792131E+03  0.63012179601E+03  0.15294330000E+03 0.  0.
<mgrwt>
<rscale>  0 0.72340602E+03</rscale>
<asrwt>0</asrwt>
<pdfrwt beam="1">  1        2 0.12053704E+00 0.81560336E+03</pdfrwt>
<pdfrwt beam="2">  1       -2 0.11088402E+00 0.81560336E+03</pdfrwt>
<totfact> 0.23009964E+01</totfact>
</mgrwt>
</event>
<event>
 4    1  0.3057048E-007  0.6868948E+03  0.7818608E-02  0.1005665E+00
          2   -1    0    0  501    0  0.00000000000E+00  0.00000000000E+00  0.17181304474E+04  0.17181304474E+04  0.25500000000E-02 0. -1.
         -2   -1    0    0    0  501 -0.00000000000E+00 -0.00000000000E+00 -0.36598843428E+03  0.36598843429E+03  0.25500000000E-02 0.  1.
    8880023    1    1    2    0    0  0.17498786051E+03 -0.85985359849E+02 -0.22556065755E+02  0.68726502588E+03  0.65864270000E+03 0.  1.
    8880022    1    1    2    0    0 -0.17498786051E+03  0.85985359849E+02  0.13746980788E+04  0.13968538558E+04  0.15294330000E+03 0.  0.
<mgrwt>
<rscale>  0 0.53234590E+03</rscale>
<asrwt>0</asrwt>
<pdfrwt beam="1">  1        2 0.26432776E+00 0.68689478E+03</pdfrwt>
<pdfrwt beam="2">  1       -2 0.56305914E-01 0.68689478E+03</pdfrwt>
<totfact> 0.29373151E+01</totfact>
</mgrwt>
</event>
<event>
 4    1  0.3057048E-007  0.6908548E+03  0.7818608E-02  0.1003749E+00
          2   -1    0    0  501    0  0.00000000000E+00  0.00000000000E+00  0.20859472997E+04  0.20859472997E+04  0.25500000000E-02 0. -1.
         -2   -1    0    0    0  501 -0.00000000000E+00 -0.00000000000E+00 -0.17599516195E+03  0.17599516197E+03  0.25500000000E-02 0.  1.
    8880023    1    1    2    0    0 -0.20791712566E+03  0.15511447907E+02  0.56532159446E+03  0.89267510752E+03  0.65864270000E+03 0.  0.
    8880022    1    1    2    0    0  0.20791712566E+03 -0.15511447907E+02  0.13446305433E+04  0.13692673542E+04  0.15294330000E+03 0.  0.
<mgrwt>
<rscale>  0 0.54036515E+03</rscale>
<asrwt>0</asrwt>
<pdfrwt beam="1">  1        2 0.32091498E+00 0.69085479E+03</pdfrwt>
<pdfrwt beam="2">  1       -2 0.27076178E-01 0.69085479E+03</pdfrwt>
<totfact> 0.76855903E+01</totfact>
</mgrwt>
</event>
<event>
 4    1  0.3057048E-007  0.6587262E+03  0.7818608E-02  0.1025501E+00
         -2   -1    0    0    0  501 -0.00000000000E+00  0.00000000000E+00  0.22189862238E+03  0.22189862239E+03  0.25500000000E-02 0.  1.
          2   -1    0    0  501    0  0.00000000000E+00 -0.00000000000E+00 -0.76435898768E+03  0.76435898768E+03  0.25500000000E-02 0. -1.
    8880023    1    1    2    0    0  0.53907593226E+01 -0.89975963325E+01 -0.50055628885E+03  0.82733114386E+03  0.65864270000E+03 0. -1.
    8880022    1    1    2    0    0 -0.53907593226E+01  0.89975963325E+01 -0.41904076446E+02  0.15892646621E+03  0.15294330000E+03 0.  0.
<mgrwt>
<rscale>  0 0.45752629E+03</rscale>
<asrwt>0</asrwt>
<pdfrwt beam="1">  1        2 0.11759369E+00 0.65872621E+03</pdfrwt>
<pdfrwt beam="2">  1       -2 0.34138250E-01 0.65872621E+03</pdfrwt>
<totfact> 0.29729873E+02</totfact>
</mgrwt>
</event>
<event>
 4    1  0.3057048E-007  0.9628936E+03  0.7818608E-02  0.9431801E-01
         -2   -1    0    0    0  501 -0.00000000000E+00  0.00000000000E+00  0.49215231843E+03  0.49215231844E+03  0.25500000000E-02 0.  1.
          2   -1    0    0  501    0  0.00000000000E+00 -0.00000000000E+00 -0.30989805192E+04  0.30989805192E+04  0.25500000000E-02 0. -1.
    8880023    1    1    2    0    0 -0.49166032683E+03  0.50162142757E+03 -0.82471417901E+02  0.96641899537E+03  0.65864270000E+03 0.  1.
    8880022    1    1    2    0    0  0.49166032683E+03 -0.50162142757E+03 -0.25243567828E+04  0.26247138422E+04  0.15294330000E+03 0.  0.
<mgrwt>
<rscale>  0 0.89504183E+03</rscale>
<asrwt>0</asrwt>
<pdfrwt beam="1">  1        2 0.47676622E+00 0.96289363E+03</pdfrwt>
<pdfrwt beam="2">  1       -2 0.75715743E-01 0.96289363E+03</pdfrwt>
<totfact> 0.24273167E+00</totfact>
</mgrwt>
</event>
<event>
 4    1  0.3057048E-007  0.7274016E+03  0.7818608E-02  0.9898293E-01
          2   -1    0    0  501    0  0.00000000000E+00  0.00000000000E+00  0.14107663510E+04  0.14107663510E+04  0.25500000000E-02 0. -1.
         -2   -1    0    0    0  501 -0.00000000000E+00 -0.00000000000E+00 -0.92459232807E+03  0.92459232808E+03  0.25500000000E-02 0.  1.
    8880023    1    1    2    0    0 -0.14181522497E+02  0.30838584892E+03 -0.75432194808E+03  0.10479097075E+04  0.65864270000E+03 0.  1.
    8880022    1    1    2    0    0  0.14181522497E+02 -0.30838584892E+03  0.12404959710E+04  0.12874489716E+04  0.15294330000E+03 0.  0.
<mgrwt>
<rscale>  0 0.60344067E+03</rscale>
<asrwt>0</asrwt>
<pdfrwt beam="1">  1        2 0.21704098E+00 0.72740165E+03</pdfrwt>
<pdfrwt beam="2">  1       -2 0.14224497E+00 0.72740165E+03</pdfrwt>
<totfact> 0.50527687E+00</totfact>
</mgrwt>
</event>
<event>
 4    1  0.3301319E-007  0.1162506E+04  0.7818608E-02  0.9194459E-01
         -2   -1    0    0    0  501 -0.00000000000E+00  0.00000000000E+00  0.12192440319E+04  0.12192440319E+04  0.25500000000E-02 0.  1.
          2   -1    0    0  501    0  0.00000000000E+00 -0.00000000000E+00 -0.24753873240E+04  0.24753873240E+04  0.25500000000E-02 0. -1.
    8880023    1    1    2    0    0 -0.94801797611E+03  0.13737749318E+03  0.80676804132E+03  0.14150249247E+04  0.65864270000E+03 0.  0.
    8880022    1    1    2    0    0  0.94801797611E+03 -0.13737749318E+03 -0.20629113334E+04  0.22796064312E+04  0.15294330000E+03 0.  0.
<mgrwt>
<rscale>  0 0.11110800E+04</rscale>
<asrwt>0</asrwt>
<pdfrwt beam="1">  1        2 0.38082882E+00 0.11625063E+04</pdfrwt>
<pdfrwt beam="2">  1       -2 0.18757601E+00 0.11625063E+04</pdfrwt>
<totfact> 0.56783769E-01</totfact>
</mgrwt>
</event>
<event>
 4    1  0.3057048E-007  0.6868642E+03  0.7818608E-02  0.1005680E+00
         -2   -1    0    0    0  501 -0.00000000000E+00  0.00000000000E+00  0.29500921896E+03  0.29500921897E+03  0.25500000000E-02 0.  1.
          2   -1    0    0  501    0  0.00000000000E+00 -0.00000000000E+00 -0.21248392871E+04  0.21248392871E+04  0.25500000000E-02 0. -1.
    8880023    1    1    2    0    0 -0.92654180925E+02  0.17142776788E+03 -0.12627259590E+03  0.69837472147E+03  0.65864270000E+03 0.  0.
    8880022    1    1    2    0    0  0.92654180925E+02 -0.17142776788E+03 -0.17035574722E+04  0.17214737846E+04  0.15294330000E+03 0. -1.
<mgrwt>
<rscale>  0 0.53228267E+03</rscale>
<asrwt>0</asrwt>
<pdfrwt beam="1">  1        2 0.32689834E+00 0.68686424E+03</pdfrwt>
<pdfrwt beam="2">  1       -2 0.45386035E-01 0.68686424E+03</pdfrwt>
<totfact> 0.27375473E+01</totfact>
</mgrwt>
</event>
<event>
 4    1  0.3057048E-007  0.6831731E+03  0.7818608E-02  0.1007583E+00
          2   -1    0    0  501    0  0.00000000000E+00  0.00000000000E+00  0.16897655968E+04  0.16897655968E+04  0.25500000000E-02 0. -1.
         -2   -1    0    0    0  501 -0.00000000000E+00 -0.00000000000E+00 -0.40286256271E+03  0.40286256272E+03  0.25500000000E-02 0.  1.
    8880023    1    1    2    0    0  0.18084399524E+03  0.14515773345E+02 -0.95670498632E+02  0.68983933554E+03  0.65864270000E+03 0.  1.
    8880022    1    1    2    0    0 -0.18084399524E+03 -0.14515773345E+02  0.13825735327E+04  0.14027888240E+04  0.15294330000E+03 0.  0.
<mgrwt>
<rscale>  0 0.52446713E+03</rscale>
<asrwt>0</asrwt>
<pdfrwt beam="1">  1        2 0.25996394E+00 0.68317309E+03</pdfrwt>
<pdfrwt beam="2">  1       -2 0.61978856E-01 0.68317309E+03</pdfrwt>
<totfact> 0.24888314E+01</totfact>
</mgrwt>
</event>
<event>
 4    1  0.3057048E-007  0.7876635E+03  0.7818608E-02  0.9738134E-01
          2   -1    0    0  501    0  0.00000000000E+00  0.00000000000E+00  0.83165387186E+03  0.83165387186E+03  0.25500000000E-02 0. -1.
         -2   -1    0    0    0  501 -0.00000000000E+00 -0.00000000000E+00 -0.11063009176E+04  0.11063009176E+04  0.25500000000E-02 0.  1.
    8880023    1    1    2    0    0  0.41049086338E+03  0.13453909497E+03 -0.87850248975E+03  0.11799069233E+04  0.65864270000E+03 0.  1.
    8880022    1    1    2    0    0 -0.41049086338E+03 -0.13453909497E+03  0.60385544403E+03  0.75804786610E+03  0.15294330000E+03 0.  0.
<mgrwt>
<rscale>  0 0.68791010E+03</rscale>
<asrwt>0</asrwt>
<pdfrwt beam="1">  1        2 0.12794675E+00 0.78766346E+03</pdfrwt>
<pdfrwt beam="2">  1       -2 0.17020014E+00 0.78766346E+03</pdfrwt>
<totfact> 0.70409310E+00</totfact>
</mgrwt>
</event>
<event>
 4    1  0.3057048E-007  0.6696676E+03  0.7818608E-02  0.1015902E+00
          2   -1    0    0  501    0  0.00000000000E+00  0.00000000000E+00  0.17049441876E+04  0.17049441876E+04  0.25500000000E-02 0. -1.
         -2   -1    0    0    0  501 -0.00000000000E+00 -0.00000000000E+00 -0.25640683929E+03  0.25640683930E+03  0.25500000000E-02 0.  1.
    8880023    1    1    2    0    0 -0.15212763884E+02  0.12005446511E+03  0.20174421307E+03  0.69939648022E+03  0.65864270000E+03 0.  1.
    8880022    1    1    2    0    0  0.15212763884E+02 -0.12005446511E+03  0.12467931352E+04  0.12619545467E+04  0.15294330000E+03 0.  0.
<mgrwt>
<rscale>  0 0.49194783E+03</rscale>
<asrwt>0</asrwt>
<pdfrwt beam="1">  1        2 0.26229910E+00 0.66966761E+03</pdfrwt>
<pdfrwt beam="2">  1       -2 0.39447207E-01 0.66966761E+03</pdfrwt>
<totfact> 0.61194433E+01</totfact>
</mgrwt>
</event>
<event>
 4    1  0.3057048E-007  0.9040673E+03  0.7818608E-02  0.9519534E-01
          2   -1    0    0  501    0  0.00000000000E+00  0.00000000000E+00  0.19606548915E+04  0.19606548915E+04  0.25500000000E-02 0. -1.
         -2   -1    0    0    0  501 -0.00000000000E+00 -0.00000000000E+00 -0.65128536361E+03  0.65128536361E+03  0.25500000000E-02 0.  1.
    8880023    1    1    2    0    0 -0.50350236245E+03 -0.36057285004E+03 -0.24085475216E+03  0.93560067715E+03  0.65864270000E+03 0.  0.
    8880022    1    1    2    0    0  0.50350236245E+03  0.36057285004E+03  0.15502242800E+04  0.16763395779E+04  0.15294330000E+03 0.  0.
<mgrwt>
<rscale>  0 0.82858881E+03</rscale>
<asrwt>0</asrwt>
<pdfrwt beam="1">  1        2 0.30163922E+00 0.90406726E+03</pdfrwt>
<pdfrwt beam="2">  1       -2 0.10019775E+00 0.90406726E+03</pdfrwt>
<totfact> 0.58464163E+00</totfact>
</mgrwt>
</event>
<event>
 4    1  0.3057048E-007  0.8319285E+03  0.7818608E-02  0.9645592E-01
          2   -1    0    0  501    0  0.00000000000E+00  0.00000000000E+00  0.55020822445E+03  0.55020822446E+03  0.25500000000E-02 0. -1.
         -2   -1    0    0    0  501 -0.00000000000E+00 -0.00000000000E+00 -0.99563717815E+03  0.99563717815E+03  0.25500000000E-02 0.  1.
    8880023    1    1    2    0    0  0.47625047720E+03  0.17742695104E+03 -0.56003907940E+03  0.10028702891E+04  0.65864270000E+03 0.  1.
    8880022    1    1    2    0    0 -0.47625047720E+03 -0.17742695104E+03  0.11461012570E+03  0.54297511354E+03  0.15294330000E+03 0.  0.
<mgrwt>
<rscale>  0 0.74350734E+03</rscale>
<asrwt>0</asrwt>
<pdfrwt beam="1">  1        2 0.84647419E-01 0.83192851E+03</pdfrwt>
<pdfrwt beam="2">  1       -2 0.15317495E+00 0.83192851E+03</pdfrwt>
<totfact> 0.15699986E+01</totfact>
</mgrwt>
</event>
<event>
 4    1  0.3057048E-007  0.7219977E+03  0.7818608E-02  0.9915884E-01
          2   -1    0    0  501    0  0.00000000000E+00  0.00000000000E+00  0.10187000829E+04  0.10187000829E+04  0.25500000000E-02 0. -1.
         -2   -1    0    0    0  501 -0.00000000000E+00 -0.00000000000E+00 -0.44094542835E+03  0.44094542836E+03  0.25500000000E-02 0.  1.
    8880023    1    1    2    0    0 -0.20754857701E+03 -0.21069898647E+03 -0.75998619506E+02  0.72598655025E+03  0.65864270000E+03 0.  0.
    8880022    1    1    2    0    0  0.20754857701E+03  0.21069898647E+03  0.65375327401E+03  0.73365896097E+03  0.15294330000E+03 0.  0.
<mgrwt>
<rscale>  0 0.59497643E+03</rscale>
<asrwt>0</asrwt>
<pdfrwt beam="1">  1        2 0.15672309E+00 0.72199770E+03</pdfrwt>
<pdfrwt beam="2">  1       -2 0.67837759E-01 0.72199770E+03</pdfrwt>
<totfact> 0.49660981E+01</totfact>
</mgrwt>
</event>
<event>
 4    1  0.3057048E-007  0.7762827E+03  0.7818608E-02  0.9764642E-01
          2   -1    0    0  501    0  0.00000000000E+00  0.00000000000E+00  0.65817531816E+03  0.65817531816E+03  0.25500000000E-02 0. -1.
         -2   -1    0    0    0  501 -0.00000000000E+00 -0.00000000000E+00 -0.66732145944E+03  0.66732145944E+03  0.25500000000E-02 0.  1.
    8880023    1    1    2    0    0  0.40447502166E+02 -0.40886268223E+03 -0.26212029182E+03  0.81934238692E+03  0.65864270000E+03 0.  0.
    8880022    1    1    2    0    0 -0.40447502166E+02  0.40886268223E+03  0.25297415054E+03  0.50615439069E+03  0.15294330000E+03 0.  1.
<mgrwt>
<rscale>  0 0.67295045E+03</rscale>
<asrwt>0</asrwt>
<pdfrwt beam="1">  1        2 0.10125774E+00 0.77628274E+03</pdfrwt>
<pdfrwt beam="2">  1       -2 0.10266484E+00 0.77628274E+03</pdfrwt>
<totfact> 0.34718455E+01</totfact>
</mgrwt>
</event>
<event>
 4    1  0.3057048E-007  0.6668793E+03  0.7818608E-02  0.1018006E+00
         -2   -1    0    0    0  501 -0.00000000000E+00  0.00000000000E+00  0.19672546083E+03  0.19672546084E+03  0.25500000000E-02 0.  1.
          2   -1    0    0  501    0  0.00000000000E+00 -0.00000000000E+00 -0.96820379353E+03  0.96820379353E+03  0.25500000000E-02 0. -1.
    8880023    1    1    2    0    0 -0.94734415319E+02  0.44081840592E+02 -0.48824438914E+03  0.82650505619E+03  0.65864270000E+03 0.  1.
    8880022    1    1    2    0    0  0.94734415319E+02 -0.44081840592E+02 -0.28323394356E+03  0.33842419818E+03  0.15294330000E+03 0. -1.
<mgrwt>
<rscale>  0 0.48413022E+03</rscale>
<asrwt>0</asrwt>
<pdfrwt beam="1">  1        2 0.14895443E+00 0.66687932E+03</pdfrwt>
<pdfrwt beam="2">  1       -2 0.30265456E-01 0.66687932E+03</pdfrwt>
<totfact> 0.26979715E+02</totfact>
</mgrwt>
</event>
<event>
 4    1  0.3057048E-007  0.9980024E+03  0.7818608E-02  0.9384176E-01
         -2   -1    0    0    0  501 -0.00000000000E+00  0.00000000000E+00  0.81127732135E+03  0.81127732135E+03  0.25500000000E-02 0.  1.
          2   -1    0    0  501    0  0.00000000000E+00 -0.00000000000E+00 -0.14968037594E+04  0.14968037594E+04  0.25500000000E-02 0. -1.
    8880023    1    1    2    0    0 -0.40041256103E+03  0.63393095292E+03  0.31675722855E+03  0.10470644776E+04  0.65864270000E+03 0.  1.
    8880022    1    1    2    0    0  0.40041256103E+03 -0.63393095292E+03 -0.10022836666E+04  0.12610166031E+04  0.15294330000E+03 0.  0.
<mgrwt>
<rscale>  0 0.93389476E+03</rscale>
<asrwt>0</asrwt>
<pdfrwt beam="1">  1        2 0.23027750E+00 0.99800244E+03</pdfrwt>
<pdfrwt beam="2">  1       -2 0.12481190E+00 0.99800244E+03</pdfrwt>
<totfact> 0.60977382E+00</totfact>
</mgrwt>
</event>
<event>
 4    1  0.3057048E-007  0.7318281E+03  0.7818608E-02  0.9884424E-01
         -2   -1    0    0    0  501 -0.00000000000E+00  0.00000000000E+00  0.37908638954E+03  0.37908638955E+03  0.25500000000E-02 0.  1.
          2   -1    0    0  501    0  0.00000000000E+00 -0.00000000000E+00 -0.12708321835E+04  0.12708321835E+04  0.25500000000E-02 0. -1.
    8880023    1    1    2    0    0  0.28985245233E+03 -0.13322051768E+03 -0.46126554322E+02  0.73328031184E+03  0.65864270000E+03 0.  1.
    8880022    1    1    2    0    0 -0.28985245233E+03  0.13322051768E+03 -0.84561923968E+03  0.91663826125E+03  0.15294330000E+03 0.  0.
<mgrwt>
<rscale>  0 0.61022123E+03</rscale>
<asrwt>0</asrwt>
<pdfrwt beam="1">  1        2 0.19551264E+00 0.73182809E+03</pdfrwt>
<pdfrwt beam="2">  1       -2 0.58320984E-01 0.73182809E+03</pdfrwt>
<totfact> 0.48253434E+01</totfact>
</mgrwt>
</event>
<event>
 4    1  0.3057048E-007  0.7455037E+03  0.7818608E-02  0.9844196E-01
          2   -1    0    0  501    0  0.00000000000E+00  0.00000000000E+00  0.13557774561E+04  0.13557774561E+04  0.25500000000E-02 0. -1.
         -2   -1    0    0    0  501 -0.00000000000E+00 -0.00000000000E+00 -0.10092661128E+04  0.10092661128E+04  0.25500000000E-02 0.  1.
    8880023    1    1    2    0    0 -0.30738855630E+03  0.16576440060E+03 -0.83745363266E+03  0.11212066510E+04  0.65864270000E+03 0.  1.
    8880022    1    1    2    0    0  0.30738855630E+03 -0.16576440060E+03  0.11839649760E+04  0.12438369179E+04  0.15294330000E+03 0.  0.
<mgrwt>
<rscale>  0 0.63043734E+03</rscale>
<asrwt>0</asrwt>
<pdfrwt beam="1">  1        2 0.20858115E+00 0.74550370E+03</pdfrwt>
<pdfrwt beam="2">  1       -2 0.15527171E+00 0.74550370E+03</pdfrwt>
<totfact> 0.42971520E+00</totfact>
</mgrwt>
</event>
<event>
 4    1  0.3057048E-007  0.8181105E+03  0.7818608E-02  0.9672924E-01
          2   -1    0    0  501    0  0.00000000000E+00  0.00000000000E+00  0.24242869662E+04  0.24242869662E+04  0.25500000000E-02 0. -1.
         -2   -1    0    0    0  501 -0.00000000000E+00 -0.00000000000E+00 -0.19052018516E+03  0.19052018518E+03  0.25500000000E-02 0.  1.
    8880023    1    1    2    0    0 -0.46236453558E+03 -0.14735543247E+03  0.10890652278E+04  0.13621188875E+04  0.65864270000E+03 0.  0.
    8880022    1    1    2    0    0  0.46236453558E+03  0.14735543247E+03  0.11447015533E+04  0.12526882638E+04  0.15294330000E+03 0.  0.
<mgrwt>
<rscale>  0 0.72652004E+03</rscale>
<asrwt>0</asrwt>
<pdfrwt beam="1">  1        2 0.37296720E+00 0.81811050E+03</pdfrwt>
<pdfrwt beam="2">  1       -2 0.29310800E-01 0.81811050E+03</pdfrwt>
<totfact> 0.42474987E+01</totfact>
</mgrwt>
</event>
<event>
 4    1  0.3057048E-007  0.7248885E+03  0.7818608E-02  0.9906379E-01
          2   -1    0    0  501    0  0.00000000000E+00  0.00000000000E+00  0.49567247296E+03  0.49567247297E+03  0.25500000000E-02 0. -1.
         -2   -1    0    0    0  501 -0.00000000000E+00 -0.00000000000E+00 -0.19652466093E+04  0.19652466093E+04  0.25500000000E-02 0.  1.
    8880023    1    1    2    0    0 -0.25266670021E+02 -0.30168653873E+03 -0.18285837517E+04  0.19670236184E+04  0.65864270000E+03 0.  1.
    8880022    1    1    2    0    0  0.25266670021E+02  0.30168653873E+03  0.35900961535E+03  0.49389546383E+03  0.15294330000E+03 0.  0.
<mgrwt>
<rscale>  0 0.59953122E+03</rscale>
<asrwt>0</asrwt>
<pdfrwt beam="1">  1        2 0.76257305E-01 0.72488853E+03</pdfrwt>
<pdfrwt beam="2">  1       -2 0.30234563E+00 0.72488853E+03</pdfrwt>
<totfact> 0.20012429E+00</totfact>
</mgrwt>
</event>
<event>
 4    1  0.3057048E-007  0.6669443E+03  0.7818608E-02  0.1017955E+00
          2   -1    0    0  501    0  0.00000000000E+00  0.00000000000E+00  0.17788277305E+04  0.17788277305E+04  0.25500000000E-02 0. -1.
         -2   -1    0    0    0  501 -0.00000000000E+00 -0.00000000000E+00 -0.13673477361E+03  0.13673477363E+03  0.25500000000E-02 0.  1.
    8880023    1    1    2    0    0  0.88920440411E+02  0.55656322902E+02  0.74679900186E+03  0.10012609183E+04  0.65864270000E+03 0.  1.
    8880022    1    1    2    0    0 -0.88920440411E+02 -0.55656322902E+02  0.89529395507E+03  0.91430158591E+03  0.15294330000E+03 0.  0.
<mgrwt>
<rscale>  0 0.48431827E+03</rscale>
<asrwt>0</asrwt>
<pdfrwt beam="1">  1        2 0.27366581E+00 0.66694428E+03</pdfrwt>
<pdfrwt beam="2">  1       -2 0.21036118E-01 0.66694428E+03</pdfrwt>
<totfact> 0.17784353E+02</totfact>
</mgrwt>
</event>
<event>
 4    1  0.3057048E-007  0.1090321E+04  0.7818608E-02  0.9271910E-01
         -2   -1    0    0    0  501 -0.00000000000E+00  0.00000000000E+00  0.10660530817E+04  0.10660530817E+04  0.25500000000E-02 0.  1.
          2   -1    0    0  501    0  0.00000000000E+00 -0.00000000000E+00 -0.12366735766E+04  0.12366735766E+04  0.25500000000E-02 0. -1.
    8880023    1    1    2    0    0  0.78846440501E+03  0.36511987568E+03  0.49511730769E+03  0.11974723363E+04  0.65864270000E+03 0.  0.
    8880022    1    1    2    0    0 -0.78846440501E+03 -0.36511987568E+03 -0.66573780261E+03  0.11052543221E+04  0.15294330000E+03 0.  0.
<mgrwt>
<rscale>  0 0.10341050E+04</rscale>
<asrwt>0</asrwt>
<pdfrwt beam="1">  1        2 0.19025747E+00 0.10903205E+04</pdfrwt>
<pdfrwt beam="2">  1       -2 0.16400817E+00 0.10903205E+04</pdfrwt>
<totfact> 0.41637026E+00</totfact>
</mgrwt>
</event>
<event>
 4    1  0.3057048E-007  0.6679192E+03  0.7818608E-02  0.1017201E+00
         -2   -1    0    0    0  501 -0.00000000000E+00  0.00000000000E+00  0.74184248834E+02  0.74184248878E+02  0.25500000000E-02 0.  1.
          2   -1    0    0  501    0  0.00000000000E+00 -0.00000000000E+00 -0.28177666079E+04  0.28177666079E+04  0.25500000000E-02 0. -1.
    8880023    1    1    2    0    0 -0.10383551639E+03  0.39039138427E+02 -0.16150763098E+04  0.17477378412E+04  0.65864270000E+03 0.  1.
    8880022    1    1    2    0    0  0.10383551639E+03 -0.39039138427E+02 -0.11285060493E+04  0.11442130156E+04  0.15294330000E+03 0. -1.
<mgrwt>
<rscale>  0 0.48710514E+03</rscale>
<asrwt>0</asrwt>
<pdfrwt beam="1">  1        2 0.43350247E+00 0.66791921E+03</pdfrwt>
<pdfrwt beam="2">  1       -2 0.11412964E-01 0.66791921E+03</pdfrwt>
<totfact> 0.13209392E+02</totfact>
</mgrwt>
</event>
<event>
 4    1  0.3057048E-007  0.7640017E+03  0.7818608E-02  0.9794856E-01
          2   -1    0    0  501    0  0.00000000000E+00  0.00000000000E+00  0.37428936403E+04  0.37428936403E+04  0.25500000000E-02 0. -1.
         -2   -1    0    0    0  501 -0.00000000000E+00 -0.00000000000E+00 -0.16927827167E+03  0.16927827169E+03  0.25500000000E-02 0.  1.
    8880023    1    1    2    0    0 -0.31283158071E+03  0.22808936612E+03  0.79518659942E+03  0.11027331005E+04  0.65864270000E+03 0.  1.
    8880022    1    1    2    0    0  0.31283158071E+03 -0.22808936612E+03  0.27784287692E+04  0.28094388115E+04  0.15294330000E+03 0.  0.
<mgrwt>
<rscale>  0 0.65639353E+03</rscale>
<asrwt>0</asrwt>
<pdfrwt beam="1">  1        2 0.57582979E+00 0.76400168E+03</pdfrwt>
<pdfrwt beam="2">  1       -2 0.26042811E-01 0.76400168E+03</pdfrwt>
<totfact> 0.78501845E+00</totfact>
</mgrwt>
</event>
<event>
 4    1  0.3057048E-007  0.8520603E+03  0.7818608E-02  0.9607846E-01
         -2   -1    0    0    0  501 -0.00000000000E+00  0.00000000000E+00  0.48195107168E+03  0.48195107169E+03  0.25500000000E-02 0.  1.
          2   -1    0    0  501    0  0.00000000000E+00 -0.00000000000E+00 -0.14553158092E+04  0.14553158092E+04  0.25500000000E-02 0. -1.
    8880023    1    1    2    0    0  0.44353121728E+03  0.30899297780E+03 -0.46352230923E+02  0.85332018411E+03  0.65864270000E+03 0.  0.
    8880022    1    1    2    0    0 -0.44353121728E+03 -0.30899297780E+03 -0.92701250655E+03  0.10839466967E+04  0.15294330000E+03 0.  0.
<mgrwt>
<rscale>  0 0.76779073E+03</rscale>
<asrwt>0</asrwt>
<pdfrwt beam="1">  1        2 0.22389474E+00 0.85206033E+03</pdfrwt>
<pdfrwt beam="2">  1       -2 0.74146319E-01 0.85206033E+03</pdfrwt>
<totfact> 0.22292545E+01</totfact>
</mgrwt>
</event>
<event>
 4    1  0.3057048E-007  0.6628189E+03  0.7818608E-02  0.1021438E+00
          2   -1    0    0  501    0  0.00000000000E+00  0.00000000000E+00  0.14397910519E+04  0.14397910519E+04  0.25500000000E-02 0. -1.
         -2   -1    0    0    0  501 -0.00000000000E+00 -0.00000000000E+00 -0.13347682036E+03  0.13347682039E+03  0.25500000000E-02 0.  1.
    8880023    1    1    2    0    0 -0.36734575391E+02 -0.64570012521E+02  0.12052090004E+04  0.13754481657E+04  0.65864270000E+03 0. -1.
    8880022    1    1    2    0    0  0.36734575391E+02  0.64570012521E+02  0.10110523113E+03  0.19781970661E+03  0.15294330000E+03 0.  0.
<mgrwt>
<rscale>  0 0.47171303E+03</rscale>
<asrwt>0</asrwt>
<pdfrwt beam="1">  1        2 0.22150632E+00 0.66281892E+03</pdfrwt>
<pdfrwt beam="2">  1       -2 0.20534895E-01 0.66281892E+03</pdfrwt>
<totfact> 0.28499915E+02</totfact>
</mgrwt>
</event>
<event>
 4    1  0.3057048E-007  0.7568601E+03  0.7818608E-02  0.9813305E-01
         -2   -1    0    0    0  501 -0.00000000000E+00  0.00000000000E+00  0.85855143365E+03  0.85855143365E+03  0.25500000000E-02 0.  1.
          2   -1    0    0  501    0  0.00000000000E+00 -0.00000000000E+00 -0.10946014622E+04  0.10946014622E+04  0.25500000000E-02 0. -1.
    8880023    1    1    2    0    0  0.15236433909E+03 -0.34031179232E+03  0.63849969478E+03  0.99021163108E+03  0.65864270000E+03 0.  1.
    8880022    1    1    2    0    0 -0.15236433909E+03  0.34031179232E+03 -0.87454972329E+03  0.96294126474E+03  0.15294330000E+03 0.  0.
<mgrwt>
<rscale>  0 0.64653375E+03</rscale>
<asrwt>0</asrwt>
<pdfrwt beam="1">  1        2 0.16840023E+00 0.75686010E+03</pdfrwt>
<pdfrwt beam="2">  1       -2 0.13208484E+00 0.75686010E+03</pdfrwt>
<totfact> 0.93205203E+00</totfact>
</mgrwt>
</event>
<event>
 4    1  0.3057048E-007  0.9331659E+03  0.7818608E-02  0.9474760E-01
         -2   -1    0    0    0  501 -0.00000000000E+00  0.00000000000E+00  0.14065944894E+04  0.14065944894E+04  0.25500000000E-02 0.  1.
          2   -1    0    0  501    0  0.00000000000E+00 -0.00000000000E+00 -0.97537616292E+03  0.97537616292E+03  0.25500000000E-02 0. -1.
    8880023    1    1    2    0    0 -0.56392955334E+03 -0.34492293532E+03  0.10909413928E+04  0.14356015120E+04  0.65864270000E+03 0.  1.
    8880022    1    1    2    0    0  0.56392955334E+03  0.34492293532E+03 -0.65972306635E+03  0.94636914031E+03  0.15294330000E+03 0.  0.
<mgrwt>
<rscale>  0 0.86170517E+03</rscale>
<asrwt>0</asrwt>
<pdfrwt beam="1">  1        2 0.15005787E+00 0.93316589E+03</pdfrwt>
<pdfrwt beam="2">  1       -2 0.21639915E+00 0.93316589E+03</pdfrwt>
<totfact> 0.27258275E+00</totfact>
</mgrwt>
</event>
<event>
 4    1  0.3057048E-007  0.9463445E+03  0.7818608E-02  0.9455393E-01
          2   -1    0    0  501    0  0.00000000000E+00  0.00000000000E+00  0.30558918845E+04  0.30558918845E+04  0.25500000000E-02 0. -1.
         -2   -1    0    0    0  501 -0.00000000000E+00 -0.00000000000E+00 -0.42878596371E+03  0.42878596372E+03  0.25500000000E-02 0.  1.
    8880023    1    1    2    0    0  0.25912886164E+03 -0.62817985919E+03  0.21020036842E+03  0.96940812023E+03  0.65864270000E+03 0.  0.
    8880022    1    1    2    0    0 -0.25912886164E+03  0.62817985919E+03  0.24169055524E+04  0.25152697280E+04  0.15294330000E+03 0.  0.
<mgrwt>
<rscale>  0 0.87653927E+03</rscale>
<asrwt>0</asrwt>
<pdfrwt beam="1">  1        2 0.47013722E+00 0.94634450E+03</pdfrwt>
<pdfrwt beam="2">  1       -2 0.65967071E-01 0.94634450E+03</pdfrwt>
<totfact> 0.35043504E+00</totfact>
</mgrwt>
</event>
<event>
 4    1  0.3057048E-007  0.7346789E+03  0.7818608E-02  0.9875727E-01
          2   -1    0    0  501    0  0.00000000000E+00  0.00000000000E+00  0.21192053403E+04  0.21192053403E+04  0.25500000000E-02 0. -1.
         -2   -1    0    0    0  501 -0.00000000000E+00 -0.00000000000E+00 -0.40283416216E+03  0.40283416217E+03  0.25500000000E-02 0.  1.
    8880023    1    1    2    0    0  0.13421688768E+03  0.29652784184E+03 -0.33649004037E+02  0.73544911154E+03  0.65864270000E+03 0.  1.
    8880022    1    1    2    0    0 -0.13421688768E+03 -0.29652784184E+03  0.17500201822E+04  0.17865903910E+04  0.15294330000E+03 0.  0.
<mgrwt>
<rscale>  0 0.61452213E+03</rscale>
<asrwt>0</asrwt>
<pdfrwt beam="1">  1        2 0.32603159E+00 0.73467894E+03</pdfrwt>
<pdfrwt beam="2">  1       -2 0.61974486E-01 0.73467894E+03</pdfrwt>
<totfact> 0.14414085E+01</totfact>
</mgrwt>
</event>
<event>
 4    1  0.3057048E-007  0.6973408E+03  0.7818608E-02  0.1000842E+00
         -2   -1    0    0    0  501 -0.00000000000E+00  0.00000000000E+00  0.45711386311E+03  0.45711386311E+03  0.25500000000E-02 0.  1.
          2   -1    0    0  501    0  0.00000000000E+00 -0.00000000000E+00 -0.64424528115E+03  0.64424528115E+03  0.25500000000E-02 0. -1.
    8880023    1    1    2    0    0 -0.22284824233E+03  0.53034634974E+02  0.98843145747E+02  0.70431114242E+03  0.65864270000E+03 0.  0.
    8880022    1    1    2    0    0  0.22284824233E+03 -0.53034634974E+02 -0.28597456379E+03  0.39704800184E+03  0.15294330000E+03 0.  0.
<mgrwt>
<rscale>  0 0.55282729E+03</rscale>
<asrwt>0</asrwt>
<pdfrwt beam="1">  1        2 0.99114658E-01 0.69734082E+03</pdfrwt>
<pdfrwt beam="2">  1       -2 0.70325210E-01 0.69734082E+03</pdfrwt>
<totfact> 0.84941159E+01</totfact>
</mgrwt>
</event>
<event>
 4    1  0.3057048E-007  0.7830494E+03  0.7818608E-02  0.9748722E-01
          2   -1    0    0  501    0  0.00000000000E+00  0.00000000000E+00  0.45456459628E+03  0.45456459629E+03  0.25500000000E-02 0. -1.
         -2   -1    0    0    0  501 -0.00000000000E+00 -0.00000000000E+00 -0.10434364902E+04  0.10434364902E+04  0.25500000000E-02 0.  1.
    8880023    1    1    2    0    0 -0.28644800622E+03 -0.31193534693E+03 -0.34505412239E+02  0.78380925656E+03  0.65864270000E+03 0.  0.
    8880022    1    1    2    0    0  0.28644800622E+03  0.31193534693E+03 -0.55436648171E+03  0.71419182996E+03  0.15294330000E+03 0.  0.
<mgrwt>
<rscale>  0 0.68188537E+03</rscale>
<asrwt>0</asrwt>
<pdfrwt beam="1">  1        2 0.69933015E-01 0.78304938E+03</pdfrwt>
<pdfrwt beam="2">  1       -2 0.16052869E+00 0.78304938E+03</pdfrwt>
<totfact> 0.17355185E+01</totfact>
</mgrwt>
</event>
<event>
 4    1  0.3057048E-007  0.8127381E+03  0.7818608E-02  0.9683901E-01
         -2   -1    0    0    0  501 -0.00000000000E+00  0.00000000000E+00  0.10256529211E+04  0.10256529211E+04  0.25500000000E-02 0.  1.
          2   -1    0    0  501    0  0.00000000000E+00 -0.00000000000E+00 -0.10655207080E+04  0.10655207080E+04  0.25500000000E-02 0. -1.
    8880023    1    1    2    0    0 -0.47554195483E+03 -0.24349750114E+02  0.78279942624E+03  0.11284140238E+04  0.65864270000E+03 0.  0.
    8880022    1    1    2    0    0  0.47554195483E+03  0.24349750114E+02 -0.82266721314E+03  0.96275960536E+03  0.15294330000E+03 0. -1.
<mgrwt>
<rscale>  0 0.71983433E+03</rscale>
<asrwt>0</asrwt>
<pdfrwt beam="1">  1        2 0.16392626E+00 0.81273813E+03</pdfrwt>
<pdfrwt beam="2">  1       -2 0.15779276E+00 0.81273813E+03</pdfrwt>
<totfact> 0.60580014E+00</totfact>
</mgrwt>
</event>
<event>
 4    1  0.3057048E-007  0.7402604E+03  0.7818608E-02  0.9859189E-01
          2   -1    0    0  501    0  0.00000000000E+00  0.00000000000E+00  0.21761555052E+04  0.21761555052E+04  0.25500000000E-02 0. -1.
         -2   -1    0    0    0  501 -0.00000000000E+00 -0.00000000000E+00 -0.19467993897E+03  0.19467993898E+03  0.25500000000E-02 0.  1.
    8880023    1    1    2    0    0  0.32449492128E+03 -0.94224884581E+02  0.63849632602E+03  0.97758019999E+03  0.65864270000E+03 0.  1.
    8880022    1    1    2    0    0 -0.32449492128E+03  0.94224884581E+02  0.13429792402E+04  0.13932552442E+04  0.15294330000E+03 0.  0.
<mgrwt>
<rscale>  0 0.62280581E+03</rscale>
<asrwt>0</asrwt>
<pdfrwt beam="1">  1        2 0.33479317E+00 0.74026042E+03</pdfrwt>
<pdfrwt beam="2">  1       -2 0.29950758E-01 0.74026042E+03</pdfrwt>
<totfact> 0.56620514E+01</totfact>
</mgrwt>
</event>
<event>
 4    1  0.3057048E-007  0.9296815E+03  0.7818608E-02  0.9479971E-01
         -2   -1    0    0    0  501 -0.00000000000E+00  0.00000000000E+00  0.19173836565E+03  0.19173836567E+03  0.25500000000E-02 0.  1.
          2   -1    0    0  501    0  0.00000000000E+00 -0.00000000000E+00 -0.37610845677E+04  0.37610845677E+04  0.25500000000E-02 0. -1.
    8880023    1    1    2    0    0  0.58098667345E+03  0.30488029044E+03 -0.26829242414E+04  0.28394348377E+04  0.65864270000E+03 0.  0.
    8880022    1    1    2    0    0 -0.58098667345E+03 -0.30488029044E+03 -0.88642196064E+03  0.11133880957E+04  0.15294330000E+03 0.  0.
<mgrwt>
<rscale>  0 0.85776707E+03</rscale>
<asrwt>0</asrwt>
<pdfrwt beam="1">  1        2 0.57862834E+00 0.92968151E+03</pdfrwt>
<pdfrwt beam="2">  1       -2 0.29498213E-01 0.92968151E+03</pdfrwt>
<totfact> 0.58770685E+00</totfact>
</mgrwt>
</event>
<event>
 4    1  0.3057048E-007  0.7187457E+03  0.7818608E-02  0.9926853E-01
          2   -1    0    0  501    0  0.00000000000E+00  0.00000000000E+00  0.11943540609E+04  0.11943540609E+04  0.25500000000E-02 0. -1.
         -2   -1    0    0    0  501 -0.00000000000E+00 -0.00000000000E+00 -0.28226183810E+03  0.28226183811E+03  0.25500000000E-02 0.  1.
    8880023    1    1    2    0    0  0.13313084718E+03 -0.25507113763E+03  0.29135893054E+03  0.77555485970E+03  0.65864270000E+03 0.  1.
    8880022    1    1    2    0    0 -0.13313084718E+03  0.25507113763E+03  0.62073329224E+03  0.70106103931E+03  0.15294330000E+03 0. -1.
<mgrwt>
<rscale>  0 0.58977330E+03</rscale>
<asrwt>0</asrwt>
<pdfrwt beam="1">  1        2 0.18374678E+00 0.71874565E+03</pdfrwt>
<pdfrwt beam="2">  1       -2 0.43424897E-01 0.71874565E+03</pdfrwt>
<totfact> 0.97697187E+01</totfact>
</mgrwt>
</event>
<event>
 4    1  0.3057048E-007  0.6990549E+03  0.7818608E-02  0.1000114E+00
         -2   -1    0    0    0  501 -0.00000000000E+00  0.00000000000E+00  0.63193307926E+03  0.63193307926E+03  0.25500000000E-02 0.  1.
          2   -1    0    0  501    0  0.00000000000E+00 -0.00000000000E+00 -0.48998508976E+03  0.48998508976E+03  0.25500000000E-02 0. -1.
    8880023    1    1    2    0    0 -0.94851197119E+02 -0.21417456481E+03  0.34177448369E+03  0.77813077164E+03  0.65864270000E+03 0.  1.
    8880022    1    1    2    0    0  0.94851197119E+02  0.21417456481E+03 -0.19982649419E+03  0.34378739739E+03  0.15294330000E+03 0.  0.
<mgrwt>
<rscale>  0 0.55600069E+03</rscale>
<asrwt>0</asrwt>
<pdfrwt beam="1">  1        2 0.75382321E-01 0.69905486E+03</pdfrwt>
<pdfrwt beam="2">  1       -2 0.97220474E-01 0.69905486E+03</pdfrwt>
<totfact> 0.56493071E+01</totfact>
</mgrwt>
</event>
<event>
 4    1  0.3057048E-007  0.6931596E+03  0.7818608E-02  0.1002686E+00
         -2   -1    0    0    0  501 -0.00000000000E+00  0.00000000000E+00  0.50853085852E+03  0.50853085853E+03  0.25500000000E-02 0.  1.
          2   -1    0    0  501    0  0.00000000000E+00 -0.00000000000E+00 -0.52616582003E+03  0.52616582003E+03  0.25500000000E-02 0. -1.
    8880023    1    1    2    0    0 -0.48961600255E+01  0.21595397875E+03  0.16574832423E+03  0.71270106396E+03  0.65864270000E+03 0.  1.
    8880022    1    1    2    0    0  0.48961600255E+01 -0.21595397875E+03 -0.18338328573E+03  0.32199561460E+03  0.15294330000E+03 0.  0.
<mgrwt>
<rscale>  0 0.54488183E+03</rscale>
<asrwt>0</asrwt>
<pdfrwt beam="1">  1        2 0.80948588E-01 0.69315965E+03</pdfrwt>
<pdfrwt beam="2">  1       -2 0.78235516E-01 0.69315965E+03</pdfrwt>
<totfact> 0.85550746E+01</totfact>
</mgrwt>
</event>
<event>
 4    1  0.3057048E-007  0.8441249E+03  0.7818608E-02  0.9622451E-01
         -2   -1    0    0    0  501 -0.00000000000E+00  0.00000000000E+00  0.20364850272E+03  0.20364850274E+03  0.25500000000E-02 0.  1.
          2   -1    0    0  501    0  0.00000000000E+00 -0.00000000000E+00 -0.27938869292E+04  0.27938869292E+04  0.25500000000E-02 0. -1.
    8880023    1    1    2    0    0  0.46403933452E+03  0.25180162937E+03 -0.20911494242E+04  0.22550948285E+04  0.65864270000E+03 0. -1.
    8880022    1    1    2    0    0 -0.46403933452E+03 -0.25180162937E+03 -0.49908900221E+03  0.74244060346E+03  0.15294330000E+03 0.  1.
<mgrwt>
<rscale>  0 0.75827882E+03</rscale>
<asrwt>0</asrwt>
<pdfrwt beam="1">  1        2 0.42982873E+00 0.84412485E+03</pdfrwt>
<pdfrwt beam="2">  1       -2 0.31330541E-01 0.84412485E+03</pdfrwt>
<totfact> 0.22879956E+01</totfact>
</mgrwt>
</event>
<event>
 4    1  0.3057048E-007  0.6824925E+03  0.7818608E-02  0.1007947E+00
          2   -1    0    0  501    0  0.00000000000E+00  0.00000000000E+00  0.21526616741E+04  0.21526616741E+04  0.25500000000E-02 0. -1.
         -2   -1    0    0    0  501 -0.00000000000E+00 -0.00000000000E+00 -0.26907158077E+03  0.26907158079E+03  0.25500000000E-02 0.  1.
    8880023    1    1    2    0    0 -0.16919848756E+03 -0.57945573217E+02  0.18527722083E+03  0.70719422542E+03  0.65864270000E+03 0.  0.
    8880022    1    1    2    0    0  0.16919848756E+03  0.57945573217E+02  0.16983128725E+04  0.17145390294E+04  0.15294330000E+03 0.  0.
<mgrwt>
<rscale>  0 0.52298599E+03</rscale>
<asrwt>0</asrwt>
<pdfrwt beam="1">  1        2 0.33117871E+00 0.68249251E+03</pdfrwt>
<pdfrwt beam="2">  1       -2 0.41395629E-01 0.68249251E+03</pdfrwt>
<totfact> 0.31727160E+01</totfact>
</mgrwt>
</event>
<event>
 4    1  0.3057048E-007  0.1063352E+04  0.7818608E-02  0.9303001E-01
         -2   -1    0    0    0  501 -0.00000000000E+00  0.00000000000E+00  0.28512574507E+03  0.28512574509E+03  0.25500000000E-02 0.  1.
          2   -1    0    0  501    0  0.00000000000E+00 -0.00000000000E+00 -0.43660618341E+04  0.43660618341E+04  0.25500000000E-02 0. -1.
    8880023    1    1    2    0    0  0.43990440252E+03 -0.70950009032E+03 -0.10152285558E+04  0.14701719247E+04  0.65864270000E+03 0.  0.
    8880022    1    1    2    0    0 -0.43990440252E+03  0.70950009032E+03 -0.30657075332E+04  0.31810156544E+04  0.15294330000E+03 0.  0.
<mgrwt>
<rscale>  0 0.10050708E+04</rscale>
<asrwt>0</asrwt>
<pdfrwt beam="1">  1        2 0.67170177E+00 0.10633515E+04</pdfrwt>
<pdfrwt beam="2">  1       -2 0.43865503E-01 0.10633515E+04</pdfrwt>
<totfact> 0.86029621E-01</totfact>
</mgrwt>
</event>
<event>
 4    1  0.3461201E-007  0.7307066E+03  0.7818608E-02  0.9887895E-01
          2   -1    0    0  501    0  0.00000000000E+00  0.00000000000E+00  0.34755153593E+04  0.34755153593E+04  0.25500000000E-02 0. -1.
         -2   -1    0    0    0  501 -0.00000000000E+00 -0.00000000000E+00 -0.65348907845E+03  0.65348907846E+03  0.25500000000E-02 0.  1.
    8880023    1    1    2    0    0 -0.10590121826E+03 -0.29817244919E+03 -0.43678257069E+03  0.85129965218E+03  0.65864270000E+03 0.  1.
    8880022    1    1    2    0    0  0.10590121826E+03  0.29817244919E+03  0.32588088516E+04  0.32777047856E+04  0.15294330000E+03 0.  0.
<mgrwt>
<rscale>  0 0.60851540E+03</rscale>
<asrwt>0</asrwt>
<pdfrwt beam="1">  1        2 0.53469467E+00 0.73070656E+03</pdfrwt>
<pdfrwt beam="2">  1       -2 0.10053678E+00 0.73070656E+03</pdfrwt>
<totfact> 0.75365068E-01</totfact>
</mgrwt>
</event>
<event>
 4    1  0.3057048E-007  0.8084889E+03  0.7818608E-02  0.9692733E-01
         -2   -1    0    0    0  501 -0.00000000000E+00  0.00000000000E+00  0.28687303500E+03  0.28687303501E+03  0.25500000000E-02 0.  1.
          2   -1    0    0  501    0  0.00000000000E+00 -0.00000000000E+00 -0.17203154654E+04  0.17203154654E+04  0.25500000000E-02 0. -1.
    8880023    1    1    2    0    0  0.26485967176E+02  0.46812669270E+03 -0.49761122382E+03  0.94935306562E+03  0.65864270000E+03 0.  1.
    8880022    1    1    2    0    0 -0.26485967176E+02 -0.46812669270E+03 -0.93583120655E+03  0.10578354348E+04  0.15294330000E+03 0.  0.
<mgrwt>
<rscale>  0 0.71451110E+03</rscale>
<asrwt>0</asrwt>
<pdfrwt beam="1">  1        2 0.26466391E+00 0.80848891E+03</pdfrwt>
<pdfrwt beam="2">  1       -2 0.44134314E-01 0.80848891E+03</pdfrwt>
<totfact> 0.47396557E+01</totfact>
</mgrwt>
</event>
<event>
 4    1  0.3057048E-007  0.7103735E+03  0.7818608E-02  0.9956617E-01
         -2   -1    0    0    0  501 -0.00000000000E+00  0.00000000000E+00  0.40245197033E+03  0.40245197033E+03  0.25500000000E-02 0.  1.
          2   -1    0    0  501    0  0.00000000000E+00 -0.00000000000E+00 -0.12537077956E+04  0.12537077956E+04  0.25500000000E-02 0. -1.
    8880023    1    1    2    0    0 -0.18553363965E+03  0.19078145862E+03  0.42025690194E+02  0.71161552913E+03  0.65864270000E+03 0.  0.
    8880022    1    1    2    0    0  0.18553363965E+03 -0.19078145862E+03 -0.89328151544E+03  0.94454423679E+03  0.15294330000E+03 0.  0.
<mgrwt>
<rscale>  0 0.57594142E+03</rscale>
<asrwt>0</asrwt>
<pdfrwt beam="1">  1        2 0.19287812E+00 0.71037350E+03</pdfrwt>
<pdfrwt beam="2">  1       -2 0.61915688E-01 0.71037350E+03</pdfrwt>
<totfact> 0.43610130E+01</totfact>
</mgrwt>
</event>
<event>
 4    1  0.3057048E-007  0.9058908E+03  0.7818608E-02  0.9516640E-01
         -2   -1    0    0    0  501 -0.00000000000E+00  0.00000000000E+00  0.15997169087E+04  0.15997169087E+04  0.25500000000E-02 0.  1.
          2   -1    0    0  501    0  0.00000000000E+00 -0.00000000000E+00 -0.46025961535E+03  0.46025961536E+03  0.25500000000E-02 0. -1.
    8880023    1    1    2    0    0  0.62178822222E+03 -0.14398275946E+02  0.10904136279E+04  0.14176177164E+04  0.65864270000E+03 0.  1.
    8880022    1    1    2    0    0 -0.62178822222E+03  0.14398275946E+02  0.49043665429E+02  0.64235880765E+03  0.15294330000E+03 0.  0.
<mgrwt>
<rscale>  0 0.83068033E+03</rscale>
<asrwt>0</asrwt>
<pdfrwt beam="1">  1        2 0.70809171E-01 0.90589078E+03</pdfrwt>
<pdfrwt beam="2">  1       -2 0.24611029E+00 0.90589078E+03</pdfrwt>
<totfact> 0.46460895E+00</totfact>
</mgrwt>
</event>
<event>
 4    1  0.3057048E-007  0.7130102E+03  0.7818608E-02  0.9946988E-01
          2   -1    0    0  501    0  0.00000000000E+00  0.00000000000E+00  0.93523306917E+03  0.93523306918E+03  0.25500000000E-02 0. -1.
         -2   -1    0    0    0  501 -0.00000000000E+00 -0.00000000000E+00 -0.96921690714E+03  0.96921690714E+03  0.25500000000E-02 0.  1.
    8880023    1    1    2    0    0  0.34001372705E+02  0.27095610451E+03 -0.80318543900E+03  0.10740066851E+04  0.65864270000E+03 0.  0.
    8880022    1    1    2    0    0 -0.34001372705E+02 -0.27095610451E+03  0.76920160103E+03  0.83044329124E+03  0.15294330000E+03 0. -1.
<mgrwt>
<rscale>  0 0.58037091E+03</rscale>
<asrwt>0</asrwt>
<pdfrwt beam="1">  1        2 0.14388201E+00 0.71301018E+03</pdfrwt>
<pdfrwt beam="2">  1       -2 0.14911029E+00 0.71301018E+03</pdfrwt>
<totfact> 0.86402167E+00</totfact>
</mgrwt>
</event>
<event>
 4    1  0.3057048E-007  0.6757982E+03  0.7818608E-02  0.1011808E+00
         -2   -1    0    0    0  501 -0.00000000000E+00  0.00000000000E+00  0.24933178554E+04  0.24933178554E+04  0.25500000000E-02 0.  1.
          2   -1    0    0  501    0  0.00000000000E+00 -0.00000000000E+00 -0.27745191507E+03  0.27745191508E+03  0.25500000000E-02 0. -1.
    8880023    1    1    2    0    0 -0.59705737373E+02  0.13902615376E+03  0.23964324750E+04  0.24898979618E+04  0.65864270000E+03 0.  1.
    8880022    1    1    2    0    0  0.59705737373E+02 -0.13902615376E+03 -0.18056653464E+03  0.28087180875E+03  0.15294330000E+03 0.  0.
<mgrwt>
<rscale>  0 0.50762438E+03</rscale>
<asrwt>0</asrwt>
<pdfrwt beam="1">  1        2 0.42684911E-01 0.67579823E+03</pdfrwt>
<pdfrwt beam="2">  1       -2 0.38358736E+00 0.67579823E+03</pdfrwt>
<totfact> 0.12198784E+00</totfact>
</mgrwt>
</event>
<event>
 4    1  0.3057048E-007  0.9372985E+03  0.7818608E-02  0.9468629E-01
         -2   -1    0    0    0  501 -0.00000000000E+00  0.00000000000E+00  0.11623405337E+04  0.11623405337E+04  0.25500000000E-02 0.  1.
          2   -1    0    0  501    0  0.00000000000E+00 -0.00000000000E+00 -0.57487960715E+03  0.57487960716E+03  0.25500000000E-02 0. -1.
    8880023    1    1    2    0    0 -0.56446473070E+03  0.35510256082E+03  0.22921628961E+03  0.96491894716E+03  0.65864270000E+03 0. -1.
    8880022    1    1    2    0    0  0.56446473070E+03 -0.35510256082E+03  0.35824463697E+03  0.77230119373E+03  0.15294330000E+03 0.  1.
<mgrwt>
<rscale>  0 0.86636704E+03</rscale>
<asrwt>0</asrwt>
<pdfrwt beam="1">  1        2 0.88443017E-01 0.93729849E+03</pdfrwt>
<pdfrwt beam="2">  1       -2 0.17882162E+00 0.93729849E+03</pdfrwt>
<totfact> 0.96382843E+00</totfact>
</mgrwt>
</event>
<event>
 4    1  0.3057048E-007  0.8598717E+03  0.7818608E-02  0.9593792E-01
          2   -1    0    0  501    0  0.00000000000E+00  0.00000000000E+00  0.12159462154E+04  0.12159462154E+04  0.25500000000E-02 0. -1.
         -2   -1    0    0    0  501 -0.00000000000E+00 -0.00000000000E+00 -0.57153747133E+03  0.57153747133E+03  0.25500000000E-02 0.  1.
    8880023    1    1    2    0    0  0.42467165476E+03 -0.35386890772E+03 -0.79913252640E+02  0.86357718382E+03  0.65864270000E+03 0.  1.
    8880022    1    1    2    0    0 -0.42467165476E+03  0.35386890772E+03  0.72432199674E+03  0.92390650294E+03  0.15294330000E+03 0.  0.
<mgrwt>
<rscale>  0 0.77708458E+03</rscale>
<asrwt>0</asrwt>
<pdfrwt beam="1">  1        2 0.18706865E+00 0.85987175E+03</pdfrwt>
<pdfrwt beam="2">  1       -2 0.87928842E-01 0.85987175E+03</pdfrwt>
<totfact> 0.20820993E+01</totfact>
</mgrwt>
</event>
<event>
 4    1  0.3057048E-007  0.7143898E+03  0.7818608E-02  0.9942047E-01
          2   -1    0    0  501    0  0.00000000000E+00  0.00000000000E+00  0.22690594166E+04  0.22690594166E+04  0.25500000000E-02 0. -1.
         -2   -1    0    0    0  501 -0.00000000000E+00 -0.00000000000E+00 -0.24149388197E+03  0.24149388199E+03  0.25500000000E-02 0.  1.
    8880023    1    1    2    0    0 -0.14119961283E+03  0.23791864639E+03  0.33556745802E+03  0.78927709843E+03  0.65864270000E+03 0.  1.
    8880022    1    1    2    0    0  0.14119961283E+03 -0.23791864639E+03  0.16919980766E+04  0.17212762001E+04  0.15294330000E+03 0.  0.
<mgrwt>
<rscale>  0 0.58266073E+03</rscale>
<asrwt>0</asrwt>
<pdfrwt beam="1">  1        2 0.34908608E+00 0.71438982E+03</pdfrwt>
<pdfrwt beam="2">  1       -2 0.37152903E-01 0.71438982E+03</pdfrwt>
<totfact> 0.33611911E+01</totfact>
</mgrwt>
</event>
<event>
 4    1  0.3057048E-007  0.1641521E+04  0.7818608E-02  0.8815671E-01
         -2   -1    0    0    0  501 -0.00000000000E+00  0.00000000000E+00  0.22732422404E+04  0.22732422404E+04  0.25500000000E-02 0.  1.
          2   -1    0    0  501    0  0.00000000000E+00 -0.00000000000E+00 -0.13747772647E+04  0.13747772647E+04  0.25500000000E-02 0. -1.
    8880023    1    1    2    0    0 -0.12049007665E+04  0.89944221903E+03  0.12888831022E+04  0.20870582215E+04  0.65864270000E+03 0.  0.
    8880022    1    1    2    0    0  0.12049007665E+04 -0.89944221903E+03 -0.39041812642E+03  0.15609612836E+04  0.15294330000E+03 0.  0.
<mgrwt>
<rscale>  0 0.16079630E+04</rscale>
<asrwt>0</asrwt>
<pdfrwt beam="1">  1        2 0.21150420E+00 0.16415214E+04</pdfrwt>
<pdfrwt beam="2">  1       -2 0.34972957E+00 0.16415214E+04</pdfrwt>
<totfact> 0.21715651E-01</totfact>
</mgrwt>
</event>
<event>
 4    1  0.3057048E-007  0.6666112E+03  0.7818608E-02  0.1018218E+00
         -2   -1    0    0    0  501 -0.00000000000E+00  0.00000000000E+00  0.11246638101E+03  0.11246638104E+03  0.25500000000E-02 0.  1.
          2   -1    0    0  501    0  0.00000000000E+00 -0.00000000000E+00 -0.21479399146E+04  0.21479399146E+04  0.25500000000E-02 0. -1.
    8880023    1    1    2    0    0 -0.10029672873E+03 -0.22379844135E+02 -0.95687430765E+03  0.11661813487E+04  0.65864270000E+03 0.  1.
    8880022    1    1    2    0    0  0.10029672873E+03  0.22379844135E+02 -0.10785992259E+04  0.10942249469E+04  0.15294330000E+03 0.  0.
<mgrwt>
<rscale>  0 0.48335091E+03</rscale>
<asrwt>0</asrwt>
<pdfrwt beam="1">  1        2 0.33045227E+00 0.66661120E+03</pdfrwt>
<pdfrwt beam="2">  1       -2 0.17302522E-01 0.66661120E+03</pdfrwt>
<totfact> 0.15725642E+02</totfact>
</mgrwt>
</event>
<event>
 4    1  0.3057048E-007  0.1037834E+04  0.7818608E-02  0.9333651E-01
         -2   -1    0    0    0  501 -0.00000000000E+00  0.00000000000E+00  0.12556195231E+04  0.12556195232E+04  0.25500000000E-02 0.  1.
          2   -1    0    0  501    0  0.00000000000E+00 -0.00000000000E+00 -0.13415207303E+04  0.13415207303E+04  0.25500000000E-02 0. -1.
    8880023    1    1    2    0    0 -0.52701390161E+03  0.60460406513E+03 -0.95093732202E+03  0.14076156168E+04  0.65864270000E+03 0. -1.
    8880022    1    1    2    0    0  0.52701390161E+03 -0.60460406513E+03  0.86503611488E+03  0.11895246366E+04  0.15294330000E+03 0.  0.
<mgrwt>
<rscale>  0 0.97743028E+03</rscale>
<asrwt>0</asrwt>
<pdfrwt beam="1">  1        2 0.20638780E+00 0.10378343E+04</pdfrwt>
<pdfrwt beam="2">  1       -2 0.19317223E+00 0.10378343E+04</pdfrwt>
<totfact> 0.22800151E+00</totfact>
</mgrwt>
</event>
<event>
 4    1  0.3057048E-007  0.1169124E+04  0.7818608E-02  0.9187736E-01
          2   -1    0    0  501    0  0.00000000000E+00  0.00000000000E+00  0.23782962965E+04  0.23782962965E+04  0.25500000000E-02 0. -1.
         -2   -1    0    0    0  501 -0.00000000000E+00 -0.00000000000E+00 -0.75058975935E+03  0.75058975936E+03  0.25500000000E-02 0.  1.
    8880023    1    1    2    0    0 -0.70429626488E+03  0.66106614866E+03 -0.68295923484E+02  0.11711175095E+04  0.65864270000E+03 0.  0.
    8880022    1    1    2    0    0  0.70429626488E+03 -0.66106614866E+03  0.16960024607E+04  0.19577685464E+04  0.15294330000E+03 0.  0.
<mgrwt>
<rscale>  0 0.11180916E+04</rscale>
<asrwt>0</asrwt>
<pdfrwt beam="1">  1        2 0.36589174E+00 0.11691244E+04</pdfrwt>
<pdfrwt beam="2">  1       -2 0.11547535E+00 0.11691244E+04</pdfrwt>
<totfact> 0.23486927E+00</totfact>
</mgrwt>
</event>
<event>
 4    1  0.3057048E-007  0.9378139E+03  0.7818608E-02  0.9467868E-01
          2   -1    0    0  501    0  0.00000000000E+00  0.00000000000E+00  0.10185503770E+04  0.10185503770E+04  0.25500000000E-02 0. -1.
         -2   -1    0    0    0  501 -0.00000000000E+00 -0.00000000000E+00 -0.10905114626E+04  0.10905114626E+04  0.25500000000E-02 0.  1.
    8880023    1    1    2    0    0  0.15990207208E+03 -0.64816358262E+03 -0.70747568591E+03  0.11747411438E+04  0.65864270000E+03 0.  0.
    8880022    1    1    2    0    0 -0.15990207208E+03  0.64816358262E+03  0.63551460024E+03  0.93432069582E+03  0.15294330000E+03 0.  0.
<mgrwt>
<rscale>  0 0.86694779E+03</rscale>
<asrwt>0</asrwt>
<pdfrwt beam="1">  1        2 0.15670006E+00 0.93781390E+03</pdfrwt>
<pdfrwt beam="2">  1       -2 0.16777099E+00 0.93781390E+03</pdfrwt>
<totfact> 0.54054395E+00</totfact>
</mgrwt>
</event>
<event>
 4    1  0.3057048E-007  0.9919131E+03  0.7818608E-02  0.9392215E-01
          2   -1    0    0  501    0  0.00000000000E+00  0.00000000000E+00  0.25335315349E+04  0.25335315349E+04  0.25500000000E-02 0. -1.
         -2   -1    0    0    0  501 -0.00000000000E+00 -0.00000000000E+00 -0.37522265860E+03  0.37522265861E+03  0.25500000000E-02 0.  1.
    8880023    1    1    2    0    0  0.59844725911E+03  0.43811226708E+03  0.55746810867E+03  0.11378323158E+04  0.65864270000E+03 0.  0.
    8880022    1    1    2    0    0 -0.59844725911E+03 -0.43811226708E+03  0.16008407676E+04  0.17709218776E+04  0.15294330000E+03 0.  0.
<mgrwt>
<rscale>  0 0.92719134E+03</rscale>
<asrwt>0</asrwt>
<pdfrwt beam="1">  1        2 0.38977407E+00 0.99191314E+03</pdfrwt>
<pdfrwt beam="2">  1       -2 0.57726564E-01 0.99191314E+03</pdfrwt>
<totfact> 0.94785678E+00</totfact>
</mgrwt>
</event>
<event>
 4    1  0.3057048E-007  0.8223733E+03  0.7818608E-02  0.9664358E-01
          2   -1    0    0  501    0  0.00000000000E+00  0.00000000000E+00  0.20238867333E+04  0.20238867333E+04  0.25500000000E-02 0. -1.
         -2   -1    0    0    0  501 -0.00000000000E+00 -0.00000000000E+00 -0.54841456854E+03  0.54841456854E+03  0.25500000000E-02 0.  1.
    8880023    1    1    2    0    0 -0.48987472406E+03  0.50103040820E+02 -0.17703695429E+03  0.84121331981E+03  0.65864270000E+03 0.  1.
    8880022    1    1    2    0    0  0.48987472406E+03 -0.50103040820E+02  0.16525091191E+04  0.17310879821E+04  0.15294330000E+03 0.  0.
<mgrwt>
<rscale>  0 0.73179136E+03</rscale>
<asrwt>0</asrwt>
<pdfrwt beam="1">  1        2 0.31136719E+00 0.82237325E+03</pdfrwt>
<pdfrwt beam="2">  1       -2 0.84371473E-01 0.82237325E+03</pdfrwt>
<totfact> 0.81399437E+00</totfact>
</mgrwt>
</event>
<event>
 4    1  0.3057048E-007  0.8352536E+03  0.7818608E-02  0.9639196E-01
         -2   -1    0    0    0  501 -0.00000000000E+00  0.00000000000E+00  0.25416164645E+03  0.25416164646E+03  0.25500000000E-02 0.  1.
          2   -1    0    0  501    0  0.00000000000E+00 -0.00000000000E+00 -0.31021957048E+04  0.31021957048E+04  0.25500000000E-02 0. -1.
    8880023    1    1    2    0    0  0.47232708631E+03  0.20185505644E+03 -0.55811945146E+03  0.10045625260E+04  0.65864270000E+03 0.  0.
    8880022    1    1    2    0    0 -0.47232708631E+03 -0.20185505644E+03 -0.22899146069E+04  0.23517948252E+04  0.15294330000E+03 0.  0.
<mgrwt>
<rscale>  0 0.74755385E+03</rscale>
<asrwt>0</asrwt>
<pdfrwt beam="1">  1        2 0.47726085E+00 0.83525358E+03</pdfrwt>
<pdfrwt beam="2">  1       -2 0.39101794E-01 0.83525358E+03</pdfrwt>
<totfact> 0.97463034E+00</totfact>
</mgrwt>
</event>
<event>
 4    1  0.3057048E-007  0.8733616E+03  0.7818608E-02  0.9570224E-01
         -2   -1    0    0    0  501 -0.00000000000E+00  0.00000000000E+00  0.15104737723E+04  0.15104737723E+04  0.25500000000E-02 0.  1.
          2   -1    0    0  501    0  0.00000000000E+00 -0.00000000000E+00 -0.57757018324E+03  0.57757018325E+03  0.25500000000E-02 0. -1.
    8880023    1    1    2    0    0 -0.11627694158E+03 -0.56163149630E+03  0.11604164732E+04  0.14523521826E+04  0.65864270000E+03 0.  1.
    8880022    1    1    2    0    0  0.11627694158E+03  0.56163149630E+03 -0.22751288411E+03  0.63569177297E+03  0.15294330000E+03 0. -1.
<mgrwt>
<rscale>  0 0.79298707E+03</rscale>
<asrwt>0</asrwt>
<pdfrwt beam="1">  1        2 0.88856954E-01 0.87336159E+03</pdfrwt>
<pdfrwt beam="2">  1       -2 0.23238057E+00 0.87336159E+03</pdfrwt>
<totfact> 0.43355570E+00</totfact>
</mgrwt>
</event>
<event>
 4    1  0.3057048E-007  0.6799691E+03  0.7818608E-02  0.1009341E+00
         -2   -1    0    0    0  501 -0.00000000000E+00  0.00000000000E+00  0.27000624871E+03  0.27000624873E+03  0.25500000000E-02 0.  1.
          2   -1    0    0  501    0  0.00000000000E+00 -0.00000000000E+00 -0.97239935622E+03  0.97239935622E+03  0.25500000000E-02 0. -1.
    8880023    1    1    2    0    0  0.11639698938E+03  0.12247243394E+03 -0.22983420634E+03  0.71776160728E+03  0.65864270000E+03 0.  0.
    8880022    1    1    2    0    0 -0.11639698938E+03 -0.12247243394E+03 -0.47255890116E+03  0.52464399767E+03  0.15294330000E+03 0.  0.
<mgrwt>
<rscale>  0 0.51737329E+03</rscale>
<asrwt>0</asrwt>
<pdfrwt beam="1">  1        2 0.14959990E+00 0.67996909E+03</pdfrwt>
<pdfrwt beam="2">  1       -2 0.41539423E-01 0.67996909E+03</pdfrwt>
<totfact> 0.14649415E+02</totfact>
</mgrwt>
</event>
<event>
 4    1  0.3057048E-007  0.7299116E+03  0.7818608E-02  0.9890373E-01
          2   -1    0    0  501    0  0.00000000000E+00  0.00000000000E+00  0.19642758244E+04  0.19642758244E+04  0.25500000000E-02 0. -1.
         -2   -1    0    0    0  501 -0.00000000000E+00 -0.00000000000E+00 -0.48106640145E+03  0.48106640146E+03  0.25500000000E-02 0.  1.
    8880023    1    1    2    0    0  0.20516118496E+03 -0.23847363616E+03 -0.17503655935E+03  0.75060561571E+03  0.65864270000E+03 0.  1.
    8880022    1    1    2    0    0 -0.20516118496E+03  0.23847363616E+03  0.16582459823E+04  0.16947366102E+04  0.15294330000E+03 0.  0.
<mgrwt>
<rscale>  0 0.60730142E+03</rscale>
<asrwt>0</asrwt>
<pdfrwt beam="1">  1        2 0.30219628E+00 0.72991163E+03</pdfrwt>
<pdfrwt beam="2">  1       -2 0.74010216E-01 0.72991163E+03</pdfrwt>
<totfact> 0.11932024E+01</totfact>
</mgrwt>
</event>
<event>
 4    1  0.3057048E-007  0.6693032E+03  0.7818608E-02  0.1016167E+00
          2   -1    0    0  501    0  0.00000000000E+00  0.00000000000E+00  0.15414053522E+04  0.15414053522E+04  0.25500000000E-02 0. -1.
         -2   -1    0    0    0  501 -0.00000000000E+00 -0.00000000000E+00 -0.29661699463E+03  0.29661699464E+03  0.25500000000E-02 0.  1.
    8880023    1    1    2    0    0 -0.30231952238E+02  0.11507653257E+03  0.99740301680E+02  0.67669410617E+03  0.65864270000E+03 0.  1.
    8880022    1    1    2    0    0  0.30231952238E+02 -0.11507653257E+03  0.11450480559E+04  0.11613282407E+04  0.15294330000E+03 0.  0.
<mgrwt>
<rscale>  0 0.49095407E+03</rscale>
<asrwt>0</asrwt>
<pdfrwt beam="1">  1        2 0.23713929E+00 0.66930321E+03</pdfrwt>
<pdfrwt beam="2">  1       -2 0.45633384E-01 0.66930321E+03</pdfrwt>
<totfact> 0.56472371E+01</totfact>
</mgrwt>
</event>
<event>
 4    1  0.3057048E-007  0.1044026E+04  0.7818608E-02  0.9326098E-01
          2   -1    0    0  501    0  0.00000000000E+00  0.00000000000E+00  0.97481674894E+03  0.97481674894E+03  0.25500000000E-02 0. -1.
         -2   -1    0    0    0  501 -0.00000000000E+00 -0.00000000000E+00 -0.97445428132E+03  0.97445428132E+03  0.25500000000E-02 0.  1.
    8880023    1    1    2    0    0 -0.70155845800E+03 -0.40496269032E+03  0.27627539749E+03  0.10799617364E+04  0.65864270000E+03 0.  0.
    8880022    1    1    2    0    0  0.70155845800E+03  0.40496269032E+03 -0.27591292987E+03  0.86930929388E+03  0.15294330000E+03 0.  0.
<mgrwt>
<rscale>  0 0.98415309E+03</rscale>
<asrwt>0</asrwt>
<pdfrwt beam="1">  1        2 0.14997181E+00 0.10440255E+04</pdfrwt>
<pdfrwt beam="2">  1       -2 0.14991604E+00 0.10440255E+04</pdfrwt>
<totfact> 0.77483169E+00</totfact>
</mgrwt>
</event>
<event>
 4    1  0.3057048E-007  0.1212771E+04  0.7818608E-02  0.9144807E-01
          2   -1    0    0  501    0  0.00000000000E+00  0.00000000000E+00  0.22276355140E+04  0.22276355140E+04  0.25500000000E-02 0. -1.
         -2   -1    0    0    0  501 -0.00000000000E+00 -0.00000000000E+00 -0.89104721198E+03  0.89104721198E+03  0.25500000000E-02 0.  1.
    8880023    1    1    2    0    0 -0.90074207047E+03 -0.47504325225E+03 -0.23932471293E+03  0.12361589273E+04  0.65864270000E+03 0.  0.
    8880022    1    1    2    0    0  0.90074207047E+03  0.47504325225E+03  0.15759130150E+04  0.18825237987E+04  0.15294330000E+03 0.  0.
<mgrwt>
<rscale>  0 0.11641727E+04</rscale>
<asrwt>0</asrwt>
<pdfrwt beam="1">  1        2 0.34271315E+00 0.12127706E+04</pdfrwt>
<pdfrwt beam="2">  1       -2 0.13708419E+00 0.12127706E+04</pdfrwt>
<totfact> 0.18417957E+00</totfact>
</mgrwt>
</event>
<event>
 4    1  0.3057048E-007  0.7994776E+03  0.7818608E-02  0.9711927E-01
         -2   -1    0    0    0  501 -0.00000000000E+00  0.00000000000E+00  0.63844431653E+03  0.63844431653E+03  0.25500000000E-02 0.  1.
          2   -1    0    0  501    0  0.00000000000E+00 -0.00000000000E+00 -0.87782607708E+03  0.87782607708E+03  0.25500000000E-02 0. -1.
    8880023    1    1    2    0    0  0.72995258082E+02 -0.44724264958E+03  0.24438328618E+03  0.83599503116E+03  0.65864270000E+03 0.  1.
    8880022    1    1    2    0    0 -0.72995258082E+02  0.44724264958E+03 -0.48376504673E+03  0.68027536245E+03  0.15294330000E+03 0.  0.
<mgrwt>
<rscale>  0 0.70311104E+03</rscale>
<asrwt>0</asrwt>
<pdfrwt beam="1">  1        2 0.13505017E+00 0.79947764E+03</pdfrwt>
<pdfrwt beam="2">  1       -2 0.98222203E-01 0.79947764E+03</pdfrwt>
<totfact> 0.26436374E+01</totfact>
</mgrwt>
</event>
<event>
 4    1  0.3635481E-007  0.8630900E+03  0.7818608E-02  0.9588090E-01
          2   -1    0    0  501    0  0.00000000000E+00  0.00000000000E+00  0.24293308363E+04  0.24293308363E+04  0.25500000000E-02 0. -1.
         -2   -1    0    0    0  501 -0.00000000000E+00 -0.00000000000E+00 -0.79938329388E+03  0.79938329388E+03  0.25500000000E-02 0.  1.
    8880023    1    1    2    0    0 -0.55607245385E+03 -0.43560707068E+02 -0.51641869183E+03  0.10057895310E+04  0.65864270000E+03 0.  0.
    8880022    1    1    2    0    0  0.55607245385E+03  0.43560707068E+02  0.21463662343E+04  0.22229245992E+04  0.15294330000E+03 0.  0.
<mgrwt>
<rscale>  0 0.78089476E+03</rscale>
<asrwt>0</asrwt>
<pdfrwt beam="1">  1        2 0.37374320E+00 0.86308998E+03</pdfrwt>
<pdfrwt beam="2">  1       -2 0.12298205E+00 0.86308998E+03</pdfrwt>
<totfact> 0.19621812E+00</totfact>
</mgrwt>
</event>
<event>
 4    1  0.3057048E-007  0.6599593E+03  0.7818608E-02  0.1024198E+00
          2   -1    0    0  501    0  0.00000000000E+00  0.00000000000E+00  0.26643376877E+04  0.26643376877E+04  0.25500000000E-02 0. -1.
         -2   -1    0    0    0  501 -0.00000000000E+00 -0.00000000000E+00 -0.20034354240E+03  0.20034354241E+03  0.25500000000E-02 0.  1.
    8880023    1    1    2    0    0  0.13696910202E+02 -0.39349812187E+02  0.35431721452E+03  0.74905734616E+03  0.65864270000E+03 0.  1.
    8880022    1    1    2    0    0 -0.13696910202E+02  0.39349812187E+02  0.21096769308E+04  0.21156238840E+04  0.15294330000E+03 0.  0.
<mgrwt>
<rscale>  0 0.46201584E+03</rscale>
<asrwt>0</asrwt>
<pdfrwt beam="1">  1        2 0.40989811E+00 0.65995926E+03</pdfrwt>
<pdfrwt beam="2">  1       -2 0.30822083E-01 0.65995926E+03</pdfrwt>
<totfact> 0.28890395E+01</totfact>
</mgrwt>
</event>
<event>
 4    1  0.3057048E-007  0.9824220E+03  0.7818608E-02  0.9404925E-01
         -2   -1    0    0    0  501 -0.00000000000E+00  0.00000000000E+00  0.67057502066E+03  0.67057502067E+03  0.25500000000E-02 0.  1.
          2   -1    0    0  501    0  0.00000000000E+00 -0.00000000000E+00 -0.15093491205E+04  0.15093491205E+04  0.25500000000E-02 0. -1.
    8880023    1    1    2    0    0  0.18749762867E+02 -0.72869148780E+03  0.93274832742E+02  0.98684002690E+03  0.65864270000E+03 0.  0.
    8880022    1    1    2    0    0 -0.18749762867E+02  0.72869148780E+03 -0.93204893262E+03  0.11930841143E+04  0.15294330000E+03 0.  0.
<mgrwt>
<rscale>  0 0.91671474E+03</rscale>
<asrwt>0</asrwt>
<pdfrwt beam="1">  1        2 0.23220756E+00 0.98242203E+03</pdfrwt>
<pdfrwt beam="2">  1       -2 0.10316539E+00 0.98242203E+03</pdfrwt>
<totfact> 0.95883577E+00</totfact>
</mgrwt>
</event>
<event>
 4    1  0.3057048E-007  0.7128131E+03  0.7818608E-02  0.9947699E-01
          2   -1    0    0  501    0  0.00000000000E+00  0.00000000000E+00  0.64703745262E+03  0.64703745263E+03  0.25500000000E-02 0. -1.
         -2   -1    0    0    0  501 -0.00000000000E+00 -0.00000000000E+00 -0.74268044901E+03  0.74268044902E+03  0.25500000000E-02 0.  1.
    8880023    1    1    2    0    0  0.17572400681E+03  0.20835886627E+03 -0.50581176675E+03  0.87404124238E+03  0.65864270000E+03 0.  1.
    8880022    1    1    2    0    0 -0.17572400681E+03 -0.20835886627E+03  0.41016877036E+03  0.51567665927E+03  0.15294330000E+03 0.  0.
<mgrwt>
<rscale>  0 0.58004234E+03</rscale>
<asrwt>0</asrwt>
<pdfrwt beam="1">  1        2 0.99544223E-01 0.71281312E+03</pdfrwt>
<pdfrwt beam="2">  1       -2 0.11425853E+00 0.71281312E+03</pdfrwt>
<totfact> 0.27532555E+01</totfact>
</mgrwt>
</event>
<event>
 4    1  0.3057048E-007  0.9331650E+03  0.7818608E-02  0.9474761E-01
         -2   -1    0    0    0  501 -0.00000000000E+00  0.00000000000E+00  0.22240618099E+04  0.22240618099E+04  0.25500000000E-02 0.  1.
          2   -1    0    0  501    0  0.00000000000E+00 -0.00000000000E+00 -0.34547187363E+03  0.34547187364E+03  0.25500000000E-02 0. -1.
    8880023    1    1    2    0    0  0.64943083094E+03 -0.12339507319E+03  0.15649252594E+04  0.18220285459E+04  0.65864270000E+03 0.  0.
    8880022    1    1    2    0    0 -0.64943083094E+03  0.12339507319E+03  0.31366467686E+03  0.74750513764E+03  0.15294330000E+03 0.  0.
<mgrwt>
<rscale>  0 0.86170419E+03</rscale>
<asrwt>0</asrwt>
<pdfrwt beam="1">  1        2 0.53149520E-01 0.93316502E+03</pdfrwt>
<pdfrwt beam="2">  1       -2 0.34216335E+00 0.93316502E+03</pdfrwt>
<totfact> 0.16730751E+00</totfact>
</mgrwt>
</event>
<event>
 4    1  0.3781264E-007  0.1059288E+04  0.7818608E-02  0.9307799E-01
         -2   -1    0    0    0  501 -0.00000000000E+00  0.00000000000E+00  0.11281878924E+04  0.11281878924E+04  0.25500000000E-02 0.  1.
          2   -1    0    0  501    0  0.00000000000E+00 -0.00000000000E+00 -0.31493796766E+04  0.31493796766E+04  0.25500000000E-02 0. -1.
    8880023    1    1    2    0    0  0.62439415407E+03 -0.54627076701E+03  0.80352762747E+03  0.13295663447E+04  0.65864270000E+03 0.  1.
    8880022    1    1    2    0    0 -0.62439415407E+03  0.54627076701E+03 -0.28247194117E+04  0.29480012243E+04  0.15294330000E+03 0.  0.
<mgrwt>
<rscale>  0 0.10006803E+04</rscale>
<asrwt>0</asrwt>
<pdfrwt beam="1">  1        2 0.48451995E+00 0.10592875E+04</pdfrwt>
<pdfrwt beam="2">  1       -2 0.17356737E+00 0.10592875E+04</pdfrwt>
<totfact> 0.28392019E-01</totfact>
</mgrwt>
</event>
<event>
 4    1  0.3057048E-007  0.6674875E+03  0.7818608E-02  0.1017532E+00
          2   -1    0    0  501    0  0.00000000000E+00  0.00000000000E+00  0.85490130182E+03  0.85490130183E+03  0.25500000000E-02 0. -1.
         -2   -1    0    0    0  501 -0.00000000000E+00 -0.00000000000E+00 -0.69514409542E+03  0.69514409542E+03  0.25500000000E-02 0.  1.
    8880023    1    1    2    0    0  0.10514561012E+03 -0.25955632642E+02 -0.51923697214E+03  0.84566336901E+03  0.65864270000E+03 0.  1.
    8880022    1    1    2    0    0 -0.10514561012E+03  0.25955632642E+02  0.67899417854E+03  0.70438202824E+03  0.15294330000E+03 0.  0.
<mgrwt>
<rscale>  0 0.48587898E+03</rscale>
<asrwt>0</asrwt>
<pdfrwt beam="1">  1        2 0.13152328E+00 0.66748745E+03</pdfrwt>
<pdfrwt beam="2">  1       -2 0.10694525E+00 0.66748745E+03</pdfrwt>
<totfact> 0.22669404E+01</totfact>
</mgrwt>
</event>
<event>
 4    1  0.3057048E-007  0.7253255E+03  0.7818608E-02  0.9904962E-01
         -2   -1    0    0    0  501 -0.00000000000E+00  0.00000000000E+00  0.23478366200E+03  0.23478366201E+03  0.25500000000E-02 0.  1.
          2   -1    0    0  501    0  0.00000000000E+00 -0.00000000000E+00 -0.23450693052E+04  0.23450693052E+04  0.25500000000E-02 0. -1.
    8880023    1    1    2    0    0  0.68055763350E+02  0.29606630768E+03 -0.38462677600E+03  0.82099622931E+03  0.65864270000E+03 0.  0.
    8880022    1    1    2    0    0 -0.68055763350E+02 -0.29606630768E+03 -0.17256588672E+04  0.17588567379E+04  0.15294330000E+03 0. -1.
<mgrwt>
<rscale>  0 0.60021422E+03</rscale>
<asrwt>0</asrwt>
<pdfrwt beam="1">  1        2 0.36077988E+00 0.72532548E+03</pdfrwt>
<pdfrwt beam="2">  1       -2 0.36120565E-01 0.72532548E+03</pdfrwt>
<totfact> 0.32143418E+01</totfact>
</mgrwt>
</event>
<event>
 4    1  0.3057048E-007  0.9913695E+03  0.7818608E-02  0.9392937E-01
         -2   -1    0    0    0  501 -0.00000000000E+00  0.00000000000E+00  0.11315875109E+04  0.11315875109E+04  0.25500000000E-02 0.  1.
          2   -1    0    0  501    0  0.00000000000E+00 -0.00000000000E+00 -0.12121888195E+04  0.12121888195E+04  0.25500000000E-02 0. -1.
    8880023    1    1    2    0    0  0.10681302273E+03  0.73320823669E+03  0.73288125663E+03  0.12328537962E+04  0.65864270000E+03 0.  1.
    8880022    1    1    2    0    0 -0.10681302273E+03 -0.73320823669E+03 -0.81348256521E+03  0.11109225342E+04  0.15294330000E+03 0.  0.
<mgrwt>
<rscale>  0 0.92659223E+03</rscale>
<asrwt>0</asrwt>
<pdfrwt beam="1">  1        2 0.18649059E+00 0.99136953E+03</pdfrwt>
<pdfrwt beam="2">  1       -2 0.17409039E+00 0.99136953E+03</pdfrwt>
<totfact> 0.36853013E+00</totfact>
</mgrwt>
</event>
<event>
 4    1  0.3057048E-007  0.7206381E+03  0.7818608E-02  0.9920433E-01
         -2   -1    0    0    0  501 -0.00000000000E+00  0.00000000000E+00  0.23639715073E+04  0.23639715073E+04  0.25500000000E-02 0.  1.
          2   -1    0    0  501    0  0.00000000000E+00 -0.00000000000E+00 -0.19776518228E+03  0.19776518230E+03  0.25500000000E-02 0. -1.
    8880023    1    1    2    0    0 -0.24118602975E+03 -0.16534338701E+03  0.21065281201E+04  0.22263827307E+04  0.65864270000E+03 0.  0.
    8880022    1    1    2    0    0  0.24118602975E+03  0.16534338701E+03  0.59678204899E+02  0.33535395887E+03  0.15294330000E+03 0.  0.
<mgrwt>
<rscale>  0 0.59281177E+03</rscale>
<asrwt>0</asrwt>
<pdfrwt beam="1">  1        2 0.30425414E-01 0.72063815E+03</pdfrwt>
<pdfrwt beam="2">  1       -2 0.36368791E+00 0.72063815E+03</pdfrwt>
<totfact> 0.23626302E+00</totfact>
</mgrwt>
</event>
<event>
 4    1  0.3057048E-007  0.1007076E+04  0.7818608E-02  0.9372359E-01
         -2   -1    0    0    0  501 -0.00000000000E+00  0.00000000000E+00  0.90475536725E+03  0.90475536726E+03  0.25500000000E-02 0.  1.
          2   -1    0    0  501    0  0.00000000000E+00 -0.00000000000E+00 -0.11050503119E+04  0.11050503119E+04  0.25500000000E-02 0. -1.
    8880023    1    1    2    0    0  0.68429759893E+03  0.33485477426E+03 -0.56137732564E+03  0.11529725199E+04  0.65864270000E+03 0. -1.
    8880022    1    1    2    0    0 -0.68429759893E+03 -0.33485477426E+03  0.36108238103E+03  0.85683315917E+03  0.15294330000E+03 0.  0.
<mgrwt>
<rscale>  0 0.94385788E+03</rscale>
<asrwt>0</asrwt>
<pdfrwt beam="1">  1        2 0.17000774E+00 0.10070755E+04</pdfrwt>
<pdfrwt beam="2">  1       -2 0.13919313E+00 0.10070755E+04</pdfrwt>
<totfact> 0.78146212E+00</totfact>
</mgrwt>
</event>
<event>
 4    1  0.3057048E-007  0.7191654E+03  0.7818608E-02  0.9925420E-01
         -2   -1    0    0    0  501 -0.00000000000E+00  0.00000000000E+00  0.57511890538E+03  0.57511890538E+03  0.25500000000E-02 0.  1.
          2   -1    0    0  501    0  0.00000000000E+00 -0.00000000000E+00 -0.17933266800E+04  0.17933266800E+04  0.25500000000E-02 0. -1.
    8880023    1    1    2    0    0 -0.21832582674E+03  0.18900404807E+03  0.32631457579E+03  0.78973419924E+03  0.65864270000E+03 0.  1.
    8880022    1    1    2    0    0  0.21832582674E+03 -0.18900404807E+03 -0.15445223504E+04  0.15787113862E+04  0.15294330000E+03 0.  0.
<mgrwt>
<rscale>  0 0.59044985E+03</rscale>
<asrwt>0</asrwt>
<pdfrwt beam="1">  1        2 0.27589641E+00 0.71916542E+03</pdfrwt>
<pdfrwt beam="2">  1       -2 0.88479832E-01 0.71916542E+03</pdfrwt>
<totfact> 0.99034111E+00</totfact>
</mgrwt>
</event>
<event>
 4    1  0.3057048E-007  0.6805833E+03  0.7818608E-02  0.1008996E+00
         -2   -1    0    0    0  501 -0.00000000000E+00  0.00000000000E+00  0.19139141821E+03  0.19139141823E+03  0.25500000000E-02 0.  1.
          2   -1    0    0  501    0  0.00000000000E+00 -0.00000000000E+00 -0.17212902520E+04  0.17212902520E+04  0.25500000000E-02 0. -1.
    8880023    1    1    2    0    0  0.87682665745E+02  0.14729284473E+03 -0.46738471669E+03  0.82561620117E+03  0.65864270000E+03 0.  1.
    8880022    1    1    2    0    0 -0.87682665745E+02 -0.14729284473E+03 -0.10625141171E+04  0.10870654691E+04  0.15294330000E+03 0.  0.
<mgrwt>
<rscale>  0 0.51875774E+03</rscale>
<asrwt>0</asrwt>
<pdfrwt beam="1">  1        2 0.26481387E+00 0.68058331E+03</pdfrwt>
<pdfrwt beam="2">  1       -2 0.29444835E-01 0.68058331E+03</pdfrwt>
<totfact> 0.10416565E+02</totfact>
</mgrwt>
</event>
<event>
 4    1  0.3057048E-007  0.6847328E+03  0.7818608E-02  0.1006764E+00
          2   -1    0    0  501    0  0.00000000000E+00  0.00000000000E+00  0.26431313364E+03  0.26431313365E+03  0.25500000000E-02 0. -1.
         -2   -1    0    0    0  501 -0.00000000000E+00 -0.00000000000E+00 -0.15095769879E+04  0.15095769879E+04  0.25500000000E-02 0.  1.
    8880023    1    1    2    0    0 -0.17225666358E+03 -0.73324661686E+02 -0.13474386714E+04  0.15114397254E+04  0.65864270000E+03 0.  1.
    8880022    1    1    2    0    0  0.17225666358E+03  0.73324661686E+02  0.10217481713E+03  0.26245039613E+03  0.15294330000E+03 0.  0.
<mgrwt>
<rscale>  0 0.52781305E+03</rscale>
<asrwt>0</asrwt>
<pdfrwt beam="1">  1        2 0.40663560E-01 0.68473285E+03</pdfrwt>
<pdfrwt beam="2">  1       -2 0.23224261E+00 0.68473285E+03</pdfrwt>
<totfact> 0.10782069E+01</totfact>
</mgrwt>
</event>
<event>
 4    1  0.3057048E-007  0.1148289E+04  0.7818608E-02  0.9209106E-01
          2   -1    0    0  501    0  0.00000000000E+00  0.00000000000E+00  0.24251399128E+04  0.24251399128E+04  0.25500000000E-02 0. -1.
         -2   -1    0    0    0  501 -0.00000000000E+00 -0.00000000000E+00 -0.78575613435E+03  0.78575613435E+03  0.25500000000E-02 0.  1.
    8880023    1    1    2    0    0  0.58195825440E+03 -0.73897309846E+03 -0.17492792700E+03  0.11615363257E+04  0.65864270000E+03 0.  0.
    8880022    1    1    2    0    0 -0.58195825440E+03  0.73897309846E+03  0.18143117054E+04  0.20493597214E+04  0.15294330000E+03 0.  0.
<mgrwt>
<rscale>  0 0.10959933E+04</rscale>
<asrwt>0</asrwt>
<pdfrwt beam="1">  1        2 0.37309846E+00 0.11482887E+04</pdfrwt>
<pdfrwt beam="2">  1       -2 0.12088556E+00 0.11482887E+04</pdfrwt>
<totfact> 0.19768208E+00</totfact>
</mgrwt>
</event>
<event>
 4    1  0.3057048E-007  0.9067459E+03  0.7818608E-02  0.9515288E-01
         -2   -1    0    0    0  501 -0.00000000000E+00  0.00000000000E+00  0.11022057057E+04  0.11022057057E+04  0.25500000000E-02 0.  1.
          2   -1    0    0  501    0  0.00000000000E+00 -0.00000000000E+00 -0.90093345779E+03  0.90093345779E+03  0.25500000000E-02 0. -1.
    8880023    1    1    2    0    0  0.19883488780E+03  0.59062904964E+03  0.73599859465E+03  0.11678536400E+04  0.65864270000E+03 0.  1.
    8880022    1    1    2    0    0 -0.19883488780E+03 -0.59062904964E+03 -0.53472634671E+03  0.83528552350E+03  0.15294330000E+03 0.  0.
<mgrwt>
<rscale>  0 0.83166036E+03</rscale>
<asrwt>0</asrwt>
<pdfrwt beam="1">  1        2 0.13860515E+00 0.90674594E+03</pdfrwt>
<pdfrwt beam="2">  1       -2 0.16957011E+00 0.90674594E+03</pdfrwt>
<totfact> 0.62887253E+00</totfact>
</mgrwt>
</event>
<event>
 4    1  0.3057048E-007  0.9412122E+03  0.7818608E-02  0.9462872E-01
          2   -1    0    0  501    0  0.00000000000E+00  0.00000000000E+00  0.15704520797E+04  0.15704520797E+04  0.25500000000E-02 0. -1.
         -2   -1    0    0    0  501 -0.00000000000E+00 -0.00000000000E+00 -0.49103824487E+03  0.49103824488E+03  0.25500000000E-02 0.  1.
    8880023    1    1    2    0    0  0.76493760744E+02 -0.66799615926E+03  0.23274723902E+03  0.96956260642E+03  0.65864270000E+03 0.  0.
    8880022    1    1    2    0    0 -0.76493760744E+02  0.66799615926E+03  0.84666659577E+03  0.10919277181E+04  0.15294330000E+03 0.  0.
<mgrwt>
<rscale>  0 0.87077331E+03</rscale>
<asrwt>0</asrwt>
<pdfrwt beam="1">  1        2 0.24160801E+00 0.94121218E+03</pdfrwt>
<pdfrwt beam="2">  1       -2 0.75544346E-01 0.94121218E+03</pdfrwt>
<totfact> 0.18272031E+01</totfact>
</mgrwt>
</event>
<event>
 4    1  0.3057048E-007  0.8205759E+03  0.7818608E-02  0.9667955E-01
          2   -1    0    0  501    0  0.00000000000E+00  0.00000000000E+00  0.12905609175E+04  0.12905609175E+04  0.25500000000E-02 0. -1.
         -2   -1    0    0    0  501 -0.00000000000E+00 -0.00000000000E+00 -0.84345325360E+03  0.84345325360E+03  0.25500000000E-02 0.  1.
    8880023    1    1    2    0    0  0.16619170783E+03 -0.46034209748E+03 -0.56715674298E+03  0.99750263550E+03  0.65864270000E+03 0.  1.
    8880022    1    1    2    0    0 -0.16619170783E+03  0.46034209748E+03  0.10142644069E+04  0.11365115356E+04  0.15294330000E+03 0.  0.
<mgrwt>
<rscale>  0 0.72957221E+03</rscale>
<asrwt>0</asrwt>
<pdfrwt beam="1">  1        2 0.19854783E+00 0.82057586E+03</pdfrwt>
<pdfrwt beam="2">  1       -2 0.12976204E+00 0.82057586E+03</pdfrwt>
<totfact> 0.73956446E+00</totfact>
</mgrwt>
</event>
<event>
 4    1  0.3057048E-007  0.7010575E+03  0.7818608E-02  0.9992842E-01
         -2   -1    0    0    0  501 -0.00000000000E+00  0.00000000000E+00  0.10880159893E+03  0.10880159896E+03  0.25500000000E-02 0.  1.
          2   -1    0    0  501    0  0.00000000000E+00 -0.00000000000E+00 -0.29831506525E+04  0.29831506525E+04  0.25500000000E-02 0. -1.
    8880023    1    1    2    0    0  0.93536049050E+01 -0.23996638589E+03 -0.11697856027E+04  0.13637741451E+04  0.65864270000E+03 0.  1.
    8880022    1    1    2    0    0 -0.93536049050E+01  0.23996638589E+03 -0.17045634509E+04  0.17281781064E+04  0.15294330000E+03 0.  0.
<mgrwt>
<rscale>  0 0.55965199E+03</rscale>
<asrwt>0</asrwt>
<pdfrwt beam="1">  1        2 0.45894619E+00 0.70105746E+03</pdfrwt>
<pdfrwt beam="2">  1       -2 0.16738710E-01 0.70105746E+03</pdfrwt>
<totfact> 0.55083097E+01</totfact>
</mgrwt>
</event>
<event>
 4    1  0.3057048E-007  0.9018552E+03  0.7818608E-02  0.9523060E-01
         -2   -1    0    0    0  501 -0.00000000000E+00  0.00000000000E+00  0.66696595097E+03  0.66696595097E+03  0.25500000000E-02 0.  1.
          2   -1    0    0  501    0  0.00000000000E+00 -0.00000000000E+00 -0.27345847329E+04  0.27345847329E+04  0.25500000000E-02 0. -1.
    8880023    1    1    2    0    0  0.67879282022E+02  0.61231121276E+03  0.29990186924E+03  0.95041251867E+03  0.65864270000E+03 0.  0.
    8880022    1    1    2    0    0 -0.67879282022E+02 -0.61231121276E+03 -0.23675206512E+04  0.24511381652E+04  0.15294330000E+03 0.  0.
<mgrwt>
<rscale>  0 0.82604849E+03</rscale>
<asrwt>0</asrwt>
<pdfrwt beam="1">  1        2 0.42070534E+00 0.90185521E+03</pdfrwt>
<pdfrwt beam="2">  1       -2 0.10261015E+00 0.90185521E+03</pdfrwt>
<totfact> 0.20239797E+00</totfact>
</mgrwt>
</event>
<event>
 4    1  0.3057048E-007  0.1155878E+04  0.7818608E-02  0.9201253E-01
         -2   -1    0    0    0  501 -0.00000000000E+00  0.00000000000E+00  0.12004749544E+04  0.12004749544E+04  0.25500000000E-02 0.  1.
          2   -1    0    0  501    0  0.00000000000E+00 -0.00000000000E+00 -0.14364103348E+04  0.14364103348E+04  0.25500000000E-02 0. -1.
    8880023    1    1    2    0    0  0.93616771386E+03  0.16072951876E+03 -0.90246649104E+03  0.14664582982E+04  0.65864270000E+03 0. -1.
    8880022    1    1    2    0    0 -0.93616771386E+03 -0.16072951876E+03  0.66653111068E+03  0.11704269910E+04  0.15294330000E+03 0.  0.
<mgrwt>
<rscale>  0 0.11040507E+04</rscale>
<asrwt>0</asrwt>
<pdfrwt beam="1">  1        2 0.22098621E+00 0.11558781E+04</pdfrwt>
<pdfrwt beam="2">  1       -2 0.18468845E+00 0.11558781E+04</pdfrwt>
<totfact> 0.22641338E+00</totfact>
</mgrwt>
</event>
<event>
 4    1  0.3057048E-007  0.6869178E+03  0.7818608E-02  0.1005653E+00
         -2   -1    0    0    0  501 -0.00000000000E+00  0.00000000000E+00  0.11398914791E+04  0.11398914791E+04  0.25500000000E-02 0.  1.
          2   -1    0    0  501    0  0.00000000000E+00 -0.00000000000E+00 -0.64761242124E+03  0.64761242125E+03  0.25500000000E-02 0. -1.
    8880023    1    1    2    0    0  0.67707866522E+02  0.18292477007E+03  0.10053982153E+04  0.12176541399E+04  0.65864270000E+03 0.  1.
    8880022    1    1    2    0    0 -0.67707866522E+02 -0.18292477007E+03 -0.51311915749E+03  0.56984976045E+03  0.15294330000E+03 0.  0.
<mgrwt>
<rscale>  0 0.53239350E+03</rscale>
<asrwt>0</asrwt>
<pdfrwt beam="1">  1        2 0.99632682E-01 0.68691778E+03</pdfrwt>
<pdfrwt beam="2">  1       -2 0.17536792E+00 0.68691778E+03</pdfrwt>
<totfact> 0.90398037E+00</totfact>
</mgrwt>
</event>
<event>
 4    1  0.3057048E-007  0.7403486E+03  0.7818608E-02  0.9858933E-01
         -2   -1    0    0    0  501 -0.00000000000E+00  0.00000000000E+00  0.14239775592E+03  0.14239775594E+03  0.25500000000E-02 0.  1.
          2   -1    0    0  501    0  0.00000000000E+00 -0.00000000000E+00 -0.22132885625E+04  0.22132885625E+04  0.25500000000E-02 0. -1.
    8880023    1    1    2    0    0 -0.82122767886E+02  0.32796601256E+03 -0.15304410789E+04  0.17001076309E+04  0.65864270000E+03 0. -1.
    8880022    1    1    2    0    0  0.82122767886E+02 -0.32796601256E+03 -0.54044972769E+03  0.65557868755E+03  0.15294330000E+03 0. -1.
<mgrwt>
<rscale>  0 0.62293532E+03</rscale>
<asrwt>0</asrwt>
<pdfrwt beam="1">  1        2 0.34050591E+00 0.74034861E+03</pdfrwt>
<pdfrwt beam="2">  1       -2 0.21907349E-01 0.74034861E+03</pdfrwt>
<totfact> 0.95177880E+01</totfact>
</mgrwt>
</event>
<event>
 4    1  0.3177867E-007  0.7188966E+03  0.7818608E-02  0.9926337E-01
          2   -1    0    0  501    0  0.00000000000E+00  0.00000000000E+00  0.23223044091E+04  0.23223044091E+04  0.25500000000E-02 0. -1.
         -2   -1    0    0    0  501 -0.00000000000E+00 -0.00000000000E+00 -0.61571449436E+03  0.61571449436E+03  0.25500000000E-02 0.  1.
    8880023    1    1    2    0    0  0.26484027906E+03 -0.11340937367E+03 -0.38886445362E+03  0.81732969419E+03  0.65864270000E+03 0.  1.
    8880022    1    1    2    0    0 -0.26484027906E+03  0.11340937367E+03  0.20954543683E+04  0.21206892093E+04  0.15294330000E+03 0.  0.
<mgrwt>
<rscale>  0 0.59001669E+03</rscale>
<asrwt>0</asrwt>
<pdfrwt beam="1">  1        2 0.35727760E+00 0.71889656E+03</pdfrwt>
<pdfrwt beam="2">  1       -2 0.94725307E-01 0.71889656E+03</pdfrwt>
<totfact> 0.43408434E+00</totfact>
</mgrwt>
</event>
<event>
 4    1  0.3057048E-007  0.1005322E+04  0.7818608E-02  0.9374628E-01
          2   -1    0    0  501    0  0.00000000000E+00  0.00000000000E+00  0.25568260617E+04  0.25568260617E+04  0.25500000000E-02 0. -1.
         -2   -1    0    0    0  501 -0.00000000000E+00 -0.00000000000E+00 -0.82606665117E+03  0.82606665118E+03  0.25500000000E-02 0.  1.
    8880023    1    1    2    0    0  0.66156754216E+03 -0.37308149752E+03 -0.42550638886E+03  0.10916626355E+04  0.65864270000E+03 0.  1.
    8880022    1    1    2    0    0 -0.66156754216E+03  0.37308149752E+03  0.21562657994E+04  0.22912300773E+04  0.15294330000E+03 0.  0.
<mgrwt>
<rscale>  0 0.94193422E+03</rscale>
<asrwt>0</asrwt>
<pdfrwt beam="1">  1        2 0.39335784E+00 0.10053217E+04</pdfrwt>
<pdfrwt beam="2">  1       -2 0.12708718E+00 0.10053217E+04</pdfrwt>
<totfact> 0.14939508E+00</totfact>
</mgrwt>
</event>
<event>
 4    1  0.3057048E-007  0.7109657E+03  0.7818608E-02  0.9954432E-01
         -2   -1    0    0    0  501 -0.00000000000E+00  0.00000000000E+00  0.44076398658E+03  0.44076398658E+03  0.25500000000E-02 0.  1.
          2   -1    0    0  501    0  0.00000000000E+00 -0.00000000000E+00 -0.70936935640E+03  0.70936935640E+03  0.25500000000E-02 0. -1.
    8880023    1    1    2    0    0  0.13221735433E+03 -0.23276728922E+03  0.42373696152E+02  0.71222733457E+03  0.65864270000E+03 0.  0.
    8880022    1    1    2    0    0 -0.13221735433E+03  0.23276728922E+03 -0.31097906597E+03  0.43790600842E+03  0.15294330000E+03 0.  0.
<mgrwt>
<rscale>  0 0.57694261E+03</rscale>
<asrwt>0</asrwt>
<pdfrwt beam="1">  1        2 0.10913375E+00 0.71096571E+03</pdfrwt>
<pdfrwt beam="2">  1       -2 0.67809844E-01 0.71096571E+03</pdfrwt>
<totfact> 0.81465875E+01</totfact>
</mgrwt>
</event>
<event>
 4    1  0.3057048E-007  0.8751875E+03  0.7818608E-02  0.9567099E-01
          2   -1    0    0  501    0  0.00000000000E+00  0.00000000000E+00  0.27267725483E+04  0.27267725483E+04  0.25500000000E-02 0. -1.
         -2   -1    0    0    0  501 -0.00000000000E+00 -0.00000000000E+00 -0.40312983503E+03  0.40312983504E+03  0.25500000000E-02 0.  1.
    8880023    1    1    2    0    0 -0.37455788797E+03  0.43800602721E+03  0.16523581502E+03  0.89064918579E+03  0.65864270000E+03 0.  0.
    8880022    1    1    2    0    0  0.37455788797E+03 -0.43800602721E+03  0.21584068982E+04  0.22392531975E+04  0.15294330000E+03 0.  0.
<mgrwt>
<rscale>  0 0.79512616E+03</rscale>
<asrwt>0</asrwt>
<pdfrwt beam="1">  1        2 0.41950346E+00 0.87518746E+03</pdfrwt>
<pdfrwt beam="2">  1       -2 0.62019975E-01 0.87518746E+03</pdfrwt>
<totfact> 0.63920083E+00</totfact>
</mgrwt>
</event>
<event>
 4    1  0.3057048E-007  0.1476623E+04  0.7818608E-02  0.8926322E-01
         -2   -1    0    0    0  501 -0.00000000000E+00  0.00000000000E+00  0.12574201154E+04  0.12574201154E+04  0.25500000000E-02 0.  1.
          2   -1    0    0  501    0  0.00000000000E+00 -0.00000000000E+00 -0.15718856092E+04  0.15718856092E+04  0.25500000000E-02 0. -1.
    8880023    1    1    2    0    0 -0.13112441728E+04  0.16506020193E+03 -0.83401432984E+02  0.14789767261E+04  0.65864270000E+03 0.  0.
    8880022    1    1    2    0    0  0.13112441728E+04 -0.16506020193E+03 -0.23106406084E+03  0.13503289985E+04  0.15294330000E+03 0.  0.
<mgrwt>
<rscale>  0 0.14386292E+04</rscale>
<asrwt>0</asrwt>
<pdfrwt beam="1">  1        2 0.24182855E+00 0.14766233E+04</pdfrwt>
<pdfrwt beam="2">  1       -2 0.19344925E+00 0.14766233E+04</pdfrwt>
<totfact> 0.16045904E+00</totfact>
</mgrwt>
</event>
<event>
 4    1  0.3057048E-007  0.8165163E+03  0.7818608E-02  0.9676160E-01
         -2   -1    0    0    0  501 -0.00000000000E+00  0.00000000000E+00  0.75483922916E+03  0.75483922917E+03  0.25500000000E-02 0.  1.
          2   -1    0    0  501    0  0.00000000000E+00 -0.00000000000E+00 -0.84076902238E+03  0.84076902238E+03  0.25500000000E-02 0. -1.
    8880023    1    1    2    0    0 -0.31486436039E+03 -0.36571734663E+03  0.38631817470E+03  0.90329434928E+03  0.65864270000E+03 0.  0.
    8880022    1    1    2    0    0  0.31486436039E+03  0.36571734663E+03 -0.47224796791E+03  0.69231390227E+03  0.15294330000E+03 0.  0.
<mgrwt>
<rscale>  0 0.72454120E+03</rscale>
<asrwt>0</asrwt>
<pdfrwt beam="1">  1        2 0.12934908E+00 0.81651635E+03</pdfrwt>
<pdfrwt beam="2">  1       -2 0.11612911E+00 0.81651635E+03</pdfrwt>
<totfact> 0.18705332E+01</totfact>
</mgrwt>
</event>
<event>
 4    1  0.3057048E-007  0.1201567E+04  0.7818608E-02  0.9155600E-01
          2   -1    0    0  501    0  0.00000000000E+00  0.00000000000E+00  0.39802915912E+04  0.39802915912E+04  0.25500000000E-02 0. -1.
         -2   -1    0    0    0  501 -0.00000000000E+00 -0.00000000000E+00 -0.34354332464E+03  0.34354332465E+03  0.25500000000E-02 0.  1.
    8880023    1    1    2    0    0 -0.12302258684E+03 -0.99740613051E+03  0.12716424349E+04  0.17495251455E+04  0.65864270000E+03 0.  0.
    8880022    1    1    2    0    0  0.12302258684E+03  0.99740613051E+03  0.23651058316E+04  0.25743097704E+04  0.15294330000E+03 0.  0.
<mgrwt>
<rscale>  0 0.11523694E+04</rscale>
<asrwt>0</asrwt>
<pdfrwt beam="1">  1        2 0.61235254E+00 0.12015672E+04</pdfrwt>
<pdfrwt beam="2">  1       -2 0.52852821E-01 0.12015672E+04</pdfrwt>
<totfact> 0.12222043E+00</totfact>
</mgrwt>
</event>
<event>
 4    1  0.3057048E-007  0.6837705E+03  0.7818608E-02  0.1007266E+00
          2   -1    0    0  501    0  0.00000000000E+00  0.00000000000E+00  0.19916518698E+04  0.19916518698E+04  0.25500000000E-02 0. -1.
         -2   -1    0    0    0  501 -0.00000000000E+00 -0.00000000000E+00 -0.11338055530E+03  0.11338055533E+03  0.25500000000E-02 0.  1.
    8880023    1    1    2    0    0 -0.17794730171E+03 -0.45460298056E+02  0.11432308090E+04  0.13321106447E+04  0.65864270000E+03 0.  0.
    8880022    1    1    2    0    0  0.17794730171E+03  0.45460298056E+02  0.73504050543E+03  0.77292178034E+03  0.15294330000E+03 0.  0.
<mgrwt>
<rscale>  0 0.52575650E+03</rscale>
<asrwt>0</asrwt>
<pdfrwt beam="1">  1        2 0.30640796E+00 0.68377049E+03</pdfrwt>
<pdfrwt beam="2">  1       -2 0.17443164E-01 0.68377049E+03</pdfrwt>
<totfact> 0.18837970E+02</totfact>
</mgrwt>
</event>
<event>
 4    1  0.3057048E-007  0.8353695E+03  0.7818608E-02  0.9638974E-01
         -2   -1    0    0    0  501 -0.00000000000E+00  0.00000000000E+00  0.59839873293E+03  0.59839873293E+03  0.25500000000E-02 0.  1.
          2   -1    0    0  501    0  0.00000000000E+00 -0.00000000000E+00 -0.34857925417E+04  0.34857925417E+04  0.25500000000E-02 0. -1.
    8880023    1    1    2    0    0 -0.51332394880E+03 -0.23033147784E+02  0.27284627412E+03  0.87879878122E+03  0.65864270000E+03 0.  1.
    8880022    1    1    2    0    0  0.51332394880E+03  0.23033147784E+02 -0.31602400829E+04  0.32053924934E+04  0.15294330000E+03 0.  0.
<mgrwt>
<rscale>  0 0.74769466E+03</rscale>
<asrwt>0</asrwt>
<pdfrwt beam="1">  1        2 0.53627576E+00 0.83536950E+03</pdfrwt>
<pdfrwt beam="2">  1       -2 0.92061345E-01 0.83536950E+03</pdfrwt>
<totfact> 0.89016275E-01</totfact>
</mgrwt>
</event>
<event>
 4    1  0.3057048E-007  0.6851316E+03  0.7818608E-02  0.1006558E+00
         -2   -1    0    0    0  501 -0.00000000000E+00  0.00000000000E+00  0.13425428403E+03  0.13425428406E+03  0.25500000000E-02 0.  1.
          2   -1    0    0  501    0  0.00000000000E+00 -0.00000000000E+00 -0.18149848627E+04  0.18149848627E+04  0.25500000000E-02 0. -1.
    8880023    1    1    2    0    0 -0.24247321362E+02  0.18710191471E+03 -0.14915585990E+04  0.16413873155E+04  0.65864270000E+03 0. -1.
    8880022    1    1    2    0    0  0.24247321362E+02 -0.18710191471E+03 -0.18917197967E+03  0.30785183122E+03  0.15294330000E+03 0.  0.
<mgrwt>
<rscale>  0 0.52865794E+03</rscale>
<asrwt>0</asrwt>
<pdfrwt beam="1">  1        2 0.27922842E+00 0.68513157E+03</pdfrwt>
<pdfrwt beam="2">  1       -2 0.20654507E-01 0.68513157E+03</pdfrwt>
<totfact> 0.17522278E+02</totfact>
</mgrwt>
</event>
<event>
 4    1  0.3057048E-007  0.1016646E+04  0.7818608E-02  0.9360096E-01
          2   -1    0    0  501    0  0.00000000000E+00  0.00000000000E+00  0.17834913910E+04  0.17834913910E+04  0.25500000000E-02 0. -1.
         -2   -1    0    0    0  501 -0.00000000000E+00 -0.00000000000E+00 -0.82773717415E+03  0.82773717415E+03  0.25500000000E-02 0.  1.
    8880023    1    1    2    0    0  0.71109177509E+03 -0.30677063530E+03 -0.35859939636E+03  0.10780368587E+04  0.65864270000E+03 0.  0.
    8880022    1    1    2    0    0 -0.71109177509E+03  0.30677063530E+03  0.13143536132E+04  0.15331917065E+04  0.15294330000E+03 0.  0.
<mgrwt>
<rscale>  0 0.95433675E+03</rscale>
<asrwt>0</asrwt>
<pdfrwt beam="1">  1        2 0.27438329E+00 0.10166464E+04</pdfrwt>
<pdfrwt beam="2">  1       -2 0.12734418E+00 0.10166464E+04</pdfrwt>
<totfact> 0.40085262E+00</totfact>
</mgrwt>
</event>
<event>
 4    1  0.5025770E-007  0.8839171E+03  0.7818608E-02  0.9552359E-01
          2   -1    0    0  501    0  0.00000000000E+00  0.00000000000E+00  0.22144719641E+04  0.22144719641E+04  0.25500000000E-02 0. -1.
         -2   -1    0    0    0  501 -0.00000000000E+00 -0.00000000000E+00 -0.13844762353E+04  0.13844762353E+04  0.25500000000E-02 0.  1.
    8880023    1    1    2    0    0 -0.21031298929E+03 -0.55069749736E+03 -0.11938494255E+04  0.14854581596E+04  0.65864270000E+03 0.  0.
    8880022    1    1    2    0    0  0.21031298929E+03  0.55069749736E+03  0.20238451542E+04  0.21134900398E+04  0.15294330000E+03 0. -1.
<mgrwt>
<rscale>  0 0.80531250E+03</rscale>
<asrwt>0</asrwt>
<pdfrwt beam="1">  1        2 0.34068800E+00 0.88391713E+03</pdfrwt>
<pdfrwt beam="2">  1       -2 0.21299634E+00 0.88391713E+03</pdfrwt>
<totfact> 0.56807052E-01</totfact>
</mgrwt>
</event>
<event>
 4    1  0.3057048E-007  0.7950005E+03  0.7818608E-02  0.9721712E-01
          2   -1    0    0  501    0  0.00000000000E+00  0.00000000000E+00  0.30927058349E+03  0.30927058350E+03  0.25500000000E-02 0. -1.
         -2   -1    0    0    0  501 -0.00000000000E+00 -0.00000000000E+00 -0.19663254119E+04  0.19663254119E+04  0.25500000000E-02 0.  1.
    8880023    1    1    2    0    0 -0.23278224428E+03 -0.37951018695E+03 -0.16185705645E+04  0.18032738100E+04  0.65864270000E+03 0.  1.
    8880022    1    1    2    0    0  0.23278224428E+03  0.37951018695E+03 -0.38484263893E+02  0.47232218541E+03  0.15294330000E+03 0.  0.
<mgrwt>
<rscale>  0 0.69738649E+03</rscale>
<asrwt>0</asrwt>
<pdfrwt beam="1">  1        2 0.47580091E-01 0.79500048E+03</pdfrwt>
<pdfrwt beam="2">  1       -2 0.30251159E+00 0.79500048E+03</pdfrwt>
<totfact> 0.33665220E+00</totfact>
</mgrwt>
</event>
<event>
 4    1  0.3057048E-007  0.7110778E+03  0.7818608E-02  0.9954020E-01
         -2   -1    0    0    0  501 -0.00000000000E+00  0.00000000000E+00  0.53040620260E+03  0.53040620261E+03  0.25500000000E-02 0.  1.
          2   -1    0    0  501    0  0.00000000000E+00 -0.00000000000E+00 -0.57468477841E+03  0.57468477841E+03  0.25500000000E-02 0. -1.
    8880023    1    1    2    0    0 -0.19819813946E+03  0.18038534733E+03  0.16787875538E+03  0.73062634690E+03  0.65864270000E+03 0.  0.
    8880022    1    1    2    0    0  0.19819813946E+03 -0.18038534733E+03 -0.21215733118E+03  0.37446463412E+03  0.15294330000E+03 0.  0.
<mgrwt>
<rscale>  0 0.57713162E+03</rscale>
<asrwt>0</asrwt>
<pdfrwt beam="1">  1        2 0.88413043E-01 0.71107776E+03</pdfrwt>
<pdfrwt beam="2">  1       -2 0.81600954E-01 0.71107776E+03</pdfrwt>
<totfact> 0.70049489E+01</totfact>
</mgrwt>
</event>
<event>
 4    1  0.3057048E-007  0.9130569E+03  0.7818608E-02  0.9505388E-01
          2   -1    0    0  501    0  0.00000000000E+00  0.00000000000E+00  0.20047265774E+04  0.20047265774E+04  0.25500000000E-02 0. -1.
         -2   -1    0    0    0  501 -0.00000000000E+00 -0.00000000000E+00 -0.54362553315E+03  0.54362553315E+03  0.25500000000E-02 0.  1.
    8880023    1    1    2    0    0 -0.11424518863E+03 -0.62194111016E+03 -0.38334164398E+02  0.91386127069E+03  0.65864270000E+03 0.  1.
    8880022    1    1    2    0    0  0.11424518863E+03  0.62194111016E+03  0.14994352086E+04  0.16344908398E+04  0.15294330000E+03 0.  0.
<mgrwt>
<rscale>  0 0.83887754E+03</rscale>
<asrwt>0</asrwt>
<pdfrwt beam="1">  1        2 0.30841948E+00 0.91305691E+03</pdfrwt>
<pdfrwt beam="2">  1       -2 0.83634697E-01 0.91305691E+03</pdfrwt>
<totfact> 0.84050731E+00</totfact>
</mgrwt>
</event>
<event>
 4    1  0.3057048E-007  0.9105383E+03  0.7818608E-02  0.9509322E-01
          2   -1    0    0  501    0  0.00000000000E+00  0.00000000000E+00  0.16708765185E+04  0.16708765185E+04  0.25500000000E-02 0. -1.
         -2   -1    0    0    0  501 -0.00000000000E+00 -0.00000000000E+00 -0.58647907246E+03  0.58647907246E+03  0.25500000000E-02 0.  1.
    8880023    1    1    2    0    0  0.15224506176E+03 -0.60999282338E+03 -0.91572091865E+02  0.91513138820E+03  0.65864270000E+03 0.  0.
    8880022    1    1    2    0    0 -0.15224506176E+03  0.60999282338E+03  0.11759695379E+04  0.13422242028E+04  0.15294330000E+03 0.  0.
<mgrwt>
<rscale>  0 0.83600050E+03</rscale>
<asrwt>0</asrwt>
<pdfrwt beam="1">  1        2 0.25705792E+00 0.91053831E+03</pdfrwt>
<pdfrwt beam="2">  1       -2 0.90227550E-01 0.91053831E+03</pdfrwt>
<totfact> 0.10774609E+01</totfact>
</mgrwt>
</event>
<event>
 4    1  0.3057048E-007  0.6787375E+03  0.7818608E-02  0.1010047E+00
         -2   -1    0    0    0  501 -0.00000000000E+00  0.00000000000E+00  0.31315049394E+03  0.31315049395E+03  0.25500000000E-02 0.  1.
          2   -1    0    0  501    0  0.00000000000E+00 -0.00000000000E+00 -0.16698817829E+04  0.16698817829E+04  0.25500000000E-02 0. -1.
    8880023    1    1    2    0    0  0.15725175163E+03  0.46328445252E+02 -0.76176451457E+02  0.68299889916E+03  0.65864270000E+03 0.  1.
    8880022    1    1    2    0    0 -0.15725175163E+03 -0.46328445252E+02 -0.12805548375E+04  0.13000333777E+04  0.15294330000E+03 0.  0.
<mgrwt>
<rscale>  0 0.51455973E+03</rscale>
<asrwt>0</asrwt>
<pdfrwt beam="1">  1        2 0.25690489E+00 0.67873754E+03</pdfrwt>
<pdfrwt beam="2">  1       -2 0.48177000E-01 0.67873754E+03</pdfrwt>
<totfact> 0.43006756E+01</totfact>
</mgrwt>
</event>
<event>
 4    1  0.3057048E-007  0.7089909E+03  0.7818608E-02  0.9961767E-01
          2   -1    0    0  501    0  0.00000000000E+00  0.00000000000E+00  0.10552680728E+04  0.10552680728E+04  0.25500000000E-02 0. -1.
         -2   -1    0    0    0  501 -0.00000000000E+00 -0.00000000000E+00 -0.29406412467E+03  0.29406412468E+03  0.25500000000E-02 0.  1.
    8880023    1    1    2    0    0 -0.10151697459E+03  0.24197562113E+03  0.24448780650E+03  0.74996159311E+03  0.65864270000E+03 0.  0.
    8880022    1    1    2    0    0  0.10151697459E+03 -0.24197562113E+03  0.51671614168E+03  0.59937060442E+03  0.15294330000E+03 0.  0.
<mgrwt>
<rscale>  0 0.57358929E+03</rscale>
<asrwt>0</asrwt>
<pdfrwt beam="1">  1        2 0.16234893E+00 0.70899091E+03</pdfrwt>
<pdfrwt beam="2">  1       -2 0.45240635E-01 0.70899091E+03</pdfrwt>
<totfact> 0.10943349E+02</totfact>
</mgrwt>
</event>
<event>
 4    1  0.3057048E-007  0.6719553E+03  0.7818608E-02  0.1014298E+00
          2   -1    0    0  501    0  0.00000000000E+00  0.00000000000E+00  0.11351920640E+04  0.11351920640E+04  0.25500000000E-02 0. -1.
         -2   -1    0    0    0  501 -0.00000000000E+00 -0.00000000000E+00 -0.79017148126E+03  0.79017148126E+03  0.25500000000E-02 0.  1.
    8880023    1    1    2    0    0  0.32444719267E+02  0.12907747884E+03 -0.63503884955E+03  0.92455297418E+03  0.65864270000E+03 0.  1.
    8880022    1    1    2    0    0 -0.32444719267E+02 -0.12907747884E+03  0.98005943228E+03  0.10008105711E+04  0.15294330000E+03 0.  0.
<mgrwt>
<rscale>  0 0.49801509E+03</rscale>
<asrwt>0</asrwt>
<pdfrwt beam="1">  1        2 0.17464493E+00 0.67195525E+03</pdfrwt>
<pdfrwt beam="2">  1       -2 0.12156484E+00 0.67195525E+03</pdfrwt>
<totfact> 0.10968182E+01</totfact>
</mgrwt>
</event>
<event>
 4    1  0.3057048E-007  0.6709620E+03  0.7818608E-02  0.1014982E+00
          2   -1    0    0  501    0  0.00000000000E+00  0.00000000000E+00  0.11117740195E+04  0.11117740195E+04  0.25500000000E-02 0. -1.
         -2   -1    0    0    0  501 -0.00000000000E+00 -0.00000000000E+00 -0.60100202816E+03  0.60100202817E+03  0.25500000000E-02 0.  1.
    8880023    1    1    2    0    0  0.11928389940E+03  0.46380698141E+02 -0.39951576949E+03  0.78089876050E+03  0.65864270000E+03 0.  1.
    8880022    1    1    2    0    0 -0.11928389940E+03 -0.46380698141E+02  0.91028776081E+03  0.93187728716E+03  0.15294330000E+03 0.  0.
<mgrwt>
<rscale>  0 0.49541586E+03</rscale>
<asrwt>0</asrwt>
<pdfrwt beam="1">  1        2 0.17104216E+00 0.67096201E+03</pdfrwt>
<pdfrwt beam="2">  1       -2 0.92461851E-01 0.67096201E+03</pdfrwt>
<totfact> 0.21843792E+01</totfact>
</mgrwt>
</event>
<event>
 4    1  0.3057048E-007  0.7040482E+03  0.7818608E-02  0.9980805E-01
         -2   -1    0    0    0  501 -0.00000000000E+00  0.00000000000E+00  0.49942827425E+03  0.49942827425E+03  0.25500000000E-02 0.  1.
          2   -1    0    0  501    0  0.00000000000E+00 -0.00000000000E+00 -0.21601923843E+04  0.21601923843E+04  0.25500000000E-02 0. -1.
    8880023    1    1    2    0    0 -0.18980613836E+02 -0.24801888196E+03  0.23443866260E+03  0.74205479737E+03  0.65864270000E+03 0.  1.
    8880022    1    1    2    0    0  0.18980613836E+02  0.24801888196E+03 -0.18952027726E+04  0.19175658612E+04  0.15294330000E+03 0.  0.
<mgrwt>
<rscale>  0 0.56499982E+03</rscale>
<asrwt>0</asrwt>
<pdfrwt beam="1">  1        2 0.33233729E+00 0.70404818E+03</pdfrwt>
<pdfrwt beam="2">  1       -2 0.76835120E-01 0.70404818E+03</pdfrwt>
<totfact> 0.86177352E+00</totfact>
</mgrwt>
</event>
<event>
 4    1  0.3057048E-007  0.8378704E+03  0.7818608E-02  0.9634209E-01
         -2   -1    0    0    0  501 -0.00000000000E+00  0.00000000000E+00  0.47884831868E+03  0.47884831868E+03  0.25500000000E-02 0.  1.
          2   -1    0    0  501    0  0.00000000000E+00 -0.00000000000E+00 -0.15178020010E+04  0.15178020010E+04  0.25500000000E-02 0. -1.
    8880023    1    1    2    0    0 -0.19557502922E+03  0.47954883042E+03 -0.13820349038E+02  0.83798441580E+03  0.65864270000E+03 0.  1.
    8880022    1    1    2    0    0  0.19557502922E+03 -0.47954883042E+03 -0.10251333333E+04  0.11586659039E+04  0.15294330000E+03 0.  0.
<mgrwt>
<rscale>  0 0.75072805E+03</rscale>
<asrwt>0</asrwt>
<pdfrwt beam="1">  1        2 0.23350800E+00 0.83787044E+03</pdfrwt>
<pdfrwt beam="2">  1       -2 0.73668973E-01 0.83787044E+03</pdfrwt>
<totfact> 0.20893867E+01</totfact>
</mgrwt>
</event>
<event>
 4    1  0.3057048E-007  0.7613497E+03  0.7818608E-02  0.9801626E-01
         -2   -1    0    0    0  501 -0.00000000000E+00  0.00000000000E+00  0.13968407251E+04  0.13968407251E+04  0.25500000000E-02 0.  1.
          2   -1    0    0  501    0  0.00000000000E+00 -0.00000000000E+00 -0.46527691642E+03  0.46527691643E+03  0.25500000000E-02 0. -1.
    8880023    1    1    2    0    0  0.28155107137E+02 -0.38085484326E+03  0.11630447274E+04  0.13900814242E+04  0.65864270000E+03 0.  1.
    8880022    1    1    2    0    0 -0.28155107137E+02  0.38085484326E+03 -0.23148091875E+03  0.47203621731E+03  0.15294330000E+03 0.  0.
<mgrwt>
<rscale>  0 0.65275368E+03</rscale>
<asrwt>0</asrwt>
<pdfrwt beam="1">  1        2 0.71581063E-01 0.76134968E+03</pdfrwt>
<pdfrwt beam="2">  1       -2 0.21489858E+00 0.76134968E+03</pdfrwt>
<totfact> 0.72738991E+00</totfact>
</mgrwt>
</event>
<event>
 4    1  0.3057048E-007  0.7095626E+03  0.7818608E-02  0.9959629E-01
         -2   -1    0    0    0  501 -0.00000000000E+00  0.00000000000E+00  0.29179414202E+03  0.29179414203E+03  0.25500000000E-02 0.  1.
          2   -1    0    0  501    0  0.00000000000E+00 -0.00000000000E+00 -0.23260205862E+04  0.23260205862E+04  0.25500000000E-02 0. -1.
    8880023    1    1    2    0    0 -0.26079164405E+03  0.40700506319E+02 -0.17112786243E+03  0.72990668197E+03  0.65864270000E+03 0.  1.
    8880022    1    1    2    0    0  0.26079164405E+03 -0.40700506319E+02 -0.18630985817E+04  0.18879080462E+04  0.15294330000E+03 0.  0.
<mgrwt>
<rscale>  0 0.57456434E+03</rscale>
<asrwt>0</asrwt>
<pdfrwt beam="1">  1        2 0.35784931E+00 0.70956255E+03</pdfrwt>
<pdfrwt beam="2">  1       -2 0.44891408E-01 0.70956255E+03</pdfrwt>
<totfact> 0.21600092E+01</totfact>
</mgrwt>
</event>
<event>
 4    1  0.3234721E-007  0.7413801E+03  0.7818608E-02  0.9855945E-01
          2   -1    0    0  501    0  0.00000000000E+00  0.00000000000E+00  0.38319033525E+04  0.38319033525E+04  0.25500000000E-02 0. -1.
         -2   -1    0    0    0  501 -0.00000000000E+00 -0.00000000000E+00 -0.74252826290E+03  0.74252826290E+03  0.25500000000E-02 0.  1.
    8880023    1    1    2    0    0 -0.26000426306E+03 -0.21961797045E+03 -0.54550795673E+03  0.92044739495E+03  0.65864270000E+03 0.  0.
    8880022    1    1    2    0    0  0.26000426306E+03  0.21961797045E+03  0.36348830463E+04  0.36539842205E+04  0.15294330000E+03 0.  0.
<mgrwt>
<rscale>  0 0.62444719E+03</rscale>
<asrwt>0</asrwt>
<pdfrwt beam="1">  1        2 0.58952359E+00 0.74138012E+03</pdfrwt>
<pdfrwt beam="2">  1       -2 0.11423512E+00 0.74138012E+03</pdfrwt>
<totfact> 0.30833823E-01</totfact>
</mgrwt>
</event>
<event>
 4    1  0.3057048E-007  0.6792940E+03  0.7818608E-02  0.1009726E+00
          2   -1    0    0  501    0  0.00000000000E+00  0.00000000000E+00  0.24916575035E+03  0.24916575036E+03  0.25500000000E-02 0. -1.
         -2   -1    0    0    0  501 -0.00000000000E+00 -0.00000000000E+00 -0.11929113852E+04  0.11929113852E+04  0.25500000000E-02 0.  1.
    8880023    1    1    2    0    0 -0.16437456081E+03 -0.24720932027E+02 -0.10003712443E+04  0.12092075725E+04  0.65864270000E+03 0.  1.
    8880022    1    1    2    0    0  0.16437456081E+03  0.24720932027E+02  0.56625609473E+02  0.23286956303E+03  0.15294330000E+03 0.  0.
<mgrwt>
<rscale>  0 0.51583734E+03</rscale>
<asrwt>0</asrwt>
<pdfrwt beam="1">  1        2 0.38333193E-01 0.67929399E+03</pdfrwt>
<pdfrwt beam="2">  1       -2 0.18352482E+00 0.67929399E+03</pdfrwt>
<totfact> 0.23632728E+01</totfact>
</mgrwt>
</event>
<event>
 4    1  0.3057048E-007  0.8079150E+03  0.7818608E-02  0.9693936E-01
         -2   -1    0    0    0  501 -0.00000000000E+00  0.00000000000E+00  0.44614826596E+03  0.44614826597E+03  0.25500000000E-02 0.  1.
          2   -1    0    0  501    0  0.00000000000E+00 -0.00000000000E+00 -0.12588820437E+04  0.12588820437E+04  0.25500000000E-02 0. -1.
    8880023    1    1    2    0    0  0.53310025006E+02 -0.46483818473E+03 -0.65944595448E+02  0.81060187064E+03  0.65864270000E+03 0.  1.
    8880022    1    1    2    0    0 -0.53310025006E+02  0.46483818473E+03 -0.74678918227E+03  0.89442843902E+03  0.15294330000E+03 0.  0.
<mgrwt>
<rscale>  0 0.71378969E+03</rscale>
<asrwt>0</asrwt>
<pdfrwt beam="1">  1        2 0.19367416E+00 0.80791503E+03</pdfrwt>
<pdfrwt beam="2">  1       -2 0.68638195E-01 0.80791503E+03</pdfrwt>
<totfact> 0.34363572E+01</totfact>
</mgrwt>
</event>
<event>
 4    1  0.3057048E-007  0.1242842E+04  0.7818608E-02  0.9116561E-01
         -2   -1    0    0    0  501 -0.00000000000E+00  0.00000000000E+00  0.24008801348E+04  0.24008801348E+04  0.25500000000E-02 0.  1.
          2   -1    0    0  501    0  0.00000000000E+00 -0.00000000000E+00 -0.94025260445E+03  0.94025260445E+03  0.25500000000E-02 0. -1.
    8880023    1    1    2    0    0  0.69247922717E+03 -0.79455611810E+03  0.18315161580E+04  0.22133929945E+04  0.65864270000E+03 0.  0.
    8880022    1    1    2    0    0 -0.69247922717E+03  0.79455611810E+03 -0.37088862759E+03  0.11277397448E+04  0.15294330000E+03 0.  0.
<mgrwt>
<rscale>  0 0.11957767E+04</rscale>
<asrwt>0</asrwt>
<pdfrwt beam="1">  1        2 0.14465425E+00 0.12428424E+04</pdfrwt>
<pdfrwt beam="2">  1       -2 0.36936617E+00 0.12428424E+04</pdfrwt>
<totfact> 0.31627385E-01</totfact>
</mgrwt>
</event>
<event>
 4    1  0.3057048E-007  0.6739658E+03  0.7818608E-02  0.1012966E+00
          2   -1    0    0  501    0  0.00000000000E+00  0.00000000000E+00  0.29717715554E+04  0.29717715554E+04  0.25500000000E-02 0. -1.
         -2   -1    0    0    0  501 -0.00000000000E+00 -0.00000000000E+00 -0.81572139213E+02  0.81572139252E+02  0.25500000000E-02 0.  1.
    8880023    1    1    2    0    0 -0.11355748479E+03 -0.86743450797E+02  0.14617526104E+04  0.16096430129E+04  0.65864270000E+03 0.  1.
    8880022    1    1    2    0    0  0.11355748479E+03  0.86743450797E+02  0.14284468058E+04  0.14437006818E+04  0.15294330000E+03 0.  0.
<mgrwt>
<rscale>  0 0.50312602E+03</rscale>
<asrwt>0</asrwt>
<pdfrwt beam="1">  1        2 0.45719563E+00 0.67396583E+03</pdfrwt>
<pdfrwt beam="2">  1       -2 0.12549560E-01 0.67396583E+03</pdfrwt>
<totfact> 0.91261435E+01</totfact>
</mgrwt>
</event>
<event>
 4    1  0.3057048E-007  0.6660193E+03  0.7818608E-02  0.1018693E+00
          2   -1    0    0  501    0  0.00000000000E+00  0.00000000000E+00  0.93890276954E+03  0.93890276954E+03  0.25500000000E-02 0. -1.
         -2   -1    0    0    0  501 -0.00000000000E+00 -0.00000000000E+00 -0.65041669171E+03  0.65041669172E+03  0.25500000000E-02 0.  1.
    8880023    1    1    2    0    0  0.11584875214E+02 -0.98169438771E+02 -0.46620025417E+03  0.81297252801E+03  0.65864270000E+03 0.  1.
    8880022    1    1    2    0    0 -0.11584875214E+02  0.98169438771E+02  0.75468633200E+03  0.77634693325E+03  0.15294330000E+03 0.  0.
<mgrwt>
<rscale>  0 0.48161165E+03</rscale>
<asrwt>0</asrwt>
<pdfrwt beam="1">  1        2 0.14444658E+00 0.66601926E+03</pdfrwt>
<pdfrwt beam="2">  1       -2 0.10006411E+00 0.66601926E+03</pdfrwt>
<totfact> 0.23337680E+01</totfact>
</mgrwt>
</event>
<event>
 4    1  0.3057048E-007  0.7346216E+03  0.7818608E-02  0.9875900E-01
         -2   -1    0    0    0  501 -0.00000000000E+00  0.00000000000E+00  0.67527767116E+03  0.67527767116E+03  0.25500000000E-02 0.  1.
          2   -1    0    0  501    0  0.00000000000E+00 -0.00000000000E+00 -0.75489114268E+03  0.75489114269E+03  0.25500000000E-02 0. -1.
    8880023    1    1    2    0    0 -0.31070467196E+03  0.96546981781E+02  0.39553506329E+03  0.83433620647E+03  0.65864270000E+03 0.  1.
    8880022    1    1    2    0    0  0.31070467196E+03 -0.96546981781E+02 -0.47514853481E+03  0.59583260738E+03  0.15294330000E+03 0.  0.
<mgrwt>
<rscale>  0 0.61443614E+03</rscale>
<asrwt>0</asrwt>
<pdfrwt beam="1">  1        2 0.11613710E+00 0.73462162E+03</pdfrwt>
<pdfrwt beam="2">  1       -2 0.10388887E+00 0.73462162E+03</pdfrwt>
<totfact> 0.28468026E+01</totfact>
</mgrwt>
</event>
<event>
 4    1  0.3057048E-007  0.6767678E+03  0.7818608E-02  0.1011214E+00
          2   -1    0    0  501    0  0.00000000000E+00  0.00000000000E+00  0.16360532382E+04  0.16360532382E+04  0.25500000000E-02 0. -1.
         -2   -1    0    0    0  501 -0.00000000000E+00 -0.00000000000E+00 -0.24783486777E+03  0.24783486778E+03  0.25500000000E-02 0.  1.
    8880023    1    1    2    0    0  0.87512954698E+02  0.12863114641E+03  0.24454932139E+03  0.71959646047E+03  0.65864270000E+03 0.  1.
    8880022    1    1    2    0    0 -0.87512954698E+02 -0.12863114641E+03  0.11436690490E+04  0.11642916455E+04  0.15294330000E+03 0.  0.
<mgrwt>
<rscale>  0 0.50994842E+03</rscale>
<asrwt>0</asrwt>
<pdfrwt beam="1">  1        2 0.25170050E+00 0.67676783E+03</pdfrwt>
<pdfrwt beam="2">  1       -2 0.38128441E-01 0.67676783E+03</pdfrwt>
<totfact> 0.71215494E+01</totfact>
</mgrwt>
</event>
<event>
 4    1  0.3057048E-007  0.6964464E+03  0.7818608E-02  0.1001227E+00
         -2   -1    0    0    0  501 -0.00000000000E+00  0.00000000000E+00  0.41479446403E+03  0.41479446403E+03  0.25500000000E-02 0.  1.
          2   -1    0    0  501    0  0.00000000000E+00 -0.00000000000E+00 -0.42315040029E+04  0.42315040029E+04  0.25500000000E-02 0. -1.
    8880023    1    1    2    0    0  0.18990308794E+03 -0.12314308218E+03  0.11433949050E+03  0.70576988236E+03  0.65864270000E+03 0.  1.
    8880022    1    1    2    0    0 -0.18990308794E+03  0.12314308218E+03 -0.39310490294E+04  0.39405285846E+04  0.15294330000E+03 0.  0.
<mgrwt>
<rscale>  0 0.55115277E+03</rscale>
<asrwt>0</asrwt>
<pdfrwt beam="1">  1        2 0.65100059E+00 0.69644641E+03</pdfrwt>
<pdfrwt beam="2">  1       -2 0.63814536E-01 0.69644641E+03</pdfrwt>
<totfact> 0.56677157E-01</totfact>
</mgrwt>
</event>
<event>
 4    1  0.3057048E-007  0.7256685E+03  0.7818608E-02  0.9903852E-01
          2   -1    0    0  501    0  0.00000000000E+00  0.00000000000E+00  0.28594237663E+04  0.28594237663E+04  0.25500000000E-02 0. -1.
         -2   -1    0    0    0  501 -0.00000000000E+00 -0.00000000000E+00 -0.34782810695E+03  0.34782810696E+03  0.25500000000E-02 0.  1.
    8880023    1    1    2    0    0  0.13144091531E+02 -0.30432185430E+03  0.55685249978E+02  0.72780190401E+03  0.65864270000E+03 0.  1.
    8880022    1    1    2    0    0 -0.13144091531E+02  0.30432185430E+03  0.24559104094E+04  0.24794499692E+04  0.15294330000E+03 0.  0.
<mgrwt>
<rscale>  0 0.60074941E+03</rscale>
<asrwt>0</asrwt>
<pdfrwt beam="1">  1        2 0.43991135E+00 0.72566849E+03</pdfrwt>
<pdfrwt beam="2">  1       -2 0.53512016E-01 0.72566849E+03</pdfrwt>
<totfact> 0.74567756E+00</totfact>
</mgrwt>
</event>
<event>
 4    1  0.3057048E-007  0.6806764E+03  0.7818608E-02  0.1008944E+00
         -2   -1    0    0    0  501 -0.00000000000E+00  0.00000000000E+00  0.41370316106E+03  0.41370316107E+03  0.25500000000E-02 0.  1.
          2   -1    0    0  501    0  0.00000000000E+00 -0.00000000000E+00 -0.68642655675E+03  0.68642655676E+03  0.25500000000E-02 0. -1.
    8880023    1    1    2    0    0 -0.63285810250E+02 -0.15970307795E+03  0.73327094041E+02  0.68461466232E+03  0.65864270000E+03 0.  1.
    8880022    1    1    2    0    0  0.63285810250E+02  0.15970307795E+03 -0.34605048973E+03  0.41551505550E+03  0.15294330000E+03 0.  0.
<mgrwt>
<rscale>  0 0.51896653E+03</rscale>
<asrwt>0</asrwt>
<pdfrwt beam="1">  1        2 0.10560409E+00 0.68067641E+03</pdfrwt>
<pdfrwt beam="2">  1       -2 0.63646640E-01 0.68067641E+03</pdfrwt>
<totfact> 0.97505802E+01</totfact>
</mgrwt>
</event>
<event>
 4    1  0.3057048E-007  0.1027121E+04  0.7818608E-02  0.9346905E-01
         -2   -1    0    0    0  501 -0.00000000000E+00  0.00000000000E+00  0.11554519748E+04  0.11554519748E+04  0.25500000000E-02 0.  1.
          2   -1    0    0  501    0  0.00000000000E+00 -0.00000000000E+00 -0.91327410039E+03  0.91327410039E+03  0.25500000000E-02 0. -1.
    8880023    1    1    2    0    0  0.77481041553E+03 -0.14434510519E+03  0.60024593849E+03  0.11896520846E+04  0.65864270000E+03 0.  0.
    8880022    1    1    2    0    0 -0.77481041553E+03  0.14434510519E+03 -0.35806806409E+03  0.87907399060E+03  0.15294330000E+03 0.  0.
<mgrwt>
<rscale>  0 0.96577039E+03</rscale>
<asrwt>0</asrwt>
<pdfrwt beam="1">  1        2 0.14050371E+00 0.10271207E+04</pdfrwt>
<pdfrwt beam="2">  1       -2 0.17776184E+00 0.10271207E+04</pdfrwt>
<totfact> 0.53378275E+00</totfact>
</mgrwt>
</event>
<event>
 4    1  0.3073210E-007  0.7683469E+03  0.7818608E-02  0.9783958E-01
          2   -1    0    0  501    0  0.00000000000E+00  0.00000000000E+00  0.15769041516E+04  0.15769041516E+04  0.25500000000E-02 0. -1.
         -2   -1    0    0    0  501 -0.00000000000E+00 -0.00000000000E+00 -0.93547832842E+03  0.93547832842E+03  0.25500000000E-02 0.  1.
    8880023    1    1    2    0    0 -0.21658485264E+03 -0.33111596405E+03 -0.74033038982E+03  0.10669798838E+04  0.65864270000E+03 0.  1.
    8880022    1    1    2    0    0  0.21658485264E+03  0.33111596405E+03  0.13817562130E+04  0.14454025962E+04  0.15294330000E+03 0.  0.
<mgrwt>
<rscale>  0 0.66230572E+03</rscale>
<asrwt>0</asrwt>
<pdfrwt beam="1">  1        2 0.24260064E+00 0.76834692E+03</pdfrwt>
<pdfrwt beam="2">  1       -2 0.14391974E+00 0.76834692E+03</pdfrwt>
<totfact> 0.39346516E+00</totfact>
</mgrwt>
</event>
<event>
 4    1  0.3057048E-007  0.1173515E+04  0.7818608E-02  0.9183307E-01
          2   -1    0    0  501    0  0.00000000000E+00  0.00000000000E+00  0.12910025578E+04  0.12910025578E+04  0.25500000000E-02 0. -1.
         -2   -1    0    0    0  501 -0.00000000000E+00 -0.00000000000E+00 -0.14841775336E+04  0.14841775336E+04  0.25500000000E-02 0.  1.
    8880023    1    1    2    0    0  0.68358828286E+03  0.68995286424E+03 -0.96968392760E+03  0.15223091082E+04  0.65864270000E+03 0.  1.
    8880022    1    1    2    0    0 -0.68358828286E+03 -0.68995286424E+03  0.77650895180E+03  0.12528709832E+04  0.15294330000E+03 0.  0.
<mgrwt>
<rscale>  0 0.11227398E+04</rscale>
<asrwt>0</asrwt>
<pdfrwt beam="1">  1        2 0.19861578E+00 0.11735153E+04</pdfrwt>
<pdfrwt beam="2">  1       -2 0.22833501E+00 0.11735153E+04</pdfrwt>
<totfact> 0.14273426E+00</totfact>
</mgrwt>
</event>
<event>
 4    1  0.3057048E-007  0.6588061E+03  0.7818608E-02  0.1025414E+00
         -2   -1    0    0    0  501 -0.00000000000E+00  0.00000000000E+00  0.55586314041E+03  0.55586314042E+03  0.25500000000E-02 0.  1.
          2   -1    0    0  501    0  0.00000000000E+00 -0.00000000000E+00 -0.10417814119E+04  0.10417814119E+04  0.25500000000E-02 0. -1.
    8880023    1    1    2    0    0 -0.64233001675E+01  0.13191420863E+02  0.35118132976E+03  0.74656132032E+03  0.65864270000E+03 0.  1.
    8880022    1    1    2    0    0  0.64233001675E+01 -0.13191420863E+02 -0.83709960121E+03  0.85108323196E+03  0.15294330000E+03 0.  0.
<mgrwt>
<rscale>  0 0.45782356E+03</rscale>
<asrwt>0</asrwt>
<pdfrwt beam="1">  1        2 0.16027406E+00 0.65880610E+03</pdfrwt>
<pdfrwt beam="2">  1       -2 0.85517406E-01 0.65880610E+03</pdfrwt>
<totfact> 0.28898327E+01</totfact>
</mgrwt>
</event>
<event>
 4    1  0.3057048E-007  0.8574717E+03  0.7818608E-02  0.9598077E-01
         -2   -1    0    0    0  501 -0.00000000000E+00  0.00000000000E+00  0.81054597558E+03  0.81054597558E+03  0.25500000000E-02 0.  1.
          2   -1    0    0  501    0  0.00000000000E+00 -0.00000000000E+00 -0.30958806297E+04  0.30958806297E+04  0.25500000000E-02 0. -1.
    8880023    1    1    2    0    0 -0.47145443566E+02 -0.54701447124E+03  0.54715073785E+03  0.10171684525E+04  0.65864270000E+03 0.  1.
    8880022    1    1    2    0    0  0.47145443566E+02  0.54701447124E+03 -0.28324853920E+04  0.28892581528E+04  0.15294330000E+03 0.  0.
<mgrwt>
<rscale>  0 0.77423607E+03</rscale>
<asrwt>0</asrwt>
<pdfrwt beam="1">  1        2 0.47628932E+00 0.85747171E+03</pdfrwt>
<pdfrwt beam="2">  1       -2 0.12469938E+00 0.85747171E+03</pdfrwt>
<totfact> 0.76501814E-01</totfact>
</mgrwt>
</event>
<event>
 4    1  0.3057048E-007  0.7679259E+03  0.7818608E-02  0.9785004E-01
          2   -1    0    0  501    0  0.00000000000E+00  0.00000000000E+00  0.13312198869E+04  0.13312198869E+04  0.25500000000E-02 0. -1.
         -2   -1    0    0    0  501 -0.00000000000E+00 -0.00000000000E+00 -0.34420183327E+03  0.34420183328E+03  0.25500000000E-02 0.  1.
    8880023    1    1    2    0    0  0.29194752494E+03 -0.26583187536E+03  0.21921550826E+03  0.79860227185E+03  0.65864270000E+03 0.  0.
    8880022    1    1    2    0    0 -0.29194752494E+03  0.26583187536E+03  0.76780254537E+03  0.87681944833E+03  0.15294330000E+03 0.  0.
<mgrwt>
<rscale>  0 0.66173555E+03</rscale>
<asrwt>0</asrwt>
<pdfrwt beam="1">  1        2 0.20480306E+00 0.76792588E+03</pdfrwt>
<pdfrwt beam="2">  1       -2 0.52954127E-01 0.76792588E+03</pdfrwt>
<totfact> 0.54246085E+01</totfact>
</mgrwt>
</event>
<event>
 4    1  0.4115403E-007  0.8183778E+03  0.7818608E-02  0.9672383E-01
         -2   -1    0    0    0  501 -0.00000000000E+00  0.00000000000E+00  0.15910921472E+04  0.15910921472E+04  0.25500000000E-02 0.  1.
          2   -1    0    0  501    0  0.00000000000E+00 -0.00000000000E+00 -0.16236146723E+04  0.16236146723E+04  0.25500000000E-02 0. -1.
    8880023    1    1    2    0    0  0.47055094120E+03 -0.12047341215E+03  0.14401721938E+04  0.16564534963E+04  0.65864270000E+03 0.  0.
    8880022    1    1    2    0    0 -0.47055094120E+03  0.12047341215E+03 -0.14726947189E+04  0.15582533232E+04  0.15294330000E+03 0.  0.
<mgrwt>
<rscale>  0 0.72685144E+03</rscale>
<asrwt>0</asrwt>
<pdfrwt beam="1">  1        2 0.24978687E+00 0.81837781E+03</pdfrwt>
<pdfrwt beam="2">  1       -2 0.24478341E+00 0.81837781E+03</pdfrwt>
<totfact> 0.77082813E-01</totfact>
</mgrwt>
</event>
<event>
 4    1  0.3057048E-007  0.8500146E+03  0.7818608E-02  0.9611578E-01
         -2   -1    0    0    0  501 -0.00000000000E+00  0.00000000000E+00  0.22295728833E+03  0.22295728835E+03  0.25500000000E-02 0.  1.
          2   -1    0    0  501    0  0.00000000000E+00 -0.00000000000E+00 -0.30766599550E+04  0.30766599550E+04  0.25500000000E-02 0. -1.
    8880023    1    1    2    0    0  0.53658022545E+03 -0.28217218046E+02 -0.78582585011E+03  0.11576040008E+04  0.65864270000E+03 0.  1.
    8880022    1    1    2    0    0 -0.53658022545E+03  0.28217218046E+02 -0.20678768165E+04  0.21420132425E+04  0.15294330000E+03 0.  0.
<mgrwt>
<rscale>  0 0.76534557E+03</rscale>
<asrwt>0</asrwt>
<pdfrwt beam="1">  1        2 0.47333227E+00 0.85001456E+03</pdfrwt>
<pdfrwt beam="2">  1       -2 0.34301124E-01 0.85001456E+03</pdfrwt>
<totfact> 0.12976572E+01</totfact>
</mgrwt>
</event>
<event>
 4    1  0.3057048E-007  0.7300359E+03  0.7818608E-02  0.9889984E-01
          2   -1    0    0  501    0  0.00000000000E+00  0.00000000000E+00  0.12967353171E+04  0.12967353171E+04  0.25500000000E-02 0. -1.
         -2   -1    0    0    0  501 -0.00000000000E+00 -0.00000000000E+00 -0.27303114055E+03  0.27303114056E+03  0.25500000000E-02 0.  1.
    8880023    1    1    2    0    0  0.20949906003E+03  0.23505819429E+03  0.34792103342E+03  0.80870356906E+03  0.65864270000E+03 0.  0.
    8880022    1    1    2    0    0 -0.20949906003E+03 -0.23505819429E+03  0.67578314316E+03  0.76106288863E+03  0.15294330000E+03 0.  0.
<mgrwt>
<rscale>  0 0.60749146E+03</rscale>
<asrwt>0</asrwt>
<pdfrwt beam="1">  1        2 0.19949774E+00 0.73003590E+03</pdfrwt>
<pdfrwt beam="2">  1       -2 0.42004791E-01 0.73003590E+03</pdfrwt>
<totfact> 0.90817193E+01</totfact>
</mgrwt>
</event>
<event>
 4    1  0.3057048E-007  0.1396761E+04  0.7818608E-02  0.8986203E-01
          2   -1    0    0  501    0  0.00000000000E+00  0.00000000000E+00  0.10110126388E+04  0.10110126388E+04  0.25500000000E-02 0. -1.
         -2   -1    0    0    0  501 -0.00000000000E+00 -0.00000000000E+00 -0.28596650868E+04  0.28596650868E+04  0.25500000000E-02 0.  1.
    8880023    1    1    2    0    0  0.11435152198E+04 -0.45771695523E+03 -0.21772247387E+04  0.25867449890E+04  0.65864270000E+03 0.  0.
    8880022    1    1    2    0    0 -0.11435152198E+04  0.45771695523E+03  0.32857229059E+03  0.12839327366E+04  0.15294330000E+03 0.  0.
<mgrwt>
<rscale>  0 0.13561264E+04</rscale>
<asrwt>0</asrwt>
<pdfrwt beam="1">  1        2 0.15554041E+00 0.13967613E+04</pdfrwt>
<pdfrwt beam="2">  1       -2 0.43994847E+00 0.13967613E+04</pdfrwt>
<totfact> 0.96246943E-02</totfact>
</mgrwt>
</event>
<event>
 4    1  0.3057048E-007  0.6801408E+03  0.7818608E-02  0.1009244E+00
          2   -1    0    0  501    0  0.00000000000E+00  0.00000000000E+00  0.41005600649E+04  0.41005600649E+04  0.25500000000E-02 0. -1.
         -2   -1    0    0    0  501 -0.00000000000E+00 -0.00000000000E+00 -0.33047150725E+03  0.33047150726E+03  0.25500000000E-02 0.  1.
    8880023    1    1    2    0    0 -0.15746447215E+03  0.63136467756E+02  0.26683148321E+02  0.68066399216E+03  0.65864270000E+03 0.  1.
    8880022    1    1    2    0    0  0.15746447215E+03 -0.63136467756E+02  0.37434054093E+04  0.37503675800E+04  0.15294330000E+03 0.  0.
<mgrwt>
<rscale>  0 0.51776151E+03</rscale>
<asrwt>0</asrwt>
<pdfrwt beam="1">  1        2 0.63085543E+00 0.68014078E+03</pdfrwt>
<pdfrwt beam="2">  1       -2 0.50841767E-01 0.68014078E+03</pdfrwt>
<totfact> 0.11764890E+00</totfact>
</mgrwt>
</event>
<event>
 4    1  0.3057048E-007  0.9911210E+03  0.7818608E-02  0.9393267E-01
          2   -1    0    0  501    0  0.00000000000E+00  0.00000000000E+00  0.30144628935E+04  0.30144628935E+04  0.25500000000E-02 0. -1.
         -2   -1    0    0    0  501 -0.00000000000E+00 -0.00000000000E+00 -0.28285341455E+03  0.28285341456E+03  0.25500000000E-02 0.  1.
    8880023    1    1    2    0    0 -0.71838087106E+03 -0.18011004498E+03  0.10008551499E+04  0.14085566874E+04  0.65864270000E+03 0.  0.
    8880022    1    1    2    0    0  0.71838087106E+03  0.18011004498E+03  0.17307543290E+04  0.18887596206E+04  0.15294330000E+03 0.  1.
<mgrwt>
<rscale>  0 0.92631833E+03</rscale>
<asrwt>0</asrwt>
<pdfrwt beam="1">  1        2 0.46376352E+00 0.99112104E+03</pdfrwt>
<pdfrwt beam="2">  1       -2 0.43515910E-01 0.99112104E+03</pdfrwt>
<totfact> 0.87496251E+00</totfact>
</mgrwt>
</event>
<event>
 4    1  0.3057048E-007  0.8190335E+03  0.7818608E-02  0.9671059E-01
         -2   -1    0    0    0  501 -0.00000000000E+00  0.00000000000E+00  0.38802180186E+03  0.38802180187E+03  0.25500000000E-02 0.  1.
          2   -1    0    0  501    0  0.00000000000E+00 -0.00000000000E+00 -0.12948858993E+04  0.12948858993E+04  0.25500000000E-02 0. -1.
    8880023    1    1    2    0    0  0.20133469696E+03 -0.44324933286E+03 -0.83140188207E+03  0.11670668049E+04  0.65864270000E+03 0.  0.
    8880022    1    1    2    0    0 -0.20133469696E+03  0.44324933286E+03 -0.75462215319E+02  0.51584089624E+03  0.15294330000E+03 0.  0.
<mgrwt>
<rscale>  0 0.72766384E+03</rscale>
<asrwt>0</asrwt>
<pdfrwt beam="1">  1        2 0.19921321E+00 0.81903348E+03</pdfrwt>
<pdfrwt beam="2">  1       -2 0.59695663E-01 0.81903348E+03</pdfrwt>
<totfact> 0.44123581E+01</totfact>
</mgrwt>
</event>
<event>
 4    1  0.3057048E-007  0.6971053E+03  0.7818608E-02  0.1000943E+00
         -2   -1    0    0    0  501 -0.00000000000E+00  0.00000000000E+00  0.37056697222E+03  0.37056697223E+03  0.25500000000E-02 0.  1.
          2   -1    0    0  501    0  0.00000000000E+00 -0.00000000000E+00 -0.10668819763E+04  0.10668819763E+04  0.25500000000E-02 0. -1.
    8880023    1    1    2    0    0  0.15313053253E+02 -0.22783993276E+03 -0.89382720619E+01  0.69716255173E+03  0.65864270000E+03 0.  1.
    8880022    1    1    2    0    0 -0.15313053253E+02  0.22783993276E+03 -0.68737673197E+03  0.74028639676E+03  0.15294330000E+03 0.  0.
<mgrwt>
<rscale>  0 0.55238752E+03</rscale>
<asrwt>0</asrwt>
<pdfrwt beam="1">  1        2 0.16413569E+00 0.69710525E+03</pdfrwt>
<pdfrwt beam="2">  1       -2 0.57010304E-01 0.69710525E+03</pdfrwt>
<totfact> 0.67216723E+01</totfact>
</mgrwt>
</event>
<event>
 4    1  0.3057048E-007  0.9074470E+03  0.7818608E-02  0.9514181E-01
         -2   -1    0    0    0  501 -0.00000000000E+00  0.00000000000E+00  0.82894025619E+03  0.82894025619E+03  0.25500000000E-02 0.  1.
          2   -1    0    0  501    0  0.00000000000E+00 -0.00000000000E+00 -0.30850597592E+04  0.30850597592E+04  0.25500000000E-02 0. -1.
    8880023    1    1    2    0    0 -0.14294871524E+03  0.60763108615E+03  0.53258900013E+03  0.10521934810E+04  0.65864270000E+03 0.  0.
    8880022    1    1    2    0    0  0.14294871524E+03 -0.60763108615E+03 -0.27887085032E+04  0.28618065345E+04  0.15294330000E+03 0.  0.
<mgrwt>
<rscale>  0 0.83246344E+03</rscale>
<asrwt>0</asrwt>
<pdfrwt beam="1">  1        2 0.47462457E+00 0.90744701E+03</pdfrwt>
<pdfrwt beam="2">  1       -2 0.12752927E+00 0.90744701E+03</pdfrwt>
<totfact> 0.72721489E-01</totfact>
</mgrwt>
</event>
<event>
 4    1  0.3057048E-007  0.7239111E+03  0.7818608E-02  0.9909568E-01
          2   -1    0    0  501    0  0.00000000000E+00  0.00000000000E+00  0.29456903308E+04  0.29456903308E+04  0.25500000000E-02 0. -1.
         -2   -1    0    0    0  501 -0.00000000000E+00 -0.00000000000E+00 -0.14532742324E+03  0.14532742326E+03  0.25500000000E-02 0.  1.
    8880023    1    1    2    0    0  0.18306295055E+03 -0.23817031012E+03  0.87159908566E+03  0.11330191141E+04  0.65864270000E+03 0.  1.
    8880022    1    1    2    0    0 -0.18306295055E+03  0.23817031012E+03  0.19287638219E+04  0.19579986400E+04  0.15294330000E+03 0.  0.
<mgrwt>
<rscale>  0 0.59799837E+03</rscale>
<asrwt>0</asrwt>
<pdfrwt beam="1">  1        2 0.45318316E+00 0.72391115E+03</pdfrwt>
<pdfrwt beam="2">  1       -2 0.22358063E-01 0.72391115E+03</pdfrwt>
<totfact> 0.34934685E+01</totfact>
</mgrwt>
</event>
<event>
 4    1  0.3057048E-007  0.6651776E+03  0.7818608E-02  0.1019385E+00
         -2   -1    0    0    0  501 -0.00000000000E+00  0.00000000000E+00  0.30184458836E+03  0.30184458837E+03  0.25500000000E-02 0.  1.
          2   -1    0    0  501    0  0.00000000000E+00 -0.00000000000E+00 -0.27352092929E+04  0.27352092929E+04  0.25500000000E-02 0. -1.
    8880023    1    1    2    0    0 -0.19824046222E+02 -0.90873579706E+02 -0.72167314700E+02  0.66908095764E+03  0.65864270000E+03 0.  1.
    8880022    1    1    2    0    0  0.19824046222E+02  0.90873579706E+02 -0.23611973899E+04  0.23679729237E+04  0.15294330000E+03 0.  0.
<mgrwt>
<rscale>  0 0.47909237E+03</rscale>
<asrwt>0</asrwt>
<pdfrwt beam="1">  1        2 0.42080141E+00 0.66517758E+03</pdfrwt>
<pdfrwt beam="2">  1       -2 0.46437631E-01 0.66517758E+03</pdfrwt>
<totfact> 0.11911488E+01</totfact>
</mgrwt>
</event>
<event>
 4    1  0.3057048E-007  0.7644679E+03  0.7818608E-02  0.9793675E-01
         -2   -1    0    0    0  501 -0.00000000000E+00  0.00000000000E+00  0.10666390434E+04  0.10666390434E+04  0.25500000000E-02 0.  1.
          2   -1    0    0  501    0  0.00000000000E+00 -0.00000000000E+00 -0.42110156112E+03  0.42110156113E+03  0.25500000000E-02 0. -1.
    8880023    1    1    2    0    0  0.18941503247E+02 -0.38761081184E+03  0.73571031446E+03  0.10609810531E+04  0.65864270000E+03 0.  1.
    8880022    1    1    2    0    0 -0.18941503247E+02  0.38761081184E+03 -0.90172832229E+02  0.42675955137E+03  0.15294330000E+03 0.  0.
<mgrwt>
<rscale>  0 0.65703086E+03</rscale>
<asrwt>0</asrwt>
<pdfrwt beam="1">  1        2 0.64784856E-01 0.76446787E+03</pdfrwt>
<pdfrwt beam="2">  1       -2 0.16409831E+00 0.76446787E+03</pdfrwt>
<totfact> 0.17860842E+01</totfact>
</mgrwt>
</event>
<event>
 4    1  0.3057048E-007  0.9911934E+03  0.7818608E-02  0.9393171E-01
          2   -1    0    0  501    0  0.00000000000E+00  0.00000000000E+00  0.92591613972E+03  0.92591613972E+03  0.25500000000E-02 0. -1.
         -2   -1    0    0    0  501 -0.00000000000E+00 -0.00000000000E+00 -0.86482069257E+03  0.86482069257E+03  0.25500000000E-02 0.  1.
    8880023    1    1    2    0    0 -0.32981833040E+03 -0.66323003710E+03 -0.15707467941E+03  0.10035620929E+04  0.65864270000E+03 0.  1.
    8880022    1    1    2    0    0  0.32981833040E+03  0.66323003710E+03  0.21817012656E+03  0.78717473938E+03  0.15294330000E+03 0. -1.
<mgrwt>
<rscale>  0 0.92639813E+03</rscale>
<asrwt>0</asrwt>
<pdfrwt beam="1">  1        2 0.14244864E+00 0.99119343E+03</pdfrwt>
<pdfrwt beam="2">  1       -2 0.13304934E+00 0.99119343E+03</pdfrwt>
<totfact> 0.11450025E+01</totfact>
</mgrwt>
</event>
<event>
 4    1  0.3057048E-007  0.7233632E+03  0.7818608E-02  0.9911366E-01
          2   -1    0    0  501    0  0.00000000000E+00  0.00000000000E+00  0.95931467015E+03  0.95931467015E+03  0.25500000000E-02 0. -1.
         -2   -1    0    0    0  501 -0.00000000000E+00 -0.00000000000E+00 -0.63648129882E+03  0.63648129883E+03  0.25500000000E-02 0.  1.
    8880023    1    1    2    0    0  0.20049307028E+03  0.22191590799E+03 -0.37979105384E+03  0.81700403444E+03  0.65864270000E+03 0.  1.
    8880022    1    1    2    0    0 -0.20049307028E+03 -0.22191590799E+03  0.70262442517E+03  0.77879193454E+03  0.15294330000E+03 0.  0.
<mgrwt>
<rscale>  0 0.59713590E+03</rscale>
<asrwt>0</asrwt>
<pdfrwt beam="1">  1        2 0.14758687E+00 0.72336322E+03</pdfrwt>
<pdfrwt beam="2">  1       -2 0.97920200E-01 0.72336322E+03</pdfrwt>
<totfact> 0.23671119E+01</totfact>
</mgrwt>
</event>
<event>
 4    1  0.3057048E-007  0.6743837E+03  0.7818608E-02  0.1012698E+00
         -2   -1    0    0    0  501 -0.00000000000E+00  0.00000000000E+00  0.17594653331E+03  0.17594653333E+03  0.25500000000E-02 0.  1.
          2   -1    0    0  501    0  0.00000000000E+00 -0.00000000000E+00 -0.13072500885E+04  0.13072500885E+04  0.25500000000E-02 0. -1.
    8880023    1    1    2    0    0 -0.11941847220E+03 -0.81989856491E+02 -0.56772371466E+03  0.88153475854E+03  0.65864270000E+03 0.  0.
    8880022    1    1    2    0    0  0.11941847220E+03  0.81989856491E+02 -0.56357984052E+03  0.60166186328E+03  0.15294330000E+03 0.  0.
<mgrwt>
<rscale>  0 0.50416452E+03</rscale>
<asrwt>0</asrwt>
<pdfrwt beam="1">  1        2 0.20111539E+00 0.67438366E+03</pdfrwt>
<pdfrwt beam="2">  1       -2 0.27068698E-01 0.67438366E+03</pdfrwt>
<totfact> 0.20661560E+02</totfact>
</mgrwt>
</event>
<event>
 4    1  0.3057048E-007  0.7995567E+03  0.7818608E-02  0.9711755E-01
          2   -1    0    0  501    0  0.00000000000E+00  0.00000000000E+00  0.25799644857E+04  0.25799644857E+04  0.25500000000E-02 0. -1.
         -2   -1    0    0    0  501 -0.00000000000E+00 -0.00000000000E+00 -0.51306343995E+03  0.51306343996E+03  0.25500000000E-02 0.  1.
    8880023    1    1    2    0    0  0.43611259176E+03 -0.12363882701E+03 -0.15992328026E+03  0.81539341061E+03  0.65864270000E+03 0.  1.
    8880022    1    1    2    0    0 -0.43611259176E+03  0.12363882701E+03  0.22268243261E+04  0.22776345151E+04  0.15294330000E+03 0.  0.
<mgrwt>
<rscale>  0 0.70321178E+03</rscale>
<asrwt>0</asrwt>
<pdfrwt beam="1">  1        2 0.39691761E+00 0.79955673E+03</pdfrwt>
<pdfrwt beam="2">  1       -2 0.78932837E-01 0.79955673E+03</pdfrwt>
<totfact> 0.46470375E+00</totfact>
</mgrwt>
</event>
<event>
 4    1  0.3057048E-007  0.8637012E+03  0.7818608E-02  0.9587013E-01
          2   -1    0    0  501    0  0.00000000000E+00  0.00000000000E+00  0.94588505430E+03  0.94588505430E+03  0.25500000000E-02 0. -1.
         -2   -1    0    0    0  501 -0.00000000000E+00 -0.00000000000E+00 -0.17711584304E+04  0.17711584304E+04  0.25500000000E-02 0.  1.
    8880023    1    1    2    0    0 -0.33786328464E+03  0.44499205843E+03 -0.15589674359E+04  0.17822343290E+04  0.65864270000E+03 0.  1.
    8880022    1    1    2    0    0  0.33786328464E+03 -0.44499205843E+03  0.73369405978E+03  0.93480915568E+03  0.15294330000E+03 0.  0.
<mgrwt>
<rscale>  0 0.78161719E+03</rscale>
<asrwt>0</asrwt>
<pdfrwt beam="1">  1        2 0.14552078E+00 0.86370119E+03</pdfrwt>
<pdfrwt beam="2">  1       -2 0.27248591E+00 0.86370119E+03</pdfrwt>
<totfact> 0.13034182E+00</totfact>
</mgrwt>
</event>
<event>
 4    1  0.3057048E-007  0.7801408E+03  0.7818608E-02  0.9755506E-01
          2   -1    0    0  501    0  0.00000000000E+00  0.00000000000E+00  0.65610016894E+03  0.65610016894E+03  0.25500000000E-02 0. -1.
         -2   -1    0    0    0  501 -0.00000000000E+00 -0.00000000000E+00 -0.68999748154E+03  0.68999748154E+03  0.25500000000E-02 0.  1.
    8880023    1    1    2    0    0  0.28585036464E+03  0.30512123988E+03 -0.29023048589E+03  0.83237812513E+03  0.65864270000E+03 0.  1.
    8880022    1    1    2    0    0 -0.28585036464E+03 -0.30512123988E+03  0.25633317329E+03  0.51371952536E+03  0.15294330000E+03 0.  0.
<mgrwt>
<rscale>  0 0.67805976E+03</rscale>
<asrwt>0</asrwt>
<pdfrwt beam="1">  1        2 0.10093849E+00 0.78014076E+03</pdfrwt>
<pdfrwt beam="2">  1       -2 0.10615346E+00 0.78014076E+03</pdfrwt>
<totfact> 0.32160246E+01</totfact>
</mgrwt>
</event>
<event>
 4    1  0.3057048E-007  0.7648810E+03  0.7818608E-02  0.9792631E-01
          2   -1    0    0  501    0  0.00000000000E+00  0.00000000000E+00  0.17264291945E+04  0.17264291945E+04  0.25500000000E-02 0. -1.
         -2   -1    0    0    0  501 -0.00000000000E+00 -0.00000000000E+00 -0.50239251174E+03  0.50239251175E+03  0.25500000000E-02 0.  1.
    8880023    1    1    2    0    0 -0.36382772899E+03  0.13733962939E+03 -0.16140935704E+03  0.78172628009E+03  0.65864270000E+03 0.  1.
    8880022    1    1    2    0    0  0.36382772899E+03 -0.13733962939E+03  0.13854460398E+04  0.14470954261E+04  0.15294330000E+03 0.  0.
<mgrwt>
<rscale>  0 0.65759507E+03</rscale>
<asrwt>0</asrwt>
<pdfrwt beam="1">  1        2 0.26560449E+00 0.76488103E+03</pdfrwt>
<pdfrwt beam="2">  1       -2 0.77291157E-01 0.76488103E+03</pdfrwt>
<totfact> 0.14535471E+01</totfact>
</mgrwt>
</event>
<event>
 4    1  0.3057048E-007  0.1511617E+04  0.7818608E-02  0.8901476E-01
         -2   -1    0    0    0  501 -0.00000000000E+00  0.00000000000E+00  0.16948697573E+04  0.16948697573E+04  0.25500000000E-02 0.  1.
          2   -1    0    0  501    0  0.00000000000E+00 -0.00000000000E+00 -0.17108512898E+04  0.17108512898E+04  0.25500000000E-02 0. -1.
    8880023    1    1    2    0    0  0.13543587295E+04  0.12995582766E+03  0.89921856819E+03  0.17588576762E+04  0.65864270000E+03 0.  0.
    8880022    1    1    2    0    0 -0.13543587295E+04 -0.12995582766E+03 -0.91520010062E+03  0.16468633709E+04  0.15294330000E+03 0.  0.
<mgrwt>
<rscale>  0 0.14746671E+04</rscale>
<asrwt>0</asrwt>
<pdfrwt beam="1">  1        2 0.26320789E+00 0.15116171E+04</pdfrwt>
<pdfrwt beam="2">  1       -2 0.26074919E+00 0.15116171E+04</pdfrwt>
<totfact> 0.50061489E-01</totfact>
</mgrwt>
</event>
<event>
 4    1  0.3057048E-007  0.9420472E+03  0.7818608E-02  0.9461650E-01
         -2   -1    0    0    0  501 -0.00000000000E+00  0.00000000000E+00  0.56286250002E+03  0.56286250003E+03  0.25500000000E-02 0.  1.
          2   -1    0    0  501    0  0.00000000000E+00 -0.00000000000E+00 -0.21662834784E+04  0.21662834784E+04  0.25500000000E-02 0. -1.
    8880023    1    1    2    0    0  0.20642600150E+03  0.64111704401E+03  0.43717418245E+02  0.94306106755E+03  0.65864270000E+03 0.  1.
    8880022    1    1    2    0    0 -0.20642600150E+03 -0.64111704401E+03 -0.16471383966E+04  0.17860849109E+04  0.15294330000E+03 0.  0.
<mgrwt>
<rscale>  0 0.87171239E+03</rscale>
<asrwt>0</asrwt>
<pdfrwt beam="1">  1        2 0.33327438E+00 0.94204722E+03</pdfrwt>
<pdfrwt beam="2">  1       -2 0.86594232E-01 0.94204722E+03</pdfrwt>
<totfact> 0.63000408E+00</totfact>
</mgrwt>
</event>
<event>
 4    1  0.3057048E-007  0.6613390E+03  0.7818608E-02  0.1022825E+00
         -2   -1    0    0    0  501 -0.00000000000E+00  0.00000000000E+00  0.15669859779E+03  0.15669859781E+03  0.25500000000E-02 0.  1.
          2   -1    0    0  501    0  0.00000000000E+00 -0.00000000000E+00 -0.12764555352E+04  0.12764555352E+04  0.25500000000E-02 0. -1.
    8880023    1    1    2    0    0  0.42033536126E+02 -0.42335525982E+02 -0.61771904360E+03  0.90495642879E+03  0.65864270000E+03 0.  1.
    8880022    1    1    2    0    0 -0.42033536126E+02  0.42335525982E+02 -0.50203789385E+03  0.52819770427E+03  0.15294330000E+03 0.  0.
<mgrwt>
<rscale>  0 0.46680931E+03</rscale>
<asrwt>0</asrwt>
<pdfrwt beam="1">  1        2 0.19637777E+00 0.66133904E+03</pdfrwt>
<pdfrwt beam="2">  1       -2 0.24107477E-01 0.66133904E+03</pdfrwt>
<totfact> 0.26558139E+02</totfact>
</mgrwt>
</event>
<event>
 4    1  0.3057048E-007  0.9763420E+03  0.7818608E-02  0.9413186E-01
         -2   -1    0    0    0  501 -0.00000000000E+00  0.00000000000E+00  0.11803165952E+04  0.11803165952E+04  0.25500000000E-02 0.  1.
          2   -1    0    0  501    0  0.00000000000E+00 -0.00000000000E+00 -0.95720271691E+03  0.95720271691E+03  0.25500000000E-02 0. -1.
    8880023    1    1    2    0    0 -0.37417802816E+03 -0.61597419938E+03  0.75049175219E+03  0.12314550286E+04  0.65864270000E+03 0.  0.
    8880022    1    1    2    0    0  0.37417802816E+03  0.61597419938E+03 -0.52737787387E+03  0.90606428355E+03  0.15294330000E+03 0.  0.
<mgrwt>
<rscale>  0 0.90998441E+03</rscale>
<asrwt>0</asrwt>
<pdfrwt beam="1">  1        2 0.14726196E+00 0.97634196E+03</pdfrwt>
<pdfrwt beam="2">  1       -2 0.18158717E+00 0.97634196E+03</pdfrwt>
<totfact> 0.47193795E+00</totfact>
</mgrwt>
</event>
<event>
 4    1  0.3057048E-007  0.8599758E+03  0.7818608E-02  0.9593607E-01
          2   -1    0    0  501    0  0.00000000000E+00  0.00000000000E+00  0.17930442063E+04  0.17930442063E+04  0.25500000000E-02 0. -1.
         -2   -1    0    0    0  501 -0.00000000000E+00 -0.00000000000E+00 -0.90455121203E+03  0.90455121203E+03  0.25500000000E-02 0.  1.
    8880023    1    1    2    0    0  0.32178275317E+03 -0.44967097272E+03 -0.63542515858E+03  0.10692630464E+04  0.65864270000E+03 0.  0.
    8880022    1    1    2    0    0 -0.32178275317E+03  0.44967097272E+03  0.15239181528E+04  0.16283323719E+04  0.15294330000E+03 0.  0.
<mgrwt>
<rscale>  0 0.77720790E+03</rscale>
<asrwt>0</asrwt>
<pdfrwt beam="1">  1        2 0.27585295E+00 0.85997577E+03</pdfrwt>
<pdfrwt beam="2">  1       -2 0.13916173E+00 0.85997577E+03</pdfrwt>
<totfact> 0.32220833E+00</totfact>
</mgrwt>
</event>
<event>
 4    1  0.3057048E-007  0.7610970E+03  0.7818608E-02  0.9802276E-01
          2   -1    0    0  501    0  0.00000000000E+00  0.00000000000E+00  0.20823981658E+04  0.20823981658E+04  0.25500000000E-02 0. -1.
         -2   -1    0    0    0  501 -0.00000000000E+00 -0.00000000000E+00 -0.55707012198E+03  0.55707012199E+03  0.25500000000E-02 0.  1.
    8880023    1    1    2    0    0  0.36534785602E+03 -0.10945019126E+03 -0.26244829102E+03  0.80507621502E+03  0.65864270000E+03 0.  1.
    8880022    1    1    2    0    0 -0.36534785602E+03  0.10945019126E+03  0.17877763348E+04  0.18343920728E+04  0.15294330000E+03 0.  0.
<mgrwt>
<rscale>  0 0.65240555E+03</rscale>
<asrwt>0</asrwt>
<pdfrwt beam="1">  1        2 0.32036895E+00 0.76109698E+03</pdfrwt>
<pdfrwt beam="2">  1       -2 0.85703094E-01 0.76109698E+03</pdfrwt>
<totfact> 0.73628452E+00</totfact>
</mgrwt>
</event>
<event>
 4    1  0.3057048E-007  0.7849508E+03  0.7818608E-02  0.9744333E-01
         -2   -1    0    0    0  501 -0.00000000000E+00  0.00000000000E+00  0.33019170169E+03  0.33019170170E+03  0.25500000000E-02 0.  1.
          2   -1    0    0  501    0  0.00000000000E+00 -0.00000000000E+00 -0.23593902350E+04  0.23593902350E+04  0.25500000000E-02 0. -1.
    8880023    1    1    2    0    0 -0.40307244498E+03  0.14096154651E+03 -0.20700733222E+03  0.81178802366E+03  0.65864270000E+03 0.  0.
    8880022    1    1    2    0    0  0.40307244498E+03 -0.14096154651E+03 -0.18221912011E+04  0.18777939130E+04  0.15294330000E+03 0.  0.
<mgrwt>
<rscale>  0 0.68437450E+03</rscale>
<asrwt>0</asrwt>
<pdfrwt beam="1">  1        2 0.36298310E+00 0.78495080E+03</pdfrwt>
<pdfrwt beam="2">  1       -2 0.50798725E-01 0.78495080E+03</pdfrwt>
<totfact> 0.15945887E+01</totfact>
</mgrwt>
</event>
<event>
 4    1  0.3057048E-007  0.1199177E+04  0.7818608E-02  0.9157922E-01
         -2   -1    0    0    0  501 -0.00000000000E+00  0.00000000000E+00  0.17994254062E+04  0.17994254062E+04  0.25500000000E-02 0.  1.
          2   -1    0    0  501    0  0.00000000000E+00 -0.00000000000E+00 -0.10931728380E+04  0.10931728380E+04  0.25500000000E-02 0. -1.
    8880023    1    1    2    0    0  0.84547635981E+03 -0.53794615861E+03 -0.51530486123E+03  0.13052071295E+04  0.65864270000E+03 0.  0.
    8880022    1    1    2    0    0 -0.84547635981E+03  0.53794615861E+03  0.12215574294E+04  0.15873911147E+04  0.15294330000E+03 0.  0.
<mgrwt>
<rscale>  0 0.11498496E+04</rscale>
<asrwt>0</asrwt>
<pdfrwt beam="1">  1        2 0.16818044E+00 0.11991774E+04</pdfrwt>
<pdfrwt beam="2">  1       -2 0.27683467E+00 0.11991774E+04</pdfrwt>
<totfact> 0.94476893E-01</totfact>
</mgrwt>
</event>
<event>
 4    1  0.3057048E-007  0.7081169E+03  0.7818608E-02  0.9965061E-01
         -2   -1    0    0    0  501 -0.00000000000E+00  0.00000000000E+00  0.14324647221E+03  0.14324647223E+03  0.25500000000E-02 0.  1.
          2   -1    0    0  501    0  0.00000000000E+00 -0.00000000000E+00 -0.21563137066E+04  0.21563137066E+04  0.25500000000E-02 0. -1.
    8880023    1    1    2    0    0  0.21134109585E+03 -0.15150663918E+03 -0.89358696969E+03  0.11401434994E+04  0.65864270000E+03 0.  0.
    8880022    1    1    2    0    0 -0.21134109585E+03  0.15150663918E+03 -0.11194802647E+04  0.11594166795E+04  0.15294330000E+03 0.  0.
<mgrwt>
<rscale>  0 0.57209142E+03</rscale>
<asrwt>0</asrwt>
<pdfrwt beam="1">  1        2 0.33174055E+00 0.70811689E+03</pdfrwt>
<pdfrwt beam="2">  1       -2 0.22037920E-01 0.70811689E+03</pdfrwt>
<totfact> 0.10160134E+02</totfact>
</mgrwt>
</event>
<event>
 4    1  0.3057048E-007  0.6834047E+03  0.7818608E-02  0.1007460E+00
          2   -1    0    0  501    0  0.00000000000E+00  0.00000000000E+00  0.20424443800E+04  0.20424443800E+04  0.25500000000E-02 0. -1.
         -2   -1    0    0    0  501 -0.00000000000E+00 -0.00000000000E+00 -0.30174898726E+03  0.30174898727E+03  0.25500000000E-02 0.  1.
    8880023    1    1    2    0    0 -0.38984102540E+02  0.17807875239E+03  0.10517189829E+03  0.69145002477E+03  0.65864270000E+03 0.  1.
    8880022    1    1    2    0    0  0.38984102540E+02 -0.17807875239E+03  0.16355234945E+04  0.16527433425E+04  0.15294330000E+03 0.  0.
<mgrwt>
<rscale>  0 0.52496823E+03</rscale>
<asrwt>0</asrwt>
<pdfrwt beam="1">  1        2 0.31422222E+00 0.68340472E+03</pdfrwt>
<pdfrwt beam="2">  1       -2 0.46422920E-01 0.68340472E+03</pdfrwt>
<totfact> 0.29037542E+01</totfact>
</mgrwt>
</event>
<event>
 4    1  0.3057048E-007  0.7799230E+03  0.7818608E-02  0.9756018E-01
          2   -1    0    0  501    0  0.00000000000E+00  0.00000000000E+00  0.22921167167E+04  0.22921167167E+04  0.25500000000E-02 0. -1.
         -2   -1    0    0    0  501 -0.00000000000E+00 -0.00000000000E+00 -0.24907949423E+03  0.24907949425E+03  0.25500000000E-02 0.  1.
    8880023    1    1    2    0    0  0.40670890292E+03 -0.95171478011E+02  0.19308990930E+04  0.20824627862E+04  0.65864270000E+03 0. -1.
    8880022    1    1    2    0    0 -0.40670890292E+03  0.95171478011E+02  0.11213812943E+03  0.45873342480E+03  0.15294330000E+03 0.  0.
<mgrwt>
<rscale>  0 0.67777250E+03</rscale>
<asrwt>0</asrwt>
<pdfrwt beam="1">  1        2 0.35263333E+00 0.77992304E+03</pdfrwt>
<pdfrwt beam="2">  1       -2 0.38319923E-01 0.77992304E+03</pdfrwt>
<totfact> 0.30471717E+01</totfact>
</mgrwt>
</event>
<event>
 4    1  0.3057048E-007  0.6797874E+03  0.7818608E-02  0.1009444E+00
         -2   -1    0    0    0  501 -0.00000000000E+00  0.00000000000E+00  0.28965149311E+03  0.28965149312E+03  0.25500000000E-02 0.  1.
          2   -1    0    0  501    0  0.00000000000E+00 -0.00000000000E+00 -0.76560844012E+03  0.76560844012E+03  0.25500000000E-02 0. -1.
    8880023    1    1    2    0    0  0.16161478514E+03  0.46704646242E+02 -0.22366528520E+03  0.71563749819E+03  0.65864270000E+03 0.  1.
    8880022    1    1    2    0    0 -0.16161478514E+03 -0.46704646242E+02 -0.25229166181E+03  0.33962243505E+03  0.15294330000E+03 0.  0.
<mgrwt>
<rscale>  0 0.51696134E+03</rscale>
<asrwt>0</asrwt>
<pdfrwt beam="1">  1        2 0.11778591E+00 0.67978737E+03</pdfrwt>
<pdfrwt beam="2">  1       -2 0.44561768E-01 0.67978737E+03</pdfrwt>
<totfact> 0.17679351E+02</totfact>
</mgrwt>
</event>
<event>
 4    1  0.3057048E-007  0.7730045E+03  0.7818608E-02  0.9772534E-01
          2   -1    0    0  501    0  0.00000000000E+00  0.00000000000E+00  0.99317359092E+03  0.99317359093E+03  0.25500000000E-02 0. -1.
         -2   -1    0    0    0  501 -0.00000000000E+00 -0.00000000000E+00 -0.58809071684E+03  0.58809071684E+03  0.25500000000E-02 0.  1.
    8880023    1    1    2    0    0  0.38774375038E+03  0.11567441173E+03 -0.23570049206E+03  0.80814028096E+03  0.65864270000E+03 0.  1.
    8880022    1    1    2    0    0 -0.38774375038E+03 -0.11567441173E+03  0.64078336614E+03  0.77312402681E+03  0.15294330000E+03 0.  0.
<mgrwt>
<rscale>  0 0.66857604E+03</rscale>
<asrwt>0</asrwt>
<pdfrwt beam="1">  1        2 0.15279594E+00 0.77300452E+03</pdfrwt>
<pdfrwt beam="2">  1       -2 0.90475496E-01 0.77300452E+03</pdfrwt>
<totfact> 0.26934420E+01</totfact>
</mgrwt>
</event>
<event>
 4    1  0.3057048E-007  0.7678618E+03  0.7818608E-02  0.9785163E-01
          2   -1    0    0  501    0  0.00000000000E+00  0.00000000000E+00  0.41485446073E+04  0.41485446073E+04  0.25500000000E-02 0. -1.
         -2   -1    0    0    0  501 -0.00000000000E+00 -0.00000000000E+00 -0.14056401264E+03  0.14056401267E+03  0.25500000000E-02 0.  1.
    8880023    1    1    2    0    0 -0.65952955302E+02 -0.38916799272E+03  0.10490166804E+04  0.13000183541E+04  0.65864270000E+03 0.  0.
    8880022    1    1    2    0    0  0.65952955302E+02  0.38916799272E+03  0.29589639142E+04  0.29890902659E+04  0.15294330000E+03 0.  0.
<mgrwt>
<rscale>  0 0.66164872E+03</rscale>
<asrwt>0</asrwt>
<pdfrwt beam="1">  1        2 0.63823770E+00 0.76786179E+03</pdfrwt>
<pdfrwt beam="2">  1       -2 0.21625230E-01 0.76786179E+03</pdfrwt>
<totfact> 0.52991056E+00</totfact>
</mgrwt>
</event>
<event>
 4    1  0.3057048E-007  0.6976677E+03  0.7818608E-02  0.1000702E+00
          2   -1    0    0  501    0  0.00000000000E+00  0.00000000000E+00  0.10480125688E+04  0.10480125688E+04  0.25500000000E-02 0. -1.
         -2   -1    0    0    0  501 -0.00000000000E+00 -0.00000000000E+00 -0.39905830028E+03  0.39905830029E+03  0.25500000000E-02 0.  1.
    8880023    1    1    2    0    0 -0.15135386009E+03  0.17326853093E+03 -0.46036237689E+02  0.69918489416E+03  0.65864270000E+03 0.  1.
    8880022    1    1    2    0    0  0.15135386009E+03 -0.17326853093E+03  0.69499050620E+03  0.74788597493E+03  0.15294330000E+03 0.  0.
<mgrwt>
<rscale>  0 0.55343600E+03</rscale>
<asrwt>0</asrwt>
<pdfrwt beam="1">  1        2 0.16123270E+00 0.69766767E+03</pdfrwt>
<pdfrwt beam="2">  1       -2 0.61393586E-01 0.69766767E+03</pdfrwt>
<totfact> 0.59087810E+01</totfact>
</mgrwt>
</event>
<event>
 4    1  0.3057048E-007  0.9380265E+03  0.7818608E-02  0.9467555E-01
          2   -1    0    0  501    0  0.00000000000E+00  0.00000000000E+00  0.28182104562E+04  0.28182104562E+04  0.25500000000E-02 0. -1.
         -2   -1    0    0    0  501 -0.00000000000E+00 -0.00000000000E+00 -0.26703808431E+03  0.26703808433E+03  0.25500000000E-02 0.  1.
    8880023    1    1    2    0    0 -0.44500936284E+03  0.49804628540E+03  0.91050486960E+03  0.13072539001E+04  0.65864270000E+03 0.  1.
    8880022    1    1    2    0    0  0.44500936284E+03 -0.49804628540E+03  0.16406675022E+04  0.17779946404E+04  0.15294330000E+03 0.  0.
<mgrwt>
<rscale>  0 0.86718725E+03</rscale>
<asrwt>0</asrwt>
<pdfrwt beam="1">  1        2 0.43357084E+00 0.93802646E+03</pdfrwt>
<pdfrwt beam="2">  1       -2 0.41082782E-01 0.93802646E+03</pdfrwt>
<totfact> 0.12992186E+01</totfact>
</mgrwt>
</event>
<event>
 4    1  0.3057048E-007  0.6826701E+03  0.7818608E-02  0.1007852E+00
         -2   -1    0    0    0  501 -0.00000000000E+00  0.00000000000E+00  0.18764594023E+03  0.18764594024E+03  0.25500000000E-02 0.  1.
          2   -1    0    0  501    0  0.00000000000E+00 -0.00000000000E+00 -0.11965153248E+04  0.11965153248E+04  0.25500000000E-02 0. -1.
    8880023    1    1    2    0    0 -0.16623932520E+03  0.67769757974E+02 -0.58471112418E+03  0.89884679359E+03  0.65864270000E+03 0. -1.
    8880022    1    1    2    0    0  0.16623932520E+03 -0.67769757974E+02 -0.42415826044E+03  0.48531447151E+03  0.15294330000E+03 0.  1.
<mgrwt>
<rscale>  0 0.52337376E+03</rscale>
<asrwt>0</asrwt>
<pdfrwt beam="1">  1        2 0.18407928E+00 0.68267010E+03</pdfrwt>
<pdfrwt beam="2">  1       -2 0.28868607E-01 0.68267010E+03</pdfrwt>
<totfact> 0.21285059E+02</totfact>
</mgrwt>
</event>
<event>
 4    1  0.3987502E-007  0.7280738E+03  0.7818608E-02  0.9896157E-01
         -2   -1    0    0    0  501 -0.00000000000E+00  0.00000000000E+00  0.20378279860E+04  0.20378279860E+04  0.25500000000E-02 0.  1.
          2   -1    0    0  501    0  0.00000000000E+00 -0.00000000000E+00 -0.10919610653E+04  0.10919610653E+04  0.25500000000E-02 0. -1.
    8880023    1    1    2    0    0 -0.16148785812E+03 -0.26495839512E+03  0.19426919899E+04  0.20746430183E+04  0.65864270000E+03 0.  1.
    8880022    1    1    2    0    0  0.16148785812E+03  0.26495839512E+03 -0.99682506913E+03  0.10551460330E+04  0.15294330000E+03 0.  0.
<mgrwt>
<rscale>  0 0.60447877E+03</rscale>
<asrwt>0</asrwt>
<pdfrwt beam="1">  1        2 0.16799401E+00 0.72807382E+03</pdfrwt>
<pdfrwt beam="2">  1       -2 0.31351200E+00 0.72807382E+03</pdfrwt>
<totfact> 0.61099029E-01</totfact>
</mgrwt>
</event>
<event>
 4    1  0.3057048E-007  0.1287098E+04  0.7818608E-02  0.9076783E-01
          2   -1    0    0  501    0  0.00000000000E+00  0.00000000000E+00  0.40175288161E+04  0.40175288161E+04  0.25500000000E-02 0. -1.
         -2   -1    0    0    0  501 -0.00000000000E+00 -0.00000000000E+00 -0.12631858929E+04  0.12631858929E+04  0.25500000000E-02 0.  1.
    8880023    1    1    2    0    0  0.73977837421E+03 -0.82191119853E+03 -0.82668813790E+03  0.15297168185E+04  0.65864270000E+03 0.  1.
    8880022    1    1    2    0    0 -0.73977837421E+03  0.82191119853E+03  0.35810310611E+04  0.37509978905E+04  0.15294330000E+03 0.  0.
<mgrwt>
<rscale>  0 0.12421017E+04</rscale>
<asrwt>0</asrwt>
<pdfrwt beam="1">  1        2 0.61808136E+00 0.12870976E+04</pdfrwt>
<pdfrwt beam="2">  1       -2 0.19433629E+00 0.12870976E+04</pdfrwt>
<totfact> 0.47534634E-02</totfact>
</mgrwt>
</event>
<event>
 4    1  0.3057048E-007  0.7638356E+03  0.7818608E-02  0.9795277E-01
          2   -1    0    0  501    0  0.00000000000E+00  0.00000000000E+00  0.60317284201E+03  0.60317284202E+03  0.25500000000E-02 0. -1.
         -2   -1    0    0    0  501 -0.00000000000E+00 -0.00000000000E+00 -0.65071667818E+03  0.65071667819E+03  0.25500000000E-02 0.  1.
    8880023    1    1    2    0    0 -0.38437414725E+03  0.43487793287E+02 -0.23281808682E+03  0.79852936142E+03  0.65864270000E+03 0.  0.
    8880022    1    1    2    0    0  0.38437414725E+03 -0.43487793287E+02  0.18527425064E+03  0.45536015878E+03  0.15294330000E+03 0.  1.
<mgrwt>
<rscale>  0 0.65616636E+03</rscale>
<asrwt>0</asrwt>
<pdfrwt beam="1">  1        2 0.92795822E-01 0.76383564E+03</pdfrwt>
<pdfrwt beam="2">  1       -2 0.10011026E+00 0.76383564E+03</pdfrwt>
<totfact> 0.41063996E+01</totfact>
</mgrwt>
</event>
<event>
 4    1  0.3057048E-007  0.1294655E+04  0.7818608E-02  0.9070189E-01
         -2   -1    0    0    0  501 -0.00000000000E+00  0.00000000000E+00  0.64774175728E+03  0.64774175728E+03  0.25500000000E-02 0.  1.
          2   -1    0    0  501    0  0.00000000000E+00 -0.00000000000E+00 -0.29756656881E+04  0.29756656881E+04  0.25500000000E-02 0. -1.
    8880023    1    1    2    0    0  0.76020366408E+03 -0.81511532135E+03 -0.33893916426E+03  0.13382871745E+04  0.65864270000E+03 0.  0.
    8880022    1    1    2    0    0 -0.76020366408E+03  0.81511532135E+03 -0.19889847666E+04  0.22851202709E+04  0.15294330000E+03 0.  0.
<mgrwt>
<rscale>  0 0.12499931E+04</rscale>
<asrwt>0</asrwt>
<pdfrwt beam="1">  1        2 0.45779472E+00 0.12946555E+04</pdfrwt>
<pdfrwt beam="2">  1       -2 0.99652579E-01 0.12946555E+04</pdfrwt>
<totfact> 0.14695878E+00</totfact>
</mgrwt>
</event>
<event>
 4    1  0.3057048E-007  0.8441116E+03  0.7818608E-02  0.9622476E-01
          2   -1    0    0  501    0  0.00000000000E+00  0.00000000000E+00  0.25357368329E+04  0.25357368329E+04  0.25500000000E-02 0. -1.
         -2   -1    0    0    0  501 -0.00000000000E+00 -0.00000000000E+00 -0.31909429045E+03  0.31909429046E+03  0.25500000000E-02 0.  1.
    8880023    1    1    2    0    0 -0.50052530739E+02  0.52555580848E+03  0.35847416441E+03  0.91707584009E+03  0.65864270000E+03 0.  0.
    8880022    1    1    2    0    0  0.50052530739E+02 -0.52555580848E+03  0.18581683780E+04  0.19377552832E+04  0.15294330000E+03 0.  0.
<mgrwt>
<rscale>  0 0.75826286E+03</rscale>
<asrwt>0</asrwt>
<pdfrwt beam="1">  1        2 0.39011337E+00 0.84411159E+03</pdfrwt>
<pdfrwt beam="2">  1       -2 0.49091427E-01 0.84411159E+03</pdfrwt>
<totfact> 0.13474614E+01</totfact>
</mgrwt>
</event>
<event>
 4    1  0.3057048E-007  0.7025446E+03  0.7818608E-02  0.9986805E-01
         -2   -1    0    0    0  501 -0.00000000000E+00  0.00000000000E+00  0.27206431188E+03  0.27206431189E+03  0.25500000000E-02 0.  1.
          2   -1    0    0  501    0  0.00000000000E+00 -0.00000000000E+00 -0.24542186909E+04  0.24542186909E+04  0.25500000000E-02 0. -1.
    8880023    1    1    2    0    0  0.19920512653E+03 -0.14168972045E+03 -0.21014231978E+03  0.73329984327E+03  0.65864270000E+03 0.  1.
    8880022    1    1    2    0    0 -0.19920512653E+03  0.14168972045E+03 -0.19720120593E+04  0.19929831595E+04  0.15294330000E+03 0.  0.
<mgrwt>
<rscale>  0 0.56232630E+03</rscale>
<asrwt>0</asrwt>
<pdfrwt beam="1">  1        2 0.37757209E+00 0.70254456E+03</pdfrwt>
<pdfrwt beam="2">  1       -2 0.41856050E-01 0.70254456E+03</pdfrwt>
<totfact> 0.21056781E+01</totfact>
</mgrwt>
</event>
<event>
 4    1  0.3057048E-007  0.8180087E+03  0.7818608E-02  0.9673130E-01
          2   -1    0    0  501    0  0.00000000000E+00  0.00000000000E+00  0.55388376650E+03  0.55388376650E+03  0.25500000000E-02 0. -1.
         -2   -1    0    0    0  501 -0.00000000000E+00 -0.00000000000E+00 -0.96107118244E+03  0.96107118244E+03  0.25500000000E-02 0.  1.
    8880023    1    1    2    0    0  0.38396652087E+03 -0.29647565104E+03 -0.55111403619E+03  0.98633918505E+03  0.65864270000E+03 0.  1.
    8880022    1    1    2    0    0 -0.38396652087E+03  0.29647565104E+03  0.14392662025E+03  0.52861576390E+03  0.15294330000E+03 0.  0.
<mgrwt>
<rscale>  0 0.72639385E+03</rscale>
<asrwt>0</asrwt>
<pdfrwt beam="1">  1        2 0.85212887E-01 0.81800875E+03</pdfrwt>
<pdfrwt beam="2">  1       -2 0.14785710E+00 0.81800875E+03</pdfrwt>
<totfact> 0.17126001E+01</totfact>
</mgrwt>
</event>
<event>
 4    1  0.3057048E-007  0.1004372E+04  0.7818608E-02  0.9375861E-01
          2   -1    0    0  501    0  0.00000000000E+00  0.00000000000E+00  0.26038403553E+04  0.26038403553E+04  0.25500000000E-02 0. -1.
         -2   -1    0    0    0  501 -0.00000000000E+00 -0.00000000000E+00 -0.45113055668E+03  0.45113055669E+03  0.25500000000E-02 0.  1.
    8880023    1    1    2    0    0  0.59967356572E+03  0.46405133075E+03  0.20392462067E+04  0.22731668044E+04  0.65864270000E+03 0.  0.
    8880022    1    1    2    0    0 -0.59967356572E+03 -0.46405133075E+03  0.11346359200E+03  0.78180410764E+03  0.15294330000E+03 0.  0.
<mgrwt>
<rscale>  0 0.94089171E+03</rscale>
<asrwt>0</asrwt>
<pdfrwt beam="1">  1        2 0.40059083E+00 0.10043716E+04</pdfrwt>
<pdfrwt beam="2">  1       -2 0.69404699E-01 0.10043716E+04</pdfrwt>
<totfact> 0.58059672E+00</totfact>
</mgrwt>
</event>
<event>
 4    1  0.3057048E-007  0.7665301E+03  0.7818608E-02  0.9788486E-01
         -2   -1    0    0    0  501 -0.00000000000E+00  0.00000000000E+00  0.60746930692E+03  0.60746930693E+03  0.25500000000E-02 0.  1.
          2   -1    0    0  501    0  0.00000000000E+00 -0.00000000000E+00 -0.12550534328E+04  0.12550534328E+04  0.25500000000E-02 0. -1.
    8880023    1    1    2    0    0  0.24680463359E+03  0.30470587155E+03  0.30197228366E+03  0.82386628872E+03  0.65864270000E+03 0.  1.
    8880022    1    1    2    0    0 -0.24680463359E+03 -0.30470587155E+03 -0.94955640954E+03  0.10386564510E+04  0.15294330000E+03 0.  0.
<mgrwt>
<rscale>  0 0.65984132E+03</rscale>
<asrwt>0</asrwt>
<pdfrwt beam="1">  1        2 0.19308514E+00 0.76653010E+03</pdfrwt>
<pdfrwt beam="2">  1       -2 0.93456817E-01 0.76653010E+03</pdfrwt>
<totfact> 0.17318526E+01</totfact>
</mgrwt>
</event>
<event>
 4    1  0.3057048E-007  0.7776020E+03  0.7818608E-02  0.9761500E-01
          2   -1    0    0  501    0  0.00000000000E+00  0.00000000000E+00  0.16936663343E+04  0.16936663343E+04  0.25500000000E-02 0. -1.
         -2   -1    0    0    0  501 -0.00000000000E+00 -0.00000000000E+00 -0.24295658361E+03  0.24295658362E+03  0.25500000000E-02 0.  1.
    8880023    1    1    2    0    0 -0.31962921491E+03  0.26209123078E+03  0.61345357994E+03  0.99044946831E+03  0.65864270000E+03 0. -1.
    8880022    1    1    2    0    0  0.31962921491E+03 -0.26209123078E+03  0.83725617076E+03  0.94617344962E+03  0.15294330000E+03 0.  1.
<mgrwt>
<rscale>  0 0.67470219E+03</rscale>
<asrwt>0</asrwt>
<pdfrwt beam="1">  1        2 0.26056405E+00 0.77760199E+03</pdfrwt>
<pdfrwt beam="2">  1       -2 0.37377936E-01 0.77760199E+03</pdfrwt>
<totfact> 0.68076839E+01</totfact>
</mgrwt>
</event>
<event>
 4    1  0.3057048E-007  0.8076382E+03  0.7818608E-02  0.9694518E-01
          2   -1    0    0  501    0  0.00000000000E+00  0.00000000000E+00  0.31404112005E+04  0.31404112005E+04  0.25500000000E-02 0. -1.
         -2   -1    0    0    0  501 -0.00000000000E+00 -0.00000000000E+00 -0.19628555638E+03  0.19628555640E+03  0.25500000000E-02 0.  1.
    8880023    1    1    2    0    0  0.18978382031E+03 -0.42714319485E+03  0.79959958731E+03  0.11365029317E+04  0.65864270000E+03 0.  1.
    8880022    1    1    2    0    0 -0.18978382031E+03  0.42714319485E+03  0.21445260568E+04  0.22001938253E+04  0.15294330000E+03 0.  0.
<mgrwt>
<rscale>  0 0.71344143E+03</rscale>
<asrwt>0</asrwt>
<pdfrwt beam="1">  1        2 0.48314020E+00 0.80763817E+03</pdfrwt>
<pdfrwt beam="2">  1       -2 0.30197777E-01 0.80763817E+03</pdfrwt>
<totfact> 0.15143003E+01</totfact>
</mgrwt>
</event>
<event>
 4    1  0.3057048E-007  0.7118483E+03  0.7818608E-02  0.9951200E-01
         -2   -1    0    0    0  501 -0.00000000000E+00  0.00000000000E+00  0.10107392521E+04  0.10107392521E+04  0.25500000000E-02 0.  1.
          2   -1    0    0  501    0  0.00000000000E+00 -0.00000000000E+00 -0.53655610831E+03  0.53655610832E+03  0.25500000000E-02 0. -1.
    8880023    1    1    2    0    0  0.13888260189E+02  0.26967556669E+03  0.81784350117E+03  0.10842490460E+04  0.65864270000E+03 0.  1.
    8880022    1    1    2    0    0 -0.13888260189E+02 -0.26967556669E+03 -0.34366035739E+03  0.46304631442E+03  0.15294330000E+03 0.  0.
<mgrwt>
<rscale>  0 0.57842786E+03</rscale>
<asrwt>0</asrwt>
<pdfrwt beam="1">  1        2 0.82547094E-01 0.71184830E+03</pdfrwt>
<pdfrwt beam="2">  1       -2 0.15549835E+00 0.71184830E+03</pdfrwt>
<totfact> 0.15707428E+01</totfact>
</mgrwt>
</event>
<event>
 4    1  0.3057048E-007  0.8796601E+03  0.7818608E-02  0.9559506E-01
         -2   -1    0    0    0  501 -0.00000000000E+00  0.00000000000E+00  0.80507146327E+03  0.80507146327E+03  0.25500000000E-02 0.  1.
          2   -1    0    0  501    0  0.00000000000E+00 -0.00000000000E+00 -0.90281934158E+03  0.90281934159E+03  0.25500000000E-02 0. -1.
    8880023    1    1    2    0    0 -0.55368443182E+03 -0.18282571620E+03  0.36051199652E+03  0.95066860600E+03  0.65864270000E+03 0.  0.
    8880022    1    1    2    0    0  0.55368443182E+03  0.18282571620E+03 -0.45825987483E+03  0.75722219886E+03  0.15294330000E+03 0.  0.
<mgrwt>
<rscale>  0 0.80035341E+03</rscale>
<asrwt>0</asrwt>
<pdfrwt beam="1">  1        2 0.13889528E+00 0.87966010E+03</pdfrwt>
<pdfrwt beam="2">  1       -2 0.12385715E+00 0.87966010E+03</pdfrwt>
<totfact> 0.14365267E+01</totfact>
</mgrwt>
</event>
<event>
 4    1  0.3057048E-007  0.7040288E+03  0.7818608E-02  0.9980881E-01
          2   -1    0    0  501    0  0.00000000000E+00  0.00000000000E+00  0.29855882865E+03  0.29855882866E+03  0.25500000000E-02 0. -1.
         -2   -1    0    0    0  501 -0.00000000000E+00 -0.00000000000E+00 -0.16440455589E+04  0.16440455589E+04  0.25500000000E-02 0.  1.
    8880023    1    1    2    0    0 -0.23644897167E+03  0.77060168514E+02 -0.14663630608E+04  0.16266152643E+04  0.65864270000E+03 0.  1.
    8880022    1    1    2    0    0  0.23644897167E+03 -0.77060168514E+02  0.12087633046E+03  0.31598912332E+03  0.15294330000E+03 0.  0.
<mgrwt>
<rscale>  0 0.56496561E+03</rscale>
<asrwt>0</asrwt>
<pdfrwt beam="1">  1        2 0.45932128E-01 0.70402883E+03</pdfrwt>
<pdfrwt beam="2">  1       -2 0.25293008E+00 0.70402883E+03</pdfrwt>
<totfact> 0.70331075E+00</totfact>
</mgrwt>
</event>
<event>
 4    1  0.3057048E-007  0.8004870E+03  0.7818608E-02  0.9709744E-01
         -2   -1    0    0    0  501 -0.00000000000E+00  0.00000000000E+00  0.29335488341E+03  0.29335488343E+03  0.25500000000E-02 0.  1.
          2   -1    0    0  501    0  0.00000000000E+00 -0.00000000000E+00 -0.18484324483E+04  0.18484324483E+04  0.25500000000E-02 0. -1.
    8880023    1    1    2    0    0 -0.44619150572E+03 -0.88783144640E+02 -0.40826040411E+03  0.89858559435E+03  0.65864270000E+03 0.  1.
    8880022    1    1    2    0    0  0.44619150572E+03  0.88783144640E+02 -0.11468171607E+04  0.12432017373E+04  0.15294330000E+03 0.  0.
<mgrwt>
<rscale>  0 0.70439594E+03</rscale>
<asrwt>0</asrwt>
<pdfrwt beam="1">  1        2 0.28437422E+00 0.80048705E+03</pdfrwt>
<pdfrwt beam="2">  1       -2 0.45131522E-01 0.80048705E+03</pdfrwt>
<totfact> 0.38611017E+01</totfact>
</mgrwt>
</event>
<event>
 4    1  0.3057048E-007  0.9252977E+03  0.7818608E-02  0.9486583E-01
          2   -1    0    0  501    0  0.00000000000E+00  0.00000000000E+00  0.54201568997E+03  0.54201568998E+03  0.25500000000E-02 0. -1.
         -2   -1    0    0    0  501 -0.00000000000E+00 -0.00000000000E+00 -0.12730655701E+04  0.12730655701E+04  0.25500000000E-02 0.  1.
    8880023    1    1    2    0    0  0.37122882090E+03 -0.53343684670E+03 -0.67449178778E+03  0.11450393377E+04  0.65864270000E+03 0.  0.
    8880022    1    1    2    0    0 -0.37122882090E+03  0.53343684670E+03 -0.56558092343E+02  0.67004192235E+03  0.15294330000E+03 0.  0.
<mgrwt>
<rscale>  0 0.85280246E+03</rscale>
<asrwt>0</asrwt>
<pdfrwt beam="1">  1        2 0.83387029E-01 0.92529774E+03</pdfrwt>
<pdfrwt beam="2">  1       -2 0.19585624E+00 0.92529774E+03</pdfrwt>
<totfact> 0.79439974E+00</totfact>
</mgrwt>
</event>
<event>
 4    1  0.3057048E-007  0.8389071E+03  0.7818608E-02  0.9632245E-01
         -2   -1    0    0    0  501 -0.00000000000E+00  0.00000000000E+00  0.58959534522E+03  0.58959534522E+03  0.25500000000E-02 0.  1.
          2   -1    0    0  501    0  0.00000000000E+00 -0.00000000000E+00 -0.14530132928E+04  0.14530132928E+04  0.25500000000E-02 0. -1.
    8880023    1    1    2    0    0  0.14524772176E+03 -0.49885663294E+03  0.18815733883E+03  0.85974893505E+03  0.65864270000E+03 0. -1.
    8880022    1    1    2    0    0 -0.14524772176E+03  0.49885663294E+03 -0.10515752864E+04  0.11828597030E+04  0.15294330000E+03 0.  0.
<mgrwt>
<rscale>  0 0.75198296E+03</rscale>
<asrwt>0</asrwt>
<pdfrwt beam="1">  1        2 0.22354051E+00 0.83890706E+03</pdfrwt>
<pdfrwt beam="2">  1       -2 0.90706977E-01 0.83890706E+03</pdfrwt>
<totfact> 0.14184762E+01</totfact>
</mgrwt>
</event>
<event>
 4    1  0.3057048E-007  0.7542684E+03  0.7818608E-02  0.9820178E-01
          2   -1    0    0  501    0  0.00000000000E+00  0.00000000000E+00  0.22641575619E+04  0.22641575619E+04  0.25500000000E-02 0. -1.
         -2   -1    0    0    0  501 -0.00000000000E+00 -0.00000000000E+00 -0.22609906232E+03  0.22609906233E+03  0.25500000000E-02 0.  1.
    8880023    1    1    2    0    0 -0.21437905242E+03  0.29858367907E+03  0.50833452124E+03  0.90957395701E+03  0.65864270000E+03 0.  1.
    8880022    1    1    2    0    0  0.21437905242E+03 -0.29858367907E+03  0.15297239783E+04  0.15806826672E+04  0.15294330000E+03 0. -1.
<mgrwt>
<rscale>  0 0.64290804E+03</rscale>
<asrwt>0</asrwt>
<pdfrwt beam="1">  1        2 0.34833192E+00 0.75426839E+03</pdfrwt>
<pdfrwt beam="2">  1       -2 0.34784472E-01 0.75426839E+03</pdfrwt>
<totfact> 0.38155844E+01</totfact>
</mgrwt>
</event>
<event>
 4    1  0.3057048E-007  0.6634040E+03  0.7818608E-02  0.1020912E+00
         -2   -1    0    0    0  501 -0.00000000000E+00  0.00000000000E+00  0.12836203853E+03  0.12836203856E+03  0.25500000000E-02 0.  1.
          2   -1    0    0  501    0  0.00000000000E+00 -0.00000000000E+00 -0.13603878920E+04  0.13603878920E+04  0.25500000000E-02 0. -1.
    8880023    1    1    2    0    0 -0.38214660740E+02 -0.69528833933E+02 -0.98490022070E+03  0.11874903242E+04  0.65864270000E+03 0.  0.
    8880022    1    1    2    0    0  0.38214660740E+02  0.69528833933E+02 -0.24712563273E+03  0.30125960634E+03  0.15294330000E+03 0.  1.
<mgrwt>
<rscale>  0 0.47359053E+03</rscale>
<asrwt>0</asrwt>
<pdfrwt beam="1">  1        2 0.20929044E+00 0.66340397E+03</pdfrwt>
<pdfrwt beam="2">  1       -2 0.19748007E-01 0.66340397E+03</pdfrwt>
<totfact> 0.33821452E+02</totfact>
</mgrwt>
</event>
<event>
 4    1  0.3057048E-007  0.6771030E+03  0.7818608E-02  0.1011012E+00
          2   -1    0    0  501    0  0.00000000000E+00  0.00000000000E+00  0.47530164239E+04  0.47530164239E+04  0.25500000000E-02 0. -1.
         -2   -1    0    0    0  501 -0.00000000000E+00 -0.00000000000E+00 -0.10383434286E+03  0.10383434289E+03  0.25500000000E-02 0.  1.
    8880023    1    1    2    0    0 -0.82145079770E+02  0.13383017485E+03  0.10398551007E+04  0.12408735498E+04  0.65864270000E+03 0.  1.
    8880022    1    1    2    0    0  0.82145079770E+02 -0.13383017485E+03  0.36093269804E+04  0.36159772170E+04  0.15294330000E+03 0.  0.
<mgrwt>
<rscale>  0 0.51074336E+03</rscale>
<asrwt>0</asrwt>
<pdfrwt beam="1">  1        2 0.73123317E+00 0.67710305E+03</pdfrwt>
<pdfrwt beam="2">  1       -2 0.15974517E-01 0.67710305E+03</pdfrwt>
<totfact> 0.24807875E+00</totfact>
</mgrwt>
</event>
<event>
 4    1  0.3057048E-007  0.7469898E+03  0.7818608E-02  0.9840035E-01
         -2   -1    0    0    0  501 -0.00000000000E+00  0.00000000000E+00  0.15006488926E+03  0.15006488928E+03  0.25500000000E-02 0.  1.
          2   -1    0    0  501    0  0.00000000000E+00 -0.00000000000E+00 -0.30618070201E+04  0.30618070201E+04  0.25500000000E-02 0. -1.
    8880023    1    1    2    0    0 -0.31251822765E+03 -0.16283728258E+03 -0.92808174766E+03  0.11913561851E+04  0.65864270000E+03 0.  1.
    8880022    1    1    2    0    0  0.31251822765E+03  0.16283728258E+03 -0.19836603832E+04  0.20205157243E+04  0.15294330000E+03 0.  0.
<mgrwt>
<rscale>  0 0.63257602E+03</rscale>
<asrwt>0</asrwt>
<pdfrwt beam="1">  1        2 0.47104719E+00 0.74698985E+03</pdfrwt>
<pdfrwt beam="2">  1       -2 0.23086908E-01 0.74698985E+03</pdfrwt>
<totfact> 0.27915176E+01</totfact>
</mgrwt>
</event>
<event>
 4    1  0.3057048E-007  0.7500303E+03  0.7818608E-02  0.9831637E-01
          2   -1    0    0  501    0  0.00000000000E+00  0.00000000000E+00  0.13999021984E+04  0.13999021984E+04  0.25500000000E-02 0. -1.
         -2   -1    0    0    0  501 -0.00000000000E+00 -0.00000000000E+00 -0.37919295145E+03  0.37919295146E+03  0.25500000000E-02 0.  1.
    8880023    1    1    2    0    0 -0.10832562423E+03  0.34205375601E+03  0.72168136130E+02  0.75349429925E+03  0.65864270000E+03 0.  0.
    8880022    1    1    2    0    0  0.10832562423E+03 -0.34205375601E+03  0.94854111086E+03  0.10256008507E+04  0.15294330000E+03 0.  0.
<mgrwt>
<rscale>  0 0.63691993E+03</rscale>
<asrwt>0</asrwt>
<pdfrwt beam="1">  1        2 0.21536957E+00 0.75003028E+03</pdfrwt>
<pdfrwt beam="2">  1       -2 0.58337378E-01 0.75003028E+03</pdfrwt>
<totfact> 0.40606744E+01</totfact>
</mgrwt>
</event>
<event>
 4    1  0.3057048E-007  0.1704467E+04  0.7818608E-02  0.8777308E-01
         -2   -1    0    0    0  501 -0.00000000000E+00  0.00000000000E+00  0.79142998086E+03  0.79142998087E+03  0.25500000000E-02 0.  1.
          2   -1    0    0  501    0  0.00000000000E+00 -0.00000000000E+00 -0.50049034294E+04  0.50049034294E+04  0.25500000000E-02 0. -1.
    8880023    1    1    2    0    0  0.27161984835E+03 -0.15484253680E+04 -0.37982735503E+04  0.41631827526E+04  0.65864270000E+03 0. -1.
    8880022    1    1    2    0    0 -0.27161984835E+03  0.15484253680E+04 -0.41519989829E+03  0.16331506577E+04  0.15294330000E+03 0.  0.
<mgrwt>
<rscale>  0 0.16723253E+04</rscale>
<asrwt>0</asrwt>
<pdfrwt beam="1">  1        2 0.76998512E+00 0.17044673E+04</pdfrwt>
<pdfrwt beam="2">  1       -2 0.12175846E+00 0.17044673E+04</pdfrwt>
<totfact> 0.16629930E-02</totfact>
</mgrwt>
</event>
<event>
 4    1  0.3057048E-007  0.7491402E+03  0.7818608E-02  0.9834080E-01
          2   -1    0    0  501    0  0.00000000000E+00  0.00000000000E+00  0.86090581817E+03  0.86090581817E+03  0.25500000000E-02 0. -1.
         -2   -1    0    0    0  501 -0.00000000000E+00 -0.00000000000E+00 -0.10704926723E+04  0.10704926723E+04  0.25500000000E-02 0.  1.
    8880023    1    1    2    0    0 -0.23516619146E+03 -0.26851012510E+03 -0.88058789117E+03  0.11561341035E+04  0.65864270000E+03 0.  1.
    8880022    1    1    2    0    0  0.23516619146E+03  0.26851012510E+03  0.67100103709E+03  0.77526438695E+03  0.15294330000E+03 0.  0.
<mgrwt>
<rscale>  0 0.63565254E+03</rscale>
<asrwt>0</asrwt>
<pdfrwt beam="1">  1        2 0.13244705E+00 0.74914019E+03</pdfrwt>
<pdfrwt beam="2">  1       -2 0.16469118E+00 0.74914019E+03</pdfrwt>
<totfact> 0.73898368E+00</totfact>
</mgrwt>
</event>
<event>
 4    1  0.3057048E-007  0.7811347E+03  0.7818608E-02  0.9753178E-01
          2   -1    0    0  501    0  0.00000000000E+00  0.00000000000E+00  0.15929106701E+04  0.15929106701E+04  0.25500000000E-02 0. -1.
         -2   -1    0    0    0  501 -0.00000000000E+00 -0.00000000000E+00 -0.25522881385E+03  0.25522881386E+03  0.25500000000E-02 0.  1.
    8880023    1    1    2    0    0  0.41559246917E+03 -0.60365895593E+02  0.59735418266E+03  0.98336329379E+03  0.65864270000E+03 0.  1.
    8880022    1    1    2    0    0 -0.41559246917E+03  0.60365895593E+02  0.74032767360E+03  0.86477619018E+03  0.15294330000E+03 0. -1.
<mgrwt>
<rscale>  0 0.67936949E+03</rscale>
<asrwt>0</asrwt>
<pdfrwt beam="1">  1        2 0.24506318E+00 0.78113465E+03</pdfrwt>
<pdfrwt beam="2">  1       -2 0.39265971E-01 0.78113465E+03</pdfrwt>
<totfact> 0.70280504E+01</totfact>
</mgrwt>
</event>
<event>
 4    1  0.3057048E-007  0.6655309E+03  0.7818608E-02  0.1019092E+00
         -2   -1    0    0    0  501 -0.00000000000E+00  0.00000000000E+00  0.11721746461E+03  0.11721746464E+03  0.25500000000E-02 0.  1.
          2   -1    0    0  501    0  0.00000000000E+00 -0.00000000000E+00 -0.16603182187E+04  0.16603182187E+04  0.25500000000E-02 0. -1.
    8880023    1    1    2    0    0  0.95159677354E+02  0.81088672616E+01 -0.96711464349E+03  0.11739855441E+04  0.65864270000E+03 0.  1.
    8880022    1    1    2    0    0 -0.95159677354E+02 -0.81088672616E+01 -0.57598611062E+03  0.60355013923E+03  0.15294330000E+03 0.  0.
<mgrwt>
<rscale>  0 0.48015659E+03</rscale>
<asrwt>0</asrwt>
<pdfrwt beam="1">  1        2 0.25543355E+00 0.66553086E+03</pdfrwt>
<pdfrwt beam="2">  1       -2 0.18033457E-01 0.66553086E+03</pdfrwt>
<totfact> 0.26982823E+02</totfact>
</mgrwt>
</event>
<event>
 4    1  0.3057048E-007  0.7094951E+03  0.7818608E-02  0.9959881E-01
         -2   -1    0    0    0  501 -0.00000000000E+00  0.00000000000E+00  0.69530982831E+03  0.69530982831E+03  0.25500000000E-02 0.  1.
          2   -1    0    0  501    0  0.00000000000E+00 -0.00000000000E+00 -0.11760558333E+04  0.11760558333E+04  0.25500000000E-02 0. -1.
    8880023    1    1    2    0    0 -0.22613474017E+03 -0.13577990350E+03  0.48447845282E+03  0.85912902432E+03  0.65864270000E+03 0.  1.
    8880022    1    1    2    0    0  0.22613474017E+03  0.13577990350E+03 -0.96522445785E+03  0.10122366373E+04  0.15294330000E+03 0.  0.
<mgrwt>
<rscale>  0 0.57444949E+03</rscale>
<asrwt>0</asrwt>
<pdfrwt beam="1">  1        2 0.18093167E+00 0.70949511E+03</pdfrwt>
<pdfrwt beam="2">  1       -2 0.10697074E+00 0.70949511E+03</pdfrwt>
<totfact> 0.14094050E+01</totfact>
</mgrwt>
</event>
<event>
 4    1  0.3057048E-007  0.8078028E+03  0.7818608E-02  0.9694172E-01
         -2   -1    0    0    0  501 -0.00000000000E+00  0.00000000000E+00  0.44845367877E+03  0.44845367877E+03  0.25500000000E-02 0.  1.
          2   -1    0    0  501    0  0.00000000000E+00 -0.00000000000E+00 -0.10688446286E+04  0.10688446286E+04  0.25500000000E-02 0. -1.
    8880023    1    1    2    0    0 -0.22997385141E+03 -0.40724340161E+03 -0.12206541680E+03  0.81697327541E+03  0.65864270000E+03 0.  1.
    8880022    1    1    2    0    0  0.22997385141E+03  0.40724340161E+03 -0.49832553299E+03  0.70032503192E+03  0.15294330000E+03 0. -1.
<mgrwt>
<rscale>  0 0.71364853E+03</rscale>
<asrwt>0</asrwt>
<pdfrwt beam="1">  1        2 0.16443763E+00 0.80780280E+03</pdfrwt>
<pdfrwt beam="2">  1       -2 0.68992874E-01 0.80780280E+03</pdfrwt>
<totfact> 0.44198191E+01</totfact>
</mgrwt>
</event>
<event>
 4    1  0.3057048E-007  0.9566223E+03  0.7818608E-02  0.9440649E-01
         -2   -1    0    0    0  501 -0.00000000000E+00  0.00000000000E+00  0.72090599754E+03  0.72090599755E+03  0.25500000000E-02 0.  1.
          2   -1    0    0  501    0  0.00000000000E+00 -0.00000000000E+00 -0.14702418080E+04  0.14702418080E+04  0.25500000000E-02 0. -1.
    8880023    1    1    2    0    0 -0.63103095353E+03 -0.28829837232E+03  0.22749046862E+03  0.98329961628E+03  0.65864270000E+03 0.  1.
    8880022    1    1    2    0    0  0.63103095353E+03  0.28829837232E+03 -0.97682627904E+03  0.12078481892E+04  0.15294330000E+03 0.  0.
<mgrwt>
<rscale>  0 0.88804580E+03</rscale>
<asrwt>0</asrwt>
<pdfrwt beam="1">  1        2 0.22619105E+00 0.95662230E+03</pdfrwt>
<pdfrwt beam="2">  1       -2 0.11090862E+00 0.95662230E+03</pdfrwt>
<totfact> 0.84902321E+00</totfact>
</mgrwt>
</event>
<event>
 4    1  0.3057048E-007  0.6691793E+03  0.7818608E-02  0.1016258E+00
          2   -1    0    0  501    0  0.00000000000E+00  0.00000000000E+00  0.55704419999E+03  0.55704419999E+03  0.25500000000E-02 0. -1.
         -2   -1    0    0    0  501 -0.00000000000E+00 -0.00000000000E+00 -0.50894352812E+03  0.50894352812E+03  0.25500000000E-02 0.  1.
    8880023    1    1    2    0    0  0.10821793656E+03  0.47744794171E+02 -0.24689866830E+03  0.71327403278E+03  0.65864270000E+03 0.  1.
    8880022    1    1    2    0    0 -0.10821793656E+03 -0.47744794171E+02  0.29499934017E+03  0.35271369534E+03  0.15294330000E+03 0.  0.
<mgrwt>
<rscale>  0 0.49061426E+03</rscale>
<asrwt>0</asrwt>
<pdfrwt beam="1">  1        2 0.85699108E-01 0.66917927E+03</pdfrwt>
<pdfrwt beam="2">  1       -2 0.78299004E-01 0.66917927E+03</pdfrwt>
<totfact> 0.79980203E+01</totfact>
</mgrwt>
</event>
<event>
 4    1  0.3057048E-007  0.7815098E+03  0.7818608E-02  0.9752302E-01
         -2   -1    0    0    0  501 -0.00000000000E+00  0.00000000000E+00  0.36250444246E+03  0.36250444247E+03  0.25500000000E-02 0.  1.
          2   -1    0    0  501    0  0.00000000000E+00 -0.00000000000E+00 -0.15882155763E+04  0.15882155763E+04  0.25500000000E-02 0. -1.
    8880023    1    1    2    0    0 -0.37800300314E+03 -0.18455666158E+03 -0.16401987389E+03  0.79853625904E+03  0.65864270000E+03 0.  1.
    8880022    1    1    2    0    0  0.37800300314E+03  0.18455666158E+03 -0.10616912599E+04  0.11521837597E+04  0.15294330000E+03 0.  0.
<mgrwt>
<rscale>  0 0.67986323E+03</rscale>
<asrwt>0</asrwt>
<pdfrwt beam="1">  1        2 0.24434085E+00 0.78150985E+03</pdfrwt>
<pdfrwt beam="2">  1       -2 0.55769915E-01 0.78150985E+03</pdfrwt>
<totfact> 0.34905705E+01</totfact>
</mgrwt>
</event>
<event>
 4    1  0.3057048E-007  0.9158814E+03  0.7818608E-02  0.9501003E-01
          2   -1    0    0  501    0  0.00000000000E+00  0.00000000000E+00  0.16557684073E+04  0.16557684073E+04  0.25500000000E-02 0. -1.
         -2   -1    0    0    0  501 -0.00000000000E+00 -0.00000000000E+00 -0.83178195144E+03  0.83178195144E+03  0.25500000000E-02 0.  1.
    8880023    1    1    2    0    0 -0.53469355551E+03  0.34515407256E+03 -0.47592157992E+03  0.10321531323E+04  0.65864270000E+03 0.  1.
    8880022    1    1    2    0    0  0.53469355551E+03 -0.34515407256E+03  0.12999080358E+04  0.14553972264E+04  0.15294330000E+03 0.  0.
<mgrwt>
<rscale>  0 0.84209904E+03</rscale>
<asrwt>0</asrwt>
<pdfrwt beam="1">  1        2 0.25473360E+00 0.91588140E+03</pdfrwt>
<pdfrwt beam="2">  1       -2 0.12796645E+00 0.91588140E+03</pdfrwt>
<totfact> 0.47145043E+00</totfact>
</mgrwt>
</event>
<event>
 4    1  0.3057048E-007  0.7361168E+03  0.7818608E-02  0.9871406E-01
         -2   -1    0    0    0  501 -0.00000000000E+00  0.00000000000E+00  0.63026207289E+03  0.63026207289E+03  0.25500000000E-02 0.  1.
          2   -1    0    0  501    0  0.00000000000E+00 -0.00000000000E+00 -0.68809846217E+03  0.68809846217E+03  0.25500000000E-02 0. -1.
    8880023    1    1    2    0    0 -0.17113041704E+03  0.28066357930E+03  0.31285566517E+03  0.79984157049E+03  0.65864270000E+03 0.  0.
    8880022    1    1    2    0    0  0.17113041704E+03 -0.28066357930E+03 -0.37069205445E+03  0.51851896458E+03  0.15294330000E+03 0.  0.
<mgrwt>
<rscale>  0 0.61667283E+03</rscale>
<asrwt>0</asrwt>
<pdfrwt beam="1">  1        2 0.10586130E+00 0.73611675E+03</pdfrwt>
<pdfrwt beam="2">  1       -2 0.96963395E-01 0.73611675E+03</pdfrwt>
<totfact> 0.37726687E+01</totfact>
</mgrwt>
</event>
<event>
 4    1  0.3057048E-007  0.7358760E+03  0.7818608E-02  0.9872127E-01
         -2   -1    0    0    0  501 -0.00000000000E+00  0.00000000000E+00  0.41144355333E+03  0.41144355333E+03  0.25500000000E-02 0.  1.
          2   -1    0    0  501    0  0.00000000000E+00 -0.00000000000E+00 -0.10148995349E+04  0.10148995349E+04  0.25500000000E-02 0. -1.
    8880023    1    1    2    0    0  0.22503501463E+03 -0.23887766966E+03 -0.15733584601E+02  0.73604419081E+03  0.65864270000E+03 0.  1.
    8880022    1    1    2    0    0 -0.22503501463E+03  0.23887766966E+03 -0.58772239696E+03  0.69029889742E+03  0.15294330000E+03 0.  0.
<mgrwt>
<rscale>  0 0.61631357E+03</rscale>
<asrwt>0</asrwt>
<pdfrwt beam="1">  1        2 0.15613839E+00 0.73587601E+03</pdfrwt>
<pdfrwt beam="2">  1       -2 0.63299008E-01 0.73587601E+03</pdfrwt>
<totfact> 0.57886649E+01</totfact>
</mgrwt>
</event>
<event>
 4    1  0.3057048E-007  0.7685151E+03  0.7818608E-02  0.9783541E-01
         -2   -1    0    0    0  501 -0.00000000000E+00  0.00000000000E+00  0.24980503484E+03  0.24980503485E+03  0.25500000000E-02 0.  1.
          2   -1    0    0  501    0  0.00000000000E+00 -0.00000000000E+00 -0.24826573588E+04  0.24826573588E+04  0.25500000000E-02 0. -1.
    8880023    1    1    2    0    0 -0.22702446707E+03  0.32444595402E+03 -0.43067019902E+03  0.88096101634E+03  0.65864270000E+03 0.  1.
    8880022    1    1    2    0    0  0.22702446707E+03 -0.32444595402E+03 -0.18021821250E+04  0.18515013773E+04  0.15294330000E+03 0.  0.
<mgrwt>
<rscale>  0 0.66253334E+03</rscale>
<asrwt>0</asrwt>
<pdfrwt beam="1">  1        2 0.38194727E+00 0.76851512E+03</pdfrwt>
<pdfrwt beam="2">  1       -2 0.38431546E-01 0.76851512E+03</pdfrwt>
<totfact> 0.23729603E+01</totfact>
</mgrwt>
</event>
<event>
 4    1  0.3057048E-007  0.9438130E+03  0.7818608E-02  0.9459072E-01
         -2   -1    0    0    0  501 -0.00000000000E+00  0.00000000000E+00  0.97675350102E+03  0.97675350103E+03  0.25500000000E-02 0.  1.
          2   -1    0    0  501    0  0.00000000000E+00 -0.00000000000E+00 -0.14684723553E+04  0.14684723553E+04  0.25500000000E-02 0. -1.
    8880023    1    1    2    0    0 -0.39836022643E+03  0.54615196099E+03  0.62422745641E+03  0.11315665946E+04  0.65864270000E+03 0.  0.
    8880022    1    1    2    0    0  0.39836022643E+03 -0.54615196099E+03 -0.11159463107E+04  0.13136592617E+04  0.15294330000E+03 0.  0.
<mgrwt>
<rscale>  0 0.87369699E+03</rscale>
<asrwt>0</asrwt>
<pdfrwt beam="1">  1        2 0.22591882E+00 0.94381303E+03</pdfrwt>
<pdfrwt beam="2">  1       -2 0.15026977E+00 0.94381303E+03</pdfrwt>
<totfact> 0.39406319E+00</totfact>
</mgrwt>
</event>
<event>
 4    1  0.3057048E-007  0.8782838E+03  0.7818608E-02  0.9561833E-01
          2   -1    0    0  501    0  0.00000000000E+00  0.00000000000E+00  0.17104934452E+04  0.17104934452E+04  0.25500000000E-02 0. -1.
         -2   -1    0    0    0  501 -0.00000000000E+00 -0.00000000000E+00 -0.45431054223E+03  0.45431054224E+03  0.25500000000E-02 0.  1.
    8880023    1    1    2    0    0 -0.52703269658E+03 -0.24455815782E+03  0.12928040972E+03  0.88774759162E+03  0.65864270000E+03 0.  1.
    8880022    1    1    2    0    0  0.52703269658E+03  0.24455815782E+03  0.11269024933E+04  0.12770563958E+04  0.15294330000E+03 0.  0.
<mgrwt>
<rscale>  0 0.79874674E+03</rscale>
<asrwt>0</asrwt>
<pdfrwt beam="1">  1        2 0.26315284E+00 0.87828376E+03</pdfrwt>
<pdfrwt beam="2">  1       -2 0.69893930E-01 0.87828376E+03</pdfrwt>
<totfact> 0.18268796E+01</totfact>
</mgrwt>
</event>
<event>
 4    1  0.3057048E-007  0.7413570E+03  0.7818608E-02  0.9856012E-01
         -2   -1    0    0    0  501 -0.00000000000E+00  0.00000000000E+00  0.47576428527E+03  0.47576428528E+03  0.25500000000E-02 0.  1.
          2   -1    0    0  501    0  0.00000000000E+00 -0.00000000000E+00 -0.14342033104E+04  0.14342033104E+04  0.25500000000E-02 0. -1.
    8880023    1    1    2    0    0  0.33406566750E+03  0.64808507221E+02  0.13596203609E+03  0.75372136386E+03  0.65864270000E+03 0.  1.
    8880022    1    1    2    0    0 -0.33406566750E+03 -0.64808507221E+02 -0.10944010612E+04  0.11562462318E+04  0.15294330000E+03 0.  0.
<mgrwt>
<rscale>  0 0.62441338E+03</rscale>
<asrwt>0</asrwt>
<pdfrwt beam="1">  1        2 0.22064666E+00 0.74135701E+03</pdfrwt>
<pdfrwt beam="2">  1       -2 0.73194506E-01 0.74135701E+03</pdfrwt>
<totfact> 0.23864627E+01</totfact>
</mgrwt>
</event>
<event>
 4    1  0.3057048E-007  0.6617745E+03  0.7818608E-02  0.1022408E+00
          2   -1    0    0  501    0  0.00000000000E+00  0.00000000000E+00  0.14243682510E+04  0.14243682510E+04  0.25500000000E-02 0. -1.
         -2   -1    0    0    0  501 -0.00000000000E+00 -0.00000000000E+00 -0.20304374492E+03  0.20304374494E+03  0.25500000000E-02 0.  1.
    8880023    1    1    2    0    0 -0.51157330572E+02  0.38964447076E+02  0.36619522650E+03  0.75633620222E+03  0.65864270000E+03 0.  1.
    8880022    1    1    2    0    0  0.51157330572E+02 -0.38964447076E+02  0.85512927953E+03  0.87107579368E+03  0.15294330000E+03 0.  0.
<mgrwt>
<rscale>  0 0.46827643E+03</rscale>
<asrwt>0</asrwt>
<pdfrwt beam="1">  1        2 0.21913357E+00 0.66177451E+03</pdfrwt>
<pdfrwt beam="2">  1       -2 0.31237500E-01 0.66177451E+03</pdfrwt>
<totfact> 0.13631896E+02</totfact>
</mgrwt>
</event>
<event>
 4    1  0.3057048E-007  0.7409374E+03  0.7818608E-02  0.9857225E-01
         -2   -1    0    0    0  501 -0.00000000000E+00  0.00000000000E+00  0.37447727235E+03  0.37447727236E+03  0.25500000000E-02 0.  1.
          2   -1    0    0  501    0  0.00000000000E+00 -0.00000000000E+00 -0.10461750468E+04  0.10461750468E+04  0.25500000000E-02 0. -1.
    8880023    1    1    2    0    0 -0.33791875697E+03  0.31446899908E+02 -0.11329923178E+03  0.74954980889E+03  0.65864270000E+03 0.  1.
    8880022    1    1    2    0    0  0.33791875697E+03 -0.31446899908E+02 -0.55839854265E+03  0.67110251025E+03  0.15294330000E+03 0.  1.
<mgrwt>
<rscale>  0 0.62379895E+03</rscale>
<asrwt>0</asrwt>
<pdfrwt beam="1">  1        2 0.16095001E+00 0.74093738E+03</pdfrwt>
<pdfrwt beam="2">  1       -2 0.57611889E-01 0.74093738E+03</pdfrwt>
<totfact> 0.67477924E+01</totfact>
</mgrwt>
</event>
<event>
 4    1  0.3057048E-007  0.7545251E+03  0.7818608E-02  0.9819493E-01
          2   -1    0    0  501    0  0.00000000000E+00  0.00000000000E+00  0.20518921686E+04  0.20518921686E+04  0.25500000000E-02 0. -1.
         -2   -1    0    0    0  501 -0.00000000000E+00 -0.00000000000E+00 -0.43309817188E+03  0.43309817189E+03  0.25500000000E-02 0.  1.
    8880023    1    1    2    0    0 -0.16572248071E+03 -0.32868512074E+03 -0.62481992053E+02  0.75710769036E+03  0.65864270000E+03 0.  1.
    8880022    1    1    2    0    0  0.16572248071E+03  0.32868512074E+03  0.16812759888E+04  0.17278826502E+04  0.15294330000E+03 0.  0.
<mgrwt>
<rscale>  0 0.64326830E+03</rscale>
<asrwt>0</asrwt>
<pdfrwt beam="1">  1        2 0.31567572E+00 0.75452505E+03</pdfrwt>
<pdfrwt beam="2">  1       -2 0.66630487E-01 0.75452505E+03</pdfrwt>
<totfact> 0.13395415E+01</totfact>
</mgrwt>
</event>
<event>
 4    1  0.3057048E-007  0.7239125E+03  0.7818608E-02  0.9909563E-01
          2   -1    0    0  501    0  0.00000000000E+00  0.00000000000E+00  0.26224506089E+04  0.26224506089E+04  0.25500000000E-02 0. -1.
         -2   -1    0    0    0  501 -0.00000000000E+00 -0.00000000000E+00 -0.25446178538E+03  0.25446178539E+03  0.25500000000E-02 0.  1.
    8880023    1    1    2    0    0 -0.24185620521E+03 -0.17817053994E+03  0.30329241361E+03  0.78487939183E+03  0.65864270000E+03 0.  0.
    8880022    1    1    2    0    0  0.24185620521E+03  0.17817053994E+03  0.20646964099E+04  0.20920330024E+04  0.15294330000E+03 0.  0.
<mgrwt>
<rscale>  0 0.59800056E+03</rscale>
<asrwt>0</asrwt>
<pdfrwt beam="1">  1        2 0.40345397E+00 0.72391254E+03</pdfrwt>
<pdfrwt beam="2">  1       -2 0.39147965E-01 0.72391254E+03</pdfrwt>
<totfact> 0.19183073E+01</totfact>
</mgrwt>
</event>
<event>
 4    1  0.3057048E-007  0.7330883E+03  0.7818608E-02  0.9880558E-01
         -2   -1    0    0    0  501 -0.00000000000E+00  0.00000000000E+00  0.19450067612E+03  0.19450067613E+03  0.25500000000E-02 0.  1.
          2   -1    0    0  501    0  0.00000000000E+00 -0.00000000000E+00 -0.18465171207E+04  0.18465171207E+04  0.25500000000E-02 0. -1.
    8880023    1    1    2    0    0  0.75068292352E+02 -0.31300629729E+03 -0.65811031792E+03  0.98515358573E+03  0.65864270000E+03 0.  0.
    8880022    1    1    2    0    0 -0.75068292352E+02  0.31300629729E+03 -0.99390612663E+03  0.10558642111E+04  0.15294330000E+03 0.  0.
<mgrwt>
<rscale>  0 0.61212850E+03</rscale>
<asrwt>0</asrwt>
<pdfrwt beam="1">  1        2 0.28407954E+00 0.73308826E+03</pdfrwt>
<pdfrwt beam="2">  1       -2 0.29923182E-01 0.73308826E+03</pdfrwt>
<totfact> 0.85928721E+01</totfact>
</mgrwt>
</event>
<event>
 4    1  0.3057048E-007  0.7767758E+03  0.7818608E-02  0.9763466E-01
          2   -1    0    0  501    0  0.00000000000E+00  0.00000000000E+00  0.40508028866E+03  0.40508028867E+03  0.25500000000E-02 0. -1.
         -2   -1    0    0    0  501 -0.00000000000E+00 -0.00000000000E+00 -0.10334607845E+04  0.10334607845E+04  0.25500000000E-02 0.  1.
    8880023    1    1    2    0    0  0.34100860598E+03  0.23083248756E+03 -0.15378079125E+03  0.79185178202E+03  0.65864270000E+03 0. -1.
    8880022    1    1    2    0    0 -0.34100860598E+03 -0.23083248756E+03 -0.47459970455E+03  0.64668929111E+03  0.15294330000E+03 0.  0.
<mgrwt>
<rscale>  0 0.67360578E+03</rscale>
<asrwt>0</asrwt>
<pdfrwt beam="1">  1        2 0.62320045E-01 0.77677584E+03</pdfrwt>
<pdfrwt beam="2">  1       -2 0.15899397E+00 0.77677584E+03</pdfrwt>
<totfact> 0.20317334E+01</totfact>
</mgrwt>
</event>
<event>
 4    1  0.3057048E-007  0.7828234E+03  0.7818608E-02  0.9749246E-01
         -2   -1    0    0    0  501 -0.00000000000E+00  0.00000000000E+00  0.34066071482E+03  0.34066071483E+03  0.25500000000E-02 0.  1.
          2   -1    0    0  501    0  0.00000000000E+00 -0.00000000000E+00 -0.23868571144E+04  0.23868571144E+04  0.25500000000E-02 0. -1.
    8880023    1    1    2    0    0 -0.37691063867E+03 -0.19219938067E+03 -0.17386830130E+03  0.80189938517E+03  0.65864270000E+03 0.  1.
    8880022    1    1    2    0    0  0.37691063867E+03  0.19219938067E+03 -0.18723280983E+04  0.19256184441E+04  0.15294330000E+03 0.  0.
<mgrwt>
<rscale>  0 0.68158891E+03</rscale>
<asrwt>0</asrwt>
<pdfrwt beam="1">  1        2 0.36720878E+00 0.78282338E+03</pdfrwt>
<pdfrwt beam="2">  1       -2 0.52409342E-01 0.78282338E+03</pdfrwt>
<totfact> 0.14441631E+01</totfact>
</mgrwt>
</event>
<event>
 4    1  0.3057048E-007  0.1067074E+04  0.7818608E-02  0.9298632E-01
         -2   -1    0    0    0  501 -0.00000000000E+00  0.00000000000E+00  0.51486808967E+03  0.51486808968E+03  0.25500000000E-02 0.  1.
          2   -1    0    0  501    0  0.00000000000E+00 -0.00000000000E+00 -0.26737691423E+04  0.26737691423E+04  0.25500000000E-02 0. -1.
    8880023    1    1    2    0    0  0.16437646455E+03  0.82329668715E+03 -0.24751567066E+03  0.10954046150E+04  0.65864270000E+03 0.  1.
    8880022    1    1    2    0    0 -0.16437646455E+03 -0.82329668715E+03 -0.19113853819E+04  0.20932326169E+04  0.15294330000E+03 0.  0.
<mgrwt>
<rscale>  0 0.10090889E+04</rscale>
<asrwt>0</asrwt>
<pdfrwt beam="1">  1        2 0.41134909E+00 0.10670742E+04</pdfrwt>
<pdfrwt beam="2">  1       -2 0.79210477E-01 0.10670742E+04</pdfrwt>
<totfact> 0.39091592E+00</totfact>
</mgrwt>
</event>
<event>
 4    1  0.3057048E-007  0.1007318E+04  0.7818608E-02  0.9372045E-01
         -2   -1    0    0    0  501 -0.00000000000E+00  0.00000000000E+00  0.13726208038E+04  0.13726208038E+04  0.25500000000E-02 0.  1.
          2   -1    0    0  501    0  0.00000000000E+00 -0.00000000000E+00 -0.13360465763E+04  0.13360465763E+04  0.25500000000E-02 0. -1.
    8880023    1    1    2    0    0  0.67355156201E+03 -0.35666213138E+03  0.10343636263E+04  0.14438136653E+04  0.65864270000E+03 0.  1.
    8880022    1    1    2    0    0 -0.67355156201E+03  0.35666213138E+03 -0.99778939876E+03  0.12648537148E+04  0.15294330000E+03 0.  0.
<mgrwt>
<rscale>  0 0.94412386E+03</rscale>
<asrwt>0</asrwt>
<pdfrwt beam="1">  1        2 0.20554563E+00 0.10073181E+04</pdfrwt>
<pdfrwt beam="2">  1       -2 0.21117243E+00 0.10073181E+04</pdfrwt>
<totfact> 0.17594108E+00</totfact>
</mgrwt>
</event>
<event>
 4    1  0.3057048E-007  0.9331111E+03  0.7818608E-02  0.9474842E-01
         -2   -1    0    0    0  501 -0.00000000000E+00  0.00000000000E+00  0.32845163416E+03  0.32845163417E+03  0.25500000000E-02 0.  1.
          2   -1    0    0  501    0  0.00000000000E+00 -0.00000000000E+00 -0.37235566756E+04  0.37235566756E+04  0.25500000000E-02 0. -1.
    8880023    1    1    2    0    0  0.60498088682E+03  0.26624080632E+03 -0.46154314492E+03  0.10410179255E+04  0.65864270000E+03 0.  1.
    8880022    1    1    2    0    0 -0.60498088682E+03 -0.26624080632E+03 -0.29335618965E+04  0.30109903842E+04  0.15294330000E+03 0.  0.
<mgrwt>
<rscale>  0 0.86164326E+03</rscale>
<asrwt>0</asrwt>
<pdfrwt beam="1">  1        2 0.57285484E+00 0.93311106E+03</pdfrwt>
<pdfrwt beam="2">  1       -2 0.50531023E-01 0.93311106E+03</pdfrwt>
<totfact> 0.21943182E+00</totfact>
</mgrwt>
</event>
<event>
 4    1  0.3057048E-007  0.7135023E+03  0.7818608E-02  0.9945218E-01
         -2   -1    0    0    0  501 -0.00000000000E+00  0.00000000000E+00  0.45468011155E+03  0.45468011155E+03  0.25500000000E-02 0.  1.
          2   -1    0    0  501    0  0.00000000000E+00 -0.00000000000E+00 -0.10494953163E+04  0.10494953163E+04  0.25500000000E-02 0. -1.
    8880023    1    1    2    0    0  0.13485594472E+03 -0.23893348806E+03  0.11987587282E+03  0.72350243171E+03  0.65864270000E+03 0.  1.
    8880022    1    1    2    0    0 -0.13485594472E+03  0.23893348806E+03 -0.71469107760E+03  0.78067299617E+03  0.15294330000E+03 0.  0.
<mgrwt>
<rscale>  0 0.58118985E+03</rscale>
<asrwt>0</asrwt>
<pdfrwt beam="1">  1        2 0.16146082E+00 0.71350231E+03</pdfrwt>
<pdfrwt beam="2">  1       -2 0.69950786E-01 0.71350231E+03</pdfrwt>
<totfact> 0.44471025E+01</totfact>
</mgrwt>
</event>
<event>
 4    1  0.3057048E-007  0.6630257E+03  0.7818608E-02  0.1021251E+00
         -2   -1    0    0    0  501 -0.00000000000E+00  0.00000000000E+00  0.10504027127E+03  0.10504027130E+03  0.25500000000E-02 0.  1.
          2   -1    0    0  501    0  0.00000000000E+00 -0.00000000000E+00 -0.33071698337E+04  0.33071698337E+04  0.25500000000E-02 0. -1.
    8880023    1    1    2    0    0 -0.75694164242E+02  0.79510276322E+01 -0.97818872092E+03  0.11817174812E+04  0.65864270000E+03 0.  1.
    8880022    1    1    2    0    0  0.75694164242E+02 -0.79510276322E+01 -0.22239408415E+04  0.22304926238E+04  0.15294330000E+03 0.  0.
<mgrwt>
<rscale>  0 0.47238027E+03</rscale>
<asrwt>0</asrwt>
<pdfrwt beam="1">  1        2 0.50879528E+00 0.66302566E+03</pdfrwt>
<pdfrwt beam="2">  1       -2 0.16160044E-01 0.66302566E+03</pdfrwt>
<totfact> 0.36840927E+01</totfact>
</mgrwt>
</event>
<event>
 4    1  0.3057048E-007  0.6680459E+03  0.7818608E-02  0.1017104E+00
          2   -1    0    0  501    0  0.00000000000E+00  0.00000000000E+00  0.11453565198E+04  0.11453565198E+04  0.25500000000E-02 0. -1.
         -2   -1    0    0    0  501 -0.00000000000E+00 -0.00000000000E+00 -0.26885056196E+03  0.26885056197E+03  0.25500000000E-02 0.  1.
    8880023    1    1    2    0    0  0.17652404662E+02  0.11028840566E+03  0.17923208805E+03  0.69167151703E+03  0.65864270000E+03 0.  1.
    8880022    1    1    2    0    0 -0.17652404662E+02 -0.11028840566E+03  0.69727386974E+03  0.72253556470E+03  0.15294330000E+03 0.  0.
<mgrwt>
<rscale>  0 0.48746260E+03</rscale>
<asrwt>0</asrwt>
<pdfrwt beam="1">  1        2 0.17620869E+00 0.66804592E+03</pdfrwt>
<pdfrwt beam="2">  1       -2 0.41361626E-01 0.66804592E+03</pdfrwt>
<totfact> 0.11549615E+02</totfact>
</mgrwt>
</event>
<event>
 4    1  0.3057048E-007  0.8234793E+03  0.7818608E-02  0.9662155E-01
         -2   -1    0    0    0  501 -0.00000000000E+00  0.00000000000E+00  0.20142603260E+03  0.20142603261E+03  0.25500000000E-02 0.  1.
          2   -1    0    0  501    0  0.00000000000E+00 -0.00000000000E+00 -0.22555895847E+04  0.22555895847E+04  0.25500000000E-02 0. -1.
    8880023    1    1    2    0    0  0.42701899158E+03  0.24892302655E+03 -0.11354539033E+04  0.14026309797E+04  0.65864270000E+03 0.  1.
    8880022    1    1    2    0    0 -0.42701899158E+03 -0.24892302655E+03 -0.91870964877E+03  0.10543846376E+04  0.15294330000E+03 0.  0.
<mgrwt>
<rscale>  0 0.73315442E+03</rscale>
<asrwt>0</asrwt>
<pdfrwt beam="1">  1        2 0.34701377E+00 0.82347926E+03</pdfrwt>
<pdfrwt beam="2">  1       -2 0.30988622E-01 0.82347926E+03</pdfrwt>
<totfact> 0.47556867E+01</totfact>
</mgrwt>
</event>
<event>
 4    1  0.3057048E-007  0.1064477E+04  0.7818608E-02  0.9301678E-01
         -2   -1    0    0    0  501 -0.00000000000E+00  0.00000000000E+00  0.89157780759E+03  0.89157780759E+03  0.25500000000E-02 0.  1.
          2   -1    0    0  501    0  0.00000000000E+00 -0.00000000000E+00 -0.17484578497E+04  0.17484578497E+04  0.25500000000E-02 0. -1.
    8880023    1    1    2    0    0  0.62917067962E+03  0.55085792556E+03  0.38765475903E+03  0.11328665485E+04  0.65864270000E+03 0.  0.
    8880022    1    1    2    0    0 -0.62917067962E+03 -0.55085792556E+03 -0.12445348011E+04  0.15071691088E+04  0.15294330000E+03 0.  0.
<mgrwt>
<rscale>  0 0.10062855E+04</rscale>
<asrwt>0</asrwt>
<pdfrwt beam="1">  1        2 0.26899351E+00 0.10644766E+04</pdfrwt>
<pdfrwt beam="2">  1       -2 0.13716582E+00 0.10644766E+04</pdfrwt>
<totfact> 0.34473737E+00</totfact>
</mgrwt>
</event>
<event>
 4    1  0.3057048E-007  0.7123594E+03  0.7818608E-02  0.9949342E-01
         -2   -1    0    0    0  501 -0.00000000000E+00  0.00000000000E+00  0.96044069145E+02  0.96044069178E+02  0.25500000000E-02 0.  1.
          2   -1    0    0  501    0  0.00000000000E+00 -0.00000000000E+00 -0.42457765308E+04  0.42457765308E+04  0.25500000000E-02 0. -1.
    8880023    1    1    2    0    0 -0.19145524672E+03 -0.19232922033E+03 -0.13648352927E+04  0.15395555277E+04  0.65864270000E+03 0.  1.
    8880022    1    1    2    0    0  0.19145524672E+03  0.19232922033E+03 -0.27848971690E+04  0.28022650723E+04  0.15294330000E+03 0.  0.
<mgrwt>
<rscale>  0 0.57928420E+03</rscale>
<asrwt>0</asrwt>
<pdfrwt beam="1">  1        2 0.65319624E+00 0.71235935E+03</pdfrwt>
<pdfrwt beam="2">  1       -2 0.14776014E-01 0.71235935E+03</pdfrwt>
<totfact> 0.85676107E+00</totfact>
</mgrwt>
</event>
<event>
 4    1  0.3057048E-007  0.7295871E+03  0.7818608E-02  0.9891389E-01
         -2   -1    0    0    0  501 -0.00000000000E+00  0.00000000000E+00  0.45485506759E+03  0.45485506759E+03  0.25500000000E-02 0.  1.
          2   -1    0    0  501    0  0.00000000000E+00 -0.00000000000E+00 -0.12039658377E+04  0.12039658377E+04  0.25500000000E-02 0. -1.
    8880023    1    1    2    0    0 -0.29727674529E+03  0.10056636704E+03  0.10407464850E+03  0.73697272418E+03  0.65864270000E+03 0.  0.
    8880022    1    1    2    0    0  0.29727674529E+03 -0.10056636704E+03 -0.85318541857E+03  0.92184818107E+03  0.15294330000E+03 0. -1.
<mgrwt>
<rscale>  0 0.60680454E+03</rscale>
<asrwt>0</asrwt>
<pdfrwt beam="1">  1        2 0.18522551E+00 0.72958705E+03</pdfrwt>
<pdfrwt beam="2">  1       -2 0.69977703E-01 0.72958705E+03</pdfrwt>
<totfact> 0.35763549E+01</totfact>
</mgrwt>
</event>
<event>
 4    1  0.3057048E-007  0.7620639E+03  0.7818608E-02  0.9799793E-01
         -2   -1    0    0    0  501 -0.00000000000E+00  0.00000000000E+00  0.73865269090E+03  0.73865269091E+03  0.25500000000E-02 0.  1.
          2   -1    0    0  501    0  0.00000000000E+00 -0.00000000000E+00 -0.22176503691E+04  0.22176503691E+04  0.25500000000E-02 0. -1.
    8880023    1    1    2    0    0  0.30113750664E+03 -0.23716517328E+03  0.51518195947E+03  0.91986617230E+03  0.65864270000E+03 0.  1.
    8880022    1    1    2    0    0 -0.30113750664E+03  0.23716517328E+03 -0.19941796376E+04  0.20364368877E+04  0.15294330000E+03 0.  0.
<mgrwt>
<rscale>  0 0.65373632E+03</rscale>
<asrwt>0</asrwt>
<pdfrwt beam="1">  1        2 0.34117698E+00 0.76206386E+03</pdfrwt>
<pdfrwt beam="2">  1       -2 0.11363888E+00 0.76206386E+03</pdfrwt>
<totfact> 0.31860354E+00</totfact>
</mgrwt>
</event>
<event>
 4    1  0.3057048E-007  0.9235938E+03  0.7818608E-02  0.9489171E-01
         -2   -1    0    0    0  501 -0.00000000000E+00  0.00000000000E+00  0.19265279957E+03  0.19265279959E+03  0.25500000000E-02 0.  1.
          2   -1    0    0  501    0  0.00000000000E+00 -0.00000000000E+00 -0.36347744361E+04  0.36347744361E+04  0.25500000000E-02 0. -1.
    8880023    1    1    2    0    0  0.51161393663E+03 -0.39682037229E+03 -0.13792248847E+04  0.16599056349E+04  0.65864270000E+03 0.  1.
    8880022    1    1    2    0    0 -0.51161393663E+03  0.39682037229E+03 -0.20628967519E+04  0.21675216008E+04  0.15294330000E+03 0.  0.
<mgrwt>
<rscale>  0 0.85086961E+03</rscale>
<asrwt>0</asrwt>
<pdfrwt beam="1">  1        2 0.55919602E+00 0.92359376E+03</pdfrwt>
<pdfrwt beam="2">  1       -2 0.29638895E-01 0.92359376E+03</pdfrwt>
<totfact> 0.71960695E+00</totfact>
</mgrwt>
</event>
<event>
 4    1  0.3057048E-007  0.7828396E+03  0.7818608E-02  0.9749208E-01
          2   -1    0    0  501    0  0.00000000000E+00  0.00000000000E+00  0.20417739674E+04  0.20417739674E+04  0.25500000000E-02 0. -1.
         -2   -1    0    0    0  501 -0.00000000000E+00 -0.00000000000E+00 -0.29647460101E+03  0.29647460102E+03  0.25500000000E-02 0.  1.
    8880023    1    1    2    0    0  0.39637188821E+03  0.14804385351E+03  0.32364860548E+03  0.84710464668E+03  0.65864270000E+03 0.  0.
    8880022    1    1    2    0    0 -0.39637188821E+03 -0.14804385351E+03  0.14216507609E+04  0.14911439217E+04  0.15294330000E+03 0.  0.
<mgrwt>
<rscale>  0 0.68161021E+03</rscale>
<asrwt>0</asrwt>
<pdfrwt beam="1">  1        2 0.31411907E+00 0.78283961E+03</pdfrwt>
<pdfrwt beam="2">  1       -2 0.45611478E-01 0.78283961E+03</pdfrwt>
<totfact> 0.29703865E+01</totfact>
</mgrwt>
</event>
<event>
 4    1  0.3057048E-007  0.7052225E+03  0.7818608E-02  0.9976189E-01
         -2   -1    0    0    0  501 -0.00000000000E+00  0.00000000000E+00  0.19504594007E+03  0.19504594008E+03  0.25500000000E-02 0.  1.
          2   -1    0    0  501    0  0.00000000000E+00 -0.00000000000E+00 -0.18647827022E+04  0.18647827022E+04  0.25500000000E-02 0. -1.
    8880023    1    1    2    0    0  0.25192997645E+03  0.77377216031E+01 -0.52891476262E+03  0.88152686729E+03  0.65864270000E+03 0.  1.
    8880022    1    1    2    0    0 -0.25192997645E+03 -0.77377216031E+01 -0.11408219995E+04  0.11783017750E+04  0.15294330000E+03 0.  0.
<mgrwt>
<rscale>  0 0.56706748E+03</rscale>
<asrwt>0</asrwt>
<pdfrwt beam="1">  1        2 0.28688963E+00 0.70522251E+03</pdfrwt>
<pdfrwt beam="2">  1       -2 0.30007069E-01 0.70522251E+03</pdfrwt>
<totfact> 0.83803981E+01</totfact>
</mgrwt>
</event>
<event>
 4    1  0.5537740E-007  0.6735550E+03  0.7818608E-02  0.1013233E+00
          2   -1    0    0  501    0  0.00000000000E+00  0.00000000000E+00  0.28276050078E+04  0.28276050078E+04  0.25500000000E-02 0. -1.
         -2   -1    0    0    0  501 -0.00000000000E+00 -0.00000000000E+00 -0.10766378680E+04  0.10766378680E+04  0.25500000000E-02 0.  1.
    8880023    1    1    2    0    0 -0.11882617027E+03  0.75805548111E+02 -0.96692887355E+03  0.11784005230E+04  0.65864270000E+03 0.  1.
    8880022    1    1    2    0    0  0.11882617027E+03 -0.75805548111E+02  0.27178960133E+04  0.27258423528E+04  0.15294330000E+03 0.  0.
<mgrwt>
<rscale>  0 0.50209725E+03</rscale>
<asrwt>0</asrwt>
<pdfrwt beam="1">  1        2 0.43501615E+00 0.67355501E+03</pdfrwt>
<pdfrwt beam="2">  1       -2 0.16563660E+00 0.67355501E+03</pdfrwt>
<totfact> 0.55322011E-01</totfact>
</mgrwt>
</event>
<event>
 4    1  0.3057048E-007  0.7383814E+03  0.7818608E-02  0.9864687E-01
          2   -1    0    0  501    0  0.00000000000E+00  0.00000000000E+00  0.33100145939E+04  0.33100145939E+04  0.25500000000E-02 0. -1.
         -2   -1    0    0    0  501 -0.00000000000E+00 -0.00000000000E+00 -0.12973952698E+03  0.12973952700E+03  0.25500000000E-02 0.  1.
    8880023    1    1    2    0    0  0.27127825833E+03  0.19443492172E+03  0.10840986115E+04  0.13116694851E+04  0.65864270000E+03 0.  0.
    8880022    1    1    2    0    0 -0.27127825833E+03 -0.19443492172E+03  0.20961764554E+04  0.21280846359E+04  0.15294330000E+03 0.  0.
<mgrwt>
<rscale>  0 0.62003634E+03</rscale>
<asrwt>0</asrwt>
<pdfrwt beam="1">  1        2 0.50923303E+00 0.73838136E+03</pdfrwt>
<pdfrwt beam="2">  1       -2 0.19959926E-01 0.73838136E+03</pdfrwt>
<totfact> 0.25150174E+01</totfact>
</mgrwt>
</event>
<event>
 4    1  0.3057048E-007  0.1077393E+04  0.7818608E-02  0.9286653E-01
         -2   -1    0    0    0  501 -0.00000000000E+00  0.00000000000E+00  0.82679096486E+03  0.82679096486E+03  0.25500000000E-02 0.  1.
          2   -1    0    0  501    0  0.00000000000E+00 -0.00000000000E+00 -0.15084978960E+04  0.15084978960E+04  0.25500000000E-02 0. -1.
    8880023    1    1    2    0    0 -0.36589694644E+03 -0.77012071342E+03  0.20385307131E+03  0.10965093568E+04  0.65864270000E+03 0.  0.
    8880022    1    1    2    0    0  0.36589694644E+03  0.77012071342E+03 -0.88556000244E+03  0.12387795040E+04  0.15294330000E+03 0.  0.
<mgrwt>
<rscale>  0 0.10202094E+04</rscale>
<asrwt>0</asrwt>
<pdfrwt beam="1">  1        2 0.23207660E+00 0.10773935E+04</pdfrwt>
<pdfrwt beam="2">  1       -2 0.12719861E+00 0.10773935E+04</pdfrwt>
<totfact> 0.56782060E+00</totfact>
</mgrwt>
</event>
<event>
 4    1  0.3057048E-007  0.7926108E+03  0.7818608E-02  0.9727007E-01
          2   -1    0    0  501    0  0.00000000000E+00  0.00000000000E+00  0.95987712359E+03  0.95987712359E+03  0.25500000000E-02 0. -1.
         -2   -1    0    0    0  501 -0.00000000000E+00 -0.00000000000E+00 -0.54437650106E+03  0.54437650107E+03  0.25500000000E-02 0.  1.
    8880023    1    1    2    0    0  0.21664535007E+02  0.44040017417E+03  0.60846481956E+03  0.99923035803E+03  0.65864270000E+03 0. -1.
    8880022    1    1    2    0    0 -0.21664535007E+02 -0.44040017417E+03 -0.19296419704E+03  0.50502326663E+03  0.15294330000E+03 0.  1.
<mgrwt>
<rscale>  0 0.69431339E+03</rscale>
<asrwt>0</asrwt>
<pdfrwt beam="1">  1        2 0.14767340E+00 0.79261079E+03</pdfrwt>
<pdfrwt beam="2">  1       -2 0.83750232E-01 0.79261079E+03</pdfrwt>
<totfact> 0.33721569E+01</totfact>
</mgrwt>
</event>
<event>
 4    1  0.3057048E-007  0.8987774E+03  0.7818608E-02  0.9527997E-01
          2   -1    0    0  501    0  0.00000000000E+00  0.00000000000E+00  0.13282828271E+04  0.13282828271E+04  0.25500000000E-02 0. -1.
         -2   -1    0    0    0  501 -0.00000000000E+00 -0.00000000000E+00 -0.58575744478E+03  0.58575744479E+03  0.25500000000E-02 0.  1.
    8880023    1    1    2    0    0  0.58268740473E+03 -0.18565006336E+03 -0.51446519618E+02  0.90024858139E+03  0.65864270000E+03 0.  1.
    8880022    1    1    2    0    0 -0.58268740473E+03  0.18565006336E+03  0.79397190195E+03  0.10137916905E+04  0.15294330000E+03 0. -1.
<mgrwt>
<rscale>  0 0.82250804E+03</rscale>
<asrwt>0</asrwt>
<pdfrwt beam="1">  1        2 0.20435120E+00 0.89877737E+03</pdfrwt>
<pdfrwt beam="2">  1       -2 0.90116531E-01 0.89877737E+03</pdfrwt>
<totfact> 0.16851455E+01</totfact>
</mgrwt>
</event>
<event>
 4    1  0.3057048E-007  0.8415620E+03  0.7818608E-02  0.9627242E-01
         -2   -1    0    0    0  501 -0.00000000000E+00  0.00000000000E+00  0.54522798456E+03  0.54522798456E+03  0.25500000000E-02 0.  1.
          2   -1    0    0  501    0  0.00000000000E+00 -0.00000000000E+00 -0.14284616925E+04  0.14284616925E+04  0.25500000000E-02 0. -1.
    8880023    1    1    2    0    0 -0.31973804205E+03  0.41495048140E+03  0.10169318975E+03  0.84768392025E+03  0.65864270000E+03 0.  1.
    8880022    1    1    2    0    0  0.31973804205E+03 -0.41495048140E+03 -0.98492689765E+03  0.11260057568E+04  0.15294330000E+03 0.  0.
<mgrwt>
<rscale>  0 0.75519066E+03</rscale>
<asrwt>0</asrwt>
<pdfrwt beam="1">  1        2 0.21976334E+00 0.84156195E+03</pdfrwt>
<pdfrwt beam="2">  1       -2 0.83881229E-01 0.84156195E+03</pdfrwt>
<totfact> 0.17518489E+01</totfact>
</mgrwt>
</event>
<event>
 4    1  0.3057048E-007  0.1276294E+04  0.7818608E-02  0.9086306E-01
          2   -1    0    0  501    0  0.00000000000E+00  0.00000000000E+00  0.21629553461E+04  0.21629553461E+04  0.25500000000E-02 0. -1.
         -2   -1    0    0    0  501 -0.00000000000E+00 -0.00000000000E+00 -0.69380112542E+03  0.69380112542E+03  0.25500000000E-02 0.  1.
    8880023    1    1    2    0    0  0.38206303879E+03 -0.10242778453E+04  0.11226594572E+04  0.16997916735E+04  0.65864270000E+03 0.  0.
    8880022    1    1    2    0    0 -0.38206303879E+03  0.10242778453E+04  0.34649476349E+03  0.11569647981E+04  0.15294330000E+03 0.  0.
<mgrwt>
<rscale>  0 0.12308121E+04</rscale>
<asrwt>0</asrwt>
<pdfrwt beam="1">  1        2 0.33276236E+00 0.12762944E+04</pdfrwt>
<pdfrwt beam="2">  1       -2 0.10673864E+00 0.12762944E+04</pdfrwt>
<totfact> 0.37186312E+00</totfact>
</mgrwt>
</event>
<event>
 4    1  0.3057048E-007  0.8312090E+03  0.7818608E-02  0.9646985E-01
         -2   -1    0    0    0  501 -0.00000000000E+00  0.00000000000E+00  0.15711543968E+04  0.15711543968E+04  0.25500000000E-02 0.  1.
          2   -1    0    0  501    0  0.00000000000E+00 -0.00000000000E+00 -0.10690194302E+04  0.10690194302E+04  0.25500000000E-02 0. -1.
    8880023    1    1    2    0    0 -0.51456271650E+02 -0.50443081880E+03  0.13822926348E+04  0.16129604252E+04  0.65864270000E+03 0.  1.
    8880022    1    1    2    0    0  0.51456271650E+02  0.50443081880E+03 -0.88015766825E+03  0.10272134018E+04  0.15294330000E+03 0.  0.
<mgrwt>
<rscale>  0 0.74262971E+03</rscale>
<asrwt>0</asrwt>
<pdfrwt beam="1">  1        2 0.16446453E+00 0.83120900E+03</pdfrwt>
<pdfrwt beam="2">  1       -2 0.24171606E+00 0.83120900E+03</pdfrwt>
<totfact> 0.16784045E+00</totfact>
</mgrwt>
</event>
<event>
 4    1  0.3918943E-007  0.7442782E+03  0.7818608E-02  0.9847656E-01
          2   -1    0    0  501    0  0.00000000000E+00  0.00000000000E+00  0.12531368045E+04  0.12531368045E+04  0.25500000000E-02 0. -1.
         -2   -1    0    0    0  501 -0.00000000000E+00 -0.00000000000E+00 -0.15227733318E+04  0.15227733318E+04  0.25500000000E-02 0.  1.
    8880023    1    1    2    0    0  0.78040182003E+02  0.33771217289E+03 -0.13990185320E+04  0.15846775195E+04  0.65864270000E+03 0.  0.
    8880022    1    1    2    0    0 -0.78040182003E+02 -0.33771217289E+03  0.11293820047E+04  0.11912326168E+04  0.15294330000E+03 0.  0.
<mgrwt>
<rscale>  0 0.62866580E+03</rscale>
<asrwt>0</asrwt>
<pdfrwt beam="1">  1        2 0.19279028E+00 0.74427817E+03</pdfrwt>
<pdfrwt beam="2">  1       -2 0.23427282E+00 0.74427817E+03</pdfrwt>
<totfact> 0.14661586E+00</totfact>
</mgrwt>
</event>
<event>
 4    1  0.3057048E-007  0.6641109E+03  0.7818608E-02  0.1020291E+00
         -2   -1    0    0    0  501 -0.00000000000E+00  0.00000000000E+00  0.21096629384E+03  0.21096629385E+03  0.25500000000E-02 0.  1.
          2   -1    0    0  501    0  0.00000000000E+00 -0.00000000000E+00 -0.25178451745E+04  0.25178451746E+04  0.25500000000E-02 0. -1.
    8880023    1    1    2    0    0 -0.13721315018E+02 -0.83933415950E+02 -0.32526743582E+03  0.73948779832E+03  0.65864270000E+03 0.  1.
    8880022    1    1    2    0    0  0.13721315018E+02  0.83933415950E+02 -0.19816114449E+04  0.19893236701E+04  0.15294330000E+03 0.  0.
<mgrwt>
<rscale>  0 0.47581653E+03</rscale>
<asrwt>0</asrwt>
<pdfrwt beam="1">  1        2 0.38736077E+00 0.66411091E+03</pdfrwt>
<pdfrwt beam="2">  1       -2 0.32456355E-01 0.66411091E+03</pdfrwt>
<totfact> 0.31784985E+01</totfact>
</mgrwt>
</event>
<event>
 4    1  0.3057048E-007  0.8208460E+03  0.7818608E-02  0.9667413E-01
         -2   -1    0    0    0  501 -0.00000000000E+00  0.00000000000E+00  0.38583892811E+03  0.38583892812E+03  0.25500000000E-02 0.  1.
          2   -1    0    0  501    0  0.00000000000E+00 -0.00000000000E+00 -0.20163692127E+04  0.20163692127E+04  0.25500000000E-02 0. -1.
    8880023    1    1    2    0    0  0.47229313791E+03 -0.13006566310E+03 -0.14893297018E+03  0.83424763752E+03  0.65864270000E+03 0.  1.
    8880022    1    1    2    0    0 -0.47229313791E+03  0.13006566310E+03 -0.14815973144E+04  0.15679605033E+04  0.15294330000E+03 0.  0.
<mgrwt>
<rscale>  0 0.72990601E+03</rscale>
<asrwt>0</asrwt>
<pdfrwt beam="1">  1        2 0.31021064E+00 0.82084596E+03</pdfrwt>
<pdfrwt beam="2">  1       -2 0.59359836E-01 0.82084596E+03</pdfrwt>
<totfact> 0.17764905E+01</totfact>
</mgrwt>
</event>
<event>
 4    1  0.3057048E-007  0.7203343E+03  0.7818608E-02  0.9921456E-01
         -2   -1    0    0    0  501 -0.00000000000E+00  0.00000000000E+00  0.46354208358E+03  0.46354208359E+03  0.25500000000E-02 0.  1.
          2   -1    0    0  501    0  0.00000000000E+00 -0.00000000000E+00 -0.16207937564E+04  0.16207937564E+04  0.25500000000E-02 0. -1.
    8880023    1    1    2    0    0 -0.19410588350E+03 -0.21770215014E+03  0.15038411301E+03  0.73586473478E+03  0.65864270000E+03 0.  1.
    8880022    1    1    2    0    0  0.19410588350E+03  0.21770215014E+03 -0.13076357859E+04  0.13484711053E+04  0.15294330000E+03 0.  0.
<mgrwt>
<rscale>  0 0.59232596E+03</rscale>
<asrwt>0</asrwt>
<pdfrwt beam="1">  1        2 0.24935288E+00 0.72033432E+03</pdfrwt>
<pdfrwt beam="2">  1       -2 0.71314167E-01 0.72033432E+03</pdfrwt>
<totfact> 0.19960287E+01</totfact>
</mgrwt>
</event>
<event>
 4    1  0.3057048E-007  0.6763806E+03  0.7818608E-02  0.1011450E+00
         -2   -1    0    0    0  501 -0.00000000000E+00  0.00000000000E+00  0.61601256188E+03  0.61601256189E+03  0.25500000000E-02 0.  1.
          2   -1    0    0  501    0  0.00000000000E+00 -0.00000000000E+00 -0.83565413731E+03  0.83565413732E+03  0.25500000000E-02 0. -1.
    8880023    1    1    2    0    0  0.15336455282E+03 -0.12641023117E+02  0.40640891631E+03  0.78908738112E+03  0.65864270000E+03 0.  1.
    8880022    1    1    2    0    0 -0.15336455282E+03  0.12641023117E+02 -0.62605049174E+03  0.66257931808E+03  0.15294330000E+03 0.  0.
<mgrwt>
<rscale>  0 0.50902467E+03</rscale>
<asrwt>0</asrwt>
<pdfrwt beam="1">  1        2 0.12856218E+00 0.67638058E+03</pdfrwt>
<pdfrwt beam="2">  1       -2 0.94771163E-01 0.67638058E+03</pdfrwt>
<totfact> 0.31101945E+01</totfact>
</mgrwt>
</event>
<event>
 4    1  0.3057048E-007  0.7834969E+03  0.7818608E-02  0.9747686E-01
          2   -1    0    0  501    0  0.00000000000E+00  0.00000000000E+00  0.17552132766E+04  0.17552132766E+04  0.25500000000E-02 0. -1.
         -2   -1    0    0    0  501 -0.00000000000E+00 -0.00000000000E+00 -0.57264984526E+03  0.57264984527E+03  0.25500000000E-02 0.  1.
    8880023    1    1    2    0    0  0.26965172039E+03  0.32763561327E+03 -0.25282118142E+03  0.82327753609E+03  0.65864270000E+03 0.  1.
    8880022    1    1    2    0    0 -0.26965172039E+03 -0.32763561327E+03  0.14353846128E+04  0.15045855858E+04  0.15294330000E+03 0.  0.
<mgrwt>
<rscale>  0 0.68247201E+03</rscale>
<asrwt>0</asrwt>
<pdfrwt beam="1">  1        2 0.27003281E+00 0.78349687E+03</pdfrwt>
<pdfrwt beam="2">  1       -2 0.88099976E-01 0.78349687E+03</pdfrwt>
<totfact> 0.10396131E+01</totfact>
</mgrwt>
</event>
<event>
 4    1  0.3057048E-007  0.1807702E+04  0.7818608E-02  0.8718288E-01
         -2   -1    0    0    0  501 -0.00000000000E+00  0.00000000000E+00  0.24152264129E+04  0.24152264129E+04  0.25500000000E-02 0.  1.
          2   -1    0    0  501    0  0.00000000000E+00 -0.00000000000E+00 -0.18371964576E+04  0.18371964576E+04  0.25500000000E-02 0. -1.
    8880023    1    1    2    0    0 -0.13168677461E+04 -0.10487301568E+04 -0.88876971346E+03  0.20143727094E+04  0.65864270000E+03 0. -1.
    8880022    1    1    2    0    0  0.13168677461E+04  0.10487301568E+04  0.14667996688E+04  0.22380501612E+04  0.15294330000E+03 0.  1.
<mgrwt>
<rscale>  0 0.17776279E+04</rscale>
<asrwt>0</asrwt>
<pdfrwt beam="1">  1        2 0.28264561E+00 0.18077018E+04</pdfrwt>
<pdfrwt beam="2">  1       -2 0.37157330E+00 0.18077018E+04</pdfrwt>
<totfact> 0.84656987E-02</totfact>
</mgrwt>
</event>
<event>
 4    1  0.3057048E-007  0.8021568E+03  0.7818608E-02  0.9706152E-01
          2   -1    0    0  501    0  0.00000000000E+00  0.00000000000E+00  0.23159708066E+04  0.23159708066E+04  0.25500000000E-02 0. -1.
         -2   -1    0    0    0  501 -0.00000000000E+00 -0.00000000000E+00 -0.29898809299E+03  0.29898809300E+03  0.25500000000E-02 0.  1.
    8880023    1    1    2    0    0 -0.42037469247E+03  0.18146737640E+03  0.34238815312E+03  0.87217265747E+03  0.65864270000E+03 0.  0.
    8880022    1    1    2    0    0  0.42037469247E+03 -0.18146737640E+03  0.16745945605E+04  0.17427862421E+04  0.15294330000E+03 0. -1.
<mgrwt>
<rscale>  0 0.70651688E+03</rscale>
<asrwt>0</asrwt>
<pdfrwt beam="1">  1        2 0.35630319E+00 0.80215678E+03</pdfrwt>
<pdfrwt beam="2">  1       -2 0.45998169E-01 0.80215678E+03</pdfrwt>
<totfact> 0.20562795E+01</totfact>
</mgrwt>
</event>
<event>
 4    1  0.3057048E-007  0.1054969E+04  0.7818608E-02  0.9312932E-01
         -2   -1    0    0    0  501 -0.00000000000E+00  0.00000000000E+00  0.46498989456E+03  0.46498989457E+03  0.25500000000E-02 0.  1.
          2   -1    0    0  501    0  0.00000000000E+00 -0.00000000000E+00 -0.26226226998E+04  0.26226226998E+04  0.25500000000E-02 0. -1.
    8880023    1    1    2    0    0  0.66292441355E+03 -0.48957113117E+03 -0.37829916816E+03  0.11207449029E+04  0.65864270000E+03 0.  0.
    8880022    1    1    2    0    0 -0.66292441355E+03  0.48957113117E+03 -0.17793336370E+04  0.19668676914E+04  0.15294330000E+03 0.  0.
<mgrwt>
<rscale>  0 0.99600972E+03</rscale>
<asrwt>0</asrwt>
<pdfrwt beam="1">  1        2 0.40348041E+00 0.10549687E+04</pdfrwt>
<pdfrwt beam="2">  1       -2 0.71536908E-01 0.10549687E+04</pdfrwt>
<totfact> 0.52633054E+00</totfact>
</mgrwt>
</event>
<event>
 4    1  0.3057048E-007  0.7803868E+03  0.7818608E-02  0.9754929E-01
          2   -1    0    0  501    0  0.00000000000E+00  0.00000000000E+00  0.94761619040E+03  0.94761619040E+03  0.25500000000E-02 0. -1.
         -2   -1    0    0    0  501 -0.00000000000E+00 -0.00000000000E+00 -0.45301973287E+03  0.45301973288E+03  0.25500000000E-02 0.  1.
    8880023    1    1    2    0    0 -0.14513199040E+03 -0.39259396025E+03  0.67357495435E+02  0.78328829349E+03  0.65864270000E+03 0.  1.
    8880022    1    1    2    0    0  0.14513199040E+03  0.39259396025E+03  0.42723896209E+03  0.61734762979E+03  0.15294330000E+03 0.  0.
<mgrwt>
<rscale>  0 0.67838420E+03</rscale>
<asrwt>0</asrwt>
<pdfrwt beam="1">  1        2 0.14578710E+00 0.78038677E+03</pdfrwt>
<pdfrwt beam="2">  1       -2 0.69695345E-01 0.78038677E+03</pdfrwt>
<totfact> 0.51769575E+01</totfact>
</mgrwt>
</event>
<event>
 4    1  0.3057048E-007  0.7269677E+03  0.7818608E-02  0.9899678E-01
          2   -1    0    0  501    0  0.00000000000E+00  0.00000000000E+00  0.19826822727E+04  0.19826822727E+04  0.25500000000E-02 0. -1.
         -2   -1    0    0    0  501 -0.00000000000E+00 -0.00000000000E+00 -0.28077962529E+03  0.28077962530E+03  0.25500000000E-02 0.  1.
    8880023    1    1    2    0    0  0.26663340844E+03 -0.15355269269E+03  0.24584663549E+03  0.76741291256E+03  0.65864270000E+03 0.  0.
    8880022    1    1    2    0    0 -0.26663340844E+03  0.15355269269E+03  0.14560560119E+04  0.14960489854E+04  0.15294330000E+03 0.  0.
<mgrwt>
<rscale>  0 0.60276880E+03</rscale>
<asrwt>0</asrwt>
<pdfrwt beam="1">  1        2 0.30502805E+00 0.72696768E+03</pdfrwt>
<pdfrwt beam="2">  1       -2 0.43196865E-01 0.72696768E+03</pdfrwt>
<totfact> 0.35905447E+01</totfact>
</mgrwt>
</event>
<event>
 4    1  0.3057048E-007  0.7045448E+03  0.7818608E-02  0.9978846E-01
          2   -1    0    0  501    0  0.00000000000E+00  0.00000000000E+00  0.67719805078E+03  0.67719805079E+03  0.25500000000E-02 0. -1.
         -2   -1    0    0    0  501 -0.00000000000E+00 -0.00000000000E+00 -0.45624800402E+03  0.45624800403E+03  0.25500000000E-02 0.  1.
    8880023    1    1    2    0    0  0.19994436727E+03 -0.15031750647E+03 -0.85041783363E+02  0.70965866016E+03  0.65864270000E+03 0.  1.
    8880022    1    1    2    0    0 -0.19994436727E+03  0.15031750647E+03  0.30599183012E+03  0.42378739466E+03  0.15294330000E+03 0.  0.
<mgrwt>
<rscale>  0 0.56587628E+03</rscale>
<asrwt>0</asrwt>
<pdfrwt beam="1">  1        2 0.10418431E+00 0.70454475E+03</pdfrwt>
<pdfrwt beam="2">  1       -2 0.70192001E-01 0.70454475E+03</pdfrwt>
<totfact> 0.80147750E+01</totfact>
</mgrwt>
</event>
<event>
 4    1  0.3057048E-007  0.7544562E+03  0.7818608E-02  0.9819677E-01
         -2   -1    0    0    0  501 -0.00000000000E+00  0.00000000000E+00  0.26141331455E+03  0.26141331456E+03  0.25500000000E-02 0.  1.
          2   -1    0    0  501    0  0.00000000000E+00 -0.00000000000E+00 -0.17368783133E+04  0.17368783133E+04  0.25500000000E-02 0. -1.
    8880023    1    1    2    0    0 -0.20229547745E+03  0.30736056293E+03 -0.40548001396E+03  0.85651516264E+03  0.65864270000E+03 0. -1.
    8880022    1    1    2    0    0  0.20229547745E+03 -0.30736056293E+03 -0.10699849847E+04  0.11417764652E+04  0.15294330000E+03 0.  0.
<mgrwt>
<rscale>  0 0.64317170E+03</rscale>
<asrwt>0</asrwt>
<pdfrwt beam="1">  1        2 0.26721204E+00 0.75445622E+03</pdfrwt>
<pdfrwt beam="2">  1       -2 0.40217434E-01 0.75445622E+03</pdfrwt>
<totfact> 0.56067555E+01</totfact>
</mgrwt>
</event>
<event>
 4    1  0.3057048E-007  0.7036687E+03  0.7818608E-02  0.9982309E-01
         -2   -1    0    0    0  501 -0.00000000000E+00  0.00000000000E+00  0.96238261249E+02  0.96238261282E+02  0.25500000000E-02 0.  1.
          2   -1    0    0  501    0  0.00000000000E+00 -0.00000000000E+00 -0.36225681032E+04  0.36225681032E+04  0.25500000000E-02 0. -1.
    8880023    1    1    2    0    0  0.16616494354E+03  0.18365354954E+03 -0.13431997064E+04  0.15163558527E+04  0.65864270000E+03 0.  1.
    8880022    1    1    2    0    0 -0.16616494354E+03 -0.18365354954E+03 -0.21831301356E+04  0.22024505117E+04  0.15294330000E+03 0.  0.
<mgrwt>
<rscale>  0 0.56432788E+03</rscale>
<asrwt>0</asrwt>
<pdfrwt beam="1">  1        2 0.55731806E+00 0.70366869E+03</pdfrwt>
<pdfrwt beam="2">  1       -2 0.14805889E-01 0.70366869E+03</pdfrwt>
<totfact> 0.25974131E+01</totfact>
</mgrwt>
</event>
<event>
 4    1  0.3057048E-007  0.8368652E+03  0.7818608E-02  0.9636120E-01
         -2   -1    0    0    0  501 -0.00000000000E+00  0.00000000000E+00  0.31576125667E+03  0.31576125668E+03  0.25500000000E-02 0.  1.
          2   -1    0    0  501    0  0.00000000000E+00 -0.00000000000E+00 -0.15114071731E+04  0.15114071731E+04  0.25500000000E-02 0. -1.
    8880023    1    1    2    0    0  0.34606604779E+03  0.38310758480E+03 -0.64096218830E+03  0.10541232680E+04  0.65864270000E+03 0.  1.
    8880022    1    1    2    0    0 -0.34606604779E+03 -0.38310758480E+03 -0.55468372817E+03  0.77304516186E+03  0.15294330000E+03 0. -1.
<mgrwt>
<rscale>  0 0.74950976E+03</rscale>
<asrwt>0</asrwt>
<pdfrwt beam="1">  1        2 0.23252418E+00 0.83686518E+03</pdfrwt>
<pdfrwt beam="2">  1       -2 0.48578656E-01 0.83686518E+03</pdfrwt>
<totfact> 0.50848733E+01</totfact>
</mgrwt>
</event>
<event>
 4    1  0.3057048E-007  0.8355149E+03  0.7818608E-02  0.9638696E-01
         -2   -1    0    0    0  501 -0.00000000000E+00  0.00000000000E+00  0.14858487654E+03  0.14858487656E+03  0.25500000000E-02 0.  1.
          2   -1    0    0  501    0  0.00000000000E+00 -0.00000000000E+00 -0.33286472502E+04  0.33286472502E+04  0.25500000000E-02 0. -1.
    8880023    1    1    2    0    0  0.25706062510E+03  0.44519073365E+03 -0.22947909680E+04  0.24421610814E+04  0.65864270000E+03 0.  0.
    8880022    1    1    2    0    0 -0.25706062510E+03 -0.44519073365E+03 -0.88527140568E+03  0.10350710454E+04  0.15294330000E+03 0.  0.
<mgrwt>
<rscale>  0 0.74787124E+03</rscale>
<asrwt>0</asrwt>
<pdfrwt beam="1">  1        2 0.51209952E+00 0.83551491E+03</pdfrwt>
<pdfrwt beam="2">  1       -2 0.22859214E-01 0.83551491E+03</pdfrwt>
<totfact> 0.18943238E+01</totfact>
</mgrwt>
</event>
<event>
 4    1  0.3057048E-007  0.6823169E+03  0.7818608E-02  0.1008042E+00
          2   -1    0    0  501    0  0.00000000000E+00  0.00000000000E+00  0.12061689695E+04  0.12061689695E+04  0.25500000000E-02 0. -1.
         -2   -1    0    0    0  501 -0.00000000000E+00 -0.00000000000E+00 -0.58598040557E+03  0.58598040558E+03  0.25500000000E-02 0.  1.
    8880023    1    1    2    0    0 -0.48416729300E+02  0.17147019689E+03 -0.36883986532E+03  0.77562830055E+03  0.65864270000E+03 0.  1.
    8880022    1    1    2    0    0  0.48416729300E+02 -0.17147019689E+03  0.98902842920E+03  0.10165210745E+04  0.15294330000E+03 0.  0.
<mgrwt>
<rscale>  0 0.52260175E+03</rscale>
<asrwt>0</asrwt>
<pdfrwt beam="1">  1        2 0.18556445E+00 0.68231695E+03</pdfrwt>
<pdfrwt beam="2">  1       -2 0.90150833E-01 0.68231695E+03</pdfrwt>
<totfact> 0.20311258E+01</totfact>
</mgrwt>
</event>
<event>
 4    1  0.3057048E-007  0.1137132E+04  0.7818608E-02  0.9220798E-01
          2   -1    0    0  501    0  0.00000000000E+00  0.00000000000E+00  0.25681400721E+04  0.25681400721E+04  0.25500000000E-02 0. -1.
         -2   -1    0    0    0  501 -0.00000000000E+00 -0.00000000000E+00 -0.55519775260E+03  0.55519775261E+03  0.25500000000E-02 0.  1.
    8880023    1    1    2    0    0  0.59624425204E+03 -0.70975539998E+03  0.31032661421E+03  0.11787165688E+04  0.65864270000E+03 0.  1.
    8880022    1    1    2    0    0 -0.59624425204E+03  0.70975539998E+03  0.17026157052E+04  0.19446212558E+04  0.15294330000E+03 0.  0.
<mgrwt>
<rscale>  0 0.10841315E+04</rscale>
<asrwt>0</asrwt>
<pdfrwt beam="1">  1        2 0.39509847E+00 0.11371324E+04</pdfrwt>
<pdfrwt beam="2">  1       -2 0.85415039E-01 0.11371324E+04</pdfrwt>
<totfact> 0.37613540E+00</totfact>
</mgrwt>
</event>
<event>
 4    1  0.3057048E-007  0.7665607E+03  0.7818608E-02  0.9788409E-01
         -2   -1    0    0    0  501 -0.00000000000E+00  0.00000000000E+00  0.46507455272E+03  0.46507455272E+03  0.25500000000E-02 0.  1.
          2   -1    0    0  501    0  0.00000000000E+00 -0.00000000000E+00 -0.14393859914E+04  0.14393859914E+04  0.25500000000E-02 0. -1.
    8880023    1    1    2    0    0  0.33264903395E+03 -0.20772500564E+03  0.78542806744E+02  0.77057396563E+03  0.65864270000E+03 0.  1.
    8880022    1    1    2    0    0 -0.33264903395E+03  0.20772500564E+03 -0.10528542454E+04  0.11338865785E+04  0.15294330000E+03 0.  0.
<mgrwt>
<rscale>  0 0.65988287E+03</rscale>
<asrwt>0</asrwt>
<pdfrwt beam="1">  1        2 0.22144400E+00 0.76656067E+03</pdfrwt>
<pdfrwt beam="2">  1       -2 0.71549932E-01 0.76656067E+03</pdfrwt>
<totfact> 0.24847616E+01</totfact>
</mgrwt>
</event>
<event>
 4    1  0.3057048E-007  0.1041081E+04  0.7818608E-02  0.9329681E-01
         -2   -1    0    0    0  501 -0.00000000000E+00  0.00000000000E+00  0.12033001291E+04  0.12033001291E+04  0.25500000000E-02 0.  1.
          2   -1    0    0  501    0  0.00000000000E+00 -0.00000000000E+00 -0.95290957705E+03  0.95290957706E+03  0.25500000000E-02 0. -1.
    8880023    1    1    2    0    0  0.62827956504E+03 -0.50527663694E+03  0.66646024906E+03  0.12361307219E+04  0.65864270000E+03 0.  1.
    8880022    1    1    2    0    0 -0.62827956504E+03  0.50527663694E+03 -0.41606969697E+03  0.92007898435E+03  0.15294330000E+03 0. -1.
<mgrwt>
<rscale>  0 0.98095728E+03</rscale>
<asrwt>0</asrwt>
<pdfrwt beam="1">  1        2 0.14660148E+00 0.10410811E+04</pdfrwt>
<pdfrwt beam="2">  1       -2 0.18512309E+00 0.10410811E+04</pdfrwt>
<totfact> 0.44637027E+00</totfact>
</mgrwt>
</event>
<event>
 4    1  0.3057048E-007  0.1521620E+04  0.7818608E-02  0.8894518E-01
         -2   -1    0    0    0  501 -0.00000000000E+00  0.00000000000E+00  0.15965630807E+04  0.15965630807E+04  0.25500000000E-02 0.  1.
          2   -1    0    0  501    0  0.00000000000E+00 -0.00000000000E+00 -0.17242429334E+04  0.17242429334E+04  0.25500000000E-02 0. -1.
    8880023    1    1    2    0    0  0.10373421294E+04  0.89746223826E+03 -0.87090938308E+03  0.17532285996E+04  0.65864270000E+03 0.  0.
    8880022    1    1    2    0    0 -0.10373421294E+04 -0.89746223826E+03  0.74322953045E+03  0.15675774145E+04  0.15294330000E+03 0.  0.
<mgrwt>
<rscale>  0 0.14849572E+04</rscale>
<asrwt>0</asrwt>
<pdfrwt beam="1">  1        2 0.26526814E+00 0.15216200E+04</pdfrwt>
<pdfrwt beam="2">  1       -2 0.24562509E+00 0.15216200E+04</pdfrwt>
<totfact> 0.60890894E-01</totfact>
</mgrwt>
</event>
<event>
 4    1  0.3057048E-007  0.1202781E+04  0.7818608E-02  0.9154423E-01
         -2   -1    0    0    0  501 -0.00000000000E+00  0.00000000000E+00  0.37414911307E+04  0.37414911307E+04  0.25500000000E-02 0.  1.
          2   -1    0    0  501    0  0.00000000000E+00 -0.00000000000E+00 -0.79463980822E+03  0.79463980822E+03  0.25500000000E-02 0. -1.
    8880023    1    1    2    0    0  0.38823898022E+03 -0.92851685932E+03  0.32569746219E+04  0.34719687438E+04  0.65864270000E+03 0.  1.
    8880022    1    1    2    0    0 -0.38823898022E+03  0.92851685932E+03 -0.31012329938E+03  0.10641621952E+04  0.15294330000E+03 0.  0.
<mgrwt>
<rscale>  0 0.11536495E+04</rscale>
<asrwt>0</asrwt>
<pdfrwt beam="1">  1        2 0.12225228E+00 0.12027815E+04</pdfrwt>
<pdfrwt beam="2">  1       -2 0.57561402E+00 0.12027815E+04</pdfrwt>
<totfact> 0.21380773E-02</totfact>
</mgrwt>
</event>
<event>
 4    1  0.3057048E-007  0.7282241E+03  0.7818608E-02  0.9895681E-01
         -2   -1    0    0    0  501 -0.00000000000E+00  0.00000000000E+00  0.13939786222E+03  0.13939786224E+03  0.25500000000E-02 0.  1.
          2   -1    0    0  501    0  0.00000000000E+00 -0.00000000000E+00 -0.43456140567E+04  0.43456140567E+04  0.25500000000E-02 0. -1.
    8880023    1    1    2    0    0  0.29694927989E+03  0.91221071694E+02 -0.88635287026E+03  0.11471406957E+04  0.65864270000E+03 0.  1.
    8880022    1    1    2    0    0 -0.29694927989E+03 -0.91221071694E+02 -0.33198633242E+04  0.33378712233E+04  0.15294330000E+03 0.  0.
<mgrwt>
<rscale>  0 0.60471046E+03</rscale>
<asrwt>0</asrwt>
<pdfrwt beam="1">  1        2 0.66855591E+00 0.72822412E+03</pdfrwt>
<pdfrwt beam="2">  1       -2 0.21445828E-01 0.72822412E+03</pdfrwt>
<totfact> 0.36717355E+00</totfact>
</mgrwt>
</event>
<event>
 4    1  0.3057048E-007  0.7146880E+03  0.7818608E-02  0.9940988E-01
          2   -1    0    0  501    0  0.00000000000E+00  0.00000000000E+00  0.11731227454E+04  0.11731227455E+04  0.25500000000E-02 0. -1.
         -2   -1    0    0    0  501 -0.00000000000E+00 -0.00000000000E+00 -0.27268068128E+03  0.27268068129E+03  0.25500000000E-02 0.  1.
    8880023    1    1    2    0    0 -0.23162665585E+03  0.15270187490E+03  0.31686113807E+03  0.78177999295E+03  0.65864270000E+03 0.  1.
    8880022    1    1    2    0    0  0.23162665585E+03 -0.15270187490E+03  0.58358092610E+03  0.66402343379E+03  0.15294330000E+03 0.  0.
<mgrwt>
<rscale>  0 0.58315324E+03</rscale>
<asrwt>0</asrwt>
<pdfrwt beam="1">  1        2 0.18048043E+00 0.71468803E+03</pdfrwt>
<pdfrwt beam="2">  1       -2 0.41950873E-01 0.71468803E+03</pdfrwt>
<totfact> 0.10770187E+02</totfact>
</mgrwt>
</event>
<event>
 4    1  0.3057048E-007  0.8213906E+03  0.7818608E-02  0.9666322E-01
         -2   -1    0    0    0  501 -0.00000000000E+00  0.00000000000E+00  0.34856365471E+03  0.34856365472E+03  0.25500000000E-02 0.  1.
          2   -1    0    0  501    0  0.00000000000E+00 -0.00000000000E+00 -0.20826413421E+04  0.20826413421E+04  0.25500000000E-02 0. -1.
    8880023    1    1    2    0    0 -0.48849484423E+03 -0.47381938283E+02 -0.24691459112E+03  0.85769999562E+03  0.65864270000E+03 0.  1.
    8880022    1    1    2    0    0  0.48849484423E+03  0.47381938283E+02 -0.14871630963E+04  0.15735050012E+04  0.15294330000E+03 0. -1.
<mgrwt>
<rscale>  0 0.73057872E+03</rscale>
<asrwt>0</asrwt>
<pdfrwt beam="1">  1        2 0.32040635E+00 0.82139057E+03</pdfrwt>
<pdfrwt beam="2">  1       -2 0.53625179E-01 0.82139057E+03</pdfrwt>
<totfact> 0.20199726E+01</totfact>
</mgrwt>
</event>
<event>
 4    1  0.3273742E-007  0.7201145E+03  0.7818608E-02  0.9922199E-01
          2   -1    0    0  501    0  0.00000000000E+00  0.00000000000E+00  0.14291726117E+04  0.14291726117E+04  0.25500000000E-02 0. -1.
         -2   -1    0    0    0  501 -0.00000000000E+00 -0.00000000000E+00 -0.11427162023E+04  0.11427162023E+04  0.25500000000E-02 0.  1.
    8880023    1    1    2    0    0 -0.27959783097E+03 -0.81115262901E+02 -0.10066039448E+04  0.12376656822E+04  0.65864270000E+03 0.  1.
    8880022    1    1    2    0    0  0.27959783097E+03  0.81115262901E+02  0.12930603541E+04  0.13342231318E+04  0.15294330000E+03 0.  0.
<mgrwt>
<rscale>  0 0.59197396E+03</rscale>
<asrwt>0</asrwt>
<pdfrwt beam="1">  1        2 0.21987271E+00 0.72011446E+03</pdfrwt>
<pdfrwt beam="2">  1       -2 0.17580249E+00 0.72011446E+03</pdfrwt>
<totfact> 0.27893538E+00</totfact>
</mgrwt>
</event>
<event>
 4    1  0.3057048E-007  0.6665823E+03  0.7818608E-02  0.1018241E+00
          2   -1    0    0  501    0  0.00000000000E+00  0.00000000000E+00  0.22291001573E+04  0.22291001573E+04  0.25500000000E-02 0. -1.
         -2   -1    0    0    0  501 -0.00000000000E+00 -0.00000000000E+00 -0.12949263554E+03  0.12949263556E+03  0.25500000000E-02 0.  1.
    8880023    1    1    2    0    0  0.79231662954E+02  0.65146861827E+02  0.77926137344E+03  0.10254658768E+04  0.65864270000E+03 0.  1.
    8880022    1    1    2    0    0 -0.79231662954E+02 -0.65146861827E+02  0.13203461483E+04  0.13331269161E+04  0.15294330000E+03 0.  0.
<mgrwt>
<rscale>  0 0.48326661E+03</rscale>
<asrwt>0</asrwt>
<pdfrwt beam="1">  1        2 0.34293847E+00 0.66658231E+03</pdfrwt>
<pdfrwt beam="2">  1       -2 0.19921945E-01 0.66658231E+03</pdfrwt>
<totfact> 0.11121125E+02</totfact>
</mgrwt>
</event>
<event>
 4    1  0.3057048E-007  0.8099448E+03  0.7818608E-02  0.9689692E-01
          2   -1    0    0  501    0  0.00000000000E+00  0.00000000000E+00  0.98695191080E+03  0.98695191080E+03  0.25500000000E-02 0. -1.
         -2   -1    0    0    0  501 -0.00000000000E+00 -0.00000000000E+00 -0.83012658064E+03  0.83012658064E+03  0.25500000000E-02 0.  1.
    8880023    1    1    2    0    0 -0.21996617096E+03  0.41691147260E+03 -0.53161032670E+03  0.96882404907E+03  0.65864270000E+03 0.  1.
    8880022    1    1    2    0    0  0.21996617096E+03 -0.41691147260E+03  0.68843565686E+03  0.84825444237E+03  0.15294330000E+03 0.  0.
<mgrwt>
<rscale>  0 0.71633853E+03</rscale>
<asrwt>0</asrwt>
<pdfrwt beam="1">  1        2 0.15183875E+00 0.80994475E+03</pdfrwt>
<pdfrwt beam="2">  1       -2 0.12771178E+00 0.80994475E+03</pdfrwt>
<totfact> 0.11786668E+01</totfact>
</mgrwt>
</event>
<event>
 4    1  0.3057048E-007  0.8325363E+03  0.7818608E-02  0.9644418E-01
          2   -1    0    0  501    0  0.00000000000E+00  0.00000000000E+00  0.12345061538E+04  0.12345061538E+04  0.25500000000E-02 0. -1.
         -2   -1    0    0    0  501 -0.00000000000E+00 -0.00000000000E+00 -0.46679275288E+03  0.46679275288E+03  0.25500000000E-02 0.  1.
    8880023    1    1    2    0    0  0.47499753492E+03  0.18353165016E+03  0.81810289834E+03  0.11672228079E+04  0.65864270000E+03 0. -1.
    8880022    1    1    2    0    0 -0.47499753492E+03 -0.18353165016E+03 -0.50389497432E+02  0.53407609875E+03  0.15294330000E+03 0.  0.
<mgrwt>
<rscale>  0 0.74424816E+03</rscale>
<asrwt>0</asrwt>
<pdfrwt beam="1">  1        2 0.18992402E+00 0.83253632E+03</pdfrwt>
<pdfrwt beam="2">  1       -2 0.71814270E-01 0.83253632E+03</pdfrwt>
<totfact> 0.32092350E+01</totfact>
</mgrwt>
</event>
<event>
 4    1  0.3057048E-007  0.7173110E+03  0.7818608E-02  0.9931792E-01
         -2   -1    0    0    0  501 -0.00000000000E+00  0.00000000000E+00  0.43033246030E+03  0.43033246031E+03  0.25500000000E-02 0.  1.
          2   -1    0    0  501    0  0.00000000000E+00 -0.00000000000E+00 -0.18686086839E+04  0.18686086839E+04  0.25500000000E-02 0. -1.
    8880023    1    1    2    0    0 -0.68675502376E+01 -0.28403810647E+03  0.10262776330E+03  0.72461539677E+03  0.65864270000E+03 0.  1.
    8880022    1    1    2    0    0  0.68675502376E+01  0.28403810647E+03 -0.15409039869E+04  0.15743257474E+04  0.15294330000E+03 0.  0.
<mgrwt>
<rscale>  0 0.58744948E+03</rscale>
<asrwt>0</asrwt>
<pdfrwt beam="1">  1        2 0.28747825E+00 0.71731096E+03</pdfrwt>
<pdfrwt beam="2">  1       -2 0.66204995E-01 0.71731096E+03</pdfrwt>
<totfact> 0.17187442E+01</totfact>
</mgrwt>
</event>
<event>
 4    1  0.3057048E-007  0.6712878E+03  0.7818608E-02  0.1014756E+00
          2   -1    0    0  501    0  0.00000000000E+00  0.00000000000E+00  0.62785924653E+03  0.62785924653E+03  0.25500000000E-02 0. -1.
         -2   -1    0    0    0  501 -0.00000000000E+00 -0.00000000000E+00 -0.30451000126E+03  0.30451000127E+03  0.25500000000E-02 0.  1.
    8880023    1    1    2    0    0 -0.48464260347E+02  0.12028424118E+03  0.21761823533E+03  0.70568051257E+03  0.65864270000E+03 0.  1.
    8880022    1    1    2    0    0  0.48464260347E+02 -0.12028424118E+03  0.10573100993E+03  0.22668873524E+03  0.15294330000E+03 0. -1.
<mgrwt>
<rscale>  0 0.49627410E+03</rscale>
<asrwt>0</asrwt>
<pdfrwt beam="1">  1        2 0.96593730E-01 0.67128778E+03</pdfrwt>
<pdfrwt beam="2">  1       -2 0.46847693E-01 0.67128778E+03</pdfrwt>
<totfact> 0.20533756E+02</totfact>
</mgrwt>
</event>
<event>
 4    1  0.3057048E-007  0.1011100E+04  0.7818608E-02  0.9367178E-01
         -2   -1    0    0    0  501 -0.00000000000E+00  0.00000000000E+00  0.81134545907E+03  0.81134545907E+03  0.25500000000E-02 0.  1.
          2   -1    0    0  501    0  0.00000000000E+00 -0.00000000000E+00 -0.26224431113E+04  0.26224431113E+04  0.25500000000E-02 0. -1.
    8880023    1    1    2    0    0  0.71584461313E+03  0.27582479770E+03  0.40080181051E+03  0.10876420030E+04  0.65864270000E+03 0.  1.
    8880022    1    1    2    0    0 -0.71584461313E+03 -0.27582479770E+03 -0.22118994628E+04  0.23461465674E+04  0.15294330000E+03 0.  0.
<mgrwt>
<rscale>  0 0.94826781E+03</rscale>
<asrwt>0</asrwt>
<pdfrwt beam="1">  1        2 0.40345278E+00 0.10110999E+04</pdfrwt>
<pdfrwt beam="2">  1       -2 0.12482238E+00 0.10110999E+04</pdfrwt>
<totfact> 0.14312391E+00</totfact>
</mgrwt>
</event>
<event>
 4    1  0.3057048E-007  0.6924078E+03  0.7818608E-02  0.1003029E+00
         -2   -1    0    0    0  501 -0.00000000000E+00  0.00000000000E+00  0.29793465109E+03  0.29793465110E+03  0.25500000000E-02 0.  1.
          2   -1    0    0  501    0  0.00000000000E+00 -0.00000000000E+00 -0.23237134132E+04  0.23237134132E+04  0.25500000000E-02 0. -1.
    8880023    1    1    2    0    0 -0.13445136010E+03 -0.16595527100E+03 -0.12598284704E+03  0.70377567748E+03  0.65864270000E+03 0.  1.
    8880022    1    1    2    0    0  0.13445136010E+03  0.16595527100E+03 -0.18997959151E+04  0.19178723868E+04  0.15294330000E+03 0. -1.
<mgrwt>
<rscale>  0 0.54341977E+03</rscale>
<asrwt>0</asrwt>
<pdfrwt beam="1">  1        2 0.35749436E+00 0.69240777E+03</pdfrwt>
<pdfrwt beam="2">  1       -2 0.45836102E-01 0.69240777E+03</pdfrwt>
<totfact> 0.20839086E+01</totfact>
</mgrwt>
</event>
<event>
 4    1  0.3057048E-007  0.1306862E+04  0.7818608E-02  0.9059657E-01
         -2   -1    0    0    0  501 -0.00000000000E+00  0.00000000000E+00  0.89795389275E+03  0.89795389275E+03  0.25500000000E-02 0.  1.
          2   -1    0    0  501    0  0.00000000000E+00 -0.00000000000E+00 -0.19197327684E+04  0.19197327684E+04  0.25500000000E-02 0. -1.
    8880023    1    1    2    0    0 -0.60928565276E+03 -0.95018321572E+03 -0.10528355859E+04  0.16781984767E+04  0.65864270000E+03 0.  0.
    8880022    1    1    2    0    0  0.60928565276E+03  0.95018321572E+03  0.31056710292E+02  0.11394881844E+04  0.15294330000E+03 0.  0.
<mgrwt>
<rscale>  0 0.12627266E+04</rscale>
<asrwt>0</asrwt>
<pdfrwt beam="1">  1        2 0.29534350E+00 0.13068616E+04</pdfrwt>
<pdfrwt beam="2">  1       -2 0.13814675E+00 0.13068616E+04</pdfrwt>
<totfact> 0.26520296E+00</totfact>
</mgrwt>
</event>
<event>
 4    1  0.3057048E-007  0.6871582E+03  0.7818608E-02  0.1005534E+00
         -2   -1    0    0    0  501 -0.00000000000E+00  0.00000000000E+00  0.48010512638E+03  0.48010512639E+03  0.25500000000E-02 0.  1.
          2   -1    0    0  501    0  0.00000000000E+00 -0.00000000000E+00 -0.71761013813E+03  0.71761013813E+03  0.25500000000E-02 0. -1.
    8880023    1    1    2    0    0 -0.10298681559E+03 -0.16664294524E+03  0.18134121178E+03  0.71068347155E+03  0.65864270000E+03 0.  1.
    8880022    1    1    2    0    0  0.10298681559E+03  0.16664294524E+03 -0.41884622352E+03  0.48703179297E+03  0.15294330000E+03 0.  0.
<mgrwt>
<rscale>  0 0.53289030E+03</rscale>
<asrwt>0</asrwt>
<pdfrwt beam="1">  1        2 0.11040156E+00 0.68715818E+03</pdfrwt>
<pdfrwt beam="2">  1       -2 0.73862327E-01 0.68715818E+03</pdfrwt>
<totfact> 0.66711362E+01</totfact>
</mgrwt>
</event>
<event>
 4    1  0.3057048E-007  0.6721889E+03  0.7818608E-02  0.1014140E+00
         -2   -1    0    0    0  501 -0.00000000000E+00  0.00000000000E+00  0.22931380842E+03  0.22931380843E+03  0.25500000000E-02 0.  1.
          2   -1    0    0  501    0  0.00000000000E+00 -0.00000000000E+00 -0.11379233460E+04  0.11379233460E+04  0.25500000000E-02 0. -1.
    8880023    1    1    2    0    0  0.11928925245E+03 -0.61625835431E+02 -0.94581547069E+03  0.11603468362E+04  0.65864270000E+03 0. -1.
    8880022    1    1    2    0    0 -0.11928925245E+03  0.61625835431E+02  0.37205933061E+02  0.20689031832E+03  0.15294330000E+03 0.  0.
<mgrwt>
<rscale>  0 0.49861904E+03</rscale>
<asrwt>0</asrwt>
<pdfrwt beam="1">  1        2 0.17506513E+00 0.67218887E+03</pdfrwt>
<pdfrwt beam="2">  1       -2 0.35279048E-01 0.67218887E+03</pdfrwt>
<totfact> 0.15858656E+02</totfact>
</mgrwt>
</event>
<event>
 4    1  0.3057048E-007  0.7734197E+03  0.7818608E-02  0.9771528E-01
          2   -1    0    0  501    0  0.00000000000E+00  0.00000000000E+00  0.15555445355E+04  0.15555445355E+04  0.25500000000E-02 0. -1.
         -2   -1    0    0    0  501 -0.00000000000E+00 -0.00000000000E+00 -0.27616635956E+03  0.27616635957E+03  0.25500000000E-02 0.  1.
    8880023    1    1    2    0    0  0.20891461124E+03 -0.34745148475E+03  0.44700027080E+03  0.89330134748E+03  0.65864270000E+03 0.  1.
    8880022    1    1    2    0    0 -0.20891461124E+03  0.34745148475E+03  0.83237790517E+03  0.93840954763E+03  0.15294330000E+03 0.  0.
<mgrwt>
<rscale>  0 0.66913180E+03</rscale>
<asrwt>0</asrwt>
<pdfrwt beam="1">  1        2 0.23931455E+00 0.77341971E+03</pdfrwt>
<pdfrwt beam="2">  1       -2 0.42487131E-01 0.77341971E+03</pdfrwt>
<totfact> 0.63204846E+01</totfact>
</mgrwt>
</event>
<event>
 4    1  0.3057048E-007  0.7948069E+03  0.7818608E-02  0.9722139E-01
         -2   -1    0    0    0  501 -0.00000000000E+00  0.00000000000E+00  0.50146153470E+03  0.50146153471E+03  0.25500000000E-02 0.  1.
          2   -1    0    0  501    0  0.00000000000E+00 -0.00000000000E+00 -0.15332115806E+04  0.15332115806E+04  0.25500000000E-02 0. -1.
    8880023    1    1    2    0    0  0.44165053540E+03 -0.53409437015E+02  0.10757090682E+03  0.80205328354E+03  0.65864270000E+03 0.  1.
    8880022    1    1    2    0    0 -0.44165053540E+03  0.53409437015E+02 -0.11393209527E+04  0.12326198318E+04  0.15294330000E+03 0.  0.
<mgrwt>
<rscale>  0 0.69713798E+03</rscale>
<asrwt>0</asrwt>
<pdfrwt beam="1">  1        2 0.23587870E+00 0.79480688E+03</pdfrwt>
<pdfrwt beam="2">  1       -2 0.77147929E-01 0.79480688E+03</pdfrwt>
<totfact> 0.18579480E+01</totfact>
</mgrwt>
</event>
<event>
 4    1  0.3057048E-007  0.6862496E+03  0.7818608E-02  0.1005989E+00
         -2   -1    0    0    0  501 -0.00000000000E+00  0.00000000000E+00  0.12132860127E+04  0.12132860127E+04  0.25500000000E-02 0.  1.
          2   -1    0    0  501    0  0.00000000000E+00 -0.00000000000E+00 -0.20483209390E+03  0.20483209392E+03  0.25500000000E-02 0. -1.
    8880023    1    1    2    0    0  0.22030987342E+02 -0.19142346493E+03  0.93797846697E+03  0.11622143168E+04  0.65864270000E+03 0.  0.
    8880022    1    1    2    0    0 -0.22030987342E+02  0.19142346493E+03  0.70475451805E+02  0.25590378983E+03  0.15294330000E+03 0.  0.
<mgrwt>
<rscale>  0 0.53100536E+03</rscale>
<asrwt>0</asrwt>
<pdfrwt beam="1">  1        2 0.31512630E-01 0.68624960E+03</pdfrwt>
<pdfrwt beam="2">  1       -2 0.18665939E+00 0.68624960E+03</pdfrwt>
<totfact> 0.28014959E+01</totfact>
</mgrwt>
</event>
<event>
 4    1  0.3057048E-007  0.6615048E+03  0.7818608E-02  0.1022665E+00
         -2   -1    0    0    0  501 -0.00000000000E+00  0.00000000000E+00  0.17410696917E+04  0.17410696917E+04  0.25500000000E-02 0.  1.
          2   -1    0    0  501    0  0.00000000000E+00 -0.00000000000E+00 -0.45424689772E+03  0.45424689773E+03  0.25500000000E-02 0. -1.
    8880023    1    1    2    0    0 -0.59211126052E+02  0.16504365813E+02  0.16602208742E+04  0.17871546964E+04  0.65864270000E+03 0.  1.
    8880022    1    1    2    0    0  0.59211126052E+02 -0.16504365813E+02 -0.37339808025E+03  0.40816189299E+03  0.15294330000E+03 0.  0.
<mgrwt>
<rscale>  0 0.46737012E+03</rscale>
<asrwt>0</asrwt>
<pdfrwt beam="1">  1        2 0.69884139E-01 0.66150477E+03</pdfrwt>
<pdfrwt beam="2">  1       -2 0.26785687E+00 0.66150477E+03</pdfrwt>
<totfact> 0.35968895E+00</totfact>
</mgrwt>
</event>
<event>
 4    1  0.3057048E-007  0.7255048E+03  0.7818608E-02  0.9904382E-01
         -2   -1    0    0    0  501 -0.00000000000E+00  0.00000000000E+00  0.17671121010E+04  0.17671121010E+04  0.25500000000E-02 0.  1.
          2   -1    0    0  501    0  0.00000000000E+00 -0.00000000000E+00 -0.20204041903E+03  0.20204041905E+03  0.25500000000E-02 0. -1.
    8880023    1    1    2    0    0  0.27372441905E+03 -0.13274748714E+03  0.14287124258E+04  0.16023658618E+04  0.65864270000E+03 0.  1.
    8880022    1    1    2    0    0 -0.27372441905E+03  0.13274748714E+03  0.13635925608E+03  0.36678665824E+03  0.15294330000E+03 0.  0.
<mgrwt>
<rscale>  0 0.60049405E+03</rscale>
<asrwt>0</asrwt>
<pdfrwt beam="1">  1        2 0.31083142E-01 0.72550476E+03</pdfrwt>
<pdfrwt beam="2">  1       -2 0.27186340E+00 0.72550476E+03</pdfrwt>
<totfact> 0.83485362E+00</totfact>
</mgrwt>
</event>
<event>
 4    1  0.3057048E-007  0.7345780E+03  0.7818608E-02  0.9876032E-01
          2   -1    0    0  501    0  0.00000000000E+00  0.00000000000E+00  0.23623828879E+04  0.23623828879E+04  0.25500000000E-02 0. -1.
         -2   -1    0    0    0  501 -0.00000000000E+00 -0.00000000000E+00 -0.21791631642E+03  0.21791631644E+03  0.25500000000E-02 0.  1.
    8880023    1    1    2    0    0  0.20818533108E+02  0.32459392496E+03  0.48007324528E+03  0.87753926096E+03  0.65864270000E+03 0.  0.
    8880022    1    1    2    0    0 -0.20818533108E+02 -0.32459392496E+03  0.16643933262E+04  0.17027599434E+04  0.15294330000E+03 0.  0.
<mgrwt>
<rscale>  0 0.61437069E+03</rscale>
<asrwt>0</asrwt>
<pdfrwt beam="1">  1        2 0.36344350E+00 0.73457800E+03</pdfrwt>
<pdfrwt beam="2">  1       -2 0.33525589E-01 0.73457800E+03</pdfrwt>
<totfact> 0.36178311E+01</totfact>
</mgrwt>
</event>
<event>
 4    1  0.3057048E-007  0.7442626E+03  0.7818608E-02  0.9847700E-01
          2   -1    0    0  501    0  0.00000000000E+00  0.00000000000E+00  0.18862684792E+04  0.18862684792E+04  0.25500000000E-02 0. -1.
         -2   -1    0    0    0  501 -0.00000000000E+00 -0.00000000000E+00 -0.50628734832E+03  0.50628734833E+03  0.25500000000E-02 0.  1.
    8880023    1    1    2    0    0 -0.33201498246E+03 -0.99411846654E+02 -0.19766615556E+03  0.77006413964E+03  0.65864270000E+03 0.  1.
    8880022    1    1    2    0    0  0.33201498246E+03  0.99411846654E+02  0.15776472864E+04  0.16224916878E+04  0.15294330000E+03 0.  0.
<mgrwt>
<rscale>  0 0.62864331E+03</rscale>
<asrwt>0</asrwt>
<pdfrwt beam="1">  1        2 0.29019516E+00 0.74426264E+03</pdfrwt>
<pdfrwt beam="2">  1       -2 0.77890360E-01 0.74426264E+03</pdfrwt>
<totfact> 0.11721357E+01</totfact>
</mgrwt>
</event>
<event>
 4    1  0.3057048E-007  0.6798118E+03  0.7818608E-02  0.1009430E+00
         -2   -1    0    0    0  501 -0.00000000000E+00  0.00000000000E+00  0.12377592572E+04  0.12377592572E+04  0.25500000000E-02 0.  1.
          2   -1    0    0  501    0  0.00000000000E+00 -0.00000000000E+00 -0.24538634644E+03  0.24538634645E+03  0.25500000000E-02 0. -1.
    8880023    1    1    2    0    0  0.12489068579E+03 -0.11285466437E+03  0.10478422050E+04  0.12490465770E+04  0.65864270000E+03 0.  1.
    8880022    1    1    2    0    0 -0.12489068579E+03  0.11285466437E+03 -0.55469294228E+02  0.23409902666E+03  0.15294330000E+03 0.  0.
<mgrwt>
<rscale>  0 0.51701675E+03</rscale>
<asrwt>0</asrwt>
<pdfrwt beam="1">  1        2 0.37751746E-01 0.67981179E+03</pdfrwt>
<pdfrwt beam="2">  1       -2 0.19042450E+00 0.67981179E+03</pdfrwt>
<totfact> 0.21609774E+01</totfact>
</mgrwt>
</event>
<event>
 4    1  0.3057048E-007  0.1161323E+04  0.7818608E-02  0.9195668E-01
          2   -1    0    0  501    0  0.00000000000E+00  0.00000000000E+00  0.39039628314E+04  0.39039628314E+04  0.25500000000E-02 0. -1.
         -2   -1    0    0    0  501 -0.00000000000E+00 -0.00000000000E+00 -0.68270604317E+03  0.68270604317E+03  0.25500000000E-02 0.  1.
    8880023    1    1    2    0    0  0.34987090760E+03 -0.89019713511E+03 -0.62525085600E+02  0.11630048082E+04  0.65864270000E+03 0.  0.
    8880022    1    1    2    0    0 -0.34987090760E+03  0.89019713511E+03  0.32837818738E+04  0.34236640664E+04  0.15294330000E+03 0.  0.
<mgrwt>
<rscale>  0 0.11098255E+04</rscale>
<asrwt>0</asrwt>
<pdfrwt beam="1">  1        2 0.60060966E+00 0.11613229E+04</pdfrwt>
<pdfrwt beam="2">  1       -2 0.10503170E+00 0.11613229E+04</pdfrwt>
<totfact> 0.30478727E-01</totfact>
</mgrwt>
</event>
<event>
 4    1  0.3057048E-007  0.6633072E+03  0.7818608E-02  0.1020998E+00
         -2   -1    0    0    0  501 -0.00000000000E+00  0.00000000000E+00  0.50030261676E+03  0.50030261676E+03  0.25500000000E-02 0.  1.
          2   -1    0    0  501    0  0.00000000000E+00 -0.00000000000E+00 -0.11513703867E+04  0.11513703867E+04  0.25500000000E-02 0. -1.
    8880023    1    1    2    0    0  0.73687643473E+02  0.27136733325E+02  0.26892832758E+03  0.71575060093E+03  0.65864270000E+03 0.  1.
    8880022    1    1    2    0    0 -0.73687643473E+02 -0.27136733325E+02 -0.91999609753E+03  0.93592240255E+03  0.15294330000E+03 0.  0.
<mgrwt>
<rscale>  0 0.47328233E+03</rscale>
<asrwt>0</asrwt>
<pdfrwt beam="1">  1        2 0.17713391E+00 0.66330723E+03</pdfrwt>
<pdfrwt beam="2">  1       -2 0.76969634E-01 0.66330723E+03</pdfrwt>
<totfact> 0.31384414E+01</totfact>
</mgrwt>
</event>
<event>
 4    1  0.3057048E-007  0.9404991E+03  0.7818608E-02  0.9463918E-01
         -2   -1    0    0    0  501 -0.00000000000E+00  0.00000000000E+00  0.12190532146E+04  0.12190532146E+04  0.25500000000E-02 0.  1.
          2   -1    0    0  501    0  0.00000000000E+00 -0.00000000000E+00 -0.11885938585E+04  0.11885938585E+04  0.25500000000E-02 0. -1.
    8880023    1    1    2    0    0 -0.42057633555E+03  0.52330100269E+03  0.89779545991E+03  0.13002212456E+04  0.65864270000E+03 0.  1.
    8880022    1    1    2    0    0  0.42057633555E+03 -0.52330100269E+03 -0.86733610385E+03  0.11074258275E+04  0.15294330000E+03 0.  0.
<mgrwt>
<rscale>  0 0.86997112E+03</rscale>
<asrwt>0</asrwt>
<pdfrwt beam="1">  1        2 0.18286059E+00 0.94049912E+03</pdfrwt>
<pdfrwt beam="2">  1       -2 0.18754665E+00 0.94049912E+03</pdfrwt>
<totfact> 0.30940114E+00</totfact>
</mgrwt>
</event>
<event>
 4    1  0.3057048E-007  0.1661621E+04  0.7818608E-02  0.8803211E-01
          2   -1    0    0  501    0  0.00000000000E+00  0.00000000000E+00  0.15707346379E+04  0.15707346379E+04  0.25500000000E-02 0. -1.
         -2   -1    0    0    0  501 -0.00000000000E+00 -0.00000000000E+00 -0.16299994125E+04  0.16299994125E+04  0.25500000000E-02 0.  1.
    8880023    1    1    2    0    0  0.50870651230E+03 -0.14381903997E+04 -0.12375288997E+03  0.16662229519E+04  0.65864270000E+03 0.  1.
    8880022    1    1    2    0    0 -0.50870651230E+03  0.14381903997E+04  0.64488115316E+02  0.15345110985E+04  0.15294330000E+03 0. -1.
<mgrwt>
<rscale>  0 0.16285291E+04</rscale>
<asrwt>0</asrwt>
<pdfrwt beam="1">  1        2 0.24165148E+00 0.16616209E+04</pdfrwt>
<pdfrwt beam="2">  1       -2 0.25076914E+00 0.16616209E+04</pdfrwt>
<totfact> 0.68151494E-01</totfact>
</mgrwt>
</event>
<event>
 4    1  0.3057048E-007  0.7458089E+03  0.7818608E-02  0.9843338E-01
         -2   -1    0    0    0  501 -0.00000000000E+00  0.00000000000E+00  0.11020571650E+04  0.11020571650E+04  0.25500000000E-02 0.  1.
          2   -1    0    0  501    0  0.00000000000E+00 -0.00000000000E+00 -0.11564488314E+04  0.11564488314E+04  0.25500000000E-02 0. -1.
    8880023    1    1    2    0    0  0.28601329646E+03 -0.20153687447E+03  0.93614678807E+03  0.11969134190E+04  0.65864270000E+03 0.  1.
    8880022    1    1    2    0    0 -0.28601329646E+03  0.20153687447E+03 -0.99053845450E+03  0.10615925774E+04  0.15294330000E+03 0.  0.
<mgrwt>
<rscale>  0 0.63087740E+03</rscale>
<asrwt>0</asrwt>
<pdfrwt beam="1">  1        2 0.17791521E+00 0.74580891E+03</pdfrwt>
<pdfrwt beam="2">  1       -2 0.16954726E+00 0.74580891E+03</pdfrwt>
<totfact> 0.44195833E+00</totfact>
</mgrwt>
</event>
<event>
 4    1  0.3057048E-007  0.7583176E+03  0.7818608E-02  0.9809483E-01
          2   -1    0    0  501    0  0.00000000000E+00  0.00000000000E+00  0.14031809696E+04  0.14031809696E+04  0.25500000000E-02 0. -1.
         -2   -1    0    0    0  501 -0.00000000000E+00 -0.00000000000E+00 -0.35739094589E+03  0.35739094590E+03  0.25500000000E-02 0.  1.
    8880023    1    1    2    0    0 -0.18942502580E+03  0.32458210175E+03  0.14422215647E+03  0.77191036906E+03  0.65864270000E+03 0.  1.
    8880022    1    1    2    0    0  0.18942502580E+03 -0.32458210175E+03  0.90156786723E+03  0.98866154644E+03  0.15294330000E+03 0.  0.
<mgrwt>
<rscale>  0 0.64856125E+03</rscale>
<asrwt>0</asrwt>
<pdfrwt beam="1">  1        2 0.21587400E+00 0.75831760E+03</pdfrwt>
<pdfrwt beam="2">  1       -2 0.54983222E-01 0.75831760E+03</pdfrwt>
<totfact> 0.45715137E+01</totfact>
</mgrwt>
</event>
<event>
 4    1  0.3057048E-007  0.1240930E+04  0.7818608E-02  0.9118327E-01
          2   -1    0    0  501    0  0.00000000000E+00  0.00000000000E+00  0.19418257201E+04  0.19418257201E+04  0.25500000000E-02 0. -1.
         -2   -1    0    0    0  501 -0.00000000000E+00 -0.00000000000E+00 -0.85828301206E+03  0.85828301207E+03  0.25500000000E-02 0.  1.
    8880023    1    1    2    0    0  0.36378116828E+03 -0.98679339631E+03 -0.55608613973E+02  0.12421757000E+04  0.65864270000E+03 0.  1.
    8880022    1    1    2    0    0 -0.36378116828E+03  0.98679339631E+03  0.11391513220E+04  0.15579330322E+04  0.15294330000E+03 0.  0.
<mgrwt>
<rscale>  0 0.11937705E+04</rscale>
<asrwt>0</asrwt>
<pdfrwt beam="1">  1        2 0.29874241E+00 0.12409304E+04</pdfrwt>
<pdfrwt beam="2">  1       -2 0.13204354E+00 0.12409304E+04</pdfrwt>
<totfact> 0.29159967E+00</totfact>
</mgrwt>
</event>
<event>
 4    1  0.3057048E-007  0.7565209E+03  0.7818608E-02  0.9814199E-01
         -2   -1    0    0    0  501 -0.00000000000E+00  0.00000000000E+00  0.15901680264E+03  0.15901680266E+03  0.25500000000E-02 0.  1.
          2   -1    0    0  501    0  0.00000000000E+00 -0.00000000000E+00 -0.23775322503E+04  0.23775322503E+04  0.25500000000E-02 0. -1.
    8880023    1    1    2    0    0  0.15136897077E+03  0.34000168114E+03 -0.10040089824E+04  0.12571228864E+04  0.65864270000E+03 0.  0.
    8880022    1    1    2    0    0 -0.15136897077E+03 -0.34000168114E+03 -0.12145064653E+04  0.12794261666E+04  0.15294330000E+03 0.  0.
<mgrwt>
<rscale>  0 0.64606076E+03</rscale>
<asrwt>0</asrwt>
<pdfrwt beam="1">  1        2 0.36577417E+00 0.75652093E+03</pdfrwt>
<pdfrwt beam="2">  1       -2 0.24464125E-01 0.75652093E+03</pdfrwt>
<totfact> 0.63231663E+01</totfact>
</mgrwt>
</event>
<event>
 4    1  0.3057048E-007  0.9712319E+03  0.7818608E-02  0.9420202E-01
         -2   -1    0    0    0  501 -0.00000000000E+00  0.00000000000E+00  0.54419268669E+03  0.54419268670E+03  0.25500000000E-02 0.  1.
          2   -1    0    0  501    0  0.00000000000E+00 -0.00000000000E+00 -0.26506565888E+04  0.26506565888E+04  0.25500000000E-02 0. -1.
    8880023    1    1    2    0    0 -0.58451196828E+03 -0.40966696237E+03 -0.61030050004E+01  0.97125110762E+03  0.65864270000E+03 0.  0.
    8880022    1    1    2    0    0  0.58451196828E+03  0.40966696237E+03 -0.21003608971E+04  0.22235981679E+04  0.15294330000E+03 0.  0.
<mgrwt>
<rscale>  0 0.90431591E+03</rscale>
<asrwt>0</asrwt>
<pdfrwt beam="1">  1        2 0.40779331E+00 0.97123193E+03</pdfrwt>
<pdfrwt beam="2">  1       -2 0.83721953E-01 0.97123193E+03</pdfrwt>
<totfact> 0.36038079E+00</totfact>
</mgrwt>
</event>
<event>
 4    1  0.3057048E-007  0.6974438E+03  0.7818608E-02  0.1000797E+00
          2   -1    0    0  501    0  0.00000000000E+00  0.00000000000E+00  0.13696154963E+04  0.13696154963E+04  0.25500000000E-02 0. -1.
         -2   -1    0    0    0  501 -0.00000000000E+00 -0.00000000000E+00 -0.19885015784E+03  0.19885015786E+03  0.25500000000E-02 0.  1.
    8880023    1    1    2    0    0  0.98627762991E+02 -0.20709964600E+03  0.54657307542E+03  0.88609820677E+03  0.65864270000E+03 0.  1.
    8880022    1    1    2    0    0 -0.98627762991E+02  0.20709964600E+03  0.62419226304E+03  0.68236744739E+03  0.15294330000E+03 0.  1.
<mgrwt>
<rscale>  0 0.55301933E+03</rscale>
<asrwt>0</asrwt>
<pdfrwt beam="1">  1        2 0.21071007E+00 0.69744384E+03</pdfrwt>
<pdfrwt beam="2">  1       -2 0.30592332E-01 0.69744384E+03</pdfrwt>
<totfact> 0.15168412E+02</totfact>
</mgrwt>
</event>
<event>
 4    1  0.3057048E-007  0.8385467E+03  0.7818608E-02  0.9632927E-01
         -2   -1    0    0    0  501 -0.00000000000E+00  0.00000000000E+00  0.27736124627E+03  0.27736124628E+03  0.25500000000E-02 0.  1.
          2   -1    0    0  501    0  0.00000000000E+00 -0.00000000000E+00 -0.23665009101E+04  0.23665009101E+04  0.25500000000E-02 0. -1.
    8880023    1    1    2    0    0 -0.47775518683E+03 -0.20273207170E+03 -0.52632703331E+03  0.99004073840E+03  0.65864270000E+03 0.  0.
    8880022    1    1    2    0    0  0.47775518683E+03  0.20273207170E+03 -0.15628126305E+04  0.16538214179E+04  0.15294330000E+03 0.  0.
<mgrwt>
<rscale>  0 0.75154684E+03</rscale>
<asrwt>0</asrwt>
<pdfrwt beam="1">  1        2 0.36407705E+00 0.83854667E+03</pdfrwt>
<pdfrwt beam="2">  1       -2 0.42670963E-01 0.83854667E+03</pdfrwt>
<totfact> 0.22264987E+01</totfact>
</mgrwt>
</event>
<event>
 4    1  0.3057048E-007  0.7912323E+03  0.7818608E-02  0.9730084E-01
          2   -1    0    0  501    0  0.00000000000E+00  0.00000000000E+00  0.26513716823E+04  0.26513716823E+04  0.25500000000E-02 0. -1.
         -2   -1    0    0    0  501 -0.00000000000E+00 -0.00000000000E+00 -0.22566776589E+03  0.22566776591E+03  0.25500000000E-02 0.  1.
    8880023    1    1    2    0    0 -0.42417008190E+03 -0.11098714460E+03  0.59943261493E+03  0.99265707611E+03  0.65864270000E+03 0.  1.
    8880022    1    1    2    0    0  0.42417008190E+03  0.11098714460E+03  0.18262713015E+04  0.18843823721E+04  0.15294330000E+03 0.  0.
<mgrwt>
<rscale>  0 0.69253493E+03</rscale>
<asrwt>0</asrwt>
<pdfrwt beam="1">  1        2 0.40790335E+00 0.79123234E+03</pdfrwt>
<pdfrwt beam="2">  1       -2 0.34718116E-01 0.79123234E+03</pdfrwt>
<totfact> 0.23015145E+01</totfact>
</mgrwt>
</event>
<event>
 4    1  0.3057048E-007  0.1345517E+04  0.7818608E-02  0.9027217E-01
         -2   -1    0    0    0  501 -0.00000000000E+00  0.00000000000E+00  0.93582263753E+03  0.93582263753E+03  0.25500000000E-02 0.  1.
          2   -1    0    0  501    0  0.00000000000E+00 -0.00000000000E+00 -0.29377823495E+04  0.29377823495E+04  0.25500000000E-02 0. -1.
    8880023    1    1    2    0    0  0.96429595814E+03 -0.66838587003E+03  0.21314337165E+03  0.13622946338E+04  0.65864270000E+03 0.  0.
    8880022    1    1    2    0    0 -0.96429595814E+03  0.66838587003E+03 -0.22151030837E+04  0.25113103533E+04  0.15294330000E+03 0.  0.
<mgrwt>
<rscale>  0 0.13029654E+04</rscale>
<asrwt>0</asrwt>
<pdfrwt beam="1">  1        2 0.45196651E+00 0.13455172E+04</pdfrwt>
<pdfrwt beam="2">  1       -2 0.14397272E+00 0.13455172E+04</pdfrwt>
<totfact> 0.61374497E-01</totfact>
</mgrwt>
</event>
<event>
 4    1  0.3057048E-007  0.7480678E+03  0.7818608E-02  0.9837040E-01
          2   -1    0    0  501    0  0.00000000000E+00  0.00000000000E+00  0.55833599178E+03  0.55833599178E+03  0.25500000000E-02 0. -1.
         -2   -1    0    0    0  501 -0.00000000000E+00 -0.00000000000E+00 -0.81050472512E+03  0.81050472513E+03  0.25500000000E-02 0.  1.
    8880023    1    1    2    0    0  0.20237688822E+03  0.29127095135E+03 -0.50916670683E+03  0.90490668778E+03  0.65864270000E+03 0.  1.
    8880022    1    1    2    0    0 -0.20237688822E+03 -0.29127095135E+03  0.25699797348E+03  0.46393402912E+03  0.15294330000E+03 0.  0.
<mgrwt>
<rscale>  0 0.63412082E+03</rscale>
<asrwt>0</asrwt>
<pdfrwt beam="1">  1        2 0.85897844E-01 0.74806776E+03</pdfrwt>
<pdfrwt beam="2">  1       -2 0.12469304E+00 0.74806776E+03</pdfrwt>
<totfact> 0.26426211E+01</totfact>
</mgrwt>
</event>
<event>
 4    1  0.3057048E-007  0.8251481E+03  0.7818608E-02  0.9658848E-01
         -2   -1    0    0    0  501 -0.00000000000E+00  0.00000000000E+00  0.18262272491E+03  0.18262272493E+03  0.25500000000E-02 0.  1.
          2   -1    0    0  501    0  0.00000000000E+00 -0.00000000000E+00 -0.24985086791E+04  0.24985086791E+04  0.25500000000E-02 0. -1.
    8880023    1    1    2    0    0 -0.94544466172E+02 -0.48797586868E+03 -0.12976586827E+04  0.15377865156E+04  0.65864270000E+03 0. -1.
    8880022    1    1    2    0    0  0.94544466172E+02  0.48797586868E+03 -0.10182272715E+04  0.11433448884E+04  0.15294330000E+03 0.  1.
<mgrwt>
<rscale>  0 0.73520751E+03</rscale>
<asrwt>0</asrwt>
<pdfrwt beam="1">  1        2 0.38438593E+00 0.82514805E+03</pdfrwt>
<pdfrwt beam="2">  1       -2 0.28095806E-01 0.82514805E+03</pdfrwt>
<totfact> 0.41656151E+01</totfact>
</mgrwt>
</event>
<event>
 4    1  0.3057048E-007  0.7559618E+03  0.7818608E-02  0.9815676E-01
          2   -1    0    0  501    0  0.00000000000E+00  0.00000000000E+00  0.12288892138E+04  0.12288892138E+04  0.25500000000E-02 0. -1.
         -2   -1    0    0    0  501 -0.00000000000E+00 -0.00000000000E+00 -0.30072499044E+03  0.30072499045E+03  0.25500000000E-02 0.  1.
    8880023    1    1    2    0    0 -0.14505788145E+02 -0.37075281715E+03  0.81719520023E+03  0.11132323526E+04  0.65864270000E+03 0. -1.
    8880022    1    1    2    0    0  0.14505788145E+02  0.37075281715E+03  0.11096902318E+03  0.41638185171E+03  0.15294330000E+03 0. -1.
<mgrwt>
<rscale>  0 0.64528009E+03</rscale>
<asrwt>0</asrwt>
<pdfrwt beam="1">  1        2 0.18905988E+00 0.75596182E+03</pdfrwt>
<pdfrwt beam="2">  1       -2 0.46265384E-01 0.75596182E+03</pdfrwt>
<totfact> 0.81911244E+01</totfact>
</mgrwt>
</event>
<event>
 4    1  0.3057048E-007  0.6767629E+03  0.7818608E-02  0.1011217E+00
          2   -1    0    0  501    0  0.00000000000E+00  0.00000000000E+00  0.30538576495E+03  0.30538576496E+03  0.25500000000E-02 0. -1.
         -2   -1    0    0    0  501 -0.00000000000E+00 -0.00000000000E+00 -0.66281609528E+03  0.66281609529E+03  0.25500000000E-02 0.  1.
    8880023    1    1    2    0    0 -0.10436657992E+03  0.11534905125E+03 -0.22591099896E+03  0.71347303547E+03  0.65864270000E+03 0. -1.
    8880022    1    1    2    0    0  0.10436657992E+03 -0.11534905125E+03 -0.13151933138E+03  0.25472882478E+03  0.15294330000E+03 0.  1.
<mgrwt>
<rscale>  0 0.50993664E+03</rscale>
<asrwt>0</asrwt>
<pdfrwt beam="1">  1        2 0.46982425E-01 0.67676288E+03</pdfrwt>
<pdfrwt beam="2">  1       -2 0.10197171E+00 0.67676288E+03</pdfrwt>
<totfact> 0.86018520E+01</totfact>
</mgrwt>
</event>
<event>
 4    1  0.3057048E-007  0.6654952E+03  0.7818608E-02  0.1019122E+00
         -2   -1    0    0    0  501 -0.00000000000E+00  0.00000000000E+00  0.11531994848E+04  0.11531994848E+04  0.25500000000E-02 0.  1.
          2   -1    0    0  501    0  0.00000000000E+00 -0.00000000000E+00 -0.49660224955E+03  0.49660224956E+03  0.25500000000E-02 0. -1.
    8880023    1    1    2    0    0 -0.59548175575E+02  0.74348107651E+02  0.10351144212E+04  0.12305875416E+04  0.65864270000E+03 0.  1.
    8880022    1    1    2    0    0  0.59548175575E+02 -0.74348107651E+02 -0.37851718595E+03  0.41921419275E+03  0.15294330000E+03 0.  0.
<mgrwt>
<rscale>  0 0.48004956E+03</rscale>
<asrwt>0</asrwt>
<pdfrwt beam="1">  1        2 0.76400347E-01 0.66549518E+03</pdfrwt>
<pdfrwt beam="2">  1       -2 0.17741530E+00 0.66549518E+03</pdfrwt>
<totfact> 0.12028133E+01</totfact>
</mgrwt>
</event>
<event>
 4    1  0.3057048E-007  0.7045105E+03  0.7818608E-02  0.9978980E-01
         -2   -1    0    0    0  501 -0.00000000000E+00  0.00000000000E+00  0.80190384347E+03  0.80190384348E+03  0.25500000000E-02 0.  1.
          2   -1    0    0  501    0  0.00000000000E+00 -0.00000000000E+00 -0.61047734774E+03  0.61047734774E+03  0.25500000000E-02 0. -1.
    8880023    1    1    2    0    0  0.22258128774E+03 -0.11394012340E+03  0.58910165233E+03  0.91835491201E+03  0.65864270000E+03 0.  1.
    8880022    1    1    2    0    0 -0.22258128774E+03  0.11394012340E+03 -0.39767515659E+03  0.49402627921E+03  0.15294330000E+03 0.  0.
<mgrwt>
<rscale>  0 0.56581586E+03</rscale>
<asrwt>0</asrwt>
<pdfrwt beam="1">  1        2 0.93919592E-01 0.70451046E+03</pdfrwt>
<pdfrwt beam="2">  1       -2 0.12336982E+00 0.70451046E+03</pdfrwt>
<totfact> 0.24479636E+01</totfact>
</mgrwt>
</event>
<event>
 4    1  0.3057048E-007  0.7938058E+03  0.7818608E-02  0.9724353E-01
         -2   -1    0    0    0  501 -0.00000000000E+00  0.00000000000E+00  0.55945640524E+03  0.55945640524E+03  0.25500000000E-02 0.  1.
          2   -1    0    0  501    0  0.00000000000E+00 -0.00000000000E+00 -0.16334100668E+04  0.16334100668E+04  0.25500000000E-02 0. -1.
    8880023    1    1    2    0    0 -0.40865300644E+03  0.17123118000E+03  0.21410385782E+03  0.82217277070E+03  0.65864270000E+03 0.  0.
    8880022    1    1    2    0    0  0.40865300644E+03 -0.17123118000E+03 -0.12880575194E+04  0.13706937014E+04  0.15294330000E+03 0.  0.
<mgrwt>
<rscale>  0 0.69585168E+03</rscale>
<asrwt>0</asrwt>
<pdfrwt beam="1">  1        2 0.25129386E+00 0.79380577E+03</pdfrwt>
<pdfrwt beam="2">  1       -2 0.86070217E-01 0.79380577E+03</pdfrwt>
<totfact> 0.12773015E+01</totfact>
</mgrwt>
</event>
<event>
 4    1  0.3057048E-007  0.7873786E+03  0.7818608E-02  0.9738781E-01
          2   -1    0    0  501    0  0.00000000000E+00  0.00000000000E+00  0.16659107250E+04  0.16659107250E+04  0.25500000000E-02 0. -1.
         -2   -1    0    0    0  501 -0.00000000000E+00 -0.00000000000E+00 -0.39901884791E+03  0.39901884792E+03  0.25500000000E-02 0.  1.
    8880023    1    1    2    0    0  0.11999538851E+03 -0.41443459097E+03  0.78332419494E+02  0.79126550390E+03  0.65864270000E+03 0.  1.
    8880022    1    1    2    0    0 -0.11999538851E+03  0.41443459097E+03  0.11885594576E+04  0.12736640690E+04  0.15294330000E+03 0.  0.
<mgrwt>
<rscale>  0 0.68753972E+03</rscale>
<asrwt>0</asrwt>
<pdfrwt beam="1">  1        2 0.25629396E+00 0.78737864E+03</pdfrwt>
<pdfrwt beam="2">  1       -2 0.61387515E-01 0.78737864E+03</pdfrwt>
<totfact> 0.25833301E+01</totfact>
</mgrwt>
</event>
<event>
 4    1  0.3057048E-007  0.6727524E+03  0.7818608E-02  0.1013762E+00
         -2   -1    0    0    0  501 -0.00000000000E+00  0.00000000000E+00  0.20128431359E+03  0.20128431360E+03  0.25500000000E-02 0.  1.
          2   -1    0    0  501    0  0.00000000000E+00 -0.00000000000E+00 -0.44293955312E+04  0.44293955312E+04  0.25500000000E-02 0. -1.
    8880023    1    1    2    0    0  0.97609454519E+02  0.96218367187E+02 -0.37131746605E+03  0.76842204982E+03  0.65864270000E+03 0.  1.
    8880022    1    1    2    0    0 -0.97609454519E+02 -0.96218367187E+02 -0.38567937515E+04  0.38622577950E+04  0.15294330000E+03 0.  0.
<mgrwt>
<rscale>  0 0.50006470E+03</rscale>
<asrwt>0</asrwt>
<pdfrwt beam="1">  1        2 0.68144539E+00 0.67275240E+03</pdfrwt>
<pdfrwt beam="2">  1       -2 0.30966821E-01 0.67275240E+03</pdfrwt>
<totfact> 0.16075135E+00</totfact>
</mgrwt>
</event>
<event>
 4    1  0.3057048E-007  0.7295153E+03  0.7818608E-02  0.9891613E-01
         -2   -1    0    0    0  501 -0.00000000000E+00  0.00000000000E+00  0.24978175917E+03  0.24978175919E+03  0.25500000000E-02 0.  1.
          2   -1    0    0  501    0  0.00000000000E+00 -0.00000000000E+00 -0.29634072853E+04  0.29634072853E+04  0.25500000000E-02 0. -1.
    8880023    1    1    2    0    0 -0.96548891851E+02  0.29843034721E+03 -0.32401746144E+03  0.79823548044E+03  0.65864270000E+03 0.  1.
    8880022    1    1    2    0    0  0.96548891851E+02 -0.29843034721E+03 -0.23896080647E+04  0.24149535641E+04  0.15294330000E+03 0.  0.
<mgrwt>
<rscale>  0 0.60669460E+03</rscale>
<asrwt>0</asrwt>
<pdfrwt beam="1">  1        2 0.45590879E+00 0.72951530E+03</pdfrwt>
<pdfrwt beam="2">  1       -2 0.38427965E-01 0.72951530E+03</pdfrwt>
<totfact> 0.12498493E+01</totfact>
</mgrwt>
</event>
<event>
 4    1  0.3057048E-007  0.1111432E+04  0.7818608E-02  0.9248433E-01
         -2   -1    0    0    0  501 -0.00000000000E+00  0.00000000000E+00  0.46333385826E+03  0.46333385827E+03  0.25500000000E-02 0.  1.
          2   -1    0    0  501    0  0.00000000000E+00 -0.00000000000E+00 -0.25652222039E+04  0.25652222039E+04  0.25500000000E-02 0. -1.
    8880023    1    1    2    0    0 -0.15927988329E+02 -0.89510789766E+03 -0.57347768892E+03  0.12506633101E+04  0.65864270000E+03 0.  0.
    8880022    1    1    2    0    0  0.15927988329E+02  0.89510789766E+03 -0.15284106567E+04  0.17778927520E+04  0.15294330000E+03 0.  0.
<mgrwt>
<rscale>  0 0.10567203E+04</rscale>
<asrwt>0</asrwt>
<pdfrwt beam="1">  1        2 0.39464956E+00 0.11114324E+04</pdfrwt>
<pdfrwt beam="2">  1       -2 0.71282134E-01 0.11114324E+04</pdfrwt>
<totfact> 0.56885330E+00</totfact>
</mgrwt>
</event>
<event>
 4    1  0.3713157E-007  0.9287009E+03  0.7818608E-02  0.9481445E-01
         -2   -1    0    0    0  501 -0.00000000000E+00  0.00000000000E+00  0.14678463215E+04  0.14678463215E+04  0.25500000000E-02 0.  1.
          2   -1    0    0  501    0  0.00000000000E+00 -0.00000000000E+00 -0.21345074476E+04  0.21345074476E+04  0.25500000000E-02 0. -1.
    8880023    1    1    2    0    0  0.53339840746E+02  0.65255648638E+03  0.12579808235E+04  0.15636499177E+04  0.65864270000E+03 0.  0.
    8880022    1    1    2    0    0 -0.53339840746E+02 -0.65255648638E+03 -0.19246419496E+04  0.20387038514E+04  0.15294330000E+03 0.  0.
<mgrwt>
<rscale>  0 0.85665748E+03</rscale>
<asrwt>0</asrwt>
<pdfrwt beam="1">  1        2 0.32838576E+00 0.92870087E+03</pdfrwt>
<pdfrwt beam="2">  1       -2 0.22582251E+00 0.92870087E+03</pdfrwt>
<totfact> 0.51805631E-01</totfact>
</mgrwt>
</event>
<event>
 4    1  0.3057048E-007  0.8040961E+03  0.7818608E-02  0.9702009E-01
          2   -1    0    0  501    0  0.00000000000E+00  0.00000000000E+00  0.12844712440E+04  0.12844712440E+04  0.25500000000E-02 0. -1.
         -2   -1    0    0    0  501 -0.00000000000E+00 -0.00000000000E+00 -0.60794550457E+03  0.60794550457E+03  0.25500000000E-02 0.  1.
    8880023    1    1    2    0    0 -0.39747495179E+03  0.23403830735E+03 -0.25347873710E+03  0.84310256970E+03  0.65864270000E+03 0.  1.
    8880022    1    1    2    0    0  0.39747495179E+03 -0.23403830735E+03  0.93000447652E+03  0.10493141789E+04  0.15294330000E+03 0.  0.
<mgrwt>
<rscale>  0 0.70897331E+03</rscale>
<asrwt>0</asrwt>
<pdfrwt beam="1">  1        2 0.19761096E+00 0.80409606E+03</pdfrwt>
<pdfrwt beam="2">  1       -2 0.93530079E-01 0.80409606E+03</pdfrwt>
<totfact> 0.16549155E+01</totfact>
</mgrwt>
</event>
<event>
 4    1  0.3057048E-007  0.8494447E+03  0.7818608E-02  0.9612622E-01
         -2   -1    0    0    0  501 -0.00000000000E+00  0.00000000000E+00  0.34441557760E+03  0.34441557761E+03  0.25500000000E-02 0.  1.
          2   -1    0    0  501    0  0.00000000000E+00 -0.00000000000E+00 -0.20940427663E+04  0.20940427663E+04  0.25500000000E-02 0. -1.
    8880023    1    1    2    0    0  0.49552561935E+03 -0.20542740602E+03 -0.32669557763E+03  0.91010233781E+03  0.65864270000E+03 0.  1.
    8880022    1    1    2    0    0 -0.49552561935E+03  0.20542740602E+03 -0.14229316110E+04  0.15283560061E+04  0.15294330000E+03 0.  0.
<mgrwt>
<rscale>  0 0.76466358E+03</rscale>
<asrwt>0</asrwt>
<pdfrwt beam="1">  1        2 0.32216042E+00 0.84944468E+03</pdfrwt>
<pdfrwt beam="2">  1       -2 0.52987013E-01 0.84944468E+03</pdfrwt>
<totfact> 0.20336545E+01</totfact>
</mgrwt>
</event>
<event>
 4    1  0.3057048E-007  0.6806389E+03  0.7818608E-02  0.1008965E+00
          2   -1    0    0  501    0  0.00000000000E+00  0.00000000000E+00  0.14936625786E+04  0.14936625786E+04  0.25500000000E-02 0. -1.
         -2   -1    0    0    0  501 -0.00000000000E+00 -0.00000000000E+00 -0.20154476859E+03  0.20154476861E+03  0.25500000000E-02 0.  1.
    8880023    1    1    2    0    0 -0.12233990672E+03 -0.12038281720E+03  0.43494557858E+03  0.80774187587E+03  0.65864270000E+03 0.  1.
    8880022    1    1    2    0    0  0.12233990672E+03  0.12038281720E+03  0.85717223146E+03  0.88746547136E+03  0.15294330000E+03 0. -1.
<mgrwt>
<rscale>  0 0.51888240E+03</rscale>
<asrwt>0</asrwt>
<pdfrwt beam="1">  1        2 0.22979425E+00 0.68063888E+03</pdfrwt>
<pdfrwt beam="2">  1       -2 0.31006886E-01 0.68063888E+03</pdfrwt>
<totfact> 0.12621940E+02</totfact>
</mgrwt>
</event>
<event>
 4    1  0.3057048E-007  0.9758556E+03  0.7818608E-02  0.9413851E-01
         -2   -1    0    0    0  501 -0.00000000000E+00  0.00000000000E+00  0.80170930928E+03  0.80170930928E+03  0.25500000000E-02 0.  1.
          2   -1    0    0  501    0  0.00000000000E+00 -0.00000000000E+00 -0.41064767408E+04  0.41064767408E+04  0.25500000000E-02 0. -1.
    8880023    1    1    2    0    0  0.70392237359E+03 -0.15158226598E+03  0.45522584954E+03  0.10768122732E+04  0.65864270000E+03 0.  0.
    8880022    1    1    2    0    0 -0.70392237359E+03  0.15158226598E+03 -0.37599932811E+04  0.38313737769E+04  0.15294330000E+03 0.  0.
<mgrwt>
<rscale>  0 0.90944534E+03</rscale>
<asrwt>0</asrwt>
<pdfrwt beam="1">  1        2 0.63176564E+00 0.97585557E+03</pdfrwt>
<pdfrwt beam="2">  1       -2 0.12333990E+00 0.97585557E+03</pdfrwt>
<totfact> 0.14677191E-01</totfact>
</mgrwt>
</event>
<event>
 4    1  0.3057048E-007  0.6692886E+03  0.7818608E-02  0.1016178E+00
          2   -1    0    0  501    0  0.00000000000E+00  0.00000000000E+00  0.41070161639E+03  0.41070161640E+03  0.25500000000E-02 0. -1.
         -2   -1    0    0    0  501 -0.00000000000E+00 -0.00000000000E+00 -0.46909966733E+03  0.46909966733E+03  0.25500000000E-02 0.  1.
    8880023    1    1    2    0    0 -0.10326846169E+03  0.58929183854E+02  0.22972279557E+02  0.66968272770E+03  0.65864270000E+03 0. -1.
    8880022    1    1    2    0    0  0.10326846169E+03 -0.58929183854E+02 -0.81370330492E+02  0.21011855603E+03  0.15294330000E+03 0.  1.
<mgrwt>
<rscale>  0 0.49091407E+03</rscale>
<asrwt>0</asrwt>
<pdfrwt beam="1">  1        2 0.63184864E-01 0.66928860E+03</pdfrwt>
<pdfrwt beam="2">  1       -2 0.72169179E-01 0.66928860E+03</pdfrwt>
<totfact> 0.13604504E+02</totfact>
</mgrwt>
</event>
<event>
 4    1  0.3057048E-007  0.6674118E+03  0.7818608E-02  0.1017590E+00
         -2   -1    0    0    0  501 -0.00000000000E+00  0.00000000000E+00  0.40735236823E+03  0.40735236824E+03  0.25500000000E-02 0.  1.
          2   -1    0    0  501    0  0.00000000000E+00 -0.00000000000E+00 -0.10388997694E+04  0.10388997694E+04  0.25500000000E-02 0. -1.
    8880023    1    1    2    0    0  0.51678291306E+02 -0.94644955185E+02  0.11443864329E+03  0.67715191994E+03  0.65864270000E+03 0.  1.
    8880022    1    1    2    0    0 -0.51678291306E+02  0.94644955185E+02 -0.74598604445E+03  0.76910021769E+03  0.15294330000E+03 0.  0.
<mgrwt>
<rscale>  0 0.48566284E+03</rscale>
<asrwt>0</asrwt>
<pdfrwt beam="1">  1        2 0.15983073E+00 0.66741181E+03</pdfrwt>
<pdfrwt beam="2">  1       -2 0.62669596E-01 0.66741181E+03</pdfrwt>
<totfact> 0.57470868E+01</totfact>
</mgrwt>
</event>
<event>
 4    1  0.3057048E-007  0.7430692E+03  0.7818608E-02  0.9851095E-01
          2   -1    0    0  501    0  0.00000000000E+00  0.00000000000E+00  0.17950931013E+04  0.17950931013E+04  0.25500000000E-02 0. -1.
         -2   -1    0    0    0  501 -0.00000000000E+00 -0.00000000000E+00 -0.34401610270E+03  0.34401610271E+03  0.25500000000E-02 0.  1.
    8880023    1    1    2    0    0 -0.30040102810E+03  0.16763302165E+03  0.11612640313E+03  0.75208852897E+03  0.65864270000E+03 0.  1.
    8880022    1    1    2    0    0  0.30040102810E+03 -0.16763302165E+03  0.13349505955E+04  0.13870206750E+04  0.15294330000E+03 0.  0.
<mgrwt>
<rscale>  0 0.62691103E+03</rscale>
<asrwt>0</asrwt>
<pdfrwt beam="1">  1        2 0.27616818E+00 0.74306919E+03</pdfrwt>
<pdfrwt beam="2">  1       -2 0.52925552E-01 0.74306919E+03</pdfrwt>
<totfact> 0.30095798E+01</totfact>
</mgrwt>
</event>
<event>
 4    1  0.3057048E-007  0.1090961E+04  0.7818608E-02  0.9271188E-01
          2   -1    0    0  501    0  0.00000000000E+00  0.00000000000E+00  0.31218252693E+04  0.31218252693E+04  0.25500000000E-02 0. -1.
         -2   -1    0    0    0  501 -0.00000000000E+00 -0.00000000000E+00 -0.58559395267E+03  0.58559395267E+03  0.25500000000E-02 0.  1.
    8880023    1    1    2    0    0  0.81292408470E+03 -0.30909400005E+03  0.76106922306E+02  0.10936119688E+04  0.65864270000E+03 0.  0.
    8880022    1    1    2    0    0 -0.81292408470E+03  0.30909400005E+03  0.24601243943E+04  0.26138072532E+04  0.15294330000E+03 0.  0.
<mgrwt>
<rscale>  0 0.10347919E+04</rscale>
<asrwt>0</asrwt>
<pdfrwt beam="1">  1        2 0.48028082E+00 0.10909605E+04</pdfrwt>
<pdfrwt beam="2">  1       -2 0.90091376E-01 0.10909605E+04</pdfrwt>
<totfact> 0.15506225E+00</totfact>
</mgrwt>
</event>
<event>
 4    1  0.3057048E-007  0.7705541E+03  0.7818608E-02  0.9778512E-01
         -2   -1    0    0    0  501 -0.00000000000E+00  0.00000000000E+00  0.75731919947E+03  0.75731919948E+03  0.25500000000E-02 0.  1.
          2   -1    0    0  501    0  0.00000000000E+00 -0.00000000000E+00 -0.13077002743E+04  0.13077002743E+04  0.25500000000E-02 0. -1.
    8880023    1    1    2    0    0  0.17356155032E+03 -0.36030507405E+03  0.50824918724E+03  0.92307681194E+03  0.65864270000E+03 0.  1.
    8880022    1    1    2    0    0 -0.17356155032E+03  0.36030507405E+03 -0.10586302620E+04  0.11419426618E+04  0.15294330000E+03 0.  0.
<mgrwt>
<rscale>  0 0.66528543E+03</rscale>
<asrwt>0</asrwt>
<pdfrwt beam="1">  1        2 0.20118466E+00 0.77055406E+03</pdfrwt>
<pdfrwt beam="2">  1       -2 0.11651065E+00 0.77055406E+03</pdfrwt>
<totfact> 0.95195690E+00</totfact>
</mgrwt>
</event>
<event>
 4    1  0.3057048E-007  0.6602203E+03  0.7818608E-02  0.1023932E+00
         -2   -1    0    0    0  501 -0.00000000000E+00  0.00000000000E+00  0.12482253926E+03  0.12482253928E+03  0.25500000000E-02 0.  1.
          2   -1    0    0  501    0  0.00000000000E+00 -0.00000000000E+00 -0.16630004362E+04  0.16630004362E+04  0.25500000000E-02 0. -1.
    8880023    1    1    2    0    0  0.13854312300E+02 -0.43459745137E+02 -0.82320068141E+03  0.10552489088E+04  0.65864270000E+03 0.  1.
    8880022    1    1    2    0    0 -0.13854312300E+02  0.43459745137E+02 -0.71497721552E+03  0.73257406667E+03  0.15294330000E+03 0.  0.
<mgrwt>
<rscale>  0 0.46294062E+03</rscale>
<asrwt>0</asrwt>
<pdfrwt beam="1">  1        2 0.25584620E+00 0.66022034E+03</pdfrwt>
<pdfrwt beam="2">  1       -2 0.19203469E-01 0.66022034E+03</pdfrwt>
<totfact> 0.24131077E+02</totfact>
</mgrwt>
</event>
<event>
 4    1  0.3057048E-007  0.1400036E+04  0.7818608E-02  0.8983654E-01
         -2   -1    0    0    0  501 -0.00000000000E+00  0.00000000000E+00  0.23725432514E+04  0.23725432514E+04  0.25500000000E-02 0.  1.
          2   -1    0    0  501    0  0.00000000000E+00 -0.00000000000E+00 -0.91535862013E+03  0.91535862013E+03  0.25500000000E-02 0. -1.
    8880023    1    1    2    0    0 -0.10185228705E+04 -0.69921605262E+03  0.14874160899E+04  0.20426719650E+04  0.65864270000E+03 0.  0.
    8880022    1    1    2    0    0  0.10185228705E+04  0.69921605262E+03 -0.30231458581E+02  0.12452299065E+04  0.15294330000E+03 0.  0.
<mgrwt>
<rscale>  0 0.13595178E+04</rscale>
<asrwt>0</asrwt>
<pdfrwt beam="1">  1        2 0.14082441E+00 0.14000365E+04</pdfrwt>
<pdfrwt beam="2">  1       -2 0.36500664E+00 0.14000365E+04</pdfrwt>
<totfact> 0.34399776E-01</totfact>
</mgrwt>
</event>
<event>
 4    1  0.3057048E-007  0.8546255E+03  0.7818608E-02  0.9603196E-01
         -2   -1    0    0    0  501 -0.00000000000E+00  0.00000000000E+00  0.69283206689E+03  0.69283206690E+03  0.25500000000E-02 0.  1.
          2   -1    0    0  501    0  0.00000000000E+00 -0.00000000000E+00 -0.21267829850E+04  0.21267829850E+04  0.25500000000E-02 0. -1.
    8880023    1    1    2    0    0  0.53858515121E+03  0.80625671030E+02  0.36835423362E+03  0.93062855728E+03  0.65864270000E+03 0.  1.
    8880022    1    1    2    0    0 -0.53858515121E+03 -0.80625671030E+02 -0.18023051518E+04  0.18889864947E+04  0.15294330000E+03 0.  0.
<mgrwt>
<rscale>  0 0.77084998E+03</rscale>
<asrwt>0</asrwt>
<pdfrwt beam="1">  1        2 0.32719738E+00 0.85462546E+03</pdfrwt>
<pdfrwt beam="2">  1       -2 0.10658955E+00 0.85462546E+03</pdfrwt>
<totfact> 0.41134644E+00</totfact>
</mgrwt>
</event>
<event>
 4    1  0.3057048E-007  0.9275853E+03  0.7818608E-02  0.9483125E-01
         -2   -1    0    0    0  501 -0.00000000000E+00  0.00000000000E+00  0.46077169702E+03  0.46077169703E+03  0.25500000000E-02 0.  1.
          2   -1    0    0  501    0  0.00000000000E+00 -0.00000000000E+00 -0.18287638605E+04  0.18287638605E+04  0.25500000000E-02 0. -1.
    8880023    1    1    2    0    0  0.65233012537E+03 -0.32707183414E+02 -0.20966635541E+03  0.95098608779E+03  0.65864270000E+03 0.  1.
    8880022    1    1    2    0    0 -0.65233012537E+03  0.32707183414E+02 -0.11583258081E+04  0.13385494698E+04  0.15294330000E+03 0.  0.
<mgrwt>
<rscale>  0 0.85539457E+03</rscale>
<asrwt>0</asrwt>
<pdfrwt beam="1">  1        2 0.28134828E+00 0.92758534E+03</pdfrwt>
<pdfrwt beam="2">  1       -2 0.70887954E-01 0.92758534E+03</pdfrwt>
<totfact> 0.15168792E+01</totfact>
</mgrwt>
</event>
<event>
 4    1  0.3057048E-007  0.6969584E+03  0.7818608E-02  0.1001006E+00
          2   -1    0    0  501    0  0.00000000000E+00  0.00000000000E+00  0.11048890268E+04  0.11048890268E+04  0.25500000000E-02 0. -1.
         -2   -1    0    0    0  501 -0.00000000000E+00 -0.00000000000E+00 -0.25042731059E+03  0.25042731060E+03  0.25500000000E-02 0.  1.
    8880023    1    1    2    0    0  0.83818954714E+02 -0.21193194648E+03  0.34741005412E+03  0.77874560613E+03  0.65864270000E+03 0.  0.
    8880022    1    1    2    0    0 -0.83818954714E+02  0.21193194648E+03  0.50705166207E+03  0.57657073124E+03  0.15294330000E+03 0.  0.
<mgrwt>
<rscale>  0 0.55211287E+03</rscale>
<asrwt>0</asrwt>
<pdfrwt beam="1">  1        2 0.16998292E+00 0.69695837E+03</pdfrwt>
<pdfrwt beam="2">  1       -2 0.38527279E-01 0.69695837E+03</pdfrwt>
<totfact> 0.13997051E+02</totfact>
</mgrwt>
</event>
<event>
 4    1  0.3057048E-007  0.9090786E+03  0.7818608E-02  0.9511612E-01
          2   -1    0    0  501    0  0.00000000000E+00  0.00000000000E+00  0.34425501032E+04  0.34425501032E+04  0.25500000000E-02 0. -1.
         -2   -1    0    0    0  501 -0.00000000000E+00 -0.00000000000E+00 -0.22145778637E+03  0.22145778638E+03  0.25500000000E-02 0.  1.
    8880023    1    1    2    0    0 -0.60293242875E+03 -0.17054685740E+03  0.26532820160E+04  0.28046977389E+04  0.65864270000E+03 0.  0.
    8880022    1    1    2    0    0  0.60293242875E+03  0.17054685740E+03  0.56781030083E+03  0.85931015062E+03  0.15294330000E+03 0.  0.
<mgrwt>
<rscale>  0 0.83433115E+03</rscale>
<asrwt>0</asrwt>
<pdfrwt beam="1">  1        2 0.52962315E+00 0.90907863E+03</pdfrwt>
<pdfrwt beam="2">  1       -2 0.34070425E-01 0.90907863E+03</pdfrwt>
<totfact> 0.75428731E+00</totfact>
</mgrwt>
</event>
<event>
 4    1  0.3057048E-007  0.1086588E+04  0.7818608E-02  0.9276137E-01
         -2   -1    0    0    0  501 -0.00000000000E+00  0.00000000000E+00  0.11219336987E+04  0.11219336987E+04  0.25500000000E-02 0.  1.
          2   -1    0    0  501    0  0.00000000000E+00 -0.00000000000E+00 -0.18528869704E+04  0.18528869704E+04  0.25500000000E-02 0. -1.
    8880023    1    1    2    0    0 -0.85573273093E+03  0.12076907093E+03 -0.14696263471E+04  0.18276967696E+04  0.65864270000E+03 0. -1.
    8880022    1    1    2    0    0  0.85573273093E+03 -0.12076907093E+03  0.73867307545E+03  0.11471238995E+04  0.15294330000E+03 0.  0.
<mgrwt>
<rscale>  0 0.10300969E+04</rscale>
<asrwt>0</asrwt>
<pdfrwt beam="1">  1        2 0.28505953E+00 0.10865882E+04</pdfrwt>
<pdfrwt beam="2">  1       -2 0.17260518E+00 0.10865882E+04</pdfrwt>
<totfact> 0.16218099E+00</totfact>
</mgrwt>
</event>
<event>
 4    1  0.3057048E-007  0.1041821E+04  0.7818608E-02  0.9328779E-01
          2   -1    0    0  501    0  0.00000000000E+00  0.00000000000E+00  0.14178461322E+04  0.14178461322E+04  0.25500000000E-02 0. -1.
         -2   -1    0    0    0  501 -0.00000000000E+00 -0.00000000000E+00 -0.96102651564E+03  0.96102651565E+03  0.25500000000E-02 0.  1.
    8880023    1    1    2    0    0 -0.49086273793E+02  0.80571165427E+03 -0.46776193869E+03  0.11420123334E+04  0.65864270000E+03 0.  1.
    8880022    1    1    2    0    0  0.49086273793E+02 -0.80571165427E+03  0.92458155522E+03  0.12368603144E+04  0.15294330000E+03 0.  0.
<mgrwt>
<rscale>  0 0.98176054E+03</rscale>
<asrwt>0</asrwt>
<pdfrwt beam="1">  1        2 0.21813017E+00 0.10418210E+04</pdfrwt>
<pdfrwt beam="2">  1       -2 0.14785023E+00 0.10418210E+04</pdfrwt>
<totfact> 0.43458368E+00</totfact>
</mgrwt>
</event>
<event>
 4    1  0.3057048E-007  0.7266060E+03  0.7818608E-02  0.9900836E-01
          2   -1    0    0  501    0  0.00000000000E+00  0.00000000000E+00  0.19603175701E+04  0.19603175701E+04  0.25500000000E-02 0. -1.
         -2   -1    0    0    0  501 -0.00000000000E+00 -0.00000000000E+00 -0.44175879667E+03  0.44175879667E+03  0.25500000000E-02 0.  1.
    8880023    1    1    2    0    0  0.28760493774E+03  0.10690871942E+03 -0.11259924963E+03  0.73527877147E+03  0.65864270000E+03 0.  0.
    8880022    1    1    2    0    0 -0.28760493774E+03 -0.10690871942E+03  0.16311580230E+04  0.16667975953E+04  0.15294330000E+03 0.  0.
<mgrwt>
<rscale>  0 0.60220783E+03</rscale>
<asrwt>0</asrwt>
<pdfrwt beam="1">  1        2 0.30158731E+00 0.72660600E+03</pdfrwt>
<pdfrwt beam="2">  1       -2 0.67962893E-01 0.72660600E+03</pdfrwt>
<totfact> 0.14457734E+01</totfact>
</mgrwt>
</event>
<event>
 4    1  0.3057048E-007  0.1155804E+04  0.7818608E-02  0.9201329E-01
          2   -1    0    0  501    0  0.00000000000E+00  0.00000000000E+00  0.22743368636E+04  0.22743368636E+04  0.25500000000E-02 0. -1.
         -2   -1    0    0    0  501 -0.00000000000E+00 -0.00000000000E+00 -0.63602530922E+03  0.63602530922E+03  0.25500000000E-02 0.  1.
    8880023    1    1    2    0    0 -0.14653813698E+03  0.93840220690E+03  0.15650374666E+04  0.19455653691E+04  0.65864270000E+03 0. -1.
    8880022    1    1    2    0    0  0.14653813698E+03 -0.93840220690E+03  0.73274087830E+02  0.96479680372E+03  0.15294330000E+03 0.  0.
<mgrwt>
<rscale>  0 0.11039719E+04</rscale>
<asrwt>0</asrwt>
<pdfrwt beam="1">  1        2 0.34989798E+00 0.11558038E+04</pdfrwt>
<pdfrwt beam="2">  1       -2 0.97850048E-01 0.11558038E+04</pdfrwt>
<totfact> 0.40197066E+00</totfact>
</mgrwt>
</event>
<event>
 4    1  0.3057048E-007  0.7007915E+03  0.7818608E-02  0.9993933E-01
         -2   -1    0    0    0  501 -0.00000000000E+00  0.00000000000E+00  0.10912900965E+03  0.10912900968E+03  0.25500000000E-02 0.  1.
          2   -1    0    0  501    0  0.00000000000E+00 -0.00000000000E+00 -0.26418466302E+04  0.26418466302E+04  0.25500000000E-02 0. -1.
    8880023    1    1    2    0    0  0.69871056197E+02 -0.22894668449E+03 -0.12116726498E+04  0.13997354626E+04  0.65864270000E+03 0.  0.
    8880022    1    1    2    0    0 -0.69871056197E+02  0.22894668449E+03 -0.13210449708E+04  0.13512401772E+04  0.15294330000E+03 0.  0.
<mgrwt>
<rscale>  0 0.55917047E+03</rscale>
<asrwt>0</asrwt>
<pdfrwt beam="1">  1        2 0.40643789E+00 0.70079152E+03</pdfrwt>
<pdfrwt beam="2">  1       -2 0.16789080E-01 0.70079152E+03</pdfrwt>
<totfact> 0.87236084E+01</totfact>
</mgrwt>
</event>
<event>
 4    1  0.3057048E-007  0.6646236E+03  0.7818608E-02  0.1019851E+00
         -2   -1    0    0    0  501 -0.00000000000E+00  0.00000000000E+00  0.53715391453E+03  0.53715391454E+03  0.25500000000E-02 0.  1.
          2   -1    0    0  501    0  0.00000000000E+00 -0.00000000000E+00 -0.13249308202E+04  0.13249308202E+04  0.25500000000E-02 0. -1.
    8880023    1    1    2    0    0  0.24381916069E+01 -0.88928786767E+02  0.32184121346E+03  0.73844854041E+03  0.65864270000E+03 0.  1.
    8880022    1    1    2    0    0 -0.24381916069E+01  0.88928786767E+02 -0.11096181192E+04  0.11236361944E+04  0.15294330000E+03 0.  0.
<mgrwt>
<rscale>  0 0.47740298E+03</rscale>
<asrwt>0</asrwt>
<pdfrwt beam="1">  1        2 0.20383551E+00 0.66462356E+03</pdfrwt>
<pdfrwt beam="2">  1       -2 0.82639064E-01 0.66462356E+03</pdfrwt>
<totfact> 0.21188629E+01</totfact>
</mgrwt>
</event>
<event>
 4    1  0.3057048E-007  0.8972111E+03  0.7818608E-02  0.9530524E-01
         -2   -1    0    0    0  501 -0.00000000000E+00  0.00000000000E+00  0.55296819329E+03  0.55296819330E+03  0.25500000000E-02 0.  1.
          2   -1    0    0  501    0  0.00000000000E+00 -0.00000000000E+00 -0.16099795360E+04  0.16099795360E+04  0.25500000000E-02 0. -1.
    8880023    1    1    2    0    0 -0.44353893844E+03 -0.41767305026E+03  0.40793039803E+02  0.89813798783E+03  0.65864270000E+03 0.  0.
    8880022    1    1    2    0    0  0.44353893844E+03  0.41767305026E+03 -0.10978043825E+04  0.12648097415E+04  0.15294330000E+03 0.  0.
<mgrwt>
<rscale>  0 0.82070368E+03</rscale>
<asrwt>0</asrwt>
<pdfrwt beam="1">  1        2 0.24768916E+00 0.89721111E+03</pdfrwt>
<pdfrwt beam="2">  1       -2 0.85072030E-01 0.89721111E+03</pdfrwt>
<totfact> 0.13349568E+01</totfact>
</mgrwt>
</event>
<event>
 4    1  0.3057048E-007  0.7091111E+03  0.7818608E-02  0.9961317E-01
         -2   -1    0    0    0  501 -0.00000000000E+00  0.00000000000E+00  0.60672053440E+03  0.60672053441E+03  0.25500000000E-02 0.  1.
          2   -1    0    0  501    0  0.00000000000E+00 -0.00000000000E+00 -0.19011784920E+04  0.19011784920E+04  0.25500000000E-02 0. -1.
    8880023    1    1    2    0    0 -0.18492416815E+03 -0.18663160955E+03  0.38106844282E+03  0.80501656506E+03  0.65864270000E+03 0.  1.
    8880022    1    1    2    0    0  0.18492416815E+03  0.18663160955E+03 -0.16755264004E+04  0.17028824614E+04  0.15294330000E+03 0.  0.
<mgrwt>
<rscale>  0 0.57379455E+03</rscale>
<asrwt>0</asrwt>
<pdfrwt beam="1">  1        2 0.29248900E+00 0.70911107E+03</pdfrwt>
<pdfrwt beam="2">  1       -2 0.93341621E-01 0.70911107E+03</pdfrwt>
<totfact> 0.76577252E+00</totfact>
</mgrwt>
</event>
<event>
 4    1  0.3057048E-007  0.6840697E+03  0.7818608E-02  0.1007109E+00
         -2   -1    0    0    0  501 -0.00000000000E+00  0.00000000000E+00  0.20148785017E+03  0.20148785018E+03  0.25500000000E-02 0.  1.
          2   -1    0    0  501    0  0.00000000000E+00 -0.00000000000E+00 -0.33926344523E+04  0.33926344523E+04  0.25500000000E-02 0. -1.
    8880023    1    1    2    0    0  0.14095912200E+03  0.11946435111E+03 -0.39948252555E+03  0.79217277140E+03  0.65864270000E+03 0.  1.
    8880022    1    1    2    0    0 -0.14095912200E+03 -0.11946435111E+03 -0.27916640766E+04  0.28019495311E+04  0.15294330000E+03 0.  0.
<mgrwt>
<rscale>  0 0.52639867E+03</rscale>
<asrwt>0</asrwt>
<pdfrwt beam="1">  1        2 0.52194372E+00 0.68406974E+03</pdfrwt>
<pdfrwt beam="2">  1       -2 0.30998133E-01 0.68406974E+03</pdfrwt>
<totfact> 0.10138623E+01</totfact>
</mgrwt>
</event>
<event>
 4    1  0.3057048E-007  0.6924215E+03  0.7818608E-02  0.1003022E+00
          2   -1    0    0  501    0  0.00000000000E+00  0.00000000000E+00  0.11825887002E+04  0.11825887002E+04  0.25500000000E-02 0. -1.
         -2   -1    0    0    0  501 -0.00000000000E+00 -0.00000000000E+00 -0.56211063348E+03  0.56211063349E+03  0.25500000000E-02 0.  1.
    8880023    1    1    2    0    0 -0.12572705725E+03 -0.17271372326E+03 -0.32391543896E+03  0.76444014873E+03  0.65864270000E+03 0.  1.
    8880022    1    1    2    0    0  0.12572705725E+03  0.17271372326E+03  0.94439350572E+03  0.98025918500E+03  0.15294330000E+03 0.  0.
<mgrwt>
<rscale>  0 0.54344655E+03</rscale>
<asrwt>0</asrwt>
<pdfrwt beam="1">  1        2 0.18193672E+00 0.69242150E+03</pdfrwt>
<pdfrwt beam="2">  1       -2 0.86478560E-01 0.69242150E+03</pdfrwt>
<totfact> 0.23045319E+01</totfact>
</mgrwt>
</event>
<event>
 4    1  0.3057048E-007  0.6651707E+03  0.7818608E-02  0.1019391E+00
         -2   -1    0    0    0  501 -0.00000000000E+00  0.00000000000E+00  0.28575324388E+03  0.28575324389E+03  0.25500000000E-02 0.  1.
          2   -1    0    0  501    0  0.00000000000E+00 -0.00000000000E+00 -0.37429965279E+04  0.37429965279E+04  0.25500000000E-02 0. -1.
    8880023    1    1    2    0    0  0.86674326439E+02 -0.33607119934E+02 -0.10699130409E+03  0.67372043370E+03  0.65864270000E+03 0.  1.
    8880022    1    1    2    0    0 -0.86674326439E+02  0.33607119934E+02 -0.33502519800E+04  0.33550293381E+04  0.15294330000E+03 0.  0.
<mgrwt>
<rscale>  0 0.47907162E+03</rscale>
<asrwt>0</asrwt>
<pdfrwt beam="1">  1        2 0.57584558E+00 0.66517072E+03</pdfrwt>
<pdfrwt beam="2">  1       -2 0.43962040E-01 0.66517072E+03</pdfrwt>
<totfact> 0.29766473E+00</totfact>
</mgrwt>
</event>
<event>
 4    1  0.3057048E-007  0.7307318E+03  0.7818608E-02  0.9887817E-01
         -2   -1    0    0    0  501 -0.00000000000E+00  0.00000000000E+00  0.24515720812E+03  0.24515720813E+03  0.25500000000E-02 0.  1.
          2   -1    0    0  501    0  0.00000000000E+00 -0.00000000000E+00 -0.22930618745E+04  0.22930618745E+04  0.25500000000E-02 0. -1.
    8880023    1    1    2    0    0  0.18185396910E+03 -0.25901338119E+03 -0.36091947968E+03  0.81500421765E+03  0.65864270000E+03 0.  1.
    8880022    1    1    2    0    0 -0.18185396910E+03  0.25901338119E+03 -0.16869851867E+04  0.17232148649E+04  0.15294330000E+03 0.  0.
<mgrwt>
<rscale>  0 0.60855391E+03</rscale>
<asrwt>0</asrwt>
<pdfrwt beam="1">  1        2 0.35277874E+00 0.73073183E+03</pdfrwt>
<pdfrwt beam="2">  1       -2 0.37716495E-01 0.73073183E+03</pdfrwt>
<totfact> 0.31593644E+01</totfact>
</mgrwt>
</event>
<event>
 4    1  0.3057048E-007  0.7219269E+03  0.7818608E-02  0.9916119E-01
          2   -1    0    0  501    0  0.00000000000E+00  0.00000000000E+00  0.11293075085E+04  0.11293075085E+04  0.25500000000E-02 0. -1.
         -2   -1    0    0    0  501 -0.00000000000E+00 -0.00000000000E+00 -0.27094449554E+03  0.27094449555E+03  0.25500000000E-02 0.  1.
    8880023    1    1    2    0    0  0.28092243925E+03 -0.91928468150E+02  0.37532232488E+03  0.81366167044E+03  0.65864270000E+03 0.  0.
    8880022    1    1    2    0    0 -0.28092243925E+03  0.91928468150E+02  0.48304068806E+03  0.58659033359E+03  0.15294330000E+03 0.  0.
<mgrwt>
<rscale>  0 0.59486409E+03</rscale>
<asrwt>0</asrwt>
<pdfrwt beam="1">  1        2 0.17373962E+00 0.72192691E+03</pdfrwt>
<pdfrwt beam="2">  1       -2 0.41683768E-01 0.72192691E+03</pdfrwt>
<totfact> 0.11580244E+02</totfact>
</mgrwt>
</event>
<event>
 4    1  0.3057048E-007  0.8543869E+03  0.7818608E-02  0.9603627E-01
         -2   -1    0    0    0  501 -0.00000000000E+00  0.00000000000E+00  0.45795721085E+03  0.45795721086E+03  0.25500000000E-02 0.  1.
          2   -1    0    0  501    0  0.00000000000E+00 -0.00000000000E+00 -0.18277656195E+04  0.18277656195E+04  0.25500000000E-02 0. -1.
    8880023    1    1    2    0    0  0.39549233988E+03  0.37383486012E+03 -0.56891165635E+02  0.85627887078E+03  0.65864270000E+03 0.  0.
    8880022    1    1    2    0    0 -0.39549233988E+03 -0.37383486012E+03 -0.13129172430E+04  0.14294439596E+04  0.15294330000E+03 0.  0.
<mgrwt>
<rscale>  0 0.77056573E+03</rscale>
<asrwt>0</asrwt>
<pdfrwt beam="1">  1        2 0.28119471E+00 0.85438686E+03</pdfrwt>
<pdfrwt beam="2">  1       -2 0.70454957E-01 0.85438686E+03</pdfrwt>
<totfact> 0.15523289E+01</totfact>
</mgrwt>
</event>
<event>
 4    1  0.3057048E-007  0.6724454E+03  0.7818608E-02  0.1013967E+00
         -2   -1    0    0    0  501 -0.00000000000E+00  0.00000000000E+00  0.29036815108E+03  0.29036815110E+03  0.25500000000E-02 0.  1.
          2   -1    0    0  501    0  0.00000000000E+00 -0.00000000000E+00 -0.12493350481E+04  0.12493350482E+04  0.25500000000E-02 0. -1.
    8880023    1    1    2    0    0  0.43148066802E+02  0.12849468419E+03 -0.12869445887E+03  0.68464962539E+03  0.65864270000E+03 0.  1.
    8880022    1    1    2    0    0 -0.43148066802E+02 -0.12849468419E+03 -0.83027243819E+03  0.85505357386E+03  0.15294330000E+03 0.  0.
<mgrwt>
<rscale>  0 0.49927914E+03</rscale>
<asrwt>0</asrwt>
<pdfrwt beam="1">  1        2 0.19220539E+00 0.67244542E+03</pdfrwt>
<pdfrwt beam="2">  1       -2 0.44672024E-01 0.67244542E+03</pdfrwt>
<totfact> 0.86106639E+01</totfact>
</mgrwt>
</event>
<event>
 4    1  0.3057048E-007  0.6802251E+03  0.7818608E-02  0.1009197E+00
         -2   -1    0    0    0  501 -0.00000000000E+00  0.00000000000E+00  0.29538494118E+03  0.29538494119E+03  0.25500000000E-02 0.  1.
          2   -1    0    0  501    0  0.00000000000E+00 -0.00000000000E+00 -0.17867707917E+04  0.17867707917E+04  0.25500000000E-02 0. -1.
    8880023    1    1    2    0    0  0.87522089801E+02  0.14572546522E+03 -0.11863819427E+03  0.69049348644E+03  0.65864270000E+03 0.  1.
    8880022    1    1    2    0    0 -0.87522089801E+02 -0.14572546522E+03 -0.13727476563E+04  0.13916622465E+04  0.15294330000E+03 0.  0.
<mgrwt>
<rscale>  0 0.51795190E+03</rscale>
<asrwt>0</asrwt>
<pdfrwt beam="1">  1        2 0.27488781E+00 0.68022513E+03</pdfrwt>
<pdfrwt beam="2">  1       -2 0.45443838E-01 0.68022513E+03</pdfrwt>
<totfact> 0.41748883E+01</totfact>
</mgrwt>
</event>
<event>
 4    1  0.3057048E-007  0.7462446E+03  0.7818608E-02  0.9842117E-01
         -2   -1    0    0    0  501 -0.00000000000E+00  0.00000000000E+00  0.34856163457E+03  0.34856163458E+03  0.25500000000E-02 0.  1.
          2   -1    0    0  501    0  0.00000000000E+00 -0.00000000000E+00 -0.11416926086E+04  0.11416926086E+04  0.25500000000E-02 0. -1.
    8880023    1    1    2    0    0 -0.31965389137E+03  0.14454132409E+03 -0.18025929244E+03  0.76770725111E+03  0.65864270000E+03 0.  1.
    8880022    1    1    2    0    0  0.31965389137E+03 -0.14454132409E+03 -0.61287168160E+03  0.72254699208E+03  0.15294330000E+03 0.  0.
<mgrwt>
<rscale>  0 0.63150485E+03</rscale>
<asrwt>0</asrwt>
<pdfrwt beam="1">  1        2 0.17564501E+00 0.74624461E+03</pdfrwt>
<pdfrwt beam="2">  1       -2 0.53624868E-01 0.74624461E+03</pdfrwt>
<totfact> 0.68413990E+01</totfact>
</mgrwt>
</event>
<event>
 4    1  0.3057048E-007  0.8790193E+03  0.7818608E-02  0.9560588E-01
         -2   -1    0    0    0  501 -0.00000000000E+00  0.00000000000E+00  0.18631145407E+04  0.18631145407E+04  0.25500000000E-02 0.  1.
          2   -1    0    0  501    0  0.00000000000E+00 -0.00000000000E+00 -0.69244368418E+03  0.69244368419E+03  0.25500000000E-02 0. -1.
    8880023    1    1    2    0    0  0.55562191224E+03  0.17363485184E+03  0.15935937804E+04  0.18199494813E+04  0.65864270000E+03 0.  1.
    8880022    1    1    2    0    0 -0.55562191224E+03 -0.17363485184E+03 -0.42292292389E+03  0.73560874363E+03  0.15294330000E+03 0.  0.
<mgrwt>
<rscale>  0 0.79960561E+03</rscale>
<asrwt>0</asrwt>
<pdfrwt beam="1">  1        2 0.10652980E+00 0.87901933E+03</pdfrwt>
<pdfrwt beam="2">  1       -2 0.28663300E+00 0.87901933E+03</pdfrwt>
<totfact> 0.16244133E+00</totfact>
</mgrwt>
</event>
<event>
 4    1  0.3057048E-007  0.9717780E+03  0.7818608E-02  0.9419449E-01
          2   -1    0    0  501    0  0.00000000000E+00  0.00000000000E+00  0.68952079622E+03  0.68952079623E+03  0.25500000000E-02 0. -1.
         -2   -1    0    0    0  501 -0.00000000000E+00 -0.00000000000E+00 -0.15551894248E+04  0.15551894248E+04  0.25500000000E-02 0.  1.
    8880023    1    1    2    0    0  0.61441211283E+03  0.36474661177E+03 -0.11090219632E+04  0.14745447624E+04  0.65864270000E+03 0.  0.
    8880022    1    1    2    0    0 -0.61441211283E+03 -0.36474661177E+03  0.24335333463E+03  0.77016545864E+03  0.15294330000E+03 0.  0.
<mgrwt>
<rscale>  0 0.90492222E+03</rscale>
<asrwt>0</asrwt>
<pdfrwt beam="1">  1        2 0.10608012E+00 0.97177803E+03</pdfrwt>
<pdfrwt beam="2">  1       -2 0.23925991E+00 0.97177803E+03</pdfrwt>
<totfact> 0.31265777E+00</totfact>
</mgrwt>
</event>
<event>
 4    1  0.3057048E-007  0.8661476E+03  0.7818608E-02  0.9582720E-01
         -2   -1    0    0    0  501 -0.00000000000E+00  0.00000000000E+00  0.26513321356E+03  0.26513321357E+03  0.25500000000E-02 0.  1.
          2   -1    0    0  501    0  0.00000000000E+00 -0.00000000000E+00 -0.23319174823E+04  0.23319174823E+04  0.25500000000E-02 0. -1.
    8880023    1    1    2    0    0 -0.54222996588E+03  0.14962641881E+03 -0.70864861751E+03  0.11191043162E+04  0.65864270000E+03 0.  1.
    8880022    1    1    2    0    0  0.54222996588E+03 -0.14962641881E+03 -0.13581356512E+04  0.14779463797E+04  0.15294330000E+03 0.  0.
<mgrwt>
<rscale>  0 0.78450502E+03</rscale>
<asrwt>0</asrwt>
<pdfrwt beam="1">  1        2 0.35875652E+00 0.86614757E+03</pdfrwt>
<pdfrwt beam="2">  1       -2 0.40789727E-01 0.86614757E+03</pdfrwt>
<totfact> 0.25352875E+01</totfact>
</mgrwt>
</event>
<event>
 4    1  0.3057048E-007  0.8364445E+03  0.7818608E-02  0.9636921E-01
          2   -1    0    0  501    0  0.00000000000E+00  0.00000000000E+00  0.15983644659E+04  0.15983644659E+04  0.25500000000E-02 0. -1.
         -2   -1    0    0    0  501 -0.00000000000E+00 -0.00000000000E+00 -0.90973775759E+03  0.90973775759E+03  0.25500000000E-02 0.  1.
    8880023    1    1    2    0    0  0.41149856207E+03 -0.31064144720E+03 -0.65400219401E+03  0.10617712801E+04  0.65864270000E+03 0.  1.
    8880022    1    1    2    0    0 -0.41149856207E+03  0.31064144720E+03  0.13426289023E+04  0.14463309434E+04  0.15294330000E+03 0.  0.
<mgrwt>
<rscale>  0 0.74899952E+03</rscale>
<asrwt>0</asrwt>
<pdfrwt beam="1">  1        2 0.24590223E+00 0.83644449E+03</pdfrwt>
<pdfrwt beam="2">  1       -2 0.13995965E+00 0.83644449E+03</pdfrwt>
<totfact> 0.40761278E+00</totfact>
</mgrwt>
</event>
<event>
 4    1  0.3057048E-007  0.6975255E+03  0.7818608E-02  0.1000763E+00
         -2   -1    0    0    0  501 -0.00000000000E+00  0.00000000000E+00  0.11619739853E+04  0.11619739853E+04  0.25500000000E-02 0.  1.
          2   -1    0    0  501    0  0.00000000000E+00 -0.00000000000E+00 -0.32435781763E+03  0.32435781764E+03  0.25500000000E-02 0. -1.
    8880023    1    1    2    0    0  0.15508763974E+03 -0.16935011580E+03  0.95822628894E+03  0.11852170539E+04  0.65864270000E+03 0.  1.
    8880022    1    1    2    0    0 -0.15508763974E+03  0.16935011580E+03 -0.12061012129E+03  0.30111474905E+03  0.15294330000E+03 0.  0.
<mgrwt>
<rscale>  0 0.55317146E+03</rscale>
<asrwt>0</asrwt>
<pdfrwt beam="1">  1        2 0.49901202E-01 0.69752551E+03</pdfrwt>
<pdfrwt beam="2">  1       -2 0.17876523E+00 0.69752551E+03</pdfrwt>
<totfact> 0.18971221E+01</totfact>
</mgrwt>
</event>
<event>
 4    1  0.3057048E-007  0.8508539E+03  0.7818608E-02  0.9610044E-01
         -2   -1    0    0    0  501 -0.00000000000E+00  0.00000000000E+00  0.21282452048E+04  0.21282452048E+04  0.25500000000E-02 0.  1.
          2   -1    0    0  501    0  0.00000000000E+00 -0.00000000000E+00 -0.25487888665E+03  0.25487888666E+03  0.25500000000E-02 0. -1.
    8880023    1    1    2    0    0 -0.35188294542E+03  0.40782425411E+03  0.14497707919E+04  0.16810079669E+04  0.65864270000E+03 0.  0.
    8880022    1    1    2    0    0  0.35188294542E+03 -0.40782425411E+03  0.42359552631E+03  0.70211612461E+03  0.15294330000E+03 0.  0.
<mgrwt>
<rscale>  0 0.76634940E+03</rscale>
<asrwt>0</asrwt>
<pdfrwt beam="1">  1        2 0.39212137E-01 0.85085395E+03</pdfrwt>
<pdfrwt beam="2">  1       -2 0.32742233E+00 0.85085395E+03</pdfrwt>
<totfact> 0.29272206E+00</totfact>
</mgrwt>
</event>
<event>
 4    1  0.3057048E-007  0.7207050E+03  0.7818608E-02  0.9920208E-01
          2   -1    0    0  501    0  0.00000000000E+00  0.00000000000E+00  0.29297239396E+04  0.29297239396E+04  0.25500000000E-02 0. -1.
         -2   -1    0    0    0  501 -0.00000000000E+00 -0.00000000000E+00 -0.44224349467E+03  0.44224349468E+03  0.25500000000E-02 0.  1.
    8880023    1    1    2    0    0 -0.29230402579E+03 -0.12799415343E+02 -0.13120669517E+03  0.73255093451E+03  0.65864270000E+03 0.  1.
    8880022    1    1    2    0    0  0.29230402579E+03  0.12799415343E+02  0.26186871401E+04  0.26394164998E+04  0.15294330000E+03 0.  0.
<mgrwt>
<rscale>  0 0.59291853E+03</rscale>
<asrwt>0</asrwt>
<pdfrwt beam="1">  1        2 0.45072675E+00 0.72070498E+03</pdfrwt>
<pdfrwt beam="2">  1       -2 0.68037462E-01 0.72070498E+03</pdfrwt>
<totfact> 0.40766717E+00</totfact>
</mgrwt>
</event>
<event>
 4    1  0.3057048E-007  0.7680704E+03  0.7818608E-02  0.9784645E-01
          2   -1    0    0  501    0  0.00000000000E+00  0.00000000000E+00  0.33186965826E+04  0.33186965826E+04  0.25500000000E-02 0. -1.
         -2   -1    0    0    0  501 -0.00000000000E+00 -0.00000000000E+00 -0.53027213299E+03  0.53027213299E+03  0.25500000000E-02 0.  1.
    8880023    1    1    2    0    0  0.13096691336E+03  0.37278632859E+03 -0.22936155530E+03  0.80158524717E+03  0.65864270000E+03 0.  1.
    8880022    1    1    2    0    0 -0.13096691336E+03 -0.37278632859E+03  0.30177860049E+04  0.30473834684E+04  0.15294330000E+03 0.  0.
<mgrwt>
<rscale>  0 0.66193137E+03</rscale>
<asrwt>0</asrwt>
<pdfrwt beam="1">  1        2 0.51056870E+00 0.76807043E+03</pdfrwt>
<pdfrwt beam="2">  1       -2 0.81580328E-01 0.76807043E+03</pdfrwt>
<totfact> 0.15400756E+00</totfact>
</mgrwt>
</event>
<event>
 4    1  0.3057048E-007  0.6940637E+03  0.7818608E-02  0.1002278E+00
          2   -1    0    0  501    0  0.00000000000E+00  0.00000000000E+00  0.20037252614E+04  0.20037252614E+04  0.25500000000E-02 0. -1.
         -2   -1    0    0    0  501 -0.00000000000E+00 -0.00000000000E+00 -0.20322381811E+03  0.20322381813E+03  0.25500000000E-02 0.  1.
    8880023    1    1    2    0    0  0.19292361845E+03  0.10341484750E+03  0.44290546344E+03  0.82334051828E+03  0.65864270000E+03 0.  1.
    8880022    1    1    2    0    0 -0.19292361845E+03 -0.10341484750E+03  0.13575959798E+04  0.13836085612E+04  0.15294330000E+03 0.  0.
<mgrwt>
<rscale>  0 0.54662575E+03</rscale>
<asrwt>0</asrwt>
<pdfrwt beam="1">  1        2 0.30826544E+00 0.69406366E+03</pdfrwt>
<pdfrwt beam="2">  1       -2 0.31265202E-01 0.69406366E+03</pdfrwt>
<totfact> 0.65324702E+01</totfact>
</mgrwt>
</event>
<event>
 4    1  0.3057048E-007  0.1228389E+04  0.7818608E-02  0.9130009E-01
          2   -1    0    0  501    0  0.00000000000E+00  0.00000000000E+00  0.39967962628E+04  0.39967962628E+04  0.25500000000E-02 0. -1.
         -2   -1    0    0    0  501 -0.00000000000E+00 -0.00000000000E+00 -0.49872382280E+03  0.49872382281E+03  0.25500000000E-02 0.  1.
    8880023    1    1    2    0    0 -0.75362389856E+03 -0.71216540498E+03  0.51195031999E+03  0.13308012177E+04  0.65864270000E+03 0.  0.
    8880022    1    1    2    0    0  0.75362389856E+03  0.71216540498E+03  0.29861221200E+04  0.31647188679E+04  0.15294330000E+03 0.  0.
<mgrwt>
<rscale>  0 0.11806002E+04</rscale>
<asrwt>0</asrwt>
<pdfrwt beam="1">  1        2 0.61489175E+00 0.12283887E+04</pdfrwt>
<pdfrwt beam="2">  1       -2 0.76726740E-01 0.12283887E+04</pdfrwt>
<totfact> 0.52896193E-01</totfact>
</mgrwt>
</event>
<event>
 4    1  0.3057048E-007  0.6686748E+03  0.7818608E-02  0.1016631E+00
         -2   -1    0    0    0  501 -0.00000000000E+00  0.00000000000E+00  0.10144815276E+04  0.10144815276E+04  0.25500000000E-02 0.  1.
          2   -1    0    0  501    0  0.00000000000E+00 -0.00000000000E+00 -0.44327192058E+03  0.44327192059E+03  0.25500000000E-02 0. -1.
    8880023    1    1    2    0    0 -0.58916028007E+02 -0.99220212149E+02  0.87337971309E+03  0.10999627623E+04  0.65864270000E+03 0.  1.
    8880022    1    1    2    0    0  0.58916028007E+02  0.99220212149E+02 -0.30217010613E+03  0.35779068588E+03  0.15294330000E+03 0.  0.
<mgrwt>
<rscale>  0 0.48922136E+03</rscale>
<asrwt>0</asrwt>
<pdfrwt beam="1">  1        2 0.68195680E-01 0.66867478E+03</pdfrwt>
<pdfrwt beam="2">  1       -2 0.15607408E+00 0.66867478E+03</pdfrwt>
<totfact> 0.19470787E+01</totfact>
</mgrwt>
</event>
<event>
 4    1  0.3057048E-007  0.1344526E+04  0.7818608E-02  0.9028032E-01
         -2   -1    0    0    0  501 -0.00000000000E+00  0.00000000000E+00  0.13355814230E+04  0.13355814230E+04  0.25500000000E-02 0.  1.
          2   -1    0    0  501    0  0.00000000000E+00 -0.00000000000E+00 -0.19219558862E+04  0.19219558862E+04  0.25500000000E-02 0. -1.
    8880023    1    1    2    0    0  0.83285137922E+03 -0.82480176515E+03  0.69555414400E+03  0.15137850393E+04  0.65864270000E+03 0.  0.
    8880022    1    1    2    0    0 -0.83285137922E+03  0.82480176515E+03 -0.12819286072E+04  0.17437522699E+04  0.15294330000E+03 0.  0.
<mgrwt>
<rscale>  0 0.13019349E+04</rscale>
<asrwt>0</asrwt>
<pdfrwt beam="1">  1        2 0.29568552E+00 0.13445258E+04</pdfrwt>
<pdfrwt beam="2">  1       -2 0.20547406E+00 0.13445258E+04</pdfrwt>
<totfact> 0.86335978E-01</totfact>
</mgrwt>
</event>
<event>
 4    1  0.3057048E-007  0.7558257E+03  0.7818608E-02  0.9816037E-01
         -2   -1    0    0    0  501 -0.00000000000E+00  0.00000000000E+00  0.20157857449E+03  0.20157857451E+03  0.25500000000E-02 0.  1.
          2   -1    0    0  501    0  0.00000000000E+00 -0.00000000000E+00 -0.19375506481E+04  0.19375506481E+04  0.25500000000E-02 0. -1.
    8880023    1    1    2    0    0 -0.12677601784E+03 -0.34841081053E+03 -0.70777598166E+03  0.10354802258E+04  0.65864270000E+03 0. -1.
    8880022    1    1    2    0    0  0.12677601784E+03  0.34841081053E+03 -0.10281960919E+04  0.11036489968E+04  0.15294330000E+03 0.  1.
<mgrwt>
<rscale>  0 0.64508981E+03</rscale>
<asrwt>0</asrwt>
<pdfrwt beam="1">  1        2 0.29808470E+00 0.75582568E+03</pdfrwt>
<pdfrwt beam="2">  1       -2 0.31012090E-01 0.75582568E+03</pdfrwt>
<totfact> 0.71548285E+01</totfact>
</mgrwt>
</event>
<event>
 4    1  0.3057048E-007  0.7329724E+03  0.7818608E-02  0.9880912E-01
          2   -1    0    0  501    0  0.00000000000E+00  0.00000000000E+00  0.19131552095E+04  0.19131552095E+04  0.25500000000E-02 0. -1.
         -2   -1    0    0    0  501 -0.00000000000E+00 -0.00000000000E+00 -0.46529275369E+03  0.46529275369E+03  0.25500000000E-02 0.  1.
    8880023    1    1    2    0    0 -0.21322759511E+03  0.24077437506E+03 -0.14421500474E+03  0.74702508717E+03  0.65864270000E+03 0.  1.
    8880022    1    1    2    0    0  0.21322759511E+03 -0.24077437506E+03  0.15920774606E+04  0.16314228761E+04  0.15294330000E+03 0.  0.
<mgrwt>
<rscale>  0 0.61195352E+03</rscale>
<asrwt>0</asrwt>
<pdfrwt beam="1">  1        2 0.29433157E+00 0.73297238E+03</pdfrwt>
<pdfrwt beam="2">  1       -2 0.71583501E-01 0.73297238E+03</pdfrwt>
<totfact> 0.13684643E+01</totfact>
</mgrwt>
</event>
<event>
 4    1  0.3057048E-007  0.7831854E+03  0.7818608E-02  0.9748407E-01
         -2   -1    0    0    0  501 -0.00000000000E+00  0.00000000000E+00  0.52138782347E+03  0.52138782347E+03  0.25500000000E-02 0.  1.
          2   -1    0    0  501    0  0.00000000000E+00 -0.00000000000E+00 -0.83836235263E+03  0.83836235263E+03  0.25500000000E-02 0. -1.
    8880023    1    1    2    0    0 -0.22775615671E+03 -0.35734610729E+03  0.41109413509E+02  0.78426353827E+03  0.65864270000E+03 0.  1.
    8880022    1    1    2    0    0  0.22775615671E+03  0.35734610729E+03 -0.35808394267E+03  0.57548663784E+03  0.15294330000E+03 0.  0.
<mgrwt>
<rscale>  0 0.68206369E+03</rscale>
<asrwt>0</asrwt>
<pdfrwt beam="1">  1        2 0.12897882E+00 0.78318536E+03</pdfrwt>
<pdfrwt beam="2">  1       -2 0.80213511E-01 0.78318536E+03</pdfrwt>
<totfact> 0.44943209E+01</totfact>
</mgrwt>
</event>
<event>
 4    1  0.3057048E-007  0.1145621E+04  0.7818608E-02  0.9211886E-01
         -2   -1    0    0    0  501 -0.00000000000E+00  0.00000000000E+00  0.53310411931E+03  0.53310411932E+03  0.25500000000E-02 0.  1.
          2   -1    0    0  501    0  0.00000000000E+00 -0.00000000000E+00 -0.44740870443E+04  0.44740870443E+04  0.25500000000E-02 0. -1.
    8880023    1    1    2    0    0  0.15935220058E+03 -0.92371160729E+03 -0.21954000060E+03  0.11664665771E+04  0.65864270000E+03 0.  0.
    8880022    1    1    2    0    0 -0.15935220058E+03  0.92371160729E+03 -0.37214429244E+04  0.38407245866E+04  0.15294330000E+03 0.  0.
<mgrwt>
<rscale>  0 0.10931584E+04</rscale>
<asrwt>0</asrwt>
<pdfrwt beam="1">  1        2 0.68832106E+00 0.11456206E+04</pdfrwt>
<pdfrwt beam="2">  1       -2 0.82016021E-01 0.11456206E+04</pdfrwt>
<totfact> 0.17761783E-01</totfact>
</mgrwt>
</event>
<event>
 4    1  0.3057048E-007  0.1401960E+04  0.7818608E-02  0.8982161E-01
         -2   -1    0    0    0  501 -0.00000000000E+00  0.00000000000E+00  0.13646541956E+04  0.13646541956E+04  0.25500000000E-02 0.  1.
          2   -1    0    0  501    0  0.00000000000E+00 -0.00000000000E+00 -0.17702195032E+04  0.17702195032E+04  0.25500000000E-02 0. -1.
    8880023    1    1    2    0    0 -0.11752859824E+04  0.38779436105E+03 -0.10305684479E+04  0.17399894078E+04  0.65864270000E+03 0.  0.
    8880022    1    1    2    0    0  0.11752859824E+04 -0.38779436105E+03  0.62500314033E+03  0.13948842911E+04  0.15294330000E+03 0.  0.
<mgrwt>
<rscale>  0 0.13615092E+04</rscale>
<asrwt>0</asrwt>
<pdfrwt beam="1">  1        2 0.27234146E+00 0.14019600E+04</pdfrwt>
<pdfrwt beam="2">  1       -2 0.20994680E+00 0.14019600E+04</pdfrwt>
<totfact> 0.97474251E-01</totfact>
</mgrwt>
</event>
<event>
 4    1  0.3057048E-007  0.1088964E+04  0.7818608E-02  0.9273444E-01
          2   -1    0    0  501    0  0.00000000000E+00  0.00000000000E+00  0.24331028707E+04  0.24331028707E+04  0.25500000000E-02 0. -1.
         -2   -1    0    0    0  501 -0.00000000000E+00 -0.00000000000E+00 -0.52217279393E+03  0.52217279394E+03  0.25500000000E-02 0.  1.
    8880023    1    1    2    0    0 -0.12626460746E+03  0.85795641296E+03  0.17484423737E+04  0.20598283662E+04  0.65864270000E+03 0.  0.
    8880022    1    1    2    0    0  0.12626460746E+03 -0.85795641296E+03  0.16248770303E+03  0.89544729844E+03  0.15294330000E+03 0.  0.
<mgrwt>
<rscale>  0 0.10326484E+04</rscale>
<asrwt>0</asrwt>
<pdfrwt beam="1">  1        2 0.37432352E+00 0.10889638E+04</pdfrwt>
<pdfrwt beam="2">  1       -2 0.80334275E-01 0.10889638E+04</pdfrwt>
<totfact> 0.51997119E+00</totfact>
</mgrwt>
</event>
<event>
 4    1  0.3057048E-007  0.9430868E+03  0.7818608E-02  0.9460131E-01
         -2   -1    0    0    0  501 -0.00000000000E+00  0.00000000000E+00  0.57229729982E+03  0.57229729983E+03  0.25500000000E-02 0.  1.
          2   -1    0    0  501    0  0.00000000000E+00 -0.00000000000E+00 -0.16198864892E+04  0.16198864892E+04  0.25500000000E-02 0. -1.
    8880023    1    1    2    0    0  0.64009033856E+03  0.21421236359E+03 -0.77966856214E+01  0.94311906608E+03  0.65864270000E+03 0.  1.
    8880022    1    1    2    0    0 -0.64009033856E+03 -0.21421236359E+03 -0.10397925037E+04  0.12490647229E+04  0.15294330000E+03 0. -1.
<mgrwt>
<rscale>  0 0.87288102E+03</rscale>
<asrwt>0</asrwt>
<pdfrwt beam="1">  1        2 0.24921330E+00 0.94308684E+03</pdfrwt>
<pdfrwt beam="2">  1       -2 0.88045739E-01 0.94308684E+03</pdfrwt>
<totfact> 0.12122664E+01</totfact>
</mgrwt>
</event>
<event>
 4    1  0.3057048E-007  0.7512500E+03  0.7818608E-02  0.9828311E-01
          2   -1    0    0  501    0  0.00000000000E+00  0.00000000000E+00  0.18895570553E+04  0.18895570553E+04  0.25500000000E-02 0. -1.
         -2   -1    0    0    0  501 -0.00000000000E+00 -0.00000000000E+00 -0.64154386003E+03  0.64154386003E+03  0.25500000000E-02 0.  1.
    8880023    1    1    2    0    0 -0.12735366594E+03 -0.33815296860E+03 -0.39020821420E+03  0.84654535796E+03  0.65864270000E+03 0.  1.
    8880022    1    1    2    0    0  0.12735366594E+03  0.33815296860E+03  0.16382214094E+04  0.16845555573E+04  0.15294330000E+03 0.  0.
<mgrwt>
<rscale>  0 0.63865111E+03</rscale>
<asrwt>0</asrwt>
<pdfrwt beam="1">  1        2 0.29070108E+00 0.75125002E+03</pdfrwt>
<pdfrwt beam="2">  1       -2 0.98699056E-01 0.75125002E+03</pdfrwt>
<totfact> 0.67726124E+00</totfact>
</mgrwt>
</event>
<event>
 4    1  0.3057048E-007  0.9879319E+03  0.7818608E-02  0.9397519E-01
         -2   -1    0    0    0  501 -0.00000000000E+00  0.00000000000E+00  0.79822078340E+03  0.79822078340E+03  0.25500000000E-02 0.  1.
          2   -1    0    0  501    0  0.00000000000E+00 -0.00000000000E+00 -0.94922174432E+03  0.94922174432E+03  0.25500000000E-02 0. -1.
    8880023    1    1    2    0    0 -0.73627218251E+03 -0.10126267368E+02 -0.57640307463E+02  0.98961198423E+03  0.65864270000E+03 0.  0.
    8880022    1    1    2    0    0  0.73627218251E+03  0.10126267368E+02 -0.93360653458E+02  0.75783054349E+03  0.15294330000E+03 0.  0.
<mgrwt>
<rscale>  0 0.92280102E+03</rscale>
<asrwt>0</asrwt>
<pdfrwt beam="1">  1        2 0.14603411E+00 0.98793192E+03</pdfrwt>
<pdfrwt beam="2">  1       -2 0.12280320E+00 0.98793192E+03</pdfrwt>
<totfact> 0.13537429E+01</totfact>
</mgrwt>
</event>
<event>
 4    1  0.3057048E-007  0.9619228E+03  0.7818608E-02  0.9433163E-01
         -2   -1    0    0    0  501 -0.00000000000E+00  0.00000000000E+00  0.12169319382E+04  0.12169319382E+04  0.25500000000E-02 0.  1.
          2   -1    0    0  501    0  0.00000000000E+00 -0.00000000000E+00 -0.94487265732E+03  0.94487265733E+03  0.25500000000E-02 0. -1.
    8880023    1    1    2    0    0 -0.49132787664E+03 -0.50008211844E+03  0.81598435505E+03  0.12613983833E+04  0.65864270000E+03 0.  0.
    8880022    1    1    2    0    0  0.49132787664E+03  0.50008211844E+03 -0.54392507420E+03  0.90040621216E+03  0.15294330000E+03 0.  0.
<mgrwt>
<rscale>  0 0.89395998E+03</rscale>
<asrwt>0</asrwt>
<pdfrwt beam="1">  1        2 0.14536502E+00 0.96192277E+03</pdfrwt>
<pdfrwt beam="2">  1       -2 0.18722030E+00 0.96192277E+03</pdfrwt>
<totfact> 0.44090335E+00</totfact>
</mgrwt>
</event>
<event>
 4    1  0.3057048E-007  0.7228266E+03  0.7818608E-02  0.9913135E-01
         -2   -1    0    0    0  501 -0.00000000000E+00  0.00000000000E+00  0.24762190803E+04  0.24762190803E+04  0.25500000000E-02 0.  1.
          2   -1    0    0  501    0  0.00000000000E+00 -0.00000000000E+00 -0.50414809189E+03  0.50414809189E+03  0.25500000000E-02 0. -1.
    8880023    1    1    2    0    0 -0.14459501660E+03 -0.26030809408E+03  0.23598591181E+04  0.24680788655E+04  0.65864270000E+03 0.  1.
    8880022    1    1    2    0    0  0.14459501660E+03  0.26030809408E+03 -0.38778812968E+03  0.51228830672E+03  0.15294330000E+03 0.  0.
<mgrwt>
<rscale>  0 0.59628893E+03</rscale>
<asrwt>0</asrwt>
<pdfrwt beam="1">  1        2 0.77561245E-01 0.72282656E+03</pdfrwt>
<pdfrwt beam="2">  1       -2 0.38095678E+00 0.72282656E+03</pdfrwt>
<totfact> 0.64187196E-01</totfact>
</mgrwt>
</event>
<event>
 4    1  0.3057048E-007  0.7190855E+03  0.7818608E-02  0.9925693E-01
         -2   -1    0    0    0  501 -0.00000000000E+00  0.00000000000E+00  0.26565502831E+03  0.26565502833E+03  0.25500000000E-02 0.  1.
          2   -1    0    0  501    0  0.00000000000E+00 -0.00000000000E+00 -0.22991700229E+04  0.22991700229E+04  0.25500000000E-02 0. -1.
    8880023    1    1    2    0    0  0.28828132746E+03  0.12947489996E+02 -0.26492903843E+03  0.76633632494E+03  0.65864270000E+03 0.  1.
    8880022    1    1    2    0    0 -0.28828132746E+03 -0.12947489996E+02 -0.17685859562E+04  0.17984887263E+04  0.15294330000E+03 0.  0.
<mgrwt>
<rscale>  0 0.59032117E+03</rscale>
<asrwt>0</asrwt>
<pdfrwt beam="1">  1        2 0.35371845E+00 0.71908551E+03</pdfrwt>
<pdfrwt beam="2">  1       -2 0.40870006E-01 0.71908551E+03</pdfrwt>
<totfact> 0.26865014E+01</totfact>
</mgrwt>
</event>
<event>
 4    1  0.3057048E-007  0.1272280E+04  0.7818608E-02  0.9089875E-01
         -2   -1    0    0    0  501 -0.00000000000E+00  0.00000000000E+00  0.13922312549E+04  0.13922312549E+04  0.25500000000E-02 0.  1.
          2   -1    0    0  501    0  0.00000000000E+00 -0.00000000000E+00 -0.10212135702E+04  0.10212135702E+04  0.25500000000E-02 0. -1.
    8880023    1    1    2    0    0 -0.26448089590E+03  0.10559054373E+04  0.32563382643E+03  0.13132912975E+04  0.65864270000E+03 0.  1.
    8880022    1    1    2    0    0  0.26448089590E+03 -0.10559054373E+04  0.45383858270E+02  0.11001535277E+04  0.15294330000E+03 0. -1.
<mgrwt>
<rscale>  0 0.12266140E+04</rscale>
<asrwt>0</asrwt>
<pdfrwt beam="1">  1        2 0.15710978E+00 0.12722801E+04</pdfrwt>
<pdfrwt beam="2">  1       -2 0.21418942E+00 0.12722801E+04</pdfrwt>
<totfact> 0.25382415E+00</totfact>
</mgrwt>
</event>
<event>
 4    1  0.3057048E-007  0.8339826E+03  0.7818608E-02  0.9641633E-01
         -2   -1    0    0    0  501 -0.00000000000E+00  0.00000000000E+00  0.69944232666E+03  0.69944232667E+03  0.25500000000E-02 0.  1.
          2   -1    0    0  501    0  0.00000000000E+00 -0.00000000000E+00 -0.14973725904E+04  0.14973725904E+04  0.25500000000E-02 0. -1.
    8880023    1    1    2    0    0 -0.19347604161E+03 -0.47358601796E+03  0.37018300652E+03  0.91244855179E+03  0.65864270000E+03 0.  1.
    8880022    1    1    2    0    0  0.19347604161E+03  0.47358601796E+03 -0.11681132702E+04  0.12843663652E+04  0.15294330000E+03 0.  0.
<mgrwt>
<rscale>  0 0.74600883E+03</rscale>
<asrwt>0</asrwt>
<pdfrwt beam="1">  1        2 0.23036501E+00 0.83398255E+03</pdfrwt>
<pdfrwt beam="2">  1       -2 0.10760651E+00 0.83398255E+03</pdfrwt>
<totfact> 0.89459271E+00</totfact>
</mgrwt>
</event>
<event>
 4    1  0.3057048E-007  0.6791587E+03  0.7818608E-02  0.1009804E+00
         -2   -1    0    0    0  501 -0.00000000000E+00  0.00000000000E+00  0.57671302751E+03  0.57671302752E+03  0.25500000000E-02 0.  1.
          2   -1    0    0  501    0  0.00000000000E+00 -0.00000000000E+00 -0.13601811010E+04  0.13601811010E+04  0.25500000000E-02 0. -1.
    8880023    1    1    2    0    0  0.62488203882E+02 -0.15343264256E+03  0.36188656805E+03  0.76955730509E+03  0.65864270000E+03 0.  1.
    8880022    1    1    2    0    0 -0.62488203882E+02  0.15343264256E+03 -0.11453546415E+04  0.11673368234E+04  0.15294330000E+03 0.  0.
<mgrwt>
<rscale>  0 0.51552772E+03</rscale>
<asrwt>0</asrwt>
<pdfrwt beam="1">  1        2 0.20925863E+00 0.67915871E+03</pdfrwt>
<pdfrwt beam="2">  1       -2 0.88725082E-01 0.67915871E+03</pdfrwt>
<totfact> 0.17175580E+01</totfact>
</mgrwt>
</event>
<event>
 4    1  0.3057048E-007  0.1190428E+04  0.7818608E-02  0.9166484E-01
         -2   -1    0    0    0  501 -0.00000000000E+00  0.00000000000E+00  0.92406492976E+03  0.92406492976E+03  0.25500000000E-02 0.  1.
          2   -1    0    0  501    0  0.00000000000E+00 -0.00000000000E+00 -0.13371190694E+04  0.13371190694E+04  0.25500000000E-02 0. -1.
    8880023    1    1    2    0    0  0.18685940858E+02  0.99144278285E+03 -0.41173035187E+02  0.11911395305E+04  0.65864270000E+03 0.  0.
    8880022    1    1    2    0    0 -0.18685940858E+02 -0.99144278285E+03 -0.37188110447E+03  0.10700444687E+04  0.15294330000E+03 0.  0.
<mgrwt>
<rscale>  0 0.11406168E+04</rscale>
<asrwt>0</asrwt>
<pdfrwt beam="1">  1        2 0.20571063E+00 0.11904277E+04</pdfrwt>
<pdfrwt beam="2">  1       -2 0.14216384E+00 0.11904277E+04</pdfrwt>
<totfact> 0.52862380E+00</totfact>
</mgrwt>
</event>
<event>
 4    1  0.3057048E-007  0.8176061E+03  0.7818608E-02  0.9673946E-01
          2   -1    0    0  501    0  0.00000000000E+00  0.00000000000E+00  0.20805969599E+04  0.20805969599E+04  0.25500000000E-02 0. -1.
         -2   -1    0    0    0  501 -0.00000000000E+00 -0.00000000000E+00 -0.64622538186E+03  0.64622538186E+03  0.25500000000E-02 0.  1.
    8880023    1    1    2    0    0  0.45525012026E+03 -0.16558049887E+03 -0.33678576560E+03  0.88425360151E+03  0.65864270000E+03 0.  1.
    8880022    1    1    2    0    0 -0.45525012026E+03  0.16558049887E+03  0.17711573436E+04  0.18425687402E+04  0.15294330000E+03 0.  0.
<mgrwt>
<rscale>  0 0.72589440E+03</rscale>
<asrwt>0</asrwt>
<pdfrwt beam="1">  1        2 0.32009184E+00 0.81760613E+03</pdfrwt>
<pdfrwt beam="2">  1       -2 0.99419289E-01 0.81760613E+03</pdfrwt>
<totfact> 0.51813473E+00</totfact>
</mgrwt>
</event>
<event>
 4    1  0.3057048E-007  0.8837776E+03  0.7818608E-02  0.9552592E-01
         -2   -1    0    0    0  501 -0.00000000000E+00  0.00000000000E+00  0.17318605000E+03  0.17318605002E+03  0.25500000000E-02 0.  1.
          2   -1    0    0  501    0  0.00000000000E+00 -0.00000000000E+00 -0.34645581269E+04  0.34645581269E+04  0.25500000000E-02 0. -1.
    8880023    1    1    2    0    0 -0.38527296471E+03  0.44588933666E+03 -0.14475722492E+04  0.16960330718E+04  0.65864270000E+03 0. -1.
    8880022    1    1    2    0    0  0.38527296471E+03 -0.44588933666E+03 -0.18437998277E+04  0.19417111050E+04  0.15294330000E+03 0.  0.
<mgrwt>
<rscale>  0 0.80515015E+03</rscale>
<asrwt>0</asrwt>
<pdfrwt beam="1">  1        2 0.53300889E+00 0.88377755E+03</pdfrwt>
<pdfrwt beam="2">  1       -2 0.26644010E-01 0.88377755E+03</pdfrwt>
<totfact> 0.11568869E+01</totfact>
</mgrwt>
</event>
<event>
 4    1  0.3057048E-007  0.7241109E+03  0.7818608E-02  0.9908914E-01
          2   -1    0    0  501    0  0.00000000000E+00  0.00000000000E+00  0.42594441531E+04  0.42594441531E+04  0.25500000000E-02 0. -1.
         -2   -1    0    0    0  501 -0.00000000000E+00 -0.00000000000E+00 -0.99342363138E+02  0.99342363171E+02  0.25500000000E-02 0.  1.
    8880023    1    1    2    0    0 -0.46199459941E+02  0.29730799298E+03  0.13815770359E+04  0.15598370893E+04  0.65864270000E+03 0.  1.
    8880022    1    1    2    0    0  0.46199459941E+02 -0.29730799298E+03  0.27785247540E+04  0.27989494269E+04  0.15294330000E+03 0.  0.
<mgrwt>
<rscale>  0 0.59831227E+03</rscale>
<asrwt>0</asrwt>
<pdfrwt beam="1">  1        2 0.65529907E+00 0.72411093E+03</pdfrwt>
<pdfrwt beam="2">  1       -2 0.15283441E-01 0.72411093E+03</pdfrwt>
<totfact> 0.78552203E+00</totfact>
</mgrwt>
</event>
<event>
 4    1  0.3057048E-007  0.7359496E+03  0.7818608E-02  0.9871906E-01
          2   -1    0    0  501    0  0.00000000000E+00  0.00000000000E+00  0.10120148050E+04  0.10120148050E+04  0.25500000000E-02 0. -1.
         -2   -1    0    0    0  501 -0.00000000000E+00 -0.00000000000E+00 -0.32685889820E+03  0.32685889821E+03  0.25500000000E-02 0.  1.
    8880023    1    1    2    0    0  0.29336972997E+03  0.14746470182E+03  0.26043837804E+03  0.78067278149E+03  0.65864270000E+03 0. -1.
    8880022    1    1    2    0    0 -0.29336972997E+03 -0.14746470182E+03  0.42471752871E+03  0.55820092167E+03  0.15294330000E+03 0.  0.
<mgrwt>
<rscale>  0 0.61642345E+03</rscale>
<asrwt>0</asrwt>
<pdfrwt beam="1">  1        2 0.15569458E+00 0.73594962E+03</pdfrwt>
<pdfrwt beam="2">  1       -2 0.50285985E-01 0.73594962E+03</pdfrwt>
<totfact> 0.93939439E+01</totfact>
</mgrwt>
</event>
<event>
 4    1  0.3057048E-007  0.7023128E+03  0.7818608E-02  0.9987739E-01
         -2   -1    0    0    0  501 -0.00000000000E+00  0.00000000000E+00  0.40887372640E+03  0.40887372641E+03  0.25500000000E-02 0.  1.
          2   -1    0    0  501    0  0.00000000000E+00 -0.00000000000E+00 -0.11118589339E+04  0.11118589339E+04  0.25500000000E-02 0. -1.
    8880023    1    1    2    0    0 -0.21077037153E+03 -0.12251066872E+03  0.60395654950E+02  0.70490485519E+03  0.65864270000E+03 0.  0.
    8880022    1    1    2    0    0  0.21077037153E+03  0.12251066872E+03 -0.76338086249E+03  0.81582780517E+03  0.15294330000E+03 0.  0.
<mgrwt>
<rscale>  0 0.56191145E+03</rscale>
<asrwt>0</asrwt>
<pdfrwt beam="1">  1        2 0.17105522E+00 0.70231276E+03</pdfrwt>
<pdfrwt beam="2">  1       -2 0.62903651E-01 0.70231276E+03</pdfrwt>
<totfact> 0.51238313E+01</totfact>
</mgrwt>
</event>
<event>
 4    1  0.3057048E-007  0.6677450E+03  0.7818608E-02  0.1017334E+00
          2   -1    0    0  501    0  0.00000000000E+00  0.00000000000E+00  0.81148579995E+03  0.81148579995E+03  0.25500000000E-02 0. -1.
         -2   -1    0    0    0  501 -0.00000000000E+00 -0.00000000000E+00 -0.13769404704E+04  0.13769404704E+04  0.25500000000E-02 0.  1.
    8880023    1    1    2    0    0 -0.10835496475E+03 -0.18230095439E+02 -0.12831157569E+04  0.14464679003E+04  0.65864270000E+03 0.  1.
    8880022    1    1    2    0    0  0.10835496475E+03  0.18230095439E+02  0.71766108648E+03  0.74195837001E+03  0.15294330000E+03 0.  0.
<mgrwt>
<rscale>  0 0.48661180E+03</rscale>
<asrwt>0</asrwt>
<pdfrwt beam="1">  1        2 0.12484397E+00 0.66774497E+03</pdfrwt>
<pdfrwt beam="2">  1       -2 0.21183700E+00 0.66774497E+03</pdfrwt>
<totfact> 0.39040332E+00</totfact>
</mgrwt>
</event>
<event>
 4    1  0.3059288E-007  0.1029336E+04  0.7818608E-02  0.9344145E-01
          2   -1    0    0  501    0  0.00000000000E+00  0.00000000000E+00  0.18224414803E+04  0.18224414803E+04  0.25500000000E-02 0. -1.
         -2   -1    0    0    0  501 -0.00000000000E+00 -0.00000000000E+00 -0.13873346454E+04  0.13873346454E+04  0.25500000000E-02 0.  1.
    8880023    1    1    2    0    0  0.76696222291E+03  0.19362790964E+03 -0.10811312082E+04  0.14927751720E+04  0.65864270000E+03 0.  1.
    8880022    1    1    2    0    0 -0.76696222291E+03 -0.19362790964E+03  0.15162380430E+04  0.17170009536E+04  0.15294330000E+03 0.  0.
<mgrwt>
<rscale>  0 0.96818444E+03</rscale>
<asrwt>0</asrwt>
<pdfrwt beam="1">  1        2 0.28037561E+00 0.10293362E+04</pdfrwt>
<pdfrwt beam="2">  1       -2 0.21343610E+00 0.10293362E+04</pdfrwt>
<totfact> 0.90617830E-01</totfact>
</mgrwt>
</event>
<event>
 4    1  0.3057048E-007  0.6841410E+03  0.7818608E-02  0.1007072E+00
          2   -1    0    0  501    0  0.00000000000E+00  0.00000000000E+00  0.44585448985E+03  0.44585448986E+03  0.25500000000E-02 0. -1.
         -2   -1    0    0    0  501 -0.00000000000E+00 -0.00000000000E+00 -0.92189861861E+03  0.92189861861E+03  0.25500000000E-02 0.  1.
    8880023    1    1    2    0    0 -0.10122195627E+03  0.15489636768E+03 -0.74214332123E+03  0.10093689537E+04  0.65864270000E+03 0.  1.
    8880022    1    1    2    0    0  0.10122195627E+03 -0.15489636768E+03  0.26609919248E+03  0.35838415479E+03  0.15294330000E+03 0.  1.
<mgrwt>
<rscale>  0 0.52655133E+03</rscale>
<asrwt>0</asrwt>
<pdfrwt beam="1">  1        2 0.68592999E-01 0.68414105E+03</pdfrwt>
<pdfrwt beam="2">  1       -2 0.14183056E+00 0.68414105E+03</pdfrwt>
<totfact> 0.24851612E+01</totfact>
</mgrwt>
</event>
<event>
 4    1  0.3057048E-007  0.8682019E+03  0.7818608E-02  0.9579137E-01
         -2   -1    0    0    0  501 -0.00000000000E+00  0.00000000000E+00  0.45331970033E+03  0.45331970034E+03  0.25500000000E-02 0.  1.
          2   -1    0    0  501    0  0.00000000000E+00 -0.00000000000E+00 -0.23017483804E+04  0.23017483804E+04  0.25500000000E-02 0. -1.
    8880023    1    1    2    0    0 -0.56121220345E+03 -0.70747096430E+02 -0.56807748336E+02  0.87005839774E+03  0.65864270000E+03 0.  1.
    8880022    1    1    2    0    0  0.56121220345E+03  0.70747096430E+02 -0.17916209317E+04  0.18850096830E+04  0.15294330000E+03 0.  0.
<mgrwt>
<rscale>  0 0.78692548E+03</rscale>
<asrwt>0</asrwt>
<pdfrwt beam="1">  1        2 0.35411513E+00 0.86820187E+03</pdfrwt>
<pdfrwt beam="2">  1       -2 0.69741494E-01 0.86820187E+03</pdfrwt>
<totfact> 0.86871954E+00</totfact>
</mgrwt>
</event>
<event>
 4    1  0.3057048E-007  0.6784997E+03  0.7818608E-02  0.1010185E+00
          2   -1    0    0  501    0  0.00000000000E+00  0.00000000000E+00  0.21717417854E+03  0.21717417856E+03  0.25500000000E-02 0. -1.
         -2   -1    0    0    0  501 -0.00000000000E+00 -0.00000000000E+00 -0.10965965098E+04  0.10965965098E+04  0.25500000000E-02 0.  1.
    8880023    1    1    2    0    0  0.16294462519E+03  0.83976078446E+00 -0.85117420778E+03  0.10885124686E+04  0.65864270000E+03 0.  0.
    8880022    1    1    2    0    0 -0.16294462519E+03 -0.83976078446E+00 -0.28248123500E+02  0.22525821976E+03  0.15294330000E+03 0.  0.
<mgrwt>
<rscale>  0 0.51401041E+03</rscale>
<asrwt>0</asrwt>
<pdfrwt beam="1">  1        2 0.33411413E-01 0.67849971E+03</pdfrwt>
<pdfrwt beam="2">  1       -2 0.16870715E+00 0.67849971E+03</pdfrwt>
<totfact> 0.34908979E+01</totfact>
</mgrwt>
</event>
<event>
 4    1  0.3057048E-007  0.6636169E+03  0.7818608E-02  0.1020723E+00
         -2   -1    0    0    0  501 -0.00000000000E+00  0.00000000000E+00  0.36648064425E+03  0.36648064426E+03  0.25500000000E-02 0.  1.
          2   -1    0    0  501    0  0.00000000000E+00 -0.00000000000E+00 -0.77581230398E+03  0.77581230399E+03  0.25500000000E-02 0. -1.
    8880023    1    1    2    0    0 -0.37820280402E+02 -0.71741654506E+02 -0.59295281016E+03  0.88993285136E+03  0.65864270000E+03 0. -1.
    8880022    1    1    2    0    0  0.37820280402E+02  0.71741654506E+02  0.18362115043E+03  0.25236009688E+03  0.15294330000E+03 0.  0.
<mgrwt>
<rscale>  0 0.47426594E+03</rscale>
<asrwt>0</asrwt>
<pdfrwt beam="1">  1        2 0.11935574E+00 0.66361694E+03</pdfrwt>
<pdfrwt beam="2">  1       -2 0.56381638E-01 0.66361694E+03</pdfrwt>
<totfact> 0.10780683E+02</totfact>
</mgrwt>
</event>
<event>
 4    1  0.3057048E-007  0.6837575E+03  0.7818608E-02  0.1007273E+00
          2   -1    0    0  501    0  0.00000000000E+00  0.00000000000E+00  0.87355266817E+03  0.87355266817E+03  0.25500000000E-02 0. -1.
         -2   -1    0    0    0  501 -0.00000000000E+00 -0.00000000000E+00 -0.52673676839E+03  0.52673676840E+03  0.25500000000E-02 0.  1.
    8880023    1    1    2    0    0  0.17385364450E+03 -0.59067439811E+02 -0.27281560282E+03  0.73617430786E+03  0.65864270000E+03 0.  1.
    8880022    1    1    2    0    0 -0.17385364450E+03  0.59067439811E+02  0.61963150260E+03  0.66411512871E+03  0.15294330000E+03 0. -1.
<mgrwt>
<rscale>  0 0.52572847E+03</rscale>
<asrwt>0</asrwt>
<pdfrwt beam="1">  1        2 0.13439272E+00 0.68375746E+03</pdfrwt>
<pdfrwt beam="2">  1       -2 0.81036425E-01 0.68375746E+03</pdfrwt>
<totfact> 0.41886746E+01</totfact>
</mgrwt>
</event>
<event>
 4    1  0.3057048E-007  0.6730783E+03  0.7818608E-02  0.1013546E+00
         -2   -1    0    0    0  501 -0.00000000000E+00  0.00000000000E+00  0.44486688927E+03  0.44486688928E+03  0.25500000000E-02 0.  1.
          2   -1    0    0  501    0  0.00000000000E+00 -0.00000000000E+00 -0.10562472360E+04  0.10562472360E+04  0.25500000000E-02 0. -1.
    8880023    1    1    2    0    0  0.13775146536E+03 -0.15771897187E+02  0.16893399534E+03  0.69395469592E+03  0.65864270000E+03 0.  1.
    8880022    1    1    2    0    0 -0.13775146536E+03  0.15771897187E+02 -0.78031434208E+03  0.80715942937E+03  0.15294330000E+03 0.  0.
<mgrwt>
<rscale>  0 0.50089376E+03</rscale>
<asrwt>0</asrwt>
<pdfrwt beam="1">  1        2 0.16249957E+00 0.67307832E+03</pdfrwt>
<pdfrwt beam="2">  1       -2 0.68441060E-01 0.67307832E+03</pdfrwt>
<totfact> 0.46368113E+01</totfact>
</mgrwt>
</event>
<event>
 4    1  0.3057048E-007  0.7613168E+03  0.7818608E-02  0.9801710E-01
         -2   -1    0    0    0  501 -0.00000000000E+00  0.00000000000E+00  0.16198893768E+03  0.16198893770E+03  0.25500000000E-02 0.  1.
          2   -1    0    0  501    0  0.00000000000E+00 -0.00000000000E+00 -0.37321548992E+04  0.37321548992E+04  0.25500000000E-02 0. -1.
    8880023    1    1    2    0    0  0.15318873233E+03 -0.34975183383E+03 -0.84202326901E+03  0.11351680602E+04  0.65864270000E+03 0.  1.
    8880022    1    1    2    0    0 -0.15318873233E+03  0.34975183383E+03 -0.27281426925E+04  0.27589757768E+04  0.15294330000E+03 0.  0.
<mgrwt>
<rscale>  0 0.65270846E+03</rscale>
<asrwt>0</asrwt>
<pdfrwt beam="1">  1        2 0.57417761E+00 0.76131685E+03</pdfrwt>
<pdfrwt beam="2">  1       -2 0.24921378E-01 0.76131685E+03</pdfrwt>
<totfact> 0.86599649E+00</totfact>
</mgrwt>
</event>
<event>
 4    1  0.3057048E-007  0.6809338E+03  0.7818608E-02  0.1008800E+00
         -2   -1    0    0    0  501 -0.00000000000E+00  0.00000000000E+00  0.19746392327E+03  0.19746392328E+03  0.25500000000E-02 0.  1.
          2   -1    0    0  501    0  0.00000000000E+00 -0.00000000000E+00 -0.22612271405E+04  0.22612271405E+04  0.25500000000E-02 0. -1.
    8880023    1    1    2    0    0 -0.16948428867E+03  0.33699295738E+02 -0.42266239177E+03  0.80144511373E+03  0.65864270000E+03 0.  0.
    8880022    1    1    2    0    0  0.16948428867E+03 -0.33699295738E+02 -0.16411008255E+04  0.16572459501E+04  0.15294330000E+03 0.  0.
<mgrwt>
<rscale>  0 0.51954224E+03</rscale>
<asrwt>0</asrwt>
<pdfrwt beam="1">  1        2 0.34788108E+00 0.68093375E+03</pdfrwt>
<pdfrwt beam="2">  1       -2 0.30379067E-01 0.68093375E+03</pdfrwt>
<totfact> 0.49895057E+01</totfact>
</mgrwt>
</event>
<event>
 4    1  0.3057048E-007  0.6705604E+03  0.7818608E-02  0.1015264E+00
          2   -1    0    0  501    0  0.00000000000E+00  0.00000000000E+00  0.12974941298E+04  0.12974941298E+04  0.25500000000E-02 0. -1.
         -2   -1    0    0    0  501 -0.00000000000E+00 -0.00000000000E+00 -0.71455260166E+03  0.71455260166E+03  0.25500000000E-02 0.  1.
    8880023    1    1    2    0    0 -0.11870347298E+03 -0.41839987072E+02 -0.54669627422E+03  0.86517519701E+03  0.65864270000E+03 0.  1.
    8880022    1    1    2    0    0  0.11870347298E+03  0.41839987072E+02  0.11296378024E+04  0.11468715345E+04  0.15294330000E+03 0.  0.
<mgrwt>
<rscale>  0 0.49435001E+03</rscale>
<asrwt>0</asrwt>
<pdfrwt beam="1">  1        2 0.19961448E+00 0.67056044E+03</pdfrwt>
<pdfrwt beam="2">  1       -2 0.10993117E+00 0.67056044E+03</pdfrwt>
<totfact> 0.11265236E+01</totfact>
</mgrwt>
</event>
<event>
 4    1  0.3057048E-007  0.7407482E+03  0.7818608E-02  0.9857773E-01
          2   -1    0    0  501    0  0.00000000000E+00  0.00000000000E+00  0.16269463637E+04  0.16269463637E+04  0.25500000000E-02 0. -1.
         -2   -1    0    0    0  501 -0.00000000000E+00 -0.00000000000E+00 -0.28014582718E+03  0.28014582719E+03  0.25500000000E-02 0.  1.
    8880023    1    1    2    0    0  0.39770912856E+02 -0.33662432412E+03  0.30530610892E+03  0.80119890633E+03  0.65864270000E+03 0.  1.
    8880022    1    1    2    0    0 -0.39770912856E+02  0.33662432412E+03  0.10414944276E+04  0.11058932846E+04  0.15294330000E+03 0. -1.
<mgrwt>
<rscale>  0 0.62352163E+03</rscale>
<asrwt>0</asrwt>
<pdfrwt beam="1">  1        2 0.25029944E+00 0.74074818E+03</pdfrwt>
<pdfrwt beam="2">  1       -2 0.43099359E-01 0.74074818E+03</pdfrwt>
<totfact> 0.56303432E+01</totfact>
</mgrwt>
</event>
<event>
 4    1  0.3057048E-007  0.8422178E+03  0.7818608E-02  0.9626013E-01
         -2   -1    0    0    0  501 -0.00000000000E+00  0.00000000000E+00  0.16592079326E+03  0.16592079328E+03  0.25500000000E-02 0.  1.
          2   -1    0    0  501    0  0.00000000000E+00 -0.00000000000E+00 -0.33588870271E+04  0.33588870271E+04  0.25500000000E-02 0. -1.
    8880023    1    1    2    0    0  0.27487557682E+03 -0.44717335131E+03 -0.12565980039E+04  0.15127357134E+04  0.65864270000E+03 0.  1.
    8880022    1    1    2    0    0 -0.27487557682E+03  0.44717335131E+03 -0.19363682300E+04  0.20120721071E+04  0.15294330000E+03 0.  0.
<mgrwt>
<rscale>  0 0.75598167E+03</rscale>
<asrwt>0</asrwt>
<pdfrwt beam="1">  1        2 0.51675180E+00 0.84221778E+03</pdfrwt>
<pdfrwt beam="2">  1       -2 0.25526278E-01 0.84221778E+03</pdfrwt>
<totfact> 0.14820057E+01</totfact>
</mgrwt>
</event>
<event>
 4    1  0.3057048E-007  0.6763827E+03  0.7818608E-02  0.1011449E+00
          2   -1    0    0  501    0  0.00000000000E+00  0.00000000000E+00  0.33502083916E+04  0.33502083916E+04  0.25500000000E-02 0. -1.
         -2   -1    0    0    0  501 -0.00000000000E+00 -0.00000000000E+00 -0.14072793807E+03  0.14072793809E+03  0.25500000000E-02 0.  1.
    8880023    1    1    2    0    0 -0.14094402655E+03 -0.61791365613E+02  0.70470662577E+03  0.97678299850E+03  0.65864270000E+03 0.  1.
    8880022    1    1    2    0    0  0.14094402655E+03  0.61791365613E+02  0.25047738278E+04  0.25141533312E+04  0.15294330000E+03 0.  0.
<mgrwt>
<rscale>  0 0.50902982E+03</rscale>
<asrwt>0</asrwt>
<pdfrwt beam="1">  1        2 0.51541663E+00 0.67638273E+03</pdfrwt>
<pdfrwt beam="2">  1       -2 0.21650454E-01 0.67638273E+03</pdfrwt>
<totfact> 0.20753593E+01</totfact>
</mgrwt>
</event>
<event>
 4    1  0.3057048E-007  0.1020138E+04  0.7818608E-02  0.9355673E-01
         -2   -1    0    0    0  501 -0.00000000000E+00  0.00000000000E+00  0.93172940160E+03  0.93172940160E+03  0.25500000000E-02 0.  1.
          2   -1    0    0  501    0  0.00000000000E+00 -0.00000000000E+00 -0.13690035304E+04  0.13690035304E+04  0.25500000000E-02 0. -1.
    8880023    1    1    2    0    0 -0.56125553360E+03  0.54024335847E+03  0.44577583639E+03  0.11132820680E+04  0.65864270000E+03 0.  1.
    8880022    1    1    2    0    0  0.56125553360E+03 -0.54024335847E+03 -0.88304996521E+03  0.11874508640E+04  0.15294330000E+03 0.  0.
<mgrwt>
<rscale>  0 0.95815166E+03</rscale>
<asrwt>0</asrwt>
<pdfrwt beam="1">  1        2 0.21061593E+00 0.10201377E+04</pdfrwt>
<pdfrwt beam="2">  1       -2 0.14334298E+00 0.10201377E+04</pdfrwt>
<totfact> 0.50404554E+00</totfact>
</mgrwt>
</event>
<event>
 4    1  0.3057048E-007  0.7884711E+03  0.7818608E-02  0.9736302E-01
         -2   -1    0    0    0  501 -0.00000000000E+00  0.00000000000E+00  0.23118427468E+03  0.23118427469E+03  0.25500000000E-02 0.  1.
          2   -1    0    0  501    0  0.00000000000E+00 -0.00000000000E+00 -0.28003693596E+04  0.28003693596E+04  0.25500000000E-02 0. -1.
    8880023    1    1    2    0    0 -0.21969523590E+03 -0.37364495015E+03 -0.55157136835E+03  0.96224618789E+03  0.65864270000E+03 0.  1.
    8880022    1    1    2    0    0  0.21969523590E+03  0.37364495015E+03 -0.20176137166E+04  0.20693074464E+04  0.15294330000E+03 0.  0.
<mgrwt>
<rscale>  0 0.68895939E+03</rscale>
<asrwt>0</asrwt>
<pdfrwt beam="1">  1        2 0.43082603E+00 0.78847115E+03</pdfrwt>
<pdfrwt beam="2">  1       -2 0.35566813E-01 0.78847115E+03</pdfrwt>
<totfact> 0.17987663E+01</totfact>
</mgrwt>
</event>
<event>
 4    1  0.3057048E-007  0.6647417E+03  0.7818608E-02  0.1019751E+00
         -2   -1    0    0    0  501 -0.00000000000E+00  0.00000000000E+00  0.62484029544E+02  0.62484029596E+02  0.25500000000E-02 0.  1.
          2   -1    0    0  501    0  0.00000000000E+00 -0.00000000000E+00 -0.33930090172E+04  0.33930090172E+04  0.25500000000E-02 0. -1.
    8880023    1    1    2    0    0  0.42110421549E+02  0.79359855666E+02 -0.18779670397E+04  0.19921449954E+04  0.65864270000E+03 0.  1.
    8880022    1    1    2    0    0 -0.42110421549E+02 -0.79359855666E+02 -0.14525579480E+04  0.14633480514E+04  0.15294330000E+03 0. -1.
<mgrwt>
<rscale>  0 0.47776526E+03</rscale>
<asrwt>0</asrwt>
<pdfrwt beam="1">  1        2 0.52200124E+00 0.66474166E+03</pdfrwt>
<pdfrwt beam="2">  1       -2 0.96129303E-02 0.66474166E+03</pdfrwt>
<totfact> 0.76549903E+01</totfact>
</mgrwt>
</event>
<event>
 4    1  0.3057048E-007  0.7089614E+03  0.7818608E-02  0.9961878E-01
          2   -1    0    0  501    0  0.00000000000E+00  0.00000000000E+00  0.18893782112E+04  0.18893782112E+04  0.25500000000E-02 0. -1.
         -2   -1    0    0    0  501 -0.00000000000E+00 -0.00000000000E+00 -0.59644508552E+03  0.59644508552E+03  0.25500000000E-02 0.  1.
    8880023    1    1    2    0    0 -0.19025235312E+03 -0.18061028505E+03 -0.36701659213E+03  0.79832788884E+03  0.65864270000E+03 0.  1.
    8880022    1    1    2    0    0  0.19025235312E+03  0.18061028505E+03  0.16599497178E+04  0.16874954079E+04  0.15294330000E+03 0.  0.
<mgrwt>
<rscale>  0 0.57353883E+03</rscale>
<asrwt>0</asrwt>
<pdfrwt beam="1">  1        2 0.29067357E+00 0.70896138E+03</pdfrwt>
<pdfrwt beam="2">  1       -2 0.91760782E-01 0.70896138E+03</pdfrwt>
<totfact> 0.80862031E+00</totfact>
</mgrwt>
</event>
<event>
 4    1  0.3057048E-007  0.6759275E+03  0.7818608E-02  0.1011728E+00
         -2   -1    0    0    0  501 -0.00000000000E+00  0.00000000000E+00  0.75203641548E+02  0.75203641591E+02  0.25500000000E-02 0.  1.
          2   -1    0    0  501    0  0.00000000000E+00 -0.00000000000E+00 -0.44409265442E+04  0.44409265442E+04  0.25500000000E-02 0. -1.
    8880023    1    1    2    0    0  0.14909058509E+03  0.28978776453E+02 -0.15352183764E+04  0.16774306070E+04  0.65864270000E+03 0.  1.
    8880022    1    1    2    0    0 -0.14909058509E+03 -0.28978776453E+02 -0.28305045263E+04  0.28386995788E+04  0.15294330000E+03 0.  0.
<mgrwt>
<rscale>  0 0.50793637E+03</rscale>
<asrwt>0</asrwt>
<pdfrwt beam="1">  1        2 0.68321926E+00 0.67592749E+03</pdfrwt>
<pdfrwt beam="2">  1       -2 0.11569794E-01 0.67592749E+03</pdfrwt>
<totfact> 0.87011307E+00</totfact>
</mgrwt>
</event>
<event>
 4    1  0.3057048E-007  0.7212095E+03  0.7818608E-02  0.9918515E-01
          2   -1    0    0  501    0  0.00000000000E+00  0.00000000000E+00  0.27426094626E+04  0.27426094626E+04  0.25500000000E-02 0. -1.
         -2   -1    0    0    0  501 -0.00000000000E+00 -0.00000000000E+00 -0.10730140077E+03  0.10730140080E+03  0.25500000000E-02 0.  1.
    8880023    1    1    2    0    0  0.61774735017E+02  0.28725739216E+03  0.21001164131E+04  0.22205026642E+04  0.65864270000E+03 0.  0.
    8880022    1    1    2    0    0 -0.61774735017E+02 -0.28725739216E+03  0.53519164878E+03  0.62940819916E+03  0.15294330000E+03 0.  0.
<mgrwt>
<rscale>  0 0.59372327E+03</rscale>
<asrwt>0</asrwt>
<pdfrwt beam="1">  1        2 0.42193989E+00 0.72120949E+03</pdfrwt>
<pdfrwt beam="2">  1       -2 0.16507909E-01 0.72120949E+03</pdfrwt>
<totfact> 0.78259257E+01</totfact>
</mgrwt>
</event>
<event>
 4    1  0.3057048E-007  0.6617195E+03  0.7818608E-02  0.1022460E+00
         -2   -1    0    0    0  501 -0.00000000000E+00  0.00000000000E+00  0.12551942272E+03  0.12551942274E+03  0.25500000000E-02 0.  1.
          2   -1    0    0  501    0  0.00000000000E+00 -0.00000000000E+00 -0.23027924949E+04  0.23027924949E+04  0.25500000000E-02 0. -1.
    8880023    1    1    2    0    0 -0.46969909044E+02 -0.43084300081E+02 -0.78709901453E+03  0.10282983488E+04  0.65864270000E+03 0.  1.
    8880022    1    1    2    0    0  0.46969909044E+02  0.43084300081E+02 -0.13901740576E+04  0.14000135688E+04  0.15294330000E+03 0.  0.
<mgrwt>
<rscale>  0 0.46809208E+03</rscale>
<asrwt>0</asrwt>
<pdfrwt beam="1">  1        2 0.35427574E+00 0.66171945E+03</pdfrwt>
<pdfrwt beam="2">  1       -2 0.19310682E-01 0.66171945E+03</pdfrwt>
<totfact> 0.10698651E+02</totfact>
</mgrwt>
</event>
<event>
 4    1  0.3057048E-007  0.7727076E+03  0.7818608E-02  0.9773254E-01
          2   -1    0    0  501    0  0.00000000000E+00  0.00000000000E+00  0.70774195009E+03  0.70774195010E+03  0.25500000000E-02 0. -1.
         -2   -1    0    0    0  501 -0.00000000000E+00 -0.00000000000E+00 -0.21200191820E+04  0.21200191820E+04  0.25500000000E-02 0.  1.
    8880023    1    1    2    0    0  0.27694674356E+03  0.29422317954E+03 -0.19735703793E+04  0.21194473398E+04  0.65864270000E+03 0.  0.
    8880022    1    1    2    0    0 -0.27694674356E+03 -0.29422317954E+03  0.56129314731E+03  0.70831379231E+03  0.15294330000E+03 0.  0.
<mgrwt>
<rscale>  0 0.66817824E+03</rscale>
<asrwt>0</asrwt>
<pdfrwt beam="1">  1        2 0.10888338E+00 0.77270757E+03</pdfrwt>
<pdfrwt beam="2">  1       -2 0.32615679E+00 0.77270757E+03</pdfrwt>
<totfact> 0.92654886E-01</totfact>
</mgrwt>
</event>
<event>
 4    1  0.3057048E-007  0.7436106E+03  0.7818608E-02  0.9849552E-01
         -2   -1    0    0    0  501 -0.00000000000E+00  0.00000000000E+00  0.44327760250E+03  0.44327760251E+03  0.25500000000E-02 0.  1.
          2   -1    0    0  501    0  0.00000000000E+00 -0.00000000000E+00 -0.13316981973E+04  0.13316981973E+04  0.25500000000E-02 0. -1.
    8880023    1    1    2    0    0 -0.26220875825E+03  0.22448417086E+03  0.68021495646E+02  0.74671527774E+03  0.65864270000E+03 0.  1.
    8880022    1    1    2    0    0  0.26220875825E+03 -0.22448417086E+03 -0.95644209045E+03  0.10282605221E+04  0.15294330000E+03 0.  0.
<mgrwt>
<rscale>  0 0.62769781E+03</rscale>
<asrwt>0</asrwt>
<pdfrwt beam="1">  1        2 0.20487664E+00 0.74361064E+03</pdfrwt>
<pdfrwt beam="2">  1       -2 0.68196555E-01 0.74361064E+03</pdfrwt>
<totfact> 0.31837844E+01</totfact>
</mgrwt>
</event>
<event>
 4    1  0.3057048E-007  0.7037983E+03  0.7818608E-02  0.9981795E-01
         -2   -1    0    0    0  501 -0.00000000000E+00  0.00000000000E+00  0.18274099897E+03  0.18274099898E+03  0.25500000000E-02 0.  1.
          2   -1    0    0  501    0  0.00000000000E+00 -0.00000000000E+00 -0.25282439478E+04  0.25282439478E+04  0.25500000000E-02 0. -1.
    8880023    1    1    2    0    0  0.24717440347E+03 -0.20654958505E+02 -0.55330909127E+03  0.89525581248E+03  0.65864270000E+03 0.  1.
    8880022    1    1    2    0    0 -0.24717440347E+03  0.20654958505E+02 -0.17921938575E+04  0.18157291343E+04  0.15294330000E+03 0.  0.
<mgrwt>
<rscale>  0 0.56455755E+03</rscale>
<asrwt>0</asrwt>
<pdfrwt beam="1">  1        2 0.38896058E+00 0.70379828E+03</pdfrwt>
<pdfrwt beam="2">  1       -2 0.28114002E-01 0.70379828E+03</pdfrwt>
<totfact> 0.40680089E+01</totfact>
</mgrwt>
</event>
<event>
 4    1  0.3057048E-007  0.7936354E+03  0.7818608E-02  0.9724730E-01
          2   -1    0    0  501    0  0.00000000000E+00  0.00000000000E+00  0.31663444628E+04  0.31663444628E+04  0.25500000000E-02 0. -1.
         -2   -1    0    0    0  501 -0.00000000000E+00 -0.00000000000E+00 -0.16451388352E+03  0.16451388354E+03  0.25500000000E-02 0.  1.
    8880023    1    1    2    0    0 -0.26300360422E+03 -0.35619666419E+03  0.10090504463E+04  0.12837600901E+04  0.65864270000E+03 0.  0.
    8880022    1    1    2    0    0  0.26300360422E+03  0.35619666419E+03  0.19927801329E+04  0.20470982562E+04  0.15294330000E+03 0.  0.
<mgrwt>
<rscale>  0 0.69563257E+03</rscale>
<asrwt>0</asrwt>
<pdfrwt beam="1">  1        2 0.48712991E+00 0.79363541E+03</pdfrwt>
<pdfrwt beam="2">  1       -2 0.25309829E-01 0.79363541E+03</pdfrwt>
<totfact> 0.20205910E+01</totfact>
</mgrwt>
</event>
<event>
 4    1  0.3057048E-007  0.1112828E+04  0.7818608E-02  0.9246907E-01
         -2   -1    0    0    0  501 -0.00000000000E+00  0.00000000000E+00  0.11474393981E+04  0.11474393981E+04  0.25500000000E-02 0.  1.
          2   -1    0    0  501    0  0.00000000000E+00 -0.00000000000E+00 -0.17314467743E+04  0.17314467743E+04  0.25500000000E-02 0. -1.
    8880023    1    1    2    0    0 -0.83325681361E+03  0.33205228842E+03  0.69291807191E+03  0.13109238347E+04  0.65864270000E+03 0.  0.
    8880022    1    1    2    0    0  0.83325681361E+03 -0.33205228842E+03 -0.12769254480E+04  0.15679623377E+04  0.15294330000E+03 0.  0.
<mgrwt>
<rscale>  0 0.10582119E+04</rscale>
<asrwt>0</asrwt>
<pdfrwt beam="1">  1        2 0.26637643E+00 0.11128279E+04</pdfrwt>
<pdfrwt beam="2">  1       -2 0.17652914E+00 0.11128279E+04</pdfrwt>
<totfact> 0.17704423E+00</totfact>
</mgrwt>
</event>
<event>
 4    1  0.3057048E-007  0.9511481E+03  0.7818608E-02  0.9448464E-01
         -2   -1    0    0    0  501 -0.00000000000E+00  0.00000000000E+00  0.50467290188E+03  0.50467290189E+03  0.25500000000E-02 0.  1.
          2   -1    0    0  501    0  0.00000000000E+00 -0.00000000000E+00 -0.22026104416E+04  0.22026104416E+04  0.25500000000E-02 0. -1.
    8880023    1    1    2    0    0 -0.25951230147E+03  0.63523684362E+03 -0.93693394551E+02  0.95575161028E+03  0.65864270000E+03 0.  0.
    8880022    1    1    2    0    0  0.25951230147E+03 -0.63523684362E+03 -0.16042441452E+04  0.17515317332E+04  0.15294330000E+03 0.  0.
<mgrwt>
<rscale>  0 0.88192366E+03</rscale>
<asrwt>0</asrwt>
<pdfrwt beam="1">  1        2 0.33886314E+00 0.95114809E+03</pdfrwt>
<pdfrwt beam="2">  1       -2 0.77641986E-01 0.95114809E+03</pdfrwt>
<totfact> 0.76941880E+00</totfact>
</mgrwt>
</event>
<event>
 4    1  0.3057048E-007  0.7827818E+03  0.7818608E-02  0.9749343E-01
          2   -1    0    0  501    0  0.00000000000E+00  0.00000000000E+00  0.54781253637E+03  0.54781253638E+03  0.25500000000E-02 0. -1.
         -2   -1    0    0    0  501 -0.00000000000E+00 -0.00000000000E+00 -0.12767429085E+04  0.12767429085E+04  0.25500000000E-02 0.  1.
    8880023    1    1    2    0    0 -0.32654219607E+03 -0.26890018213E+03 -0.10222690726E+04  0.12875485920E+04  0.65864270000E+03 0.  0.
    8880022    1    1    2    0    0  0.32654219607E+03  0.26890018213E+03  0.29333870049E+03  0.53700685283E+03  0.15294330000E+03 0.  0.
<mgrwt>
<rscale>  0 0.68153433E+03</rscale>
<asrwt>0</asrwt>
<pdfrwt beam="1">  1        2 0.84278853E-01 0.78278178E+03</pdfrwt>
<pdfrwt beam="2">  1       -2 0.19642198E+00 0.78278178E+03</pdfrwt>
<totfact> 0.78880412E+00</totfact>
</mgrwt>
</event>
<event>
 4    1  0.3057048E-007  0.7675996E+03  0.7818608E-02  0.9785816E-01
         -2   -1    0    0    0  501 -0.00000000000E+00  0.00000000000E+00  0.37691411459E+03  0.37691411459E+03  0.25500000000E-02 0.  1.
          2   -1    0    0  501    0  0.00000000000E+00 -0.00000000000E+00 -0.12827552974E+04  0.12827552974E+04  0.25500000000E-02 0. -1.
    8880023    1    1    2    0    0 -0.74025260836E+02 -0.38719392279E+03 -0.13345008439E+03  0.77911360171E+03  0.65864270000E+03 0.  1.
    8880022    1    1    2    0    0  0.74025260836E+02  0.38719392279E+03 -0.77239109839E+03  0.88055581025E+03  0.15294330000E+03 0.  0.
<mgrwt>
<rscale>  0 0.66129326E+03</rscale>
<asrwt>0</asrwt>
<pdfrwt beam="1">  1        2 0.19734697E+00 0.76759956E+03</pdfrwt>
<pdfrwt beam="2">  1       -2 0.57986787E-01 0.76759956E+03</pdfrwt>
<totfact> 0.47900176E+01</totfact>
</mgrwt>
</event>
<event>
 4    1  0.3057048E-007  0.6751903E+03  0.7818608E-02  0.1012187E+00
          2   -1    0    0  501    0  0.00000000000E+00  0.00000000000E+00  0.35403879545E+04  0.35403879545E+04  0.25500000000E-02 0. -1.
         -2   -1    0    0    0  501 -0.00000000000E+00 -0.00000000000E+00 -0.11024334812E+03  0.11024334815E+03  0.25500000000E-02 0.  1.
    8880023    1    1    2    0    0  0.14717850040E+03  0.20255249758E+02  0.97337802535E+03  0.11846293820E+04  0.65864270000E+03 0.  1.
    8880022    1    1    2    0    0 -0.14717850040E+03 -0.20255249758E+02  0.24567665810E+04  0.24660019207E+04  0.15294330000E+03 0.  0.
<mgrwt>
<rscale>  0 0.50614791E+03</rscale>
<asrwt>0</asrwt>
<pdfrwt beam="1">  1        2 0.54467512E+00 0.67519034E+03</pdfrwt>
<pdfrwt beam="2">  1       -2 0.16960514E-01 0.67519034E+03</pdfrwt>
<totfact> 0.23646685E+01</totfact>
</mgrwt>
</event>
<event>
 4    1  0.3057048E-007  0.9795148E+03  0.7818608E-02  0.9408863E-01
          2   -1    0    0  501    0  0.00000000000E+00  0.00000000000E+00  0.92389606853E+03  0.92389606853E+03  0.25500000000E-02 0. -1.
         -2   -1    0    0    0  501 -0.00000000000E+00 -0.00000000000E+00 -0.93163753487E+03  0.93163753488E+03  0.25500000000E-02 0.  1.
    8880023    1    1    2    0    0  0.55642448112E+03  0.46479107649E+03 -0.34890361806E+03  0.10397994465E+04  0.65864270000E+03 0.  0.
    8880022    1    1    2    0    0 -0.55642448112E+03 -0.46479107649E+03  0.34116215172E+03  0.81573415691E+03  0.15294330000E+03 0.  0.
<mgrwt>
<rscale>  0 0.91349843E+03</rscale>
<asrwt>0</asrwt>
<pdfrwt beam="1">  1        2 0.14213786E+00 0.97951475E+03</pdfrwt>
<pdfrwt beam="2">  1       -2 0.14332885E+00 0.97951475E+03</pdfrwt>
<totfact> 0.94819602E+00</totfact>
</mgrwt>
</event>
<event>
 4    1  0.3057048E-007  0.6949687E+03  0.7818608E-02  0.1001875E+00
         -2   -1    0    0    0  501 -0.00000000000E+00  0.00000000000E+00  0.24745132500E+03  0.24745132501E+03  0.25500000000E-02 0.  1.
          2   -1    0    0  501    0  0.00000000000E+00 -0.00000000000E+00 -0.97902934707E+03  0.97902934708E+03  0.25500000000E-02 0. -1.
    8880023    1    1    2    0    0 -0.21853401467E+03  0.37605371957E+02 -0.40965108144E+03  0.80671896863E+03  0.65864270000E+03 0.  0.
    8880022    1    1    2    0    0  0.21853401467E+03 -0.37605371957E+02 -0.32192694064E+03  0.41976170346E+03  0.15294330000E+03 0.  1.
<mgrwt>
<rscale>  0 0.54835686E+03</rscale>
<asrwt>0</asrwt>
<pdfrwt beam="1">  1        2 0.15061990E+00 0.69496869E+03</pdfrwt>
<pdfrwt beam="2">  1       -2 0.38069435E-01 0.69496869E+03</pdfrwt>
<totfact> 0.17171647E+02</totfact>
</mgrwt>
</event>
<event>
 4    1  0.3057048E-007  0.6951251E+03  0.7818608E-02  0.1001806E+00
          2   -1    0    0  501    0  0.00000000000E+00  0.00000000000E+00  0.14822943948E+04  0.14822943948E+04  0.25500000000E-02 0. -1.
         -2   -1    0    0    0  501 -0.00000000000E+00 -0.00000000000E+00 -0.21145261207E+03  0.21145261209E+03  0.25500000000E-02 0.  1.
    8880023    1    1    2    0    0 -0.22207238755E+03 -0.85189229736E+01  0.44598628882E+03  0.82589508622E+03  0.65864270000E+03 0.  1.
    8880022    1    1    2    0    0  0.22207238755E+03  0.85189229736E+01  0.82485549391E+03  0.86785192067E+03  0.15294330000E+03 0.  0.
<mgrwt>
<rscale>  0 0.54865459E+03</rscale>
<asrwt>0</asrwt>
<pdfrwt beam="1">  1        2 0.22804529E+00 0.69512511E+03</pdfrwt>
<pdfrwt beam="2">  1       -2 0.32531171E-01 0.69512511E+03</pdfrwt>
<totfact> 0.11691369E+02</totfact>
</mgrwt>
</event>
<event>
 4    1  0.3057048E-007  0.8190467E+03  0.7818608E-02  0.9671032E-01
         -2   -1    0    0    0  501 -0.00000000000E+00  0.00000000000E+00  0.10234488949E+04  0.10234488949E+04  0.25500000000E-02 0.  1.
          2   -1    0    0  501    0  0.00000000000E+00 -0.00000000000E+00 -0.94618541137E+03  0.94618541137E+03  0.25500000000E-02 0. -1.
    8880023    1    1    2    0    0  0.24069017224E+03  0.42319673137E+03  0.75994697538E+03  0.11172989054E+04  0.65864270000E+03 0.  1.
    8880022    1    1    2    0    0 -0.24069017224E+03 -0.42319673137E+03 -0.68268349184E+03  0.85233540083E+03  0.15294330000E+03 0.  0.
<mgrwt>
<rscale>  0 0.72768018E+03</rscale>
<asrwt>0</asrwt>
<pdfrwt beam="1">  1        2 0.14556699E+00 0.81904666E+03</pdfrwt>
<pdfrwt beam="2">  1       -2 0.15745368E+00 0.81904666E+03</pdfrwt>
<totfact> 0.72568116E+00</totfact>
</mgrwt>
</event>
<event>
 4    1  0.3057048E-007  0.7127142E+03  0.7818608E-02  0.9948057E-01
          2   -1    0    0  501    0  0.00000000000E+00  0.00000000000E+00  0.13641846546E+04  0.13641846546E+04  0.25500000000E-02 0. -1.
         -2   -1    0    0    0  501 -0.00000000000E+00 -0.00000000000E+00 -0.48231909033E+03  0.48231909033E+03  0.25500000000E-02 0.  1.
    8880023    1    1    2    0    0  0.27163134063E+03 -0.19175332946E+02 -0.18378519414E+03  0.73602885980E+03  0.65864270000E+03 0.  1.
    8880022    1    1    2    0    0 -0.27163134063E+03  0.19175332946E+02  0.10656507584E+04  0.11104748851E+04  0.15294330000E+03 0.  0.
<mgrwt>
<rscale>  0 0.57987718E+03</rscale>
<asrwt>0</asrwt>
<pdfrwt beam="1">  1        2 0.20987456E+00 0.71271417E+03</pdfrwt>
<pdfrwt beam="2">  1       -2 0.74202938E-01 0.71271417E+03</pdfrwt>
<totfact> 0.25448400E+01</totfact>
</mgrwt>
</event>
<event>
 4    1  0.3057048E-007  0.7565216E+03  0.7818608E-02  0.9814197E-01
         -2   -1    0    0    0  501 -0.00000000000E+00  0.00000000000E+00  0.32141433633E+03  0.32141433634E+03  0.25500000000E-02 0.  1.
          2   -1    0    0  501    0  0.00000000000E+00 -0.00000000000E+00 -0.17611953295E+04  0.17611953295E+04  0.25500000000E-02 0. -1.
    8880023    1    1    2    0    0 -0.33683567994E+03 -0.15829243424E+03 -0.20483048281E+03  0.78376048827E+03  0.65864270000E+03 0.  0.
    8880022    1    1    2    0    0  0.33683567994E+03  0.15829243424E+03 -0.12349505103E+04  0.12988491775E+04  0.15294330000E+03 0.  0.
<mgrwt>
<rscale>  0 0.64606174E+03</rscale>
<asrwt>0</asrwt>
<pdfrwt beam="1">  1        2 0.27095312E+00 0.75652163E+03</pdfrwt>
<pdfrwt beam="2">  1       -2 0.49448361E-01 0.75652163E+03</pdfrwt>
<totfact> 0.36028669E+01</totfact>
</mgrwt>
</event>
<event>
 4    1  0.3057048E-007  0.7799158E+03  0.7818608E-02  0.9756035E-01
         -2   -1    0    0    0  501 -0.00000000000E+00  0.00000000000E+00  0.61398441303E+03  0.61398441303E+03  0.25500000000E-02 0.  1.
          2   -1    0    0  501    0  0.00000000000E+00 -0.00000000000E+00 -0.22558499624E+04  0.22558499624E+04  0.25500000000E-02 0. -1.
    8880023    1    1    2    0    0 -0.20928405817E+03  0.36146724622E+03  0.33114586578E+03  0.84730524475E+03  0.65864270000E+03 0.  0.
    8880022    1    1    2    0    0  0.20928405817E+03 -0.36146724622E+03 -0.19730114151E+04  0.20225291307E+04  0.15294330000E+03 0.  0.
<mgrwt>
<rscale>  0 0.67776290E+03</rscale>
<asrwt>0</asrwt>
<pdfrwt beam="1">  1        2 0.34705383E+00 0.77991576E+03</pdfrwt>
<pdfrwt beam="2">  1       -2 0.94459142E-01 0.77991576E+03</pdfrwt>
<totfact> 0.47063174E+00</totfact>
</mgrwt>
</event>
<event>
 4    1  0.3057048E-007  0.6718691E+03  0.7818608E-02  0.1014357E+00
          2   -1    0    0  501    0  0.00000000000E+00  0.00000000000E+00  0.54651589852E+04  0.54651589852E+04  0.25500000000E-02 0. -1.
         -2   -1    0    0    0  501 -0.00000000000E+00 -0.00000000000E+00 -0.41509694242E+02  0.41509694320E+02  0.25500000000E-02 0.  1.
    8880023    1    1    2    0    0  0.54951763683E+02  0.12074012901E+03  0.29873341294E+04  0.30619557936E+04  0.65864270000E+03 0.  1.
    8880022    1    1    2    0    0 -0.54951763683E+02 -0.12074012901E+03  0.24363151616E+04  0.24447128859E+04  0.15294330000E+03 0.  0.
<mgrwt>
<rscale>  0 0.49779166E+03</rscale>
<asrwt>0</asrwt>
<pdfrwt beam="1">  1        2 0.84079312E+00 0.67186910E+03</pdfrwt>
<pdfrwt beam="2">  1       -2 0.63861111E-02 0.67186910E+03</pdfrwt>
<totfact> 0.12225942E+00</totfact>
</mgrwt>
</event>
<event>
 4    1  0.3057048E-007  0.6595491E+03  0.7818608E-02  0.1024623E+00
          2   -1    0    0  501    0  0.00000000000E+00  0.00000000000E+00  0.26362679816E+04  0.26362679816E+04  0.25500000000E-02 0. -1.
         -2   -1    0    0    0  501 -0.00000000000E+00 -0.00000000000E+00 -0.54616362499E+03  0.54616362500E+03  0.25500000000E-02 0.  1.
    8880023    1    1    2    0    0  0.26595736352E+02 -0.22079272308E+02 -0.34359805907E+03  0.74368317173E+03  0.65864270000E+03 0.  1.
    8880022    1    1    2    0    0 -0.26595736352E+02  0.22079272308E+02  0.24337024157E+04  0.24387484348E+04  0.15294330000E+03 0.  0.
<mgrwt>
<rscale>  0 0.46054535E+03</rscale>
<asrwt>0</asrwt>
<pdfrwt beam="1">  1        2 0.40557970E+00 0.65954911E+03</pdfrwt>
<pdfrwt beam="2">  1       -2 0.84025170E-01 0.65954911E+03</pdfrwt>
<totfact> 0.38484169E+00</totfact>
</mgrwt>
</event>
<event>
 4    1  0.3057048E-007  0.6705621E+03  0.7818608E-02  0.1015263E+00
          2   -1    0    0  501    0  0.00000000000E+00  0.00000000000E+00  0.12069751383E+04  0.12069751383E+04  0.25500000000E-02 0. -1.
         -2   -1    0    0    0  501 -0.00000000000E+00 -0.00000000000E+00 -0.19356994450E+03  0.19356994451E+03  0.25500000000E-02 0.  1.
    8880023    1    1    2    0    0 -0.32216366509E+02  0.12167735464E+03  0.46110786106E+03  0.81380214960E+03  0.65864270000E+03 0.  1.
    8880022    1    1    2    0    0  0.32216366509E+02 -0.12167735464E+03  0.55229733271E+03  0.58674293318E+03  0.15294330000E+03 0.  0.
<mgrwt>
<rscale>  0 0.49435433E+03</rscale>
<asrwt>0</asrwt>
<pdfrwt beam="1">  1        2 0.18568848E+00 0.67056206E+03</pdfrwt>
<pdfrwt beam="2">  1       -2 0.29779991E-01 0.67056206E+03</pdfrwt>
<totfact> 0.19831954E+02</totfact>
</mgrwt>
</event>
<event>
 4    1  0.3057048E-007  0.7191851E+03  0.7818608E-02  0.9925353E-01
          2   -1    0    0  501    0  0.00000000000E+00  0.00000000000E+00  0.25152113282E+04  0.25152113282E+04  0.25500000000E-02 0. -1.
         -2   -1    0    0    0  501 -0.00000000000E+00 -0.00000000000E+00 -0.30784577433E+03  0.30784577434E+03  0.25500000000E-02 0.  1.
    8880023    1    1    2    0    0  0.15999225654E+03 -0.24045670205E+03  0.14335585395E+03  0.73333352224E+03  0.65864270000E+03 0.  1.
    8880022    1    1    2    0    0 -0.15999225654E+03  0.24045670205E+03  0.20640096999E+04  0.20897235803E+04  0.15294330000E+03 0.  0.
<mgrwt>
<rscale>  0 0.59048147E+03</rscale>
<asrwt>0</asrwt>
<pdfrwt beam="1">  1        2 0.38695558E+00 0.71918506E+03</pdfrwt>
<pdfrwt beam="2">  1       -2 0.47360890E-01 0.71918506E+03</pdfrwt>
<totfact> 0.15171558E+01</totfact>
</mgrwt>
</event>
<event>
 4    1  0.3057048E-007  0.8718358E+03  0.7818608E-02  0.9572847E-01
         -2   -1    0    0    0  501 -0.00000000000E+00  0.00000000000E+00  0.57285054751E+03  0.57285054752E+03  0.25500000000E-02 0.  1.
          2   -1    0    0  501    0  0.00000000000E+00 -0.00000000000E+00 -0.96280395642E+03  0.96280395642E+03  0.25500000000E-02 0. -1.
    8880023    1    1    2    0    0 -0.44038722880E+03  0.36379474700E+03 -0.10152926158E+03  0.87772770633E+03  0.65864270000E+03 0. -1.
    8880022    1    1    2    0    0  0.44038722880E+03 -0.36379474700E+03 -0.28842414733E+03  0.65792679761E+03  0.15294330000E+03 0.  0.
<mgrwt>
<rscale>  0 0.79119724E+03</rscale>
<asrwt>0</asrwt>
<pdfrwt beam="1">  1        2 0.14812369E+00 0.87183584E+03</pdfrwt>
<pdfrwt beam="2">  1       -2 0.88130854E-01 0.87183584E+03</pdfrwt>
<totfact> 0.29679391E+01</totfact>
</mgrwt>
</event>
<event>
 4    1  0.3057048E-007  0.9289448E+03  0.7818608E-02  0.9481078E-01
          2   -1    0    0  501    0  0.00000000000E+00  0.00000000000E+00  0.83931006654E+03  0.83931006655E+03  0.25500000000E-02 0. -1.
         -2   -1    0    0    0  501 -0.00000000000E+00 -0.00000000000E+00 -0.82220595221E+03  0.82220595221E+03  0.25500000000E-02 0.  1.
    8880023    1    1    2    0    0 -0.18232673617E+03  0.62919403761E+03  0.22803756750E+03  0.95652470650E+03  0.65864270000E+03 0.  0.
    8880022    1    1    2    0    0  0.18232673617E+03 -0.62919403761E+03 -0.21093345316E+03  0.70499131226E+03  0.15294330000E+03 0.  0.
<mgrwt>
<rscale>  0 0.85693350E+03</rscale>
<asrwt>0</asrwt>
<pdfrwt beam="1">  1        2 0.12912463E+00 0.92894477E+03</pdfrwt>
<pdfrwt beam="2">  1       -2 0.12649322E+00 0.92894477E+03</pdfrwt>
<totfact> 0.15004037E+01</totfact>
</mgrwt>
</event>
<event>
 4    1  0.3057048E-007  0.7531355E+03  0.7818608E-02  0.9823214E-01
         -2   -1    0    0    0  501 -0.00000000000E+00  0.00000000000E+00  0.35913788759E+03  0.35913788760E+03  0.25500000000E-02 0.  1.
          2   -1    0    0  501    0  0.00000000000E+00 -0.00000000000E+00 -0.13285223365E+04  0.13285223366E+04  0.25500000000E-02 0. -1.
    8880023    1    1    2    0    0 -0.24399266147E+03 -0.27179128153E+03 -0.13645291910E+03  0.76539697214E+03  0.65864270000E+03 0.  1.
    8880022    1    1    2    0    0  0.24399266147E+03  0.27179128153E+03 -0.83293152985E+03  0.92226325201E+03  0.15294330000E+03 0.  0.
<mgrwt>
<rscale>  0 0.64131475E+03</rscale>
<asrwt>0</asrwt>
<pdfrwt beam="1">  1        2 0.20438805E+00 0.75313553E+03</pdfrwt>
<pdfrwt beam="2">  1       -2 0.55251983E-01 0.75313553E+03</pdfrwt>
<totfact> 0.49931246E+01</totfact>
</mgrwt>
</event>
<event>
 4    1  0.3057048E-007  0.7059549E+03  0.7818608E-02  0.9973340E-01
         -2   -1    0    0    0  501 -0.00000000000E+00  0.00000000000E+00  0.29069470686E+03  0.29069470688E+03  0.25500000000E-02 0.  1.
          2   -1    0    0  501    0  0.00000000000E+00 -0.00000000000E+00 -0.19353770543E+04  0.19353770543E+04  0.25500000000E-02 0. -1.
    8880023    1    1    2    0    0  0.24184893181E+02  0.25293712892E+03 -0.17575323240E+03  0.72750361182E+03  0.65864270000E+03 0.  1.
    8880022    1    1    2    0    0 -0.24184893181E+02 -0.25293712892E+03 -0.14689291150E+04  0.14985681493E+04  0.15294330000E+03 0.  0.
<mgrwt>
<rscale>  0 0.56834823E+03</rscale>
<asrwt>0</asrwt>
<pdfrwt beam="1">  1        2 0.29775031E+00 0.70595489E+03</pdfrwt>
<pdfrwt beam="2">  1       -2 0.44722264E-01 0.70595489E+03</pdfrwt>
<totfact> 0.35663837E+01</totfact>
</mgrwt>
</event>
<event>
 4    1  0.3057048E-007  0.8628566E+03  0.7818608E-02  0.9588502E-01
         -2   -1    0    0    0  501 -0.00000000000E+00  0.00000000000E+00  0.22777712387E+03  0.22777712389E+03  0.25500000000E-02 0.  1.
          2   -1    0    0  501    0  0.00000000000E+00 -0.00000000000E+00 -0.25188004839E+04  0.25188004839E+04  0.25500000000E-02 0. -1.
    8880023    1    1    2    0    0 -0.22303507634E+03 -0.51084900580E+03 -0.93391452269E+03  0.12715022194E+04  0.65864270000E+03 0.  1.
    8880022    1    1    2    0    0  0.22303507634E+03  0.51084900580E+03 -0.13571088374E+04  0.14750753884E+04  0.15294330000E+03 0.  1.
<mgrwt>
<rscale>  0 0.78061884E+03</rscale>
<asrwt>0</asrwt>
<pdfrwt beam="1">  1        2 0.38750775E+00 0.86285663E+03</pdfrwt>
<pdfrwt beam="2">  1       -2 0.35042636E-01 0.86285663E+03</pdfrwt>
<totfact> 0.26684319E+01</totfact>
</mgrwt>
</event>
<event>
 4    1  0.3057048E-007  0.7192788E+03  0.7818608E-02  0.9925034E-01
         -2   -1    0    0    0  501 -0.00000000000E+00  0.00000000000E+00  0.38387274321E+03  0.38387274321E+03  0.25500000000E-02 0.  1.
          2   -1    0    0  501    0  0.00000000000E+00 -0.00000000000E+00 -0.22594152828E+04  0.22594152828E+04  0.25500000000E-02 0. -1.
    8880023    1    1    2    0    0  0.22553666934E+03 -0.18079005634E+03  0.20183826957E+02  0.71956196871E+03  0.65864270000E+03 0.  1.
    8880022    1    1    2    0    0 -0.22553666934E+03  0.18079005634E+03 -0.18957263665E+04  0.19237260573E+04  0.15294330000E+03 0.  0.
<mgrwt>
<rscale>  0 0.59063238E+03</rscale>
<asrwt>0</asrwt>
<pdfrwt beam="1">  1        2 0.34760234E+00 0.71927883E+03</pdfrwt>
<pdfrwt beam="2">  1       -2 0.59057347E-01 0.71927883E+03</pdfrwt>
<totfact> 0.13394621E+01</totfact>
</mgrwt>
</event>
<event>
 4    1  0.3057048E-007  0.1785919E+04  0.7818608E-02  0.8730366E-01
          2   -1    0    0  501    0  0.00000000000E+00  0.00000000000E+00  0.38857952530E+04  0.38857952530E+04  0.25500000000E-02 0. -1.
         -2   -1    0    0    0  501 -0.00000000000E+00 -0.00000000000E+00 -0.90727124157E+03  0.90727124158E+03  0.25500000000E-02 0.  1.
    8880023    1    1    2    0    0 -0.13106062340E+04 -0.10188265404E+04  0.59106696871E+03  0.18811875472E+04  0.65864270000E+03 0.  0.
    8880022    1    1    2    0    0  0.13106062340E+04  0.10188265404E+04  0.23874570427E+04  0.29118789473E+04  0.15294330000E+03 0.  0.
<mgrwt>
<rscale>  0 0.17554323E+04</rscale>
<asrwt>0</asrwt>
<pdfrwt beam="1">  1        2 0.59781467E+00 0.17859189E+04</pdfrwt>
<pdfrwt beam="2">  1       -2 0.13958019E+00 0.17859189E+04</pdfrwt>
<totfact> 0.14158790E-01</totfact>
</mgrwt>
</event>
<event>
 4    1  0.3057048E-007  0.6731794E+03  0.7818608E-02  0.1013479E+00
          2   -1    0    0  501    0  0.00000000000E+00  0.00000000000E+00  0.82940471838E+03  0.82940471838E+03  0.25500000000E-02 0. -1.
         -2   -1    0    0    0  501 -0.00000000000E+00 -0.00000000000E+00 -0.39371691993E+03  0.39371691993E+03  0.25500000000E-02 0.  1.
    8880023    1    1    2    0    0 -0.62504484244E+02 -0.12431188290E+03 -0.69987024034E+02  0.67680768655E+03  0.65864270000E+03 0.  0.
    8880022    1    1    2    0    0  0.62504484244E+02  0.12431188290E+03  0.50567482249E+03  0.54631395176E+03  0.15294330000E+03 0.  0.
<mgrwt>
<rscale>  0 0.50114977E+03</rscale>
<asrwt>0</asrwt>
<pdfrwt beam="1">  1        2 0.12760072E+00 0.67317937E+03</pdfrwt>
<pdfrwt beam="2">  1       -2 0.60571835E-01 0.67317937E+03</pdfrwt>
<totfact> 0.84859549E+01</totfact>
</mgrwt>
</event>
<event>
 4    1  0.3057048E-007  0.6960635E+03  0.7818608E-02  0.1001394E+00
          2   -1    0    0  501    0  0.00000000000E+00  0.00000000000E+00  0.37827049269E+04  0.37827049269E+04  0.25500000000E-02 0. -1.
         -2   -1    0    0    0  501 -0.00000000000E+00 -0.00000000000E+00 -0.62185395575E+02  0.62185395627E+02  0.25500000000E-02 0.  1.
    8880023    1    1    2    0    0  0.22388921281E+03 -0.23827363528E+02  0.27757398699E+04  0.28616841465E+04  0.65864270000E+03 0. -1.
    8880022    1    1    2    0    0 -0.22388921281E+03  0.23827363528E+02  0.94477966139E+03  0.98320617597E+03  0.15294330000E+03 0.  1.
<mgrwt>
<rscale>  0 0.55043175E+03</rscale>
<asrwt>0</asrwt>
<pdfrwt beam="1">  1        2 0.58195451E+00 0.69606345E+03</pdfrwt>
<pdfrwt beam="2">  1       -2 0.95669856E-02 0.69606345E+03</pdfrwt>
<totfact> 0.41054628E+01</totfact>
</mgrwt>
</event>
<event>
 4    1  0.3057048E-007  0.7979481E+03  0.7818608E-02  0.9715250E-01
         -2   -1    0    0    0  501 -0.00000000000E+00  0.00000000000E+00  0.15132429272E+03  0.15132429275E+03  0.25500000000E-02 0.  1.
          2   -1    0    0  501    0  0.00000000000E+00 -0.00000000000E+00 -0.35331846641E+04  0.35331846641E+04  0.25500000000E-02 0. -1.
    8880023    1    1    2    0    0  0.39036757528E+02  0.44876171037E+03 -0.11324055781E+04  0.13853026892E+04  0.65864270000E+03 0.  0.
    8880022    1    1    2    0    0 -0.39036757528E+02 -0.44876171037E+03 -0.22494547933E+04  0.22992062676E+04  0.15294330000E+03 0.  0.
<mgrwt>
<rscale>  0 0.70116006E+03</rscale>
<asrwt>0</asrwt>
<pdfrwt beam="1">  1        2 0.54356681E+00 0.79794809E+03</pdfrwt>
<pdfrwt beam="2">  1       -2 0.23280663E-01 0.79794809E+03</pdfrwt>
<totfact> 0.13440764E+01</totfact>
</mgrwt>
</event>
<event>
 4    1  0.3057048E-007  0.6949066E+03  0.7818608E-02  0.1001902E+00
          2   -1    0    0  501    0  0.00000000000E+00  0.00000000000E+00  0.43932327822E+03  0.43932327823E+03  0.25500000000E-02 0. -1.
         -2   -1    0    0    0  501 -0.00000000000E+00 -0.00000000000E+00 -0.53360380135E+03  0.53360380136E+03  0.25500000000E-02 0.  1.
    8880023    1    1    2    0    0 -0.22629090411E+02 -0.22039262158E+03 -0.10855301090E+03  0.70333416369E+03  0.65864270000E+03 0.  0.
    8880022    1    1    2    0    0  0.22629090411E+02  0.22039262158E+03  0.14272487776E+02  0.26959291589E+03  0.15294330000E+03 0.  0.
<mgrwt>
<rscale>  0 0.54823857E+03</rscale>
<asrwt>0</asrwt>
<pdfrwt beam="1">  1        2 0.67588197E-01 0.69490660E+03</pdfrwt>
<pdfrwt beam="2">  1       -2 0.82092892E-01 0.69490660E+03</pdfrwt>
<totfact> 0.94501701E+01</totfact>
</mgrwt>
</event>
<event>
 4    1  0.3057048E-007  0.7155670E+03  0.7818608E-02  0.9937881E-01
          2   -1    0    0  501    0  0.00000000000E+00  0.00000000000E+00  0.12897724240E+04  0.12897724240E+04  0.25500000000E-02 0. -1.
         -2   -1    0    0    0  501 -0.00000000000E+00 -0.00000000000E+00 -0.32679326070E+03  0.32679326071E+03  0.25500000000E-02 0.  1.
    8880023    1    1    2    0    0 -0.12459303226E+03  0.25040481151E+03  0.13346331396E+03  0.72790703785E+03  0.65864270000E+03 0.  1.
    8880022    1    1    2    0    0  0.12459303226E+03 -0.25040481151E+03  0.82951584939E+03  0.88865864691E+03  0.15294330000E+03 0.  0.
<mgrwt>
<rscale>  0 0.58460011E+03</rscale>
<asrwt>0</asrwt>
<pdfrwt beam="1">  1        2 0.19842653E+00 0.71556705E+03</pdfrwt>
<pdfrwt beam="2">  1       -2 0.50275886E-01 0.71556705E+03</pdfrwt>
<totfact> 0.64054183E+01</totfact>
</mgrwt>
</event>
<event>
 4    1  0.3057048E-007  0.8968873E+03  0.7818608E-02  0.9531047E-01
          2   -1    0    0  501    0  0.00000000000E+00  0.00000000000E+00  0.27736804033E+04  0.27736804033E+04  0.25500000000E-02 0. -1.
         -2   -1    0    0    0  501 -0.00000000000E+00 -0.00000000000E+00 -0.26172449640E+03  0.26172449641E+03  0.25500000000E-02 0.  1.
    8880023    1    1    2    0    0 -0.41991095801E+03 -0.44076227455E+03  0.76404176040E+03  0.11782048265E+04  0.65864270000E+03 0.  1.
    8880022    1    1    2    0    0  0.41991095801E+03  0.44076227455E+03  0.17479141465E+04  0.18572000732E+04  0.15294330000E+03 0.  0.
<mgrwt>
<rscale>  0 0.82033041E+03</rscale>
<asrwt>0</asrwt>
<pdfrwt beam="1">  1        2 0.42672005E+00 0.89688728E+03</pdfrwt>
<pdfrwt beam="2">  1       -2 0.40265308E-01 0.89688728E+03</pdfrwt>
<totfact> 0.14443588E+01</totfact>
</mgrwt>
</event>
<event>
 4    1  0.3057048E-007  0.6808828E+03  0.7818608E-02  0.1008829E+00
          2   -1    0    0  501    0  0.00000000000E+00  0.00000000000E+00  0.10893456871E+04  0.10893456871E+04  0.25500000000E-02 0. -1.
         -2   -1    0    0    0  501 -0.00000000000E+00 -0.00000000000E+00 -0.99641272604E+03  0.99641272604E+03  0.25500000000E-02 0.  1.
    8880023    1    1    2    0    0 -0.10793006724E+03 -0.13469312237E+03 -0.86478806283E+03  0.11006633166E+04  0.65864270000E+03 0.  0.
    8880022    1    1    2    0    0  0.10793006724E+03  0.13469312237E+03  0.95772102394E+03  0.98509509659E+03  0.15294330000E+03 0.  0.
<mgrwt>
<rscale>  0 0.51942835E+03</rscale>
<asrwt>0</asrwt>
<pdfrwt beam="1">  1        2 0.16759164E+00 0.68088277E+03</pdfrwt>
<pdfrwt beam="2">  1       -2 0.15329427E+00 0.68088277E+03</pdfrwt>
<totfact> 0.64413693E+00</totfact>
</mgrwt>
</event>
<event>
 4    1  0.3057048E-007  0.6688139E+03  0.7818608E-02  0.1016528E+00
          2   -1    0    0  501    0  0.00000000000E+00  0.00000000000E+00  0.10471372410E+04  0.10471372410E+04  0.25500000000E-02 0. -1.
         -2   -1    0    0    0  501 -0.00000000000E+00 -0.00000000000E+00 -0.53143039789E+03  0.53143039790E+03  0.25500000000E-02 0.  1.
    8880023    1    1    2    0    0 -0.28673055580E+02 -0.11260435191E+03 -0.30543740281E+03  0.73525784422E+03  0.65864270000E+03 0.  1.
    8880022    1    1    2    0    0  0.28673055580E+02  0.11260435191E+03  0.82114424587E+03  0.84330979464E+03  0.15294330000E+03 0.  0.
<mgrwt>
<rscale>  0 0.48960718E+03</rscale>
<asrwt>0</asrwt>
<pdfrwt beam="1">  1        2 0.16109803E+00 0.66881394E+03</pdfrwt>
<pdfrwt beam="2">  1       -2 0.81758524E-01 0.66881394E+03</pdfrwt>
<totfact> 0.31715944E+01</totfact>
</mgrwt>
</event>
<event>
 4    1  0.3057048E-007  0.7374697E+03  0.7818608E-02  0.9867380E-01
          2   -1    0    0  501    0  0.00000000000E+00  0.00000000000E+00  0.11900759976E+04  0.11900759976E+04  0.25500000000E-02 0. -1.
         -2   -1    0    0    0  501 -0.00000000000E+00 -0.00000000000E+00 -0.55720065949E+03  0.55720065949E+03  0.25500000000E-02 0.  1.
    8880023    1    1    2    0    0  0.19009321703E+03  0.27187479687E+03 -0.26048041977E+03  0.78211993433E+03  0.65864270000E+03 0.  1.
    8880022    1    1    2    0    0 -0.19009321703E+03 -0.27187479687E+03  0.89335575784E+03  0.96515672272E+03  0.15294330000E+03 0.  0.
<mgrwt>
<rscale>  0 0.61868573E+03</rscale>
<asrwt>0</asrwt>
<pdfrwt beam="1">  1        2 0.18308861E+00 0.73746969E+03</pdfrwt>
<pdfrwt beam="2">  1       -2 0.85723178E-01 0.73746969E+03</pdfrwt>
<totfact> 0.23152677E+01</totfact>
</mgrwt>
</event>
<event>
 4    1  0.3057048E-007  0.1457747E+04  0.7818608E-02  0.8940063E-01
          2   -1    0    0  501    0  0.00000000000E+00  0.00000000000E+00  0.17089680358E+04  0.17089680358E+04  0.25500000000E-02 0. -1.
         -2   -1    0    0    0  501 -0.00000000000E+00 -0.00000000000E+00 -0.14399622649E+04  0.14399622649E+04  0.25500000000E-02 0.  1.
    8880023    1    1    2    0    0  0.44824294478E+03 -0.12207762877E+04 -0.60104963278E+03  0.15767965466E+04  0.65864270000E+03 0.  0.
    8880022    1    1    2    0    0 -0.44824294478E+03  0.12207762877E+04  0.87005540366E+03  0.15721337540E+04  0.15294330000E+03 0.  0.
<mgrwt>
<rscale>  0 0.14191629E+04</rscale>
<asrwt>0</asrwt>
<pdfrwt beam="1">  1        2 0.26291816E+00 0.14577471E+04</pdfrwt>
<pdfrwt beam="2">  1       -2 0.22153266E+00 0.14577471E+04</pdfrwt>
<totfact> 0.88400271E-01</totfact>
</mgrwt>
</event>
<event>
 4    1  0.3057048E-007  0.8448827E+03  0.7818608E-02  0.9621041E-01
         -2   -1    0    0    0  501 -0.00000000000E+00  0.00000000000E+00  0.87022157547E+03  0.87022157548E+03  0.25500000000E-02 0.  1.
          2   -1    0    0  501    0  0.00000000000E+00 -0.00000000000E+00 -0.85818777663E+03  0.85818777663E+03  0.25500000000E-02 0. -1.
    8880023    1    1    2    0    0  0.52378160982E+03 -0.75295350939E+02  0.50914336811E+03  0.98643486365E+03  0.65864270000E+03 0.  0.
    8880022    1    1    2    0    0 -0.52378160982E+03  0.75295350939E+02 -0.49710956927E+03  0.74197448846E+03  0.15294330000E+03 0.  0.
<mgrwt>
<rscale>  0 0.75919044E+03</rscale>
<asrwt>0</asrwt>
<pdfrwt beam="1">  1        2 0.13202889E+00 0.84488270E+03</pdfrwt>
<pdfrwt beam="2">  1       -2 0.13388024E+00 0.84488270E+03</pdfrwt>
<totfact> 0.12699001E+01</totfact>
</mgrwt>
</event>
<event>
 4    1  0.3057048E-007  0.7829361E+03  0.7818608E-02  0.9748985E-01
         -2   -1    0    0    0  501 -0.00000000000E+00  0.00000000000E+00  0.70933791521E+03  0.70933791521E+03  0.25500000000E-02 0.  1.
          2   -1    0    0  501    0  0.00000000000E+00 -0.00000000000E+00 -0.79941676132E+03  0.79941676133E+03  0.25500000000E-02 0. -1.
    8880023    1    1    2    0    0 -0.40017150597E+03 -0.13799071126E+03  0.36927849708E+03  0.86565321304E+03  0.65864270000E+03 0.  1.
    8880022    1    1    2    0    0  0.40017150597E+03  0.13799071126E+03 -0.45935734320E+03  0.64310146349E+03  0.15294330000E+03 0.  0.
<mgrwt>
<rscale>  0 0.68173674E+03</rscale>
<asrwt>0</asrwt>
<pdfrwt beam="1">  1        2 0.12298719E+00 0.78293606E+03</pdfrwt>
<pdfrwt beam="2">  1       -2 0.10912891E+00 0.78293606E+03</pdfrwt>
<totfact> 0.23356291E+01</totfact>
</mgrwt>
</event>
<event>
 4    1  0.3057048E-007  0.8683316E+03  0.7818608E-02  0.9578911E-01
          2   -1    0    0  501    0  0.00000000000E+00  0.00000000000E+00  0.62643764352E+03  0.62643764353E+03  0.25500000000E-02 0. -1.
         -2   -1    0    0    0  501 -0.00000000000E+00 -0.00000000000E+00 -0.15353834997E+04  0.15353834997E+04  0.25500000000E-02 0.  1.
    8880023    1    1    2    0    0 -0.50602116675E+03  0.25324339258E+03 -0.12206063729E+04  0.14979585311E+04  0.65864270000E+03 0.  1.
    8880022    1    1    2    0    0  0.50602116675E+03 -0.25324339258E+03  0.31166051673E+03  0.66386261213E+03  0.15294330000E+03 0.  0.
<mgrwt>
<rscale>  0 0.78707825E+03</rscale>
<asrwt>0</asrwt>
<pdfrwt beam="1">  1        2 0.96375023E-01 0.86833164E+03</pdfrwt>
<pdfrwt beam="2">  1       -2 0.23621284E+00 0.86833164E+03</pdfrwt>
<totfact> 0.37225995E+00</totfact>
</mgrwt>
</event>
<event>
 4    1  0.4216441E-007  0.7142145E+03  0.7818608E-02  0.9942672E-01
         -2   -1    0    0    0  501 -0.00000000000E+00  0.00000000000E+00  0.14551988501E+04  0.14551988501E+04  0.25500000000E-02 0.  1.
          2   -1    0    0  501    0  0.00000000000E+00 -0.00000000000E+00 -0.12446729044E+04  0.12446729044E+04  0.25500000000E-02 0. -1.
    8880023    1    1    2    0    0  0.20800147540E+03  0.18173465357E+03  0.13446831633E+04  0.15225882943E+04  0.65864270000E+03 0.  1.
    8880022    1    1    2    0    0 -0.20800147540E+03 -0.18173465357E+03 -0.11341572177E+04  0.11772834602E+04  0.15294330000E+03 0.  0.
<mgrwt>
<rscale>  0 0.58237072E+03</rscale>
<asrwt>0</asrwt>
<pdfrwt beam="1">  1        2 0.19148814E+00 0.71421447E+03</pdfrwt>
<pdfrwt beam="2">  1       -2 0.22387675E+00 0.71421447E+03</pdfrwt>
<totfact> 0.17285950E+00</totfact>
</mgrwt>
</event>
<event>
 4    1  0.3057048E-007  0.1225533E+04  0.7818608E-02  0.9132693E-01
         -2   -1    0    0    0  501 -0.00000000000E+00  0.00000000000E+00  0.15030660759E+04  0.15030660759E+04  0.25500000000E-02 0.  1.
          2   -1    0    0  501    0  0.00000000000E+00 -0.00000000000E+00 -0.15088675181E+04  0.15088675181E+04  0.25500000000E-02 0. -1.
    8880023    1    1    2    0    0  0.89807787491E+03  0.51144689787E+03  0.98481948590E+03  0.15721963697E+04  0.65864270000E+03 0.  0.
    8880022    1    1    2    0    0 -0.89807787491E+03 -0.51144689787E+03 -0.99062092810E+03  0.14397372243E+04  0.15294330000E+03 0.  0.
<mgrwt>
<rscale>  0 0.11775992E+04</rscale>
<asrwt>0</asrwt>
<pdfrwt beam="1">  1        2 0.23213346E+00 0.12255334E+04</pdfrwt>
<pdfrwt beam="2">  1       -2 0.23124094E+00 0.12255334E+04</pdfrwt>
<totfact> 0.10199269E+00</totfact>
</mgrwt>
</event>
<event>
 4    1  0.3057048E-007  0.8820459E+03  0.7818608E-02  0.9555491E-01
         -2   -1    0    0    0  501 -0.00000000000E+00  0.00000000000E+00  0.15855947524E+04  0.15855947524E+04  0.25500000000E-02 0.  1.
          2   -1    0    0  501    0  0.00000000000E+00 -0.00000000000E+00 -0.12145869684E+04  0.12145869684E+04  0.25500000000E-02 0. -1.
    8880023    1    1    2    0    0  0.18018463170E+03 -0.55832636727E+03  0.13713071715E+04  0.16304871661E+04  0.65864270000E+03 0.  1.
    8880022    1    1    2    0    0 -0.18018463170E+03  0.55832636727E+03 -0.10002993874E+04  0.11696945548E+04  0.15294330000E+03 0.  0.
<mgrwt>
<rscale>  0 0.80313462E+03</rscale>
<asrwt>0</asrwt>
<pdfrwt beam="1">  1        2 0.18685954E+00 0.88204594E+03</pdfrwt>
<pdfrwt beam="2">  1       -2 0.24393765E+00 0.88204594E+03</pdfrwt>
<totfact> 0.13173414E+00</totfact>
</mgrwt>
</event>
<event>
 4    1  0.3057048E-007  0.6786514E+03  0.7818608E-02  0.1010097E+00
         -2   -1    0    0    0  501 -0.00000000000E+00  0.00000000000E+00  0.25813211438E+03  0.25813211439E+03  0.25500000000E-02 0.  1.
          2   -1    0    0  501    0  0.00000000000E+00 -0.00000000000E+00 -0.86625841887E+03  0.86625841888E+03  0.25500000000E-02 0. -1.
    8880023    1    1    2    0    0 -0.64486314320E+02  0.15032995025E+03 -0.29637566590E+03  0.74054461059E+03  0.65864270000E+03 0.  0.
    8880022    1    1    2    0    0  0.64486314320E+02 -0.15032995025E+03 -0.31175063860E+03  0.38384592268E+03  0.15294330000E+03 0.  0.
<mgrwt>
<rscale>  0 0.51436110E+03</rscale>
<asrwt>0</asrwt>
<pdfrwt beam="1">  1        2 0.13327052E+00 0.67865145E+03</pdfrwt>
<pdfrwt beam="2">  1       -2 0.39712633E-01 0.67865145E+03</pdfrwt>
<totfact> 0.18812409E+02</totfact>
</mgrwt>
</event>
<event>
 4    1  0.4043411E-007  0.1264352E+04  0.7818608E-02  0.9096972E-01
         -2   -1    0    0    0  501 -0.00000000000E+00  0.00000000000E+00  0.14432486081E+04  0.14432486081E+04  0.25500000000E-02 0.  1.
          2   -1    0    0  501    0  0.00000000000E+00 -0.00000000000E+00 -0.27454523195E+04  0.27454523195E+04  0.25500000000E-02 0. -1.
    8880023    1    1    2    0    0 -0.10464176273E+04  0.26416874581E+03  0.10192819183E+04  0.16240445844E+04  0.65864270000E+03 0.  1.
    8880022    1    1    2    0    0  0.10464176273E+04 -0.26416874581E+03 -0.23214856297E+04  0.25646563432E+04  0.15294330000E+03 0.  0.
<mgrwt>
<rscale>  0 0.12183178E+04</rscale>
<asrwt>0</asrwt>
<pdfrwt beam="1">  1        2 0.42237728E+00 0.12643517E+04</pdfrwt>
<pdfrwt beam="2">  1       -2 0.22203825E+00 0.12643517E+04</pdfrwt>
<totfact> 0.23206238E-01</totfact>
</mgrwt>
</event>
<event>
 4    1  0.3057048E-007  0.7952839E+03  0.7818608E-02  0.9721088E-01
         -2   -1    0    0    0  501 -0.00000000000E+00  0.00000000000E+00  0.68551157496E+03  0.68551157497E+03  0.25500000000E-02 0.  1.
          2   -1    0    0  501    0  0.00000000000E+00 -0.00000000000E+00 -0.79721705554E+03  0.79721705554E+03  0.25500000000E-02 0. -1.
    8880023    1    1    2    0    0  0.10486023225E+03 -0.43320957226E+03  0.30687514576E+03  0.85243695553E+03  0.65864270000E+03 0.  1.
    8880022    1    1    2    0    0 -0.10486023225E+03  0.43320957226E+03 -0.41858062633E+03  0.63029167498E+03  0.15294330000E+03 0.  0.
<mgrwt>
<rscale>  0 0.69775007E+03</rscale>
<asrwt>0</asrwt>
<pdfrwt beam="1">  1        2 0.12264878E+00 0.79528385E+03</pdfrwt>
<pdfrwt beam="2">  1       -2 0.10546332E+00 0.79528385E+03</pdfrwt>
<totfact> 0.25427687E+01</totfact>
</mgrwt>
</event>
<event>
 4    1  0.3057048E-007  0.7309584E+03  0.7818608E-02  0.9887113E-01
         -2   -1    0    0    0  501 -0.00000000000E+00  0.00000000000E+00  0.18755413537E+03  0.18755413539E+03  0.25500000000E-02 0.  1.
          2   -1    0    0  501    0  0.00000000000E+00 -0.00000000000E+00 -0.27922757162E+04  0.27922757162E+04  0.25500000000E-02 0. -1.
    8880023    1    1    2    0    0  0.27683961560E+03  0.15443367619E+03 -0.60351847865E+03  0.94791069909E+03  0.65864270000E+03 0.  1.
    8880022    1    1    2    0    0 -0.27683961560E+03 -0.15443367619E+03 -0.20012031022E+04  0.20319191525E+04  0.15294330000E+03 0.  0.
<mgrwt>
<rscale>  0 0.60889909E+03</rscale>
<asrwt>0</asrwt>
<pdfrwt beam="1">  1        2 0.42958085E+00 0.73095837E+03</pdfrwt>
<pdfrwt beam="2">  1       -2 0.28854484E-01 0.73095837E+03</pdfrwt>
<totfact> 0.27171028E+01</totfact>
</mgrwt>
</event>
<event>
 4    1  0.3057048E-007  0.1357812E+04  0.7818608E-02  0.9017177E-01
          2   -1    0    0  501    0  0.00000000000E+00  0.00000000000E+00  0.15554397986E+04  0.15554397986E+04  0.25500000000E-02 0. -1.
         -2   -1    0    0    0  501 -0.00000000000E+00 -0.00000000000E+00 -0.14495758721E+04  0.14495758721E+04  0.25500000000E-02 0.  1.
    8880023    1    1    2    0    0 -0.11797129841E+04  0.13461402578E+03 -0.73315418581E+03  0.15431036671E+04  0.65864270000E+03 0.  0.
    8880022    1    1    2    0    0  0.11797129841E+04 -0.13461402578E+03  0.83901811229E+03  0.14619120037E+04  0.15294330000E+03 0.  0.
<mgrwt>
<rscale>  0 0.13157381E+04</rscale>
<asrwt>0</asrwt>
<pdfrwt beam="1">  1        2 0.23929843E+00 0.13578122E+04</pdfrwt>
<pdfrwt beam="2">  1       -2 0.22301167E+00 0.13578122E+04</pdfrwt>
<totfact> 0.10657387E+00</totfact>
</mgrwt>
</event>
<event>
 4    1  0.3057048E-007  0.1924075E+04  0.7818608E-02  0.8656840E-01
         -2   -1    0    0    0  501 -0.00000000000E+00  0.00000000000E+00  0.12479200920E+04  0.12479200920E+04  0.25500000000E-02 0.  1.
          2   -1    0    0  501    0  0.00000000000E+00 -0.00000000000E+00 -0.43071226436E+04  0.43071226436E+04  0.25500000000E-02 0. -1.
    8880023    1    1    2    0    0  0.10647567096E+04  0.14610090578E+04 -0.32014878131E+04  0.37351825579E+04  0.65864270000E+03 0.  0.
    8880022    1    1    2    0    0 -0.10647567096E+04 -0.14610090578E+04  0.14228526146E+03  0.18198601777E+04  0.15294330000E+03 0.  0.
<mgrwt>
<rscale>  0 0.18960210E+04</rscale>
<asrwt>0</asrwt>
<pdfrwt beam="1">  1        2 0.66263424E+00 0.19240750E+04</pdfrwt>
<pdfrwt beam="2">  1       -2 0.19198771E+00 0.19240750E+04</pdfrwt>
<totfact> 0.25500407E-02</totfact>
</mgrwt>
</event>
<event>
 4    1  0.3057048E-007  0.7600194E+03  0.7818608E-02  0.9805057E-01
         -2   -1    0    0    0  501 -0.00000000000E+00  0.00000000000E+00  0.31794190075E+03  0.31794190076E+03  0.25500000000E-02 0.  1.
          2   -1    0    0  501    0  0.00000000000E+00 -0.00000000000E+00 -0.26459503429E+04  0.26459503429E+04  0.25500000000E-02 0. -1.
    8880023    1    1    2    0    0 -0.15329460326E+03  0.34687171726E+03 -0.18498895988E+03  0.78220863276E+03  0.65864270000E+03 0.  1.
    8880022    1    1    2    0    0  0.15329460326E+03 -0.34687171726E+03 -0.21430194823E+04  0.21816836109E+04  0.15294330000E+03 0.  0.
<mgrwt>
<rscale>  0 0.65091841E+03</rscale>
<asrwt>0</asrwt>
<pdfrwt beam="1">  1        2 0.40706927E+00 0.76001936E+03</pdfrwt>
<pdfrwt beam="2">  1       -2 0.48914140E-01 0.76001936E+03</pdfrwt>
<totfact> 0.11884433E+01</totfact>
</mgrwt>
</event>
<event>
 4    1  0.3057048E-007  0.8694200E+03  0.7818608E-02  0.9577022E-01
          2   -1    0    0  501    0  0.00000000000E+00  0.00000000000E+00  0.75406096794E+03  0.75406096795E+03  0.25500000000E-02 0. -1.
         -2   -1    0    0    0  501 -0.00000000000E+00 -0.00000000000E+00 -0.11467056671E+04  0.11467056671E+04  0.25500000000E-02 0.  1.
    8880023    1    1    2    0    0 -0.24250479058E+03  0.51310078628E+03 -0.80332902753E+03  0.11837350730E+04  0.65864270000E+03 0.  1.
    8880022    1    1    2    0    0  0.24250479058E+03 -0.51310078628E+03  0.41068432839E+03  0.71703156202E+03  0.15294330000E+03 0.  0.
<mgrwt>
<rscale>  0 0.78835884E+03</rscale>
<asrwt>0</asrwt>
<pdfrwt beam="1">  1        2 0.11600938E+00 0.86942003E+03</pdfrwt>
<pdfrwt beam="2">  1       -2 0.17641626E+00 0.86942003E+03</pdfrwt>
<totfact> 0.71848524E+00</totfact>
</mgrwt>
</event>
<event>
 4    1  0.3057048E-007  0.9498142E+03  0.7818608E-02  0.9450382E-01
         -2   -1    0    0    0  501 -0.00000000000E+00  0.00000000000E+00  0.99827528597E+03  0.99827528597E+03  0.25500000000E-02 0.  1.
          2   -1    0    0  501    0  0.00000000000E+00 -0.00000000000E+00 -0.75349438845E+03  0.75349438846E+03  0.25500000000E-02 0. -1.
    8880023    1    1    2    0    0  0.68219362471E+03 -0.54301013794E+02  0.40485268997E+03  0.10324982559E+04  0.65864270000E+03 0.  1.
    8880022    1    1    2    0    0 -0.68219362471E+03  0.54301013794E+02 -0.16007179245E+03  0.71927141848E+03  0.15294330000E+03 0. -1.
<mgrwt>
<rscale>  0 0.88042961E+03</rscale>
<asrwt>0</asrwt>
<pdfrwt beam="1">  1        2 0.11592221E+00 0.94981416E+03</pdfrwt>
<pdfrwt beam="2">  1       -2 0.15358081E+00 0.94981416E+03</pdfrwt>
<totfact> 0.10449880E+01</totfact>
</mgrwt>
</event>
<event>
 4    1  0.3057048E-007  0.6921116E+03  0.7818608E-02  0.1003165E+00
         -2   -1    0    0    0  501 -0.00000000000E+00  0.00000000000E+00  0.10063332020E+04  0.10063332020E+04  0.25500000000E-02 0.  1.
          2   -1    0    0  501    0  0.00000000000E+00 -0.00000000000E+00 -0.13914020525E+04  0.13914020525E+04  0.25500000000E-02 0. -1.
    8880023    1    1    2    0    0 -0.21166662999E+03 -0.20135564641E+02  0.87221910141E+03  0.11134561376E+04  0.65864270000E+03 0.  1.
    8880022    1    1    2    0    0  0.21166662999E+03  0.20135564641E+02 -0.12572879519E+04  0.12842791169E+04  0.15294330000E+03 0.  0.
<mgrwt>
<rscale>  0 0.54284079E+03</rscale>
<asrwt>0</asrwt>
<pdfrwt beam="1">  1        2 0.21406186E+00 0.69211156E+03</pdfrwt>
<pdfrwt beam="2">  1       -2 0.15482049E+00 0.69211156E+03</pdfrwt>
<totfact> 0.41689364E+00</totfact>
</mgrwt>
</event>
<event>
 4    1  0.3057048E-007  0.6686651E+03  0.7818608E-02  0.1016638E+00
         -2   -1    0    0    0  501 -0.00000000000E+00  0.00000000000E+00  0.69566048253E+03  0.69566048253E+03  0.25500000000E-02 0.  1.
          2   -1    0    0  501    0  0.00000000000E+00 -0.00000000000E+00 -0.13095116906E+04  0.13095116906E+04  0.25500000000E-02 0. -1.
    8880023    1    1    2    0    0  0.68325234133E+02  0.92922058657E+02  0.52511410691E+03  0.85021049049E+03  0.65864270000E+03 0.  1.
    8880022    1    1    2    0    0 -0.68325234133E+02 -0.92922058657E+02 -0.11389653150E+04  0.11549616827E+04  0.15294330000E+03 0.  0.
<mgrwt>
<rscale>  0 0.48919457E+03</rscale>
<asrwt>0</asrwt>
<pdfrwt beam="1">  1        2 0.20146334E+00 0.66866513E+03</pdfrwt>
<pdfrwt beam="2">  1       -2 0.10702469E+00 0.66866513E+03</pdfrwt>
<totfact> 0.11830831E+01</totfact>
</mgrwt>
</event>
<event>
 4    1  0.3057048E-007  0.7936196E+03  0.7818608E-02  0.9724765E-01
         -2   -1    0    0    0  501 -0.00000000000E+00  0.00000000000E+00  0.39440586082E+03  0.39440586082E+03  0.25500000000E-02 0.  1.
          2   -1    0    0  501    0  0.00000000000E+00 -0.00000000000E+00 -0.22561100542E+04  0.22561100542E+04  0.25500000000E-02 0. -1.
    8880023    1    1    2    0    0 -0.17685608953E+03 -0.40588634411E+03 -0.67851750561E+02  0.79651482539E+03  0.65864270000E+03 0.  0.
    8880022    1    1    2    0    0  0.17685608953E+03  0.40588634411E+03 -0.17938524428E+04  0.18540010896E+04  0.15294330000E+03 0.  0.
<mgrwt>
<rscale>  0 0.69561218E+03</rscale>
<asrwt>0</asrwt>
<pdfrwt beam="1">  1        2 0.34709385E+00 0.79361956E+03</pdfrwt>
<pdfrwt beam="2">  1       -2 0.60677826E-01 0.79361956E+03</pdfrwt>
<totfact> 0.12561110E+01</totfact>
</mgrwt>
</event>
<event>
 4    1  0.3057048E-007  0.7106560E+03  0.7818608E-02  0.9955573E-01
         -2   -1    0    0    0  501 -0.00000000000E+00  0.00000000000E+00  0.83437024923E+03  0.83437024923E+03  0.25500000000E-02 0.  1.
          2   -1    0    0  501    0  0.00000000000E+00 -0.00000000000E+00 -0.67547547567E+03  0.67547547568E+03  0.25500000000E-02 0. -1.
    8880023    1    1    2    0    0  0.25125539150E+03  0.89958300773E+02  0.62834227679E+03  0.94860212455E+03  0.65864270000E+03 0.  0.
    8880022    1    1    2    0    0 -0.25125539150E+03 -0.89958300773E+02 -0.46944750324E+03  0.56124360036E+03  0.15294330000E+03 0. -1.
<mgrwt>
<rscale>  0 0.57641951E+03</rscale>
<asrwt>0</asrwt>
<pdfrwt beam="1">  1        2 0.10391930E+00 0.71065602E+03</pdfrwt>
<pdfrwt beam="2">  1       -2 0.12836465E+00 0.71065602E+03</pdfrwt>
<totfact> 0.19559237E+01</totfact>
</mgrwt>
</event>
<event>
 4    1  0.3057048E-007  0.1021914E+04  0.7818608E-02  0.9353433E-01
         -2   -1    0    0    0  501 -0.00000000000E+00  0.00000000000E+00  0.57089774944E+03  0.57089774945E+03  0.25500000000E-02 0.  1.
          2   -1    0    0  501    0  0.00000000000E+00 -0.00000000000E+00 -0.20158386629E+04  0.20158386629E+04  0.25500000000E-02 0. -1.
    8880023    1    1    2    0    0 -0.44974405912E+03  0.63892675415E+03 -0.10392917203E+03  0.10271847910E+04  0.65864270000E+03 0.  0.
    8880022    1    1    2    0    0  0.44974405912E+03 -0.63892675415E+03 -0.13410117414E+04  0.15595516213E+04  0.15294330000E+03 0.  0.
<mgrwt>
<rscale>  0 0.96009068E+03</rscale>
<asrwt>0</asrwt>
<pdfrwt beam="1">  1        2 0.31012902E+00 0.10219136E+04</pdfrwt>
<pdfrwt beam="2">  1       -2 0.87830424E-01 0.10219136E+04</pdfrwt>
<totfact> 0.73127672E+00</totfact>
</mgrwt>
</event>
<event>
 4    1  0.3057048E-007  0.6827475E+03  0.7818608E-02  0.1007810E+00
          2   -1    0    0  501    0  0.00000000000E+00  0.00000000000E+00  0.24496960302E+04  0.24496960302E+04  0.25500000000E-02 0. -1.
         -2   -1    0    0    0  501 -0.00000000000E+00 -0.00000000000E+00 -0.10671240741E+03  0.10671240744E+03  0.25500000000E-02 0.  1.
    8880023    1    1    2    0    0 -0.15602562733E+03 -0.89386187994E+02  0.11266377015E+04  0.13173673003E+04  0.65864270000E+03 0.  0.
    8880022    1    1    2    0    0  0.15602562733E+03  0.89386187994E+02  0.12163459213E+04  0.12390411374E+04  0.15294330000E+03 0.  0.
<mgrwt>
<rscale>  0 0.52354239E+03</rscale>
<asrwt>0</asrwt>
<pdfrwt beam="1">  1        2 0.37687628E+00 0.68274746E+03</pdfrwt>
<pdfrwt beam="2">  1       -2 0.16417295E-01 0.68274746E+03</pdfrwt>
<totfact> 0.11685030E+02</totfact>
</mgrwt>
</event>
<event>
 4    1  0.3057048E-007  0.8013733E+03  0.7818608E-02  0.9707834E-01
          2   -1    0    0  501    0  0.00000000000E+00  0.00000000000E+00  0.29456250032E+04  0.29456250032E+04  0.25500000000E-02 0. -1.
         -2   -1    0    0    0  501 -0.00000000000E+00 -0.00000000000E+00 -0.40779848947E+03  0.40779848948E+03  0.25500000000E-02 0.  1.
    8880023    1    1    2    0    0  0.27923554257E+03 -0.36113229756E+03  0.32259318151E+02  0.80202237777E+03  0.65864270000E+03 0.  1.
    8880022    1    1    2    0    0 -0.27923554257E+03  0.36113229756E+03  0.25055671956E+04  0.25514011149E+04  0.15294330000E+03 0.  0.
<mgrwt>
<rscale>  0 0.70552242E+03</rscale>
<asrwt>0</asrwt>
<pdfrwt beam="1">  1        2 0.45317307E+00 0.80137334E+03</pdfrwt>
<pdfrwt beam="2">  1       -2 0.62738230E-01 0.80137334E+03</pdfrwt>
<totfact> 0.46748205E+00</totfact>
</mgrwt>
</event>
<event>
 4    1  0.3057048E-007  0.7245503E+03  0.7818608E-02  0.9907480E-01
          2   -1    0    0  501    0  0.00000000000E+00  0.00000000000E+00  0.12789449617E+04  0.12789449617E+04  0.25500000000E-02 0. -1.
         -2   -1    0    0    0  501 -0.00000000000E+00 -0.00000000000E+00 -0.72509006394E+03  0.72509006394E+03  0.25500000000E-02 0.  1.
    8880023    1    1    2    0    0  0.18619656572E+03  0.23768405830E+03 -0.51104302524E+03  0.88664426495E+03  0.65864270000E+03 0.  1.
    8880022    1    1    2    0    0 -0.18619656572E+03 -0.23768405830E+03  0.10648979230E+04  0.11173907606E+04  0.15294330000E+03 0.  0.
<mgrwt>
<rscale>  0 0.59900151E+03</rscale>
<asrwt>0</asrwt>
<pdfrwt beam="1">  1        2 0.19676076E+00 0.72455026E+03</pdfrwt>
<pdfrwt beam="2">  1       -2 0.11155232E+00 0.72455026E+03</pdfrwt>
<totfact> 0.11061810E+01</totfact>
</mgrwt>
</event>
<event>
 4    1  0.3057048E-007  0.6969889E+03  0.7818608E-02  0.1000993E+00
          2   -1    0    0  501    0  0.00000000000E+00  0.00000000000E+00  0.11545570807E+04  0.11545570807E+04  0.25500000000E-02 0. -1.
         -2   -1    0    0    0  501 -0.00000000000E+00 -0.00000000000E+00 -0.80122816692E+03  0.80122816692E+03  0.25500000000E-02 0.  1.
    8880023    1    1    2    0    0  0.79660035398E+01 -0.22785934789E+03 -0.62714065430E+03  0.93760276566E+03  0.65864270000E+03 0.  1.
    8880022    1    1    2    0    0 -0.79660035398E+01  0.22785934789E+03  0.98046956808E+03  0.10181824820E+04  0.15294330000E+03 0.  0.
<mgrwt>
<rscale>  0 0.55217001E+03</rscale>
<asrwt>0</asrwt>
<pdfrwt beam="1">  1        2 0.17762417E+00 0.69698891E+03</pdfrwt>
<pdfrwt beam="2">  1       -2 0.12326587E+00 0.69698891E+03</pdfrwt>
<totfact> 0.10280089E+01</totfact>
</mgrwt>
</event>
<event>
 4    1  0.3057048E-007  0.6686581E+03  0.7818608E-02  0.1016644E+00
          2   -1    0    0  501    0  0.00000000000E+00  0.00000000000E+00  0.11458311709E+04  0.11458311709E+04  0.25500000000E-02 0. -1.
         -2   -1    0    0    0  501 -0.00000000000E+00 -0.00000000000E+00 -0.26741106888E+03  0.26741106889E+03  0.25500000000E-02 0.  1.
    8880023    1    1    2    0    0 -0.75172390982E+02  0.87421717594E+02  0.18488888151E+03  0.69374890979E+03  0.65864270000E+03 0.  0.
    8880022    1    1    2    0    0  0.75172390982E+02 -0.87421717594E+02  0.69353122056E+03  0.71949333004E+03  0.15294330000E+03 0.  0.
<mgrwt>
<rscale>  0 0.48917504E+03</rscale>
<asrwt>0</asrwt>
<pdfrwt beam="1">  1        2 0.17628172E+00 0.66865810E+03</pdfrwt>
<pdfrwt beam="2">  1       -2 0.41140165E-01 0.66865810E+03</pdfrwt>
<totfact> 0.11663408E+02</totfact>
</mgrwt>
</event>
<event>
 4    1  0.3057048E-007  0.1044881E+04  0.7818608E-02  0.9325061E-01
          2   -1    0    0  501    0  0.00000000000E+00  0.00000000000E+00  0.15611375195E+04  0.15611375195E+04  0.25500000000E-02 0. -1.
         -2   -1    0    0    0  501 -0.00000000000E+00 -0.00000000000E+00 -0.15006554884E+04  0.15006554884E+04  0.25500000000E-02 0.  1.
    8880023    1    1    2    0    0  0.51407491929E+03 -0.62744961125E+03  0.12403775395E+04  0.16218238758E+04  0.65864270000E+03 0.  0.
    8880022    1    1    2    0    0 -0.51407491929E+03  0.62744961125E+03 -0.11798955085E+04  0.14399691321E+04  0.15294330000E+03 0.  0.
<mgrwt>
<rscale>  0 0.98508115E+03</rscale>
<asrwt>0</asrwt>
<pdfrwt beam="1">  1        2 0.24017500E+00 0.10448810E+04</pdfrwt>
<pdfrwt beam="2">  1       -2 0.23087007E+00 0.10448810E+04</pdfrwt>
<totfact> 0.98031519E-01</totfact>
</mgrwt>
</event>
<event>
 4    1  0.3057048E-007  0.8006288E+03  0.7818608E-02  0.9709438E-01
         -2   -1    0    0    0  501 -0.00000000000E+00  0.00000000000E+00  0.44573014559E+03  0.44573014560E+03  0.25500000000E-02 0.  1.
          2   -1    0    0  501    0  0.00000000000E+00 -0.00000000000E+00 -0.10500276875E+04  0.10500276875E+04  0.25500000000E-02 0. -1.
    8880023    1    1    2    0    0  0.36514505019E+03 -0.27178194148E+03 -0.62412262339E+03  0.10151529868E+04  0.65864270000E+03 0. -1.
    8880022    1    1    2    0    0 -0.36514505019E+03  0.27178194148E+03  0.19825081461E+02  0.48060484628E+03  0.15294330000E+03 0.  1.
<mgrwt>
<rscale>  0 0.70457626E+03</rscale>
<asrwt>0</asrwt>
<pdfrwt beam="1">  1        2 0.16154272E+00 0.80062884E+03</pdfrwt>
<pdfrwt beam="2">  1       -2 0.68573869E-01 0.80062884E+03</pdfrwt>
<totfact> 0.46041957E+01</totfact>
</mgrwt>
</event>
<event>
 4    1  0.3057048E-007  0.1127521E+04  0.7818608E-02  0.9231016E-01
         -2   -1    0    0    0  501 -0.00000000000E+00  0.00000000000E+00  0.12060652601E+04  0.12060652601E+04  0.25500000000E-02 0.  1.
          2   -1    0    0  501    0  0.00000000000E+00 -0.00000000000E+00 -0.16259098517E+04  0.16259098517E+04  0.25500000000E-02 0. -1.
    8880023    1    1    2    0    0 -0.91490704492E+03  0.20949686356E+02  0.73849858989E+03  0.13478442654E+04  0.65864270000E+03 0.  1.
    8880022    1    1    2    0    0  0.91490704492E+03 -0.20949686356E+02 -0.11583431815E+04  0.14841308464E+04  0.15294330000E+03 0.  0.
<mgrwt>
<rscale>  0 0.10738947E+04</rscale>
<asrwt>0</asrwt>
<pdfrwt beam="1">  1        2 0.25013998E+00 0.11275212E+04</pdfrwt>
<pdfrwt beam="2">  1       -2 0.18554850E+00 0.11275212E+04</pdfrwt>
<totfact> 0.17527700E+00</totfact>
</mgrwt>
</event>
<event>
 4    1  0.3057048E-007  0.1319746E+04  0.7818608E-02  0.9048693E-01
          2   -1    0    0  501    0  0.00000000000E+00  0.00000000000E+00  0.23541192639E+04  0.23541192639E+04  0.25500000000E-02 0. -1.
         -2   -1    0    0    0  501 -0.00000000000E+00 -0.00000000000E+00 -0.10840210542E+04  0.10840210542E+04  0.25500000000E-02 0.  1.
    8880023    1    1    2    0    0  0.34323386393E+03 -0.10909212782E+04  0.17471544945E+04  0.21895839227E+04  0.65864270000E+03 0. -1.
    8880022    1    1    2    0    0 -0.34323386393E+03  0.10909212782E+04 -0.47705628477E+03  0.12485563954E+04  0.15294330000E+03 0.  0.
<mgrwt>
<rscale>  0 0.12761526E+04</rscale>
<asrwt>0</asrwt>
<pdfrwt beam="1">  1        2 0.36217219E+00 0.13197458E+04</pdfrwt>
<pdfrwt beam="2">  1       -2 0.16677247E+00 0.13197458E+04</pdfrwt>
<totfact> 0.91224026E-01</totfact>
</mgrwt>
</event>
<event>
 4    1  0.3057048E-007  0.7307949E+03  0.7818608E-02  0.9887621E-01
         -2   -1    0    0    0  501 -0.00000000000E+00  0.00000000000E+00  0.70345618268E+03  0.70345618268E+03  0.25500000000E-02 0.  1.
          2   -1    0    0  501    0  0.00000000000E+00 -0.00000000000E+00 -0.94425353446E+03  0.94425353446E+03  0.25500000000E-02 0. -1.
    8880023    1    1    2    0    0  0.14352150625E+02 -0.31629879669E+03  0.46008902555E+03  0.86356414395E+03  0.65864270000E+03 0.  0.
    8880022    1    1    2    0    0 -0.14352150625E+02  0.31629879669E+03 -0.70088637733E+03  0.78414557319E+03  0.15294330000E+03 0.  0.
<mgrwt>
<rscale>  0 0.60864998E+03</rscale>
<asrwt>0</asrwt>
<pdfrwt beam="1">  1        2 0.14526977E+00 0.73079485E+03</pdfrwt>
<pdfrwt beam="2">  1       -2 0.10822403E+00 0.73079485E+03</pdfrwt>
<totfact> 0.19054884E+01</totfact>
</mgrwt>
</event>
<event>
 4    1  0.3057048E-007  0.6846409E+03  0.7818608E-02  0.1006812E+00
         -2   -1    0    0    0  501 -0.00000000000E+00  0.00000000000E+00  0.96097777197E+03  0.96097777197E+03  0.25500000000E-02 0.  1.
          2   -1    0    0  501    0  0.00000000000E+00 -0.00000000000E+00 -0.27928467904E+03  0.27928467906E+03  0.25500000000E-02 0. -1.
    8880023    1    1    2    0    0  0.14099158806E+03  0.12265535295E+03  0.72249521772E+03  0.99535546887E+03  0.65864270000E+03 0.  1.
    8880022    1    1    2    0    0 -0.14099158806E+03 -0.12265535295E+03 -0.40802124794E+02  0.24490698216E+03  0.15294330000E+03 0.  0.
<mgrwt>
<rscale>  0 0.52761764E+03</rscale>
<asrwt>0</asrwt>
<pdfrwt beam="1">  1        2 0.42966874E-01 0.68464091E+03</pdfrwt>
<pdfrwt beam="2">  1       -2 0.14784273E+00 0.68464091E+03</pdfrwt>
<totfact> 0.37608532E+01</totfact>
</mgrwt>
</event>
<event>
 4    1  0.3057048E-007  0.8245838E+03  0.7818608E-02  0.9659964E-01
         -2   -1    0    0    0  501 -0.00000000000E+00  0.00000000000E+00  0.49076739194E+03  0.49076739194E+03  0.25500000000E-02 0.  1.
          2   -1    0    0  501    0  0.00000000000E+00 -0.00000000000E+00 -0.10904612590E+04  0.10904612590E+04  0.25500000000E-02 0. -1.
    8880023    1    1    2    0    0 -0.42454395974E+03 -0.25669177880E+03 -0.51453871507E+02  0.82618759989E+03  0.65864270000E+03 0.  1.
    8880022    1    1    2    0    0  0.42454395974E+03  0.25669177880E+03 -0.54823999560E+03  0.75504105110E+03  0.15294330000E+03 0.  0.
<mgrwt>
<rscale>  0 0.73451379E+03</rscale>
<asrwt>0</asrwt>
<pdfrwt beam="1">  1        2 0.16776327E+00 0.82458380E+03</pdfrwt>
<pdfrwt beam="2">  1       -2 0.75502676E-01 0.82458380E+03</pdfrwt>
<totfact> 0.35094298E+01</totfact>
</mgrwt>
</event>
<event>
 4    1  0.3057048E-007  0.8803379E+03  0.7818608E-02  0.9558363E-01
          2   -1    0    0  501    0  0.00000000000E+00  0.00000000000E+00  0.14403447956E+04  0.14403447956E+04  0.25500000000E-02 0. -1.
         -2   -1    0    0    0  501 -0.00000000000E+00 -0.00000000000E+00 -0.59614610061E+03  0.59614610061E+03  0.25500000000E-02 0.  1.
    8880023    1    1    2    0    0  0.28295310178E+03 -0.51100111709E+03 -0.13046680181E+03  0.88995302804E+03  0.65864270000E+03 0.  0.
    8880022    1    1    2    0    0 -0.28295310178E+03  0.51100111709E+03  0.97466549682E+03  0.11465378682E+04  0.15294330000E+03 0.  0.
<mgrwt>
<rscale>  0 0.80114402E+03</rscale>
<asrwt>0</asrwt>
<pdfrwt beam="1">  1        2 0.22159151E+00 0.88033789E+03</pdfrwt>
<pdfrwt beam="2">  1       -2 0.91714785E-01 0.88033789E+03</pdfrwt>
<totfact> 0.13990819E+01</totfact>
</mgrwt>
</event>
<event>
 4    1  0.3057048E-007  0.7844386E+03  0.7818608E-02  0.9745512E-01
          2   -1    0    0  501    0  0.00000000000E+00  0.00000000000E+00  0.77271318049E+03  0.77271318050E+03  0.25500000000E-02 0. -1.
         -2   -1    0    0    0  501 -0.00000000000E+00 -0.00000000000E+00 -0.82629865167E+03  0.82629865167E+03  0.25500000000E-02 0.  1.
    8880023    1    1    2    0    0 -0.41736760697E+03  0.85662529307E+02 -0.52619506757E+03  0.94457675372E+03  0.65864270000E+03 0.  1.
    8880022    1    1    2    0    0  0.41736760697E+03 -0.85662529307E+02  0.47260959640E+03  0.65443507844E+03  0.15294330000E+03 0.  0.
<mgrwt>
<rscale>  0 0.68370495E+03</rscale>
<asrwt>0</asrwt>
<pdfrwt beam="1">  1        2 0.11887895E+00 0.78443865E+03</pdfrwt>
<pdfrwt beam="2">  1       -2 0.12712287E+00 0.78443865E+03</pdfrwt>
<totfact> 0.16761843E+01</totfact>
</mgrwt>
</event>
<event>
 4    1  0.3887485E-007  0.9972367E+03  0.7818608E-02  0.9385182E-01
          2   -1    0    0  501    0  0.00000000000E+00  0.00000000000E+00  0.19049584630E+04  0.19049584630E+04  0.25500000000E-02 0. -1.
         -2   -1    0    0    0  501 -0.00000000000E+00 -0.00000000000E+00 -0.14864088469E+04  0.14864088469E+04  0.25500000000E-02 0.  1.
    8880023    1    1    2    0    0  0.27966052184E+03  0.69459401248E+03 -0.12245436111E+04  0.15792365597E+04  0.65864270000E+03 0.  1.
    8880022    1    1    2    0    0 -0.27966052184E+03 -0.69459401248E+03  0.16430932272E+04  0.18121307503E+04  0.15294330000E+03 0.  0.
<mgrwt>
<rscale>  0 0.93305256E+03</rscale>
<asrwt>0</asrwt>
<pdfrwt beam="1">  1        2 0.29307053E+00 0.99723671E+03</pdfrwt>
<pdfrwt beam="2">  1       -2 0.22867828E+00 0.99723671E+03</pdfrwt>
<totfact> 0.65765058E-01</totfact>
</mgrwt>
</event>
<event>
 4    1  0.3057048E-007  0.7009552E+03  0.7818608E-02  0.9993262E-01
          2   -1    0    0  501    0  0.00000000000E+00  0.00000000000E+00  0.58670017747E+03  0.58670017748E+03  0.25500000000E-02 0. -1.
         -2   -1    0    0    0  501 -0.00000000000E+00 -0.00000000000E+00 -0.61791883011E+03  0.61791883012E+03  0.25500000000E-02 0.  1.
    8880023    1    1    2    0    0  0.17927726646E+02  0.23917893557E+03 -0.34485685659E+03  0.78119422963E+03  0.65864270000E+03 0.  1.
    8880022    1    1    2    0    0 -0.17927726646E+02 -0.23917893557E+03  0.31363820395E+03  0.42342477797E+03  0.15294330000E+03 0.  0.
<mgrwt>
<rscale>  0 0.55946693E+03</rscale>
<asrwt>0</asrwt>
<pdfrwt beam="1">  1        2 0.90261565E-01 0.70095519E+03</pdfrwt>
<pdfrwt beam="2">  1       -2 0.95064436E-01 0.70095519E+03</pdfrwt>
<totfact> 0.48172476E+01</totfact>
</mgrwt>
</event>
<event>
 4    1  0.3057048E-007  0.7018098E+03  0.7818608E-02  0.9989775E-01
          2   -1    0    0  501    0  0.00000000000E+00  0.00000000000E+00  0.45499039982E+03  0.45499039982E+03  0.25500000000E-02 0. -1.
         -2   -1    0    0    0  501 -0.00000000000E+00 -0.00000000000E+00 -0.11155760887E+04  0.11155760887E+04  0.25500000000E-02 0.  1.
    8880023    1    1    2    0    0  0.21212473382E+03  0.11717484572E+03 -0.93815702823E+03  0.11716124202E+04  0.65864270000E+03 0.  1.
    8880022    1    1    2    0    0 -0.21212473382E+03 -0.11717484572E+03  0.27757133940E+03  0.39895406833E+03  0.15294330000E+03 0.  0.
<mgrwt>
<rscale>  0 0.56100886E+03</rscale>
<asrwt>0</asrwt>
<pdfrwt beam="1">  1        2 0.69998523E-01 0.70180984E+03</pdfrwt>
<pdfrwt beam="2">  1       -2 0.17162709E+00 0.70180984E+03</pdfrwt>
<totfact> 0.14537863E+01</totfact>
</mgrwt>
</event>
<event>
 4    1  0.3057048E-007  0.1556358E+04  0.7818608E-02  0.8870832E-01
         -2   -1    0    0    0  501 -0.00000000000E+00  0.00000000000E+00  0.17069341482E+04  0.17069341482E+04  0.25500000000E-02 0.  1.
          2   -1    0    0  501    0  0.00000000000E+00 -0.00000000000E+00 -0.17574636053E+04  0.17574636053E+04  0.25500000000E-02 0. -1.
    8880023    1    1    2    0    0  0.39498088051E+03  0.13536725756E+04 -0.91298345371E+03  0.18043803177E+04  0.65864270000E+03 0. -1.
    8880022    1    1    2    0    0 -0.39498088051E+03 -0.13536725756E+04  0.86245399663E+03  0.16600174358E+04  0.15294330000E+03 0.  0.
<mgrwt>
<rscale>  0 0.15206561E+04</rscale>
<asrwt>0</asrwt>
<pdfrwt beam="1">  1        2 0.27037902E+00 0.15563578E+04</pdfrwt>
<pdfrwt beam="2">  1       -2 0.26260525E+00 0.15563578E+04</pdfrwt>
<totfact> 0.45717997E-01</totfact>
</mgrwt>
</event>
<event>
 4    1  0.3057048E-007  0.8997968E+03  0.7818608E-02  0.9526358E-01
          2   -1    0    0  501    0  0.00000000000E+00  0.00000000000E+00  0.18859882824E+04  0.18859882824E+04  0.25500000000E-02 0. -1.
         -2   -1    0    0    0  501 -0.00000000000E+00 -0.00000000000E+00 -0.43771674270E+03  0.43771674271E+03  0.25500000000E-02 0.  1.
    8880023    1    1    2    0    0  0.60183082798E+03 -0.11672103911E+03  0.19575263857E+03  0.92084387832E+03  0.65864270000E+03 0. -1.
    8880022    1    1    2    0    0 -0.60183082798E+03  0.11672103911E+03  0.12525189012E+04  0.14028611468E+04  0.15294330000E+03 0.  0.
<mgrwt>
<rscale>  0 0.82368150E+03</rscale>
<asrwt>0</asrwt>
<pdfrwt beam="1">  1        2 0.29015204E+00 0.89979684E+03</pdfrwt>
<pdfrwt beam="2">  1       -2 0.67341039E-01 0.89979684E+03</pdfrwt>
<totfact> 0.15833642E+01</totfact>
</mgrwt>
</event>
<event>
 4    1  0.3057048E-007  0.6633306E+03  0.7818608E-02  0.1020977E+00
          2   -1    0    0  501    0  0.00000000000E+00  0.00000000000E+00  0.11597080130E+04  0.11597080130E+04  0.25500000000E-02 0. -1.
         -2   -1    0    0    0  501 -0.00000000000E+00 -0.00000000000E+00 -0.24476772001E+03  0.24476772002E+03  0.25500000000E-02 0.  1.
    8880023    1    1    2    0    0  0.27421262974E+02  0.73792490007E+02  0.23596577743E+03  0.70405064564E+03  0.65864270000E+03 0.  1.
    8880022    1    1    2    0    0 -0.27421262974E+02 -0.73792490007E+02  0.67897451554E+03  0.70042508737E+03  0.15294330000E+03 0.  0.
<mgrwt>
<rscale>  0 0.47335682E+03</rscale>
<asrwt>0</asrwt>
<pdfrwt beam="1">  1        2 0.17841662E+00 0.66333058E+03</pdfrwt>
<pdfrwt beam="2">  1       -2 0.37656572E-01 0.66333058E+03</pdfrwt>
<totfact> 0.13592496E+02</totfact>
</mgrwt>
</event>
<event>
 4    1  0.3057048E-007  0.6724519E+03  0.7818608E-02  0.1013963E+00
         -2   -1    0    0    0  501 -0.00000000000E+00  0.00000000000E+00  0.20285744011E+03  0.20285744013E+03  0.25500000000E-02 0.  1.
          2   -1    0    0  501    0  0.00000000000E+00 -0.00000000000E+00 -0.18305093064E+04  0.18305093064E+04  0.25500000000E-02 0. -1.
    8880023    1    1    2    0    0  0.78375133716E+02 -0.11062863245E+03 -0.38673096279E+03  0.77572701367E+03  0.65864270000E+03 0.  1.
    8880022    1    1    2    0    0 -0.78375133716E+02  0.11062863245E+03 -0.12409209035E+04  0.12576397329E+04  0.15294330000E+03 0.  0.
<mgrwt>
<rscale>  0 0.49929577E+03</rscale>
<asrwt>0</asrwt>
<pdfrwt beam="1">  1        2 0.28161681E+00 0.67245190E+03</pdfrwt>
<pdfrwt beam="2">  1       -2 0.31208838E-01 0.67245190E+03</pdfrwt>
<totfact> 0.81623072E+01</totfact>
</mgrwt>
</event>
<event>
 4    1  0.3057048E-007  0.7052603E+03  0.7818608E-02  0.9976042E-01
         -2   -1    0    0    0  501 -0.00000000000E+00  0.00000000000E+00  0.39013709470E+03  0.39013709471E+03  0.25500000000E-02 0.  1.
          2   -1    0    0  501    0  0.00000000000E+00 -0.00000000000E+00 -0.28109472106E+04  0.28109472106E+04  0.25500000000E-02 0. -1.
    8880023    1    1    2    0    0  0.30501477143E+02 -0.25030278455E+03  0.55345295987E+02  0.70742853499E+03  0.65864270000E+03 0.  1.
    8880022    1    1    2    0    0 -0.30501477143E+02  0.25030278455E+03 -0.24761554118E+04  0.24936557703E+04  0.15294330000E+03 0.  0.
<mgrwt>
<rscale>  0 0.56713365E+03</rscale>
<asrwt>0</asrwt>
<pdfrwt beam="1">  1        2 0.43245340E+00 0.70526026E+03</pdfrwt>
<pdfrwt beam="2">  1       -2 0.60021093E-01 0.70526026E+03</pdfrwt>
<totfact> 0.62956245E+00</totfact>
</mgrwt>
</event>
<event>
 4    1  0.3057048E-007  0.6601709E+03  0.7818608E-02  0.1023982E+00
          2   -1    0    0  501    0  0.00000000000E+00  0.00000000000E+00  0.37884962428E+03  0.37884962429E+03  0.25500000000E-02 0. -1.
         -2   -1    0    0    0  501 -0.00000000000E+00 -0.00000000000E+00 -0.87487009344E+03  0.87487009344E+03  0.25500000000E-02 0.  1.
    8880023    1    1    2    0    0 -0.44204278493E+01 -0.44675409509E+02 -0.72126724304E+03  0.97777915428E+03  0.65864270000E+03 0.  1.
    8880022    1    1    2    0    0  0.44204278493E+01  0.44675409509E+02  0.22524677388E+03  0.27594056345E+03  0.15294330000E+03 0.  0.
<mgrwt>
<rscale>  0 0.46276622E+03</rscale>
<asrwt>0</asrwt>
<pdfrwt beam="1">  1        2 0.58284558E-01 0.66017092E+03</pdfrwt>
<pdfrwt beam="2">  1       -2 0.13459540E+00 0.66017092E+03</pdfrwt>
<totfact> 0.34233265E+01</totfact>
</mgrwt>
</event>
<event>
 4    1  0.3057048E-007  0.7996297E+03  0.7818608E-02  0.9711597E-01
          2   -1    0    0  501    0  0.00000000000E+00  0.00000000000E+00  0.76435564813E+03  0.76435564813E+03  0.25500000000E-02 0. -1.
         -2   -1    0    0    0  501 -0.00000000000E+00 -0.00000000000E+00 -0.99727049013E+03  0.99727049013E+03  0.25500000000E-02 0.  1.
    8880023    1    1    2    0    0 -0.39089415930E+03  0.22978077133E+03 -0.72201844554E+03  0.10773663669E+04  0.65864270000E+03 0.  0.
    8880022    1    1    2    0    0  0.39089415930E+03 -0.22978077133E+03  0.48910360354E+03  0.68425977133E+03  0.15294330000E+03 0.  0.
<mgrwt>
<rscale>  0 0.70330473E+03</rscale>
<asrwt>0</asrwt>
<pdfrwt beam="1">  1        2 0.11759318E+00 0.79962970E+03</pdfrwt>
<pdfrwt beam="2">  1       -2 0.15342623E+00 0.79962970E+03</pdfrwt>
<totfact> 0.10431695E+01</totfact>
</mgrwt>
</event>
<event>
 4    1  0.3057048E-007  0.7622674E+03  0.7818608E-02  0.9799273E-01
         -2   -1    0    0    0  501 -0.00000000000E+00  0.00000000000E+00  0.15106398075E+04  0.15106398075E+04  0.25500000000E-02 0.  1.
          2   -1    0    0  501    0  0.00000000000E+00 -0.00000000000E+00 -0.66432536633E+03  0.66432536634E+03  0.25500000000E-02 0. -1.
    8880023    1    1    2    0    0 -0.21632833577E+03  0.31692802765E+03  0.13336453969E+04  0.15361189975E+04  0.65864270000E+03 0.  1.
    8880022    1    1    2    0    0  0.21632833577E+03 -0.31692802765E+03 -0.48733095575E+03  0.63884617633E+03  0.15294330000E+03 0.  0.
<mgrwt>
<rscale>  0 0.65401599E+03</rscale>
<asrwt>0</asrwt>
<pdfrwt beam="1">  1        2 0.10220390E+00 0.76226736E+03</pdfrwt>
<pdfrwt beam="2">  1       -2 0.23240612E+00 0.76226736E+03</pdfrwt>
<totfact> 0.37039854E+00</totfact>
</mgrwt>
</event>
<event>
 4    1  0.3057048E-007  0.8783764E+03  0.7818608E-02  0.9561676E-01
          2   -1    0    0  501    0  0.00000000000E+00  0.00000000000E+00  0.15251882101E+04  0.15251882101E+04  0.25500000000E-02 0. -1.
         -2   -1    0    0    0  501 -0.00000000000E+00 -0.00000000000E+00 -0.38742302604E+03  0.38742302604E+03  0.25500000000E-02 0.  1.
    8880023    1    1    2    0    0 -0.13199046745E+03 -0.56596236392E+03  0.41157613205E+03  0.97002061814E+03  0.65864270000E+03 0.  0.
    8880022    1    1    2    0    0  0.13199046745E+03  0.56596236392E+03  0.72618905199E+03  0.94259061799E+03  0.15294330000E+03 0.  0.
<mgrwt>
<rscale>  0 0.79885492E+03</rscale>
<asrwt>0</asrwt>
<pdfrwt beam="1">  1        2 0.23464433E+00 0.87837639E+03</pdfrwt>
<pdfrwt beam="2">  1       -2 0.59603544E-01 0.87837639E+03</pdfrwt>
<totfact> 0.32582731E+01</totfact>
</mgrwt>
</event>
<event>
 4    1  0.3057048E-007  0.8905813E+03  0.7818608E-02  0.9541324E-01
         -2   -1    0    0    0  501 -0.00000000000E+00  0.00000000000E+00  0.82375131972E+03  0.82375131972E+03  0.25500000000E-02 0.  1.
          2   -1    0    0  501    0  0.00000000000E+00 -0.00000000000E+00 -0.12304346758E+04  0.12304346758E+04  0.25500000000E-02 0. -1.
    8880023    1    1    2    0    0  0.59868381552E+03  0.30042141894E+02  0.44973610573E+03  0.99769615230E+03  0.65864270000E+03 0.  1.
    8880022    1    1    2    0    0 -0.59868381552E+03 -0.30042141894E+02 -0.85641946182E+03  0.10564898432E+04  0.15294330000E+03 0.  0.
<mgrwt>
<rscale>  0 0.81304545E+03</rscale>
<asrwt>0</asrwt>
<pdfrwt beam="1">  1        2 0.18929764E+00 0.89058130E+03</pdfrwt>
<pdfrwt beam="2">  1       -2 0.12673097E+00 0.89058130E+03</pdfrwt>
<totfact> 0.84440345E+00</totfact>
</mgrwt>
</event>
<event>
 4    1  0.3057048E-007  0.7091500E+03  0.7818608E-02  0.9961171E-01
          2   -1    0    0  501    0  0.00000000000E+00  0.00000000000E+00  0.83554409138E+03  0.83554409138E+03  0.25500000000E-02 0. -1.
         -2   -1    0    0    0  501 -0.00000000000E+00 -0.00000000000E+00 -0.77112344860E+03  0.77112344861E+03  0.25500000000E-02 0.  1.
    8880023    1    1    2    0    0  0.23941454958E+03  0.10846307299E+03 -0.56560899452E+03  0.90708726465E+03  0.65864270000E+03 0.  0.
    8880022    1    1    2    0    0 -0.23941454958E+03 -0.10846307299E+03  0.63002963729E+03  0.69958027533E+03  0.15294330000E+03 0. -1.
<mgrwt>
<rscale>  0 0.57386107E+03</rscale>
<asrwt>0</asrwt>
<pdfrwt beam="1">  1        2 0.12854525E+00 0.70915003E+03</pdfrwt>
<pdfrwt beam="2">  1       -2 0.11863438E+00 0.70915003E+03</pdfrwt>
<totfact> 0.18091905E+01</totfact>
</mgrwt>
</event>
<event>
 4    1  0.3057048E-007  0.1206176E+04  0.7818608E-02  0.9151142E-01
          2   -1    0    0  501    0  0.00000000000E+00  0.00000000000E+00  0.27315514993E+04  0.27315514993E+04  0.25500000000E-02 0. -1.
         -2   -1    0    0    0  501 -0.00000000000E+00 -0.00000000000E+00 -0.58562751333E+03  0.58562751333E+03  0.25500000000E-02 0.  1.
    8880023    1    1    2    0    0 -0.93383636990E+03  0.38600599937E+03  0.35868740533E+03  0.12583790599E+04  0.65864270000E+03 0.  0.
    8880022    1    1    2    0    0  0.93383636990E+03 -0.38600599937E+03  0.17872365806E+04  0.20587999527E+04  0.15294330000E+03 0.  0.
<mgrwt>
<rscale>  0 0.11572273E+04</rscale>
<asrwt>0</asrwt>
<pdfrwt beam="1">  1        2 0.42023870E+00 0.12061763E+04</pdfrwt>
<pdfrwt beam="2">  1       -2 0.90096539E-01 0.12061763E+04</pdfrwt>
<totfact> 0.26458106E+00</totfact>
</mgrwt>
</event>
<event>
 4    1  0.3057048E-007  0.6782128E+03  0.7818608E-02  0.1010353E+00
          2   -1    0    0  501    0  0.00000000000E+00  0.00000000000E+00  0.12114268821E+04  0.12114268821E+04  0.25500000000E-02 0. -1.
         -2   -1    0    0    0  501 -0.00000000000E+00 -0.00000000000E+00 -0.29256716005E+03  0.29256716007E+03  0.25500000000E-02 0.  1.
    8880023    1    1    2    0    0  0.10972434250E+03 -0.11883997281E+03  0.13811360566E+03  0.69213289534E+03  0.65864270000E+03 0.  1.
    8880022    1    1    2    0    0 -0.10972434250E+03  0.11883997281E+03  0.78074611639E+03  0.81186114684E+03  0.15294330000E+03 0.  0.
<mgrwt>
<rscale>  0 0.51334501E+03</rscale>
<asrwt>0</asrwt>
<pdfrwt beam="1">  1        2 0.18637336E+00 0.67821278E+03</pdfrwt>
<pdfrwt beam="2">  1       -2 0.45010334E-01 0.67821278E+03</pdfrwt>
<totfact> 0.89217512E+01</totfact>
</mgrwt>
</event>
<event>
 4    1  0.3057048E-007  0.6918305E+03  0.7818608E-02  0.1003294E+00
         -2   -1    0    0    0  501 -0.00000000000E+00  0.00000000000E+00  0.55495321434E+02  0.55495321492E+02  0.25500000000E-02 0.  1.
          2   -1    0    0  501    0  0.00000000000E+00 -0.00000000000E+00 -0.44308526899E+04  0.44308526899E+04  0.25500000000E-02 0. -1.
    8880023    1    1    2    0    0 -0.18919831978E+03  0.94990535073E+02 -0.25412547971E+04  0.26337436010E+04  0.65864270000E+03 0.  1.
    8880022    1    1    2    0    0  0.18919831978E+03 -0.94990535073E+02 -0.18341025714E+04  0.18526044104E+04  0.15294330000E+03 0.  0.
<mgrwt>
<rscale>  0 0.54228983E+03</rscale>
<asrwt>0</asrwt>
<pdfrwt beam="1">  1        2 0.68166937E+00 0.69183048E+03</pdfrwt>
<pdfrwt beam="2">  1       -2 0.85377452E-02 0.69183048E+03</pdfrwt>
<totfact> 0.14514788E+01</totfact>
</mgrwt>
</event>
<event>
 4    1  0.3057048E-007  0.9974945E+03  0.7818608E-02  0.9384843E-01
         -2   -1    0    0    0  501 -0.00000000000E+00  0.00000000000E+00  0.11686934396E+04  0.11686934396E+04  0.25500000000E-02 0.  1.
          2   -1    0    0  501    0  0.00000000000E+00 -0.00000000000E+00 -0.71808105213E+03  0.71808105213E+03  0.25500000000E-02 0. -1.
    8880023    1    1    2    0    0  0.74730435970E+03 -0.52166287990E+02  0.50921965531E+03  0.11199553523E+04  0.65864270000E+03 0.  1.
    8880022    1    1    2    0    0 -0.74730435970E+03  0.52166287990E+02 -0.58607267868E+02  0.76681913936E+03  0.15294330000E+03 0.  0.
<mgrwt>
<rscale>  0 0.93333615E+03</rscale>
<asrwt>0</asrwt>
<pdfrwt beam="1">  1        2 0.11047401E+00 0.99749453E+03</pdfrwt>
<pdfrwt beam="2">  1       -2 0.17979899E+00 0.99749453E+03</pdfrwt>
<totfact> 0.71628129E+00</totfact>
</mgrwt>
</event>
<event>
 4    1  0.3057048E-007  0.7805058E+03  0.7818608E-02  0.9754650E-01
         -2   -1    0    0    0  501 -0.00000000000E+00  0.00000000000E+00  0.34781303981E+03  0.34781303982E+03  0.25500000000E-02 0.  1.
          2   -1    0    0  501    0  0.00000000000E+00 -0.00000000000E+00 -0.11377692303E+04  0.11377692303E+04  0.25500000000E-02 0. -1.
    8880023    1    1    2    0    0 -0.35239632557E+03 -0.22626513671E+03 -0.33741919345E+03  0.85031817618E+03  0.65864270000E+03 0.  1.
    8880022    1    1    2    0    0  0.35239632557E+03  0.22626513671E+03 -0.45253699706E+03  0.63526409397E+03  0.15294330000E+03 0.  1.
<mgrwt>
<rscale>  0 0.67854109E+03</rscale>
<asrwt>0</asrwt>
<pdfrwt beam="1">  1        2 0.17504142E+00 0.78050579E+03</pdfrwt>
<pdfrwt beam="2">  1       -2 0.53509699E-01 0.78050579E+03</pdfrwt>
<totfact> 0.68894945E+01</totfact>
</mgrwt>
</event>
<event>
 4    1  0.3057048E-007  0.7092073E+03  0.7818608E-02  0.9960956E-01
          2   -1    0    0  501    0  0.00000000000E+00  0.00000000000E+00  0.27224021942E+03  0.27224021943E+03  0.25500000000E-02 0. -1.
         -2   -1    0    0    0  501 -0.00000000000E+00 -0.00000000000E+00 -0.23619671671E+04  0.23619671671E+04  0.25500000000E-02 0.  1.
    8880023    1    1    2    0    0  0.26297398017E+03  0.30756831284E+01 -0.21993189594E+04  0.23108394288E+04  0.65864270000E+03 0.  1.
    8880022    1    1    2    0    0 -0.26297398017E+03 -0.30756831284E+01  0.10959201171E+03  0.32336795778E+03  0.15294330000E+03 0.  0.
<mgrwt>
<rscale>  0 0.57395880E+03</rscale>
<asrwt>0</asrwt>
<pdfrwt beam="1">  1        2 0.41883112E-01 0.70920729E+03</pdfrwt>
<pdfrwt beam="2">  1       -2 0.36337955E+00 0.70920729E+03</pdfrwt>
<totfact> 0.16625988E+00</totfact>
</mgrwt>
</event>
<event>
 4    1  0.3057048E-007  0.7590721E+03  0.7818608E-02  0.9807516E-01
          2   -1    0    0  501    0  0.00000000000E+00  0.00000000000E+00  0.29500807916E+04  0.29500807916E+04  0.25500000000E-02 0. -1.
         -2   -1    0    0    0  501 -0.00000000000E+00 -0.00000000000E+00 -0.18667080861E+03  0.18667080863E+03  0.25500000000E-02 0.  1.
    8880023    1    1    2    0    0  0.37570494511E+03  0.35015770776E+02  0.69674142713E+03  0.10303587397E+04  0.65864270000E+03 0.  0.
    8880022    1    1    2    0    0 -0.37570494511E+03 -0.35015770776E+02  0.20666685559E+04  0.21063928605E+04  0.15294330000E+03 0.  0.
<mgrwt>
<rscale>  0 0.64960772E+03</rscale>
<asrwt>0</asrwt>
<pdfrwt beam="1">  1        2 0.45385857E+00 0.75907214E+03</pdfrwt>
<pdfrwt beam="2">  1       -2 0.28718587E-01 0.75907214E+03</pdfrwt>
<totfact> 0.21958444E+01</totfact>
</mgrwt>
</event>
<event>
 4    1  0.3057048E-007  0.1318892E+04  0.7818608E-02  0.9049415E-01
          2   -1    0    0  501    0  0.00000000000E+00  0.00000000000E+00  0.19919279849E+04  0.19919279849E+04  0.25500000000E-02 0. -1.
         -2   -1    0    0    0  501 -0.00000000000E+00 -0.00000000000E+00 -0.88073010067E+03  0.88073010067E+03  0.25500000000E-02 0.  1.
    8880023    1    1    2    0    0 -0.60544844325E+03 -0.96907065862E+03  0.11037159495E+04  0.17197862839E+04  0.65864270000E+03 0. -1.
    8880022    1    1    2    0    0  0.60544844325E+03  0.96907065862E+03  0.74819347792E+01  0.11528718017E+04  0.15294330000E+03 0.  0.
<mgrwt>
<rscale>  0 0.12752634E+04</rscale>
<asrwt>0</asrwt>
<pdfrwt beam="1">  1        2 0.30645046E+00 0.13188919E+04</pdfrwt>
<pdfrwt beam="2">  1       -2 0.13549694E+00 0.13188919E+04</pdfrwt>
<totfact> 0.25398743E+00</totfact>
</mgrwt>
</event>
<event>
 4    1  0.3057048E-007  0.7748769E+03  0.7818608E-02  0.9768012E-01
          2   -1    0    0  501    0  0.00000000000E+00  0.00000000000E+00  0.13828455621E+04  0.13828455621E+04  0.25500000000E-02 0. -1.
         -2   -1    0    0    0  501 -0.00000000000E+00 -0.00000000000E+00 -0.34130354510E+03  0.34130354511E+03  0.25500000000E-02 0.  1.
    8880023    1    1    2    0    0  0.62924080108E+02 -0.40331689092E+03  0.23905742773E+03  0.81091467762E+03  0.65864270000E+03 0.  0.
    8880022    1    1    2    0    0 -0.62924080108E+02  0.40331689092E+03  0.80248458922E+03  0.91323442954E+03  0.15294330000E+03 0.  0.
<mgrwt>
<rscale>  0 0.67107828E+03</rscale>
<asrwt>0</asrwt>
<pdfrwt beam="1">  1        2 0.21274547E+00 0.77487687E+03</pdfrwt>
<pdfrwt beam="2">  1       -2 0.52508238E-01 0.77487687E+03</pdfrwt>
<totfact> 0.51545625E+01</totfact>
</mgrwt>
</event>
<event>
 4    1  0.3057048E-007  0.8648080E+03  0.7818608E-02  0.9585067E-01
          2   -1    0    0  501    0  0.00000000000E+00  0.00000000000E+00  0.16409528895E+04  0.16409528895E+04  0.25500000000E-02 0. -1.
         -2   -1    0    0    0  501 -0.00000000000E+00 -0.00000000000E+00 -0.33120665744E+03  0.33120665745E+03  0.25500000000E-02 0.  1.
    8880023    1    1    2    0    0  0.82542079124E+02  0.55431893333E+03  0.58848894095E+03  0.10460459429E+04  0.65864270000E+03 0.  0.
    8880022    1    1    2    0    0 -0.82542079124E+02 -0.55431893333E+03  0.72125729108E+03  0.92611360406E+03  0.15294330000E+03 0.  1.
<mgrwt>
<rscale>  0 0.78292447E+03</rscale>
<asrwt>0</asrwt>
<pdfrwt beam="1">  1        2 0.25245429E+00 0.86480800E+03</pdfrwt>
<pdfrwt beam="2">  1       -2 0.50954870E-01 0.86480800E+03</pdfrwt>
<totfact> 0.38992293E+01</totfact>
</mgrwt>
</event>
<event>
 4    1  0.3057048E-007  0.8997387E+03  0.7818608E-02  0.9526451E-01
          2   -1    0    0  501    0  0.00000000000E+00  0.00000000000E+00  0.82980464383E+03  0.82980464384E+03  0.25500000000E-02 0. -1.
         -2   -1    0    0    0  501 -0.00000000000E+00 -0.00000000000E+00 -0.15831512506E+04  0.15831512506E+04  0.25500000000E-02 0.  1.
    8880023    1    1    2    0    0  0.36525098653E+03 -0.49225126677E+03 -0.12976531145E+04  0.15790609249E+04  0.65864270000E+03 0.  1.
    8880022    1    1    2    0    0 -0.36525098653E+03  0.49225126677E+03  0.54430650773E+03  0.83389496951E+03  0.15294330000E+03 0.  0.
<mgrwt>
<rscale>  0 0.82361465E+03</rscale>
<asrwt>0</asrwt>
<pdfrwt beam="1">  1        2 0.12766225E+00 0.89973874E+03</pdfrwt>
<pdfrwt beam="2">  1       -2 0.24356173E+00 0.89973874E+03</pdfrwt>
<totfact> 0.23296129E+00</totfact>
</mgrwt>
</event>
<event>
 4    1  0.3057048E-007  0.6871568E+03  0.7818608E-02  0.1005534E+00
          2   -1    0    0  501    0  0.00000000000E+00  0.00000000000E+00  0.11289021100E+04  0.11289021100E+04  0.25500000000E-02 0. -1.
         -2   -1    0    0    0  501 -0.00000000000E+00 -0.00000000000E+00 -0.24594973125E+03  0.24594973126E+03  0.25500000000E-02 0.  1.
    8880023    1    1    2    0    0 -0.59331155422E+02 -0.18669249755E+03  0.31703341966E+03  0.75676592820E+03  0.65864270000E+03 0.  1.
    8880022    1    1    2    0    0  0.59331155422E+02  0.18669249755E+03  0.56591895911E+03  0.61808591308E+03  0.15294330000E+03 0. -1.
<mgrwt>
<rscale>  0 0.53288747E+03</rscale>
<asrwt>0</asrwt>
<pdfrwt beam="1">  1        2 0.17367725E+00 0.68715681E+03</pdfrwt>
<pdfrwt beam="2">  1       -2 0.37838420E-01 0.68715681E+03</pdfrwt>
<totfact> 0.14025926E+02</totfact>
</mgrwt>
</event>
<event>
 4    1  0.3057048E-007  0.7165750E+03  0.7818608E-02  0.9934350E-01
          2   -1    0    0  501    0  0.00000000000E+00  0.00000000000E+00  0.26374359131E+04  0.26374359131E+04  0.25500000000E-02 0. -1.
         -2   -1    0    0    0  501 -0.00000000000E+00 -0.00000000000E+00 -0.20553251489E+03  0.20553251491E+03  0.25500000000E-02 0.  1.
    8880023    1    1    2    0    0 -0.82407816017E+02  0.26996019278E+03  0.47455094440E+03  0.85946399513E+03  0.65864270000E+03 0.  0.
    8880022    1    1    2    0    0  0.82407816017E+02 -0.26996019278E+03  0.19573524538E+04  0.19835044328E+04  0.15294330000E+03 0.  0.
<mgrwt>
<rscale>  0 0.58625040E+03</rscale>
<asrwt>0</asrwt>
<pdfrwt beam="1">  1        2 0.40575933E+00 0.71657502E+03</pdfrwt>
<pdfrwt beam="2">  1       -2 0.31620390E-01 0.71657502E+03</pdfrwt>
<totfact> 0.28281317E+01</totfact>
</mgrwt>
</event>
<event>
 4    1  0.8984488E-007  0.1017845E+04  0.7818608E-02  0.9358575E-01
          2   -1    0    0  501    0  0.00000000000E+00  0.00000000000E+00  0.26341464766E+04  0.26341464766E+04  0.25500000000E-02 0. -1.
         -2   -1    0    0    0  501 -0.00000000000E+00 -0.00000000000E+00 -0.15840333462E+04  0.15840333462E+04  0.25500000000E-02 0.  1.
    8880023    1    1    2    0    0 -0.30411350133E+03 -0.71394156533E+03 -0.13502218305E+04  0.16908893453E+04  0.65864270000E+03 0.  0.
    8880022    1    1    2    0    0  0.30411350133E+03  0.71394156533E+03  0.24003349609E+04  0.25272904775E+04  0.15294330000E+03 0.  0.
<mgrwt>
<rscale>  0 0.95564654E+03</rscale>
<asrwt>0</asrwt>
<pdfrwt beam="1">  1        2 0.40525330E+00 0.10178447E+04</pdfrwt>
<pdfrwt beam="2">  1       -2 0.24369744E+00 0.10178447E+04</pdfrwt>
<totfact> 0.20619922E-01</totfact>
</mgrwt>
</event>
<event>
 4    1  0.3057048E-007  0.8055183E+03  0.7818608E-02  0.9698989E-01
          2   -1    0    0  501    0  0.00000000000E+00  0.00000000000E+00  0.70646472124E+03  0.70646472125E+03  0.25500000000E-02 0. -1.
         -2   -1    0    0    0  501 -0.00000000000E+00 -0.00000000000E+00 -0.73879571893E+03  0.73879571894E+03  0.25500000000E-02 0.  1.
    8880023    1    1    2    0    0  0.19012088467E+03 -0.42296990064E+03 -0.33319465016E+03  0.87171002564E+03  0.65864270000E+03 0.  0.
    8880022    1    1    2    0    0 -0.19012088467E+03  0.42296990064E+03  0.30086365247E+03  0.57355041455E+03  0.15294330000E+03 0.  0.
<mgrwt>
<rscale>  0 0.71077018E+03</rscale>
<asrwt>0</asrwt>
<pdfrwt beam="1">  1        2 0.10868688E+00 0.80551828E+03</pdfrwt>
<pdfrwt beam="2">  1       -2 0.11366088E+00 0.80551828E+03</pdfrwt>
<totfact> 0.24788401E+01</totfact>
</mgrwt>
</event>
<event>
 4    1  0.3057048E-007  0.6591062E+03  0.7818608E-02  0.1025091E+00
         -2   -1    0    0    0  501 -0.00000000000E+00  0.00000000000E+00  0.63976191378E+03  0.63976191378E+03  0.25500000000E-02 0.  1.
          2   -1    0    0  501    0  0.00000000000E+00 -0.00000000000E+00 -0.41469848712E+03  0.41469848713E+03  0.25500000000E-02 0. -1.
    8880023    1    1    2    0    0 -0.23019779032E+02  0.89950558676E+01  0.43782227468E+03  0.79127073226E+03  0.65864270000E+03 0.  1.
    8880022    1    1    2    0    0  0.23019779032E+02 -0.89950558676E+01 -0.21275884803E+03  0.26318966865E+03  0.15294330000E+03 0.  0.
<mgrwt>
<rscale>  0 0.45893224E+03</rscale>
<asrwt>0</asrwt>
<pdfrwt beam="1">  1        2 0.63799767E-01 0.65910623E+03</pdfrwt>
<pdfrwt beam="2">  1       -2 0.98424910E-01 0.65910623E+03</pdfrwt>
<totfact> 0.66553087E+01</totfact>
</mgrwt>
</event>
<event>
 4    1  0.3057048E-007  0.6932041E+03  0.7818608E-02  0.1002665E+00
          2   -1    0    0  501    0  0.00000000000E+00  0.00000000000E+00  0.74829368320E+03  0.74829368321E+03  0.25500000000E-02 0. -1.
         -2   -1    0    0    0  501 -0.00000000000E+00 -0.00000000000E+00 -0.83933723182E+03  0.83933723182E+03  0.25500000000E-02 0.  1.
    8880023    1    1    2    0    0 -0.18527090753E+03  0.11133929993E+03 -0.66183378639E+03  0.95841322818E+03  0.65864270000E+03 0.  1.
    8880022    1    1    2    0    0  0.18527090753E+03 -0.11133929993E+03  0.57079023777E+03  0.62921768685E+03  0.15294330000E+03 0. -1.
<mgrwt>
<rscale>  0 0.54496798E+03</rscale>
<asrwt>0</asrwt>
<pdfrwt beam="1">  1        2 0.11512211E+00 0.69320412E+03</pdfrwt>
<pdfrwt beam="2">  1       -2 0.12912880E+00 0.69320412E+03</pdfrwt>
<totfact> 0.16955490E+01</totfact>
</mgrwt>
</event>
<event>
 4    1  0.3057048E-007  0.7737914E+03  0.7818608E-02  0.9770629E-01
         -2   -1    0    0    0  501 -0.00000000000E+00  0.00000000000E+00  0.42352975801E+03  0.42352975802E+03  0.25500000000E-02 0.  1.
          2   -1    0    0  501    0  0.00000000000E+00 -0.00000000000E+00 -0.12659326698E+04  0.12659326698E+04  0.25500000000E-02 0. -1.
    8880023    1    1    2    0    0 -0.38603643286E+02 -0.40429274064E+03 -0.37113688545E+02  0.77468089789E+03  0.65864270000E+03 0.  1.
    8880022    1    1    2    0    0  0.38603643286E+02  0.40429274064E+03 -0.80528922322E+03  0.91478152990E+03  0.15294330000E+03 0.  0.
<mgrwt>
<rscale>  0 0.66962883E+03</rscale>
<asrwt>0</asrwt>
<pdfrwt beam="1">  1        2 0.19475887E+00 0.77379136E+03</pdfrwt>
<pdfrwt beam="2">  1       -2 0.65158425E-01 0.77379136E+03</pdfrwt>
<totfact> 0.38221105E+01</totfact>
</mgrwt>
</event>
<event>
 4    1  0.3057048E-007  0.8899905E+03  0.7818608E-02  0.9542295E-01
          2   -1    0    0  501    0  0.00000000000E+00  0.00000000000E+00  0.19073448338E+04  0.19073448338E+04  0.25500000000E-02 0. -1.
         -2   -1    0    0    0  501 -0.00000000000E+00 -0.00000000000E+00 -0.31425616416E+03  0.31425616417E+03  0.25500000000E-02 0.  1.
    8880023    1    1    2    0    0 -0.23155802691E+03 -0.55195457265E+03  0.68403792811E+03  0.11224932354E+04  0.65864270000E+03 0.  0.
    8880022    1    1    2    0    0  0.23155802691E+03  0.55195457265E+03  0.90905074153E+03  0.10991077626E+04  0.15294330000E+03 0.  0.
<mgrwt>
<rscale>  0 0.81236141E+03</rscale>
<asrwt>0</asrwt>
<pdfrwt beam="1">  1        2 0.29343765E+00 0.88999055E+03</pdfrwt>
<pdfrwt beam="2">  1       -2 0.48347104E-01 0.88999055E+03</pdfrwt>
<totfact> 0.30908911E+01</totfact>
</mgrwt>
</event>
<event>
 4    1  0.3057048E-007  0.9936438E+03  0.7818608E-02  0.9389921E-01
         -2   -1    0    0    0  501 -0.00000000000E+00  0.00000000000E+00  0.78388857347E+03  0.78388857347E+03  0.25500000000E-02 0.  1.
          2   -1    0    0  501    0  0.00000000000E+00 -0.00000000000E+00 -0.22653317986E+04  0.22653317986E+04  0.25500000000E-02 0. -1.
    8880023    1    1    2    0    0  0.85281304241E+02 -0.73908384995E+03  0.36034206158E+03  0.10569647325E+04  0.65864270000E+03 0.  0.
    8880022    1    1    2    0    0 -0.85281304241E+02  0.73908384995E+03 -0.18417852867E+04  0.19922556396E+04  0.15294330000E+03 0.  0.
<mgrwt>
<rscale>  0 0.92909797E+03</rscale>
<asrwt>0</asrwt>
<pdfrwt beam="1">  1        2 0.34851258E+00 0.99364382E+03</pdfrwt>
<pdfrwt beam="2">  1       -2 0.12059824E+00 0.99364382E+03</pdfrwt>
<totfact> 0.24972760E+00</totfact>
</mgrwt>
</event>
<event>
 4    1  0.3057048E-007  0.7681534E+03  0.7818608E-02  0.9784439E-01
         -2   -1    0    0    0  501 -0.00000000000E+00  0.00000000000E+00  0.68674487777E+03  0.68674487778E+03  0.25500000000E-02 0.  1.
          2   -1    0    0  501    0  0.00000000000E+00 -0.00000000000E+00 -0.52617802954E+03  0.52617802955E+03  0.25500000000E-02 0. -1.
    8880023    1    1    2    0    0 -0.29486199518E+03 -0.26326002036E+03  0.17880677101E+03  0.78868973757E+03  0.65864270000E+03 0.  0.
    8880022    1    1    2    0    0  0.29486199518E+03  0.26326002036E+03 -0.18239922773E+02  0.42423316976E+03  0.15294330000E+03 0.  1.
<mgrwt>
<rscale>  0 0.66204373E+03</rscale>
<asrwt>0</asrwt>
<pdfrwt beam="1">  1        2 0.80950466E-01 0.76815340E+03</pdfrwt>
<pdfrwt beam="2">  1       -2 0.10565306E+00 0.76815340E+03</pdfrwt>
<totfact> 0.42461375E+01</totfact>
</mgrwt>
</event>
<event>
 4    1  0.3057048E-007  0.1249949E+04  0.7818608E-02  0.9110034E-01
          2   -1    0    0  501    0  0.00000000000E+00  0.00000000000E+00  0.35675753611E+04  0.35675753611E+04  0.25500000000E-02 0. -1.
         -2   -1    0    0    0  501 -0.00000000000E+00 -0.00000000000E+00 -0.65828831720E+03  0.65828831721E+03  0.25500000000E-02 0.  1.
    8880023    1    1    2    0    0 -0.95669445524E+03  0.46184163070E+03  0.14231885692E+03  0.12580249742E+04  0.65864270000E+03 0.  0.
    8880022    1    1    2    0    0  0.95669445524E+03 -0.46184163070E+03  0.27669681870E+04  0.29678387040E+04  0.15294330000E+03 0. -1.
<mgrwt>
<rscale>  0 0.12032297E+04</rscale>
<asrwt>0</asrwt>
<pdfrwt beam="1">  1        2 0.54885775E+00 0.12499489E+04</pdfrwt>
<pdfrwt beam="2">  1       -2 0.10127513E+00 0.12499489E+04</pdfrwt>
<totfact> 0.58049308E-01</totfact>
</mgrwt>
</event>
<event>
 4    1  0.3057048E-007  0.1080859E+04  0.7818608E-02  0.9282672E-01
          2   -1    0    0  501    0  0.00000000000E+00  0.00000000000E+00  0.87639013993E+03  0.87639013993E+03  0.25500000000E-02 0. -1.
         -2   -1    0    0    0  501 -0.00000000000E+00 -0.00000000000E+00 -0.12228912888E+04  0.12228912888E+04  0.25500000000E-02 0.  1.
    8880023    1    1    2    0    0  0.85380116768E+03  0.73961896954E+02  0.15919610213E+03  0.10925202064E+04  0.65864270000E+03 0.  0.
    8880022    1    1    2    0    0 -0.85380116768E+03 -0.73961896954E+02 -0.50569725098E+03  0.10067612223E+04  0.15294330000E+03 0.  0.
<mgrwt>
<rscale>  0 0.10239387E+04</rscale>
<asrwt>0</asrwt>
<pdfrwt beam="1">  1        2 0.13482925E+00 0.10808594E+04</pdfrwt>
<pdfrwt beam="2">  1       -2 0.18813712E+00 0.10808594E+04</pdfrwt>
<totfact> 0.47785448E+00</totfact>
</mgrwt>
</event>
<event>
 4    1  0.3057048E-007  0.7206039E+03  0.7818608E-02  0.9920548E-01
          2   -1    0    0  501    0  0.00000000000E+00  0.00000000000E+00  0.27061031094E+04  0.27061031094E+04  0.25500000000E-02 0. -1.
         -2   -1    0    0    0  501 -0.00000000000E+00 -0.00000000000E+00 -0.10766716292E+03  0.10766716295E+03  0.25500000000E-02 0.  1.
    8880023    1    1    2    0    0 -0.20145517962E+03 -0.21183844190E+03  0.14546859152E+04  0.16233856698E+04  0.65864270000E+03 0.  1.
    8880022    1    1    2    0    0  0.20145517962E+03  0.21183844190E+03  0.11437500313E+04  0.11903846026E+04  0.15294330000E+03 0. -1.
<mgrwt>
<rscale>  0 0.59275698E+03</rscale>
<asrwt>0</asrwt>
<pdfrwt beam="1">  1        2 0.41632355E+00 0.72060386E+03</pdfrwt>
<pdfrwt beam="2">  1       -2 0.16564179E-01 0.72060386E+03</pdfrwt>
<totfact> 0.81723726E+01</totfact>
</mgrwt>
</event>
<event>
 4    1  0.3057048E-007  0.8816130E+03  0.7818608E-02  0.9556218E-01
          2   -1    0    0  501    0  0.00000000000E+00  0.00000000000E+00  0.23321084884E+04  0.23321084885E+04  0.25500000000E-02 0. -1.
         -2   -1    0    0    0  501 -0.00000000000E+00 -0.00000000000E+00 -0.55703394966E+03  0.55703394967E+03  0.25500000000E-02 0.  1.
    8880023    1    1    2    0    0 -0.54065527771E+03  0.22610420507E+03 -0.12905635273E+03  0.89100897263E+03  0.65864270000E+03 0.  1.
    8880022    1    1    2    0    0  0.54065527771E+03 -0.22610420507E+03  0.19041308915E+04  0.19981334655E+04  0.15294330000E+03 0.  0.
<mgrwt>
<rscale>  0 0.80263027E+03</rscale>
<asrwt>0</asrwt>
<pdfrwt beam="1">  1        2 0.35878593E+00 0.88161298E+03</pdfrwt>
<pdfrwt beam="2">  1       -2 0.85697528E-01 0.88161298E+03</pdfrwt>
<totfact> 0.52598942E+00</totfact>
</mgrwt>
</event>
<event>
 4    1  0.3057048E-007  0.6748842E+03  0.7818608E-02  0.1012379E+00
          2   -1    0    0  501    0  0.00000000000E+00  0.00000000000E+00  0.21130627311E+04  0.21130627311E+04  0.25500000000E-02 0. -1.
         -2   -1    0    0    0  501 -0.00000000000E+00 -0.00000000000E+00 -0.28239660975E+03  0.28239660977E+03  0.25500000000E-02 0.  1.
    8880023    1    1    2    0    0 -0.86488964184E+02  0.11907183806E+03  0.13713073196E+03  0.68867516832E+03  0.65864270000E+03 0.  1.
    8880022    1    1    2    0    0  0.86488964184E+02 -0.11907183806E+03  0.16935353894E+04  0.17067841726E+04  0.15294330000E+03 0.  0.
<mgrwt>
<rscale>  0 0.50539844E+03</rscale>
<asrwt>0</asrwt>
<pdfrwt beam="1">  1        2 0.32508656E+00 0.67488418E+03</pdfrwt>
<pdfrwt beam="2">  1       -2 0.43445634E-01 0.67488418E+03</pdfrwt>
<totfact> 0.30357469E+01</totfact>
</mgrwt>
</event>
<event>
 4    1  0.3057048E-007  0.7977546E+03  0.7818608E-02  0.9715672E-01
         -2   -1    0    0    0  501 -0.00000000000E+00  0.00000000000E+00  0.26844694003E+03  0.26844694004E+03  0.25500000000E-02 0.  1.
          2   -1    0    0  501    0  0.00000000000E+00 -0.00000000000E+00 -0.22300042711E+04  0.22300042711E+04  0.25500000000E-02 0. -1.
    8880023    1    1    2    0    0 -0.41092326993E+03 -0.18369609577E+03 -0.45438608368E+03  0.91808447796E+03  0.65864270000E+03 0.  1.
    8880022    1    1    2    0    0  0.41092326993E+03  0.18369609577E+03 -0.15071712474E+04  0.15803667332E+04  0.15294330000E+03 0.  0.
<mgrwt>
<rscale>  0 0.70091291E+03</rscale>
<asrwt>0</asrwt>
<pdfrwt beam="1">  1        2 0.34307757E+00 0.79775460E+03</pdfrwt>
<pdfrwt beam="2">  1       -2 0.41299531E-01 0.79775460E+03</pdfrwt>
<totfact> 0.28439391E+01</totfact>
</mgrwt>
</event>
<event>
 4    1  0.3057048E-007  0.1596848E+04  0.7818608E-02  0.8844112E-01
          2   -1    0    0  501    0  0.00000000000E+00  0.00000000000E+00  0.26661228655E+04  0.26661228655E+04  0.25500000000E-02 0. -1.
         -2   -1    0    0    0  501 -0.00000000000E+00 -0.00000000000E+00 -0.17794103101E+04  0.17794103101E+04  0.25500000000E-02 0.  1.
    8880023    1    1    2    0    0  0.49635181124E+03 -0.13673872493E+04  0.20344440959E+04  0.25862880728E+04  0.65864270000E+03 0.  0.
    8880022    1    1    2    0    0 -0.49635181124E+03  0.13673872493E+04 -0.11477315404E+04  0.18592451028E+04  0.15294330000E+03 0.  0.
<mgrwt>
<rscale>  0 0.15622007E+04</rscale>
<asrwt>0</asrwt>
<pdfrwt beam="1">  1        2 0.41017275E+00 0.15968479E+04</pdfrwt>
<pdfrwt beam="2">  1       -2 0.27375543E+00 0.15968479E+04</pdfrwt>
<totfact> 0.11855564E-01</totfact>
</mgrwt>
</event>
<event>
 4    1  0.3057048E-007  0.7786325E+03  0.7818608E-02  0.9759059E-01
         -2   -1    0    0    0  501 -0.00000000000E+00  0.00000000000E+00  0.64948582659E+03  0.64948582659E+03  0.25500000000E-02 0.  1.
          2   -1    0    0  501    0  0.00000000000E+00 -0.00000000000E+00 -0.77205481818E+03  0.77205481819E+03  0.25500000000E-02 0. -1.
    8880023    1    1    2    0    0  0.41471368947E+03 -0.21701017044E+02  0.27586596683E+03  0.82605727180E+03  0.65864270000E+03 0.  1.
    8880022    1    1    2    0    0 -0.41471368947E+03  0.21701017044E+02 -0.39843495843E+03  0.59548337298E+03  0.15294330000E+03 0.  0.
<mgrwt>
<rscale>  0 0.67606718E+03</rscale>
<asrwt>0</asrwt>
<pdfrwt beam="1">  1        2 0.11877766E+00 0.77863251E+03</pdfrwt>
<pdfrwt beam="2">  1       -2 0.99920897E-01 0.77863251E+03</pdfrwt>
<totfact> 0.30221713E+01</totfact>
</mgrwt>
</event>
<event>
 4    1  0.3057048E-007  0.9259312E+03  0.7818608E-02  0.9485624E-01
         -2   -1    0    0    0  501 -0.00000000000E+00  0.00000000000E+00  0.19888239399E+03  0.19888239400E+03  0.25500000000E-02 0.  1.
          2   -1    0    0  501    0  0.00000000000E+00 -0.00000000000E+00 -0.36017407597E+04  0.36017407597E+04  0.25500000000E-02 0. -1.
    8880023    1    1    2    0    0 -0.63406193083E+03 -0.14664175134E+03 -0.13145368461E+04  0.16079041207E+04  0.65864270000E+03 0.  0.
    8880022    1    1    2    0    0  0.63406193083E+03  0.14664175134E+03 -0.20883215196E+04  0.21927190330E+04  0.15294330000E+03 0.  0.
<mgrwt>
<rscale>  0 0.85352052E+03</rscale>
<asrwt>0</asrwt>
<pdfrwt beam="1">  1        2 0.55411392E+00 0.92593118E+03</pdfrwt>
<pdfrwt beam="2">  1       -2 0.30597294E-01 0.92593118E+03</pdfrwt>
<totfact> 0.71539716E+00</totfact>
</mgrwt>
</event>
<event>
 4    1  0.3057048E-007  0.1030979E+04  0.7818608E-02  0.9342105E-01
         -2   -1    0    0    0  501 -0.00000000000E+00  0.00000000000E+00  0.13463430210E+04  0.13463430210E+04  0.25500000000E-02 0.  1.
          2   -1    0    0  501    0  0.00000000000E+00 -0.00000000000E+00 -0.12152258178E+04  0.12152258178E+04  0.25500000000E-02 0. -1.
    8880023    1    1    2    0    0  0.43032072633E+03  0.66628150019E+03  0.95674333985E+03  0.14065116386E+04  0.65864270000E+03 0.  0.
    8880022    1    1    2    0    0 -0.43032072633E+03 -0.66628150019E+03 -0.82562613668E+03  0.11550572001E+04  0.15294330000E+03 0.  0.
<mgrwt>
<rscale>  0 0.96997320E+03</rscale>
<asrwt>0</asrwt>
<pdfrwt beam="1">  1        2 0.18695782E+00 0.10309787E+04</pdfrwt>
<pdfrwt beam="2">  1       -2 0.20712969E+00 0.10309787E+04</pdfrwt>
<totfact> 0.21922263E+00</totfact>
</mgrwt>
</event>
<event>
 4    1  0.3057048E-007  0.1778329E+04  0.7818608E-02  0.8734620E-01
         -2   -1    0    0    0  501 -0.00000000000E+00  0.00000000000E+00  0.25135013509E+04  0.25135013509E+04  0.25500000000E-02 0.  1.
          2   -1    0    0  501    0  0.00000000000E+00 -0.00000000000E+00 -0.22506637152E+04  0.22506637152E+04  0.25500000000E-02 0. -1.
    8880023    1    1    2    0    0 -0.13169645838E+04  0.99711988520E+03 -0.15123782199E+04  0.23344682193E+04  0.65864270000E+03 0.  0.
    8880022    1    1    2    0    0  0.13169645838E+04 -0.99711988520E+03  0.17752158556E+04  0.24296968468E+04  0.15294330000E+03 0.  0.
<mgrwt>
<rscale>  0 0.17476958E+04</rscale>
<asrwt>0</asrwt>
<pdfrwt beam="1">  1        2 0.34625595E+00 0.17783290E+04</pdfrwt>
<pdfrwt beam="2">  1       -2 0.38669252E+00 0.17783290E+04</pdfrwt>
<totfact> 0.39710823E-02</totfact>
</mgrwt>
</event>
<event>
 4    1  0.3057048E-007  0.7511005E+03  0.7818608E-02  0.9828717E-01
          2   -1    0    0  501    0  0.00000000000E+00  0.00000000000E+00  0.17858164072E+04  0.17858164072E+04  0.25500000000E-02 0. -1.
         -2   -1    0    0    0  501 -0.00000000000E+00 -0.00000000000E+00 -0.23606368366E+03  0.23606368367E+03  0.25500000000E-02 0.  1.
    8880023    1    1    2    0    0  0.31294827181E+03  0.18001406869E+03  0.50264769827E+03  0.90377353390E+03  0.65864270000E+03 0.  1.
    8880022    1    1    2    0    0 -0.31294827181E+03 -0.18001406869E+03  0.10471050253E+04  0.11181065570E+04  0.15294330000E+03 0.  0.
<mgrwt>
<rscale>  0 0.63843917E+03</rscale>
<asrwt>0</asrwt>
<pdfrwt beam="1">  1        2 0.27474099E+00 0.75110045E+03</pdfrwt>
<pdfrwt beam="2">  1       -2 0.36317490E-01 0.75110045E+03</pdfrwt>
<totfact> 0.64244434E+01</totfact>
</mgrwt>
</event>
<event>
 4    1  0.3057048E-007  0.7418578E+03  0.7818608E-02  0.9854568E-01
         -2   -1    0    0    0  501 -0.00000000000E+00  0.00000000000E+00  0.83129131994E+03  0.83129131994E+03  0.25500000000E-02 0.  1.
          2   -1    0    0  501    0  0.00000000000E+00 -0.00000000000E+00 -0.43013671077E+03  0.43013671078E+03  0.25500000000E-02 0. -1.
    8880023    1    1    2    0    0 -0.68781519285E+02 -0.33438279978E+03  0.47395332724E+03  0.88033216279E+03  0.65864270000E+03 0.  1.
    8880022    1    1    2    0    0  0.68781519285E+02  0.33438279978E+03 -0.72798718076E+02  0.38109586793E+03  0.15294330000E+03 0. -1.
<mgrwt>
<rscale>  0 0.62514542E+03</rscale>
<asrwt>0</asrwt>
<pdfrwt beam="1">  1        2 0.66174879E-01 0.74185778E+03</pdfrwt>
<pdfrwt beam="2">  1       -2 0.12789097E+00 0.74185778E+03</pdfrwt>
<totfact> 0.33561915E+01</totfact>
</mgrwt>
</event>
<event>
 4    1  0.3057048E-007  0.6885000E+03  0.7818608E-02  0.1004874E+00
         -2   -1    0    0    0  501 -0.00000000000E+00  0.00000000000E+00  0.36514318242E+03  0.36514318243E+03  0.25500000000E-02 0.  1.
          2   -1    0    0  501    0  0.00000000000E+00 -0.00000000000E+00 -0.14198979513E+04  0.14198979513E+04  0.25500000000E-02 0. -1.
    8880023    1    1    2    0    0 -0.71894154936E+01 -0.20042558734E+03  0.12273221521E+02  0.68860942630E+03  0.65864270000E+03 0.  1.
    8880022    1    1    2    0    0  0.71894154936E+01  0.20042558734E+03 -0.10670279904E+04  0.10964317075E+04  0.15294330000E+03 0.  0.
<mgrwt>
<rscale>  0 0.53563859E+03</rscale>
<asrwt>0</asrwt>
<pdfrwt beam="1">  1        2 0.21844584E+00 0.68850004E+03</pdfrwt>
<pdfrwt beam="2">  1       -2 0.56175875E-01 0.68850004E+03</pdfrwt>
<totfact> 0.43106372E+01</totfact>
</mgrwt>
</event>
<event>
 4    1  0.3057048E-007  0.8384246E+03  0.7818608E-02  0.9633158E-01
         -2   -1    0    0    0  501 -0.00000000000E+00  0.00000000000E+00  0.40260022603E+03  0.40260022604E+03  0.25500000000E-02 0.  1.
          2   -1    0    0  501    0  0.00000000000E+00 -0.00000000000E+00 -0.14550338754E+04  0.14550338754E+04  0.25500000000E-02 0. -1.
    8880023    1    1    2    0    0  0.20366706996E+02  0.51839254016E+03 -0.22324244644E+03  0.86763645878E+03  0.65864270000E+03 0.  1.
    8880022    1    1    2    0    0 -0.20366706996E+02 -0.51839254016E+03 -0.82919120293E+03  0.98999764266E+03  0.15294330000E+03 0.  0.
<mgrwt>
<rscale>  0 0.75139910E+03</rscale>
<asrwt>0</asrwt>
<pdfrwt beam="1">  1        2 0.22385136E+00 0.83842461E+03</pdfrwt>
<pdfrwt beam="2">  1       -2 0.61938497E-01 0.83842461E+03</pdfrwt>
<totfact> 0.33005692E+01</totfact>
</mgrwt>
</event>
<event>
 4    1  0.3057048E-007  0.6606941E+03  0.7818608E-02  0.1023456E+00
          2   -1    0    0  501    0  0.00000000000E+00  0.00000000000E+00  0.36599206477E+04  0.36599206477E+04  0.25500000000E-02 0. -1.
         -2   -1    0    0    0  501 -0.00000000000E+00 -0.00000000000E+00 -0.95547733594E+02  0.95547733628E+02  0.25500000000E-02 0.  1.
    8880023    1    1    2    0    0  0.46379224193E+02  0.23569462968E+02  0.10814855816E+04  0.12673309834E+04  0.65864270000E+03 0.  1.
    8880022    1    1    2    0    0 -0.46379224193E+02 -0.23569462968E+02  0.24828873325E+04  0.24881373979E+04  0.15294330000E+03 0.  0.
<mgrwt>
<rscale>  0 0.46459729E+03</rscale>
<asrwt>0</asrwt>
<pdfrwt beam="1">  1        2 0.56306473E+00 0.66069415E+03</pdfrwt>
<pdfrwt beam="2">  1       -2 0.14699651E-01 0.66069415E+03</pdfrwt>
<totfact> 0.24949090E+01</totfact>
</mgrwt>
</event>
<event>
 4    1  0.3057048E-007  0.6943795E+03  0.7818608E-02  0.1002137E+00
         -2   -1    0    0    0  501 -0.00000000000E+00  0.00000000000E+00  0.20420027065E+03  0.20420027066E+03  0.25500000000E-02 0.  1.
          2   -1    0    0  501    0  0.00000000000E+00 -0.00000000000E+00 -0.14008510837E+04  0.14008510837E+04  0.25500000000E-02 0. -1.
    8880023    1    1    2    0    0 -0.21306358097E+03 -0.54375154064E+02 -0.49145499010E+03  0.85070027652E+03  0.65864270000E+03 0.  0.
    8880022    1    1    2    0    0  0.21306358097E+03  0.54375154064E+02 -0.70519582292E+03  0.75435107781E+03  0.15294330000E+03 0.  0.
<mgrwt>
<rscale>  0 0.54723163E+03</rscale>
<asrwt>0</asrwt>
<pdfrwt beam="1">  1        2 0.21551555E+00 0.69437955E+03</pdfrwt>
<pdfrwt beam="2">  1       -2 0.31415427E-01 0.69437955E+03</pdfrwt>
<totfact> 0.13864506E+02</totfact>
</mgrwt>
</event>
<event>
 4    1  0.3057048E-007  0.6615729E+03  0.7818608E-02  0.1022600E+00
          2   -1    0    0  501    0  0.00000000000E+00  0.00000000000E+00  0.12399143698E+04  0.12399143698E+04  0.25500000000E-02 0. -1.
         -2   -1    0    0    0  501 -0.00000000000E+00 -0.00000000000E+00 -0.13904728237E+03  0.13904728239E+03  0.25500000000E-02 0.  1.
    8880023    1    1    2    0    0 -0.24561660289E+02  0.57142245873E+02  0.82548989247E+03  0.10578810331E+04  0.65864270000E+03 0.  1.
    8880022    1    1    2    0    0  0.24561660289E+02 -0.57142245873E+02  0.27537719498E+03  0.32108061908E+03  0.15294330000E+03 0.  1.
<mgrwt>
<rscale>  0 0.46759983E+03</rscale>
<asrwt>0</asrwt>
<pdfrwt beam="1">  1        2 0.19075605E+00 0.66157291E+03</pdfrwt>
<pdfrwt beam="2">  1       -2 0.21391890E-01 0.66157291E+03</pdfrwt>
<totfact> 0.34481089E+02</totfact>
</mgrwt>
</event>
<event>
 4    1  0.3057048E-007  0.7087317E+03  0.7818608E-02  0.9962741E-01
         -2   -1    0    0    0  501 -0.00000000000E+00  0.00000000000E+00  0.22619971969E+03  0.22619971971E+03  0.25500000000E-02 0.  1.
          2   -1    0    0  501    0  0.00000000000E+00 -0.00000000000E+00 -0.16124647611E+04  0.16124647611E+04  0.25500000000E-02 0. -1.
    8880023    1    1    2    0    0 -0.19821534455E+03  0.17088333433E+03 -0.41521598664E+03  0.82140426015E+03  0.65864270000E+03 0.  0.
    8880022    1    1    2    0    0  0.19821534455E+03 -0.17088333433E+03 -0.97104905474E+03  0.10172602206E+04  0.15294330000E+03 0.  0.
<mgrwt>
<rscale>  0 0.57314599E+03</rscale>
<asrwt>0</asrwt>
<pdfrwt beam="1">  1        2 0.24807149E+00 0.70873171E+03</pdfrwt>
<pdfrwt beam="2">  1       -2 0.34799958E-01 0.70873171E+03</pdfrwt>
<totfact> 0.87095173E+01</totfact>
</mgrwt>
</event>
<event>
 4    1  0.3057048E-007  0.8754195E+03  0.7818608E-02  0.9566703E-01
          2   -1    0    0  501    0  0.00000000000E+00  0.00000000000E+00  0.17086423358E+04  0.17086423358E+04  0.25500000000E-02 0. -1.
         -2   -1    0    0    0  501 -0.00000000000E+00 -0.00000000000E+00 -0.96985580121E+03  0.96985580122E+03  0.25500000000E-02 0.  1.
    8880023    1    1    2    0    0  0.13989340337E+03  0.55944517389E+03 -0.70002995959E+03  0.11208930446E+04  0.65864270000E+03 0.  0.
    8880022    1    1    2    0    0 -0.13989340337E+03 -0.55944517389E+03  0.14388164941E+04  0.15576050924E+04  0.15294330000E+03 0.  0.
<mgrwt>
<rscale>  0 0.79539776E+03</rscale>
<asrwt>0</asrwt>
<pdfrwt beam="1">  1        2 0.26286805E+00 0.87541948E+03</pdfrwt>
<pdfrwt beam="2">  1       -2 0.14920859E+00 0.87541948E+03</pdfrwt>
<totfact> 0.29795489E+00</totfact>
</mgrwt>
</event>
<event>
 4    1  0.3057048E-007  0.6938618E+03  0.7818608E-02  0.1002369E+00
          2   -1    0    0  501    0  0.00000000000E+00  0.00000000000E+00  0.71011024434E+03  0.71011024434E+03  0.25500000000E-02 0. -1.
         -2   -1    0    0    0  501 -0.00000000000E+00 -0.00000000000E+00 -0.77502397045E+03  0.77502397046E+03  0.25500000000E-02 0.  1.
    8880023    1    1    2    0    0 -0.56651029605E+02  0.21077168428E+03 -0.58054837860E+03  0.90469921422E+03  0.65864270000E+03 0.  1.
    8880022    1    1    2    0    0  0.56651029605E+02 -0.21077168428E+03  0.51563465248E+03  0.58043500058E+03  0.15294330000E+03 0.  0.
<mgrwt>
<rscale>  0 0.54623772E+03</rscale>
<asrwt>0</asrwt>
<pdfrwt beam="1">  1        2 0.10924773E+00 0.69386184E+03</pdfrwt>
<pdfrwt beam="2">  1       -2 0.11923446E+00 0.69386184E+03</pdfrwt>
<totfact> 0.22124393E+01</totfact>
</mgrwt>
</event>
<event>
 4    1  0.3057048E-007  0.6931946E+03  0.7818608E-02  0.1002670E+00
          2   -1    0    0  501    0  0.00000000000E+00  0.00000000000E+00  0.18405465887E+04  0.18405465887E+04  0.25500000000E-02 0. -1.
         -2   -1    0    0    0  501 -0.00000000000E+00 -0.00000000000E+00 -0.27332603159E+03  0.27332603160E+03  0.25500000000E-02 0.  1.
    8880023    1    1    2    0    0 -0.19044768839E+03  0.10216734064E+03  0.20030924369E+03  0.72155560207E+03  0.65864270000E+03 0.  1.
    8880022    1    1    2    0    0  0.19044768839E+03 -0.10216734064E+03  0.13669113134E+04  0.13923170182E+04  0.15294330000E+03 0.  0.
<mgrwt>
<rscale>  0 0.54494945E+03</rscale>
<asrwt>0</asrwt>
<pdfrwt beam="1">  1        2 0.28316101E+00 0.69319456E+03</pdfrwt>
<pdfrwt beam="2">  1       -2 0.42050159E-01 0.69319456E+03</pdfrwt>
<totfact> 0.45439514E+01</totfact>
</mgrwt>
</event>
<event>
 4    1  0.3057048E-007  0.7093298E+03  0.7818608E-02  0.9960498E-01
          2   -1    0    0  501    0  0.00000000000E+00  0.00000000000E+00  0.18672031143E+04  0.18672031143E+04  0.25500000000E-02 0. -1.
         -2   -1    0    0    0  501 -0.00000000000E+00 -0.00000000000E+00 -0.15046073047E+03  0.15046073050E+03  0.25500000000E-02 0.  1.
    8880023    1    1    2    0    0 -0.20514694759E+03  0.16508589374E+03  0.89952127297E+03  0.11455511116E+04  0.65864270000E+03 0.  0.
    8880022    1    1    2    0    0  0.20514694759E+03 -0.16508589374E+03  0.81722111083E+03  0.87211273320E+03  0.15294330000E+03 0.  0.
<mgrwt>
<rscale>  0 0.57416785E+03</rscale>
<asrwt>0</asrwt>
<pdfrwt beam="1">  1        2 0.28726202E+00 0.70932984E+03</pdfrwt>
<pdfrwt beam="2">  1       -2 0.23147804E-01 0.70932984E+03</pdfrwt>
<totfact> 0.13384940E+02</totfact>
</mgrwt>
</event>
<event>
 4    1  0.3057048E-007  0.1195264E+04  0.7818608E-02  0.9161739E-01
          2   -1    0    0  501    0  0.00000000000E+00  0.00000000000E+00  0.36911410150E+04  0.36911410150E+04  0.25500000000E-02 0. -1.
         -2   -1    0    0    0  501 -0.00000000000E+00 -0.00000000000E+00 -0.33161439333E+03  0.33161439334E+03  0.25500000000E-02 0.  1.
    8880023    1    1    2    0    0 -0.30005553408E+03 -0.95121686430E+03  0.16463004365E+04  0.20344439486E+04  0.65864270000E+03 0.  0.
    8880022    1    1    2    0    0  0.30005553408E+03  0.95121686430E+03  0.17132261851E+04  0.19883114597E+04  0.15294330000E+03 0.  0.
<mgrwt>
<rscale>  0 0.11457218E+04</rscale>
<asrwt>0</asrwt>
<pdfrwt beam="1">  1        2 0.56786785E+00 0.11952644E+04</pdfrwt>
<pdfrwt beam="2">  1       -2 0.51017599E-01 0.11952644E+04</pdfrwt>
<totfact> 0.21799432E+00</totfact>
</mgrwt>
</event>
<event>
 4    1  0.3057048E-007  0.6829110E+03  0.7818608E-02  0.1007723E+00
         -2   -1    0    0    0  501 -0.00000000000E+00  0.00000000000E+00  0.10897254758E+04  0.10897254758E+04  0.25500000000E-02 0.  1.
          2   -1    0    0  501    0  0.00000000000E+00 -0.00000000000E+00 -0.33649808584E+03  0.33649808585E+03  0.25500000000E-02 0. -1.
    8880023    1    1    2    0    0  0.16479553444E+03  0.73482679422E+02  0.91346696565E+03  0.11405215368E+04  0.65864270000E+03 0.  1.
    8880022    1    1    2    0    0 -0.16479553444E+03 -0.73482679422E+02 -0.16023957572E+03  0.28570202482E+03  0.15294330000E+03 0.  0.
<mgrwt>
<rscale>  0 0.52389839E+03</rscale>
<asrwt>0</asrwt>
<pdfrwt beam="1">  1        2 0.51768936E-01 0.68291103E+03</pdfrwt>
<pdfrwt beam="2">  1       -2 0.16765007E+00 0.68291103E+03</pdfrwt>
<totfact> 0.21811551E+01</totfact>
</mgrwt>
</event>
<event>
 4    1  0.3057048E-007  0.6843724E+03  0.7818608E-02  0.1006951E+00
         -2   -1    0    0    0  501 -0.00000000000E+00  0.00000000000E+00  0.11343621941E+03  0.11343621944E+03  0.25500000000E-02 0.  1.
          2   -1    0    0  501    0  0.00000000000E+00 -0.00000000000E+00 -0.20345381003E+04  0.20345381003E+04  0.25500000000E-02 0. -1.
    8880023    1    1    2    0    0 -0.43698209700E+02 -0.18068150135E+03 -0.11302579404E+04  0.13213056258E+04  0.65864270000E+03 0.  1.
    8880022    1    1    2    0    0  0.43698209700E+02  0.18068150135E+03 -0.79084394040E+03  0.82666869394E+03  0.15294330000E+03 0. -1.
<mgrwt>
<rscale>  0 0.52704563E+03</rscale>
<asrwt>0</asrwt>
<pdfrwt beam="1">  1        2 0.31300584E+00 0.68437237E+03</pdfrwt>
<pdfrwt beam="2">  1       -2 0.17451728E-01 0.68437237E+03</pdfrwt>
<totfact> 0.17835863E+02</totfact>
</mgrwt>
</event>
<event>
 4    1  0.3057048E-007  0.7783864E+03  0.7818608E-02  0.9759641E-01
          2   -1    0    0  501    0  0.00000000000E+00  0.00000000000E+00  0.23598534007E+04  0.23598534007E+04  0.25500000000E-02 0. -1.
         -2   -1    0    0    0  501 -0.00000000000E+00 -0.00000000000E+00 -0.20142487935E+03  0.20142487937E+03  0.25500000000E-02 0.  1.
    8880023    1    1    2    0    0  0.17528699522E+03 -0.37596494155E+03  0.73423939606E+03  0.10700433940E+04  0.65864270000E+03 0.  1.
    8880022    1    1    2    0    0 -0.17528699522E+03  0.37596494155E+03  0.14241891253E+04  0.14912348861E+04  0.15294330000E+03 0.  0.
<mgrwt>
<rscale>  0 0.67574145E+03</rscale>
<asrwt>0</asrwt>
<pdfrwt beam="1">  1        2 0.36305438E+00 0.77838639E+03</pdfrwt>
<pdfrwt beam="2">  1       -2 0.30988442E-01 0.77838639E+03</pdfrwt>
<totfact> 0.41833948E+01</totfact>
</mgrwt>
</event>
<event>
 4    1  0.3057048E-007  0.6697772E+03  0.7818608E-02  0.1015823E+00
         -2   -1    0    0    0  501 -0.00000000000E+00  0.00000000000E+00  0.28915430972E+03  0.28915430973E+03  0.25500000000E-02 0.  1.
          2   -1    0    0  501    0  0.00000000000E+00 -0.00000000000E+00 -0.19264116809E+04  0.19264116809E+04  0.25500000000E-02 0. -1.
    8880023    1    1    2    0    0 -0.11189267378E+03 -0.47658450868E+02 -0.11349448897E+03  0.67932503537E+03  0.65864270000E+03 0.  1.
    8880022    1    1    2    0    0  0.11189267378E+03  0.47658450868E+02 -0.15237628822E+04  0.15362409552E+04  0.15294330000E+03 0.  0.
<mgrwt>
<rscale>  0 0.49224517E+03</rscale>
<asrwt>0</asrwt>
<pdfrwt beam="1">  1        2 0.29637102E+00 0.66977721E+03</pdfrwt>
<pdfrwt beam="2">  1       -2 0.44485280E-01 0.66977721E+03</pdfrwt>
<totfact> 0.36630455E+01</totfact>
</mgrwt>
</event>
<event>
 4    1  0.3057048E-007  0.7477841E+03  0.7818608E-02  0.9837826E-01
          2   -1    0    0  501    0  0.00000000000E+00  0.00000000000E+00  0.49776723561E+03  0.49776723562E+03  0.25500000000E-02 0. -1.
         -2   -1    0    0    0  501 -0.00000000000E+00 -0.00000000000E+00 -0.20270893897E+04  0.20270893897E+04  0.25500000000E-02 0.  1.
    8880023    1    1    2    0    0 -0.14015344285E+02  0.35379990350E+03 -0.18676558628E+04  0.20117950764E+04  0.65864270000E+03 0.  1.
    8880022    1    1    2    0    0  0.14015344285E+02 -0.35379990350E+03  0.33833370862E+03  0.51306154894E+03  0.15294330000E+03 0.  0.
<mgrwt>
<rscale>  0 0.63371476E+03</rscale>
<asrwt>0</asrwt>
<pdfrwt beam="1">  1        2 0.76579576E-01 0.74778406E+03</pdfrwt>
<pdfrwt beam="2">  1       -2 0.31185990E+00 0.74778406E+03</pdfrwt>
<totfact> 0.17385040E+00</totfact>
</mgrwt>
</event>
<event>
 4    1  0.3057048E-007  0.8521572E+03  0.7818608E-02  0.9607669E-01
          2   -1    0    0  501    0  0.00000000000E+00  0.00000000000E+00  0.10960517330E+04  0.10960517330E+04  0.25500000000E-02 0. -1.
         -2   -1    0    0    0  501 -0.00000000000E+00 -0.00000000000E+00 -0.10758108160E+04  0.10758108160E+04  0.25500000000E-02 0.  1.
    8880023    1    1    2    0    0  0.60331076157E+02  0.53732843272E+03 -0.80580236703E+03  0.11728125785E+04  0.65864270000E+03 0.  1.
    8880022    1    1    2    0    0 -0.60331076157E+02 -0.53732843272E+03  0.82604328404E+03  0.99904997046E+03  0.15294330000E+03 0.  0.
<mgrwt>
<rscale>  0 0.76790639E+03</rscale>
<asrwt>0</asrwt>
<pdfrwt beam="1">  1        2 0.16862334E+00 0.85215720E+03</pdfrwt>
<pdfrwt beam="2">  1       -2 0.16550936E+00 0.85215720E+03</pdfrwt>
<totfact> 0.50676504E+00</totfact>
</mgrwt>
</event>
<event>
 4    1  0.3057048E-007  0.8917336E+03  0.7818608E-02  0.9539434E-01
         -2   -1    0    0    0  501 -0.00000000000E+00  0.00000000000E+00  0.13129512410E+04  0.13129512410E+04  0.25500000000E-02 0.  1.
          2   -1    0    0  501    0  0.00000000000E+00 -0.00000000000E+00 -0.12640240155E+04  0.12640240155E+04  0.25500000000E-02 0. -1.
    8880023    1    1    2    0    0  0.14094181101E+03  0.58439203495E+03  0.10634508164E+04  0.13878459892E+04  0.65864270000E+03 0.  1.
    8880022    1    1    2    0    0 -0.14094181101E+03 -0.58439203495E+03 -0.10145235909E+04  0.11891292672E+04  0.15294330000E+03 0.  0.
<mgrwt>
<rscale>  0 0.81437897E+03</rscale>
<asrwt>0</asrwt>
<pdfrwt beam="1">  1        2 0.19446523E+00 0.89173362E+03</pdfrwt>
<pdfrwt beam="2">  1       -2 0.20199250E+00 0.89173362E+03</pdfrwt>
<totfact> 0.22545090E+00</totfact>
</mgrwt>
</event>
<event>
 4    1  0.3057048E-007  0.7928571E+03  0.7818608E-02  0.9726459E-01
         -2   -1    0    0    0  501 -0.00000000000E+00  0.00000000000E+00  0.28916477149E+03  0.28916477150E+03  0.25500000000E-02 0.  1.
          2   -1    0    0  501    0  0.00000000000E+00 -0.00000000000E+00 -0.19545685302E+04  0.19545685302E+04  0.25500000000E-02 0. -1.
    8880023    1    1    2    0    0 -0.51192181699E+02  0.43839655882E+03 -0.38621105091E+03  0.88191913709E+03  0.65864270000E+03 0.  1.
    8880022    1    1    2    0    0  0.51192181699E+02 -0.43839655882E+03 -0.12791927078E+04  0.13618141646E+04  0.15294330000E+03 0.  0.
<mgrwt>
<rscale>  0 0.69463072E+03</rscale>
<asrwt>0</asrwt>
<pdfrwt beam="1">  1        2 0.30070284E+00 0.79285710E+03</pdfrwt>
<pdfrwt beam="2">  1       -2 0.44486889E-01 0.79285710E+03</pdfrwt>
<totfact> 0.34801371E+01</totfact>
</mgrwt>
</event>
<event>
 4    1  0.3057048E-007  0.9007820E+03  0.7818608E-02  0.9524777E-01
         -2   -1    0    0    0  501 -0.00000000000E+00  0.00000000000E+00  0.65343831673E+03  0.65343831673E+03  0.25500000000E-02 0.  1.
          2   -1    0    0  501    0  0.00000000000E+00 -0.00000000000E+00 -0.20982808517E+04  0.20982808517E+04  0.25500000000E-02 0. -1.
    8880023    1    1    2    0    0 -0.61204695694E+03 -0.54740323357E+02  0.25630406541E+03  0.93653615025E+03  0.65864270000E+03 0.  1.
    8880022    1    1    2    0    0  0.61204695694E+03  0.54740323357E+02 -0.17011466004E+04  0.18151830182E+04  0.15294330000E+03 0.  0.
<mgrwt>
<rscale>  0 0.82481474E+03</rscale>
<asrwt>0</asrwt>
<pdfrwt beam="1">  1        2 0.32281243E+00 0.90078199E+03</pdfrwt>
<pdfrwt beam="2">  1       -2 0.10052897E+00 0.90078199E+03</pdfrwt>
<totfact> 0.48754156E+00</totfact>
</mgrwt>
</event>
<event>
 4    1  0.3057048E-007  0.7086120E+03  0.7818608E-02  0.9963192E-01
         -2   -1    0    0    0  501 -0.00000000000E+00  0.00000000000E+00  0.13310102258E+04  0.13310102258E+04  0.25500000000E-02 0.  1.
          2   -1    0    0  501    0  0.00000000000E+00 -0.00000000000E+00 -0.90392480127E+03  0.90392480128E+03  0.25500000000E-02 0. -1.
    8880023    1    1    2    0    0 -0.24673578196E+03 -0.86268629155E+02  0.12062486423E+04  0.13989877826E+04  0.65864270000E+03 0.  1.
    8880022    1    1    2    0    0  0.24673578196E+03  0.86268629155E+02 -0.77916321783E+03  0.83594724445E+03  0.15294330000E+03 0.  0.
<mgrwt>
<rscale>  0 0.57294106E+03</rscale>
<asrwt>0</asrwt>
<pdfrwt beam="1">  1        2 0.13906535E+00 0.70861204E+03</pdfrwt>
<pdfrwt beam="2">  1       -2 0.20477080E+00 0.70861204E+03</pdfrwt>
<totfact> 0.37158463E+00</totfact>
</mgrwt>
</event>
<event>
 4    1  0.3057048E-007  0.8885981E+03  0.7818608E-02  0.9544589E-01
          2   -1    0    0  501    0  0.00000000000E+00  0.00000000000E+00  0.18306546711E+04  0.18306546711E+04  0.25500000000E-02 0. -1.
         -2   -1    0    0    0  501 -0.00000000000E+00 -0.00000000000E+00 -0.53489073592E+03  0.53489073592E+03  0.25500000000E-02 0.  1.
    8880023    1    1    2    0    0  0.21075487038E+03  0.55801317444E+03 -0.45414993302E+02  0.88975785814E+03  0.65864270000E+03 0.  0.
    8880022    1    1    2    0    0 -0.21075487038E+03 -0.55801317444E+03  0.13411789285E+04  0.14757875489E+04  0.15294330000E+03 0.  0.
<mgrwt>
<rscale>  0 0.81074792E+03</rscale>
<asrwt>0</asrwt>
<pdfrwt beam="1">  1        2 0.28163918E+00 0.88859807E+03</pdfrwt>
<pdfrwt beam="2">  1       -2 0.82290884E-01 0.88859807E+03</pdfrwt>
<totfact> 0.10896618E+01</totfact>
</mgrwt>
</event>
<event>
 4    1  0.3057048E-007  0.6644157E+03  0.7818608E-02  0.1020029E+00
          2   -1    0    0  501    0  0.00000000000E+00  0.00000000000E+00  0.15914566804E+03  0.15914566806E+03  0.25500000000E-02 0. -1.
         -2   -1    0    0    0  501 -0.00000000000E+00 -0.00000000000E+00 -0.15324130096E+04  0.15324130096E+04  0.25500000000E-02 0.  1.
    8880023    1    1    2    0    0  0.29007894955E+02  0.82441307551E+02 -0.13615538734E+04  0.15150172222E+04  0.65864270000E+03 0.  1.
    8880022    1    1    2    0    0 -0.29007894955E+02 -0.82441307551E+02 -0.11713468227E+02  0.17654145551E+03  0.15294330000E+03 0.  0.
<mgrwt>
<rscale>  0 0.47676249E+03</rscale>
<asrwt>0</asrwt>
<pdfrwt beam="1">  1        2 0.24483950E-01 0.66441571E+03</pdfrwt>
<pdfrwt beam="2">  1       -2 0.23575584E+00 0.66441571E+03</pdfrwt>
<totfact> 0.18217705E+01</totfact>
</mgrwt>
</event>
<event>
 4    1  0.3057048E-007  0.9221042E+03  0.7818608E-02  0.9491440E-01
         -2   -1    0    0    0  501 -0.00000000000E+00  0.00000000000E+00  0.48513623693E+03  0.48513623694E+03  0.25500000000E-02 0.  1.
          2   -1    0    0  501    0  0.00000000000E+00 -0.00000000000E+00 -0.21129224474E+04  0.21129224474E+04  0.25500000000E-02 0. -1.
    8880023    1    1    2    0    0 -0.51683630139E+03 -0.38645330234E+03 -0.93827631683E+02  0.92686555015E+03  0.65864270000E+03 0.  0.
    8880022    1    1    2    0    0  0.51683630139E+03  0.38645330234E+03 -0.15339585788E+04  0.16711931342E+04  0.15294330000E+03 0.  0.
<mgrwt>
<rscale>  0 0.84917853E+03</rscale>
<asrwt>0</asrwt>
<pdfrwt beam="1">  1        2 0.32506499E+00 0.92210418E+03</pdfrwt>
<pdfrwt beam="2">  1       -2 0.74636345E-01 0.92210418E+03</pdfrwt>
<totfact> 0.94547994E+00</totfact>
</mgrwt>
</event>
<event>
 4    1  0.3057048E-007  0.1048454E+04  0.7818608E-02  0.9320742E-01
         -2   -1    0    0    0  501 -0.00000000000E+00  0.00000000000E+00  0.31177719589E+04  0.31177719589E+04  0.25500000000E-02 0.  1.
          2   -1    0    0  501    0  0.00000000000E+00 -0.00000000000E+00 -0.53162167190E+03  0.53162167191E+03  0.25500000000E-02 0. -1.
    8880023    1    1    2    0    0  0.52829680455E+03  0.62156904197E+03  0.26166356523E+04  0.28188717478E+04  0.65864270000E+03 0.  1.
    8880022    1    1    2    0    0 -0.52829680455E+03 -0.62156904197E+03 -0.30485365264E+02  0.83052188300E+03  0.15294330000E+03 0.  0.
<mgrwt>
<rscale>  0 0.98895519E+03</rscale>
<asrwt>0</asrwt>
<pdfrwt beam="1">  1        2 0.81787950E-01 0.10484540E+04</pdfrwt>
<pdfrwt beam="2">  1       -2 0.47965722E+00 0.10484540E+04</pdfrwt>
<totfact> 0.12840288E-01</totfact>
</mgrwt>
</event>
<event>
 4    1  0.3057048E-007  0.9873265E+03  0.7818608E-02  0.9398330E-01
         -2   -1    0    0    0  501 -0.00000000000E+00  0.00000000000E+00  0.48163463155E+03  0.48163463156E+03  0.25500000000E-02 0.  1.
          2   -1    0    0  501    0  0.00000000000E+00 -0.00000000000E+00 -0.20479135095E+04  0.20479135095E+04  0.25500000000E-02 0. -1.
    8880023    1    1    2    0    0  0.72513477575E+03 -0.12321909296E+03 -0.25729886043E+03  0.10203020620E+04  0.65864270000E+03 0.  0.
    8880022    1    1    2    0    0 -0.72513477575E+03  0.12321909296E+03 -0.13089800175E+04  0.15092460790E+04  0.15294330000E+03 0.  0.
<mgrwt>
<rscale>  0 0.92213284E+03</rscale>
<asrwt>0</asrwt>
<pdfrwt beam="1">  1        2 0.31506361E+00 0.98732649E+03</pdfrwt>
<pdfrwt beam="2">  1       -2 0.74097636E-01 0.98732649E+03</pdfrwt>
<totfact> 0.10354221E+01</totfact>
</mgrwt>
</event>
<event>
 4    1  0.3057048E-007  0.7686767E+03  0.7818608E-02  0.9783141E-01
          2   -1    0    0  501    0  0.00000000000E+00  0.00000000000E+00  0.92928898080E+03  0.92928898081E+03  0.25500000000E-02 0. -1.
         -2   -1    0    0    0  501 -0.00000000000E+00 -0.00000000000E+00 -0.45196562061E+03  0.45196562062E+03  0.25500000000E-02 0.  1.
    8880023    1    1    2    0    0  0.30146129360E+03  0.25724467532E+03  0.37204499043E+02  0.76957658198E+03  0.65864270000E+03 0.  1.
    8880022    1    1    2    0    0 -0.30146129360E+03 -0.25724467532E+03  0.44011886115E+03  0.61167801945E+03  0.15294330000E+03 0.  0.
<mgrwt>
<rscale>  0 0.66275198E+03</rscale>
<asrwt>0</asrwt>
<pdfrwt beam="1">  1        2 0.14296753E+00 0.76867675E+03</pdfrwt>
<pdfrwt beam="2">  1       -2 0.69533174E-01 0.76867675E+03</pdfrwt>
<totfact> 0.53551469E+01</totfact>
</mgrwt>
</event>
<event>
 4    1  0.3057048E-007  0.7277122E+03  0.7818608E-02  0.9897305E-01
          2   -1    0    0  501    0  0.00000000000E+00  0.00000000000E+00  0.17329210160E+04  0.17329210160E+04  0.25500000000E-02 0. -1.
         -2   -1    0    0    0  501 -0.00000000000E+00 -0.00000000000E+00 -0.45537585933E+03  0.45537585934E+03  0.25500000000E-02 0.  1.
    8880023    1    1    2    0    0 -0.34493363128E+02  0.30751439628E+03 -0.12983660728E+03  0.73920406308E+03  0.65864270000E+03 0.  1.
    8880022    1    1    2    0    0  0.34493363128E+02 -0.30751439628E+03  0.14073817640E+04  0.14490928123E+04  0.15294330000E+03 0.  0.
<mgrwt>
<rscale>  0 0.60392074E+03</rscale>
<asrwt>0</asrwt>
<pdfrwt beam="1">  1        2 0.26660323E+00 0.72771224E+03</pdfrwt>
<pdfrwt beam="2">  1       -2 0.70057825E-01 0.72771224E+03</pdfrwt>
<totfact> 0.17998122E+01</totfact>
</mgrwt>
</event>
<event>
 4    1  0.3057048E-007  0.1198638E+04  0.7818608E-02  0.9158447E-01
         -2   -1    0    0    0  501 -0.00000000000E+00  0.00000000000E+00  0.72447967311E+03  0.72447967312E+03  0.25500000000E-02 0.  1.
          2   -1    0    0  501    0  0.00000000000E+00 -0.00000000000E+00 -0.20732021056E+04  0.20732021056E+04  0.25500000000E-02 0. -1.
    8880023    1    1    2    0    0 -0.82142304743E+03 -0.57287607293E+03 -0.13216697405E+04  0.17842488411E+04  0.65864270000E+03 0. -1.
    8880022    1    1    2    0    0  0.82142304743E+03  0.57287607293E+03 -0.27052691947E+02  0.10134329376E+04  0.15294330000E+03 0.  0.
<mgrwt>
<rscale>  0 0.11492806E+04</rscale>
<asrwt>0</asrwt>
<pdfrwt beam="1">  1        2 0.31895417E+00 0.11986380E+04</pdfrwt>
<pdfrwt beam="2">  1       -2 0.11145841E+00 0.11986380E+04</pdfrwt>
<totfact> 0.37851436E+00</totfact>
</mgrwt>
</event>
<event>
 4    1  0.3057048E-007  0.8171720E+03  0.7818608E-02  0.9674827E-01
          2   -1    0    0  501    0  0.00000000000E+00  0.00000000000E+00  0.76358375289E+03  0.76358375290E+03  0.25500000000E-02 0. -1.
         -2   -1    0    0    0  501 -0.00000000000E+00 -0.00000000000E+00 -0.62687513759E+03  0.62687513759E+03  0.25500000000E-02 0.  1.
    8880023    1    1    2    0    0 -0.34009047511E+03 -0.34394519962E+03 -0.11314788415E+03  0.82496817002E+03  0.65864270000E+03 0.  1.
    8880022    1    1    2    0    0  0.34009047511E+03  0.34394519962E+03  0.24985649946E+03  0.56549072047E+03  0.15294330000E+03 0.  0.
<mgrwt>
<rscale>  0 0.72535554E+03</rscale>
<asrwt>0</asrwt>
<pdfrwt beam="1">  1        2 0.11747442E+00 0.81717198E+03</pdfrwt>
<pdfrwt beam="2">  1       -2 0.96442329E-01 0.81717198E+03</pdfrwt>
<totfact> 0.33227626E+01</totfact>
</mgrwt>
</event>
<event>
 4    1  0.3057048E-007  0.7308479E+03  0.7818608E-02  0.9887456E-01
          2   -1    0    0  501    0  0.00000000000E+00  0.00000000000E+00  0.10043888482E+04  0.10043888482E+04  0.25500000000E-02 0. -1.
         -2   -1    0    0    0  501 -0.00000000000E+00 -0.00000000000E+00 -0.30276437789E+03  0.30276437790E+03  0.25500000000E-02 0.  1.
    8880023    1    1    2    0    0  0.31673289456E+03  0.29572496657E+01  0.35194832306E+03  0.81117587501E+03  0.65864270000E+03 0.  0.
    8880022    1    1    2    0    0 -0.31673289456E+03 -0.29572496657E+01  0.34967614720E+03  0.49597735106E+03  0.15294330000E+03 0.  1.
<mgrwt>
<rscale>  0 0.60873084E+03</rscale>
<asrwt>0</asrwt>
<pdfrwt beam="1">  1        2 0.15452136E+00 0.73084792E+03</pdfrwt>
<pdfrwt beam="2">  1       -2 0.46579135E-01 0.73084792E+03</pdfrwt>
<totfact> 0.11094144E+02</totfact>
</mgrwt>
</event>
<event>
 4    1  0.3057048E-007  0.9565911E+03  0.7818608E-02  0.9440694E-01
         -2   -1    0    0    0  501 -0.00000000000E+00  0.00000000000E+00  0.39240128204E+03  0.39240128205E+03  0.25500000000E-02 0.  1.
          2   -1    0    0  501    0  0.00000000000E+00 -0.00000000000E+00 -0.19200870158E+04  0.19200870158E+04  0.25500000000E-02 0. -1.
    8880023    1    1    2    0    0 -0.59599199482E+03  0.35503513738E+03 -0.54827997578E+03  0.11025776820E+04  0.65864270000E+03 0.  1.
    8880022    1    1    2    0    0  0.59599199482E+03 -0.35503513738E+03 -0.97940575803E+03  0.12099106159E+04  0.15294330000E+03 0.  0.
<mgrwt>
<rscale>  0 0.88801099E+03</rscale>
<asrwt>0</asrwt>
<pdfrwt beam="1">  1        2 0.29539800E+00 0.95659114E+03</pdfrwt>
<pdfrwt beam="2">  1       -2 0.60369429E-01 0.95659114E+03</pdfrwt>
<totfact> 0.19054909E+01</totfact>
</mgrwt>
</event>
<event>
 4    1  0.3057048E-007  0.7021265E+03  0.7818608E-02  0.9988491E-01
         -2   -1    0    0    0  501 -0.00000000000E+00  0.00000000000E+00  0.12690179697E+03  0.12690179699E+03  0.25500000000E-02 0.  1.
          2   -1    0    0  501    0  0.00000000000E+00 -0.00000000000E+00 -0.21076075787E+04  0.21076075787E+04  0.25500000000E-02 0. -1.
    8880023    1    1    2    0    0  0.23397032876E+03  0.66553298488E+02 -0.10721143399E+04  0.12815657690E+04  0.65864270000E+03 0. -1.
    8880022    1    1    2    0    0 -0.23397032876E+03 -0.66553298488E+02 -0.90859144191E+03  0.95294360673E+03  0.15294330000E+03 0.  0.
<mgrwt>
<rscale>  0 0.56157762E+03</rscale>
<asrwt>0</asrwt>
<pdfrwt beam="1">  1        2 0.32424729E+00 0.70212653E+03</pdfrwt>
<pdfrwt beam="2">  1       -2 0.19523355E-01 0.70212653E+03</pdfrwt>
<totfact> 0.13375585E+02</totfact>
</mgrwt>
</event>
<event>
 4    1  0.3057048E-007  0.9216620E+03  0.7818608E-02  0.9492115E-01
          2   -1    0    0  501    0  0.00000000000E+00  0.00000000000E+00  0.10335500797E+04  0.10335500797E+04  0.25500000000E-02 0. -1.
         -2   -1    0    0    0  501 -0.00000000000E+00 -0.00000000000E+00 -0.76438298469E+03  0.76438298469E+03  0.25500000000E-02 0.  1.
    8880023    1    1    2    0    0  0.50688874570E+03  0.39838972686E+03 -0.25136034346E+03  0.95532340258E+03  0.65864270000E+03 0.  0.
    8880022    1    1    2    0    0 -0.50688874570E+03 -0.39838972686E+03  0.52052743851E+03  0.84260966185E+03  0.15294330000E+03 0.  0.
<mgrwt>
<rscale>  0 0.84867623E+03</rscale>
<asrwt>0</asrwt>
<pdfrwt beam="1">  1        2 0.15900770E+00 0.92166197E+03</pdfrwt>
<pdfrwt beam="2">  1       -2 0.11759738E+00 0.92166197E+03</pdfrwt>
<totfact> 0.13379398E+01</totfact>
</mgrwt>
</event>
<event>
 4    1  0.3057048E-007  0.7028407E+03  0.7818608E-02  0.9985615E-01
          2   -1    0    0  501    0  0.00000000000E+00  0.00000000000E+00  0.13996445849E+04  0.13996445849E+04  0.25500000000E-02 0. -1.
         -2   -1    0    0    0  501 -0.00000000000E+00 -0.00000000000E+00 -0.26952390673E+03  0.26952390674E+03  0.25500000000E-02 0.  1.
    8880023    1    1    2    0    0  0.23724248520E+03 -0.62377175144E+02  0.25521664031E+03  0.74774370510E+03  0.65864270000E+03 0.  1.
    8880022    1    1    2    0    0 -0.23724248520E+03  0.62377175144E+02  0.87490403784E+03  0.92142478651E+03  0.15294330000E+03 0.  0.
<mgrwt>
<rscale>  0 0.56285531E+03</rscale>
<asrwt>0</asrwt>
<pdfrwt beam="1">  1        2 0.21532993E+00 0.70284075E+03</pdfrwt>
<pdfrwt beam="2">  1       -2 0.41465217E-01 0.70284075E+03</pdfrwt>
<totfact> 0.81588801E+01</totfact>
</mgrwt>
</event>
<event>
 4    1  0.3057048E-007  0.8148959E+03  0.7818608E-02  0.9679468E-01
          2   -1    0    0  501    0  0.00000000000E+00  0.00000000000E+00  0.16196074106E+04  0.16196074106E+04  0.25500000000E-02 0. -1.
         -2   -1    0    0    0  501 -0.00000000000E+00 -0.00000000000E+00 -0.40387320000E+03  0.40387320000E+03  0.25500000000E-02 0.  1.
    8880023    1    1    2    0    0  0.41749271117E+03  0.23652691281E+03  0.12809816229E+03  0.82490271536E+03  0.65864270000E+03 0.  1.
    8880022    1    1    2    0    0 -0.41749271117E+03 -0.23652691281E+03  0.10876360483E+04  0.11985778953E+04  0.15294330000E+03 0.  0.
<mgrwt>
<rscale>  0 0.72252543E+03</rscale>
<asrwt>0</asrwt>
<pdfrwt beam="1">  1        2 0.24917037E+00 0.81489591E+03</pdfrwt>
<pdfrwt beam="2">  1       -2 0.62134338E-01 0.81489591E+03</pdfrwt>
<totfact> 0.26615831E+01</totfact>
</mgrwt>
</event>
<event>
 4    1  0.3057048E-007  0.1457591E+04  0.7818608E-02  0.8940178E-01
          2   -1    0    0  501    0  0.00000000000E+00  0.00000000000E+00  0.21569103888E+04  0.21569103888E+04  0.25500000000E-02 0. -1.
         -2   -1    0    0    0  501 -0.00000000000E+00 -0.00000000000E+00 -0.13141572025E+04  0.13141572025E+04  0.25500000000E-02 0.  1.
    8880023    1    1    2    0    0 -0.53308583288E+03  0.11859934440E+04 -0.55151551296E+03  0.15584416966E+04  0.65864270000E+03 0.  0.
    8880022    1    1    2    0    0  0.53308583288E+03 -0.11859934440E+04  0.13942686992E+04  0.19126258947E+04  0.15294330000E+03 0.  0.
<mgrwt>
<rscale>  0 0.14190017E+04</rscale>
<asrwt>0</asrwt>
<pdfrwt beam="1">  1        2 0.33183237E+00 0.14575909E+04</pdfrwt>
<pdfrwt beam="2">  1       -2 0.20217803E+00 0.14575909E+04</pdfrwt>
<totfact> 0.66281938E-01</totfact>
</mgrwt>
</event>
<event>
 4    1  0.3057048E-007  0.7443422E+03  0.7818608E-02  0.9847474E-01
         -2   -1    0    0    0  501 -0.00000000000E+00  0.00000000000E+00  0.33077402183E+03  0.33077402184E+03  0.25500000000E-02 0.  1.
          2   -1    0    0  501    0  0.00000000000E+00 -0.00000000000E+00 -0.95393761310E+03  0.95393761311E+03  0.25500000000E-02 0. -1.
    8880023    1    1    2    0    0  0.31376840698E+03 -0.14759571002E+03 -0.42219656754E+03  0.85574251662E+03  0.65864270000E+03 0.  0.
    8880022    1    1    2    0    0 -0.31376840698E+03  0.14759571002E+03 -0.20096702374E+03  0.42896911833E+03  0.15294330000E+03 0.  1.
<mgrwt>
<rscale>  0 0.62875855E+03</rscale>
<asrwt>0</asrwt>
<pdfrwt beam="1">  1        2 0.14675963E+00 0.74434220E+03</pdfrwt>
<pdfrwt beam="2">  1       -2 0.50888312E-01 0.74434220E+03</pdfrwt>
<totfact> 0.99858735E+01</totfact>
</mgrwt>
</event>
<event>
 4    1  0.3057048E-007  0.7883203E+03  0.7818608E-02  0.9736643E-01
         -2   -1    0    0    0  501 -0.00000000000E+00  0.00000000000E+00  0.36266264291E+03  0.36266264292E+03  0.25500000000E-02 0.  1.
          2   -1    0    0  501    0  0.00000000000E+00 -0.00000000000E+00 -0.15951535057E+04  0.15951535057E+04  0.25500000000E-02 0. -1.
    8880023    1    1    2    0    0  0.42973284322E+03 -0.54482298562E+02 -0.17880377260E+03  0.80834375902E+03  0.65864270000E+03 0.  0.
    8880022    1    1    2    0    0 -0.42973284322E+03  0.54482298562E+02 -0.10536870902E+04  0.11494723896E+04  0.15294330000E+03 0.  0.
<mgrwt>
<rscale>  0 0.68876349E+03</rscale>
<asrwt>0</asrwt>
<pdfrwt beam="1">  1        2 0.24540823E+00 0.78832027E+03</pdfrwt>
<pdfrwt beam="2">  1       -2 0.55794253E-01 0.78832027E+03</pdfrwt>
<totfact> 0.34541873E+01</totfact>
</mgrwt>
</event>
<event>
 4    1  0.3057048E-007  0.7785920E+03  0.7818608E-02  0.9759155E-01
         -2   -1    0    0    0  501 -0.00000000000E+00  0.00000000000E+00  0.47581358312E+03  0.47581358313E+03  0.25500000000E-02 0.  1.
          2   -1    0    0  501    0  0.00000000000E+00 -0.00000000000E+00 -0.34361889986E+04  0.34361889986E+04  0.25500000000E-02 0. -1.
    8880023    1    1    2    0    0  0.16020209674E+03 -0.38305427638E+03  0.13064127535E+03  0.78947618048E+03  0.65864270000E+03 0.  1.
    8880022    1    1    2    0    0 -0.16020209674E+03  0.38305427638E+03 -0.30910166908E+04  0.31225264012E+04  0.15294330000E+03 0.  0.
<mgrwt>
<rscale>  0 0.67601357E+03</rscale>
<asrwt>0</asrwt>
<pdfrwt beam="1">  1        2 0.52864445E+00 0.77859200E+03</pdfrwt>
<pdfrwt beam="2">  1       -2 0.73202092E-01 0.77859200E+03</pdfrwt>
<totfact> 0.16357998E+00</totfact>
</mgrwt>
</event>
<event>
 4    1  0.3057048E-007  0.6926979E+03  0.7818608E-02  0.1002896E+00
          2   -1    0    0  501    0  0.00000000000E+00  0.00000000000E+00  0.95081847797E+03  0.95081847797E+03  0.25500000000E-02 0. -1.
         -2   -1    0    0    0  501 -0.00000000000E+00 -0.00000000000E+00 -0.25777884379E+03  0.25777884380E+03  0.25500000000E-02 0.  1.
    8880023    1    1    2    0    0 -0.51798603782E+02  0.20817543858E+03  0.63304801147E+03  0.93839229519E+03  0.65864270000E+03 0. -1.
    8880022    1    1    2    0    0  0.51798603782E+02 -0.20817543858E+03  0.59991622705E+02  0.27020502659E+03  0.15294330000E+03 0. -1.
<mgrwt>
<rscale>  0 0.54398511E+03</rscale>
<asrwt>0</asrwt>
<pdfrwt beam="1">  1        2 0.14627977E+00 0.69269785E+03</pdfrwt>
<pdfrwt beam="2">  1       -2 0.39658283E-01 0.69269785E+03</pdfrwt>
<totfact> 0.16547784E+02</totfact>
</mgrwt>
</event>
<event>
 4    1  0.3057048E-007  0.6976603E+03  0.7818608E-02  0.1000705E+00
         -2   -1    0    0    0  501 -0.00000000000E+00  0.00000000000E+00  0.63770244041E+03  0.63770244042E+03  0.25500000000E-02 0.  1.
          2   -1    0    0  501    0  0.00000000000E+00 -0.00000000000E+00 -0.15513620499E+04  0.15513620499E+04  0.25500000000E-02 0. -1.
    8880023    1    1    2    0    0  0.22279636343E+03  0.57284676644E+02  0.42851787732E+03  0.81875364499E+03  0.65864270000E+03 0.  1.
    8880022    1    1    2    0    0 -0.22279636343E+03 -0.57284676644E+02 -0.13421774868E+04  0.13703108453E+04  0.15294330000E+03 0.  0.
<mgrwt>
<rscale>  0 0.55342237E+03</rscale>
<asrwt>0</asrwt>
<pdfrwt beam="1">  1        2 0.23867108E+00 0.69766035E+03</pdfrwt>
<pdfrwt beam="2">  1       -2 0.98108068E-01 0.69766035E+03</pdfrwt>
<totfact> 0.10602711E+01</totfact>
</mgrwt>
</event>
<event>
 4    1  0.3057048E-007  0.9464616E+03  0.7818608E-02  0.9455223E-01
         -2   -1    0    0    0  501 -0.00000000000E+00  0.00000000000E+00  0.94968551116E+03  0.94968551116E+03  0.25500000000E-02 0.  1.
          2   -1    0    0  501    0  0.00000000000E+00 -0.00000000000E+00 -0.15199325671E+04  0.15199325671E+04  0.25500000000E-02 0. -1.
    8880023    1    1    2    0    0 -0.97032703990E+02  0.67272882843E+03  0.59070277442E+03  0.11156699316E+04  0.65864270000E+03 0.  1.
    8880022    1    1    2    0    0  0.97032703990E+02 -0.67272882843E+03 -0.11609498303E+04  0.13539481466E+04  0.15294330000E+03 0.  0.
<mgrwt>
<rscale>  0 0.87667071E+03</rscale>
<asrwt>0</asrwt>
<pdfrwt beam="1">  1        2 0.23383578E+00 0.94646164E+03</pdfrwt>
<pdfrwt beam="2">  1       -2 0.14610546E+00 0.94646164E+03</pdfrwt>
<totfact> 0.39701239E+00</totfact>
</mgrwt>
</event>
<event>
 4    1  0.3057048E-007  0.7709292E+03  0.7818608E-02  0.9777593E-01
          2   -1    0    0  501    0  0.00000000000E+00  0.00000000000E+00  0.13329470020E+04  0.13329470020E+04  0.25500000000E-02 0. -1.
         -2   -1    0    0    0  501 -0.00000000000E+00 -0.00000000000E+00 -0.80213336874E+03  0.80213336875E+03  0.25500000000E-02 0.  1.
    8880023    1    1    2    0    0 -0.39660338455E+03  0.56810002466E+02 -0.56666584374E+03  0.95678733569E+03  0.65864270000E+03 0.  1.
    8880022    1    1    2    0    0  0.39660338455E+03 -0.56810002466E+02  0.10974794770E+04  0.11782930351E+04  0.15294330000E+03 0.  0.
<mgrwt>
<rscale>  0 0.66579036E+03</rscale>
<asrwt>0</asrwt>
<pdfrwt beam="1">  1        2 0.20506877E+00 0.77092920E+03</pdfrwt>
<pdfrwt beam="2">  1       -2 0.12340513E+00 0.77092920E+03</pdfrwt>
<totfact> 0.79834304E+00</totfact>
</mgrwt>
</event>
<event>
 4    1  0.3057048E-007  0.6615130E+03  0.7818608E-02  0.1022657E+00
          2   -1    0    0  501    0  0.00000000000E+00  0.00000000000E+00  0.84528743041E+03  0.84528743041E+03  0.25500000000E-02 0. -1.
         -2   -1    0    0    0  501 -0.00000000000E+00 -0.00000000000E+00 -0.21838604104E+03  0.21838604105E+03  0.25500000000E-02 0.  1.
    8880023    1    1    2    0    0  0.36671650342E+01 -0.61446991420E+02  0.36869341913E+03  0.75732042388E+03  0.65864270000E+03 0.  0.
    8880022    1    1    2    0    0 -0.36671650342E+01  0.61446991420E+02  0.25820797024E+03  0.30635304758E+03  0.15294330000E+03 0.  0.
<mgrwt>
<rscale>  0 0.46739774E+03</rscale>
<asrwt>0</asrwt>
<pdfrwt beam="1">  1        2 0.13004422E+00 0.66151295E+03</pdfrwt>
<pdfrwt beam="2">  1       -2 0.33597852E-01 0.66151295E+03</pdfrwt>
<totfact> 0.26817391E+02</totfact>
</mgrwt>
</event>
<event>
 4    1  0.3057048E-007  0.1013347E+04  0.7818608E-02  0.9364300E-01
         -2   -1    0    0    0  501 -0.00000000000E+00  0.00000000000E+00  0.11784692914E+04  0.11784692914E+04  0.25500000000E-02 0.  1.
          2   -1    0    0  501    0  0.00000000000E+00 -0.00000000000E+00 -0.88863709633E+03  0.88863709634E+03  0.25500000000E-02 0. -1.
    8880023    1    1    2    0    0  0.39829969016E+03  0.65910506546E+03  0.64936591523E+03  0.12035565748E+04  0.65864270000E+03 0. -1.
    8880022    1    1    2    0    0 -0.39829969016E+03 -0.65910506546E+03 -0.35953372019E+03  0.86354981296E+03  0.15294330000E+03 0.  0.
<mgrwt>
<rscale>  0 0.95072789E+03</rscale>
<asrwt>0</asrwt>
<pdfrwt beam="1">  1        2 0.13671340E+00 0.10133471E+04</pdfrwt>
<pdfrwt beam="2">  1       -2 0.18130297E+00 0.10133471E+04</pdfrwt>
<totfact> 0.52502935E+00</totfact>
</mgrwt>
</event>
<event>
 4    1  0.3057048E-007  0.6658670E+03  0.7818608E-02  0.1018817E+00
         -2   -1    0    0    0  501 -0.00000000000E+00  0.00000000000E+00  0.42682854131E+03  0.42682854132E+03  0.25500000000E-02 0.  1.
          2   -1    0    0  501    0  0.00000000000E+00 -0.00000000000E+00 -0.11066077770E+04  0.11066077770E+04  0.25500000000E-02 0. -1.
    8880023    1    1    2    0    0  0.94799563917E+02  0.24117480192E+02  0.15123187031E+03  0.68282493732E+03  0.65864270000E+03 0.  1.
    8880022    1    1    2    0    0 -0.94799563917E+02 -0.24117480192E+02 -0.83101110604E+03  0.85061138104E+03  0.15294330000E+03 0.  0.
<mgrwt>
<rscale>  0 0.48115991E+03</rscale>
<asrwt>0</asrwt>
<pdfrwt beam="1">  1        2 0.17024735E+00 0.66586697E+03</pdfrwt>
<pdfrwt beam="2">  1       -2 0.65665930E-01 0.66586697E+03</pdfrwt>
<totfact> 0.47253537E+01</totfact>
</mgrwt>
</event>
<event>
 4    1  0.3057048E-007  0.9045807E+03  0.7818608E-02  0.9518718E-01
          2   -1    0    0  501    0  0.00000000000E+00  0.00000000000E+00  0.32611672526E+04  0.32611672526E+04  0.25500000000E-02 0. -1.
         -2   -1    0    0    0  501 -0.00000000000E+00 -0.00000000000E+00 -0.28187721437E+03  0.28187721438E+03  0.25500000000E-02 0.  1.
    8880023    1    1    2    0    0  0.11100305761E+02  0.61994582710E+03  0.61455679031E+03  0.10935932974E+04  0.65864270000E+03 0.  1.
    8880022    1    1    2    0    0 -0.11100305761E+02 -0.61994582710E+03  0.23647332479E+04  0.24494511696E+04  0.15294330000E+03 0.  0.
<mgrwt>
<rscale>  0 0.82917794E+03</rscale>
<asrwt>0</asrwt>
<pdfrwt beam="1">  1        2 0.50171803E+00 0.90458070E+03</pdfrwt>
<pdfrwt beam="2">  1       -2 0.43365726E-01 0.90458070E+03</pdfrwt>
<totfact> 0.62287220E+00</totfact>
</mgrwt>
</event>
<event>
 4    1  0.3057048E-007  0.1142415E+04  0.7818608E-02  0.9215240E-01
         -2   -1    0    0    0  501 -0.00000000000E+00  0.00000000000E+00  0.89947296326E+03  0.89947296326E+03  0.25500000000E-02 0.  1.
          2   -1    0    0  501    0  0.00000000000E+00 -0.00000000000E+00 -0.22094753599E+04  0.22094753599E+04  0.25500000000E-02 0. -1.
    8880023    1    1    2    0    0  0.80221507658E+03  0.47723394035E+03  0.35304804772E+03  0.11957233765E+04  0.65864270000E+03 0.  0.
    8880022    1    1    2    0    0 -0.80221507658E+03 -0.47723394035E+03 -0.16630504443E+04  0.19132249466E+04  0.15294330000E+03 0.  0.
<mgrwt>
<rscale>  0 0.10897506E+04</rscale>
<asrwt>0</asrwt>
<pdfrwt beam="1">  1        2 0.33991928E+00 0.11424148E+04</pdfrwt>
<pdfrwt beam="2">  1       -2 0.13838046E+00 0.11424148E+04</pdfrwt>
<totfact> 0.18552911E+00</totfact>
</mgrwt>
</event>
<event>
 4    1  0.3057048E-007  0.6657905E+03  0.7818608E-02  0.1018879E+00
          2   -1    0    0  501    0  0.00000000000E+00  0.00000000000E+00  0.41344651557E+03  0.41344651558E+03  0.25500000000E-02 0. -1.
         -2   -1    0    0    0  501 -0.00000000000E+00 -0.00000000000E+00 -0.12251194904E+04  0.12251194904E+04  0.25500000000E-02 0.  1.
    8880023    1    1    2    0    0  0.28193107465E+02  0.93123292349E+02 -0.11071483997E+04  0.12919189541E+04  0.65864270000E+03 0.  1.
    8880022    1    1    2    0    0 -0.28193107465E+02 -0.93123292349E+02  0.29547542482E+03  0.34664705188E+03  0.15294330000E+03 0.  0.
<mgrwt>
<rscale>  0 0.48093246E+03</rscale>
<asrwt>0</asrwt>
<pdfrwt beam="1">  1        2 0.63607157E-01 0.66579051E+03</pdfrwt>
<pdfrwt beam="2">  1       -2 0.18847992E+00 0.66579051E+03</pdfrwt>
<totfact> 0.12470344E+01</totfact>
</mgrwt>
</event>
<event>
 4    1  0.3057048E-007  0.1161562E+04  0.7818608E-02  0.9195423E-01
          2   -1    0    0  501    0  0.00000000000E+00  0.00000000000E+00  0.87663374010E+03  0.87663374011E+03  0.25500000000E-02 0. -1.
         -2   -1    0    0    0  501 -0.00000000000E+00 -0.00000000000E+00 -0.19457221785E+04  0.19457221785E+04  0.25500000000E-02 0.  1.
    8880023    1    1    2    0    0 -0.22965839757E+03  0.92880218338E+03 -0.13809263304E+04  0.18044900143E+04  0.65864270000E+03 0.  0.
    8880022    1    1    2    0    0  0.22965839757E+03 -0.92880218338E+03  0.31183789194E+03  0.10178659044E+04  0.15294330000E+03 0.  0.
<mgrwt>
<rscale>  0 0.11100792E+04</rscale>
<asrwt>0</asrwt>
<pdfrwt beam="1">  1        2 0.13486673E+00 0.11615622E+04</pdfrwt>
<pdfrwt beam="2">  1       -2 0.29934187E+00 0.11615622E+04</pdfrwt>
<totfact> 0.96005263E-01</totfact>
</mgrwt>
</event>
<event>
 4    1  0.3057048E-007  0.6695691E+03  0.7818608E-02  0.1015974E+00
         -2   -1    0    0    0  501 -0.00000000000E+00  0.00000000000E+00  0.32264142809E+03  0.32264142810E+03  0.25500000000E-02 0.  1.
          2   -1    0    0  501    0  0.00000000000E+00 -0.00000000000E+00 -0.18952139744E+04  0.18952139744E+04  0.25500000000E-02 0. -1.
    8880023    1    1    2    0    0 -0.72357419993E+02 -0.96316873777E+02 -0.37641358373E+02  0.67062628529E+03  0.65864270000E+03 0.  1.
    8880022    1    1    2    0    0  0.72357419993E+02  0.96316873777E+02 -0.15349311879E+04  0.15472291172E+04  0.15294330000E+03 0.  0.
<mgrwt>
<rscale>  0 0.49167988E+03</rscale>
<asrwt>0</asrwt>
<pdfrwt beam="1">  1        2 0.29157137E+00 0.66956907E+03</pdfrwt>
<pdfrwt beam="2">  1       -2 0.49637144E-01 0.66956907E+03</pdfrwt>
<totfact> 0.30567524E+01</totfact>
</mgrwt>
</event>
<event>
 4    1  0.3057048E-007  0.7484831E+03  0.7818608E-02  0.9835891E-01
         -2   -1    0    0    0  501 -0.00000000000E+00  0.00000000000E+00  0.38722668031E+03  0.38722668032E+03  0.25500000000E-02 0.  1.
          2   -1    0    0  501    0  0.00000000000E+00 -0.00000000000E+00 -0.11251965423E+04  0.11251965423E+04  0.25500000000E-02 0. -1.
    8880023    1    1    2    0    0  0.33033841407E+03 -0.13150407237E+03 -0.82684192465E+03  0.11153002123E+04  0.65864270000E+03 0.  0.
    8880022    1    1    2    0    0 -0.33033841407E+03  0.13150407237E+03  0.88872062618E+02  0.39712301040E+03  0.15294330000E+03 0.  0.
<mgrwt>
<rscale>  0 0.63471469E+03</rscale>
<asrwt>0</asrwt>
<pdfrwt beam="1">  1        2 0.17310716E+00 0.74848313E+03</pdfrwt>
<pdfrwt beam="2">  1       -2 0.59573336E-01 0.74848313E+03</pdfrwt>
<totfact> 0.56196658E+01</totfact>
</mgrwt>
</event>
<event>
 4    1  0.3057048E-007  0.6826059E+03  0.7818608E-02  0.1007886E+00
          2   -1    0    0  501    0  0.00000000000E+00  0.00000000000E+00  0.14051037759E+04  0.14051037759E+04  0.25500000000E-02 0. -1.
         -2   -1    0    0    0  501 -0.00000000000E+00 -0.00000000000E+00 -0.31823664068E+03  0.31823664069E+03  0.25500000000E-02 0.  1.
    8880023    1    1    2    0    0  0.12634022596E+02  0.17883229429E+03  0.77687626970E+02  0.68701250473E+03  0.65864270000E+03 0.  1.
    8880022    1    1    2    0    0 -0.12634022596E+02 -0.17883229429E+03  0.10091795083E+04  0.10363279119E+04  0.15294330000E+03 0.  0.
<mgrwt>
<rscale>  0 0.52323369E+03</rscale>
<asrwt>0</asrwt>
<pdfrwt beam="1">  1        2 0.21616981E+00 0.68260590E+03</pdfrwt>
<pdfrwt beam="2">  1       -2 0.48959483E-01 0.68260590E+03</pdfrwt>
<totfact> 0.58305975E+01</totfact>
</mgrwt>
</event>
<event>
 4    1  0.3057048E-007  0.7271429E+03  0.7818608E-02  0.9899118E-01
         -2   -1    0    0    0  501 -0.00000000000E+00  0.00000000000E+00  0.29540550230E+03  0.29540550231E+03  0.25500000000E-02 0.  1.
          2   -1    0    0  501    0  0.00000000000E+00 -0.00000000000E+00 -0.13664536236E+04  0.13664536236E+04  0.25500000000E-02 0. -1.
    8880023    1    1    2    0    0  0.30282010896E+03 -0.56803215833E+02 -0.24541884710E+03  0.76744201116E+03  0.65864270000E+03 0.  1.
    8880022    1    1    2    0    0 -0.30282010896E+03  0.56803215833E+02 -0.82562927425E+03  0.89441711479E+03  0.15294330000E+03 0.  0.
<mgrwt>
<rscale>  0 0.60304027E+03</rscale>
<asrwt>0</asrwt>
<pdfrwt beam="1">  1        2 0.21022363E+00 0.72714292E+03</pdfrwt>
<pdfrwt beam="2">  1       -2 0.45447001E-01 0.72714292E+03</pdfrwt>
<totfact> 0.70890962E+01</totfact>
</mgrwt>
</event>
<event>
 4    1  0.3057048E-007  0.7270108E+03  0.7818608E-02  0.9899540E-01
          2   -1    0    0  501    0  0.00000000000E+00  0.00000000000E+00  0.19251577361E+04  0.19251577361E+04  0.25500000000E-02 0. -1.
         -2   -1    0    0    0  501 -0.00000000000E+00 -0.00000000000E+00 -0.23276325958E+03  0.23276325959E+03  0.25500000000E-02 0.  1.
    8880023    1    1    2    0    0  0.30768117984E+03  0.81742728880E+01  0.41932336931E+03  0.83927160173E+03  0.65864270000E+03 0.  1.
    8880022    1    1    2    0    0 -0.30768117984E+03 -0.81742728880E+01  0.12730711073E+04  0.13186493940E+04  0.15294330000E+03 0.  0.
<mgrwt>
<rscale>  0 0.60283565E+03</rscale>
<asrwt>0</asrwt>
<pdfrwt beam="1">  1        2 0.29617811E+00 0.72701082E+03</pdfrwt>
<pdfrwt beam="2">  1       -2 0.35809733E-01 0.72701082E+03</pdfrwt>
<totfact> 0.55565449E+01</totfact>
</mgrwt>
</event>
<event>
 4    1  0.3057048E-007  0.7439162E+03  0.7818608E-02  0.9848683E-01
         -2   -1    0    0    0  501 -0.00000000000E+00  0.00000000000E+00  0.17293230001E+03  0.17293230003E+03  0.25500000000E-02 0.  1.
          2   -1    0    0  501    0  0.00000000000E+00 -0.00000000000E+00 -0.27819138207E+04  0.27819138207E+04  0.25500000000E-02 0. -1.
    8880023    1    1    2    0    0 -0.33449983260E+03  0.87812460673E+02 -0.74473773770E+03  0.10526374829E+04  0.65864270000E+03 0.  1.
    8880022    1    1    2    0    0  0.33449983260E+03 -0.87812460673E+02 -0.18642437830E+04  0.19022086378E+04  0.15294330000E+03 0.  0.
<mgrwt>
<rscale>  0 0.62814124E+03</rscale>
<asrwt>0</asrwt>
<pdfrwt beam="1">  1        2 0.42798671E+00 0.74391624E+03</pdfrwt>
<pdfrwt beam="2">  1       -2 0.26604971E-01 0.74391624E+03</pdfrwt>
<totfact> 0.31911866E+01</totfact>
</mgrwt>
</event>
<event>
 4    1  0.3057048E-007  0.1105483E+04  0.7818608E-02  0.9254976E-01
          2   -1    0    0  501    0  0.00000000000E+00  0.00000000000E+00  0.43635043273E+04  0.43635043273E+04  0.25500000000E-02 0. -1.
         -2   -1    0    0    0  501 -0.00000000000E+00 -0.00000000000E+00 -0.56418982274E+03  0.56418982275E+03  0.25500000000E-02 0.  1.
    8880023    1    1    2    0    0  0.84175792863E+03 -0.28235714409E+03  0.88432831518E+02  0.11090142196E+04  0.65864270000E+03 0.  1.
    8880022    1    1    2    0    0 -0.84175792863E+03  0.28235714409E+03  0.37108816730E+04  0.38186799305E+04  0.15294330000E+03 0.  0.
<mgrwt>
<rscale>  0 0.10503563E+04</rscale>
<asrwt>0</asrwt>
<pdfrwt beam="1">  1        2 0.67130840E+00 0.11054828E+04</pdfrwt>
<pdfrwt beam="2">  1       -2 0.86798429E-01 0.11054828E+04</pdfrwt>
<totfact> 0.19920937E-01</totfact>
</mgrwt>
</event>
<event>
 4    1  0.3057048E-007  0.6803145E+03  0.7818608E-02  0.1009146E+00
         -2   -1    0    0    0  501 -0.00000000000E+00  0.00000000000E+00  0.22977227128E+03  0.22977227130E+03  0.25500000000E-02 0.  1.
          2   -1    0    0  501    0  0.00000000000E+00 -0.00000000000E+00 -0.27375772241E+04  0.27375772241E+04  0.25500000000E-02 0. -1.
    8880023    1    1    2    0    0 -0.98992745957E+02 -0.13862916410E+03 -0.29297132358E+03  0.74071587778E+03  0.65864270000E+03 0.  1.
    8880022    1    1    2    0    0  0.98992745957E+02  0.13862916410E+03 -0.22148336293E+04  0.22266336176E+04  0.15294330000E+03 0.  0.
<mgrwt>
<rscale>  0 0.51815334E+03</rscale>
<asrwt>0</asrwt>
<pdfrwt beam="1">  1        2 0.42116570E+00 0.68031450E+03</pdfrwt>
<pdfrwt beam="2">  1       -2 0.35349582E-01 0.68031450E+03</pdfrwt>
<totfact> 0.20168855E+01</totfact>
</mgrwt>
</event>
<event>
 4    1  0.3057048E-007  0.1049038E+04  0.7818608E-02  0.9320039E-01
         -2   -1    0    0    0  501 -0.00000000000E+00  0.00000000000E+00  0.12326764276E+04  0.12326764276E+04  0.25500000000E-02 0.  1.
          2   -1    0    0  501    0  0.00000000000E+00 -0.00000000000E+00 -0.76911409292E+03  0.76911409292E+03  0.25500000000E-02 0. -1.
    8880023    1    1    2    0    0  0.57954380195E+03 -0.57515201967E+03 -0.29850288500E+01  0.10490424113E+04  0.65864270000E+03 0.  0.
    8880022    1    1    2    0    0 -0.57954380195E+03  0.57515201967E+03  0.46654736350E+03  0.95274810916E+03  0.15294330000E+03 0.  0.
<mgrwt>
<rscale>  0 0.98958823E+03</rscale>
<asrwt>0</asrwt>
<pdfrwt beam="1">  1        2 0.11832525E+00 0.10490382E+04</pdfrwt>
<pdfrwt beam="2">  1       -2 0.18964253E+00 0.10490382E+04</pdfrwt>
<totfact> 0.55880142E+00</totfact>
</mgrwt>
</event>
<event>
 4    1  0.3057048E-007  0.6681648E+03  0.7818608E-02  0.1017014E+00
         -2   -1    0    0    0  501 -0.00000000000E+00  0.00000000000E+00  0.75990280917E+02  0.75990280960E+02  0.25500000000E-02 0.  1.
          2   -1    0    0  501    0  0.00000000000E+00 -0.00000000000E+00 -0.38187206164E+04  0.38187206164E+04  0.25500000000E-02 0. -1.
    8880023    1    1    2    0    0 -0.30730747984E+02  0.10811872979E+03 -0.14776811380E+04  0.16217230930E+04  0.65864270000E+03 0.  1.
    8880022    1    1    2    0    0  0.30730747984E+02 -0.10811872979E+03 -0.22650491974E+04  0.22729878043E+04  0.15294330000E+03 0.  0.
<mgrwt>
<rscale>  0 0.48779714E+03</rscale>
<asrwt>0</asrwt>
<pdfrwt beam="1">  1        2 0.58749533E+00 0.66816483E+03</pdfrwt>
<pdfrwt beam="2">  1       -2 0.11690815E-01 0.66816483E+03</pdfrwt>
<totfact> 0.27978636E+01</totfact>
</mgrwt>
</event>
<event>
 4    1  0.3057048E-007  0.1077025E+04  0.7818608E-02  0.9287078E-01
         -2   -1    0    0    0  501 -0.00000000000E+00  0.00000000000E+00  0.66309751424E+03  0.66309751425E+03  0.25500000000E-02 0.  1.
          2   -1    0    0  501    0  0.00000000000E+00 -0.00000000000E+00 -0.30401538311E+04  0.30401538311E+04  0.25500000000E-02 0. -1.
    8880023    1    1    2    0    0 -0.87572620744E+02  0.84764590318E+03 -0.25957186295E+04  0.28102914352E+04  0.65864270000E+03 0. -1.
    8880022    1    1    2    0    0  0.87572620744E+02 -0.84764590318E+03  0.21866231265E+03  0.89295991012E+03  0.15294330000E+03 0.  0.
<mgrwt>
<rscale>  0 0.10198127E+04</rscale>
<asrwt>0</asrwt>
<pdfrwt beam="1">  1        2 0.46771597E+00 0.10770250E+04</pdfrwt>
<pdfrwt beam="2">  1       -2 0.10201500E+00 0.10770250E+04</pdfrwt>
<totfact> 0.13045352E+00</totfact>
</mgrwt>
</event>
<event>
 4    1  0.3057048E-007  0.1387685E+04  0.7818608E-02  0.8993312E-01
          2   -1    0    0  501    0  0.00000000000E+00  0.00000000000E+00  0.18803204045E+04  0.18803204045E+04  0.25500000000E-02 0. -1.
         -2   -1    0    0    0  501 -0.00000000000E+00 -0.00000000000E+00 -0.12424519341E+04  0.12424519341E+04  0.25500000000E-02 0.  1.
    8880023    1    1    2    0    0  0.27563454609E+03  0.11899091304E+04 -0.47158373566E+03  0.14656259985E+04  0.65864270000E+03 0.  0.
    8880022    1    1    2    0    0 -0.27563454609E+03 -0.11899091304E+04  0.11094522061E+04  0.16571463400E+04  0.15294330000E+03 0.  0.
<mgrwt>
<rscale>  0 0.13467240E+04</rscale>
<asrwt>0</asrwt>
<pdfrwt beam="1">  1        2 0.28928006E+00 0.13876845E+04</pdfrwt>
<pdfrwt beam="2">  1       -2 0.19114645E+00 0.13876845E+04</pdfrwt>
<totfact> 0.11276086E+00</totfact>
</mgrwt>
</event>
<event>
 4    1  0.3057048E-007  0.6683535E+03  0.7818608E-02  0.1016872E+00
         -2   -1    0    0    0  501 -0.00000000000E+00  0.00000000000E+00  0.10657592514E+04  0.10657592514E+04  0.25500000000E-02 0.  1.
          2   -1    0    0  501    0  0.00000000000E+00 -0.00000000000E+00 -0.29585778025E+03  0.29585778026E+03  0.25500000000E-02 0. -1.
    8880023    1    1    2    0    0  0.95442127175E+02 -0.61457182769E+02  0.90720622762E+03  0.11268183219E+04  0.65864270000E+03 0.  1.
    8880022    1    1    2    0    0 -0.95442127175E+02  0.61457182769E+02 -0.13730475643E+03  0.23479870977E+03  0.15294330000E+03 0.  0.
<mgrwt>
<rscale>  0 0.48832599E+03</rscale>
<asrwt>0</asrwt>
<pdfrwt beam="1">  1        2 0.45516582E-01 0.66835349E+03</pdfrwt>
<pdfrwt beam="2">  1       -2 0.16396296E+00 0.66835349E+03</pdfrwt>
<totfact> 0.26776469E+01</totfact>
</mgrwt>
</event>
<event>
 4    1  0.3057048E-007  0.7246599E+03  0.7818608E-02  0.9907123E-01
         -2   -1    0    0    0  501 -0.00000000000E+00  0.00000000000E+00  0.15415204877E+03  0.15415204879E+03  0.25500000000E-02 0.  1.
          2   -1    0    0  501    0  0.00000000000E+00 -0.00000000000E+00 -0.31963672051E+04  0.31963672051E+04  0.25500000000E-02 0. -1.
    8880023    1    1    2    0    0 -0.63552713833E+02 -0.29543661493E+03 -0.78621289205E+03  0.10692346135E+04  0.65864270000E+03 0.  1.
    8880022    1    1    2    0    0  0.63552713833E+02  0.29543661493E+03 -0.22560022642E+04  0.22812846403E+04  0.15294330000E+03 0.  0.
<mgrwt>
<rscale>  0 0.59917327E+03</rscale>
<asrwt>0</asrwt>
<pdfrwt beam="1">  1        2 0.49174875E+00 0.72465988E+03</pdfrwt>
<pdfrwt beam="2">  1       -2 0.23715702E-01 0.72465988E+03</pdfrwt>
<totfact> 0.21989093E+01</totfact>
</mgrwt>
</event>
<event>
 4    1  0.3057048E-007  0.8068574E+03  0.7818608E-02  0.9696160E-01
         -2   -1    0    0    0  501 -0.00000000000E+00  0.00000000000E+00  0.37120799127E+03  0.37120799128E+03  0.25500000000E-02 0.  1.
          2   -1    0    0  501    0  0.00000000000E+00 -0.00000000000E+00 -0.12566649648E+04  0.12566649648E+04  0.25500000000E-02 0. -1.
    8880023    1    1    2    0    0 -0.42634719702E+03  0.18824663430E+03 -0.29229268171E+03  0.85816894944E+03  0.65864270000E+03 0. -1.
    8880022    1    1    2    0    0  0.42634719702E+03 -0.18824663430E+03 -0.59316429184E+03  0.76970400666E+03  0.15294330000E+03 0.  1.
<mgrwt>
<rscale>  0 0.71245862E+03</rscale>
<asrwt>0</asrwt>
<pdfrwt beam="1">  1        2 0.19333307E+00 0.80685744E+03</pdfrwt>
<pdfrwt beam="2">  1       -2 0.57108923E-01 0.80685744E+03</pdfrwt>
<totfact> 0.51029950E+01</totfact>
</mgrwt>
</event>
<event>
 4    1  0.3057048E-007  0.7986290E+03  0.7818608E-02  0.9713768E-01
          2   -1    0    0  501    0  0.00000000000E+00  0.00000000000E+00  0.16002614075E+04  0.16002614075E+04  0.25500000000E-02 0. -1.
         -2   -1    0    0    0  501 -0.00000000000E+00 -0.00000000000E+00 -0.60491573033E+03  0.60491573033E+03  0.25500000000E-02 0.  1.
    8880023    1    1    2    0    0  0.37364147346E+03  0.25375208297E+03 -0.27787384187E+03  0.84558982288E+03  0.65864270000E+03 0.  1.
    8880022    1    1    2    0    0 -0.37364147346E+03 -0.25375208297E+03  0.12732195190E+04  0.13595873149E+04  0.15294330000E+03 0.  0.
<mgrwt>
<rscale>  0 0.70202917E+03</rscale>
<asrwt>0</asrwt>
<pdfrwt beam="1">  1        2 0.24619406E+00 0.79862900E+03</pdfrwt>
<pdfrwt beam="2">  1       -2 0.93063960E-01 0.79862900E+03</pdfrwt>
<totfact> 0.11118526E+01</totfact>
</mgrwt>
</event>
<event>
 4    1  0.3057048E-007  0.1180312E+04  0.7818608E-02  0.9176502E-01
         -2   -1    0    0    0  501 -0.00000000000E+00  0.00000000000E+00  0.44152257555E+03  0.44152257555E+03  0.25500000000E-02 0.  1.
          2   -1    0    0  501    0  0.00000000000E+00 -0.00000000000E+00 -0.44199184708E+04  0.44199184708E+04  0.25500000000E-02 0. -1.
    8880023    1    1    2    0    0  0.52165221848E+03 -0.82897783899E+03 -0.56796269218E+03  0.13098538547E+04  0.65864270000E+03 0. -1.
    8880022    1    1    2    0    0 -0.52165221848E+03  0.82897783899E+03 -0.34104332031E+04  0.35515871917E+04  0.15294330000E+03 0.  0.
<mgrwt>
<rscale>  0 0.11299288E+04</rscale>
<asrwt>0</asrwt>
<pdfrwt beam="1">  1        2 0.67998743E+00 0.11803116E+04</pdfrwt>
<pdfrwt beam="2">  1       -2 0.67926553E-01 0.11803116E+04</pdfrwt>
<totfact> 0.30209334E-01</totfact>
</mgrwt>
</event>
<event>
 4    1  0.3057048E-007  0.7399841E+03  0.7818608E-02  0.9859993E-01
          2   -1    0    0  501    0  0.00000000000E+00  0.00000000000E+00  0.19857589045E+04  0.19857589045E+04  0.25500000000E-02 0. -1.
         -2   -1    0    0    0  501 -0.00000000000E+00 -0.00000000000E+00 -0.25321977689E+03  0.25321977690E+03  0.25500000000E-02 0.  1.
    8880023    1    1    2    0    0  0.18157159971E+03  0.28424984846E+03  0.37063056856E+03  0.82761310211E+03  0.65864270000E+03 0.  0.
    8880022    1    1    2    0    0 -0.18157159971E+03 -0.28424984846E+03  0.13619085590E+04  0.14113655793E+04  0.15294330000E+03 0. -1.
<mgrwt>
<rscale>  0 0.62239970E+03</rscale>
<asrwt>0</asrwt>
<pdfrwt beam="1">  1        2 0.30550136E+00 0.73998407E+03</pdfrwt>
<pdfrwt beam="2">  1       -2 0.38956889E-01 0.73998407E+03</pdfrwt>
<totfact> 0.43717991E+01</totfact>
</mgrwt>
</event>
<event>
 4    1  0.3057048E-007  0.7016436E+03  0.7818608E-02  0.9990450E-01
         -2   -1    0    0    0  501 -0.00000000000E+00  0.00000000000E+00  0.85245031238E+02  0.85245031276E+02  0.25500000000E-02 0.  1.
          2   -1    0    0  501    0  0.00000000000E+00 -0.00000000000E+00 -0.32793129507E+04  0.32793129507E+04  0.25500000000E-02 0. -1.
    8880023    1    1    2    0    0 -0.29627912554E+02  0.24003285293E+03 -0.16310921567E+04  0.17756028310E+04  0.65864270000E+03 0.  1.
    8880022    1    1    2    0    0  0.29627912554E+02 -0.24003285293E+03 -0.15629757628E+04  0.15889551510E+04  0.15294330000E+03 0.  0.
<mgrwt>
<rscale>  0 0.56070980E+03</rscale>
<asrwt>0</asrwt>
<pdfrwt beam="1">  1        2 0.50450959E+00 0.70164363E+03</pdfrwt>
<pdfrwt beam="2">  1       -2 0.13114623E-01 0.70164363E+03</pdfrwt>
<totfact> 0.54226370E+01</totfact>
</mgrwt>
</event>
<event>
 4    1  0.3057048E-007  0.7781536E+03  0.7818608E-02  0.9760192E-01
         -2   -1    0    0    0  501 -0.00000000000E+00  0.00000000000E+00  0.48091011563E+03  0.48091011564E+03  0.25500000000E-02 0.  1.
          2   -1    0    0  501    0  0.00000000000E+00 -0.00000000000E+00 -0.12716234072E+04  0.12716234072E+04  0.25500000000E-02 0. -1.
    8880023    1    1    2    0    0 -0.38327476761E+03  0.15752228285E+03  0.73871178424E+02  0.78165208011E+03  0.65864270000E+03 0.  1.
    8880022    1    1    2    0    0  0.38327476761E+03 -0.15752228285E+03 -0.86458446999E+03  0.97088144273E+03  0.15294330000E+03 0. -1.
<mgrwt>
<rscale>  0 0.67543319E+03</rscale>
<asrwt>0</asrwt>
<pdfrwt beam="1">  1        2 0.19563437E+00 0.77815360E+03</pdfrwt>
<pdfrwt beam="2">  1       -2 0.73986172E-01 0.77815360E+03</pdfrwt>
<totfact> 0.28740306E+01</totfact>
</mgrwt>
</event>
<event>
 4    1  0.3057048E-007  0.6707678E+03  0.7818608E-02  0.1015118E+00
         -2   -1    0    0    0  501 -0.00000000000E+00  0.00000000000E+00  0.25070319453E+04  0.25070319453E+04  0.25500000000E-02 0.  1.
          2   -1    0    0  501    0  0.00000000000E+00 -0.00000000000E+00 -0.16900210492E+03  0.16900210494E+03  0.25500000000E-02 0. -1.
    8880023    1    1    2    0    0 -0.32572452858E+01 -0.12691960836E+03  0.23801377453E+04  0.24728495890E+04  0.65864270000E+03 0.  1.
    8880022    1    1    2    0    0  0.32572452858E+01  0.12691960836E+03 -0.42107904938E+02  0.20318446128E+03  0.15294330000E+03 0.  0.
<mgrwt>
<rscale>  0 0.49490141E+03</rscale>
<asrwt>0</asrwt>
<pdfrwt beam="1">  1        2 0.26000325E-01 0.67076777E+03</pdfrwt>
<pdfrwt beam="2">  1       -2 0.38569721E+00 0.67076777E+03</pdfrwt>
<totfact> 0.20655982E+00</totfact>
</mgrwt>
</event>
<event>
 4    1  0.3057048E-007  0.7395338E+03  0.7818608E-02  0.9861307E-01
         -2   -1    0    0    0  501 -0.00000000000E+00  0.00000000000E+00  0.34300172288E+03  0.34300172289E+03  0.25500000000E-02 0.  1.
          2   -1    0    0  501    0  0.00000000000E+00 -0.00000000000E+00 -0.24746127052E+04  0.24746127052E+04  0.25500000000E-02 0. -1.
    8880023    1    1    2    0    0 -0.22234811658E+03  0.25231198247E+03 -0.92489499807E+02  0.74529493174E+03  0.65864270000E+03 0.  1.
    8880022    1    1    2    0    0  0.22234811658E+03 -0.25231198247E+03 -0.20391214825E+04  0.20723194963E+04  0.15294330000E+03 0.  0.
<mgrwt>
<rscale>  0 0.62173711E+03</rscale>
<asrwt>0</asrwt>
<pdfrwt beam="1">  1        2 0.38070964E+00 0.73953379E+03</pdfrwt>
<pdfrwt beam="2">  1       -2 0.52769497E-01 0.73953379E+03</pdfrwt>
<totfact> 0.12794429E+01</totfact>
</mgrwt>
</event>
<event>
 4    1  0.3057048E-007  0.7776047E+03  0.7818608E-02  0.9761494E-01
         -2   -1    0    0    0  501 -0.00000000000E+00  0.00000000000E+00  0.13063132670E+04  0.13063132670E+04  0.25500000000E-02 0.  1.
          2   -1    0    0  501    0  0.00000000000E+00 -0.00000000000E+00 -0.44575017683E+03  0.44575017684E+03  0.25500000000E-02 0. -1.
    8880023    1    1    2    0    0 -0.40785180811E+03  0.67199810104E+02  0.10206782110E+04  0.12831418973E+04  0.65864270000E+03 0.  0.
    8880022    1    1    2    0    0  0.40785180811E+03 -0.67199810104E+02 -0.16011512087E+03  0.46892154654E+03  0.15294330000E+03 0.  0.
<mgrwt>
<rscale>  0 0.67470582E+03</rscale>
<asrwt>0</asrwt>
<pdfrwt beam="1">  1        2 0.68576952E-01 0.77760473E+03</pdfrwt>
<pdfrwt beam="2">  1       -2 0.20097127E+00 0.77760473E+03</pdfrwt>
<totfact> 0.93638879E+00</totfact>
</mgrwt>
</event>
<event>
 4    1  0.3057048E-007  0.7179731E+03  0.7818608E-02  0.9929505E-01
          2   -1    0    0  501    0  0.00000000000E+00  0.00000000000E+00  0.17558398717E+04  0.17558398717E+04  0.25500000000E-02 0. -1.
         -2   -1    0    0    0  501 -0.00000000000E+00 -0.00000000000E+00 -0.24257809924E+03  0.24257809925E+03  0.25500000000E-02 0.  1.
    8880023    1    1    2    0    0 -0.28101824593E+03  0.51999509125E+02  0.36528087336E+03  0.80555293197E+03  0.65864270000E+03 0.  1.
    8880022    1    1    2    0    0  0.28101824593E+03 -0.51999509125E+02  0.11479808991E+04  0.11928650390E+04  0.15294330000E+03 0.  0.
<mgrwt>
<rscale>  0 0.58852425E+03</rscale>
<asrwt>0</asrwt>
<pdfrwt beam="1">  1        2 0.27012921E+00 0.71797313E+03</pdfrwt>
<pdfrwt beam="2">  1       -2 0.37319707E-01 0.71797313E+03</pdfrwt>
<totfact> 0.63541368E+01</totfact>
</mgrwt>
</event>
<event>
 4    1  0.3057048E-007  0.6648818E+03  0.7818608E-02  0.1019633E+00
         -2   -1    0    0    0  501 -0.00000000000E+00  0.00000000000E+00  0.17916550515E+03  0.17916550517E+03  0.25500000000E-02 0.  1.
          2   -1    0    0  501    0  0.00000000000E+00 -0.00000000000E+00 -0.20166482119E+04  0.20166482119E+04  0.25500000000E-02 0. -1.
    8880023    1    1    2    0    0 -0.47106214385E+01 -0.90749054350E+02 -0.46381485965E+03  0.81067380069E+03  0.65864270000E+03 0.  1.
    8880022    1    1    2    0    0  0.47106214385E+01  0.90749054350E+02 -0.13736678471E+04  0.13851399164E+04  0.15294330000E+03 0.  0.
<mgrwt>
<rscale>  0 0.47819356E+03</rscale>
<asrwt>0</asrwt>
<pdfrwt beam="1">  1        2 0.31025356E+00 0.66488178E+03</pdfrwt>
<pdfrwt beam="2">  1       -2 0.27563925E-01 0.66488178E+03</pdfrwt>
<totfact> 0.81412285E+01</totfact>
</mgrwt>
</event>
<event>
 4    1  0.3057048E-007  0.7098202E+03  0.7818608E-02  0.9958669E-01
         -2   -1    0    0    0  501 -0.00000000000E+00  0.00000000000E+00  0.15156941994E+04  0.15156941994E+04  0.25500000000E-02 0.  1.
          2   -1    0    0  501    0  0.00000000000E+00 -0.00000000000E+00 -0.33126383388E+03  0.33126383389E+03  0.25500000000E-02 0. -1.
    8880023    1    1    2    0    0 -0.20883813915E+03 -0.16254560177E+03  0.13306433988E+04  0.15081301343E+04  0.65864270000E+03 0.  1.
    8880022    1    1    2    0    0  0.20883813915E+03  0.16254560177E+03 -0.14621303326E+03  0.33882789899E+03  0.15294330000E+03 0.  0.
<mgrwt>
<rscale>  0 0.57500255E+03</rscale>
<asrwt>0</asrwt>
<pdfrwt beam="1">  1        2 0.50963667E-01 0.70982015E+03</pdfrwt>
<pdfrwt beam="2">  1       -2 0.23318372E+00 0.70982015E+03</pdfrwt>
<totfact> 0.82560770E+00</totfact>
</mgrwt>
</event>
<event>
 4    1  0.3057048E-007  0.9041893E+03  0.7818608E-02  0.9519340E-01
         -2   -1    0    0    0  501 -0.00000000000E+00  0.00000000000E+00  0.38746515541E+03  0.38746515542E+03  0.25500000000E-02 0.  1.
          2   -1    0    0  501    0  0.00000000000E+00 -0.00000000000E+00 -0.24897778296E+04  0.24897778297E+04  0.25500000000E-02 0. -1.
    8880023    1    1    2    0    0  0.20531199673E+03 -0.58446136983E+03 -0.28015616731E+03  0.94659695392E+03  0.65864270000E+03 0.  0.
    8880022    1    1    2    0    0 -0.20531199673E+03  0.58446136983E+03 -0.18221565069E+04  0.19306460311E+04  0.15294330000E+03 0.  0.
<mgrwt>
<rscale>  0 0.82872887E+03</rscale>
<asrwt>0</asrwt>
<pdfrwt beam="1">  1        2 0.38304273E+00 0.90418931E+03</pdfrwt>
<pdfrwt beam="2">  1       -2 0.59610025E-01 0.90418931E+03</pdfrwt>
<totfact> 0.94913318E+00</totfact>
</mgrwt>
</event>
<event>
 4    1  0.3057048E-007  0.7770987E+03  0.7818608E-02  0.9762697E-01
         -2   -1    0    0    0  501 -0.00000000000E+00  0.00000000000E+00  0.54682533511E+03  0.54682533512E+03  0.25500000000E-02 0.  1.
          2   -1    0    0  501    0  0.00000000000E+00 -0.00000000000E+00 -0.20650227055E+04  0.20650227055E+04  0.25500000000E-02 0. -1.
    8880023    1    1    2    0    0 -0.39764383295E+03 -0.10932306452E+03  0.22899935980E+03  0.81013768174E+03  0.65864270000E+03 0.  1.
    8880022    1    1    2    0    0  0.39764383295E+03  0.10932306452E+03 -0.17471967302E+04  0.18017103589E+04  0.15294330000E+03 0.  0.
<mgrwt>
<rscale>  0 0.67403445E+03</rscale>
<asrwt>0</asrwt>
<pdfrwt beam="1">  1        2 0.31769580E+00 0.77709868E+03</pdfrwt>
<pdfrwt beam="2">  1       -2 0.84126976E-01 0.77709868E+03</pdfrwt>
<totfact> 0.78315733E+00</totfact>
</mgrwt>
</event>
<event>
 4    1  0.3057048E-007  0.7586832E+03  0.7818608E-02  0.9808529E-01
         -2   -1    0    0    0  501 -0.00000000000E+00  0.00000000000E+00  0.29413902377E+03  0.29413902378E+03  0.25500000000E-02 0.  1.
          2   -1    0    0  501    0  0.00000000000E+00 -0.00000000000E+00 -0.15005195668E+04  0.15005195668E+04  0.25500000000E-02 0. -1.
    8880023    1    1    2    0    0 -0.33873259117E+03 -0.16446934953E+03 -0.32749343102E+03  0.82634864850E+03  0.65864270000E+03 0.  1.
    8880022    1    1    2    0    0  0.33873259117E+03  0.16446934953E+03 -0.87888711201E+03  0.96830994208E+03  0.15294330000E+03 0.  0.
<mgrwt>
<rscale>  0 0.64906851E+03</rscale>
<asrwt>0</asrwt>
<pdfrwt beam="1">  1        2 0.23084916E+00 0.75868316E+03</pdfrwt>
<pdfrwt beam="2">  1       -2 0.45252158E-01 0.75868316E+03</pdfrwt>
<totfact> 0.59924377E+01</totfact>
</mgrwt>
</event>
<event>
 4    1  0.3057048E-007  0.1263582E+04  0.7818608E-02  0.9097665E-01
         -2   -1    0    0    0  501 -0.00000000000E+00  0.00000000000E+00  0.12074031478E+04  0.12074031478E+04  0.25500000000E-02 0.  1.
          2   -1    0    0  501    0  0.00000000000E+00 -0.00000000000E+00 -0.19101281562E+04  0.19101281562E+04  0.25500000000E-02 0. -1.
    8880023    1    1    2    0    0 -0.28292577085E+03 -0.10405685784E+04 -0.13511921556E+04  0.18499622715E+04  0.65864270000E+03 0.  0.
    8880022    1    1    2    0    0  0.28292577085E+03  0.10405685784E+04  0.64846714715E+03  0.12675690325E+04  0.15294330000E+03 0.  0.
<mgrwt>
<rscale>  0 0.12175123E+04</rscale>
<asrwt>0</asrwt>
<pdfrwt beam="1">  1        2 0.29386587E+00 0.12635823E+04</pdfrwt>
<pdfrwt beam="2">  1       -2 0.18575433E+00 0.12635823E+04</pdfrwt>
<totfact> 0.11963633E+00</totfact>
</mgrwt>
</event>
<event>
 4    1  0.3057048E-007  0.6658657E+03  0.7818608E-02  0.1018818E+00
         -2   -1    0    0    0  501 -0.00000000000E+00  0.00000000000E+00  0.78740098512E+02  0.78740098553E+02  0.25500000000E-02 0.  1.
          2   -1    0    0  501    0  0.00000000000E+00 -0.00000000000E+00 -0.23729420367E+04  0.23729420367E+04  0.25500000000E-02 0. -1.
    8880023    1    1    2    0    0  0.97278247877E+02  0.10193397913E+02 -0.15760469931E+04  0.17109357947E+04  0.65864270000E+03 0.  1.
    8880022    1    1    2    0    0 -0.97278247877E+02 -0.10193397913E+02 -0.71815494509E+03  0.74074634056E+03  0.15294330000E+03 0.  1.
<mgrwt>
<rscale>  0 0.48115624E+03</rscale>
<asrwt>0</asrwt>
<pdfrwt beam="1">  1        2 0.36506795E+00 0.66586573E+03</pdfrwt>
<pdfrwt beam="2">  1       -2 0.12113863E-01 0.66586573E+03</pdfrwt>
<totfact> 0.21526615E+02</totfact>
</mgrwt>
</event>
<event>
 4    1  0.3057048E-007  0.8117136E+03  0.7818608E-02  0.9686019E-01
         -2   -1    0    0    0  501 -0.00000000000E+00  0.00000000000E+00  0.13742940150E+04  0.13742940151E+04  0.25500000000E-02 0.  1.
          2   -1    0    0  501    0  0.00000000000E+00 -0.00000000000E+00 -0.34651641432E+03  0.34651641433E+03  0.25500000000E-02 0. -1.
    8880023    1    1    2    0    0 -0.64687398108E+02 -0.46998328549E+03  0.88807711175E+03  0.12031458394E+04  0.65864270000E+03 0.  0.
    8880022    1    1    2    0    0  0.64687398108E+02  0.46998328549E+03  0.13970048898E+03  0.51766459001E+03  0.15294330000E+03 0.  0.
<mgrwt>
<rscale>  0 0.71855375E+03</rscale>
<asrwt>0</asrwt>
<pdfrwt beam="1">  1        2 0.53310217E-01 0.81171359E+03</pdfrwt>
<pdfrwt beam="2">  1       -2 0.21142985E+00 0.81171359E+03</pdfrwt>
<totfact> 0.10621900E+01</totfact>
</mgrwt>
</event>
<event>
 4    1  0.3057048E-007  0.7824181E+03  0.7818608E-02  0.9750187E-01
          2   -1    0    0  501    0  0.00000000000E+00  0.00000000000E+00  0.73311318628E+03  0.73311318628E+03  0.25500000000E-02 0. -1.
         -2   -1    0    0    0  501 -0.00000000000E+00 -0.00000000000E+00 -0.59372061080E+03  0.59372061080E+03  0.25500000000E-02 0.  1.
    8880023    1    1    2    0    0  0.38177131299E+02 -0.42060715357E+03  0.31649122679E+03  0.84400519779E+03  0.65864270000E+03 0.  0.
    8880022    1    1    2    0    0 -0.38177131299E+02  0.42060715357E+03 -0.17709865131E+03  0.48282859930E+03  0.15294330000E+03 0.  0.
<mgrwt>
<rscale>  0 0.68105694E+03</rscale>
<asrwt>0</asrwt>
<pdfrwt beam="1">  1        2 0.11278664E+00 0.78241810E+03</pdfrwt>
<pdfrwt beam="2">  1       -2 0.91341633E-01 0.78241810E+03</pdfrwt>
<totfact> 0.39867430E+01</totfact>
</mgrwt>
</event>
<event>
 4    1  0.3057048E-007  0.6619482E+03  0.7818608E-02  0.1022244E+00
          2   -1    0    0  501    0  0.00000000000E+00  0.00000000000E+00  0.10643280564E+04  0.10643280564E+04  0.25500000000E-02 0. -1.
         -2   -1    0    0    0  501 -0.00000000000E+00 -0.00000000000E+00 -0.39567656342E+03  0.39567656343E+03  0.25500000000E-02 0.  1.
    8880023    1    1    2    0    0  0.64298489313E+02  0.15194550419E+02 -0.10358226629E+03  0.67000347928E+03  0.65864270000E+03 0.  1.
    8880022    1    1    2    0    0 -0.64298489313E+02 -0.15194550419E+02  0.77223375925E+03  0.79000114053E+03  0.15294330000E+03 0.  0.
<mgrwt>
<rscale>  0 0.46885571E+03</rscale>
<asrwt>0</asrwt>
<pdfrwt beam="1">  1        2 0.16374278E+00 0.66194817E+03</pdfrwt>
<pdfrwt beam="2">  1       -2 0.60873317E-01 0.66194817E+03</pdfrwt>
<totfact> 0.58975608E+01</totfact>
</mgrwt>
</event>
<event>
 4    1  0.3057048E-007  0.6803830E+03  0.7818608E-02  0.1009108E+00
         -2   -1    0    0    0  501 -0.00000000000E+00  0.00000000000E+00  0.27021271966E+03  0.27021271968E+03  0.25500000000E-02 0.  1.
          2   -1    0    0  501    0  0.00000000000E+00 -0.00000000000E+00 -0.14743619249E+04  0.14743619249E+04  0.25500000000E-02 0. -1.
    8880023    1    1    2    0    0 -0.48535274178E+02  0.16356996708E+03 -0.19220094108E+03  0.70700934576E+03  0.65864270000E+03 0.  1.
    8880022    1    1    2    0    0  0.48535274178E+02 -0.16356996708E+03 -0.10119482642E+04  0.10375652988E+04  0.15294330000E+03 0.  0.
<mgrwt>
<rscale>  0 0.51830756E+03</rscale>
<asrwt>0</asrwt>
<pdfrwt beam="1">  1        2 0.22682491E+00 0.68038299E+03</pdfrwt>
<pdfrwt beam="2">  1       -2 0.41571189E-01 0.68038299E+03</pdfrwt>
<totfact> 0.73888926E+01</totfact>
</mgrwt>
</event>
<event>
 4    1  0.3057048E-007  0.9089287E+03  0.7818608E-02  0.9511848E-01
          2   -1    0    0  501    0  0.00000000000E+00  0.00000000000E+00  0.49017496177E+03  0.49017496178E+03  0.25500000000E-02 0. -1.
         -2   -1    0    0    0  501 -0.00000000000E+00 -0.00000000000E+00 -0.26689019934E+04  0.26689019934E+04  0.25500000000E-02 0.  1.
    8880023    1    1    2    0    0 -0.60758993139E+03 -0.15223536289E+03 -0.23263586565E+04  0.24976180524E+04  0.65864270000E+03 0.  0.
    8880022    1    1    2    0    0  0.60758993139E+03  0.15223536289E+03  0.14763162490E+03  0.66145890282E+03  0.15294330000E+03 0.  0.
<mgrwt>
<rscale>  0 0.83415957E+03</rscale>
<asrwt>0</asrwt>
<pdfrwt beam="1">  1        2 0.75411534E-01 0.90892868E+03</pdfrwt>
<pdfrwt beam="2">  1       -2 0.41060030E+00 0.90892868E+03</pdfrwt>
<totfact> 0.41260027E-01</totfact>
</mgrwt>
</event>
<event>
 4    1  0.3057048E-007  0.7190035E+03  0.7818608E-02  0.9925972E-01
          2   -1    0    0  501    0  0.00000000000E+00  0.00000000000E+00  0.12167969407E+04  0.12167969407E+04  0.25500000000E-02 0. -1.
         -2   -1    0    0    0  501 -0.00000000000E+00 -0.00000000000E+00 -0.33558571578E+03  0.33558571579E+03  0.25500000000E-02 0.  1.
    8880023    1    1    2    0    0 -0.21084229071E+02  0.28759569440E+03  0.12641850594E+03  0.73003265205E+03  0.65864270000E+03 0.  1.
    8880022    1    1    2    0    0  0.21084229071E+02 -0.28759569440E+03  0.75479271901E+03  0.82235000446E+03  0.15294330000E+03 0. -1.
<mgrwt>
<rscale>  0 0.59018906E+03</rscale>
<asrwt>0</asrwt>
<pdfrwt beam="1">  1        2 0.18719953E+00 0.71900350E+03</pdfrwt>
<pdfrwt beam="2">  1       -2 0.51628573E-01 0.71900350E+03</pdfrwt>
<totfact> 0.66891197E+01</totfact>
</mgrwt>
</event>
<event>
 4    1  0.3057048E-007  0.1046600E+04  0.7818608E-02  0.9322979E-01
          2   -1    0    0  501    0  0.00000000000E+00  0.00000000000E+00  0.23609688922E+04  0.23609688922E+04  0.25500000000E-02 0. -1.
         -2   -1    0    0    0  501 -0.00000000000E+00 -0.00000000000E+00 -0.58671517384E+03  0.58671517385E+03  0.25500000000E-02 0.  1.
    8880023    1    1    2    0    0 -0.22437872862E+03  0.78180327816E+03  0.65014443502E+02  0.10486177872E+04  0.65864270000E+03 0.  0.
    8880022    1    1    2    0    0  0.22437872862E+03 -0.78180327816E+03  0.17092392749E+04  0.18990662789E+04  0.15294330000E+03 0.  0.
<mgrwt>
<rscale>  0 0.98694587E+03</rscale>
<asrwt>0</asrwt>
<pdfrwt beam="1">  1        2 0.36322598E+00 0.10466004E+04</pdfrwt>
<pdfrwt beam="2">  1       -2 0.90263873E-01 0.10466004E+04</pdfrwt>
<totfact> 0.43968844E+00</totfact>
</mgrwt>
</event>
<event>
 4    1  0.3057048E-007  0.9103342E+03  0.7818608E-02  0.9509641E-01
         -2   -1    0    0    0  501 -0.00000000000E+00  0.00000000000E+00  0.40828214870E+03  0.40828214871E+03  0.25500000000E-02 0.  1.
          2   -1    0    0  501    0  0.00000000000E+00 -0.00000000000E+00 -0.16355164092E+04  0.16355164092E+04  0.25500000000E-02 0. -1.
    8880023    1    1    2    0    0  0.62839644286E+03 -0.40012775412E+01 -0.40153449854E+03  0.99495641081E+03  0.65864270000E+03 0.  0.
    8880022    1    1    2    0    0 -0.62839644286E+03  0.40012775412E+01 -0.82569976191E+03  0.10488421471E+04  0.15294330000E+03 0.  0.
<mgrwt>
<rscale>  0 0.83576713E+03</rscale>
<asrwt>0</asrwt>
<pdfrwt beam="1">  1        2 0.25161790E+00 0.91033417E+03</pdfrwt>
<pdfrwt beam="2">  1       -2 0.62812639E-01 0.91033417E+03</pdfrwt>
<totfact> 0.25230585E+01</totfact>
</mgrwt>
</event>
<event>
 4    1  0.3057048E-007  0.6999233E+03  0.7818608E-02  0.9997520E-01
          2   -1    0    0  501    0  0.00000000000E+00  0.00000000000E+00  0.11006298137E+04  0.11006298137E+04  0.25500000000E-02 0. -1.
         -2   -1    0    0    0  501 -0.00000000000E+00 -0.00000000000E+00 -0.72806137942E+03  0.72806137942E+03  0.25500000000E-02 0.  1.
    8880023    1    1    2    0    0 -0.20561609300E+03 -0.11749223357E+03 -0.53331671320E+03  0.87995416102E+03  0.65864270000E+03 0.  1.
    8880022    1    1    2    0    0  0.20561609300E+03  0.11749223357E+03  0.90588514748E+03  0.94873703210E+03  0.15294330000E+03 0.  0.
<mgrwt>
<rscale>  0 0.55759132E+03</rscale>
<asrwt>0</asrwt>
<pdfrwt beam="1">  1        2 0.16932766E+00 0.69992329E+03</pdfrwt>
<pdfrwt beam="2">  1       -2 0.11200944E+00 0.69992329E+03</pdfrwt>
<totfact> 0.14017852E+01</totfact>
</mgrwt>
</event>
<event>
 4    1  0.3057048E-007  0.6910244E+03  0.7818608E-02  0.1003669E+00
         -2   -1    0    0    0  501 -0.00000000000E+00  0.00000000000E+00  0.25694863028E+03  0.25694863029E+03  0.25500000000E-02 0.  1.
          2   -1    0    0  501    0  0.00000000000E+00 -0.00000000000E+00 -0.18969092502E+04  0.18969092502E+04  0.25500000000E-02 0. -1.
    8880023    1    1    2    0    0 -0.13926354122E+03 -0.15591730443E+03 -0.24211045820E+03  0.73221050250E+03  0.65864270000E+03 0.  1.
    8880022    1    1    2    0    0  0.13926354122E+03  0.15591730443E+03 -0.13978501617E+04  0.14216473780E+04  0.15294330000E+03 0.  0.
<mgrwt>
<rscale>  0 0.54070113E+03</rscale>
<asrwt>0</asrwt>
<pdfrwt beam="1">  1        2 0.29183218E+00 0.69102442E+03</pdfrwt>
<pdfrwt beam="2">  1       -2 0.39530560E-01 0.69102442E+03</pdfrwt>
<totfact> 0.47794829E+01</totfact>
</mgrwt>
</event>
<event>
 4    1  0.3057048E-007  0.7165857E+03  0.7818608E-02  0.9934313E-01
          2   -1    0    0  501    0  0.00000000000E+00  0.00000000000E+00  0.14712643441E+04  0.14712643442E+04  0.25500000000E-02 0. -1.
         -2   -1    0    0    0  501 -0.00000000000E+00 -0.00000000000E+00 -0.23164312179E+03  0.23164312180E+03  0.25500000000E-02 0.  1.
    8880023    1    1    2    0    0 -0.87849764220E+02 -0.26826711295E+03  0.43913442830E+03  0.84043683721E+03  0.65864270000E+03 0.  1.
    8880022    1    1    2    0    0  0.87849764220E+02  0.26826711295E+03  0.80048679406E+03  0.86247062874E+03  0.15294330000E+03 0.  0.
<mgrwt>
<rscale>  0 0.58626780E+03</rscale>
<asrwt>0</asrwt>
<pdfrwt beam="1">  1        2 0.22634836E+00 0.71658568E+03</pdfrwt>
<pdfrwt beam="2">  1       -2 0.35637403E-01 0.71658568E+03</pdfrwt>
<totfact> 0.99571905E+01</totfact>
</mgrwt>
</event>
<event>
 4    1  0.3057048E-007  0.7168707E+03  0.7818608E-02  0.9933320E-01
          2   -1    0    0  501    0  0.00000000000E+00  0.00000000000E+00  0.16255319739E+04  0.16255319739E+04  0.25500000000E-02 0. -1.
         -2   -1    0    0    0  501 -0.00000000000E+00 -0.00000000000E+00 -0.37826775701E+03  0.37826775702E+03  0.25500000000E-02 0.  1.
    8880023    1    1    2    0    0  0.25572194652E+03  0.12124252405E+03  0.11909673119E+01  0.71687173765E+03  0.65864270000E+03 0.  1.
    8880022    1    1    2    0    0 -0.25572194652E+03 -0.12124252405E+03  0.12460732496E+04  0.12869279933E+04  0.15294330000E+03 0.  0.
<mgrwt>
<rscale>  0 0.58673282E+03</rscale>
<asrwt>0</asrwt>
<pdfrwt beam="1">  1        2 0.25008184E+00 0.71687075E+03</pdfrwt>
<pdfrwt beam="2">  1       -2 0.58195040E-01 0.71687075E+03</pdfrwt>
<totfact> 0.30688075E+01</totfact>
</mgrwt>
</event>
<event>
 4    1  0.3057048E-007  0.6828333E+03  0.7818608E-02  0.1007764E+00
         -2   -1    0    0    0  501 -0.00000000000E+00  0.00000000000E+00  0.23752087598E+03  0.23752087600E+03  0.25500000000E-02 0.  1.
          2   -1    0    0  501    0  0.00000000000E+00 -0.00000000000E+00 -0.22929629456E+04  0.22929629456E+04  0.25500000000E-02 0. -1.
    8880023    1    1    2    0    0 -0.17807742316E+03  0.27193537502E+02 -0.27776135586E+03  0.73716526925E+03  0.65864270000E+03 0.  1.
    8880022    1    1    2    0    0  0.17807742316E+03 -0.27193537502E+02 -0.17776807137E+04  0.17933185523E+04  0.15294330000E+03 0.  0.
<mgrwt>
<rscale>  0 0.52372923E+03</rscale>
<asrwt>0</asrwt>
<pdfrwt beam="1">  1        2 0.35276351E+00 0.68283326E+03</pdfrwt>
<pdfrwt beam="2">  1       -2 0.36541675E-01 0.68283326E+03</pdfrwt>
<totfact> 0.33815724E+01</totfact>
</mgrwt>
</event>
<event>
 4    1  0.3057048E-007  0.6654262E+03  0.7818608E-02  0.1019178E+00
          2   -1    0    0  501    0  0.00000000000E+00  0.00000000000E+00  0.10679910327E+04  0.10679910327E+04  0.25500000000E-02 0. -1.
         -2   -1    0    0    0  501 -0.00000000000E+00 -0.00000000000E+00 -0.57621023855E+03  0.57621023855E+03  0.25500000000E-02 0.  1.
    8880023    1    1    2    0    0 -0.62744686916E+02 -0.71028065670E+02 -0.37168022443E+03  0.76219307091E+03  0.65864270000E+03 0.  1.
    8880022    1    1    2    0    0  0.62744686916E+02  0.71028065670E+02  0.86346101859E+03  0.88200820035E+03  0.15294330000E+03 0.  0.
<mgrwt>
<rscale>  0 0.47984250E+03</rscale>
<asrwt>0</asrwt>
<pdfrwt beam="1">  1        2 0.16430631E+00 0.66542625E+03</pdfrwt>
<pdfrwt beam="2">  1       -2 0.88647731E-01 0.66542625E+03</pdfrwt>
<totfact> 0.25621397E+01</totfact>
</mgrwt>
</event>
<event>
 4    1  0.3057048E-007  0.7301556E+03  0.7818608E-02  0.9889611E-01
          2   -1    0    0  501    0  0.00000000000E+00  0.00000000000E+00  0.79942617720E+03  0.79942617720E+03  0.25500000000E-02 0. -1.
         -2   -1    0    0    0  501 -0.00000000000E+00 -0.00000000000E+00 -0.13158965971E+04  0.13158965971E+04  0.25500000000E-02 0.  1.
    8880023    1    1    2    0    0 -0.31386210009E+03  0.28417227093E+02 -0.11669295521E+04  0.13765361392E+04  0.65864270000E+03 0.  1.
    8880022    1    1    2    0    0  0.31386210009E+03 -0.28417227093E+02  0.65045913216E+03  0.73878663516E+03  0.15294330000E+03 0.  0.
<mgrwt>
<rscale>  0 0.60767439E+03</rscale>
<asrwt>0</asrwt>
<pdfrwt beam="1">  1        2 0.12298864E+00 0.73015557E+03</pdfrwt>
<pdfrwt beam="2">  1       -2 0.20244563E+00 0.73015557E+03</pdfrwt>
<totfact> 0.45303183E+00</totfact>
</mgrwt>
</event>
<event>
 4    1  0.3057048E-007  0.9671716E+03  0.7818608E-02  0.9425827E-01
         -2   -1    0    0    0  501 -0.00000000000E+00  0.00000000000E+00  0.10497703051E+04  0.10497703051E+04  0.25500000000E-02 0.  1.
          2   -1    0    0  501    0  0.00000000000E+00 -0.00000000000E+00 -0.14153651778E+04  0.14153651778E+04  0.25500000000E-02 0. -1.
    8880023    1    1    2    0    0  0.44010952359E+03  0.55490019386E+03  0.68766163561E+03  0.11867178895E+04  0.65864270000E+03 0.  1.
    8880022    1    1    2    0    0 -0.44010952359E+03 -0.55490019386E+03 -0.10532565083E+04  0.12784175935E+04  0.15294330000E+03 0.  0.
<mgrwt>
<rscale>  0 0.89980372E+03</rscale>
<asrwt>0</asrwt>
<pdfrwt beam="1">  1        2 0.21774849E+00 0.96717156E+03</pdfrwt>
<pdfrwt beam="2">  1       -2 0.16150312E+00 0.96717156E+03</pdfrwt>
<totfact> 0.34677082E+00</totfact>
</mgrwt>
</event>
<event>
 4    1  0.3057048E-007  0.8851329E+03  0.7818608E-02  0.9550332E-01
         -2   -1    0    0    0  501 -0.00000000000E+00  0.00000000000E+00  0.46452907076E+03  0.46452907076E+03  0.25500000000E-02 0.  1.
          2   -1    0    0  501    0  0.00000000000E+00 -0.00000000000E+00 -0.45028940566E+04  0.45028940566E+04  0.25500000000E-02 0. -1.
    8880023    1    1    2    0    0  0.10620561001E+03 -0.58169618164E+03 -0.20259668081E+01  0.88513523833E+03  0.65864270000E+03 0.  0.
    8880022    1    1    2    0    0 -0.10620561001E+03  0.58169618164E+03 -0.40363390190E+04  0.40822878890E+04  0.15294330000E+03 0.  0.
<mgrwt>
<rscale>  0 0.80672599E+03</rscale>
<asrwt>0</asrwt>
<pdfrwt beam="1">  1        2 0.69275290E+00 0.88513292E+03</pdfrwt>
<pdfrwt beam="2">  1       -2 0.71466014E-01 0.88513292E+03</pdfrwt>
<totfact> 0.23976201E-01</totfact>
</mgrwt>
</event>
<event>
 4    1  0.3057048E-007  0.6711008E+03  0.7818608E-02  0.1014886E+00
          2   -1    0    0  501    0  0.00000000000E+00  0.00000000000E+00  0.35330110062E+03  0.35330110063E+03  0.25500000000E-02 0. -1.
         -2   -1    0    0    0  501 -0.00000000000E+00 -0.00000000000E+00 -0.74229424464E+03  0.74229424464E+03  0.25500000000E-02 0.  1.
    8880023    1    1    2    0    0  0.51960684222E+02 -0.11775448060E+03 -0.14691828191E+02  0.67126156339E+03  0.65864270000E+03 0. -1.
    8880022    1    1    2    0    0 -0.51960684222E+02  0.11775448060E+03 -0.37430131582E+03  0.42433378188E+03  0.15294330000E+03 0.  0.
<mgrwt>
<rscale>  0 0.49578209E+03</rscale>
<asrwt>0</asrwt>
<pdfrwt beam="1">  1        2 0.54354016E-01 0.67110076E+03</pdfrwt>
<pdfrwt beam="2">  1       -2 0.11419911E+00 0.67110076E+03</pdfrwt>
<totfact> 0.55707366E+01</totfact>
</mgrwt>
</event>
<event>
 4    1  0.3057048E-007  0.7717545E+03  0.7818608E-02  0.9775575E-01
          2   -1    0    0  501    0  0.00000000000E+00  0.00000000000E+00  0.34180557499E+04  0.34180557499E+04  0.25500000000E-02 0. -1.
         -2   -1    0    0    0  501 -0.00000000000E+00 -0.00000000000E+00 -0.12451914869E+03  0.12451914872E+03  0.25500000000E-02 0.  1.
    8880023    1    1    2    0    0  0.29408728291E+03  0.27442202980E+03  0.27085565740E+04  0.28163600092E+04  0.65864270000E+03 0. -1.
    8880022    1    1    2    0    0 -0.29408728291E+03 -0.27442202980E+03  0.58498002718E+03  0.72621488943E+03  0.15294330000E+03 0.  0.
<mgrwt>
<rscale>  0 0.66689969E+03</rscale>
<asrwt>0</asrwt>
<pdfrwt beam="1">  1        2 0.52585471E+00 0.77175449E+03</pdfrwt>
<pdfrwt beam="2">  1       -2 0.19156793E-01 0.77175449E+03</pdfrwt>
<totfact> 0.22799272E+01</totfact>
</mgrwt>
</event>
<event>
 4    1  0.3057048E-007  0.8119780E+03  0.7818608E-02  0.9685471E-01
         -2   -1    0    0    0  501 -0.00000000000E+00  0.00000000000E+00  0.67865059136E+03  0.67865059136E+03  0.25500000000E-02 0.  1.
          2   -1    0    0  501    0  0.00000000000E+00 -0.00000000000E+00 -0.12613417213E+04  0.12613417213E+04  0.25500000000E-02 0. -1.
    8880023    1    1    2    0    0 -0.27867480846E+03  0.38449771053E+03  0.34847926160E+03  0.88359840442E+03  0.65864270000E+03 0.  0.
    8880022    1    1    2    0    0  0.27867480846E+03 -0.38449771053E+03 -0.93117039152E+03  0.10563939082E+04  0.15294330000E+03 0.  0.
<mgrwt>
<rscale>  0 0.71888447E+03</rscale>
<asrwt>0</asrwt>
<pdfrwt beam="1">  1        2 0.19405257E+00 0.81197804E+03</pdfrwt>
<pdfrwt beam="2">  1       -2 0.10440778E+00 0.81197804E+03</pdfrwt>
<totfact> 0.13147320E+01</totfact>
</mgrwt>
</event>
<event>
 4    1  0.3057048E-007  0.6878549E+03  0.7818608E-02  0.1005189E+00
          2   -1    0    0  501    0  0.00000000000E+00  0.00000000000E+00  0.14567717675E+04  0.14567717675E+04  0.25500000000E-02 0. -1.
         -2   -1    0    0    0  501 -0.00000000000E+00 -0.00000000000E+00 -0.35465265626E+03  0.35465265627E+03  0.25500000000E-02 0.  1.
    8880023    1    1    2    0    0 -0.14103080459E+03 -0.13944331421E+03  0.68538376588E+01  0.68788902235E+03  0.65864270000E+03 0.  1.
    8880022    1    1    2    0    0  0.14103080459E+03  0.13944331421E+03  0.10952652736E+04  0.11235354014E+04  0.15294330000E+03 0.  0.
<mgrwt>
<rscale>  0 0.53432239E+03</rscale>
<asrwt>0</asrwt>
<pdfrwt beam="1">  1        2 0.22411873E+00 0.68785488E+03</pdfrwt>
<pdfrwt beam="2">  1       -2 0.54561948E-01 0.68785488E+03</pdfrwt>
<totfact> 0.43671059E+01</totfact>
</mgrwt>
</event>
<event>
 4    1  0.3057048E-007  0.2041012E+04  0.7818608E-02  0.8599769E-01
          2   -1    0    0  501    0  0.00000000000E+00  0.00000000000E+00  0.32948190757E+04  0.32948190757E+04  0.25500000000E-02 0. -1.
         -2   -1    0    0    0  501 -0.00000000000E+00 -0.00000000000E+00 -0.14635289025E+04  0.14635289025E+04  0.25500000000E-02 0.  1.
    8880023    1    1    2    0    0  0.13000357905E+03 -0.19274381378E+04  0.19420551312E+04  0.28173226732E+04  0.65864270000E+03 0.  0.
    8880022    1    1    2    0    0 -0.13000357905E+03  0.19274381378E+04 -0.11076495805E+03  0.19410253050E+04  0.15294330000E+03 0.  0.
<mgrwt>
<rscale>  0 0.20147207E+04</rscale>
<asrwt>0</asrwt>
<pdfrwt beam="1">  1        2 0.50689524E+00 0.20410117E+04</pdfrwt>
<pdfrwt beam="2">  1       -2 0.22515829E+00 0.20410117E+04</pdfrwt>
<totfact> 0.91305467E-02</totfact>
</mgrwt>
</event>
<event>
 4    1  0.3057048E-007  0.8039017E+03  0.7818608E-02  0.9702422E-01
         -2   -1    0    0    0  501 -0.00000000000E+00  0.00000000000E+00  0.22664448680E+03  0.22664448682E+03  0.25500000000E-02 0.  1.
          2   -1    0    0  501    0  0.00000000000E+00 -0.00000000000E+00 -0.30958721966E+04  0.30958721966E+04  0.25500000000E-02 0. -1.
    8880023    1    1    2    0    0  0.41985626635E+03  0.19017997415E+03 -0.60321663095E+03  0.10050513505E+04  0.65864270000E+03 0.  0.
    8880022    1    1    2    0    0 -0.41985626635E+03 -0.19017997415E+03 -0.22660110789E+04  0.23174653330E+04  0.15294330000E+03 0.  0.
<mgrwt>
<rscale>  0 0.70872743E+03</rscale>
<asrwt>0</asrwt>
<pdfrwt beam="1">  1        2 0.47628800E+00 0.80390168E+03</pdfrwt>
<pdfrwt beam="2">  1       -2 0.34868385E-01 0.80390168E+03</pdfrwt>
<totfact> 0.12326448E+01</totfact>
</mgrwt>
</event>
<event>
 4    1  0.3057048E-007  0.7563872E+03  0.7818608E-02  0.9814552E-01
          2   -1    0    0  501    0  0.00000000000E+00  0.00000000000E+00  0.89183699667E+03  0.89183699667E+03  0.25500000000E-02 0. -1.
         -2   -1    0    0    0  501 -0.00000000000E+00 -0.00000000000E+00 -0.38008507448E+03  0.38008507449E+03  0.25500000000E-02 0.  1.
    8880023    1    1    2    0    0 -0.33539420387E+03 -0.16069259011E+03  0.27232196242E+03  0.80391593963E+03  0.65864270000E+03 0.  0.
    8880022    1    1    2    0    0  0.33539420387E+03  0.16069259011E+03  0.23942995976E+03  0.46800613153E+03  0.15294330000E+03 0.  0.
<mgrwt>
<rscale>  0 0.64587414E+03</rscale>
<asrwt>0</asrwt>
<pdfrwt beam="1">  1        2 0.13720569E+00 0.75638719E+03</pdfrwt>
<pdfrwt beam="2">  1       -2 0.58474628E-01 0.75638719E+03</pdfrwt>
<totfact> 0.82267685E+01</totfact>
</mgrwt>
</event>
<event>
 4    1  0.3057048E-007  0.1387258E+04  0.7818608E-02  0.8993647E-01
          2   -1    0    0  501    0  0.00000000000E+00  0.00000000000E+00  0.12613699858E+04  0.12613699858E+04  0.25500000000E-02 0. -1.
         -2   -1    0    0    0  501 -0.00000000000E+00 -0.00000000000E+00 -0.19777635016E+04  0.19777635016E+04  0.25500000000E-02 0.  1.
    8880023    1    1    2    0    0 -0.44925649464E+03 -0.11352727682E+04 -0.12783199124E+04  0.18864219201E+04  0.65864270000E+03 0.  0.
    8880022    1    1    2    0    0  0.44925649464E+03  0.11352727682E+04  0.56192639653E+03  0.13527115673E+04  0.15294330000E+03 0.  0.
<mgrwt>
<rscale>  0 0.13462824E+04</rscale>
<asrwt>0</asrwt>
<pdfrwt beam="1">  1        2 0.19405692E+00 0.13872584E+04</pdfrwt>
<pdfrwt beam="2">  1       -2 0.30427131E+00 0.13872584E+04</pdfrwt>
<totfact> 0.49781119E-01</totfact>
</mgrwt>
</event>
<event>
 4    1  0.3057048E-007  0.6749268E+03  0.7818608E-02  0.1012352E+00
          2   -1    0    0  501    0  0.00000000000E+00  0.00000000000E+00  0.31718352654E+03  0.31718352655E+03  0.25500000000E-02 0. -1.
         -2   -1    0    0    0  501 -0.00000000000E+00 -0.00000000000E+00 -0.68682241193E+03  0.68682241193E+03  0.25500000000E-02 0.  1.
    8880023    1    1    2    0    0 -0.10322006079E+03  0.10517404149E+03 -0.40730797095E+03  0.78830574615E+03  0.65864270000E+03 0.  1.
    8880022    1    1    2    0    0  0.10322006079E+03 -0.10517404149E+03  0.37669085563E+02  0.21570019234E+03  0.15294330000E+03 0.  0.
<mgrwt>
<rscale>  0 0.50550299E+03</rscale>
<asrwt>0</asrwt>
<pdfrwt beam="1">  1        2 0.48797466E-01 0.67492679E+03</pdfrwt>
<pdfrwt beam="2">  1       -2 0.10566499E+00 0.67492679E+03</pdfrwt>
<totfact> 0.75757372E+01</totfact>
</mgrwt>
</event>
<event>
 4    1  0.3057048E-007  0.1099437E+04  0.7818608E-02  0.9261684E-01
         -2   -1    0    0    0  501 -0.00000000000E+00  0.00000000000E+00  0.34209198900E+03  0.34209198901E+03  0.25500000000E-02 0.  1.
          2   -1    0    0  501    0  0.00000000000E+00 -0.00000000000E+00 -0.32579444148E+04  0.32579444148E+04  0.25500000000E-02 0. -1.
    8880023    1    1    2    0    0 -0.22269097025E+03 -0.85168043344E+03 -0.21837980935E+04  0.24449407250E+04  0.65864270000E+03 0.  0.
    8880022    1    1    2    0    0  0.22269097025E+03  0.85168043344E+03 -0.73205433227E+03  0.11550956789E+04  0.15294330000E+03 0.  0.
<mgrwt>
<rscale>  0 0.10438818E+04</rscale>
<asrwt>0</asrwt>
<pdfrwt beam="1">  1        2 0.50122220E+00 0.10994367E+04</pdfrwt>
<pdfrwt beam="2">  1       -2 0.52629539E-01 0.10994367E+04</pdfrwt>
<totfact> 0.41087212E+00</totfact>
</mgrwt>
</event>
<event>
 4    1  0.4432603E-007  0.9189503E+03  0.7818608E-02  0.9496270E-01
          2   -1    0    0  501    0  0.00000000000E+00  0.00000000000E+00  0.16096785731E+04  0.16096785732E+04  0.25500000000E-02 0. -1.
         -2   -1    0    0    0  501 -0.00000000000E+00 -0.00000000000E+00 -0.18778668978E+04  0.18778668978E+04  0.25500000000E-02 0.  1.
    8880023    1    1    2    0    0  0.64079531259E+03  0.63944814535E+01 -0.16882211892E+04  0.19221239585E+04  0.65864270000E+03 0.  1.
    8880022    1    1    2    0    0 -0.64079531259E+03 -0.63944814535E+01  0.14200328646E+04  0.15654215124E+04  0.15294330000E+03 0.  0.
<mgrwt>
<rscale>  0 0.84559353E+03</rscale>
<asrwt>0</asrwt>
<pdfrwt beam="1">  1        2 0.24764286E+00 0.91895034E+03</pdfrwt>
<pdfrwt beam="2">  1       -2 0.28890260E+00 0.91895034E+03</pdfrwt>
<totfact> 0.41692533E-01</totfact>
</mgrwt>
</event>
<event>
 4    1  0.3057048E-007  0.1992685E+04  0.7818608E-02  0.8622830E-01
          2   -1    0    0  501    0  0.00000000000E+00  0.00000000000E+00  0.16030833078E+04  0.16030833078E+04  0.25500000000E-02 0. -1.
         -2   -1    0    0    0  501 -0.00000000000E+00 -0.00000000000E+00 -0.28184255074E+04  0.28184255074E+04  0.25500000000E-02 0.  1.
    8880023    1    1    2    0    0 -0.52176292975E+03 -0.18068610561E+04 -0.15251384031E+04  0.25093506701E+04  0.65864270000E+03 0.  0.
    8880022    1    1    2    0    0  0.52176292975E+03  0.18068610561E+04  0.30979620354E+03  0.19121581450E+04  0.15294330000E+03 0.  0.
<mgrwt>
<rscale>  0 0.19656942E+04</rscale>
<asrwt>0</asrwt>
<pdfrwt beam="1">  1        2 0.24662820E+00 0.19926850E+04</pdfrwt>
<pdfrwt beam="2">  1       -2 0.43360393E+00 0.19926850E+04</pdfrwt>
<totfact> 0.44078524E-02</totfact>
</mgrwt>
</event>
<event>
 4    1  0.3057048E-007  0.6660438E+03  0.7818608E-02  0.1018673E+00
         -2   -1    0    0    0  501 -0.00000000000E+00  0.00000000000E+00  0.33735911508E+03  0.33735911509E+03  0.25500000000E-02 0.  1.
          2   -1    0    0  501    0  0.00000000000E+00 -0.00000000000E+00 -0.18726838835E+04  0.18726838835E+04  0.25500000000E-02 0. -1.
    8880023    1    1    2    0    0 -0.94787995338E+02 -0.28624555640E+02 -0.21165710443E+01  0.66604715703E+03  0.65864270000E+03 0.  1.
    8880022    1    1    2    0    0  0.94787995338E+02  0.28624555640E+02 -0.15332081974E+04  0.15439958415E+04  0.15294330000E+03 0.  0.
<mgrwt>
<rscale>  0 0.48168426E+03</rscale>
<asrwt>0</asrwt>
<pdfrwt beam="1">  1        2 0.28810521E+00 0.66604379E+03</pdfrwt>
<pdfrwt beam="2">  1       -2 0.51901403E-01 0.66604379E+03</pdfrwt>
<totfact> 0.28722774E+01</totfact>
</mgrwt>
</event>
<event>
 4    1  0.3057048E-007  0.8792090E+03  0.7818608E-02  0.9560268E-01
          2   -1    0    0  501    0  0.00000000000E+00  0.00000000000E+00  0.37896057387E+04  0.37896057387E+04  0.25500000000E-02 0. -1.
         -2   -1    0    0    0  501 -0.00000000000E+00 -0.00000000000E+00 -0.31538876222E+03  0.31538876223E+03  0.25500000000E-02 0.  1.
    8880023    1    1    2    0    0  0.41627575496E+03  0.40732392810E+03  0.33837182393E+04  0.34960774614E+04  0.65864270000E+03 0.  0.
    8880022    1    1    2    0    0 -0.41627575496E+03 -0.40732392810E+03  0.90498737116E+02  0.60891703951E+03  0.15294330000E+03 0.  0.
<mgrwt>
<rscale>  0 0.79982701E+03</rscale>
<asrwt>0</asrwt>
<pdfrwt beam="1">  1        2 0.58301625E+00 0.87920902E+03</pdfrwt>
<pdfrwt beam="2">  1       -2 0.48521349E-01 0.87920902E+03</pdfrwt>
<totfact> 0.21527860E+00</totfact>
</mgrwt>
</event>
<event>
 4    1  0.3057048E-007  0.7077790E+03  0.7818608E-02  0.9966343E-01
         -2   -1    0    0    0  501 -0.00000000000E+00  0.00000000000E+00  0.69065542393E+03  0.69065542394E+03  0.25500000000E-02 0.  1.
          2   -1    0    0  501    0  0.00000000000E+00 -0.00000000000E+00 -0.66742613263E+03  0.66742613264E+03  0.25500000000E-02 0. -1.
    8880023    1    1    2    0    0  0.21797479855E+03  0.14009969536E+03  0.44792016248E+03  0.83760588325E+03  0.65864270000E+03 0.  1.
    8880022    1    1    2    0    0 -0.21797479855E+03 -0.14009969536E+03 -0.42469087118E+03  0.52047567332E+03  0.15294330000E+03 0.  0.
<mgrwt>
<rscale>  0 0.57151006E+03</rscale>
<asrwt>0</asrwt>
<pdfrwt beam="1">  1        2 0.10268094E+00 0.70777902E+03</pdfrwt>
<pdfrwt beam="2">  1       -2 0.10625468E+00 0.70777902E+03</pdfrwt>
<totfact> 0.31602212E+01</totfact>
</mgrwt>
</event>
<event>
 4    1  0.3057048E-007  0.6790737E+03  0.7818608E-02  0.1009853E+00
          2   -1    0    0  501    0  0.00000000000E+00  0.00000000000E+00  0.16595048850E+04  0.16595048850E+04  0.25500000000E-02 0. -1.
         -2   -1    0    0    0  501 -0.00000000000E+00 -0.00000000000E+00 -0.17132609331E+03  0.17132609333E+03  0.25500000000E-02 0.  1.
    8880023    1    1    2    0    0 -0.11302951426E+03 -0.12064507780E+03  0.57353270400E+03  0.88886493614E+03  0.65864270000E+03 0.  1.
    8880022    1    1    2    0    0  0.11302951426E+03  0.12064507780E+03  0.91464608767E+03  0.94196604216E+03  0.15294330000E+03 0.  0.
<mgrwt>
<rscale>  0 0.51533286E+03</rscale>
<asrwt>0</asrwt>
<pdfrwt beam="1">  1        2 0.25530844E+00 0.67907372E+03</pdfrwt>
<pdfrwt beam="2">  1       -2 0.26357861E-01 0.67907372E+03</pdfrwt>
<totfact> 0.13791579E+02</totfact>
</mgrwt>
</event>
<event>
 4    1  0.3057048E-007  0.1083184E+04  0.7818608E-02  0.9280014E-01
         -2   -1    0    0    0  501 -0.00000000000E+00  0.00000000000E+00  0.97229968150E+03  0.97229968150E+03  0.25500000000E-02 0.  1.
          2   -1    0    0  501    0  0.00000000000E+00 -0.00000000000E+00 -0.11025523775E+04  0.11025523775E+04  0.25500000000E-02 0. -1.
    8880023    1    1    2    0    0 -0.81323725031E+03  0.27950382298E+03 -0.40930023042E+03  0.11579352733E+04  0.65864270000E+03 0.  0.
    8880022    1    1    2    0    0  0.81323725031E+03 -0.27950382298E+03  0.27904753442E+03  0.91691678566E+03  0.15294330000E+03 0.  0.
<mgrwt>
<rscale>  0 0.10264384E+04</rscale>
<asrwt>0</asrwt>
<pdfrwt beam="1">  1        2 0.16962344E+00 0.10831839E+04</pdfrwt>
<pdfrwt beam="2">  1       -2 0.14958457E+00 0.10831839E+04</pdfrwt>
<totfact> 0.64439232E+00</totfact>
</mgrwt>
</event>
<event>
 4    1  0.3057048E-007  0.6616226E+03  0.7818608E-02  0.1022552E+00
          2   -1    0    0  501    0  0.00000000000E+00  0.00000000000E+00  0.64607604021E+03  0.64607604022E+03  0.25500000000E-02 0. -1.
         -2   -1    0    0    0  501 -0.00000000000E+00 -0.00000000000E+00 -0.46416472738E+03  0.46416472739E+03  0.25500000000E-02 0.  1.
    8880023    1    1    2    0    0 -0.19635078946E+02  0.59570626192E+02 -0.20239733983E+03  0.69188805833E+03  0.65864270000E+03 0.  1.
    8880022    1    1    2    0    0  0.19635078946E+02 -0.59570626192E+02  0.38430865266E+03  0.41835270927E+03  0.15294330000E+03 0.  0.
<mgrwt>
<rscale>  0 0.46776684E+03</rscale>
<asrwt>0</asrwt>
<pdfrwt beam="1">  1        2 0.99396314E-01 0.66162255E+03</pdfrwt>
<pdfrwt beam="2">  1       -2 0.71409958E-01 0.66162255E+03</pdfrwt>
<totfact> 0.82063333E+01</totfact>
</mgrwt>
</event>
<event>
 4    1  0.3057048E-007  0.1314462E+04  0.7818608E-02  0.9053170E-01
          2   -1    0    0  501    0  0.00000000000E+00  0.00000000000E+00  0.11804063656E+04  0.11804063656E+04  0.25500000000E-02 0. -1.
         -2   -1    0    0    0  501 -0.00000000000E+00 -0.00000000000E+00 -0.13182129284E+04  0.13182129284E+04  0.25500000000E-02 0.  1.
    8880023    1    1    2    0    0 -0.86800473936E+03  0.73523409097E+03  0.12733419464E+03  0.13206156138E+04  0.65864270000E+03 0.  0.
    8880022    1    1    2    0    0  0.86800473936E+03 -0.73523409097E+03 -0.26514075742E+03  0.11780036801E+04  0.15294330000E+03 0.  0.
<mgrwt>
<rscale>  0 0.12706489E+04</rscale>
<asrwt>0</asrwt>
<pdfrwt beam="1">  1        2 0.18160098E+00 0.13144625E+04</pdfrwt>
<pdfrwt beam="2">  1       -2 0.20280199E+00 0.13144625E+04</pdfrwt>
<totfact> 0.23839748E+00</totfact>
</mgrwt>
</event>
<event>
 4    1  0.3057048E-007  0.1202839E+04  0.7818608E-02  0.9154368E-01
          2   -1    0    0  501    0  0.00000000000E+00  0.00000000000E+00  0.11429381498E+04  0.11429381498E+04  0.25500000000E-02 0. -1.
         -2   -1    0    0    0  501 -0.00000000000E+00 -0.00000000000E+00 -0.21351636786E+04  0.21351636786E+04  0.25500000000E-02 0.  1.
    8880023    1    1    2    0    0  0.94344033091E+03  0.35061479761E+03 -0.16677976566E+04  0.20562999839E+04  0.65864270000E+03 0.  1.
    8880022    1    1    2    0    0 -0.94344033091E+03 -0.35061479761E+03  0.67557212779E+03  0.12218018445E+04  0.15294330000E+03 0. -1.
<mgrwt>
<rscale>  0 0.11537097E+04</rscale>
<asrwt>0</asrwt>
<pdfrwt beam="1">  1        2 0.17583664E+00 0.12028386E+04</pdfrwt>
<pdfrwt beam="2">  1       -2 0.32848672E+00 0.12028386E+04</pdfrwt>
<totfact> 0.42594698E-01</totfact>
</mgrwt>
</event>
<event>
 4    1  0.3057048E-007  0.9619853E+03  0.7818608E-02  0.9433075E-01
         -2   -1    0    0    0  501 -0.00000000000E+00  0.00000000000E+00  0.13295923781E+04  0.13295923781E+04  0.25500000000E-02 0.  1.
          2   -1    0    0  501    0  0.00000000000E+00 -0.00000000000E+00 -0.59400287342E+03  0.59400287343E+03  0.25500000000E-02 0. -1.
    8880023    1    1    2    0    0 -0.62106335325E+03 -0.32540114111E+03  0.72719357612E+03  0.12059130544E+04  0.65864270000E+03 0.  0.
    8880022    1    1    2    0    0  0.62106335325E+03  0.32540114111E+03  0.83959285244E+01  0.71768219709E+03  0.15294330000E+03 0.  0.
<mgrwt>
<rscale>  0 0.89402972E+03</rscale>
<asrwt>0</asrwt>
<pdfrwt beam="1">  1        2 0.91385058E-01 0.96198534E+03</pdfrwt>
<pdfrwt beam="2">  1       -2 0.20455267E+00 0.96198534E+03</pdfrwt>
<totfact> 0.62232515E+00</totfact>
</mgrwt>
</event>
<event>
 4    1  0.3057048E-007  0.8270829E+03  0.7818608E-02  0.9655035E-01
          2   -1    0    0  501    0  0.00000000000E+00  0.00000000000E+00  0.11384733558E+04  0.11384733558E+04  0.25500000000E-02 0. -1.
         -2   -1    0    0    0  501 -0.00000000000E+00 -0.00000000000E+00 -0.43314938912E+03  0.43314938913E+03  0.25500000000E-02 0.  1.
    8880023    1    1    2    0    0 -0.22818153141E+03 -0.44518431201E+03  0.21484115881E+03  0.85453075587E+03  0.65864270000E+03 0.  1.
    8880022    1    1    2    0    0  0.22818153141E+03  0.44518431201E+03  0.49048280785E+03  0.71709198904E+03  0.15294330000E+03 0.  0.
<mgrwt>
<rscale>  0 0.73758269E+03</rscale>
<asrwt>0</asrwt>
<pdfrwt beam="1">  1        2 0.17514975E+00 0.82708288E+03</pdfrwt>
<pdfrwt beam="2">  1       -2 0.66638368E-01 0.82708288E+03</pdfrwt>
<totfact> 0.43126003E+01</totfact>
</mgrwt>
</event>
<event>
 4    1  0.3057048E-007  0.7248367E+03  0.7818608E-02  0.9906548E-01
          2   -1    0    0  501    0  0.00000000000E+00  0.00000000000E+00  0.22154335310E+04  0.22154335310E+04  0.25500000000E-02 0. -1.
         -2   -1    0    0    0  501 -0.00000000000E+00 -0.00000000000E+00 -0.12859820429E+03  0.12859820432E+03  0.25500000000E-02 0.  1.
    8880023    1    1    2    0    0 -0.14984115931E+03 -0.26291750736E+03  0.13293553157E+04  0.15141247473E+04  0.65864270000E+03 0.  1.
    8880022    1    1    2    0    0  0.14984115931E+03  0.26291750736E+03  0.75748001100E+03  0.82990698803E+03  0.15294330000E+03 0. -1.
<mgrwt>
<rscale>  0 0.59945007E+03</rscale>
<asrwt>0</asrwt>
<pdfrwt beam="1">  1        2 0.34083591E+00 0.72483667E+03</pdfrwt>
<pdfrwt beam="2">  1       -2 0.19784340E-01 0.72483667E+03</pdfrwt>
<totfact> 0.11375237E+02</totfact>
</mgrwt>
</event>
<event>
 4    1  0.3057048E-007  0.6784053E+03  0.7818608E-02  0.1010240E+00
          2   -1    0    0  501    0  0.00000000000E+00  0.00000000000E+00  0.34457781745E+03  0.34457781746E+03  0.25500000000E-02 0. -1.
         -2   -1    0    0    0  501 -0.00000000000E+00 -0.00000000000E+00 -0.16722314547E+04  0.16722314547E+04  0.25500000000E-02 0.  1.
    8880023    1    1    2    0    0 -0.68943271650E+02 -0.14720869723E+03 -0.15560257099E+04  0.16974833700E+04  0.65864270000E+03 0.  1.
    8880022    1    1    2    0    0  0.68943271650E+02  0.14720869723E+03  0.22837207262E+03  0.31932590220E+03  0.15294330000E+03 0.  0.
<mgrwt>
<rscale>  0 0.51379184E+03</rscale>
<asrwt>0</asrwt>
<pdfrwt beam="1">  1        2 0.53011973E-01 0.67840532E+03</pdfrwt>
<pdfrwt beam="2">  1       -2 0.25726637E+00 0.67840532E+03</pdfrwt>
<totfact> 0.56657026E+00</totfact>
</mgrwt>
</event>
<event>
 4    1  0.3057048E-007  0.1162777E+04  0.7818608E-02  0.9194183E-01
          2   -1    0    0  501    0  0.00000000000E+00  0.00000000000E+00  0.12239255893E+04  0.12239255893E+04  0.25500000000E-02 0. -1.
         -2   -1    0    0    0  501 -0.00000000000E+00 -0.00000000000E+00 -0.22996547766E+04  0.22996547766E+04  0.25500000000E-02 0.  1.
    8880023    1    1    2    0    0 -0.89349106916E+03  0.34628721544E+03 -0.19151575077E+04  0.22405087841E+04  0.65864270000E+03 0.  0.
    8880022    1    1    2    0    0  0.89349106916E+03 -0.34628721544E+03  0.83942832033E+03  0.12830715819E+04  0.15294330000E+03 0.  0.
<mgrwt>
<rscale>  0 0.11113674E+04</rscale>
<asrwt>0</asrwt>
<pdfrwt beam="1">  1        2 0.18829625E+00 0.11627774E+04</pdfrwt>
<pdfrwt beam="2">  1       -2 0.35379304E+00 0.11627774E+04</pdfrwt>
<totfact> 0.26624094E-01</totfact>
</mgrwt>
</event>
<event>
 4    1  0.3057048E-007  0.8023855E+03  0.7818608E-02  0.9705662E-01
          2   -1    0    0  501    0  0.00000000000E+00  0.00000000000E+00  0.73185956943E+03  0.73185956943E+03  0.25500000000E-02 0. -1.
         -2   -1    0    0    0  501 -0.00000000000E+00 -0.00000000000E+00 -0.80811787505E+03  0.80811787506E+03  0.25500000000E-02 0.  1.
    8880023    1    1    2    0    0 -0.19384629410E+03 -0.41525396335E+03 -0.45830841996E+03  0.92405035246E+03  0.65864270000E+03 0.  1.
    8880022    1    1    2    0    0  0.19384629410E+03  0.41525396335E+03  0.38205011433E+03  0.61592709203E+03  0.15294330000E+03 0.  0.
<mgrwt>
<rscale>  0 0.70680694E+03</rscale>
<asrwt>0</asrwt>
<pdfrwt beam="1">  1        2 0.11259378E+00 0.80238547E+03</pdfrwt>
<pdfrwt beam="2">  1       -2 0.12432583E+00 0.80238547E+03</pdfrwt>
<totfact> 0.18987468E+01</totfact>
</mgrwt>
</event>
<event>
 4    1  0.3057048E-007  0.8371418E+03  0.7818608E-02  0.9635593E-01
          2   -1    0    0  501    0  0.00000000000E+00  0.00000000000E+00  0.82175136754E+03  0.82175136754E+03  0.25500000000E-02 0. -1.
         -2   -1    0    0    0  501 -0.00000000000E+00 -0.00000000000E+00 -0.13132771357E+04  0.13132771357E+04  0.25500000000E-02 0.  1.
    8880023    1    1    2    0    0  0.51642776300E+03 -0.17280825240E+02 -0.10606802315E+04  0.13512398089E+04  0.65864270000E+03 0.  0.
    8880022    1    1    2    0    0 -0.51642776300E+03  0.17280825240E+02  0.56915446333E+03  0.78378869439E+03  0.15294330000E+03 0.  0.
<mgrwt>
<rscale>  0 0.74984518E+03</rscale>
<asrwt>0</asrwt>
<pdfrwt beam="1">  1        2 0.12642329E+00 0.83714184E+03</pdfrwt>
<pdfrwt beam="2">  1       -2 0.20204264E+00 0.83714184E+03</pdfrwt>
<totfact> 0.43324618E+00</totfact>
</mgrwt>
</event>
<event>
 4    1  0.3057048E-007  0.9068576E+03  0.7818608E-02  0.9515111E-01
         -2   -1    0    0    0  501 -0.00000000000E+00  0.00000000000E+00  0.29252487535E+03  0.29252487536E+03  0.25500000000E-02 0.  1.
          2   -1    0    0  501    0  0.00000000000E+00 -0.00000000000E+00 -0.32086761068E+04  0.32086761068E+04  0.25500000000E-02 0. -1.
    8880023    1    1    2    0    0  0.62276928979E+03  0.27183865906E+02 -0.57529607591E+03  0.10739442872E+04  0.65864270000E+03 0.  1.
    8880022    1    1    2    0    0 -0.62276928979E+03 -0.27183865906E+02 -0.23408551555E+04  0.24272566949E+04  0.15294330000E+03 0.  0.
<mgrwt>
<rscale>  0 0.83178833E+03</rscale>
<asrwt>0</asrwt>
<pdfrwt beam="1">  1        2 0.49364245E+00 0.90685763E+03</pdfrwt>
<pdfrwt beam="2">  1       -2 0.45003829E-01 0.90685763E+03</pdfrwt>
<totfact> 0.62516717E+00</totfact>
</mgrwt>
</event>
<event>
 4    1  0.3057048E-007  0.7874274E+03  0.7818608E-02  0.9738670E-01
          2   -1    0    0  501    0  0.00000000000E+00  0.00000000000E+00  0.96296869811E+03  0.96296869811E+03  0.25500000000E-02 0. -1.
         -2   -1    0    0    0  501 -0.00000000000E+00 -0.00000000000E+00 -0.60092044527E+03  0.60092044527E+03  0.25500000000E-02 0.  1.
    8880023    1    1    2    0    0 -0.41538190723E+03 -0.11700250834E+03 -0.22543957936E+03  0.81906344444E+03  0.65864270000E+03 0.  0.
    8880022    1    1    2    0    0  0.41538190723E+03  0.11700250834E+03  0.58748783220E+03  0.74482569894E+03  0.15294330000E+03 0.  0.
<mgrwt>
<rscale>  0 0.68760315E+03</rscale>
<asrwt>0</asrwt>
<pdfrwt beam="1">  1        2 0.14814903E+00 0.78742741E+03</pdfrwt>
<pdfrwt beam="2">  1       -2 0.92449299E-01 0.78742741E+03</pdfrwt>
<totfact> 0.26761115E+01</totfact>
</mgrwt>
</event>
<event>
 4    1  0.3057048E-007  0.6781253E+03  0.7818608E-02  0.1010405E+00
         -2   -1    0    0    0  501 -0.00000000000E+00  0.00000000000E+00  0.92032123096E+02  0.92032123131E+02  0.25500000000E-02 0.  1.
          2   -1    0    0  501    0  0.00000000000E+00 -0.00000000000E+00 -0.27442228657E+04  0.27442228657E+04  0.25500000000E-02 0. -1.
    8880023    1    1    2    0    0  0.13992798101E+03  0.80398240857E+02 -0.13033207597E+04  0.14691830812E+04  0.65864270000E+03 0.  1.
    8880022    1    1    2    0    0 -0.13992798101E+03 -0.80398240857E+02 -0.13488699829E+04  0.13670719077E+04  0.15294330000E+03 0. -1.
<mgrwt>
<rscale>  0 0.51314155E+03</rscale>
<asrwt>0</asrwt>
<pdfrwt beam="1">  1        2 0.42218807E+00 0.67812530E+03</pdfrwt>
<pdfrwt beam="2">  1       -2 0.14158790E-01 0.67812530E+03</pdfrwt>
<totfact> 0.10186504E+02</totfact>
</mgrwt>
</event>
<event>
 4    1  0.3057048E-007  0.7250274E+03  0.7818608E-02  0.9905928E-01
         -2   -1    0    0    0  501 -0.00000000000E+00  0.00000000000E+00  0.93357586239E+03  0.93357586239E+03  0.25500000000E-02 0.  1.
          2   -1    0    0  501    0  0.00000000000E+00 -0.00000000000E+00 -0.16510222916E+04  0.16510222916E+04  0.25500000000E-02 0. -1.
    8880023    1    1    2    0    0 -0.30183143810E+03 -0.27429297431E+02  0.77075249245E+03  0.10581702104E+04  0.65864270000E+03 0.  1.
    8880022    1    1    2    0    0  0.30183143810E+03  0.27429297431E+02 -0.14881989216E+04  0.15264279435E+04  0.15294330000E+03 0.  0.
<mgrwt>
<rscale>  0 0.59974851E+03</rscale>
<asrwt>0</asrwt>
<pdfrwt beam="1">  1        2 0.25400343E+00 0.72502744E+03</pdfrwt>
<pdfrwt beam="2">  1       -2 0.14362706E+00 0.72502744E+03</pdfrwt>
<totfact> 0.36260456E+00</totfact>
</mgrwt>
</event>
<event>
 4    1  0.3057048E-007  0.9046926E+03  0.7818608E-02  0.9518540E-01
          2   -1    0    0  501    0  0.00000000000E+00  0.00000000000E+00  0.35248074275E+04  0.35248074275E+04  0.25500000000E-02 0. -1.
         -2   -1    0    0    0  501 -0.00000000000E+00 -0.00000000000E+00 -0.29843921431E+03  0.29843921432E+03  0.25500000000E-02 0.  1.
    8880023    1    1    2    0    0 -0.26041974483E+03  0.56288551202E+03  0.52205760568E+03  0.10445156260E+04  0.65864270000E+03 0.  0.
    8880022    1    1    2    0    0  0.26041974483E+03 -0.56288551202E+03  0.27043106075E+04  0.27787310158E+04  0.15294330000E+03 0.  0.
<mgrwt>
<rscale>  0 0.82930634E+03</rscale>
<asrwt>0</asrwt>
<pdfrwt beam="1">  1        2 0.54227806E+00 0.90469263E+03</pdfrwt>
<pdfrwt beam="2">  1       -2 0.45913726E-01 0.90469263E+03</pdfrwt>
<totfact> 0.37039633E+00</totfact>
</mgrwt>
</event>
<event>
 4    1  0.3057048E-007  0.7171047E+03  0.7818608E-02  0.9932507E-01
          2   -1    0    0  501    0  0.00000000000E+00  0.00000000000E+00  0.16073334452E+04  0.16073334452E+04  0.25500000000E-02 0. -1.
         -2   -1    0    0    0  501 -0.00000000000E+00 -0.00000000000E+00 -0.63667874161E+03  0.63667874162E+03  0.25500000000E-02 0.  1.
    8880023    1    1    2    0    0 -0.25070928237E+03 -0.13256644879E+03 -0.41014918225E+03  0.82611232019E+03  0.65864270000E+03 0.  0.
    8880022    1    1    2    0    0  0.25070928237E+03  0.13256644879E+03  0.13808038859E+04  0.14178998666E+04  0.15294330000E+03 0. -1.
<mgrwt>
<rscale>  0 0.58711398E+03</rscale>
<asrwt>0</asrwt>
<pdfrwt beam="1">  1        2 0.24728207E+00 0.71710474E+03</pdfrwt>
<pdfrwt beam="2">  1       -2 0.97950575E-01 0.71710474E+03</pdfrwt>
<totfact> 0.98847185E+00</totfact>
</mgrwt>
</event>
<event>
 4    1  0.3057048E-007  0.6750963E+03  0.7818608E-02  0.1012246E+00
         -2   -1    0    0    0  501 -0.00000000000E+00  0.00000000000E+00  0.11615025020E+03  0.11615025022E+03  0.25500000000E-02 0.  1.
          2   -1    0    0  501    0  0.00000000000E+00 -0.00000000000E+00 -0.17295553361E+04  0.17295553361E+04  0.25500000000E-02 0. -1.
    8880023    1    1    2    0    0  0.14780108512E+03 -0.99798604668E+01 -0.11107865246E+04  0.12998467863E+04  0.65864270000E+03 0.  1.
    8880022    1    1    2    0    0 -0.14780108512E+03  0.99798604668E+01 -0.50261856132E+03  0.54585880003E+03  0.15294330000E+03 0.  1.
<mgrwt>
<rscale>  0 0.50591805E+03</rscale>
<asrwt>0</asrwt>
<pdfrwt beam="1">  1        2 0.26608542E+00 0.67509626E+03</pdfrwt>
<pdfrwt beam="2">  1       -2 0.17869271E-01 0.67509626E+03</pdfrwt>
<totfact> 0.25108217E+02</totfact>
</mgrwt>
</event>
<event>
 4    1  0.3057048E-007  0.9414858E+03  0.7818608E-02  0.9462472E-01
         -2   -1    0    0    0  501 -0.00000000000E+00  0.00000000000E+00  0.85997195281E+03  0.85997195282E+03  0.25500000000E-02 0.  1.
          2   -1    0    0  501    0  0.00000000000E+00 -0.00000000000E+00 -0.20805394570E+04  0.20805394570E+04  0.25500000000E-02 0. -1.
    8880023    1    1    2    0    0 -0.22165477762E+03 -0.63518058471E+03  0.51479484742E+03  0.10730373511E+04  0.65864270000E+03 0.  0.
    8880022    1    1    2    0    0  0.22165477762E+03  0.63518058471E+03 -0.17353623516E+04  0.18674740587E+04  0.15294330000E+03 0.  0.
<mgrwt>
<rscale>  0 0.87108101E+03</rscale>
<asrwt>0</asrwt>
<pdfrwt beam="1">  1        2 0.32008299E+00 0.94148575E+03</pdfrwt>
<pdfrwt beam="2">  1       -2 0.13230338E+00 0.94148575E+03</pdfrwt>
<totfact> 0.25214623E+00</totfact>
</mgrwt>
</event>
<event>
 4    1  0.3057048E-007  0.7407359E+03  0.7818608E-02  0.9857809E-01
         -2   -1    0    0    0  501 -0.00000000000E+00  0.00000000000E+00  0.55730517669E+03  0.55730517670E+03  0.25500000000E-02 0.  1.
          2   -1    0    0  501    0  0.00000000000E+00 -0.00000000000E+00 -0.10305793460E+04  0.10305793460E+04  0.25500000000E-02 0. -1.
    8880023    1    1    2    0    0  0.33439580726E+03  0.55306806985E+02  0.24405399917E+03  0.77990509653E+03  0.65864270000E+03 0.  1.
    8880022    1    1    2    0    0 -0.33439580726E+03 -0.55306806985E+02 -0.71732816846E+03  0.80797942616E+03  0.15294330000E+03 0.  0.
<mgrwt>
<rscale>  0 0.62350355E+03</rscale>
<asrwt>0</asrwt>
<pdfrwt beam="1">  1        2 0.15855067E+00 0.74073585E+03</pdfrwt>
<pdfrwt beam="2">  1       -2 0.85739258E-01 0.74073585E+03</pdfrwt>
<totfact> 0.28943057E+01</totfact>
</mgrwt>
</event>
<event>
 4    1  0.3057048E-007  0.7419072E+03  0.7818608E-02  0.9854426E-01
         -2   -1    0    0    0  501 -0.00000000000E+00  0.00000000000E+00  0.25036543886E+03  0.25036543888E+03  0.25500000000E-02 0.  1.
          2   -1    0    0  501    0  0.00000000000E+00 -0.00000000000E+00 -0.17480019849E+04  0.17480019849E+04  0.25500000000E-02 0. -1.
    8880023    1    1    2    0    0  0.30368358025E+03  0.15618060449E+03 -0.40890220721E+03  0.84712886827E+03  0.65864270000E+03 0.  1.
    8880022    1    1    2    0    0 -0.30368358025E+03 -0.15618060449E+03 -0.10887343388E+04  0.11512385555E+04  0.15294330000E+03 0.  0.
<mgrwt>
<rscale>  0 0.62521761E+03</rscale>
<asrwt>0</asrwt>
<pdfrwt beam="1">  1        2 0.26892338E+00 0.74190721E+03</pdfrwt>
<pdfrwt beam="2">  1       -2 0.38517761E-01 0.74190721E+03</pdfrwt>
<totfact> 0.60213342E+01</totfact>
</mgrwt>
</event>
<event>
 4    1  0.3057048E-007  0.6709886E+03  0.7818608E-02  0.1014964E+00
         -2   -1    0    0    0  501 -0.00000000000E+00  0.00000000000E+00  0.61964047204E+03  0.61964047204E+03  0.25500000000E-02 0.  1.
          2   -1    0    0  501    0  0.00000000000E+00 -0.00000000000E+00 -0.10767259046E+04  0.10767259046E+04  0.25500000000E-02 0. -1.
    8880023    1    1    2    0    0 -0.11559384478E+03  0.55259385594E+02  0.42350107060E+03  0.79346008073E+03  0.65864270000E+03 0.  1.
    8880022    1    1    2    0    0  0.11559384478E+03 -0.55259385594E+02 -0.88058650314E+03  0.90290629589E+03  0.15294330000E+03 0.  0.
<mgrwt>
<rscale>  0 0.49548620E+03</rscale>
<asrwt>0</asrwt>
<pdfrwt beam="1">  1        2 0.16565014E+00 0.67098863E+03</pdfrwt>
<pdfrwt beam="2">  1       -2 0.95329303E-01 0.67098863E+03</pdfrwt>
<totfact> 0.21373545E+01</totfact>
</mgrwt>
</event>
<event>
 4    1  0.3057048E-007  0.6701185E+03  0.7818608E-02  0.1015578E+00
         -2   -1    0    0    0  501 -0.00000000000E+00  0.00000000000E+00  0.41199642228E+03  0.41199642229E+03  0.25500000000E-02 0.  1.
          2   -1    0    0  501    0  0.00000000000E+00 -0.00000000000E+00 -0.74457143443E+03  0.74457143443E+03  0.25500000000E-02 0. -1.
    8880023    1    1    2    0    0  0.12103083327E+03 -0.24497323604E+02  0.10366113363E+03  0.67808879828E+03  0.65864270000E+03 0.  0.
    8880022    1    1    2    0    0 -0.12103083327E+03  0.24497323604E+02 -0.43623614578E+03  0.47847905844E+03  0.15294330000E+03 0. -1.
<mgrwt>
<rscale>  0 0.49316661E+03</rscale>
<asrwt>0</asrwt>
<pdfrwt beam="1">  1        2 0.11454945E+00 0.67011849E+03</pdfrwt>
<pdfrwt beam="2">  1       -2 0.63384065E-01 0.67011849E+03</pdfrwt>
<totfact> 0.88803274E+01</totfact>
</mgrwt>
</event>
<event>
 4    1  0.3057048E-007  0.9247284E+03  0.7818608E-02  0.9487447E-01
          2   -1    0    0  501    0  0.00000000000E+00  0.00000000000E+00  0.22494576999E+04  0.22494576999E+04  0.25500000000E-02 0. -1.
         -2   -1    0    0    0  501 -0.00000000000E+00 -0.00000000000E+00 -0.80390859899E+03  0.80390859899E+03  0.25500000000E-02 0.  1.
    8880023    1    1    2    0    0  0.44695246921E+03 -0.47068663969E+03 -0.46120688349E+03  0.10333607396E+04  0.65864270000E+03 0.  0.
    8880022    1    1    2    0    0 -0.44695246921E+03  0.47068663969E+03  0.19067559844E+04  0.20200055593E+04  0.15294330000E+03 0.  0.
<mgrwt>
<rscale>  0 0.85215685E+03</rscale>
<asrwt>0</asrwt>
<pdfrwt beam="1">  1        2 0.34607041E+00 0.92472841E+03</pdfrwt>
<pdfrwt beam="2">  1       -2 0.12367825E+00 0.92472841E+03</pdfrwt>
<totfact> 0.24166086E+00</totfact>
</mgrwt>
</event>
<event>
 4    1  0.3057048E-007  0.6963427E+03  0.7818608E-02  0.1001272E+00
         -2   -1    0    0    0  501 -0.00000000000E+00  0.00000000000E+00  0.21923514148E+03  0.21923514149E+03  0.25500000000E-02 0.  1.
          2   -1    0    0  501    0  0.00000000000E+00 -0.00000000000E+00 -0.30844012955E+04  0.30844012955E+04  0.25500000000E-02 0. -1.
    8880023    1    1    2    0    0 -0.77323062317E+02 -0.21237725687E+03 -0.36046054466E+03  0.78410775135E+03  0.65864270000E+03 0.  0.
    8880022    1    1    2    0    0  0.77323062317E+02  0.21237725687E+03 -0.25047056094E+04  0.25195286856E+04  0.15294330000E+03 0.  0.
<mgrwt>
<rscale>  0 0.55095776E+03</rscale>
<asrwt>0</asrwt>
<pdfrwt beam="1">  1        2 0.47452324E+00 0.69634270E+03</pdfrwt>
<pdfrwt beam="2">  1       -2 0.33728486E-01 0.69634270E+03</pdfrwt>
<totfact> 0.13602297E+01</totfact>
</mgrwt>
</event>
<event>
 4    1  0.3057048E-007  0.8363173E+03  0.7818608E-02  0.9637164E-01
          2   -1    0    0  501    0  0.00000000000E+00  0.00000000000E+00  0.59382193791E+03  0.59382193791E+03  0.25500000000E-02 0. -1.
         -2   -1    0    0    0  501 -0.00000000000E+00 -0.00000000000E+00 -0.79502593742E+03  0.79502593743E+03  0.25500000000E-02 0.  1.
    8880023    1    1    2    0    0 -0.49426616569E+03  0.14600457471E+03 -0.13625373023E+03  0.84734388748E+03  0.65864270000E+03 0. -1.
    8880022    1    1    2    0    0  0.49426616569E+03 -0.14600457471E+03 -0.64950269280E+02  0.54150398786E+03  0.15294330000E+03 0.  1.
<mgrwt>
<rscale>  0 0.74884518E+03</rscale>
<asrwt>0</asrwt>
<pdfrwt beam="1">  1        2 0.91357221E-01 0.83631728E+03</pdfrwt>
<pdfrwt beam="2">  1       -2 0.12231168E+00 0.83631728E+03</pdfrwt>
<totfact> 0.25581179E+01</totfact>
</mgrwt>
</event>
<event>
 4    1  0.3057048E-007  0.6736459E+03  0.7818608E-02  0.1013174E+00
          2   -1    0    0  501    0  0.00000000000E+00  0.00000000000E+00  0.15184362179E+04  0.15184362179E+04  0.25500000000E-02 0. -1.
         -2   -1    0    0    0  501 -0.00000000000E+00 -0.00000000000E+00 -0.24980321651E+03  0.24980321653E+03  0.25500000000E-02 0.  1.
    8880023    1    1    2    0    0 -0.90997797374E+02 -0.10820321999E+03  0.23442897983E+03  0.71327111871E+03  0.65864270000E+03 0.  1.
    8880022    1    1    2    0    0  0.90997797374E+02  0.10820321999E+03  0.10342040215E+04  0.10549683157E+04  0.15294330000E+03 0.  0.
<mgrwt>
<rscale>  0 0.50232543E+03</rscale>
<asrwt>0</asrwt>
<pdfrwt beam="1">  1        2 0.23360557E+00 0.67364586E+03</pdfrwt>
<pdfrwt beam="2">  1       -2 0.38431265E-01 0.67364586E+03</pdfrwt>
<totfact> 0.81437358E+01</totfact>
</mgrwt>
</event>
<event>
 4    1  0.3057048E-007  0.6938929E+03  0.7818608E-02  0.1002355E+00
          2   -1    0    0  501    0  0.00000000000E+00  0.00000000000E+00  0.20500893803E+04  0.20500893803E+04  0.25500000000E-02 0. -1.
         -2   -1    0    0    0  501 -0.00000000000E+00 -0.00000000000E+00 -0.40261641178E+03  0.40261641179E+03  0.25500000000E-02 0.  1.
    8880023    1    1    2    0    0 -0.21238944083E+03 -0.50674764533E+02 -0.85686498639E+02  0.69916349207E+03  0.65864270000E+03 0.  1.
    8880022    1    1    2    0    0  0.21238944083E+03  0.50674764533E+02  0.17331594672E+04  0.17535423000E+04  0.15294330000E+03 0.  0.
<mgrwt>
<rscale>  0 0.54629757E+03</rscale>
<asrwt>0</asrwt>
<pdfrwt beam="1">  1        2 0.31539836E+00 0.69389294E+03</pdfrwt>
<pdfrwt beam="2">  1       -2 0.61940987E-01 0.69389294E+03</pdfrwt>
<totfact> 0.15842017E+01</totfact>
</mgrwt>
</event>
<event>
 4    1  0.3057048E-007  0.7951750E+03  0.7818608E-02  0.9721327E-01
         -2   -1    0    0    0  501 -0.00000000000E+00  0.00000000000E+00  0.19409861075E+03  0.19409861077E+03  0.25500000000E-02 0.  1.
          2   -1    0    0  501    0  0.00000000000E+00 -0.00000000000E+00 -0.21742283151E+04  0.21742283151E+04  0.25500000000E-02 0. -1.
    8880023    1    1    2    0    0  0.14527394390E+03 -0.42117520706E+03 -0.97385022623E+03  0.12572539693E+04  0.65864270000E+03 0.  0.
    8880022    1    1    2    0    0 -0.14527394390E+03  0.42117520706E+03 -0.10062794781E+04  0.11110729566E+04  0.15294330000E+03 0.  0.
<mgrwt>
<rscale>  0 0.69761043E+03</rscale>
<asrwt>0</asrwt>
<pdfrwt beam="1">  1        2 0.33449665E+00 0.79517500E+03</pdfrwt>
<pdfrwt beam="2">  1       -2 0.29861326E-01 0.79517500E+03</pdfrwt>
<totfact> 0.56704392E+01</totfact>
</mgrwt>
</event>
<event>
 4    1  0.3057048E-007  0.7617010E+03  0.7818608E-02  0.9800723E-01
          2   -1    0    0  501    0  0.00000000000E+00  0.00000000000E+00  0.65614828169E+03  0.65614828169E+03  0.25500000000E-02 0. -1.
         -2   -1    0    0    0  501 -0.00000000000E+00 -0.00000000000E+00 -0.97066518098E+03  0.97066518098E+03  0.25500000000E-02 0.  1.
    8880023    1    1    2    0    0  0.38246481272E+03 -0.99450071304E+01 -0.72042426907E+03  0.10484271886E+04  0.65864270000E+03 0.  1.
    8880022    1    1    2    0    0 -0.38246481272E+03  0.99450071304E+01  0.40590736978E+03  0.57838627404E+03  0.15294330000E+03 0.  0.
<mgrwt>
<rscale>  0 0.65323732E+03</rscale>
<asrwt>0</asrwt>
<pdfrwt beam="1">  1        2 0.10094589E+00 0.76170102E+03</pdfrwt>
<pdfrwt beam="2">  1       -2 0.14933310E+00 0.76170102E+03</pdfrwt>
<totfact> 0.13657230E+01</totfact>
</mgrwt>
</event>
<event>
 4    1  0.3057048E-007  0.7363559E+03  0.7818608E-02  0.9870692E-01
          2   -1    0    0  501    0  0.00000000000E+00  0.00000000000E+00  0.16865739196E+04  0.16865739196E+04  0.25500000000E-02 0. -1.
         -2   -1    0    0    0  501 -0.00000000000E+00 -0.00000000000E+00 -0.18998183680E+03  0.18998183682E+03  0.25500000000E-02 0.  1.
    8880023    1    1    2    0    0  0.28857464677E+03 -0.15853866228E+03  0.77652641573E+03  0.10701463988E+04  0.65864270000E+03 0.  1.
    8880022    1    1    2    0    0 -0.28857464677E+03  0.15853866228E+03  0.72006566702E+03  0.80640935761E+03  0.15294330000E+03 0. -1.
<mgrwt>
<rscale>  0 0.61702943E+03</rscale>
<asrwt>0</asrwt>
<pdfrwt beam="1">  1        2 0.25947291E+00 0.73635592E+03</pdfrwt>
<pdfrwt beam="2">  1       -2 0.29227975E-01 0.73635592E+03</pdfrwt>
<totfact> 0.10969134E+02</totfact>
</mgrwt>
</event>
<event>
 4    1  0.3057048E-007  0.7879392E+03  0.7818608E-02  0.9737508E-01
          2   -1    0    0  501    0  0.00000000000E+00  0.00000000000E+00  0.26500491813E+04  0.26500491813E+04  0.25500000000E-02 0. -1.
         -2   -1    0    0    0  501 -0.00000000000E+00 -0.00000000000E+00 -0.43332776447E+03  0.43332776447E+03  0.25500000000E-02 0.  1.
    8880023    1    1    2    0    0 -0.38459129219E+03  0.19780666857E+03 -0.31759855396E+02  0.78857899721E+03  0.65864270000E+03 0.  1.
    8880022    1    1    2    0    0  0.38459129219E+03 -0.19780666857E+03  0.22484812722E+04  0.22947979485E+04  0.15294330000E+03 0.  0.
<mgrwt>
<rscale>  0 0.68826847E+03</rscale>
<asrwt>0</asrwt>
<pdfrwt beam="1">  1        2 0.40769988E+00 0.78793918E+03</pdfrwt>
<pdfrwt beam="2">  1       -2 0.66665809E-01 0.78793918E+03</pdfrwt>
<totfact> 0.61545772E+00</totfact>
</mgrwt>
</event>
<event>
 4    1  0.3057048E-007  0.9351152E+03  0.7818608E-02  0.9471861E-01
         -2   -1    0    0    0  501 -0.00000000000E+00  0.00000000000E+00  0.34739093033E+03  0.34739093034E+03  0.25500000000E-02 0.  1.
          2   -1    0    0  501    0  0.00000000000E+00 -0.00000000000E+00 -0.23817376705E+04  0.23817376705E+04  0.25500000000E-02 0. -1.
    8880023    1    1    2    0    0 -0.34192449762E+03  0.56896215476E+03 -0.52316915304E+03  0.10715159656E+04  0.65864270000E+03 0.  0.
    8880022    1    1    2    0    0  0.34192449762E+03 -0.56896215476E+03 -0.15111775872E+04  0.16576126353E+04  0.15294330000E+03 0.  0.
<mgrwt>
<rscale>  0 0.86390535E+03</rscale>
<asrwt>0</asrwt>
<pdfrwt beam="1">  1        2 0.36642117E+00 0.93511523E+03</pdfrwt>
<pdfrwt beam="2">  1       -2 0.53444760E-01 0.93511523E+03</pdfrwt>
<totfact> 0.13676692E+01</totfact>
</mgrwt>
</event>
<event>
 4    1  0.3057048E-007  0.7982604E+03  0.7818608E-02  0.9714570E-01
         -2   -1    0    0    0  501 -0.00000000000E+00  0.00000000000E+00  0.25058329937E+03  0.25058329939E+03  0.25500000000E-02 0.  1.
          2   -1    0    0  501    0  0.00000000000E+00 -0.00000000000E+00 -0.19614848170E+04  0.19614848170E+04  0.25500000000E-02 0. -1.
    8880023    1    1    2    0    0  0.43930443504E+03  0.10208342796E+03 -0.14828125023E+04  0.16840286625E+04  0.65864270000E+03 0. -1.
    8880022    1    1    2    0    0 -0.43930443504E+03 -0.10208342796E+03 -0.22808901530E+03  0.52803945385E+03  0.15294330000E+03 0.  0.
<mgrwt>
<rscale>  0 0.70155878E+03</rscale>
<asrwt>0</asrwt>
<pdfrwt beam="1">  1        2 0.30176689E+00 0.79826037E+03</pdfrwt>
<pdfrwt beam="2">  1       -2 0.38551278E-01 0.79826037E+03</pdfrwt>
<totfact> 0.45681840E+01</totfact>
</mgrwt>
</event>
<event>
 4    1  0.3057048E-007  0.6760441E+03  0.7818608E-02  0.1011656E+00
          2   -1    0    0  501    0  0.00000000000E+00  0.00000000000E+00  0.22821888166E+04  0.22821888166E+04  0.25500000000E-02 0. -1.
         -2   -1    0    0    0  501 -0.00000000000E+00 -0.00000000000E+00 -0.99917680753E+02  0.99917680785E+02  0.25500000000E-02 0.  1.
    8880023    1    1    2    0    0  0.34145958703E+01  0.15236062858E+03  0.12090305157E+04  0.13852041058E+04  0.65864270000E+03 0.  1.
    8880022    1    1    2    0    0 -0.34145958703E+01 -0.15236062858E+03  0.97324062016E+03  0.99690239159E+03  0.15294330000E+03 0.  0.
<mgrwt>
<rscale>  0 0.50821724E+03</rscale>
<asrwt>0</asrwt>
<pdfrwt beam="1">  1        2 0.35110596E+00 0.67604410E+03</pdfrwt>
<pdfrwt beam="2">  1       -2 0.15371951E-01 0.67604410E+03</pdfrwt>
<totfact> 0.16213324E+02</totfact>
</mgrwt>
</event>
<event>
 4    1  0.3057048E-007  0.8855199E+03  0.7818608E-02  0.9549688E-01
          2   -1    0    0  501    0  0.00000000000E+00  0.00000000000E+00  0.11050187311E+04  0.11050187311E+04  0.25500000000E-02 0. -1.
         -2   -1    0    0    0  501 -0.00000000000E+00 -0.00000000000E+00 -0.83217073163E+03  0.83217073163E+03  0.25500000000E-02 0.  1.
    8880023    1    1    2    0    0  0.54687879884E+03  0.22640429513E+03 -0.44768884846E+03  0.99225542920E+03  0.65864270000E+03 0.  0.
    8880022    1    1    2    0    0 -0.54687879884E+03 -0.22640429513E+03  0.72053684789E+03  0.94493403349E+03  0.15294330000E+03 0.  0.
<mgrwt>
<rscale>  0 0.80717566E+03</rscale>
<asrwt>0</asrwt>
<pdfrwt beam="1">  1        2 0.17000288E+00 0.88551992E+03</pdfrwt>
<pdfrwt beam="2">  1       -2 0.12802627E+00 0.88551992E+03</pdfrwt>
<totfact> 0.97965472E+00</totfact>
</mgrwt>
</event>
<event>
 4    1  0.3057048E-007  0.8048908E+03  0.7818608E-02  0.9700319E-01
         -2   -1    0    0    0  501 -0.00000000000E+00  0.00000000000E+00  0.18491982700E+04  0.18491982700E+04  0.25500000000E-02 0.  1.
          2   -1    0    0  501    0  0.00000000000E+00 -0.00000000000E+00 -0.56613356229E+03  0.56613356230E+03  0.25500000000E-02 0. -1.
    8880023    1    1    2    0    0  0.31705073858E+03 -0.33692394435E+03  0.16295092882E+04  0.18174569160E+04  0.65864270000E+03 0.  0.
    8880022    1    1    2    0    0 -0.31705073858E+03  0.33692394435E+03 -0.34644458049E+03  0.59787491625E+03  0.15294330000E+03 0.  0.
<mgrwt>
<rscale>  0 0.70997782E+03</rscale>
<asrwt>0</asrwt>
<pdfrwt beam="1">  1        2 0.87097471E-01 0.80489075E+03</pdfrwt>
<pdfrwt beam="2">  1       -2 0.28449204E+00 0.80489075E+03</pdfrwt>
<totfact> 0.21650877E+00</totfact>
</mgrwt>
</event>
<event>
 4    1  0.3057048E-007  0.1075430E+04  0.7818608E-02  0.9288918E-01
          2   -1    0    0  501    0  0.00000000000E+00  0.00000000000E+00  0.33086444331E+04  0.33086444331E+04  0.25500000000E-02 0. -1.
         -2   -1    0    0    0  501 -0.00000000000E+00 -0.00000000000E+00 -0.50633329216E+03  0.50633329217E+03  0.25500000000E-02 0.  1.
    8880023    1    1    2    0    0  0.22004639759E+03 -0.82116915857E+03  0.22762304241E+03  0.10992550476E+04  0.65864270000E+03 0.  0.
    8880022    1    1    2    0    0 -0.22004639759E+03  0.82116915857E+03  0.25746880986E+04  0.27157226777E+04  0.15294330000E+03 0.  0.
<mgrwt>
<rscale>  0 0.10180953E+04</rscale>
<asrwt>0</asrwt>
<pdfrwt beam="1">  1        2 0.50902220E+00 0.10754299E+04</pdfrwt>
<pdfrwt beam="2">  1       -2 0.77897433E-01 0.10754299E+04</pdfrwt>
<totfact> 0.16411386E+00</totfact>
</mgrwt>
</event>
<event>
 4    1  0.3057048E-007  0.6717030E+03  0.7818608E-02  0.1014470E+00
         -2   -1    0    0    0  501 -0.00000000000E+00  0.00000000000E+00  0.10899565799E+03  0.10899565802E+03  0.25500000000E-02 0.  1.
          2   -1    0    0  501    0  0.00000000000E+00 -0.00000000000E+00 -0.31019799121E+04  0.31019799121E+04  0.25500000000E-02 0. -1.
    8880023    1    1    2    0    0 -0.12723439917E+03 -0.34439999037E+02 -0.98123878771E+03  0.11891234043E+04  0.65864270000E+03 0.  1.
    8880022    1    1    2    0    0  0.12723439917E+03  0.34439999037E+02 -0.20117454664E+04  0.20218521658E+04  0.15294330000E+03 0.  0.
<mgrwt>
<rscale>  0 0.49735983E+03</rscale>
<asrwt>0</asrwt>
<pdfrwt beam="1">  1        2 0.47722761E+00 0.67170299E+03</pdfrwt>
<pdfrwt beam="2">  1       -2 0.16768565E-01 0.67170299E+03</pdfrwt>
<totfact> 0.46627549E+01</totfact>
</mgrwt>
</event>
<event>
 4    1  0.3057048E-007  0.7206999E+03  0.7818608E-02  0.9920225E-01
          2   -1    0    0  501    0  0.00000000000E+00  0.00000000000E+00  0.17119533824E+04  0.17119533824E+04  0.25500000000E-02 0. -1.
         -2   -1    0    0    0  501 -0.00000000000E+00 -0.00000000000E+00 -0.19671666275E+03  0.19671666277E+03  0.25500000000E-02 0.  1.
    8880023    1    1    2    0    0  0.25426036765E+03  0.14474041385E+03  0.60689299341E+03  0.94219288560E+03  0.65864270000E+03 0.  1.
    8880022    1    1    2    0    0 -0.25426036765E+03 -0.14474041385E+03  0.90834372627E+03  0.96647715960E+03  0.15294330000E+03 0. -1.
<mgrwt>
<rscale>  0 0.59291039E+03</rscale>
<asrwt>0</asrwt>
<pdfrwt beam="1">  1        2 0.26337743E+00 0.72069989E+03</pdfrwt>
<pdfrwt beam="2">  1       -2 0.30264104E-01 0.72069989E+03</pdfrwt>
<totfact> 0.99752776E+01</totfact>
</mgrwt>
</event>
<event>
 4    1  0.3057048E-007  0.9187332E+03  0.7818608E-02  0.9496604E-01
         -2   -1    0    0    0  501 -0.00000000000E+00  0.00000000000E+00  0.11650822455E+04  0.11650822455E+04  0.25500000000E-02 0.  1.
          2   -1    0    0  501    0  0.00000000000E+00 -0.00000000000E+00 -0.59656388043E+03  0.59656388044E+03  0.25500000000E-02 0. -1.
    8880023    1    1    2    0    0  0.62157657135E+03 -0.15460601792E+03  0.60839972708E+03  0.11019169157E+04  0.65864270000E+03 0. -1.
    8880022    1    1    2    0    0 -0.62157657135E+03  0.15460601792E+03 -0.39881362031E+02  0.65972921027E+03  0.15294330000E+03 0.  0.
<mgrwt>
<rscale>  0 0.84534645E+03</rscale>
<asrwt>0</asrwt>
<pdfrwt beam="1">  1        2 0.91779059E-01 0.91873318E+03</pdfrwt>
<pdfrwt beam="2">  1       -2 0.17924342E+00 0.91873318E+03</pdfrwt>
<totfact> 0.91698825E+00</totfact>
</mgrwt>
</event>
<event>
 4    1  0.3057048E-007  0.8682836E+03  0.7818608E-02  0.9578995E-01
          2   -1    0    0  501    0  0.00000000000E+00  0.00000000000E+00  0.11380620443E+04  0.11380620443E+04  0.25500000000E-02 0. -1.
         -2   -1    0    0    0  501 -0.00000000000E+00 -0.00000000000E+00 -0.53141235196E+03  0.53141235197E+03  0.25500000000E-02 0.  1.
    8880023    1    1    2    0    0  0.55250308019E+03  0.12184645593E+03  0.64574842237E+03  0.10820847673E+04  0.65864270000E+03 0.  0.
    8880022    1    1    2    0    0 -0.55250308019E+03 -0.12184645593E+03 -0.39098730059E+02  0.58738962890E+03  0.15294330000E+03 0. -1.
<mgrwt>
<rscale>  0 0.78702170E+03</rscale>
<asrwt>0</asrwt>
<pdfrwt beam="1">  1        2 0.17508647E+00 0.86828360E+03</pdfrwt>
<pdfrwt beam="2">  1       -2 0.81755748E-01 0.86828360E+03</pdfrwt>
<totfact> 0.27348075E+01</totfact>
</mgrwt>
</event>
<event>
 4    1  0.3057048E-007  0.6811531E+03  0.7818608E-02  0.1008679E+00
         -2   -1    0    0    0  501 -0.00000000000E+00  0.00000000000E+00  0.14251482639E+03  0.14251482641E+03  0.25500000000E-02 0.  1.
          2   -1    0    0  501    0  0.00000000000E+00 -0.00000000000E+00 -0.18360211493E+04  0.18360211493E+04  0.25500000000E-02 0. -1.
    8880023    1    1    2    0    0 -0.17332893955E+03  0.10787993182E+02 -0.77713188528E+03  0.10333941530E+04  0.65864270000E+03 0.  1.
    8880022    1    1    2    0    0  0.17332893955E+03 -0.10787993182E+02 -0.91637443763E+03  0.94514182271E+03  0.15294330000E+03 0.  0.
<mgrwt>
<rscale>  0 0.52003125E+03</rscale>
<asrwt>0</asrwt>
<pdfrwt beam="1">  1        2 0.28246478E+00 0.68115307E+03</pdfrwt>
<pdfrwt beam="2">  1       -2 0.21925359E-01 0.68115307E+03</pdfrwt>
<totfact> 0.15368931E+02</totfact>
</mgrwt>
</event>
<event>
 4    1  0.3057048E-007  0.1645030E+04  0.7818608E-02  0.8813481E-01
         -2   -1    0    0    0  501 -0.00000000000E+00  0.00000000000E+00  0.22541016339E+04  0.22541016339E+04  0.25500000000E-02 0.  1.
          2   -1    0    0  501    0  0.00000000000E+00 -0.00000000000E+00 -0.19039252070E+04  0.19039252070E+04  0.25500000000E-02 0. -1.
    8880023    1    1    2    0    0 -0.14204848620E+04 -0.50451527532E+03  0.15231451769E+04  0.22418952568E+04  0.65864270000E+03 0.  0.
    8880022    1    1    2    0    0  0.14204848620E+04  0.50451527532E+03 -0.11729687500E+04  0.19161315841E+04  0.15294330000E+03 0.  0.
<mgrwt>
<rscale>  0 0.16115539E+04</rscale>
<asrwt>0</asrwt>
<pdfrwt beam="1">  1        2 0.29291157E+00 0.16450298E+04</pdfrwt>
<pdfrwt beam="2">  1       -2 0.34678487E+00 0.16450298E+04</pdfrwt>
<totfact> 0.11370968E-01</totfact>
</mgrwt>
</event>
<event>
 4    1  0.3057048E-007  0.6660922E+03  0.7818608E-02  0.1018634E+00
          2   -1    0    0  501    0  0.00000000000E+00  0.00000000000E+00  0.23437098012E+04  0.23437098012E+04  0.25500000000E-02 0. -1.
         -2   -1    0    0    0  501 -0.00000000000E+00 -0.00000000000E+00 -0.11740706132E+03  0.11740706134E+03  0.25500000000E-02 0.  1.
    8880023    1    1    2    0    0  0.32248998971E+02 -0.93960396362E+02  0.88596198956E+03  0.11084256435E+04  0.65864270000E+03 0.  1.
    8880022    1    1    2    0    0 -0.32248998971E+02  0.93960396362E+02  0.13403407504E+04  0.13526912191E+04  0.15294330000E+03 0.  0.
<mgrwt>
<rscale>  0 0.48182725E+03</rscale>
<asrwt>0</asrwt>
<pdfrwt beam="1">  1        2 0.36057070E+00 0.66609216E+03</pdfrwt>
<pdfrwt beam="2">  1       -2 0.18062627E-01 0.66609216E+03</pdfrwt>
<totfact> 0.11392921E+02</totfact>
</mgrwt>
</event>
<event>
 4    1  0.3057048E-007  0.1198258E+04  0.7818608E-02  0.9158817E-01
          2   -1    0    0  501    0  0.00000000000E+00  0.00000000000E+00  0.86198850512E+03  0.86198850513E+03  0.25500000000E-02 0. -1.
         -2   -1    0    0    0  501 -0.00000000000E+00 -0.00000000000E+00 -0.14462828243E+04  0.14462828243E+04  0.25500000000E-02 0.  1.
    8880023    1    1    2    0    0 -0.18803546014E+03 -0.98318632208E+03 -0.47801917564E+03  0.12900872904E+04  0.65864270000E+03 0.  0.
    8880022    1    1    2    0    0  0.18803546014E+03  0.98318632208E+03 -0.10627514350E+03  0.10181840390E+04  0.15294330000E+03 0.  0.
<mgrwt>
<rscale>  0 0.11488801E+04</rscale>
<asrwt>0</asrwt>
<pdfrwt beam="1">  1        2 0.13261362E+00 0.11982583E+04</pdfrwt>
<pdfrwt beam="2">  1       -2 0.22250505E+00 0.11982583E+04</pdfrwt>
<totfact> 0.28917890E+00</totfact>
</mgrwt>
</event>
<event>
 4    1  0.3057048E-007  0.1098909E+04  0.7818608E-02  0.9262271E-01
          2   -1    0    0  501    0  0.00000000000E+00  0.00000000000E+00  0.23880601091E+04  0.23880601091E+04  0.25500000000E-02 0. -1.
         -2   -1    0    0    0  501 -0.00000000000E+00 -0.00000000000E+00 -0.47202192531E+03  0.47202192532E+03  0.25500000000E-02 0.  1.
    8880023    1    1    2    0    0 -0.96789573357E+02 -0.87431295706E+03  0.55186387529E+03  0.12296972438E+04  0.65864270000E+03 0.  0.
    8880022    1    1    2    0    0  0.96789573357E+02  0.87431295706E+03  0.13641743085E+04  0.16303847906E+04  0.15294330000E+03 0.  1.
<mgrwt>
<rscale>  0 0.10433166E+04</rscale>
<asrwt>0</asrwt>
<pdfrwt beam="1">  1        2 0.36739387E+00 0.10989093E+04</pdfrwt>
<pdfrwt beam="2">  1       -2 0.72618757E-01 0.10989093E+04</pdfrwt>
<totfact> 0.69051914E+00</totfact>
</mgrwt>
</event>
<event>
 4    1  0.4198389E-007  0.6982177E+03  0.7818608E-02  0.1000468E+00
          2   -1    0    0  501    0  0.00000000000E+00  0.00000000000E+00  0.31491422121E+04  0.31491422121E+04  0.25500000000E-02 0. -1.
         -2   -1    0    0    0  501 -0.00000000000E+00 -0.00000000000E+00 -0.73974833968E+03  0.73974833968E+03  0.25500000000E-02 0.  1.
    8880023    1    1    2    0    0 -0.12506023850E+03 -0.19508377840E+03 -0.56708118777E+03  0.89949375964E+03  0.65864270000E+03 0.  1.
    8880022    1    1    2    0    0  0.12506023850E+03  0.19508377840E+03  0.29764750602E+04  0.29893967921E+04  0.15294330000E+03 0.  0.
<mgrwt>
<rscale>  0 0.55445649E+03</rscale>
<asrwt>0</asrwt>
<pdfrwt beam="1">  1        2 0.48448340E+00 0.69821770E+03</pdfrwt>
<pdfrwt beam="2">  1       -2 0.11380744E+00 0.69821770E+03</pdfrwt>
<totfact> 0.92030146E-01</totfact>
</mgrwt>
</event>
<event>
 4    1  0.3057048E-007  0.8669022E+03  0.7818608E-02  0.9581402E-01
          2   -1    0    0  501    0  0.00000000000E+00  0.00000000000E+00  0.17495885354E+04  0.17495885354E+04  0.25500000000E-02 0. -1.
         -2   -1    0    0    0  501 -0.00000000000E+00 -0.00000000000E+00 -0.33980224346E+03  0.33980224347E+03  0.25500000000E-02 0.  1.
    8880023    1    1    2    0    0 -0.36614823026E+03 -0.42853782328E+03  0.47869834888E+03  0.99028859834E+03  0.65864270000E+03 0.  1.
    8880022    1    1    2    0    0  0.36614823026E+03  0.42853782328E+03  0.93108794302E+03  0.10991021805E+04  0.15294330000E+03 0.  0.
<mgrwt>
<rscale>  0 0.78539462E+03</rscale>
<asrwt>0</asrwt>
<pdfrwt beam="1">  1        2 0.26916746E+00 0.86690219E+03</pdfrwt>
<pdfrwt beam="2">  1       -2 0.52277269E-01 0.86690219E+03</pdfrwt>
<totfact> 0.32230561E+01</totfact>
</mgrwt>
</event>
<event>
 4    1  0.3057048E-007  0.7457924E+03  0.7818608E-02  0.9843385E-01
         -2   -1    0    0    0  501 -0.00000000000E+00  0.00000000000E+00  0.41668254155E+03  0.41668254156E+03  0.25500000000E-02 0.  1.
          2   -1    0    0  501    0  0.00000000000E+00 -0.00000000000E+00 -0.21924157524E+04  0.21924157524E+04  0.25500000000E-02 0. -1.
    8880023    1    1    2    0    0  0.29502244575E+03 -0.18803666759E+03  0.46549680129E+02  0.74724367568E+03  0.65864270000E+03 0.  0.
    8880022    1    1    2    0    0 -0.29502244575E+03  0.18803666759E+03 -0.18222828910E+04  0.18618546183E+04  0.15294330000E+03 0.  0.
<mgrwt>
<rscale>  0 0.63085355E+03</rscale>
<asrwt>0</asrwt>
<pdfrwt beam="1">  1        2 0.33729472E+00 0.74579236E+03</pdfrwt>
<pdfrwt beam="2">  1       -2 0.64105008E-01 0.74579236E+03</pdfrwt>
<totfact> 0.12204194E+01</totfact>
</mgrwt>
</event>
<event>
 4    1  0.3057048E-007  0.7991277E+03  0.7818608E-02  0.9712685E-01
         -2   -1    0    0    0  501 -0.00000000000E+00  0.00000000000E+00  0.39579029397E+03  0.39579029398E+03  0.25500000000E-02 0.  1.
          2   -1    0    0  501    0  0.00000000000E+00 -0.00000000000E+00 -0.21528196112E+04  0.21528196112E+04  0.25500000000E-02 0. -1.
    8880023    1    1    2    0    0 -0.17524763728E+03  0.41723275913E+03 -0.77970665875E+02  0.80292249979E+03  0.65864270000E+03 0.  0.
    8880022    1    1    2    0    0  0.17524763728E+03 -0.41723275913E+03 -0.16790586513E+04  0.17456874054E+04  0.15294330000E+03 0.  0.
<mgrwt>
<rscale>  0 0.70266514E+03</rscale>
<asrwt>0</asrwt>
<pdfrwt beam="1">  1        2 0.33120301E+00 0.79912772E+03</pdfrwt>
<pdfrwt beam="2">  1       -2 0.60890816E-01 0.79912772E+03</pdfrwt>
<totfact> 0.14207806E+01</totfact>
</mgrwt>
</event>
<event>
 4    1  0.3057048E-007  0.7440105E+03  0.7818608E-02  0.9848415E-01
          2   -1    0    0  501    0  0.00000000000E+00  0.00000000000E+00  0.56459005307E+03  0.56459005308E+03  0.25500000000E-02 0. -1.
         -2   -1    0    0    0  501 -0.00000000000E+00 -0.00000000000E+00 -0.12700368491E+04  0.12700368491E+04  0.25500000000E-02 0.  1.
    8880023    1    1    2    0    0 -0.20249655907E+03  0.28060041210E+03 -0.10739495037E+04  0.13064911750E+04  0.65864270000E+03 0.  0.
    8880022    1    1    2    0    0  0.20249655907E+03 -0.28060041210E+03  0.36850270767E+03  0.52813572714E+03  0.15294330000E+03 0.  0.
<mgrwt>
<rscale>  0 0.62827795E+03</rscale>
<asrwt>0</asrwt>
<pdfrwt beam="1">  1        2 0.86860008E-01 0.74401052E+03</pdfrwt>
<pdfrwt beam="2">  1       -2 0.19539028E+00 0.74401052E+03</pdfrwt>
<totfact> 0.77639261E+00</totfact>
</mgrwt>
</event>
<event>
 4    1  0.3057048E-007  0.7628088E+03  0.7818608E-02  0.9797889E-01
         -2   -1    0    0    0  501 -0.00000000000E+00  0.00000000000E+00  0.21480207958E+03  0.21480207959E+03  0.25500000000E-02 0.  1.
          2   -1    0    0  501    0  0.00000000000E+00 -0.00000000000E+00 -0.25315929748E+04  0.25315929748E+04  0.25500000000E-02 0. -1.
    8880023    1    1    2    0    0  0.36314841291E+03 -0.12724114617E+03 -0.57281648129E+03  0.95393710830E+03  0.65864270000E+03 0.  0.
    8880022    1    1    2    0    0 -0.36314841291E+03  0.12724114617E+03 -0.17439744140E+04  0.17924579461E+04  0.15294330000E+03 0.  1.
<mgrwt>
<rscale>  0 0.65475938E+03</rscale>
<asrwt>0</asrwt>
<pdfrwt beam="1">  1        2 0.38947582E+00 0.76280881E+03</pdfrwt>
<pdfrwt beam="2">  1       -2 0.33046476E-01 0.76280881E+03</pdfrwt>
<totfact> 0.29727593E+01</totfact>
</mgrwt>
</event>
<event>
 4    1  0.3057048E-007  0.9970762E+03  0.7818608E-02  0.9385393E-01
          2   -1    0    0  501    0  0.00000000000E+00  0.00000000000E+00  0.13263328495E+04  0.13263328495E+04  0.25500000000E-02 0. -1.
         -2   -1    0    0    0  501 -0.00000000000E+00 -0.00000000000E+00 -0.77254557768E+03  0.77254557768E+03  0.25500000000E-02 0.  1.
    8880023    1    1    2    0    0 -0.27436505223E+03 -0.69647292669E+03 -0.20955884128E+03  0.10188600658E+04  0.65864270000E+03 0.  1.
    8880022    1    1    2    0    0  0.27436505223E+03  0.69647292669E+03  0.76334611312E+03  0.10800183614E+04  0.15294330000E+03 0.  0.
<mgrwt>
<rscale>  0 0.93287598E+03</rscale>
<asrwt>0</asrwt>
<pdfrwt beam="1">  1        2 0.20405121E+00 0.99707619E+03</pdfrwt>
<pdfrwt beam="2">  1       -2 0.11885316E+00 0.99707619E+03</pdfrwt>
<totfact> 0.86213560E+00</totfact>
</mgrwt>
</event>
<event>
 4    1  0.3057048E-007  0.1110052E+04  0.7818608E-02  0.9249946E-01
         -2   -1    0    0    0  501 -0.00000000000E+00  0.00000000000E+00  0.85124592085E+03  0.85124592085E+03  0.25500000000E-02 0.  1.
          2   -1    0    0  501    0  0.00000000000E+00 -0.00000000000E+00 -0.22795617320E+04  0.22795617320E+04  0.25500000000E-02 0. -1.
    8880023    1    1    2    0    0 -0.35935668452E+03  0.81808851433E+03  0.32529911412E+03  0.11567349584E+04  0.65864270000E+03 0.  0.
    8880022    1    1    2    0    0  0.35935668452E+03 -0.81808851433E+03 -0.17536149253E+04  0.19740726945E+04  0.15294330000E+03 0.  0.
<mgrwt>
<rscale>  0 0.10552448E+04</rscale>
<asrwt>0</asrwt>
<pdfrwt beam="1">  1        2 0.35070180E+00 0.11100524E+04</pdfrwt>
<pdfrwt beam="2">  1       -2 0.13096091E+00 0.11100524E+04</pdfrwt>
<totfact> 0.19608572E+00</totfact>
</mgrwt>
</event>
<event>
 4    1  0.3057048E-007  0.9539515E+03  0.7818608E-02  0.9444451E-01
          2   -1    0    0  501    0  0.00000000000E+00  0.00000000000E+00  0.95358359063E+03  0.95358359063E+03  0.25500000000E-02 0. -1.
         -2   -1    0    0    0  501 -0.00000000000E+00 -0.00000000000E+00 -0.92925311196E+03  0.92925311196E+03  0.25500000000E-02 0.  1.
    8880023    1    1    2    0    0 -0.28149504761E+03 -0.63005862130E+03 -0.42599320067E+03  0.10447457784E+04  0.65864270000E+03 0.  1.
    8880022    1    1    2    0    0  0.28149504761E+03  0.63005862130E+03  0.45032367934E+03  0.83809092424E+03  0.15294330000E+03 0.  0.
<mgrwt>
<rscale>  0 0.88506074E+03</rscale>
<asrwt>0</asrwt>
<pdfrwt beam="1">  1        2 0.14670517E+00 0.95395154E+03</pdfrwt>
<pdfrwt beam="2">  1       -2 0.14296202E+00 0.95395154E+03</pdfrwt>
<totfact> 0.91437835E+00</totfact>
</mgrwt>
</event>
<event>
 4    1  0.3057048E-007  0.6618796E+03  0.7818608E-02  0.1022308E+00
         -2   -1    0    0    0  501 -0.00000000000E+00  0.00000000000E+00  0.10105215843E+03  0.10105215847E+03  0.25500000000E-02 0.  1.
          2   -1    0    0  501    0  0.00000000000E+00 -0.00000000000E+00 -0.17217839226E+04  0.17217839226E+04  0.25500000000E-02 0. -1.
    8880023    1    1    2    0    0 -0.64694194559E+02  0.94375411418E+01 -0.12002457989E+04  0.13706475076E+04  0.65864270000E+03 0.  0.
    8880022    1    1    2    0    0  0.64694194559E+02 -0.94375411418E+01 -0.42048596532E+03  0.45218857354E+03  0.15294330000E+03 0.  1.
<mgrwt>
<rscale>  0 0.46862738E+03</rscale>
<asrwt>0</asrwt>
<pdfrwt beam="1">  1        2 0.26488981E+00 0.66187961E+03</pdfrwt>
<pdfrwt beam="2">  1       -2 0.15546487E-01 0.66187961E+03</pdfrwt>
<totfact> 0.32196878E+02</totfact>
</mgrwt>
</event>
<event>
 4    1  0.3057048E-007  0.8352120E+03  0.7818608E-02  0.9639275E-01
         -2   -1    0    0    0  501 -0.00000000000E+00  0.00000000000E+00  0.74618708663E+03  0.74618708663E+03  0.25500000000E-02 0.  1.
          2   -1    0    0  501    0  0.00000000000E+00 -0.00000000000E+00 -0.78528061648E+03  0.78528061648E+03  0.25500000000E-02 0. -1.
    8880023    1    1    2    0    0 -0.51311353351E+03 -0.21986210054E+02  0.31114965867E+03  0.89128738803E+03  0.65864270000E+03 0.  0.
    8880022    1    1    2    0    0  0.51311353351E+03  0.21986210054E+02 -0.35024318853E+03  0.64018031509E+03  0.15294330000E+03 0.  0.
<mgrwt>
<rscale>  0 0.74750335E+03</rscale>
<asrwt>0</asrwt>
<pdfrwt beam="1">  1        2 0.12081240E+00 0.83521201E+03</pdfrwt>
<pdfrwt beam="2">  1       -2 0.11479801E+00 0.83521201E+03</pdfrwt>
<totfact> 0.21046021E+01</totfact>
</mgrwt>
</event>
<event>
 4    1  0.3057048E-007  0.6660065E+03  0.7818608E-02  0.1018704E+00
         -2   -1    0    0    0  501 -0.00000000000E+00  0.00000000000E+00  0.66103504984E+03  0.66103504984E+03  0.25500000000E-02 0.  1.
          2   -1    0    0  501    0  0.00000000000E+00 -0.00000000000E+00 -0.12466037321E+04  0.12466037321E+04  0.25500000000E-02 0. -1.
    8880023    1    1    2    0    0  0.49260278563E+02 -0.85603079960E+02  0.48361043677E+03  0.82306969520E+03  0.65864270000E+03 0.  1.
    8880022    1    1    2    0    0 -0.49260278563E+02  0.85603079960E+02 -0.10691791190E+04  0.10845690868E+04  0.15294330000E+03 0.  0.
<mgrwt>
<rscale>  0 0.48157389E+03</rscale>
<asrwt>0</asrwt>
<pdfrwt beam="1">  1        2 0.19178519E+00 0.66600651E+03</pdfrwt>
<pdfrwt beam="2">  1       -2 0.10169770E+00 0.66600651E+03</pdfrwt>
<totfact> 0.14539480E+01</totfact>
</mgrwt>
</event>
<event>
 4    1  0.3057048E-007  0.6681984E+03  0.7818608E-02  0.1016989E+00
         -2   -1    0    0    0  501 -0.00000000000E+00  0.00000000000E+00  0.11223935780E+04  0.11223935780E+04  0.25500000000E-02 0.  1.
          2   -1    0    0  501    0  0.00000000000E+00 -0.00000000000E+00 -0.65255528690E+03  0.65255528691E+03  0.25500000000E-02 0. -1.
    8880023    1    1    2    0    0 -0.97119393164E+02 -0.56980289516E+02  0.10051263924E+04  0.12069665285E+04  0.65864270000E+03 0.  1.
    8880022    1    1    2    0    0  0.97119393164E+02  0.56980289516E+02 -0.53528810138E+03  0.56798233636E+03  0.15294330000E+03 0.  0.
<mgrwt>
<rscale>  0 0.48789148E+03</rscale>
<asrwt>0</asrwt>
<pdfrwt beam="1">  1        2 0.10039312E+00 0.66819843E+03</pdfrwt>
<pdfrwt beam="2">  1       -2 0.17267593E+00 0.66819843E+03</pdfrwt>
<totfact> 0.93731954E+00</totfact>
</mgrwt>
</event>
<event>
 4    1  0.3682177E-007  0.8526591E+03  0.7818608E-02  0.9606757E-01
         -2   -1    0    0    0  501 -0.00000000000E+00  0.00000000000E+00  0.20903660317E+04  0.20903660317E+04  0.25500000000E-02 0.  1.
          2   -1    0    0  501    0  0.00000000000E+00 -0.00000000000E+00 -0.14268333157E+04  0.14268333157E+04  0.25500000000E-02 0. -1.
    8880023    1    1    2    0    0 -0.10898586892E+03  0.53041442307E+03  0.19416967358E+04  0.21206635282E+04  0.65864270000E+03 0.  1.
    8880022    1    1    2    0    0  0.10898586892E+03 -0.53041442307E+03 -0.12781640198E+04  0.13965358192E+04  0.15294330000E+03 0.  0.
<mgrwt>
<rscale>  0 0.76850553E+03</rscale>
<asrwt>0</asrwt>
<pdfrwt beam="1">  1        2 0.21951282E+00 0.85265913E+03</pdfrwt>
<pdfrwt beam="2">  1       -2 0.32159477E+00 0.85265913E+03</pdfrwt>
<totfact> 0.33866520E-01</totfact>
</mgrwt>
</event>
<event>
 4    1  0.3057048E-007  0.6885681E+03  0.7818608E-02  0.1004841E+00
         -2   -1    0    0    0  501 -0.00000000000E+00  0.00000000000E+00  0.28783111046E+03  0.28783111047E+03  0.25500000000E-02 0.  1.
          2   -1    0    0  501    0  0.00000000000E+00 -0.00000000000E+00 -0.21272681749E+04  0.21272681749E+04  0.25500000000E-02 0. -1.
    8880023    1    1    2    0    0  0.76654390037E+02 -0.18557982122E+03 -0.14717941693E+03  0.70412197281E+03  0.65864270000E+03 0.  1.
    8880022    1    1    2    0    0 -0.76654390037E+02  0.18557982122E+03 -0.16922576475E+04  0.17109773126E+04  0.15294330000E+03 0.  0.
<mgrwt>
<rscale>  0 0.53577680E+03</rscale>
<asrwt>0</asrwt>
<pdfrwt beam="1">  1        2 0.32727202E+00 0.68856806E+03</pdfrwt>
<pdfrwt beam="2">  1       -2 0.44281711E-01 0.68856806E+03</pdfrwt>
<totfact> 0.28655606E+01</totfact>
</mgrwt>
</event>
<event>
 4    1  0.3057048E-007  0.7560986E+03  0.7818608E-02  0.9815314E-01
          2   -1    0    0  501    0  0.00000000000E+00  0.00000000000E+00  0.10725082432E+04  0.10725082432E+04  0.25500000000E-02 0. -1.
         -2   -1    0    0    0  501 -0.00000000000E+00 -0.00000000000E+00 -0.10392710245E+04  0.10392710245E+04  0.25500000000E-02 0.  1.
    8880023    1    1    2    0    0  0.36707776177E+03  0.55935957293E+02 -0.85235930555E+03  0.11393864606E+04  0.65864270000E+03 0.  1.
    8880022    1    1    2    0    0 -0.36707776177E+03 -0.55935957293E+02  0.88559652423E+03  0.97239280708E+03  0.15294330000E+03 0.  0.
<mgrwt>
<rscale>  0 0.64547121E+03</rscale>
<asrwt>0</asrwt>
<pdfrwt beam="1">  1        2 0.16500127E+00 0.75609862E+03</pdfrwt>
<pdfrwt beam="2">  1       -2 0.15988785E+00 0.75609862E+03</pdfrwt>
<totfact> 0.58295833E+00</totfact>
</mgrwt>
</event>
<event>
 4    1  0.3057048E-007  0.6593173E+03  0.7818608E-02  0.1024867E+00
         -2   -1    0    0    0  501 -0.00000000000E+00  0.00000000000E+00  0.16251909731E+03  0.16251909733E+03  0.25500000000E-02 0.  1.
          2   -1    0    0  501    0  0.00000000000E+00 -0.00000000000E+00 -0.10239257746E+04  0.10239257747E+04  0.25500000000E-02 0. -1.
    8880023    1    1    2    0    0 -0.21860451882E+02 -0.20276953816E+02 -0.71589745431E+03  0.97324632317E+03  0.65864270000E+03 0.  0.
    8880022    1    1    2    0    0  0.21860451882E+02  0.20276953816E+02 -0.14550922303E+03  0.21319854881E+03  0.15294330000E+03 0. -1.
<mgrwt>
<rscale>  0 0.45970418E+03</rscale>
<asrwt>0</asrwt>
<pdfrwt beam="1">  1        2 0.15752704E+00 0.65931725E+03</pdfrwt>
<pdfrwt beam="2">  1       -2 0.25002939E-01 0.65931725E+03</pdfrwt>
<totfact> 0.35263301E+02</totfact>
</mgrwt>
</event>
<event>
 4    1  0.3057048E-007  0.7366764E+03  0.7818608E-02  0.9869736E-01
          2   -1    0    0  501    0  0.00000000000E+00  0.00000000000E+00  0.39570954926E+04  0.39570954926E+04  0.25500000000E-02 0. -1.
         -2   -1    0    0    0  501 -0.00000000000E+00 -0.00000000000E+00 -0.12008079128E+03  0.12008079131E+03  0.25500000000E-02 0.  1.
    8880023    1    1    2    0    0  0.22134559502E+03 -0.24472040730E+03  0.11504068828E+04  0.13660630118E+04  0.65864270000E+03 0.  1.
    8880022    1    1    2    0    0 -0.22134559502E+03  0.24472040730E+03  0.26866078186E+04  0.27111132721E+04  0.15294330000E+03 0.  0.
<mgrwt>
<rscale>  0 0.61750678E+03</rscale>
<asrwt>0</asrwt>
<pdfrwt beam="1">  1        2 0.60878385E+00 0.73667643E+03</pdfrwt>
<pdfrwt beam="2">  1       -2 0.18473970E-01 0.73667643E+03</pdfrwt>
<totfact> 0.10010354E+01</totfact>
</mgrwt>
</event>
<event>
 4    1  0.3057048E-007  0.8011204E+03  0.7818608E-02  0.9708379E-01
          2   -1    0    0  501    0  0.00000000000E+00  0.00000000000E+00  0.31145555202E+04  0.31145555202E+04  0.25500000000E-02 0. -1.
         -2   -1    0    0    0  501 -0.00000000000E+00 -0.00000000000E+00 -0.23819925366E+03  0.23819925367E+03  0.25500000000E-02 0.  1.
    8880023    1    1    2    0    0 -0.43555278332E+03  0.13519401919E+03  0.53698068925E+03  0.96443875740E+03  0.65864270000E+03 0.  1.
    8880022    1    1    2    0    0  0.43555278332E+03 -0.13519401919E+03  0.23393755773E+04  0.23883160165E+04  0.15294330000E+03 0.  0.
<mgrwt>
<rscale>  0 0.70520106E+03</rscale>
<asrwt>0</asrwt>
<pdfrwt beam="1">  1        2 0.47916239E+00 0.80112038E+03</pdfrwt>
<pdfrwt beam="2">  1       -2 0.36646039E-01 0.80112038E+03</pdfrwt>
<totfact> 0.10915233E+01</totfact>
</mgrwt>
</event>
<event>
 4    1  0.3057048E-007  0.7834339E+03  0.7818608E-02  0.9747832E-01
         -2   -1    0    0    0  501 -0.00000000000E+00  0.00000000000E+00  0.19141588197E+03  0.19141588198E+03  0.25500000000E-02 0.  1.
          2   -1    0    0  501    0  0.00000000000E+00 -0.00000000000E+00 -0.24099312051E+04  0.24099312051E+04  0.25500000000E-02 0. -1.
    8880023    1    1    2    0    0 -0.27940719728E+03  0.31920223526E+03 -0.82957054706E+03  0.11410328425E+04  0.65864270000E+03 0.  1.
    8880022    1    1    2    0    0  0.27940719728E+03 -0.31920223526E+03 -0.13889447760E+04  0.14603142445E+04  0.15294330000E+03 0. -1.
<mgrwt>
<rscale>  0 0.68238947E+03</rscale>
<asrwt>0</asrwt>
<pdfrwt beam="1">  1        2 0.37075863E+00 0.78343389E+03</pdfrwt>
<pdfrwt beam="2">  1       -2 0.29448599E-01 0.78343389E+03</pdfrwt>
<totfact> 0.43085821E+01</totfact>
</mgrwt>
</event>
<event>
 4    1  0.3057048E-007  0.8778957E+03  0.7818608E-02  0.9562491E-01
          2   -1    0    0  501    0  0.00000000000E+00  0.00000000000E+00  0.26405497312E+04  0.26405497312E+04  0.25500000000E-02 0. -1.
         -2   -1    0    0    0  501 -0.00000000000E+00 -0.00000000000E+00 -0.51975451886E+03  0.51975451887E+03  0.25500000000E-02 0.  1.
    8880023    1    1    2    0    0 -0.56848557297E+03  0.11710999811E+03 -0.77714951871E+02  0.88132877993E+03  0.65864270000E+03 0.  1.
    8880022    1    1    2    0    0  0.56848557297E+03 -0.11710999811E+03  0.21985101642E+04  0.22789754702E+04  0.15294330000E+03 0.  0.
<mgrwt>
<rscale>  0 0.79829340E+03</rscale>
<asrwt>0</asrwt>
<pdfrwt beam="1">  1        2 0.40623843E+00 0.87789567E+03</pdfrwt>
<pdfrwt beam="2">  1       -2 0.79962232E-01 0.87789567E+03</pdfrwt>
<totfact> 0.41109827E+00</totfact>
</mgrwt>
</event>
<event>
 4    1  0.3199238E-007  0.6998169E+03  0.7818608E-02  0.9997961E-01
         -2   -1    0    0    0  501 -0.00000000000E+00  0.00000000000E+00  0.12728666232E+04  0.12728666232E+04  0.25500000000E-02 0.  1.
          2   -1    0    0  501    0  0.00000000000E+00 -0.00000000000E+00 -0.12316663415E+04  0.12316663415E+04  0.25500000000E-02 0. -1.
    8880023    1    1    2    0    0  0.10011782300E+03 -0.21426603824E+03  0.11578519160E+04  0.13529097455E+04  0.65864270000E+03 0.  1.
    8880022    1    1    2    0    0 -0.10011782300E+03  0.21426603824E+03 -0.11166516343E+04  0.11516232193E+04  0.15294330000E+03 0.  0.
<mgrwt>
<rscale>  0 0.55739710E+03</rscale>
<asrwt>0</asrwt>
<pdfrwt beam="1">  1        2 0.18948713E+00 0.69981692E+03</pdfrwt>
<pdfrwt beam="2">  1       -2 0.19582563E+00 0.69981692E+03</pdfrwt>
<totfact> 0.26614140E+00</totfact>
</mgrwt>
</event>
<event>
 4    1  0.3057048E-007  0.1045169E+04  0.7818608E-02  0.9324712E-01
          2   -1    0    0  501    0  0.00000000000E+00  0.00000000000E+00  0.73641645211E+03  0.73641645212E+03  0.25500000000E-02 0. -1.
         -2   -1    0    0    0  501 -0.00000000000E+00 -0.00000000000E+00 -0.27357213823E+04  0.27357213823E+04  0.25500000000E-02 0.  1.
    8880023    1    1    2    0    0 -0.23590984696E+03  0.77647566447E+03  0.25117547230E+03  0.10749266196E+04  0.65864270000E+03 0.  0.
    8880022    1    1    2    0    0  0.23590984696E+03 -0.77647566447E+03 -0.22504804025E+04  0.23972112148E+04  0.15294330000E+03 0.  0.
<mgrwt>
<rscale>  0 0.98539352E+03</rscale>
<asrwt>0</asrwt>
<pdfrwt beam="1">  1        2 0.11329484E+00 0.10451689E+04</pdfrwt>
<pdfrwt beam="2">  1       -2 0.42088021E+00 0.10451689E+04</pdfrwt>
<totfact> 0.21018075E-01</totfact>
</mgrwt>
</event>
<event>
 4    1  0.3057048E-007  0.7920498E+03  0.7818608E-02  0.9728257E-01
          2   -1    0    0  501    0  0.00000000000E+00  0.00000000000E+00  0.13248851911E+04  0.13248851911E+04  0.25500000000E-02 0. -1.
         -2   -1    0    0    0  501 -0.00000000000E+00 -0.00000000000E+00 -0.46379879019E+03  0.46379879020E+03  0.25500000000E-02 0.  1.
    8880023    1    1    2    0    0  0.43984587763E+03 -0.82644327321E+01 -0.19745515187E+02  0.79229589710E+03  0.65864270000E+03 0.  1.
    8880022    1    1    2    0    0 -0.43984587763E+03  0.82644327321E+01  0.88083191605E+03  0.99638808417E+03  0.15294330000E+03 0.  0.
<mgrwt>
<rscale>  0 0.69359014E+03</rscale>
<asrwt>0</asrwt>
<pdfrwt beam="1">  1        2 0.20382849E+00 0.79204981E+03</pdfrwt>
<pdfrwt beam="2">  1       -2 0.71353661E-01 0.79204981E+03</pdfrwt>
<totfact> 0.28956347E+01</totfact>
</mgrwt>
</event>
<event>
 4    1  0.3057048E-007  0.6596622E+03  0.7818608E-02  0.1024505E+00
         -2   -1    0    0    0  501 -0.00000000000E+00  0.00000000000E+00  0.79980189017E+03  0.79980189017E+03  0.25500000000E-02 0.  1.
          2   -1    0    0  501    0  0.00000000000E+00 -0.00000000000E+00 -0.45577383716E+03  0.45577383717E+03  0.25500000000E-02 0. -1.
    8880023    1    1    2    0    0  0.28927410616E+02  0.22522539000E+02  0.64082681685E+03  0.91968107260E+03  0.65864270000E+03 0.  1.
    8880022    1    1    2    0    0 -0.28927410616E+02 -0.22522539000E+02 -0.29679876384E+03  0.33589465474E+03  0.15294330000E+03 0.  0.
<mgrwt>
<rscale>  0 0.46095313E+03</rscale>
<asrwt>0</asrwt>
<pdfrwt beam="1">  1        2 0.70119053E-01 0.65966224E+03</pdfrwt>
<pdfrwt beam="2">  1       -2 0.12304644E+00 0.65966224E+03</pdfrwt>
<totfact> 0.34837541E+01</totfact>
</mgrwt>
</event>
<event>
 4    1  0.3057048E-007  0.7214551E+03  0.7818608E-02  0.9917693E-01
          2   -1    0    0  501    0  0.00000000000E+00  0.00000000000E+00  0.95713792751E+03  0.95713792752E+03  0.25500000000E-02 0. -1.
         -2   -1    0    0    0  501 -0.00000000000E+00 -0.00000000000E+00 -0.77579452654E+03  0.77579452654E+03  0.25500000000E-02 0.  1.
    8880023    1    1    2    0    0 -0.13058212593E+02 -0.29413730184E+03  0.77127227605E+03  0.10561052975E+04  0.65864270000E+03 0. -1.
    8880022    1    1    2    0    0  0.13058212593E+02  0.29413730184E+03 -0.58992887508E+03  0.67682715660E+03  0.15294330000E+03 0.  0.
<mgrwt>
<rscale>  0 0.59411430E+03</rscale>
<asrwt>0</asrwt>
<pdfrwt beam="1">  1        2 0.14725199E+00 0.72145511E+03</pdfrwt>
<pdfrwt beam="2">  1       -2 0.11935300E+00 0.72145511E+03</pdfrwt>
<totfact> 0.14737996E+01</totfact>
</mgrwt>
</event>
<event>
 4    1  0.3057048E-007  0.6936861E+03  0.7818608E-02  0.1002448E+00
         -2   -1    0    0    0  501 -0.00000000000E+00  0.00000000000E+00  0.84852471286E+03  0.84852471286E+03  0.25500000000E-02 0.  1.
          2   -1    0    0  501    0  0.00000000000E+00 -0.00000000000E+00 -0.10948727378E+04  0.10948727378E+04  0.25500000000E-02 0. -1.
    8880023    1    1    2    0    0  0.54145591591E+02 -0.21085184086E+03  0.68493820699E+03  0.97485424426E+03  0.65864270000E+03 0.  1.
    8880022    1    1    2    0    0 -0.54145591591E+02  0.21085184086E+03 -0.93128623193E+03  0.96854320641E+03  0.15294330000E+03 0.  0.
<mgrwt>
<rscale>  0 0.54589930E+03</rscale>
<asrwt>0</asrwt>
<pdfrwt beam="1">  1        2 0.16844196E+00 0.69368613E+03</pdfrwt>
<pdfrwt beam="2">  1       -2 0.13054226E+00 0.69368613E+03</pdfrwt>
<totfact> 0.96764463E+00</totfact>
</mgrwt>
</event>
<event>
 4    1  0.3057048E-007  0.1137690E+04  0.7818608E-02  0.9220209E-01
         -2   -1    0    0    0  501 -0.00000000000E+00  0.00000000000E+00  0.44492645518E+03  0.44492645518E+03  0.25500000000E-02 0.  1.
          2   -1    0    0  501    0  0.00000000000E+00 -0.00000000000E+00 -0.26842442025E+04  0.26842442025E+04  0.25500000000E-02 0. -1.
    8880023    1    1    2    0    0 -0.17112966837E+03  0.91172559625E+03 -0.73251285863E+03  0.13531127893E+04  0.65864270000E+03 0.  0.
    8880022    1    1    2    0    0  0.17112966837E+03 -0.91172559625E+03 -0.15068048887E+04  0.17760578684E+04  0.15294330000E+03 0.  0.
<mgrwt>
<rscale>  0 0.10847251E+04</rscale>
<asrwt>0</asrwt>
<pdfrwt beam="1">  1        2 0.41296064E+00 0.11376903E+04</pdfrwt>
<pdfrwt beam="2">  1       -2 0.68450225E-01 0.11376903E+04</pdfrwt>
<totfact> 0.52834467E+00</totfact>
</mgrwt>
</event>
<event>
 4    1  0.3057048E-007  0.9693376E+03  0.7818608E-02  0.9422821E-01
          2   -1    0    0  501    0  0.00000000000E+00  0.00000000000E+00  0.11612660047E+04  0.11612660047E+04  0.25500000000E-02 0. -1.
         -2   -1    0    0    0  501 -0.00000000000E+00 -0.00000000000E+00 -0.10983897724E+04  0.10983897724E+04  0.25500000000E-02 0.  1.
    8880023    1    1    2    0    0 -0.34986740709E+03 -0.61919142015E+03 -0.70751518578E+03  0.12000804813E+04  0.65864270000E+03 0.  1.
    8880022    1    1    2    0    0  0.34986740709E+03  0.61919142015E+03  0.77039141807E+03  0.10595752958E+04  0.15294330000E+03 0. -1.
<mgrwt>
<rscale>  0 0.90221171E+03</rscale>
<asrwt>0</asrwt>
<pdfrwt beam="1">  1        2 0.17865631E+00 0.96933762E+03</pdfrwt>
<pdfrwt beam="2">  1       -2 0.16898304E+00 0.96933762E+03</pdfrwt>
<totfact> 0.43075309E+00</totfact>
</mgrwt>
</event>
<event>
 4    1  0.3057048E-007  0.7941813E+03  0.7818608E-02  0.9723521E-01
          2   -1    0    0  501    0  0.00000000000E+00  0.00000000000E+00  0.17673715914E+04  0.17673715914E+04  0.25500000000E-02 0. -1.
         -2   -1    0    0    0  501 -0.00000000000E+00 -0.00000000000E+00 -0.39324420771E+03  0.39324420771E+03  0.25500000000E-02 0.  1.
    8880023    1    1    2    0    0 -0.37030103621E+03 -0.24452184708E+03  0.97139670156E+02  0.80010006431E+03  0.65864270000E+03 0.  0.
    8880022    1    1    2    0    0  0.37030103621E+03  0.24452184708E+03  0.12769877135E+04  0.13605157348E+04  0.15294330000E+03 0.  0.
<mgrwt>
<rscale>  0 0.69633450E+03</rscale>
<asrwt>0</asrwt>
<pdfrwt beam="1">  1        2 0.27190332E+00 0.79418134E+03</pdfrwt>
<pdfrwt beam="2">  1       -2 0.60499108E-01 0.79418134E+03</pdfrwt>
<totfact> 0.23423792E+01</totfact>
</mgrwt>
</event>
<event>
 4    1  0.3057048E-007  0.7177018E+03  0.7818608E-02  0.9930440E-01
         -2   -1    0    0    0  501 -0.00000000000E+00  0.00000000000E+00  0.12740628376E+03  0.12740628379E+03  0.25500000000E-02 0.  1.
          2   -1    0    0  501    0  0.00000000000E+00 -0.00000000000E+00 -0.23255249332E+04  0.23255249332E+04  0.25500000000E-02 0. -1.
    8880023    1    1    2    0    0 -0.13026699398E+03 -0.25360642064E+03 -0.11459790131E+04  0.13521700378E+04  0.65864270000E+03 0.  1.
    8880022    1    1    2    0    0  0.13026699398E+03  0.25360642064E+03 -0.10521396364E+04  0.11007611793E+04  0.15294330000E+03 0.  0.
<mgrwt>
<rscale>  0 0.58808437E+03</rscale>
<asrwt>0</asrwt>
<pdfrwt beam="1">  1        2 0.35777304E+00 0.71770183E+03</pdfrwt>
<pdfrwt beam="2">  1       -2 0.19600968E-01 0.71770183E+03</pdfrwt>
<totfact> 0.10056253E+02</totfact>
</mgrwt>
</event>
<event>
 4    1  0.3057048E-007  0.7148286E+03  0.7818608E-02  0.9940489E-01
         -2   -1    0    0    0  501 -0.00000000000E+00  0.00000000000E+00  0.14330295055E+03  0.14330295057E+03  0.25500000000E-02 0.  1.
          2   -1    0    0  501    0  0.00000000000E+00 -0.00000000000E+00 -0.22787289316E+04  0.22787289316E+04  0.25500000000E-02 0. -1.
    8880023    1    1    2    0    0 -0.13043266628E+03  0.24526918013E+03 -0.91523766350E+03  0.11613095359E+04  0.65864270000E+03 0.  0.
    8880022    1    1    2    0    0  0.13043266628E+03 -0.24526918013E+03 -0.12201883176E+04  0.12607223463E+04  0.15294330000E+03 0.  0.
<mgrwt>
<rscale>  0 0.58338503E+03</rscale>
<asrwt>0</asrwt>
<pdfrwt beam="1">  1        2 0.35057366E+00 0.71482855E+03</pdfrwt>
<pdfrwt beam="2">  1       -2 0.22046609E-01 0.71482855E+03</pdfrwt>
<totfact> 0.86854221E+01</totfact>
</mgrwt>
</event>
<event>
 4    1  0.3057048E-007  0.7048146E+03  0.7818608E-02  0.9977785E-01
         -2   -1    0    0    0  501 -0.00000000000E+00  0.00000000000E+00  0.17480714083E+03  0.17480714085E+03  0.25500000000E-02 0.  1.
          2   -1    0    0  501    0  0.00000000000E+00 -0.00000000000E+00 -0.34668797670E+04  0.34668797670E+04  0.25500000000E-02 0. -1.
    8880023    1    1    2    0    0  0.10558372961E+02  0.25068307483E+03 -0.57731939177E+03  0.91107703825E+03  0.65864270000E+03 0.  1.
    8880022    1    1    2    0    0 -0.10558372961E+02 -0.25068307483E+03 -0.27147532344E+04  0.27306098696E+04  0.15294330000E+03 0.  0.
<mgrwt>
<rscale>  0 0.56635133E+03</rscale>
<asrwt>0</asrwt>
<pdfrwt beam="1">  1        2 0.53336607E+00 0.70481465E+03</pdfrwt>
<pdfrwt beam="2">  1       -2 0.26893409E-01 0.70481465E+03</pdfrwt>
<totfact> 0.11697965E+01</totfact>
</mgrwt>
</event>
<event>
 4    1  0.3057048E-007  0.7147696E+03  0.7818608E-02  0.9940698E-01
          2   -1    0    0  501    0  0.00000000000E+00  0.00000000000E+00  0.47347215377E+03  0.47347215377E+03  0.25500000000E-02 0. -1.
         -2   -1    0    0    0  501 -0.00000000000E+00 -0.00000000000E+00 -0.70920853387E+03  0.70920853387E+03  0.25500000000E-02 0.  1.
    8880023    1    1    2    0    0  0.44536228707E+02 -0.27404729083E+03 -0.40686414108E+03  0.82245609538E+03  0.65864270000E+03 0.  0.
    8880022    1    1    2    0    0 -0.44536228707E+02  0.27404729083E+03  0.17112776097E+03  0.36022459226E+03  0.15294330000E+03 0.  0.
<mgrwt>
<rscale>  0 0.58328783E+03</rscale>
<asrwt>0</asrwt>
<pdfrwt beam="1">  1        2 0.72841870E-01 0.71476961E+03</pdfrwt>
<pdfrwt beam="2">  1       -2 0.10910900E+00 0.71476961E+03</pdfrwt>
<totfact> 0.44580972E+01</totfact>
</mgrwt>
</event>
<event>
 4    1  0.3057048E-007  0.8442915E+03  0.7818608E-02  0.9622141E-01
         -2   -1    0    0    0  501 -0.00000000000E+00  0.00000000000E+00  0.88267413422E+03  0.88267413423E+03  0.25500000000E-02 0.  1.
          2   -1    0    0  501    0  0.00000000000E+00 -0.00000000000E+00 -0.10901744424E+04  0.10901744424E+04  0.25500000000E-02 0. -1.
    8880023    1    1    2    0    0 -0.32263771901E+03 -0.41823784139E+03  0.57133480144E+03  0.10194369286E+04  0.65864270000E+03 0.  1.
    8880022    1    1    2    0    0  0.32263771901E+03  0.41823784139E+03 -0.77883510959E+03  0.95341164806E+03  0.15294330000E+03 0.  0.
<mgrwt>
<rscale>  0 0.75847938E+03</rscale>
<asrwt>0</asrwt>
<pdfrwt beam="1">  1        2 0.16771915E+00 0.84429153E+03</pdfrwt>
<pdfrwt beam="2">  1       -2 0.13579602E+00 0.84429153E+03</pdfrwt>
<totfact> 0.86505075E+00</totfact>
</mgrwt>
</event>
<event>
 4    1  0.3057048E-007  0.1521793E+04  0.7818608E-02  0.8894399E-01
          2   -1    0    0  501    0  0.00000000000E+00  0.00000000000E+00  0.23052367658E+04  0.23052367658E+04  0.25500000000E-02 0. -1.
         -2   -1    0    0    0  501 -0.00000000000E+00 -0.00000000000E+00 -0.11387617584E+04  0.11387617584E+04  0.25500000000E-02 0.  1.
    8880023    1    1    2    0    0  0.13628447524E+04 -0.15715538196E+03 -0.15925491258E+03  0.15301032536E+04  0.65864270000E+03 0.  0.
    8880022    1    1    2    0    0 -0.13628447524E+04  0.15715538196E+03  0.13257299200E+04  0.19138952706E+04  0.15294330000E+03 0.  0.
<mgrwt>
<rscale>  0 0.14851351E+04</rscale>
<asrwt>0</asrwt>
<pdfrwt beam="1">  1        2 0.35465180E+00 0.15217930E+04</pdfrwt>
<pdfrwt beam="2">  1       -2 0.17519412E+00 0.15217930E+04</pdfrwt>
<totfact> 0.82833279E-01</totfact>
</mgrwt>
</event>
<event>
 4    1  0.3057048E-007  0.7783641E+03  0.7818608E-02  0.9759694E-01
         -2   -1    0    0    0  501 -0.00000000000E+00  0.00000000000E+00  0.15135185585E+03  0.15135185587E+03  0.25500000000E-02 0.  1.
          2   -1    0    0  501    0  0.00000000000E+00 -0.00000000000E+00 -0.34319922315E+04  0.34319922315E+04  0.25500000000E-02 0. -1.
    8880023    1    1    2    0    0 -0.39629675608E+03 -0.12243088714E+03 -0.10372900332E+04  0.12968505158E+04  0.65864270000E+03 0.  1.
    8880022    1    1    2    0    0  0.39629675608E+03  0.12243088714E+03 -0.22433503425E+04  0.22864935716E+04  0.15294330000E+03 0.  0.
<mgrwt>
<rscale>  0 0.67571191E+03</rscale>
<asrwt>0</asrwt>
<pdfrwt beam="1">  1        2 0.52799875E+00 0.77836408E+03</pdfrwt>
<pdfrwt beam="2">  1       -2 0.23284903E-01 0.77836408E+03</pdfrwt>
<totfact> 0.15797699E+01</totfact>
</mgrwt>
</event>
<event>
 4    1  0.3057048E-007  0.6744410E+03  0.7818608E-02  0.1012661E+00
         -2   -1    0    0    0  501 -0.00000000000E+00  0.00000000000E+00  0.11780239178E+03  0.11780239181E+03  0.25500000000E-02 0.  1.
          2   -1    0    0  501    0  0.00000000000E+00 -0.00000000000E+00 -0.27081129305E+04  0.27081129305E+04  0.25500000000E-02 0. -1.
    8880023    1    1    2    0    0  0.42186319551E+02 -0.13885541504E+03 -0.91134622259E+03  0.11337648149E+04  0.65864270000E+03 0.  1.
    8880022    1    1    2    0    0 -0.42186319551E+02  0.13885541504E+03 -0.16789643161E+04  0.16921505074E+04  0.15294330000E+03 0.  0.
<mgrwt>
<rscale>  0 0.50430655E+03</rscale>
<asrwt>0</asrwt>
<pdfrwt beam="1">  1        2 0.41663271E+00 0.67444104E+03</pdfrwt>
<pdfrwt beam="2">  1       -2 0.18123447E-01 0.67444104E+03</pdfrwt>
<totfact> 0.70292927E+01</totfact>
</mgrwt>
</event>
<event>
 4    1  0.3057048E-007  0.8702494E+03  0.7818608E-02  0.9575585E-01
         -2   -1    0    0    0  501 -0.00000000000E+00  0.00000000000E+00  0.55724843249E+03  0.55724843250E+03  0.25500000000E-02 0.  1.
          2   -1    0    0  501    0  0.00000000000E+00 -0.00000000000E+00 -0.10724359388E+04  0.10724359388E+04  0.25500000000E-02 0. -1.
    8880023    1    1    2    0    0  0.40007912428E+03  0.40430249736E+03 -0.37034540552E+02  0.87103707069E+03  0.65864270000E+03 0.  1.
    8880022    1    1    2    0    0 -0.40007912428E+03 -0.40430249736E+03 -0.47815296575E+03  0.75864730061E+03  0.15294330000E+03 0.  0.
<mgrwt>
<rscale>  0 0.78933391E+03</rscale>
<asrwt>0</asrwt>
<pdfrwt beam="1">  1        2 0.16499014E+00 0.87024940E+03</pdfrwt>
<pdfrwt beam="2">  1       -2 0.85730528E-01 0.87024940E+03</pdfrwt>
<totfact> 0.26929901E+01</totfact>
</mgrwt>
</event>
<event>
 4    1  0.3057048E-007  0.9952552E+03  0.7818608E-02  0.9387792E-01
         -2   -1    0    0    0  501 -0.00000000000E+00  0.00000000000E+00  0.17717989726E+04  0.17717989726E+04  0.25500000000E-02 0.  1.
          2   -1    0    0  501    0  0.00000000000E+00 -0.00000000000E+00 -0.70255673322E+03  0.70255673323E+03  0.25500000000E-02 0. -1.
    8880023    1    1    2    0    0  0.71777656979E+03 -0.20376336578E+03  0.13372162068E+04  0.16669373424E+04  0.65864270000E+03 0.  0.
    8880022    1    1    2    0    0 -0.71777656979E+03  0.20376336578E+03 -0.26797396745E+03  0.80741836344E+03  0.15294330000E+03 0.  0.
<mgrwt>
<rscale>  0 0.93087217E+03</rscale>
<asrwt>0</asrwt>
<pdfrwt beam="1">  1        2 0.10808565E+00 0.99525520E+03</pdfrwt>
<pdfrwt beam="2">  1       -2 0.27258445E+00 0.99525520E+03</pdfrwt>
<totfact> 0.19093646E+00</totfact>
</mgrwt>
</event>
<event>
 4    1  0.3057048E-007  0.6817186E+03  0.7818608E-02  0.1008368E+00
          2   -1    0    0  501    0  0.00000000000E+00  0.00000000000E+00  0.11924826782E+04  0.11924826782E+04  0.25500000000E-02 0. -1.
         -2   -1    0    0    0  501 -0.00000000000E+00 -0.00000000000E+00 -0.82653554940E+03  0.82653554940E+03  0.25500000000E-02 0.  1.
    8880023    1    1    2    0    0  0.23876788862E+02  0.17424122790E+03 -0.67079377238E+03  0.95640190185E+03  0.65864270000E+03 0.  0.
    8880022    1    1    2    0    0 -0.23876788862E+02 -0.17424122790E+03  0.10367409012E+04  0.10626163257E+04  0.15294330000E+03 0. -1.
<mgrwt>
<rscale>  0 0.52128546E+03</rscale>
<asrwt>0</asrwt>
<pdfrwt beam="1">  1        2 0.18345887E+00 0.68171865E+03</pdfrwt>
<pdfrwt beam="2">  1       -2 0.12715932E+00 0.68171865E+03</pdfrwt>
<totfact> 0.90473485E+00</totfact>
</mgrwt>
</event>
<event>
 4    1  0.3057048E-007  0.8527835E+03  0.7818608E-02  0.9606531E-01
         -2   -1    0    0    0  501 -0.00000000000E+00  0.00000000000E+00  0.17464851397E+03  0.17464851399E+03  0.25500000000E-02 0.  1.
          2   -1    0    0  501    0  0.00000000000E+00 -0.00000000000E+00 -0.33443850530E+04  0.33443850530E+04  0.25500000000E-02 0. -1.
    8880023    1    1    2    0    0 -0.13438867842E+03 -0.52475631155E+03 -0.12117514341E+04  0.14817493876E+04  0.65864270000E+03 0.  0.
    8880022    1    1    2    0    0  0.13438867842E+03  0.52475631155E+03 -0.19579851049E+04  0.20372841793E+04  0.15294330000E+03 0.  0.
<mgrwt>
<rscale>  0 0.76865396E+03</rscale>
<asrwt>0</asrwt>
<pdfrwt beam="1">  1        2 0.51452073E+00 0.85278351E+03</pdfrwt>
<pdfrwt beam="2">  1       -2 0.26869005E-01 0.85278351E+03</pdfrwt>
<totfact> 0.13777296E+01</totfact>
</mgrwt>
</event>
<event>
 4    1  0.3057048E-007  0.7877694E+03  0.7818608E-02  0.9737893E-01
          2   -1    0    0  501    0  0.00000000000E+00  0.00000000000E+00  0.19269979572E+04  0.19269979572E+04  0.25500000000E-02 0. -1.
         -2   -1    0    0    0  501 -0.00000000000E+00 -0.00000000000E+00 -0.21075133328E+03  0.21075133330E+03  0.25500000000E-02 0.  1.
    8880023    1    1    2    0    0  0.42826590731E+03  0.57954194812E+02  0.85837800405E+03  0.11650722639E+04  0.65864270000E+03 0.  1.
    8880022    1    1    2    0    0 -0.42826590731E+03 -0.57954194812E+02  0.85786861984E+03  0.97267702655E+03  0.15294330000E+03 0.  0.
<mgrwt>
<rscale>  0 0.68804778E+03</rscale>
<asrwt>0</asrwt>
<pdfrwt beam="1">  1        2 0.29646122E+00 0.78776937E+03</pdfrwt>
<pdfrwt beam="2">  1       -2 0.32423282E-01 0.78776937E+03</pdfrwt>
<totfact> 0.66473774E+01</totfact>
</mgrwt>
</event>
<event>
 4    1  0.3057048E-007  0.8347890E+03  0.7818608E-02  0.9640085E-01
         -2   -1    0    0    0  501 -0.00000000000E+00  0.00000000000E+00  0.28601349042E+03  0.28601349044E+03  0.25500000000E-02 0.  1.
          2   -1    0    0  501    0  0.00000000000E+00 -0.00000000000E+00 -0.21066929358E+04  0.21066929359E+04  0.25500000000E-02 0. -1.
    8880023    1    1    2    0    0  0.51279130565E+03  0.10374305100E+02 -0.51319707474E+03  0.97992040143E+03  0.65864270000E+03 0.  1.
    8880022    1    1    2    0    0 -0.51279130565E+03 -0.10374305100E+02 -0.13074823707E+04  0.14127860249E+04  0.15294330000E+03 0.  0.
<mgrwt>
<rscale>  0 0.74698943E+03</rscale>
<asrwt>0</asrwt>
<pdfrwt beam="1">  1        2 0.32410660E+00 0.83478905E+03</pdfrwt>
<pdfrwt beam="2">  1       -2 0.44002077E-01 0.83478905E+03</pdfrwt>
<totfact> 0.29210175E+01</totfact>
</mgrwt>
</event>
<event>
 4    1  0.3057048E-007  0.6862494E+03  0.7818608E-02  0.1005989E+00
         -2   -1    0    0    0  501 -0.00000000000E+00  0.00000000000E+00  0.61725348367E+03  0.61725348368E+03  0.25500000000E-02 0.  1.
          2   -1    0    0  501    0  0.00000000000E+00 -0.00000000000E+00 -0.84631706042E+03  0.84631706043E+03  0.25500000000E-02 0. -1.
    8880023    1    1    2    0    0  0.88258289996E+02  0.17128495021E+03  0.39567056652E+03  0.79214485001E+03  0.65864270000E+03 0.  1.
    8880022    1    1    2    0    0 -0.88258289996E+02 -0.17128495021E+03 -0.62473414326E+03  0.67142569410E+03  0.15294330000E+03 0.  0.
<mgrwt>
<rscale>  0 0.53100499E+03</rscale>
<asrwt>0</asrwt>
<pdfrwt beam="1">  1        2 0.13020263E+00 0.68624942E+03</pdfrwt>
<pdfrwt beam="2">  1       -2 0.94962074E-01 0.68624942E+03</pdfrwt>
<totfact> 0.30401553E+01</totfact>
</mgrwt>
</event>
<event>
 4    1  0.3057048E-007  0.6614185E+03  0.7818608E-02  0.1022748E+00
         -2   -1    0    0    0  501 -0.00000000000E+00  0.00000000000E+00  0.13876878499E+03  0.13876878501E+03  0.25500000000E-02 0.  1.
          2   -1    0    0  501    0  0.00000000000E+00 -0.00000000000E+00 -0.28111118617E+04  0.28111118617E+04  0.25500000000E-02 0. -1.
    8880023    1    1    2    0    0 -0.26533404474E+01  0.60474595013E+02 -0.67239737826E+03  0.94318219736E+03  0.65864270000E+03 0.  1.
    8880022    1    1    2    0    0  0.26533404474E+01 -0.60474595013E+02 -0.19999456985E+04  0.20066984494E+04  0.15294330000E+03 0.  0.
<mgrwt>
<rscale>  0 0.46707857E+03</rscale>
<asrwt>0</asrwt>
<pdfrwt beam="1">  1        2 0.43247871E+00 0.66141849E+03</pdfrwt>
<pdfrwt beam="2">  1       -2 0.21349046E-01 0.66141849E+03</pdfrwt>
<totfact> 0.46077907E+01</totfact>
</mgrwt>
</event>
<event>
 4    1  0.3057048E-007  0.7251538E+03  0.7818608E-02  0.9905518E-01
          2   -1    0    0  501    0  0.00000000000E+00  0.00000000000E+00  0.12443161738E+04  0.12443161738E+04  0.25500000000E-02 0. -1.
         -2   -1    0    0    0  501 -0.00000000000E+00 -0.00000000000E+00 -0.35377016795E+03  0.35377016795E+03  0.25500000000E-02 0.  1.
    8880023    1    1    2    0    0  0.11492788640E+03  0.28076585425E+03  0.92877690191E+02  0.73107753049E+03  0.65864270000E+03 0.  0.
    8880022    1    1    2    0    0 -0.11492788640E+03 -0.28076585425E+03  0.79766831562E+03  0.86700881122E+03  0.15294330000E+03 0.  0.
<mgrwt>
<rscale>  0 0.59994610E+03</rscale>
<asrwt>0</asrwt>
<pdfrwt beam="1">  1        2 0.19143326E+00 0.72515384E+03</pdfrwt>
<pdfrwt beam="2">  1       -2 0.54426180E-01 0.72515384E+03</pdfrwt>
<totfact> 0.57784575E+01</totfact>
</mgrwt>
</event>
<event>
 4    1  0.3057048E-007  0.9941529E+03  0.7818608E-02  0.9389248E-01
         -2   -1    0    0    0  501 -0.00000000000E+00  0.00000000000E+00  0.85383114439E+03  0.85383114439E+03  0.25500000000E-02 0.  1.
          2   -1    0    0  501    0  0.00000000000E+00 -0.00000000000E+00 -0.21712754574E+04  0.21712754574E+04  0.25500000000E-02 0. -1.
    8880023    1    1    2    0    0 -0.35531789854E+03  0.65443020382E+03  0.45738271391E+03  0.10943211841E+04  0.65864270000E+03 0.  1.
    8880022    1    1    2    0    0  0.35531789854E+03 -0.65443020382E+03 -0.17748270269E+04  0.19307854177E+04  0.15294330000E+03 0.  0.
<mgrwt>
<rscale>  0 0.92965855E+03</rscale>
<asrwt>0</asrwt>
<pdfrwt beam="1">  1        2 0.33404238E+00 0.99415286E+03</pdfrwt>
<pdfrwt beam="2">  1       -2 0.13135864E+00 0.99415286E+03</pdfrwt>
<totfact> 0.22707670E+00</totfact>
</mgrwt>
</event>
<event>
 4    1  0.3057048E-007  0.7236934E+03  0.7818608E-02  0.9910281E-01
          2   -1    0    0  501    0  0.00000000000E+00  0.00000000000E+00  0.99609850052E+03  0.99609850053E+03  0.25500000000E-02 0. -1.
         -2   -1    0    0    0  501 -0.00000000000E+00 -0.00000000000E+00 -0.33366416175E+03  0.33366416176E+03  0.25500000000E-02 0.  1.
    8880023    1    1    2    0    0  0.18477102663E+03 -0.23618130675E+03  0.18742299920E+03  0.74756907964E+03  0.65864270000E+03 0.  1.
    8880022    1    1    2    0    0 -0.18477102663E+03  0.23618130675E+03  0.47501133957E+03  0.58219358265E+03  0.15294330000E+03 0.  0.
<mgrwt>
<rscale>  0 0.59765590E+03</rscale>
<asrwt>0</asrwt>
<pdfrwt beam="1">  1        2 0.15324592E+00 0.72369341E+03</pdfrwt>
<pdfrwt beam="2">  1       -2 0.51332948E-01 0.72369341E+03</pdfrwt>
<totfact> 0.92282258E+01</totfact>
</mgrwt>
</event>
<event>
 4    1  0.3057048E-007  0.7288916E+03  0.7818608E-02  0.9893573E-01
         -2   -1    0    0    0  501 -0.00000000000E+00  0.00000000000E+00  0.45754832150E+03  0.45754832151E+03  0.25500000000E-02 0.  1.
          2   -1    0    0  501    0  0.00000000000E+00 -0.00000000000E+00 -0.16959557983E+04  0.16959557983E+04  0.25500000000E-02 0. -1.
    8880023    1    1    2    0    0  0.22946355912E+03 -0.21170565140E+03  0.13107451878E+03  0.74058324551E+03  0.65864270000E+03 0.  1.
    8880022    1    1    2    0    0 -0.22946355912E+03  0.21170565140E+03 -0.13694819955E+04  0.14129208743E+04  0.15294330000E+03 0.  0.
<mgrwt>
<rscale>  0 0.60573763E+03</rscale>
<asrwt>0</asrwt>
<pdfrwt beam="1">  1        2 0.26091627E+00 0.72889163E+03</pdfrwt>
<pdfrwt beam="2">  1       -2 0.70392050E-01 0.72889163E+03</pdfrwt>
<totfact> 0.18657146E+01</totfact>
</mgrwt>
</event>
<event>
 4    1  0.3057048E-007  0.7709728E+03  0.7818608E-02  0.9777486E-01
          2   -1    0    0  501    0  0.00000000000E+00  0.00000000000E+00  0.10422034965E+04  0.10422034965E+04  0.25500000000E-02 0. -1.
         -2   -1    0    0    0  501 -0.00000000000E+00 -0.00000000000E+00 -0.72247922751E+03  0.72247922752E+03  0.25500000000E-02 0.  1.
    8880023    1    1    2    0    0  0.10382891800E+03 -0.38705088536E+03 -0.44332079736E+03  0.88934378488E+03  0.65864270000E+03 0.  1.
    8880022    1    1    2    0    0 -0.10382891800E+03  0.38705088536E+03  0.76304506631E+03  0.87533893910E+03  0.15294330000E+03 0.  0.
<mgrwt>
<rscale>  0 0.66584901E+03</rscale>
<asrwt>0</asrwt>
<pdfrwt beam="1">  1        2 0.16033900E+00 0.77097279E+03</pdfrwt>
<pdfrwt beam="2">  1       -2 0.11115065E+00 0.77097279E+03</pdfrwt>
<totfact> 0.15393854E+01</totfact>
</mgrwt>
</event>
<event>
 4    1  0.3057048E-007  0.1201752E+04  0.7818608E-02  0.9155421E-01
          2   -1    0    0  501    0  0.00000000000E+00  0.00000000000E+00  0.38844027560E+04  0.38844027560E+04  0.25500000000E-02 0. -1.
         -2   -1    0    0    0  501 -0.00000000000E+00 -0.00000000000E+00 -0.16172517016E+04  0.16172517016E+04  0.25500000000E-02 0.  1.
    8880023    1    1    2    0    0 -0.47477786599E+03  0.88599274658E+03  0.36171731741E+04  0.38115809249E+04  0.65864270000E+03 0. -1.
    8880022    1    1    2    0    0  0.47477786599E+03 -0.88599274658E+03 -0.13500221198E+04  0.16900735327E+04  0.15294330000E+03 0.  0.
<mgrwt>
<rscale>  0 0.11525640E+04</rscale>
<asrwt>0</asrwt>
<pdfrwt beam="1">  1        2 0.59760042E+00 0.12017518E+04</pdfrwt>
<pdfrwt beam="2">  1       -2 0.24880795E+00 0.12017518E+04</pdfrwt>
<totfact> 0.27734873E-02</totfact>
</mgrwt>
</event>
<event>
 4    1  0.3057048E-007  0.1800217E+04  0.7818608E-02  0.8722416E-01
         -2   -1    0    0    0  501 -0.00000000000E+00  0.00000000000E+00  0.11759131238E+04  0.11759131238E+04  0.25500000000E-02 0.  1.
          2   -1    0    0  501    0  0.00000000000E+00 -0.00000000000E+00 -0.29880088382E+04  0.29880088382E+04  0.25500000000E-02 0. -1.
    8880023    1    1    2    0    0  0.55732274294E+03  0.15799885915E+04 -0.17028671972E+04  0.24780111959E+04  0.65864270000E+03 0. -1.
    8880022    1    1    2    0    0 -0.55732274294E+03 -0.15799885915E+04 -0.10922851711E+03  0.16859107661E+04  0.15294330000E+03 0.  0.
<mgrwt>
<rscale>  0 0.17700030E+04</rscale>
<asrwt>0</asrwt>
<pdfrwt beam="1">  1        2 0.45969367E+00 0.18002174E+04</pdfrwt>
<pdfrwt beam="2">  1       -2 0.18090971E+00 0.18002174E+04</pdfrwt>
<totfact> 0.28930501E-01</totfact>
</mgrwt>
</event>
<event>
 4    1  0.3057048E-007  0.6797142E+03  0.7818608E-02  0.1009486E+00
          2   -1    0    0  501    0  0.00000000000E+00  0.00000000000E+00  0.14023349888E+04  0.14023349888E+04  0.25500000000E-02 0. -1.
         -2   -1    0    0    0  501 -0.00000000000E+00 -0.00000000000E+00 -0.34220678335E+03  0.34220678335E+03  0.25500000000E-02 0.  1.
    8880023    1    1    2    0    0  0.50962293477E+02  0.16001239446E+03  0.20113023496E+02  0.68001166293E+03  0.65864270000E+03 0.  1.
    8880022    1    1    2    0    0 -0.50962293477E+02 -0.16001239446E+03  0.10400151820E+04  0.10645301092E+04  0.15294330000E+03 0.  0.
<mgrwt>
<rscale>  0 0.51679505E+03</rscale>
<asrwt>0</asrwt>
<pdfrwt beam="1">  1        2 0.21574384E+00 0.67971415E+03</pdfrwt>
<pdfrwt beam="2">  1       -2 0.52647198E-01 0.67971415E+03</pdfrwt>
<totfact> 0.50478684E+01</totfact>
</mgrwt>
</event>
<event>
 4    1  0.3057048E-007  0.8289546E+03  0.7818608E-02  0.9651370E-01
         -2   -1    0    0    0  501 -0.00000000000E+00  0.00000000000E+00  0.33838386027E+03  0.33838386028E+03  0.25500000000E-02 0.  1.
          2   -1    0    0  501    0  0.00000000000E+00 -0.00000000000E+00 -0.23263694908E+04  0.23263694908E+04  0.25500000000E-02 0. -1.
    8880023    1    1    2    0    0  0.50170554735E+03 -0.40584843684E+02 -0.27589080071E+03  0.87365984568E+03  0.65864270000E+03 0.  0.
    8880022    1    1    2    0    0 -0.50170554735E+03  0.40584843684E+02 -0.17120948298E+04  0.17910935054E+04  0.15294330000E+03 0.  0.
<mgrwt>
<rscale>  0 0.73987523E+03</rscale>
<asrwt>0</asrwt>
<pdfrwt beam="1">  1        2 0.35790299E+00 0.82895464E+03</pdfrwt>
<pdfrwt beam="2">  1       -2 0.52059057E-01 0.82895464E+03</pdfrwt>
<totfact> 0.15724624E+01</totfact>
</mgrwt>
</event>
<event>
 4    1  0.3057048E-007  0.9210741E+03  0.7818608E-02  0.9493014E-01
         -2   -1    0    0    0  501 -0.00000000000E+00  0.00000000000E+00  0.62571105883E+03  0.62571105884E+03  0.25500000000E-02 0.  1.
          2   -1    0    0  501    0  0.00000000000E+00 -0.00000000000E+00 -0.13905523185E+04  0.13905523185E+04  0.25500000000E-02 0. -1.
    8880023    1    1    2    0    0 -0.55090762581E+03 -0.33326871489E+03 -0.95590157718E+03  0.13274506695E+04  0.65864270000E+03 0.  1.
    8880022    1    1    2    0    0  0.55090762581E+03  0.33326871489E+03  0.19106031752E+03  0.68881270781E+03  0.15294330000E+03 0.  0.
<mgrwt>
<rscale>  0 0.84800827E+03</rscale>
<asrwt>0</asrwt>
<pdfrwt beam="1">  1        2 0.21393112E+00 0.92107408E+03</pdfrwt>
<pdfrwt beam="2">  1       -2 0.96263241E-01 0.92107408E+03</pdfrwt>
<totfact> 0.13277543E+01</totfact>
</mgrwt>
</event>
<event>
 4    1  0.3057048E-007  0.7426126E+03  0.7818608E-02  0.9852401E-01
          2   -1    0    0  501    0  0.00000000000E+00  0.00000000000E+00  0.67499524238E+03  0.67499524238E+03  0.25500000000E-02 0. -1.
         -2   -1    0    0    0  501 -0.00000000000E+00 -0.00000000000E+00 -0.78396480569E+03  0.78396480569E+03  0.25500000000E-02 0.  1.
    8880023    1    1    2    0    0  0.27295452597E+03  0.20774772270E+03 -0.51664708325E+03  0.90465336147E+03  0.65864270000E+03 0.  1.
    8880022    1    1    2    0    0 -0.27295452597E+03 -0.20774772270E+03  0.40767751993E+03  0.55430668660E+03  0.15294330000E+03 0.  0.
<mgrwt>
<rscale>  0 0.62624645E+03</rscale>
<asrwt>0</asrwt>
<pdfrwt beam="1">  1        2 0.10384542E+00 0.74261261E+03</pdfrwt>
<pdfrwt beam="2">  1       -2 0.12060997E+00 0.74261261E+03</pdfrwt>
<totfact> 0.22812450E+01</totfact>
</mgrwt>
</event>
<event>
 4    1  0.3057048E-007  0.1134517E+04  0.7818608E-02  0.9223565E-01
          2   -1    0    0  501    0  0.00000000000E+00  0.00000000000E+00  0.14297818830E+04  0.14297818830E+04  0.25500000000E-02 0. -1.
         -2   -1    0    0    0  501 -0.00000000000E+00 -0.00000000000E+00 -0.14290555211E+04  0.14290555211E+04  0.25500000000E-02 0.  1.
    8880023    1    1    2    0    0 -0.85500903796E+03 -0.34968334205E+03 -0.98271084423E+03  0.15009496009E+04  0.65864270000E+03 0.  0.
    8880022    1    1    2    0    0  0.85500903796E+03  0.34968334205E+03  0.98343720610E+03  0.13578878032E+04  0.15294330000E+03 0.  0.
<mgrwt>
<rscale>  0 0.10813476E+04</rscale>
<asrwt>0</asrwt>
<pdfrwt beam="1">  1        2 0.21996644E+00 0.11345171E+04</pdfrwt>
<pdfrwt beam="2">  1       -2 0.21985470E+00 0.11345171E+04</pdfrwt>
<totfact> 0.13475595E+00</totfact>
</mgrwt>
</event>
<event>
 4    1  0.3057048E-007  0.7019295E+03  0.7818608E-02  0.9989289E-01
         -2   -1    0    0    0  501 -0.00000000000E+00  0.00000000000E+00  0.17688159402E+03  0.17688159404E+03  0.25500000000E-02 0.  1.
          2   -1    0    0  501    0  0.00000000000E+00 -0.00000000000E+00 -0.13930041880E+04  0.13930041880E+04  0.25500000000E-02 0. -1.
    8880023    1    1    2    0    0 -0.22643267632E+03 -0.87310160402E+02 -0.79747212631E+03  0.10623873209E+04  0.65864270000E+03 0.  1.
    8880022    1    1    2    0    0  0.22643267632E+03  0.87310160402E+02 -0.41865046768E+03  0.50749846120E+03  0.15294330000E+03 0. -1.
<mgrwt>
<rscale>  0 0.56122393E+03</rscale>
<asrwt>0</asrwt>
<pdfrwt beam="1">  1        2 0.21430833E+00 0.70192950E+03</pdfrwt>
<pdfrwt beam="2">  1       -2 0.27212554E-01 0.70192950E+03</pdfrwt>
<totfact> 0.18249069E+02</totfact>
</mgrwt>
</event>
<event>
 4    1  0.3057048E-007  0.6975416E+03  0.7818608E-02  0.1000756E+00
          2   -1    0    0  501    0  0.00000000000E+00  0.00000000000E+00  0.41652453133E+04  0.41652453133E+04  0.25500000000E-02 0. -1.
         -2   -1    0    0    0  501 -0.00000000000E+00 -0.00000000000E+00 -0.16111023410E+03  0.16111023412E+03  0.25500000000E-02 0.  1.
    8880023    1    1    2    0    0 -0.20764787680E+03 -0.98165297640E+02  0.62686028837E+03  0.93782625992E+03  0.65864270000E+03 0.  0.
    8880022    1    1    2    0    0  0.20764787680E+03  0.98165297640E+02  0.33772747909E+04  0.33885292875E+04  0.15294330000E+03 0.  0.
<mgrwt>
<rscale>  0 0.55320140E+03</rscale>
<asrwt>0</asrwt>
<pdfrwt beam="1">  1        2 0.64080698E+00 0.69754159E+03</pdfrwt>
<pdfrwt beam="2">  1       -2 0.24786189E-01 0.69754159E+03</pdfrwt>
<totfact> 0.40885316E+00</totfact>
</mgrwt>
</event>
<event>
 4    1  0.3057048E-007  0.1098717E+04  0.7818608E-02  0.9262486E-01
         -2   -1    0    0    0  501 -0.00000000000E+00  0.00000000000E+00  0.96740140780E+03  0.96740140780E+03  0.25500000000E-02 0.  1.
          2   -1    0    0  501    0  0.00000000000E+00 -0.00000000000E+00 -0.13894081452E+04  0.13894081452E+04  0.25500000000E-02 0. -1.
    8880023    1    1    2    0    0  0.43851239928E+03  0.76228308350E+03 -0.82841826424E+03  0.13760289425E+04  0.65864270000E+03 0.  0.
    8880022    1    1    2    0    0 -0.43851239928E+03 -0.76228308350E+03  0.40641152689E+03  0.98078061049E+03  0.15294330000E+03 0.  0.
<mgrwt>
<rscale>  0 0.10431105E+04</rscale>
<asrwt>0</asrwt>
<pdfrwt beam="1">  1        2 0.21375510E+00 0.10987169E+04</pdfrwt>
<pdfrwt beam="2">  1       -2 0.14883099E+00 0.10987169E+04</pdfrwt>
<totfact> 0.44072588E+00</totfact>
</mgrwt>
</event>
<event>
 4    1  0.3057048E-007  0.6741113E+03  0.7818608E-02  0.1012872E+00
          2   -1    0    0  501    0  0.00000000000E+00  0.00000000000E+00  0.31523794097E+04  0.31523794097E+04  0.25500000000E-02 0. -1.
         -2   -1    0    0    0  501 -0.00000000000E+00 -0.00000000000E+00 -0.23647675747E+03  0.23647675748E+03  0.25500000000E-02 0.  1.
    8880023    1    1    2    0    0  0.66393821842E+02  0.12730964387E+03  0.25660797891E+03  0.72130003889E+03  0.65864270000E+03 0.  1.
    8880022    1    1    2    0    0 -0.66393821842E+02 -0.12730964387E+03  0.26592946733E+04  0.26675561283E+04  0.15294330000E+03 0.  0.
<mgrwt>
<rscale>  0 0.50348856E+03</rscale>
<asrwt>0</asrwt>
<pdfrwt beam="1">  1        2 0.48498139E+00 0.67411133E+03</pdfrwt>
<pdfrwt beam="2">  1       -2 0.36381044E-01 0.67411133E+03</pdfrwt>
<totfact> 0.10728849E+01</totfact>
</mgrwt>
</event>
<event>
 4    1  0.3057048E-007  0.6696951E+03  0.7818608E-02  0.1015882E+00
          2   -1    0    0  501    0  0.00000000000E+00  0.00000000000E+00  0.95469666768E+03  0.95469666769E+03  0.25500000000E-02 0. -1.
         -2   -1    0    0    0  501 -0.00000000000E+00 -0.00000000000E+00 -0.54477542226E+03  0.54477542227E+03  0.25500000000E-02 0.  1.
    8880023    1    1    2    0    0  0.42037038047E+02 -0.11364041010E+03 -0.32121611513E+03  0.74274575344E+03  0.65864270000E+03 0.  1.
    8880022    1    1    2    0    0 -0.42037038047E+02  0.11364041010E+03  0.73113736055E+03  0.75672633652E+03  0.15294330000E+03 0.  0.
<mgrwt>
<rscale>  0 0.49202234E+03</rscale>
<asrwt>0</asrwt>
<pdfrwt beam="1">  1        2 0.14687641E+00 0.66969505E+03</pdfrwt>
<pdfrwt beam="2">  1       -2 0.83811604E-01 0.66969505E+03</pdfrwt>
<totfact> 0.34327772E+01</totfact>
</mgrwt>
</event>
<event>
 4    1  0.5205419E-007  0.6868486E+03  0.7818608E-02  0.1005688E+00
          2   -1    0    0  501    0  0.00000000000E+00  0.00000000000E+00  0.22677730227E+04  0.22677730227E+04  0.25500000000E-02 0. -1.
         -2   -1    0    0    0  501 -0.00000000000E+00 -0.00000000000E+00 -0.12094644658E+04  0.12094644658E+04  0.25500000000E-02 0.  1.
    8880023    1    1    2    0    0 -0.10703874958E+03  0.16276811384E+03 -0.11043086868E+04  0.13004840002E+04  0.65864270000E+03 0.  0.
    8880022    1    1    2    0    0  0.10703874958E+03 -0.16276811384E+03  0.21626172437E+04  0.21767534882E+04  0.15294330000E+03 0. -1.
<mgrwt>
<rscale>  0 0.53225022E+03</rscale>
<asrwt>0</asrwt>
<pdfrwt beam="1">  1        2 0.34888816E+00 0.68684857E+03</pdfrwt>
<pdfrwt beam="2">  1       -2 0.18607146E+00 0.68684857E+03</pdfrwt>
<totfact> 0.82906965E-01</totfact>
</mgrwt>
</event>
<event>
 4    1  0.3057048E-007  0.6868245E+03  0.7818608E-02  0.1005700E+00
          2   -1    0    0  501    0  0.00000000000E+00  0.00000000000E+00  0.29208309731E+04  0.29208309731E+04  0.25500000000E-02 0. -1.
         -2   -1    0    0    0  501 -0.00000000000E+00 -0.00000000000E+00 -0.56315317703E+03  0.56315317704E+03  0.25500000000E-02 0.  1.
    8880023    1    1    2    0    0  0.19328614528E+03 -0.23625915141E+02 -0.34595709441E+03  0.76903461252E+03  0.65864270000E+03 0.  1.
    8880022    1    1    2    0    0 -0.19328614528E+03  0.23625915141E+02  0.27036348904E+04  0.27149495376E+04  0.15294330000E+03 0.  0.
<mgrwt>
<rscale>  0 0.53220041E+03</rscale>
<asrwt>0</asrwt>
<pdfrwt beam="1">  1        2 0.44935862E+00 0.68682452E+03</pdfrwt>
<pdfrwt beam="2">  1       -2 0.86638948E-01 0.68682452E+03</pdfrwt>
<totfact> 0.24277189E+00</totfact>
</mgrwt>
</event>
<event>
 4    1  0.3057048E-007  0.6663265E+03  0.7818608E-02  0.1018446E+00
         -2   -1    0    0    0  501 -0.00000000000E+00  0.00000000000E+00  0.26659658009E+03  0.26659658010E+03  0.25500000000E-02 0.  1.
          2   -1    0    0  501    0  0.00000000000E+00 -0.00000000000E+00 -0.15475770252E+04  0.15475770252E+04  0.25500000000E-02 0. -1.
    8880023    1    1    2    0    0 -0.64683918718E+02  0.77438920175E+02 -0.16930475170E+03  0.68749916430E+03  0.65864270000E+03 0.  1.
    8880022    1    1    2    0    0  0.64683918718E+02 -0.77438920175E+02 -0.11116756934E+04  0.11266744410E+04  0.15294330000E+03 0.  0.
<mgrwt>
<rscale>  0 0.48251764E+03</rscale>
<asrwt>0</asrwt>
<pdfrwt beam="1">  1        2 0.23808877E+00 0.66632650E+03</pdfrwt>
<pdfrwt beam="2">  1       -2 0.41014859E-01 0.66632650E+03</pdfrwt>
<totfact> 0.69203931E+01</totfact>
</mgrwt>
</event>
<event>
 4    1  0.3057048E-007  0.6642900E+03  0.7818608E-02  0.1020137E+00
         -2   -1    0    0    0  501 -0.00000000000E+00  0.00000000000E+00  0.10947989082E+03  0.10947989085E+03  0.25500000000E-02 0.  1.
          2   -1    0    0  501    0  0.00000000000E+00 -0.00000000000E+00 -0.17988007070E+04  0.17988007070E+04  0.25500000000E-02 0. -1.
    8880023    1    1    2    0    0  0.13873647367E+01 -0.86423745128E+02 -0.10274576462E+04  0.12234992478E+04  0.65864270000E+03 0.  1.
    8880022    1    1    2    0    0 -0.13873647367E+01  0.86423745128E+02 -0.66186316999E+03  0.68478134999E+03  0.15294330000E+03 0.  0.
<mgrwt>
<rscale>  0 0.47637331E+03</rscale>
<asrwt>0</asrwt>
<pdfrwt beam="1">  1        2 0.27673855E+00 0.66428999E+03</pdfrwt>
<pdfrwt beam="2">  1       -2 0.16843061E-01 0.66428999E+03</pdfrwt>
<totfact> 0.25505773E+02</totfact>
</mgrwt>
</event>
<event>
 4    1  0.3057048E-007  0.6922348E+03  0.7818608E-02  0.1003108E+00
          2   -1    0    0  501    0  0.00000000000E+00  0.00000000000E+00  0.33942033565E+04  0.33942033565E+04  0.25500000000E-02 0. -1.
         -2   -1    0    0    0  501 -0.00000000000E+00 -0.00000000000E+00 -0.18277932410E+03  0.18277932412E+03  0.25500000000E-02 0.  1.
    8880023    1    1    2    0    0  0.12018827848E+03 -0.17587945686E+03  0.50249250783E+03  0.85538747496E+03  0.65864270000E+03 0.  0.
    8880022    1    1    2    0    0 -0.12018827848E+03  0.17587945686E+03  0.27089315246E+04  0.27215952057E+04  0.15294330000E+03 0. -1.
<mgrwt>
<rscale>  0 0.54308188E+03</rscale>
<asrwt>0</asrwt>
<pdfrwt beam="1">  1        2 0.52218512E+00 0.69223480E+03</pdfrwt>
<pdfrwt beam="2">  1       -2 0.28119897E-01 0.69223480E+03</pdfrwt>
<totfact> 0.12090801E+01</totfact>
</mgrwt>
</event>
<event>
 4    1  0.3057048E-007  0.8902938E+03  0.7818608E-02  0.9541796E-01
          2   -1    0    0  501    0  0.00000000000E+00  0.00000000000E+00  0.17297620368E+04  0.17297620368E+04  0.25500000000E-02 0. -1.
         -2   -1    0    0    0  501 -0.00000000000E+00 -0.00000000000E+00 -0.33408743384E+03  0.33408743385E+03  0.25500000000E-02 0.  1.
    8880023    1    1    2    0    0  0.59882425691E+03 -0.14910427339E+02  0.94832003308E+03  0.13007435961E+04  0.65864270000E+03 0. -1.
    8880022    1    1    2    0    0 -0.59882425691E+03  0.14910427339E+02  0.44735456987E+03  0.76310587450E+03  0.15294330000E+03 0.  0.
<mgrwt>
<rscale>  0 0.81271257E+03</rscale>
<asrwt>0</asrwt>
<pdfrwt beam="1">  1        2 0.26611723E+00 0.89029378E+03</pdfrwt>
<pdfrwt beam="2">  1       -2 0.51398067E-01 0.89029378E+03</pdfrwt>
<totfact> 0.34140228E+01</totfact>
</mgrwt>
</event>
<event>
 4    1  0.3057048E-007  0.9620819E+03  0.7818608E-02  0.9432940E-01
          2   -1    0    0  501    0  0.00000000000E+00  0.00000000000E+00  0.14141473834E+04  0.14141473834E+04  0.25500000000E-02 0. -1.
         -2   -1    0    0    0  501 -0.00000000000E+00 -0.00000000000E+00 -0.90928983914E+03  0.90928983914E+03  0.25500000000E-02 0.  1.
    8880023    1    1    2    0    0 -0.49489587243E+03  0.49685965146E+03 -0.50337495421E+03  0.10858121332E+04  0.65864270000E+03 0.  0.
    8880022    1    1    2    0    0  0.49489587243E+03 -0.49685965146E+03  0.10082324984E+04  0.12376250893E+04  0.15294330000E+03 0.  0.
<mgrwt>
<rscale>  0 0.89413737E+03</rscale>
<asrwt>0</asrwt>
<pdfrwt beam="1">  1        2 0.21756113E+00 0.96208193E+03</pdfrwt>
<pdfrwt beam="2">  1       -2 0.13989075E+00 0.96208193E+03</pdfrwt>
<totfact> 0.50947383E+00</totfact>
</mgrwt>
</event>
<event>
 4    1  0.3057048E-007  0.6758581E+03  0.7818608E-02  0.1011771E+00
         -2   -1    0    0    0  501 -0.00000000000E+00  0.00000000000E+00  0.46062513139E+03  0.46062513140E+03  0.25500000000E-02 0.  1.
          2   -1    0    0  501    0  0.00000000000E+00 -0.00000000000E+00 -0.50445931544E+03  0.50445931544E+03  0.25500000000E-02 0. -1.
    8880023    1    1    2    0    0 -0.14995532450E+03 -0.22076709279E+02  0.13012137771E+03  0.68827012113E+03  0.65864270000E+03 0.  1.
    8880022    1    1    2    0    0  0.14995532450E+03  0.22076709279E+02 -0.17395556176E+03  0.27681432571E+03  0.15294330000E+03 0.  0.
<mgrwt>
<rscale>  0 0.50776899E+03</rscale>
<asrwt>0</asrwt>
<pdfrwt beam="1">  1        2 0.77609125E-01 0.67585811E+03</pdfrwt>
<pdfrwt beam="2">  1       -2 0.70865405E-01 0.67585811E+03</pdfrwt>
<totfact> 0.11193039E+02</totfact>
</mgrwt>
</event>
<event>
 4    1  0.3057048E-007  0.1046084E+04  0.7818608E-02  0.9323603E-01
         -2   -1    0    0    0  501 -0.00000000000E+00  0.00000000000E+00  0.66787940081E+03  0.66787940081E+03  0.25500000000E-02 0.  1.
          2   -1    0    0  501    0  0.00000000000E+00 -0.00000000000E+00 -0.17279671953E+04  0.17279671953E+04  0.25500000000E-02 0. -1.
    8880023    1    1    2    0    0  0.64809053581E+03 -0.49036790854E+03  0.66491437220E+01  0.10461053703E+04  0.65864270000E+03 0.  0.
    8880022    1    1    2    0    0 -0.64809053581E+03  0.49036790854E+03 -0.10667369382E+04  0.13497412258E+04  0.15294330000E+03 0.  0.
<mgrwt>
<rscale>  0 0.98638618E+03</rscale>
<asrwt>0</asrwt>
<pdfrwt beam="1">  1        2 0.26584111E+00 0.10460842E+04</pdfrwt>
<pdfrwt beam="2">  1       -2 0.10275068E+00 0.10460842E+04</pdfrwt>
<totfact> 0.72685513E+00</totfact>
</mgrwt>
</event>
<event>
 4    1  0.3057048E-007  0.6729004E+03  0.7818608E-02  0.1013664E+00
         -2   -1    0    0    0  501 -0.00000000000E+00  0.00000000000E+00  0.91777712115E+03  0.91777712116E+03  0.25500000000E-02 0.  1.
          2   -1    0    0  501    0  0.00000000000E+00 -0.00000000000E+00 -0.63599612230E+03  0.63599612230E+03  0.25500000000E-02 0. -1.
    8880023    1    1    2    0    0  0.10268455386E+03 -0.91873121399E+02  0.77079856068E+03  0.10231937331E+04  0.65864270000E+03 0.  1.
    8880022    1    1    2    0    0 -0.10268455386E+03  0.91873121399E+02 -0.48901756182E+03  0.53057951037E+03  0.15294330000E+03 0.  0.
<mgrwt>
<rscale>  0 0.50044190E+03</rscale>
<asrwt>0</asrwt>
<pdfrwt beam="1">  1        2 0.97845558E-01 0.67290043E+03</pdfrwt>
<pdfrwt beam="2">  1       -2 0.14119648E+00 0.67290043E+03</pdfrwt>
<totfact> 0.16584060E+01</totfact>
</mgrwt>
</event>
<event>
 4    1  0.3057048E-007  0.6606230E+03  0.7818608E-02  0.1023527E+00
          2   -1    0    0  501    0  0.00000000000E+00  0.00000000000E+00  0.23379299792E+04  0.23379299792E+04  0.25500000000E-02 0. -1.
         -2   -1    0    0    0  501 -0.00000000000E+00 -0.00000000000E+00 -0.53959101135E+03  0.53959101136E+03  0.25500000000E-02 0.  1.
    8880023    1    1    2    0    0  0.38508084982E+02 -0.33610955195E+02 -0.33319694822E+03  0.73989389880E+03  0.65864270000E+03 0.  1.
    8880022    1    1    2    0    0 -0.38508084982E+02  0.33610955195E+02  0.21315359160E+04  0.21376270917E+04  0.15294330000E+03 0.  0.
<mgrwt>
<rscale>  0 0.46435033E+03</rscale>
<asrwt>0</asrwt>
<pdfrwt beam="1">  1        2 0.35968154E+00 0.66062302E+03</pdfrwt>
<pdfrwt beam="2">  1       -2 0.83014001E-01 0.66062302E+03</pdfrwt>
<totfact> 0.58266166E+00</totfact>
</mgrwt>
</event>
<event>
 4    1  0.3057048E-007  0.7030042E+03  0.7818608E-02  0.9984960E-01
          2   -1    0    0  501    0  0.00000000000E+00  0.00000000000E+00  0.24637544755E+04  0.24637544755E+04  0.25500000000E-02 0. -1.
         -2   -1    0    0    0  501 -0.00000000000E+00 -0.00000000000E+00 -0.16342568310E+03  0.16342568312E+03  0.25500000000E-02 0.  1.
    8880023    1    1    2    0    0  0.24576285301E+03  0.23063203092E+01  0.66928605455E+03  0.97064861207E+03  0.65864270000E+03 0.  1.
    8880022    1    1    2    0    0 -0.24576285301E+03 -0.23063203092E+01  0.16310427378E+04  0.16565315465E+04  0.15294330000E+03 0.  0.
<mgrwt>
<rscale>  0 0.56314675E+03</rscale>
<asrwt>0</asrwt>
<pdfrwt beam="1">  1        2 0.37903912E+00 0.70300420E+03</pdfrwt>
<pdfrwt beam="2">  1       -2 0.25142415E-01 0.70300420E+03</pdfrwt>
<totfact> 0.54220987E+01</totfact>
</mgrwt>
</event>
<event>
 4    1  0.3057048E-007  0.7234763E+03  0.7818608E-02  0.9910994E-01
         -2   -1    0    0    0  501 -0.00000000000E+00  0.00000000000E+00  0.62661296434E+03  0.62661296434E+03  0.25500000000E-02 0.  1.
          2   -1    0    0  501    0  0.00000000000E+00 -0.00000000000E+00 -0.71088402266E+03  0.71088402266E+03  0.25500000000E-02 0. -1.
    8880023    1    1    2    0    0 -0.60639599625E+02 -0.29313930562E+03  0.33735772336E+03  0.79826577862E+03  0.65864270000E+03 0.  0.
    8880022    1    1    2    0    0  0.60639599625E+02  0.29313930562E+03 -0.42162878168E+03  0.53923120839E+03  0.15294330000E+03 0.  0.
<mgrwt>
<rscale>  0 0.59731415E+03</rscale>
<asrwt>0</asrwt>
<pdfrwt beam="1">  1        2 0.10936677E+00 0.72347634E+03</pdfrwt>
<pdfrwt beam="2">  1       -2 0.96401994E-01 0.72347634E+03</pdfrwt>
<totfact> 0.36743088E+01</totfact>
</mgrwt>
</event>
<event>
 4    1  0.3057048E-007  0.6603395E+03  0.7818608E-02  0.1023811E+00
         -2   -1    0    0    0  501 -0.00000000000E+00  0.00000000000E+00  0.17750530097E+03  0.17750530098E+03  0.25500000000E-02 0.  1.
          2   -1    0    0  501    0  0.00000000000E+00 -0.00000000000E+00 -0.95830276824E+03  0.95830276825E+03  0.25500000000E-02 0. -1.
    8880023    1    1    2    0    0  0.18380467915E+02 -0.43591968083E+02 -0.67267283143E+03  0.94262243008E+03  0.65864270000E+03 0. -1.
    8880022    1    1    2    0    0 -0.18380467915E+02  0.43591968083E+02 -0.10812463585E+03  0.19318563915E+03  0.15294330000E+03 0.  0.
<mgrwt>
<rscale>  0 0.46335999E+03</rscale>
<asrwt>0</asrwt>
<pdfrwt beam="1">  1        2 0.14743119E+00 0.66033954E+03</pdfrwt>
<pdfrwt beam="2">  1       -2 0.27308508E-01 0.66033954E+03</pdfrwt>
<totfact> 0.33094772E+02</totfact>
</mgrwt>
</event>
<event>
 4    1  0.3057048E-007  0.1203244E+04  0.7818608E-02  0.9153976E-01
          2   -1    0    0  501    0  0.00000000000E+00  0.00000000000E+00  0.17977125028E+04  0.17977125028E+04  0.25500000000E-02 0. -1.
         -2   -1    0    0    0  501 -0.00000000000E+00 -0.00000000000E+00 -0.82093630995E+03  0.82093630996E+03  0.25500000000E-02 0.  1.
    8880023    1    1    2    0    0 -0.17884413696E+03 -0.99095890157E+03 -0.60526917826E+01  0.12032587466E+04  0.65864270000E+03 0.  0.
    8880022    1    1    2    0    0  0.17884413696E+03  0.99095890157E+03  0.98282888462E+03  0.14153900662E+04  0.15294330000E+03 0.  0.
<mgrwt>
<rscale>  0 0.11541366E+04</rscale>
<asrwt>0</asrwt>
<pdfrwt beam="1">  1        2 0.27657115E+00 0.12032435E+04</pdfrwt>
<pdfrwt beam="2">  1       -2 0.12629789E+00 0.12032435E+04</pdfrwt>
<totfact> 0.39393384E+00</totfact>
</mgrwt>
</event>
<event>
 4    1  0.3057048E-007  0.8563060E+03  0.7818608E-02  0.9600168E-01
         -2   -1    0    0    0  501 -0.00000000000E+00  0.00000000000E+00  0.71319702415E+03  0.71319702416E+03  0.25500000000E-02 0.  1.
          2   -1    0    0  501    0  0.00000000000E+00 -0.00000000000E+00 -0.15170718609E+04  0.15170718609E+04  0.25500000000E-02 0. -1.
    8880023    1    1    2    0    0  0.37793491016E+03  0.39574613893E+03  0.36481379254E+03  0.93077876657E+03  0.65864270000E+03 0.  0.
    8880022    1    1    2    0    0 -0.37793491016E+03 -0.39574613893E+03 -0.11686886292E+04  0.12994901184E+04  0.15294330000E+03 0.  0.
<mgrwt>
<rscale>  0 0.77285036E+03</rscale>
<asrwt>0</asrwt>
<pdfrwt beam="1">  1        2 0.23339567E+00 0.85630603E+03</pdfrwt>
<pdfrwt beam="2">  1       -2 0.10972262E+00 0.85630603E+03</pdfrwt>
<totfact> 0.82975814E+00</totfact>
</mgrwt>
</event>
<event>
 4    1  0.3057048E-007  0.6853639E+03  0.7818608E-02  0.1006439E+00
         -2   -1    0    0    0  501 -0.00000000000E+00  0.00000000000E+00  0.26546399157E+03  0.26546399158E+03  0.25500000000E-02 0.  1.
          2   -1    0    0  501    0  0.00000000000E+00 -0.00000000000E+00 -0.29288465953E+04  0.29288465953E+04  0.25500000000E-02 0. -1.
    8880023    1    1    2    0    0  0.13974414000E+03  0.12800385260E+03 -0.19309157740E+03  0.71204492447E+03  0.65864270000E+03 0.  1.
    8880022    1    1    2    0    0 -0.13974414000E+03 -0.12800385260E+03 -0.24702910264E+04  0.24822656624E+04  0.15294330000E+03 0.  0.
<mgrwt>
<rscale>  0 0.52914826E+03</rscale>
<asrwt>0</asrwt>
<pdfrwt beam="1">  1        2 0.45059176E+00 0.68536386E+03</pdfrwt>
<pdfrwt beam="2">  1       -2 0.40840616E-01 0.68536386E+03</pdfrwt>
<totfact> 0.11746463E+01</totfact>
</mgrwt>
</event>
<event>
 4    1  0.3057048E-007  0.6770346E+03  0.7818608E-02  0.1011053E+00
          2   -1    0    0  501    0  0.00000000000E+00  0.00000000000E+00  0.60798907155E+03  0.60798907156E+03  0.25500000000E-02 0. -1.
         -2   -1    0    0    0  501 -0.00000000000E+00 -0.00000000000E+00 -0.80458583038E+03  0.80458583038E+03  0.25500000000E-02 0.  1.
    8880023    1    1    2    0    0  0.15165930512E+03 -0.39561348016E+02 -0.63138188004E+03  0.92575316893E+03  0.65864270000E+03 0.  1.
    8880022    1    1    2    0    0 -0.15165930512E+03  0.39561348016E+02  0.43478512121E+03  0.48682173301E+03  0.15294330000E+03 0.  0.
<mgrwt>
<rscale>  0 0.51058140E+03</rscale>
<asrwt>0</asrwt>
<pdfrwt beam="1">  1        2 0.93536780E-01 0.67703460E+03</pdfrwt>
<pdfrwt beam="2">  1       -2 0.12378244E+00 0.67703460E+03</pdfrwt>
<totfact> 0.24459356E+01</totfact>
</mgrwt>
</event>
<event>
 4    1  0.3057048E-007  0.6994671E+03  0.7818608E-02  0.9999419E-01
          2   -1    0    0  501    0  0.00000000000E+00  0.00000000000E+00  0.11652332259E+04  0.11652332259E+04  0.25500000000E-02 0. -1.
         -2   -1    0    0    0  501 -0.00000000000E+00 -0.00000000000E+00 -0.28813477897E+03  0.28813477898E+03  0.25500000000E-02 0.  1.
    8880023    1    1    2    0    0 -0.16744817415E+03 -0.16554498666E+03  0.21114011557E+03  0.73063971169E+03  0.65864270000E+03 0.  0.
    8880022    1    1    2    0    0  0.16744817415E+03  0.16554498666E+03  0.66595833134E+03  0.72272829316E+03  0.15294330000E+03 0.  0.
<mgrwt>
<rscale>  0 0.55675719E+03</rscale>
<asrwt>0</asrwt>
<pdfrwt beam="1">  1        2 0.17926665E+00 0.69946711E+03</pdfrwt>
<pdfrwt beam="2">  1       -2 0.44328427E-01 0.69946711E+03</pdfrwt>
<totfact> 0.97762451E+01</totfact>
</mgrwt>
</event>
<event>
 4    1  0.3057048E-007  0.7296664E+03  0.7818608E-02  0.9891140E-01
          2   -1    0    0  501    0  0.00000000000E+00  0.00000000000E+00  0.14396777360E+04  0.14396777360E+04  0.25500000000E-02 0. -1.
         -2   -1    0    0    0  501 -0.00000000000E+00 -0.00000000000E+00 -0.44924592978E+03  0.44924592979E+03  0.25500000000E-02 0.  1.
    8880023    1    1    2    0    0  0.55057898493E+02 -0.30914639982E+03 -0.10680001435E+03  0.73744106072E+03  0.65864270000E+03 0.  1.
    8880022    1    1    2    0    0 -0.55057898493E+02  0.30914639982E+03  0.10972318205E+04  0.11514826051E+04  0.15294330000E+03 0.  0.
<mgrwt>
<rscale>  0 0.60692609E+03</rscale>
<asrwt>0</asrwt>
<pdfrwt beam="1">  1        2 0.22148889E+00 0.72966641E+03</pdfrwt>
<pdfrwt beam="2">  1       -2 0.69114757E-01 0.72966641E+03</pdfrwt>
<totfact> 0.26904610E+01</totfact>
</mgrwt>
</event>
<event>
 4    1  0.3057048E-007  0.7853235E+03  0.7818608E-02  0.9743477E-01
          2   -1    0    0  501    0  0.00000000000E+00  0.00000000000E+00  0.24487212227E+04  0.24487212227E+04  0.25500000000E-02 0. -1.
         -2   -1    0    0    0  501 -0.00000000000E+00 -0.00000000000E+00 -0.31333765990E+03  0.31333765991E+03  0.25500000000E-02 0.  1.
    8880023    1    1    2    0    0 -0.22853067601E+03 -0.36151974900E+03  0.25213157840E+03  0.82480503023E+03  0.65864270000E+03 0.  1.
    8880022    1    1    2    0    0  0.22853067601E+03  0.36151974900E+03  0.18832519844E+04  0.19372538524E+04  0.15294330000E+03 0.  0.
<mgrwt>
<rscale>  0 0.68486134E+03</rscale>
<asrwt>0</asrwt>
<pdfrwt beam="1">  1        2 0.37672634E+00 0.78532350E+03</pdfrwt>
<pdfrwt beam="2">  1       -2 0.48205795E-01 0.78532350E+03</pdfrwt>
<totfact> 0.15801118E+01</totfact>
</mgrwt>
</event>
<event>
 4    1  0.3057048E-007  0.7952211E+03  0.7818608E-02  0.9721226E-01
          2   -1    0    0  501    0  0.00000000000E+00  0.00000000000E+00  0.22131778536E+04  0.22131778536E+04  0.25500000000E-02 0. -1.
         -2   -1    0    0    0  501 -0.00000000000E+00 -0.00000000000E+00 -0.25613568744E+03  0.25613568745E+03  0.25500000000E-02 0.  1.
    8880023    1    1    2    0    0 -0.41103268454E+03 -0.17210041165E+03  0.50323516137E+03  0.94107505192E+03  0.65864270000E+03 0.  0.
    8880022    1    1    2    0    0  0.41103268454E+03  0.17210041165E+03  0.14538070048E+04  0.15282384892E+04  0.15294330000E+03 0.  0.
<mgrwt>
<rscale>  0 0.69766959E+03</rscale>
<asrwt>0</asrwt>
<pdfrwt beam="1">  1        2 0.34048889E+00 0.79522112E+03</pdfrwt>
<pdfrwt beam="2">  1       -2 0.39405492E-01 0.79522112E+03</pdfrwt>
<totfact> 0.31858992E+01</totfact>
</mgrwt>
</event>
<event>
 4    1  0.3057048E-007  0.6786407E+03  0.7818608E-02  0.1010103E+00
         -2   -1    0    0    0  501 -0.00000000000E+00  0.00000000000E+00  0.25864903351E+03  0.25864903352E+03  0.25500000000E-02 0.  1.
          2   -1    0    0  501    0  0.00000000000E+00 -0.00000000000E+00 -0.91106171278E+03  0.91106171278E+03  0.25500000000E-02 0. -1.
    8880023    1    1    2    0    0  0.44850123412E+02  0.15726257437E+03 -0.27783192586E+03  0.73331019096E+03  0.65864270000E+03 0.  1.
    8880022    1    1    2    0    0 -0.44850123412E+02 -0.15726257437E+03 -0.37458075341E+03  0.43640055535E+03  0.15294330000E+03 0.  0.
<mgrwt>
<rscale>  0 0.51433639E+03</rscale>
<asrwt>0</asrwt>
<pdfrwt beam="1">  1        2 0.14016334E+00 0.67864074E+03</pdfrwt>
<pdfrwt beam="2">  1       -2 0.39792159E-01 0.67864074E+03</pdfrwt>
<totfact> 0.17478243E+02</totfact>
</mgrwt>
</event>
<event>
 4    1  0.3057048E-007  0.1266854E+04  0.7818608E-02  0.9094725E-01
          2   -1    0    0  501    0  0.00000000000E+00  0.00000000000E+00  0.17959868071E+04  0.17959868071E+04  0.25500000000E-02 0. -1.
         -2   -1    0    0    0  501 -0.00000000000E+00 -0.00000000000E+00 -0.81245358324E+03  0.81245358324E+03  0.25500000000E-02 0.  1.
    8880023    1    1    2    0    0 -0.10820355858E+04  0.17572980396E+02  0.80510822837E+03  0.15010394013E+04  0.65864270000E+03 0.  0.
    8880022    1    1    2    0    0  0.10820355858E+04 -0.17572980396E+02  0.17842499547E+03  0.11074009890E+04  0.15294330000E+03 0.  0.
<mgrwt>
<rscale>  0 0.12209373E+04</rscale>
<asrwt>0</asrwt>
<pdfrwt beam="1">  1        2 0.27630566E+00 0.12668544E+04</pdfrwt>
<pdfrwt beam="2">  1       -2 0.12499286E+00 0.12668544E+04</pdfrwt>
<totfact> 0.40281702E+00</totfact>
</mgrwt>
</event>
<event>
 4    1  0.3057048E-007  0.8743681E+03  0.7818608E-02  0.9568499E-01
          2   -1    0    0  501    0  0.00000000000E+00  0.00000000000E+00  0.31496384426E+04  0.31496384426E+04  0.25500000000E-02 0. -1.
         -2   -1    0    0    0  501 -0.00000000000E+00 -0.00000000000E+00 -0.10284405158E+04  0.10284405158E+04  0.25500000000E-02 0.  1.
    8880023    1    1    2    0    0 -0.55832641779E+03  0.13777161536E+03  0.29954897939E+04  0.31204933454E+04  0.65864270000E+03 0.  0.
    8880022    1    1    2    0    0  0.55832641779E+03 -0.13777161536E+03 -0.87429186718E+03  0.10575856130E+04  0.15294330000E+03 0.  0.
<mgrwt>
<rscale>  0 0.79416664E+03</rscale>
<asrwt>0</asrwt>
<pdfrwt beam="1">  1        2 0.48455975E+00 0.87436812E+03</pdfrwt>
<pdfrwt beam="2">  1       -2 0.15822162E+00 0.87436812E+03</pdfrwt>
<totfact> 0.37976389E-01</totfact>
</mgrwt>
</event>
<event>
 4    1  0.3057048E-007  0.6612245E+03  0.7818608E-02  0.1022936E+00
          2   -1    0    0  501    0  0.00000000000E+00  0.00000000000E+00  0.10274694410E+04  0.10274694410E+04  0.25500000000E-02 0. -1.
         -2   -1    0    0    0  501 -0.00000000000E+00 -0.00000000000E+00 -0.19612490578E+03  0.19612490580E+03  0.25500000000E-02 0.  1.
    8880023    1    1    2    0    0 -0.50461192693E+02 -0.29348056044E+02  0.42633842479E+03  0.78675428126E+03  0.65864270000E+03 0.  1.
    8880022    1    1    2    0    0  0.50461192693E+02  0.29348056044E+02  0.40500611041E+03  0.43684006553E+03  0.15294330000E+03 0. -1.
<mgrwt>
<rscale>  0 0.46641996E+03</rscale>
<asrwt>0</asrwt>
<pdfrwt beam="1">  1        2 0.15807222E+00 0.66122451E+03</pdfrwt>
<pdfrwt beam="2">  1       -2 0.30173062E-01 0.66122451E+03</pdfrwt>
<totfact> 0.24884996E+02</totfact>
</mgrwt>
</event>
<event>
 4    1  0.3057048E-007  0.7591652E+03  0.7818608E-02  0.9807273E-01
         -2   -1    0    0    0  501 -0.00000000000E+00  0.00000000000E+00  0.60350666097E+03  0.60350666097E+03  0.25500000000E-02 0.  1.
          2   -1    0    0  501    0  0.00000000000E+00 -0.00000000000E+00 -0.16834917061E+04  0.16834917061E+04  0.25500000000E-02 0. -1.
    8880023    1    1    2    0    0 -0.22583428284E+03 -0.30252356023E+03  0.32378314181E+03  0.82532863575E+03  0.65864270000E+03 0.  1.
    8880022    1    1    2    0    0  0.22583428284E+03  0.30252356023E+03 -0.14037681870E+04  0.14616697314E+04  0.15294330000E+03 0.  0.
<mgrwt>
<rscale>  0 0.64973666E+03</rscale>
<asrwt>0</asrwt>
<pdfrwt beam="1">  1        2 0.25899872E+00 0.75916522E+03</pdfrwt>
<pdfrwt beam="2">  1       -2 0.92847179E-01 0.75916522E+03</pdfrwt>
<totfact> 0.10113751E+01</totfact>
</mgrwt>
</event>
<event>
 4    1  0.3057048E-007  0.6625592E+03  0.7818608E-02  0.1021675E+00
          2   -1    0    0  501    0  0.00000000000E+00  0.00000000000E+00  0.12547814358E+04  0.12547814358E+04  0.25500000000E-02 0. -1.
         -2   -1    0    0    0  501 -0.00000000000E+00 -0.00000000000E+00 -0.17429461091E+03  0.17429461093E+03  0.25500000000E-02 0.  1.
    8880023    1    1    2    0    0  0.71808744764E+02 -0.42484218264E+01  0.51587398660E+03  0.83970871213E+03  0.65864270000E+03 0.  1.
    8880022    1    1    2    0    0 -0.71808744764E+02  0.42484218264E+01  0.56461283828E+03  0.58936733459E+03  0.15294330000E+03 0.  0.
<mgrwt>
<rscale>  0 0.47086899E+03</rscale>
<asrwt>0</asrwt>
<pdfrwt beam="1">  1        2 0.19304329E+00 0.66255924E+03</pdfrwt>
<pdfrwt beam="2">  1       -2 0.26814556E-01 0.66255924E+03</pdfrwt>
<totfact> 0.22557005E+02</totfact>
</mgrwt>
</event>
<event>
 4    1  0.3057048E-007  0.1035508E+04  0.7818608E-02  0.9336510E-01
         -2   -1    0    0    0  501 -0.00000000000E+00  0.00000000000E+00  0.55781506678E+03  0.55781506678E+03  0.25500000000E-02 0.  1.
          2   -1    0    0  501    0  0.00000000000E+00 -0.00000000000E+00 -0.27561193778E+04  0.27561193778E+04  0.25500000000E-02 0. -1.
    8880023    1    1    2    0    0  0.79162401897E+03  0.10861460197E+03 -0.72809474205E+02  0.10380641334E+04  0.65864270000E+03 0.  1.
    8880022    1    1    2    0    0 -0.79162401897E+03 -0.10861460197E+03 -0.21254948368E+04  0.22758703112E+04  0.15294330000E+03 0.  0.
<mgrwt>
<rscale>  0 0.97490099E+03</rscale>
<asrwt>0</asrwt>
<pdfrwt beam="1">  1        2 0.42401836E+00 0.10355076E+04</pdfrwt>
<pdfrwt beam="2">  1       -2 0.85817704E-01 0.10355076E+04</pdfrwt>
<totfact> 0.29260693E+00</totfact>
</mgrwt>
</event>
<event>
 4    1  0.5331581E-007  0.7002154E+03  0.7818608E-02  0.9996309E-01
         -2   -1    0    0    0  501 -0.00000000000E+00  0.00000000000E+00  0.16718381482E+04  0.16718381482E+04  0.25500000000E-02 0.  1.
          2   -1    0    0  501    0  0.00000000000E+00 -0.00000000000E+00 -0.14297511444E+04  0.14297511444E+04  0.25500000000E-02 0. -1.
    8880023    1    1    2    0    0 -0.23646615705E+03  0.23983298537E+02  0.15831385932E+04  0.17310775412E+04  0.65864270000E+03 0.  1.
    8880022    1    1    2    0    0  0.23646615705E+03 -0.23983298537E+02 -0.13410515894E+04  0.13705117513E+04  0.15294330000E+03 0.  0.
<mgrwt>
<rscale>  0 0.55812390E+03</rscale>
<asrwt>0</asrwt>
<pdfrwt beam="1">  1        2 0.21996172E+00 0.70021543E+03</pdfrwt>
<pdfrwt beam="2">  1       -2 0.25720587E+00 0.70021543E+03</pdfrwt>
<totfact> 0.85075496E-01</totfact>
</mgrwt>
</event>
<event>
 4    1  0.3057048E-007  0.6914565E+03  0.7818608E-02  0.1003468E+00
          2   -1    0    0  501    0  0.00000000000E+00  0.00000000000E+00  0.63974803738E+03  0.63974803738E+03  0.25500000000E-02 0. -1.
         -2   -1    0    0    0  501 -0.00000000000E+00 -0.00000000000E+00 -0.68135174702E+03  0.68135174703E+03  0.25500000000E-02 0.  1.
    8880023    1    1    2    0    0  0.15307630207E+03 -0.14446280427E+03 -0.45851297540E+03  0.82966632507E+03  0.65864270000E+03 0.  1.
    8880022    1    1    2    0    0 -0.15307630207E+03  0.14446280427E+03  0.41690926576E+03  0.49143345934E+03  0.15294330000E+03 0.  0.
<mgrwt>
<rscale>  0 0.54155431E+03</rscale>
<asrwt>0</asrwt>
<pdfrwt beam="1">  1        2 0.98422775E-01 0.69145648E+03</pdfrwt>
<pdfrwt beam="2">  1       -2 0.10482335E+00 0.69145648E+03</pdfrwt>
<totfact> 0.34447933E+01</totfact>
</mgrwt>
</event>
<event>
 4    1  0.3057048E-007  0.8663633E+03  0.7818608E-02  0.9582343E-01
         -2   -1    0    0    0  501 -0.00000000000E+00  0.00000000000E+00  0.43093707166E+03  0.43093707167E+03  0.25500000000E-02 0.  1.
          2   -1    0    0  501    0  0.00000000000E+00 -0.00000000000E+00 -0.17329450697E+04  0.17329450697E+04  0.25500000000E-02 0. -1.
    8880023    1    1    2    0    0 -0.17449056360E+03  0.53509640778E+03 -0.15922955614E+03  0.88087421362E+03  0.65864270000E+03 0.  0.
    8880022    1    1    2    0    0  0.17449056360E+03 -0.53509640778E+03 -0.11427784419E+04  0.12830079278E+04  0.15294330000E+03 0.  0.
<mgrwt>
<rscale>  0 0.78475938E+03</rscale>
<asrwt>0</asrwt>
<pdfrwt beam="1">  1        2 0.26660693E+00 0.86636328E+03</pdfrwt>
<pdfrwt beam="2">  1       -2 0.66298012E-01 0.86636328E+03</pdfrwt>
<totfact> 0.19944532E+01</totfact>
</mgrwt>
</event>
<event>
 4    1  0.3057048E-007  0.7326770E+03  0.7818608E-02  0.9881816E-01
          2   -1    0    0  501    0  0.00000000000E+00  0.00000000000E+00  0.23399060076E+04  0.23399060076E+04  0.25500000000E-02 0. -1.
         -2   -1    0    0    0  501 -0.00000000000E+00 -0.00000000000E+00 -0.27252804245E+03  0.27252804246E+03  0.25500000000E-02 0.  1.
    8880023    1    1    2    0    0 -0.17648033307E+03 -0.26806720171E+03  0.27096254366E+03  0.78117618942E+03  0.65864270000E+03 0.  1.
    8880022    1    1    2    0    0  0.17648033307E+03  0.26806720171E+03  0.17964154215E+04  0.18312578607E+04  0.15294330000E+03 0.  0.
<mgrwt>
<rscale>  0 0.61150709E+03</rscale>
<asrwt>0</asrwt>
<pdfrwt beam="1">  1        2 0.35998553E+00 0.73267697E+03</pdfrwt>
<pdfrwt beam="2">  1       -2 0.41927392E-01 0.73267697E+03</pdfrwt>
<totfact> 0.24205640E+01</totfact>
</mgrwt>
</event>
<event>
 4    1  0.3057048E-007  0.7887361E+03  0.7818608E-02  0.9735702E-01
         -2   -1    0    0    0  501 -0.00000000000E+00  0.00000000000E+00  0.31793388629E+03  0.31793388630E+03  0.25500000000E-02 0.  1.
          2   -1    0    0  501    0  0.00000000000E+00 -0.00000000000E+00 -0.32524713066E+04  0.32524713066E+04  0.25500000000E-02 0. -1.
    8880023    1    1    2    0    0 -0.36655704321E+03  0.23222927563E+03 -0.22236181927E+03  0.81948123061E+03  0.65864270000E+03 0.  1.
    8880022    1    1    2    0    0  0.36655704321E+03 -0.23222927563E+03 -0.27121756010E+04  0.27509239622E+04  0.15294330000E+03 0.  0.
<mgrwt>
<rscale>  0 0.68930331E+03</rscale>
<asrwt>0</asrwt>
<pdfrwt beam="1">  1        2 0.50038018E+00 0.78873615E+03</pdfrwt>
<pdfrwt beam="2">  1       -2 0.48912908E-01 0.78873615E+03</pdfrwt>
<totfact> 0.50569939E+00</totfact>
</mgrwt>
</event>
<event>
 4    1  0.3057048E-007  0.1170883E+04  0.7818608E-02  0.9185959E-01
         -2   -1    0    0    0  501 -0.00000000000E+00  0.00000000000E+00  0.46687531147E+03  0.46687531148E+03  0.25500000000E-02 0.  1.
          2   -1    0    0  501    0  0.00000000000E+00 -0.00000000000E+00 -0.48899734516E+04  0.48899734516E+04  0.25500000000E-02 0. -1.
    8880023    1    1    2    0    0  0.81355339896E+03  0.52467843089E+03 -0.43337558281E+03  0.12485115902E+04  0.65864270000E+03 0.  0.
    8880022    1    1    2    0    0 -0.81355339896E+03 -0.52467843089E+03 -0.39897225573E+04  0.41083371729E+04  0.15294330000E+03 0.  0.
<mgrwt>
<rscale>  0 0.11199535E+04</rscale>
<asrwt>0</asrwt>
<pdfrwt beam="1">  1        2 0.75230357E+00 0.11708829E+04</pdfrwt>
<pdfrwt beam="2">  1       -2 0.71826974E-01 0.11708829E+04</pdfrwt>
<totfact> 0.86933872E-02</totfact>
</mgrwt>
</event>
<event>
 4    1  0.3057048E-007  0.6678197E+03  0.7818608E-02  0.1017276E+00
         -2   -1    0    0    0  501 -0.00000000000E+00  0.00000000000E+00  0.17534665373E+03  0.17534665375E+03  0.25500000000E-02 0.  1.
          2   -1    0    0  501    0  0.00000000000E+00 -0.00000000000E+00 -0.15851659326E+04  0.15851659326E+04  0.25500000000E-02 0. -1.
    8880023    1    1    2    0    0  0.65175722135E+02 -0.89023114940E+02 -0.50770333283E+03  0.83889562532E+03  0.65864270000E+03 0.  1.
    8880022    1    1    2    0    0 -0.65175722135E+02  0.89023114940E+02 -0.90211594606E+03  0.92161696105E+03  0.15294330000E+03 0.  0.
<mgrwt>
<rscale>  0 0.48682373E+03</rscale>
<asrwt>0</asrwt>
<pdfrwt beam="1">  1        2 0.24387167E+00 0.66781973E+03</pdfrwt>
<pdfrwt beam="2">  1       -2 0.26976409E-01 0.66781973E+03</pdfrwt>
<totfact> 0.14538406E+02</totfact>
</mgrwt>
</event>
<event>
 4    1  0.3057048E-007  0.8778110E+03  0.7818608E-02  0.9562634E-01
          2   -1    0    0  501    0  0.00000000000E+00  0.00000000000E+00  0.11865244023E+04  0.11865244024E+04  0.25500000000E-02 0. -1.
         -2   -1    0    0    0  501 -0.00000000000E+00 -0.00000000000E+00 -0.76391631789E+03  0.76391631789E+03  0.25500000000E-02 0.  1.
    8880023    1    1    2    0    0 -0.22467707481E+03 -0.53503473038E+03 -0.37309387682E+03  0.95380878474E+03  0.65864270000E+03 0.  0.
    8880022    1    1    2    0    0  0.22467707481E+03  0.53503473038E+03  0.79570196129E+03  0.99663193550E+03  0.15294330000E+03 0.  0.
<mgrwt>
<rscale>  0 0.79819448E+03</rscale>
<asrwt>0</asrwt>
<pdfrwt beam="1">  1        2 0.18254221E+00 0.87781100E+03</pdfrwt>
<pdfrwt beam="2">  1       -2 0.11752559E+00 0.87781100E+03</pdfrwt>
<totfact> 0.10840164E+01</totfact>
</mgrwt>
</event>
<event>
 4    1  0.3057048E-007  0.9565392E+03  0.7818608E-02  0.9440767E-01
          2   -1    0    0  501    0  0.00000000000E+00  0.00000000000E+00  0.66861460753E+03  0.66861460754E+03  0.25500000000E-02 0. -1.
         -2   -1    0    0    0  501 -0.00000000000E+00 -0.00000000000E+00 -0.11102632660E+04  0.11102632660E+04  0.25500000000E-02 0.  1.
    8880023    1    1    2    0    0 -0.65787821953E+03  0.21989396084E+03 -0.47458106340E+03  0.10677989032E+04  0.65864270000E+03 0.  0.
    8880022    1    1    2    0    0  0.65787821953E+03 -0.21989396084E+03  0.32932404906E+02  0.71107897034E+03  0.15294330000E+03 0.  1.
<mgrwt>
<rscale>  0 0.88795301E+03</rscale>
<asrwt>0</asrwt>
<pdfrwt beam="1">  1        2 0.10286379E+00 0.95653924E+03</pdfrwt>
<pdfrwt beam="2">  1       -2 0.17080973E+00 0.95653924E+03</pdfrwt>
<totfact> 0.90975190E+00</totfact>
</mgrwt>
</event>
<event>
 4    1  0.3057048E-007  0.6783873E+03  0.7818608E-02  0.1010251E+00
          2   -1    0    0  501    0  0.00000000000E+00  0.00000000000E+00  0.11192734329E+04  0.11192734329E+04  0.25500000000E-02 0. -1.
         -2   -1    0    0    0  501 -0.00000000000E+00 -0.00000000000E+00 -0.18654953705E+03  0.18654953706E+03  0.25500000000E-02 0.  1.
    8880023    1    1    2    0    0 -0.15832484893E+03 -0.36501594700E+02  0.78835353988E+03  0.10400531882E+04  0.65864270000E+03 0.  1.
    8880022    1    1    2    0    0  0.15832484893E+03  0.36501594700E+02  0.14437035601E+03  0.26576978179E+03  0.15294330000E+03 0. -1.
<mgrwt>
<rscale>  0 0.51375007E+03</rscale>
<asrwt>0</asrwt>
<pdfrwt beam="1">  1        2 0.17219591E+00 0.67838730E+03</pdfrwt>
<pdfrwt beam="2">  1       -2 0.28699929E-01 0.67838730E+03</pdfrwt>
<totfact> 0.23936479E+02</totfact>
</mgrwt>
</event>
<event>
 4    1  0.3057048E-007  0.6795451E+03  0.7818608E-02  0.1009582E+00
         -2   -1    0    0    0  501 -0.00000000000E+00  0.00000000000E+00  0.14864990824E+04  0.14864990824E+04  0.25500000000E-02 0.  1.
          2   -1    0    0  501    0  0.00000000000E+00 -0.00000000000E+00 -0.80482602462E+03  0.80482602463E+03  0.25500000000E-02 0. -1.
    8880023    1    1    2    0    0 -0.15662417552E+03  0.58653515372E+02  0.13902201593E+04  0.15474151559E+04  0.65864270000E+03 0.  1.
    8880022    1    1    2    0    0  0.15662417552E+03 -0.58653515372E+02 -0.70854710153E+03  0.74390995109E+03  0.15294330000E+03 0.  0.
<mgrwt>
<rscale>  0 0.51641048E+03</rscale>
<asrwt>0</asrwt>
<pdfrwt beam="1">  1        2 0.12381939E+00 0.67954512E+03</pdfrwt>
<pdfrwt beam="2">  1       -2 0.22869217E+00 0.67954512E+03</pdfrwt>
<totfact> 0.30917961E+00</totfact>
</mgrwt>
</event>
<event>
 4    1  0.3057048E-007  0.9257310E+03  0.7818608E-02  0.9485927E-01
          2   -1    0    0  501    0  0.00000000000E+00  0.00000000000E+00  0.10092710705E+04  0.10092710705E+04  0.25500000000E-02 0. -1.
         -2   -1    0    0    0  501 -0.00000000000E+00 -0.00000000000E+00 -0.72177749939E+03  0.72177749939E+03  0.25500000000E-02 0.  1.
    8880023    1    1    2    0    0 -0.24101857044E+03 -0.60421661266E+03  0.47015998633E+03  0.10382814095E+04  0.65864270000E+03 0. -1.
    8880022    1    1    2    0    0  0.24101857044E+03  0.60421661266E+03 -0.18266641518E+03  0.69276716043E+03  0.15294330000E+03 0.  0.
<mgrwt>
<rscale>  0 0.85329362E+03</rscale>
<asrwt>0</asrwt>
<pdfrwt beam="1">  1        2 0.15527247E+00 0.92573099E+03</pdfrwt>
<pdfrwt beam="2">  1       -2 0.11104269E+00 0.92573099E+03</pdfrwt>
<totfact> 0.15946476E+01</totfact>
</mgrwt>
</event>
<event>
 4    1  0.3057048E-007  0.6896082E+03  0.7818608E-02  0.1004339E+00
          2   -1    0    0  501    0  0.00000000000E+00  0.00000000000E+00  0.12628297674E+04  0.12628297674E+04  0.25500000000E-02 0. -1.
         -2   -1    0    0    0  501 -0.00000000000E+00 -0.00000000000E+00 -0.76381985793E+03  0.76381985794E+03  0.25500000000E-02 0.  1.
    8880023    1    1    2    0    0 -0.20308049404E+03  0.22529652306E+02 -0.59035367397E+03  0.90778683562E+03  0.65864270000E+03 0.  1.
    8880022    1    1    2    0    0  0.20308049404E+03 -0.22529652306E+02  0.10893635834E+04  0.11188627897E+04  0.15294330000E+03 0.  0.
<mgrwt>
<rscale>  0 0.53787772E+03</rscale>
<asrwt>0</asrwt>
<pdfrwt beam="1">  1        2 0.19428150E+00 0.68960821E+03</pdfrwt>
<pdfrwt beam="2">  1       -2 0.11751075E+00 0.68960821E+03</pdfrwt>
<totfact> 0.10003362E+01</totfact>
</mgrwt>
</event>
<event>
 4    1  0.3057048E-007  0.6720116E+03  0.7818608E-02  0.1014260E+00
         -2   -1    0    0    0  501 -0.00000000000E+00  0.00000000000E+00  0.22734499566E+03  0.22734499567E+03  0.25500000000E-02 0.  1.
          2   -1    0    0  501    0  0.00000000000E+00 -0.00000000000E+00 -0.15623495278E+04  0.15623495278E+04  0.25500000000E-02 0. -1.
    8880023    1    1    2    0    0 -0.12090069891E+03 -0.56324632344E+02 -0.30166073476E+03  0.73661309272E+03  0.65864270000E+03 0.  1.
    8880022    1    1    2    0    0  0.12090069891E+03  0.56324632344E+02 -0.10333437973E+04  0.10530814307E+04  0.15294330000E+03 0.  0.
<mgrwt>
<rscale>  0 0.49816113E+03</rscale>
<asrwt>0</asrwt>
<pdfrwt beam="1">  1        2 0.24036146E+00 0.67201164E+03</pdfrwt>
<pdfrwt beam="2">  1       -2 0.34976154E-01 0.67201164E+03</pdfrwt>
<totfact> 0.92270054E+01</totfact>
</mgrwt>
</event>
<event>
 4    1  0.3057048E-007  0.8041362E+03  0.7818608E-02  0.9701923E-01
         -2   -1    0    0    0  501 -0.00000000000E+00  0.00000000000E+00  0.59728864659E+03  0.59728864660E+03  0.25500000000E-02 0.  1.
          2   -1    0    0  501    0  0.00000000000E+00 -0.00000000000E+00 -0.22193716496E+04  0.22193716496E+04  0.25500000000E-02 0. -1.
    8880023    1    1    2    0    0  0.39620172197E+03  0.23632391971E+03  0.28152096736E+03  0.85199123284E+03  0.65864270000E+03 0.  1.
    8880022    1    1    2    0    0 -0.39620172197E+03 -0.23632391971E+03 -0.19036039704E+04  0.19646690634E+04  0.15294330000E+03 0.  0.
<mgrwt>
<rscale>  0 0.70902406E+03</rscale>
<asrwt>0</asrwt>
<pdfrwt beam="1">  1        2 0.34144179E+00 0.80413619E+03</pdfrwt>
<pdfrwt beam="2">  1       -2 0.91890562E-01 0.80413619E+03</pdfrwt>
<totfact> 0.52365208E+00</totfact>
</mgrwt>
</event>
<event>
 4    1  0.3057048E-007  0.6703247E+03  0.7818608E-02  0.1015431E+00
         -2   -1    0    0    0  501 -0.00000000000E+00  0.00000000000E+00  0.52021661496E+03  0.52021661497E+03  0.25500000000E-02 0.  1.
          2   -1    0    0  501    0  0.00000000000E+00 -0.00000000000E+00 -0.63833158530E+03  0.63833158531E+03  0.25500000000E-02 0. -1.
    8880023    1    1    2    0    0  0.41994495069E+02  0.11730907823E+03  0.27040823021E+03  0.72281102280E+03  0.65864270000E+03 0.  1.
    8880022    1    1    2    0    0 -0.41994495069E+02 -0.11730907823E+03 -0.38852320056E+03  0.43573717748E+03  0.15294330000E+03 0.  0.
<mgrwt>
<rscale>  0 0.49372007E+03</rscale>
<asrwt>0</asrwt>
<pdfrwt beam="1">  1        2 0.98204859E-01 0.67032467E+03</pdfrwt>
<pdfrwt beam="2">  1       -2 0.80033325E-01 0.67032467E+03</pdfrwt>
<totfact> 0.64644701E+01</totfact>
</mgrwt>
</event>
<event>
 4    1  0.3057048E-007  0.7768223E+03  0.7818608E-02  0.9763355E-01
         -2   -1    0    0    0  501 -0.00000000000E+00  0.00000000000E+00  0.20489646587E+03  0.20489646589E+03  0.25500000000E-02 0.  1.
          2   -1    0    0  501    0  0.00000000000E+00 -0.00000000000E+00 -0.19454699683E+04  0.19454699683E+04  0.25500000000E-02 0. -1.
    8880023    1    1    2    0    0  0.41187514558E+03  0.12397283844E+01 -0.81558173851E+03  0.11263331882E+04  0.65864270000E+03 0. -1.
    8880022    1    1    2    0    0 -0.41187514558E+03 -0.12397283844E+01 -0.92499176392E+03  0.10240332459E+04  0.15294330000E+03 0.  0.
<mgrwt>
<rscale>  0 0.67366747E+03</rscale>
<asrwt>0</asrwt>
<pdfrwt beam="1">  1        2 0.29930306E+00 0.77682230E+03</pdfrwt>
<pdfrwt beam="2">  1       -2 0.31522535E-01 0.77682230E+03</pdfrwt>
<totfact> 0.68554918E+01</totfact>
</mgrwt>
</event>
<event>
 4    1  0.3057048E-007  0.8609415E+03  0.7818608E-02  0.9591891E-01
         -2   -1    0    0    0  501 -0.00000000000E+00  0.00000000000E+00  0.89770786844E+03  0.89770786844E+03  0.25500000000E-02 0.  1.
          2   -1    0    0  501    0  0.00000000000E+00 -0.00000000000E+00 -0.81864957449E+03  0.81864957449E+03  0.25500000000E-02 0. -1.
    8880023    1    1    2    0    0 -0.46695299976E+03  0.29893981143E+03  0.50729869825E+03  0.99928589020E+03  0.65864270000E+03 0.  1.
    8880022    1    1    2    0    0  0.46695299976E+03 -0.29893981143E+03 -0.42824040430E+03  0.71707155273E+03  0.15294330000E+03 0.  0.
<mgrwt>
<rscale>  0 0.77835232E+03</rscale>
<asrwt>0</asrwt>
<pdfrwt beam="1">  1        2 0.12594609E+00 0.86094153E+03</pdfrwt>
<pdfrwt beam="2">  1       -2 0.13810890E+00 0.86094153E+03</pdfrwt>
<totfact> 0.12480183E+01</totfact>
</mgrwt>
</event>
<event>
 4    1  0.3057048E-007  0.9457067E+03  0.7818608E-02  0.9456318E-01
         -2   -1    0    0    0  501 -0.00000000000E+00  0.00000000000E+00  0.16909068423E+04  0.16909068423E+04  0.25500000000E-02 0.  1.
          2   -1    0    0  501    0  0.00000000000E+00 -0.00000000000E+00 -0.77847163331E+03  0.77847163331E+03  0.25500000000E-02 0. -1.
    8880023    1    1    2    0    0  0.67750964919E+03 -0.39137013274E+02  0.13494504140E+04  0.16478403007E+04  0.65864270000E+03 0.  1.
    8880022    1    1    2    0    0 -0.67750964919E+03  0.39137013274E+02 -0.43701520494E+03  0.82153817496E+03  0.15294330000E+03 0.  0.
<mgrwt>
<rscale>  0 0.87582352E+03</rscale>
<asrwt>0</asrwt>
<pdfrwt beam="1">  1        2 0.11976487E+00 0.94570674E+03</pdfrwt>
<pdfrwt beam="2">  1       -2 0.26013951E+00 0.94570674E+03</pdfrwt>
<totfact> 0.19998431E+00</totfact>
</mgrwt>
</event>
<event>
 4    1  0.3057048E-007  0.1082603E+04  0.7818608E-02  0.9280677E-01
         -2   -1    0    0    0  501 -0.00000000000E+00  0.00000000000E+00  0.45191495933E+03  0.45191495933E+03  0.25500000000E-02 0.  1.
          2   -1    0    0  501    0  0.00000000000E+00 -0.00000000000E+00 -0.34330300324E+04  0.34330300324E+04  0.25500000000E-02 0. -1.
    8880023    1    1    2    0    0  0.12799597438E+03  0.84960976946E+03 -0.38983156970E+03  0.11506513759E+04  0.65864270000E+03 0.  0.
    8880022    1    1    2    0    0 -0.12799597438E+03 -0.84960976946E+03 -0.25912835034E+04  0.27342936159E+04  0.15294330000E+03 0.  0.
<mgrwt>
<rscale>  0 0.10258142E+04</rscale>
<asrwt>0</asrwt>
<pdfrwt beam="1">  1        2 0.52815845E+00 0.10826033E+04</pdfrwt>
<pdfrwt beam="2">  1       -2 0.69525381E-01 0.10826033E+04</pdfrwt>
<totfact> 0.17425050E+00</totfact>
</mgrwt>
</event>
<event>
 4    1  0.3057048E-007  0.7815969E+03  0.7818608E-02  0.9752099E-01
          2   -1    0    0  501    0  0.00000000000E+00  0.00000000000E+00  0.13850894286E+04  0.13850894286E+04  0.25500000000E-02 0. -1.
         -2   -1    0    0    0  501 -0.00000000000E+00 -0.00000000000E+00 -0.33358079948E+03  0.33358079949E+03  0.25500000000E-02 0.  1.
    8880023    1    1    2    0    0  0.12263024694E+03  0.40254854353E+03  0.28685918975E+03  0.83257546707E+03  0.65864270000E+03 0.  1.
    8880022    1    1    2    0    0 -0.12263024694E+03 -0.40254854353E+03  0.76464943940E+03  0.88609476105E+03  0.15294330000E+03 0.  0.
<mgrwt>
<rscale>  0 0.67997773E+03</rscale>
<asrwt>0</asrwt>
<pdfrwt beam="1">  1        2 0.21309068E+00 0.78159690E+03</pdfrwt>
<pdfrwt beam="2">  1       -2 0.51320123E-01 0.78159690E+03</pdfrwt>
<totfact> 0.53831363E+01</totfact>
</mgrwt>
</event>
<event>
 4    1  0.3476754E-007  0.6689946E+03  0.7818608E-02  0.1016394E+00
         -2   -1    0    0    0  501 -0.00000000000E+00  0.00000000000E+00  0.86056682257E+03  0.86056682258E+03  0.25500000000E-02 0.  1.
          2   -1    0    0  501    0  0.00000000000E+00 -0.00000000000E+00 -0.18881490105E+04  0.18881490105E+04  0.25500000000E-02 0. -1.
    8880023    1    1    2    0    0  0.64335186027E+02 -0.98002766118E+02  0.72446368363E+03  0.98610414941E+03  0.65864270000E+03 0.  1.
    8880022    1    1    2    0    0 -0.64335186027E+02  0.98002766118E+02 -0.17520458716E+04  0.17626116837E+04  0.15294330000E+03 0.  0.
<mgrwt>
<rscale>  0 0.49010620E+03</rscale>
<asrwt>0</asrwt>
<pdfrwt beam="1">  1        2 0.29048446E+00 0.66899459E+03</pdfrwt>
<pdfrwt beam="2">  1       -2 0.13239490E+00 0.66899459E+03</pdfrwt>
<totfact> 0.33545977E+00</totfact>
</mgrwt>
</event>
<event>
 4    1  0.3057048E-007  0.7395534E+03  0.7818608E-02  0.9861250E-01
          2   -1    0    0  501    0  0.00000000000E+00  0.00000000000E+00  0.12797290370E+04  0.12797290370E+04  0.25500000000E-02 0. -1.
         -2   -1    0    0    0  501 -0.00000000000E+00 -0.00000000000E+00 -0.43845504640E+03  0.43845504640E+03  0.25500000000E-02 0.  1.
    8880023    1    1    2    0    0  0.20094962537E+01 -0.33634066116E+03 -0.62112843145E+02  0.74215718683E+03  0.65864270000E+03 0.  0.
    8880022    1    1    2    0    0 -0.20094962537E+01  0.33634066116E+03  0.90338683371E+03  0.97602689654E+03  0.15294330000E+03 0. -1.
<mgrwt>
<rscale>  0 0.62176604E+03</rscale>
<asrwt>0</asrwt>
<pdfrwt beam="1">  1        2 0.19688139E+00 0.73955344E+03</pdfrwt>
<pdfrwt beam="2">  1       -2 0.67454623E-01 0.73955344E+03</pdfrwt>
<totfact> 0.34942384E+01</totfact>
</mgrwt>
</event>
<event>
 4    1  0.3057048E-007  0.6719776E+03  0.7818608E-02  0.1014283E+00
         -2   -1    0    0    0  501 -0.00000000000E+00  0.00000000000E+00  0.18414693114E+03  0.18414693116E+03  0.25500000000E-02 0.  1.
          2   -1    0    0  501    0  0.00000000000E+00 -0.00000000000E+00 -0.17330271544E+04  0.17330271544E+04  0.25500000000E-02 0. -1.
    8880023    1    1    2    0    0  0.52804493193E+02  0.12229211249E+03 -0.47155846233E+03  0.82092707651E+03  0.65864270000E+03 0.  1.
    8880022    1    1    2    0    0 -0.52804493193E+02 -0.12229211249E+03 -0.10773217610E+04  0.10962470091E+04  0.15294330000E+03 0.  0.
<mgrwt>
<rscale>  0 0.49807296E+03</rscale>
<asrwt>0</asrwt>
<pdfrwt beam="1">  1        2 0.26661955E+00 0.67197759E+03</pdfrwt>
<pdfrwt beam="2">  1       -2 0.28330298E-01 0.67197759E+03</pdfrwt>
<totfact> 0.11030544E+02</totfact>
</mgrwt>
</event>
<event>
 4    1  0.3057048E-007  0.8951984E+03  0.7818608E-02  0.9533784E-01
          2   -1    0    0  501    0  0.00000000000E+00  0.00000000000E+00  0.18714975213E+04  0.18714975213E+04  0.25500000000E-02 0. -1.
         -2   -1    0    0    0  501 -0.00000000000E+00 -0.00000000000E+00 -0.85050175520E+03  0.85050175521E+03  0.25500000000E-02 0.  1.
    8880023    1    1    2    0    0 -0.58718959525E+03  0.15092516121E+03 -0.53651860155E+03  0.10436629921E+04  0.65864270000E+03 0.  0.
    8880022    1    1    2    0    0  0.58718959525E+03 -0.15092516121E+03  0.15575143677E+04  0.16783362844E+04  0.15294330000E+03 0.  0.
<mgrwt>
<rscale>  0 0.81838236E+03</rscale>
<asrwt>0</asrwt>
<pdfrwt beam="1">  1        2 0.28792269E+00 0.89519843E+03</pdfrwt>
<pdfrwt beam="2">  1       -2 0.13084643E+00 0.89519843E+03</pdfrwt>
<totfact> 0.34006023E+00</totfact>
</mgrwt>
</event>
<event>
 4    1  0.3057048E-007  0.6940050E+03  0.7818608E-02  0.1002304E+00
         -2   -1    0    0    0  501 -0.00000000000E+00  0.00000000000E+00  0.12747498701E+03  0.12747498704E+03  0.25500000000E-02 0.  1.
          2   -1    0    0  501    0  0.00000000000E+00 -0.00000000000E+00 -0.50344978369E+04  0.50344978369E+04  0.25500000000E-02 0. -1.
    8880023    1    1    2    0    0 -0.19519540335E+03 -0.98648172127E+02 -0.85518644613E+03  0.11013567865E+04  0.65864270000E+03 0.  1.
    8880022    1    1    2    0    0  0.19519540335E+03  0.98648172127E+02 -0.40518364038E+04  0.40606160374E+04  0.15294330000E+03 0.  0.
<mgrwt>
<rscale>  0 0.54651302E+03</rscale>
<asrwt>0</asrwt>
<pdfrwt beam="1">  1        2 0.77453798E+00 0.69400498E+03</pdfrwt>
<pdfrwt beam="2">  1       -2 0.19611540E-01 0.69400498E+03</pdfrwt>
<totfact> 0.81896742E-01</totfact>
</mgrwt>
</event>
<event>
 4    1  0.3057048E-007  0.7664273E+03  0.7818608E-02  0.9788743E-01
         -2   -1    0    0    0  501 -0.00000000000E+00  0.00000000000E+00  0.23581790146E+03  0.23581790148E+03  0.25500000000E-02 0.  1.
          2   -1    0    0  501    0  0.00000000000E+00 -0.00000000000E+00 -0.37046102530E+04  0.37046102530E+04  0.25500000000E-02 0. -1.
    8880023    1    1    2    0    0 -0.29566053753E+03  0.25726524946E+03 -0.44242288242E+03  0.88495693409E+03  0.65864270000E+03 0.  1.
    8880022    1    1    2    0    0  0.29566053753E+03 -0.25726524946E+03 -0.30263694692E+04  0.30554712204E+04  0.15294330000E+03 0.  0.
<mgrwt>
<rscale>  0 0.65970152E+03</rscale>
<asrwt>0</asrwt>
<pdfrwt beam="1">  1        2 0.56994000E+00 0.76642728E+03</pdfrwt>
<pdfrwt beam="2">  1       -2 0.36279680E-01 0.76642728E+03</pdfrwt>
<totfact> 0.45073033E+00</totfact>
</mgrwt>
</event>
<event>
 4    1  0.3057048E-007  0.8354495E+03  0.7818608E-02  0.9638821E-01
          2   -1    0    0  501    0  0.00000000000E+00  0.00000000000E+00  0.25718585973E+04  0.25718585973E+04  0.25500000000E-02 0. -1.
         -2   -1    0    0    0  501 -0.00000000000E+00 -0.00000000000E+00 -0.65742111446E+03  0.65742111446E+03  0.25500000000E-02 0.  1.
    8880023    1    1    2    0    0  0.12915479729E+03  0.49747826282E+03 -0.34735896889E+03  0.90478397597E+03  0.65864270000E+03 0.  1.
    8880022    1    1    2    0    0 -0.12915479729E+03 -0.49747826282E+03  0.22617964517E+04  0.23244957358E+04  0.15294330000E+03 0.  0.
<mgrwt>
<rscale>  0 0.74779175E+03</rscale>
<asrwt>0</asrwt>
<pdfrwt beam="1">  1        2 0.39567056E+00 0.83544945E+03</pdfrwt>
<pdfrwt beam="2">  1       -2 0.10114171E+00 0.83544945E+03</pdfrwt>
<totfact> 0.26338979E+00</totfact>
</mgrwt>
</event>
<event>
 4    1  0.3057048E-007  0.7108397E+03  0.7818608E-02  0.9954896E-01
          2   -1    0    0  501    0  0.00000000000E+00  0.00000000000E+00  0.16041685039E+04  0.16041685039E+04  0.25500000000E-02 0. -1.
         -2   -1    0    0    0  501 -0.00000000000E+00 -0.00000000000E+00 -0.46369412995E+03  0.46369412996E+03  0.25500000000E-02 0.  1.
    8880023    1    1    2    0    0  0.20028841144E+03 -0.17710848407E+03 -0.16233201457E+03  0.72913973428E+03  0.65864270000E+03 0.  1.
    8880022    1    1    2    0    0 -0.20028841144E+03  0.17710848407E+03  0.13028063885E+04  0.13387228996E+04  0.15294330000E+03 0.  0.
<mgrwt>
<rscale>  0 0.57672988E+03</rscale>
<asrwt>0</asrwt>
<pdfrwt beam="1">  1        2 0.24679515E+00 0.71083969E+03</pdfrwt>
<pdfrwt beam="2">  1       -2 0.71337559E-01 0.71083969E+03</pdfrwt>
<totfact> 0.20395878E+01</totfact>
</mgrwt>
</event>
<event>
 4    1  0.3057048E-007  0.6713213E+03  0.7818608E-02  0.1014733E+00
         -2   -1    0    0    0  501 -0.00000000000E+00  0.00000000000E+00  0.79578844476E+03  0.79578844477E+03  0.25500000000E-02 0.  1.
          2   -1    0    0  501    0  0.00000000000E+00 -0.00000000000E+00 -0.83787441535E+03  0.83787441535E+03  0.25500000000E-02 0. -1.
    8880023    1    1    2    0    0  0.12043221007E+03  0.48560370256E+02  0.63707141404E+03  0.92549025907E+03  0.65864270000E+03 0.  1.
    8880022    1    1    2    0    0 -0.12043221007E+03 -0.48560370256E+02 -0.67915738462E+03  0.70817260106E+03  0.15294330000E+03 0.  0.
<mgrwt>
<rscale>  0 0.49636197E+03</rscale>
<asrwt>0</asrwt>
<pdfrwt beam="1">  1        2 0.12890376E+00 0.67132126E+03</pdfrwt>
<pdfrwt beam="2">  1       -2 0.12242899E+00 0.67132126E+03</pdfrwt>
<totfact> 0.16738954E+01</totfact>
</mgrwt>
</event>
<event>
 4    1  0.3057048E-007  0.6699036E+03  0.7818608E-02  0.1015732E+00
         -2   -1    0    0    0  501 -0.00000000000E+00  0.00000000000E+00  0.11659247454E+04  0.11659247454E+04  0.25500000000E-02 0.  1.
          2   -1    0    0  501    0  0.00000000000E+00 -0.00000000000E+00 -0.50878942791E+03  0.50878942791E+03  0.25500000000E-02 0. -1.
    8880023    1    1    2    0    0  0.16182116032E+02  0.12123845286E+03  0.10443801629E+04  0.12407661964E+04  0.65864270000E+03 0.  0.
    8880022    1    1    2    0    0 -0.16182116032E+02 -0.12123845286E+03 -0.38724484540E+03  0.43394797687E+03  0.15294330000E+03 0.  0.
<mgrwt>
<rscale>  0 0.49258720E+03</rscale>
<asrwt>0</asrwt>
<pdfrwt beam="1">  1        2 0.78275297E-01 0.66990360E+03</pdfrwt>
<pdfrwt beam="2">  1       -2 0.17937304E+00 0.66990360E+03</pdfrwt>
<totfact> 0.11332044E+01</totfact>
</mgrwt>
</event>
<event>
 4    1  0.3057048E-007  0.9684665E+03  0.7818608E-02  0.9424028E-01
          2   -1    0    0  501    0  0.00000000000E+00  0.00000000000E+00  0.12237806217E+04  0.12237806217E+04  0.25500000000E-02 0. -1.
         -2   -1    0    0    0  501 -0.00000000000E+00 -0.00000000000E+00 -0.67942189807E+03  0.67942189808E+03  0.25500000000E-02 0.  1.
    8880023    1    1    2    0    0  0.69251416581E+03 -0.15665656533E+03 -0.42561984782E+02  0.96940129880E+03  0.65864270000E+03 0.  1.
    8880022    1    1    2    0    0 -0.69251416581E+03  0.15665656533E+03  0.58692070839E+03  0.93380122095E+03  0.15294330000E+03 0. -1.
<mgrwt>
<rscale>  0 0.90124354E+03</rscale>
<asrwt>0</asrwt>
<pdfrwt beam="1">  1        2 0.18827394E+00 0.96846650E+03</pdfrwt>
<pdfrwt beam="2">  1       -2 0.10452645E+00 0.96846650E+03</pdfrwt>
<totfact> 0.13577854E+01</totfact>
</mgrwt>
</event>
<event>
 4    1  0.3057048E-007  0.7518960E+03  0.7818608E-02  0.9826559E-01
         -2   -1    0    0    0  501 -0.00000000000E+00  0.00000000000E+00  0.87206108840E+03  0.87206108840E+03  0.25500000000E-02 0.  1.
          2   -1    0    0  501    0  0.00000000000E+00 -0.00000000000E+00 -0.10965126075E+04  0.10965126075E+04  0.25500000000E-02 0. -1.
    8880023    1    1    2    0    0 -0.36178955422E+03  0.25410141584E+02  0.66001121458E+03  0.10004810675E+04  0.65864270000E+03 0.  1.
    8880022    1    1    2    0    0  0.36178955422E+03 -0.25410141584E+02 -0.88446273371E+03  0.96809262840E+03  0.15294330000E+03 0.  0.
<mgrwt>
<rscale>  0 0.63956533E+03</rscale>
<asrwt>0</asrwt>
<pdfrwt beam="1">  1        2 0.16869425E+00 0.75189598E+03</pdfrwt>
<pdfrwt beam="2">  1       -2 0.13416324E+00 0.75189598E+03</pdfrwt>
<totfact> 0.89390014E+00</totfact>
</mgrwt>
</event>
<event>
 4    1  0.3057048E-007  0.8032817E+03  0.7818608E-02  0.9703745E-01
         -2   -1    0    0    0  501 -0.00000000000E+00  0.00000000000E+00  0.48849231259E+03  0.48849231260E+03  0.25500000000E-02 0.  1.
          2   -1    0    0  501    0  0.00000000000E+00 -0.00000000000E+00 -0.26235831234E+04  0.26235831234E+04  0.25500000000E-02 0. -1.
    8880023    1    1    2    0    0 -0.11210571330E+03  0.44596373406E+03  0.11403377010E+03  0.81133547318E+03  0.65864270000E+03 0.  0.
    8880022    1    1    2    0    0  0.11210571330E+03 -0.44596373406E+03 -0.22491245809E+04  0.23007399628E+04  0.15294330000E+03 0.  0.
<mgrwt>
<rscale>  0 0.70794272E+03</rscale>
<asrwt>0</asrwt>
<pdfrwt beam="1">  1        2 0.40362816E+00 0.80328174E+03</pdfrwt>
<pdfrwt beam="2">  1       -2 0.75152665E-01 0.80328174E+03</pdfrwt>
<totfact> 0.48906842E+00</totfact>
</mgrwt>
</event>
<event>
 4    1  0.3057048E-007  0.1346355E+04  0.7818608E-02  0.9026529E-01
          2   -1    0    0  501    0  0.00000000000E+00  0.00000000000E+00  0.15598939771E+04  0.15598939771E+04  0.25500000000E-02 0. -1.
         -2   -1    0    0    0  501 -0.00000000000E+00 -0.00000000000E+00 -0.13621513783E+04  0.13621513783E+04  0.25500000000E-02 0.  1.
    8880023    1    1    2    0    0 -0.79203475571E+03 -0.86691568995E+03 -0.62072061863E+03  0.14825539317E+04  0.65864270000E+03 0.  1.
    8880022    1    1    2    0    0  0.79203475571E+03  0.86691568995E+03  0.81846321737E+03  0.14394914237E+04  0.15294330000E+03 0.  0.
<mgrwt>
<rscale>  0 0.13038362E+04</rscale>
<asrwt>0</asrwt>
<pdfrwt beam="1">  1        2 0.23998369E+00 0.13463551E+04</pdfrwt>
<pdfrwt beam="2">  1       -2 0.20956175E+00 0.13463551E+04</pdfrwt>
<totfact> 0.12928135E+00</totfact>
</mgrwt>
</event>
<event>
 4    1  0.3057048E-007  0.6911922E+03  0.7818608E-02  0.1003591E+00
         -2   -1    0    0    0  501 -0.00000000000E+00  0.00000000000E+00  0.65379844563E+03  0.65379844564E+03  0.25500000000E-02 0.  1.
          2   -1    0    0  501    0  0.00000000000E+00 -0.00000000000E+00 -0.20469625191E+04  0.20469625191E+04  0.25500000000E-02 0. -1.
    8880023    1    1    2    0    0 -0.19183934008E+03 -0.84463671019E+02  0.45951451451E+03  0.83000014424E+03  0.65864270000E+03 0.  1.
    8880022    1    1    2    0    0  0.19183934008E+03  0.84463671019E+02 -0.18526785880E+04  0.18707608205E+04  0.15294330000E+03 0.  0.
<mgrwt>
<rscale>  0 0.54103288E+03</rscale>
<asrwt>0</asrwt>
<pdfrwt beam="1">  1        2 0.31491731E+00 0.69119219E+03</pdfrwt>
<pdfrwt beam="2">  1       -2 0.10058438E+00 0.69119219E+03</pdfrwt>
<totfact> 0.53694339E+00</totfact>
</mgrwt>
</event>
<event>
 4    1  0.3057048E-007  0.1472859E+04  0.7818608E-02  0.8929043E-01
          2   -1    0    0  501    0  0.00000000000E+00  0.00000000000E+00  0.23639519340E+04  0.23639519340E+04  0.25500000000E-02 0. -1.
         -2   -1    0    0    0  501 -0.00000000000E+00 -0.00000000000E+00 -0.17224238691E+04  0.17224238691E+04  0.25500000000E-02 0.  1.
    8880023    1    1    2    0    0  0.11743619413E+03 -0.13121403210E+04 -0.11420478423E+04  0.18637561434E+04  0.65864270000E+03 0.  0.
    8880022    1    1    2    0    0 -0.11743619413E+03  0.13121403210E+04  0.17835759073E+04  0.22226196597E+04  0.15294330000E+03 0.  0.
<mgrwt>
<rscale>  0 0.14347488E+04</rscale>
<asrwt>0</asrwt>
<pdfrwt beam="1">  1        2 0.36368491E+00 0.14728590E+04</pdfrwt>
<pdfrwt beam="2">  1       -2 0.26498829E+00 0.14728590E+04</pdfrwt>
<totfact> 0.20394087E-01</totfact>
</mgrwt>
</event>
<event>
 4    1  0.3057048E-007  0.6831776E+03  0.7818608E-02  0.1007580E+00
          2   -1    0    0  501    0  0.00000000000E+00  0.00000000000E+00  0.13884884104E+04  0.13884884104E+04  0.25500000000E-02 0. -1.
         -2   -1    0    0    0  501 -0.00000000000E+00 -0.00000000000E+00 -0.83987866975E+03  0.83987866975E+03  0.25500000000E-02 0.  1.
    8880023    1    1    2    0    0  0.10429747994E+03  0.14847029931E+03 -0.68777482990E+03  0.96941519330E+03  0.65864270000E+03 0.  1.
    8880022    1    1    2    0    0 -0.10429747994E+03 -0.14847029931E+03  0.12363845706E+04  0.12589518869E+04  0.15294330000E+03 0.  0.
<mgrwt>
<rscale>  0 0.52447686E+03</rscale>
<asrwt>0</asrwt>
<pdfrwt beam="1">  1        2 0.21361360E+00 0.68317758E+03</pdfrwt>
<pdfrwt beam="2">  1       -2 0.12921210E+00 0.68317758E+03</pdfrwt>
<totfact> 0.66969813E+00</totfact>
</mgrwt>
</event>
<event>
 4    1  0.3057048E-007  0.8906323E+03  0.7818608E-02  0.9541240E-01
         -2   -1    0    0    0  501 -0.00000000000E+00  0.00000000000E+00  0.27881968856E+03  0.27881968858E+03  0.25500000000E-02 0.  1.
          2   -1    0    0  501    0  0.00000000000E+00 -0.00000000000E+00 -0.21796337937E+04  0.21796337937E+04  0.25500000000E-02 0. -1.
    8880023    1    1    2    0    0 -0.90253612432E+02  0.59268025981E+03 -0.80743442989E+03  0.12021548027E+04  0.65864270000E+03 0.  1.
    8880022    1    1    2    0    0  0.90253612432E+02 -0.59268025981E+03 -0.10933796752E+04  0.12562986795E+04  0.15294330000E+03 0.  0.
<mgrwt>
<rscale>  0 0.81310444E+03</rscale>
<asrwt>0</asrwt>
<pdfrwt beam="1">  1        2 0.33532827E+00 0.89063225E+03</pdfrwt>
<pdfrwt beam="2">  1       -2 0.42895338E-01 0.89063225E+03</pdfrwt>
<totfact> 0.27823291E+01</totfact>
</mgrwt>
</event>
<event>
 4    1  0.3057048E-007  0.7595989E+03  0.7818608E-02  0.9806147E-01
         -2   -1    0    0    0  501 -0.00000000000E+00  0.00000000000E+00  0.19565885759E+03  0.19565885761E+03  0.25500000000E-02 0.  1.
          2   -1    0    0  501    0  0.00000000000E+00 -0.00000000000E+00 -0.18184138649E+04  0.18184138649E+04  0.25500000000E-02 0. -1.
    8880023    1    1    2    0    0  0.16710727007E+03  0.33949300485E+03 -0.12422357611E+04  0.14560701331E+04  0.65864270000E+03 0.  0.
    8880022    1    1    2    0    0 -0.16710727007E+03 -0.33949300485E+03 -0.38051924620E+03  0.55800258941E+03  0.15294330000E+03 0.  0.
<mgrwt>
<rscale>  0 0.65033707E+03</rscale>
<asrwt>0</asrwt>
<pdfrwt beam="1">  1        2 0.27975597E+00 0.75959894E+03</pdfrwt>
<pdfrwt beam="2">  1       -2 0.30101364E-01 0.75959894E+03</pdfrwt>
<totfact> 0.87797192E+01</totfact>
</mgrwt>
</event>
<event>
 4    1  0.3057048E-007  0.6784522E+03  0.7818608E-02  0.1010213E+00
         -2   -1    0    0    0  501 -0.00000000000E+00  0.00000000000E+00  0.10219730843E+04  0.10219730843E+04  0.25500000000E-02 0.  1.
          2   -1    0    0  501    0  0.00000000000E+00 -0.00000000000E+00 -0.39873084368E+03  0.39873084369E+03  0.25500000000E-02 0. -1.
    8880023    1    1    2    0    0 -0.86012213130E+02 -0.13816348404E+03  0.85988885725E+03  0.10953110527E+04  0.65864270000E+03 0.  1.
    8880022    1    1    2    0    0  0.86012213130E+02  0.13816348404E+03 -0.23664661660E+03  0.32539287530E+03  0.15294330000E+03 0.  0.
<mgrwt>
<rscale>  0 0.51390054E+03</rscale>
<asrwt>0</asrwt>
<pdfrwt beam="1">  1        2 0.61343207E-01 0.67845225E+03</pdfrwt>
<pdfrwt beam="2">  1       -2 0.15722663E+00 0.67845225E+03</pdfrwt>
<totfact> 0.21495331E+01</totfact>
</mgrwt>
</event>
<event>
 4    1  0.3057048E-007  0.7402050E+03  0.7818608E-02  0.9859350E-01
          2   -1    0    0  501    0  0.00000000000E+00  0.00000000000E+00  0.26516285079E+04  0.26516285079E+04  0.25500000000E-02 0. -1.
         -2   -1    0    0    0  501 -0.00000000000E+00 -0.00000000000E+00 -0.17487655809E+03  0.17487655811E+03  0.25500000000E-02 0.  1.
    8880023    1    1    2    0    0 -0.27654207309E+03  0.19395288482E+03  0.72561490139E+03  0.10365425370E+04  0.65864270000E+03 0.  1.
    8880022    1    1    2    0    0  0.27654207309E+03 -0.19395288482E+03  0.17511370484E+04  0.17899625290E+04  0.15294330000E+03 0.  0.
<mgrwt>
<rscale>  0 0.62272440E+03</rscale>
<asrwt>0</asrwt>
<pdfrwt beam="1">  1        2 0.40794286E+00 0.74020500E+03</pdfrwt>
<pdfrwt beam="2">  1       -2 0.26904085E-01 0.74020500E+03</pdfrwt>
<totfact> 0.37269706E+01</totfact>
</mgrwt>
</event>
<event>
 4    1  0.3428868E-007  0.8206320E+03  0.7818608E-02  0.9667842E-01
          2   -1    0    0  501    0  0.00000000000E+00  0.00000000000E+00  0.17216351988E+04  0.17216351988E+04  0.25500000000E-02 0. -1.
         -2   -1    0    0    0  501 -0.00000000000E+00 -0.00000000000E+00 -0.11508086417E+04  0.11508086417E+04  0.25500000000E-02 0.  1.
    8880023    1    1    2    0    0 -0.43313192345E+02 -0.48759678590E+03 -0.95709929986E+03  0.12607441986E+04  0.65864270000E+03 0.  0.
    8880022    1    1    2    0    0  0.43313192345E+02  0.48759678590E+03  0.15279258570E+04  0.16116996419E+04  0.15294330000E+03 0.  0.
<mgrwt>
<rscale>  0 0.72964159E+03</rscale>
<asrwt>0</asrwt>
<pdfrwt beam="1">  1        2 0.26486695E+00 0.82063199E+03</pdfrwt>
<pdfrwt beam="2">  1       -2 0.17704748E+00 0.82063199E+03</pdfrwt>
<totfact> 0.18519852E+00</totfact>
</mgrwt>
</event>
<event>
 4    1  0.3057048E-007  0.7786446E+03  0.7818608E-02  0.9759031E-01
          2   -1    0    0  501    0  0.00000000000E+00  0.00000000000E+00  0.32721035507E+04  0.32721035507E+04  0.25500000000E-02 0. -1.
         -2   -1    0    0    0  501 -0.00000000000E+00 -0.00000000000E+00 -0.21804480235E+03  0.21804480236E+03  0.25500000000E-02 0.  1.
    8880023    1    1    2    0    0 -0.41500154972E+03  0.15839837664E+02  0.56496412131E+03  0.96201447565E+03  0.65864270000E+03 0.  1.
    8880022    1    1    2    0    0  0.41500154972E+03 -0.15839837664E+02  0.24890946271E+04  0.25281338774E+04  0.15294330000E+03 0.  0.
<mgrwt>
<rscale>  0 0.67608316E+03</rscale>
<asrwt>0</asrwt>
<pdfrwt beam="1">  1        2 0.50340054E+00 0.77864459E+03</pdfrwt>
<pdfrwt beam="2">  1       -2 0.33545354E-01 0.77864459E+03</pdfrwt>
<totfact> 0.10294850E+01</totfact>
</mgrwt>
</event>
<event>
 4    1  0.3057048E-007  0.6958441E+03  0.7818608E-02  0.1001490E+00
         -2   -1    0    0    0  501 -0.00000000000E+00  0.00000000000E+00  0.30067145112E+03  0.30067145114E+03  0.25500000000E-02 0.  1.
          2   -1    0    0  501    0  0.00000000000E+00 -0.00000000000E+00 -0.20511805603E+04  0.20511805603E+04  0.25500000000E-02 0. -1.
    8880023    1    1    2    0    0 -0.17582156208E+03 -0.13955476225E+03 -0.12893869348E+03  0.70768930068E+03  0.65864270000E+03 0.  1.
    8880022    1    1    2    0    0  0.17582156208E+03  0.13955476225E+03 -0.16215704157E+04  0.16441627107E+04  0.15294330000E+03 0.  0.
<mgrwt>
<rscale>  0 0.55001759E+03</rscale>
<asrwt>0</asrwt>
<pdfrwt beam="1">  1        2 0.31556623E+00 0.69584406E+03</pdfrwt>
<pdfrwt beam="2">  1       -2 0.46257147E-01 0.69584406E+03</pdfrwt>
<totfact> 0.28874997E+01</totfact>
</mgrwt>
</event>
<event>
 4    1  0.3057048E-007  0.6918634E+03  0.7818608E-02  0.1003279E+00
         -2   -1    0    0    0  501 -0.00000000000E+00  0.00000000000E+00  0.14313068593E+04  0.14313068593E+04  0.25500000000E-02 0.  1.
          2   -1    0    0  501    0  0.00000000000E+00 -0.00000000000E+00 -0.26814350407E+03  0.26814350408E+03  0.25500000000E-02 0. -1.
    8880023    1    1    2    0    0 -0.16144415048E+03  0.13711521478E+03  0.12461482836E+04  0.14253282242E+04  0.65864270000E+03 0.  1.
    8880022    1    1    2    0    0  0.16144415048E+03 -0.13711521478E+03 -0.82984928311E+02  0.27412213918E+03  0.15294330000E+03 0.  0.
<mgrwt>
<rscale>  0 0.54235449E+03</rscale>
<asrwt>0</asrwt>
<pdfrwt beam="1">  1        2 0.41252846E-01 0.69186343E+03</pdfrwt>
<pdfrwt beam="2">  1       -2 0.22020106E+00 0.69186343E+03</pdfrwt>
<totfact> 0.12588153E+01</totfact>
</mgrwt>
</event>
<event>
 4    1  0.3057048E-007  0.7125907E+03  0.7818608E-02  0.9948504E-01
         -2   -1    0    0    0  501 -0.00000000000E+00  0.00000000000E+00  0.26484855970E+04  0.26484855970E+04  0.25500000000E-02 0.  1.
          2   -1    0    0  501    0  0.00000000000E+00 -0.00000000000E+00 -0.34363294315E+03  0.34363294316E+03  0.25500000000E-02 0. -1.
    8880023    1    1    2    0    0 -0.19821412894E+03 -0.18624302716E+03  0.25162566861E+04  0.26152118886E+04  0.65864270000E+03 0.  1.
    8880022    1    1    2    0    0  0.19821412894E+03  0.18624302716E+03 -0.21140403224E+03  0.37690665149E+03  0.15294330000E+03 0.  0.
<mgrwt>
<rscale>  0 0.57967099E+03</rscale>
<asrwt>0</asrwt>
<pdfrwt beam="1">  1        2 0.52866605E-01 0.71259070E+03</pdfrwt>
<pdfrwt beam="2">  1       -2 0.40745933E+00 0.71259070E+03</pdfrwt>
<totfact> 0.66987312E-01</totfact>
</mgrwt>
</event>
<event>
 4    1  0.3057048E-007  0.7241233E+03  0.7818608E-02  0.9908873E-01
         -2   -1    0    0    0  501 -0.00000000000E+00  0.00000000000E+00  0.87749805856E+03  0.87749805857E+03  0.25500000000E-02 0.  1.
          2   -1    0    0  501    0  0.00000000000E+00 -0.00000000000E+00 -0.39274959533E+03  0.39274959533E+03  0.25500000000E-02 0. -1.
    8880023    1    1    2    0    0  0.25769162754E+03 -0.15536846526E+03  0.57064108023E+03  0.92194673577E+03  0.65864270000E+03 0.  0.
    8880022    1    1    2    0    0 -0.25769162754E+03  0.15536846526E+03 -0.85892616988E+02  0.34830091813E+03  0.15294330000E+03 0.  1.
<mgrwt>
<rscale>  0 0.59833169E+03</rscale>
<asrwt>0</asrwt>
<pdfrwt beam="1">  1        2 0.60423015E-01 0.72412329E+03</pdfrwt>
<pdfrwt beam="2">  1       -2 0.13499970E+00 0.72412329E+03</pdfrwt>
<totfact> 0.32468432E+01</totfact>
</mgrwt>
</event>
<event>
 4    1  0.3057048E-007  0.7287442E+03  0.7818608E-02  0.9894038E-01
          2   -1    0    0  501    0  0.00000000000E+00  0.00000000000E+00  0.93397357235E+03  0.93397357236E+03  0.25500000000E-02 0. -1.
         -2   -1    0    0    0  501 -0.00000000000E+00 -0.00000000000E+00 -0.58905774058E+03  0.58905774059E+03  0.25500000000E-02 0.  1.
    8880023    1    1    2    0    0 -0.96140690626E+02 -0.29667308141E+03 -0.30193740323E+03  0.78881832595E+03  0.65864270000E+03 0.  1.
    8880022    1    1    2    0    0  0.96140690626E+02  0.29667308141E+03  0.64685323500E+03  0.73421298699E+03  0.15294330000E+03 0.  0.
<mgrwt>
<rscale>  0 0.60551107E+03</rscale>
<asrwt>0</asrwt>
<pdfrwt beam="1">  1        2 0.14368824E+00 0.72874423E+03</pdfrwt>
<pdfrwt beam="2">  1       -2 0.90624268E-01 0.72874423E+03</pdfrwt>
<totfact> 0.29442751E+01</totfact>
</mgrwt>
</event>
<event>
 4    1  0.3057048E-007  0.6872308E+03  0.7818608E-02  0.1005498E+00
         -2   -1    0    0    0  501 -0.00000000000E+00  0.00000000000E+00  0.43861102518E+03  0.43861102519E+03  0.25500000000E-02 0.  1.
          2   -1    0    0  501    0  0.00000000000E+00 -0.00000000000E+00 -0.11394672380E+04  0.11394672380E+04  0.25500000000E-02 0. -1.
    8880023    1    1    2    0    0  0.19551973312E+03  0.15747450474E+02  0.13987829547E+03  0.70132167515E+03  0.65864270000E+03 0.  1.
    8880022    1    1    2    0    0 -0.19551973312E+03 -0.15747450474E+02 -0.84073450829E+03  0.87675658805E+03  0.15294330000E+03 0.  0.
<mgrwt>
<rscale>  0 0.53304008E+03</rscale>
<asrwt>0</asrwt>
<pdfrwt beam="1">  1        2 0.17530265E+00 0.68723079E+03</pdfrwt>
<pdfrwt beam="2">  1       -2 0.67478620E-01 0.68723079E+03</pdfrwt>
<totfact> 0.42471962E+01</totfact>
</mgrwt>
</event>
<event>
 4    1  0.3057048E-007  0.8162438E+03  0.7818608E-02  0.9676715E-01
         -2   -1    0    0    0  501 -0.00000000000E+00  0.00000000000E+00  0.70350688665E+03  0.70350688666E+03  0.25500000000E-02 0.  1.
          2   -1    0    0  501    0  0.00000000000E+00 -0.00000000000E+00 -0.82715164637E+03  0.82715164637E+03  0.25500000000E-02 0. -1.
    8880023    1    1    2    0    0 -0.43739901419E+03  0.20279521583E+03 -0.44671057880E+03  0.93048607977E+03  0.65864270000E+03 0.  0.
    8880022    1    1    2    0    0  0.43739901419E+03 -0.20279521583E+03  0.32306581909E+03  0.60017245326E+03  0.15294330000E+03 0.  0.
<mgrwt>
<rscale>  0 0.72420251E+03</rscale>
<asrwt>0</asrwt>
<pdfrwt beam="1">  1        2 0.12725410E+00 0.81624384E+03</pdfrwt>
<pdfrwt beam="2">  1       -2 0.10823183E+00 0.81624384E+03</pdfrwt>
<totfact> 0.22697821E+01</totfact>
</mgrwt>
</event>
<event>
 4    1  0.3057048E-007  0.7313792E+03  0.7818608E-02  0.9885810E-01
          2   -1    0    0  501    0  0.00000000000E+00  0.00000000000E+00  0.12990197093E+04  0.12990197093E+04  0.25500000000E-02 0. -1.
         -2   -1    0    0    0  501 -0.00000000000E+00 -0.00000000000E+00 -0.83294036360E+03  0.83294036360E+03  0.25500000000E-02 0.  1.
    8880023    1    1    2    0    0  0.36963081727E+02  0.31581498983E+03 -0.63944354086E+03  0.97149556120E+03  0.65864270000E+03 0.  1.
    8880022    1    1    2    0    0 -0.36963081727E+02 -0.31581498983E+03  0.11055228866E+04  0.11604645117E+04  0.15294330000E+03 0.  0.
<mgrwt>
<rscale>  0 0.60953948E+03</rscale>
<asrwt>0</asrwt>
<pdfrwt beam="1">  1        2 0.19984919E+00 0.73137923E+03</pdfrwt>
<pdfrwt beam="2">  1       -2 0.12814467E+00 0.73137923E+03</pdfrwt>
<totfact> 0.76366059E+00</totfact>
</mgrwt>
</event>
<event>
 4    1  0.3057048E-007  0.7229689E+03  0.7818608E-02  0.9912665E-01
         -2   -1    0    0    0  501 -0.00000000000E+00  0.00000000000E+00  0.25611125058E+03  0.25611125059E+03  0.25500000000E-02 0.  1.
          2   -1    0    0  501    0  0.00000000000E+00 -0.00000000000E+00 -0.24900701193E+04  0.24900701193E+04  0.25500000000E-02 0. -1.
    8880023    1    1    2    0    0  0.67018457922E+02 -0.29048647784E+03 -0.29888675940E+03  0.78231538954E+03  0.65864270000E+03 0.  0.
    8880022    1    1    2    0    0 -0.67018457922E+02  0.29048647784E+03 -0.19350721094E+04  0.19638659804E+04  0.15294330000E+03 0.  0.
<mgrwt>
<rscale>  0 0.59651384E+03</rscale>
<asrwt>0</asrwt>
<pdfrwt beam="1">  1        2 0.38308769E+00 0.72296893E+03</pdfrwt>
<pdfrwt beam="2">  1       -2 0.39401733E-01 0.72296893E+03</pdfrwt>
<totfact> 0.22544029E+01</totfact>
</mgrwt>
</event>
<event>
 4    1  0.3057048E-007  0.6788095E+03  0.7818608E-02  0.1010005E+00
          2   -1    0    0  501    0  0.00000000000E+00  0.00000000000E+00  0.11228599431E+04  0.11228599431E+04  0.25500000000E-02 0. -1.
         -2   -1    0    0    0  501 -0.00000000000E+00 -0.00000000000E+00 -0.33649268191E+03  0.33649268192E+03  0.25500000000E-02 0.  1.
    8880023    1    1    2    0    0 -0.98814378803E+01  0.16393433344E+03  0.40012181455E+02  0.67998771270E+03  0.65864270000E+03 0.  1.
    8880022    1    1    2    0    0  0.98814378803E+01 -0.16393433344E+03  0.74635507973E+03  0.77936491232E+03  0.15294330000E+03 0.  0.
<mgrwt>
<rscale>  0 0.51472551E+03</rscale>
<asrwt>0</asrwt>
<pdfrwt beam="1">  1        2 0.17274769E+00 0.67880948E+03</pdfrwt>
<pdfrwt beam="2">  1       -2 0.51768104E-01 0.67880948E+03</pdfrwt>
<totfact> 0.75960261E+01</totfact>
</mgrwt>
</event>
<event>
 4    1  0.3057048E-007  0.1075901E+04  0.7818608E-02  0.9288374E-01
         -2   -1    0    0    0  501 -0.00000000000E+00  0.00000000000E+00  0.62778647799E+03  0.62778647800E+03  0.25500000000E-02 0.  1.
          2   -1    0    0  501    0  0.00000000000E+00 -0.00000000000E+00 -0.22683738431E+04  0.22683738431E+04  0.25500000000E-02 0. -1.
    8880023    1    1    2    0    0  0.32671309457E+03  0.78550072995E+03 -0.39473828757E+02  0.10766249265E+04  0.65864270000E+03 0.  0.
    8880022    1    1    2    0    0 -0.32671309457E+03 -0.78550072995E+03 -0.16011135363E+04  0.18195353946E+04  0.15294330000E+03 0.  0.
<mgrwt>
<rscale>  0 0.10186027E+04</rscale>
<asrwt>0</asrwt>
<pdfrwt beam="1">  1        2 0.34898059E+00 0.10759010E+04</pdfrwt>
<pdfrwt beam="2">  1       -2 0.96582536E-01 0.10759010E+04</pdfrwt>
<totfact> 0.42162153E+00</totfact>
</mgrwt>
</event>
<event>
 4    1  0.3057048E-007  0.8726476E+03  0.7818608E-02  0.9571450E-01
          2   -1    0    0  501    0  0.00000000000E+00  0.00000000000E+00  0.36120693950E+04  0.36120693950E+04  0.25500000000E-02 0. -1.
         -2   -1    0    0    0  501 -0.00000000000E+00 -0.00000000000E+00 -0.59481672139E+03  0.59481672139E+03  0.25500000000E-02 0.  1.
    8880023    1    1    2    0    0  0.49935527427E+02 -0.57027196867E+03 -0.23287626117E+03  0.90318615713E+03  0.65864270000E+03 0.  0.
    8880022    1    1    2    0    0 -0.49935527427E+02  0.57027196867E+03  0.32501289348E+04  0.33036999593E+04  0.15294330000E+03 0.  0.
<mgrwt>
<rscale>  0 0.79214980E+03</rscale>
<asrwt>0</asrwt>
<pdfrwt beam="1">  1        2 0.55570297E+00 0.87264763E+03</pdfrwt>
<pdfrwt beam="2">  1       -2 0.91510266E-01 0.87264763E+03</pdfrwt>
<totfact> 0.73200166E-01</totfact>
</mgrwt>
</event>
<event>
 4    1  0.3057048E-007  0.7590051E+03  0.7818608E-02  0.9807690E-01
          2   -1    0    0  501    0  0.00000000000E+00  0.00000000000E+00  0.11447742162E+04  0.11447742162E+04  0.25500000000E-02 0. -1.
         -2   -1    0    0    0  501 -0.00000000000E+00 -0.00000000000E+00 -0.10764780693E+04  0.10764780693E+04  0.25500000000E-02 0.  1.
    8880023    1    1    2    0    0  0.30509983061E+03 -0.22179418524E+03 -0.89618128947E+03  0.11744060955E+04  0.65864270000E+03 0.  0.
    8880022    1    1    2    0    0 -0.30509983061E+03  0.22179418524E+03  0.96447743634E+03  0.10468461900E+04  0.15294330000E+03 0. -1.
<mgrwt>
<rscale>  0 0.64951485E+03</rscale>
<asrwt>0</asrwt>
<pdfrwt beam="1">  1        2 0.17611911E+00 0.75900512E+03</pdfrwt>
<pdfrwt beam="2">  1       -2 0.16561201E+00 0.75900512E+03</pdfrwt>
<totfact> 0.47828870E+00</totfact>
</mgrwt>
</event>
<event>
 4    1  0.3057048E-007  0.6640689E+03  0.7818608E-02  0.1020328E+00
          2   -1    0    0  501    0  0.00000000000E+00  0.00000000000E+00  0.53590475085E+03  0.53590475086E+03  0.25500000000E-02 0. -1.
         -2   -1    0    0    0  501 -0.00000000000E+00 -0.00000000000E+00 -0.70572324504E+03  0.70572324504E+03  0.25500000000E-02 0.  1.
    8880023    1    1    2    0    0 -0.78923381136E+02  0.30796412066E+02 -0.52448314333E+03  0.84620924893E+03  0.65864270000E+03 0.  1.
    8880022    1    1    2    0    0  0.78923381136E+02 -0.30796412066E+02  0.35466464914E+03  0.39541874696E+03  0.15294330000E+03 0.  0.
<mgrwt>
<rscale>  0 0.47568556E+03</rscale>
<asrwt>0</asrwt>
<pdfrwt beam="1">  1        2 0.82446885E-01 0.66406892E+03</pdfrwt>
<pdfrwt beam="2">  1       -2 0.10857281E+00 0.66406892E+03</pdfrwt>
<totfact> 0.39226686E+01</totfact>
</mgrwt>
</event>
<event>
 4    1  0.3057048E-007  0.7112421E+03  0.7818608E-02  0.9953417E-01
         -2   -1    0    0    0  501 -0.00000000000E+00  0.00000000000E+00  0.74481707089E+03  0.74481707090E+03  0.25500000000E-02 0.  1.
          2   -1    0    0  501    0  0.00000000000E+00 -0.00000000000E+00 -0.36021767876E+03  0.36021767877E+03  0.25500000000E-02 0. -1.
    8880023    1    1    2    0    0 -0.13153530971E+02 -0.26810851071E+03  0.35431383918E+03  0.79460914404E+03  0.65864270000E+03 0.  0.
    8880022    1    1    2    0    0  0.13153530971E+02  0.26810851071E+03  0.30285552950E+02  0.31042560562E+03  0.15294330000E+03 0.  1.
<mgrwt>
<rscale>  0 0.57740868E+03</rscale>
<asrwt>0</asrwt>
<pdfrwt beam="1">  1        2 0.55418105E-01 0.71124215E+03</pdfrwt>
<pdfrwt beam="2">  1       -2 0.11458724E+00 0.71124215E+03</pdfrwt>
<totfact> 0.53928195E+01</totfact>
</mgrwt>
</event>
<event>
 4    1  0.3057048E-007  0.6716461E+03  0.7818608E-02  0.1014509E+00
         -2   -1    0    0    0  501 -0.00000000000E+00  0.00000000000E+00  0.17957890321E+03  0.17957890323E+03  0.25500000000E-02 0.  1.
          2   -1    0    0  501    0  0.00000000000E+00 -0.00000000000E+00 -0.19257891114E+04  0.19257891114E+04  0.25500000000E-02 0. -1.
    8880023    1    1    2    0    0 -0.10134643866E+03  0.83828000872E+02 -0.48580672028E+03  0.82892497253E+03  0.65864270000E+03 0.  1.
    8880022    1    1    2    0    0  0.10134643866E+03 -0.83828000872E+02 -0.12604034879E+04  0.12764430421E+04  0.15294330000E+03 0.  0.
<mgrwt>
<rscale>  0 0.49721150E+03</rscale>
<asrwt>0</asrwt>
<pdfrwt beam="1">  1        2 0.29627523E+00 0.67164607E+03</pdfrwt>
<pdfrwt beam="2">  1       -2 0.27627525E-01 0.67164607E+03</pdfrwt>
<totfact> 0.90756286E+01</totfact>
</mgrwt>
</event>
<event>
 4    1  0.3057048E-007  0.6899350E+03  0.7818608E-02  0.1004184E+00
          2   -1    0    0  501    0  0.00000000000E+00  0.00000000000E+00  0.26442743138E+04  0.26442743138E+04  0.25500000000E-02 0. -1.
         -2   -1    0    0    0  501 -0.00000000000E+00 -0.00000000000E+00 -0.17629767723E+03  0.17629767724E+03  0.25500000000E-02 0.  1.
    8880023    1    1    2    0    0  0.19719579308E+03  0.57566082622E+02  0.54126689896E+03  0.87691510242E+03  0.65864270000E+03 0.  1.
    8880022    1    1    2    0    0 -0.19719579308E+03 -0.57566082622E+02  0.19267097376E+04  0.19436568886E+04  0.15294330000E+03 0.  0.
<mgrwt>
<rscale>  0 0.53853286E+03</rscale>
<asrwt>0</asrwt>
<pdfrwt beam="1">  1        2 0.40681140E+00 0.68993495E+03</pdfrwt>
<pdfrwt beam="2">  1       -2 0.27122722E-01 0.68993495E+03</pdfrwt>
<totfact> 0.37366594E+01</totfact>
</mgrwt>
</event>
<event>
 4    1  0.3057048E-007  0.1155589E+04  0.7818608E-02  0.9201550E-01
         -2   -1    0    0    0  501 -0.00000000000E+00  0.00000000000E+00  0.44289577426E+03  0.44289577427E+03  0.25500000000E-02 0.  1.
          2   -1    0    0  501    0  0.00000000000E+00 -0.00000000000E+00 -0.25995601833E+04  0.25995601833E+04  0.25500000000E-02 0. -1.
    8880023    1    1    2    0    0  0.82372802723E+02  0.94593375990E+03 -0.92764311393E+03  0.14818596121E+04  0.65864270000E+03 0.  0.
    8880022    1    1    2    0    0 -0.82372802723E+02 -0.94593375990E+03 -0.12290212951E+04  0.15605963455E+04  0.15294330000E+03 0.  0.
<mgrwt>
<rscale>  0 0.11037441E+04</rscale>
<asrwt>0</asrwt>
<pdfrwt beam="1">  1        2 0.39993233E+00 0.11555891E+04</pdfrwt>
<pdfrwt beam="2">  1       -2 0.68137813E-01 0.11555891E+04</pdfrwt>
<totfact> 0.59685372E+00</totfact>
</mgrwt>
</event>
<event>
 4    1  0.3057048E-007  0.7295238E+03  0.7818608E-02  0.9891587E-01
          2   -1    0    0  501    0  0.00000000000E+00  0.00000000000E+00  0.28650020173E+04  0.28650020173E+04  0.25500000000E-02 0. -1.
         -2   -1    0    0    0  501 -0.00000000000E+00 -0.00000000000E+00 -0.53725056988E+03  0.53725056989E+03  0.25500000000E-02 0.  1.
    8880023    1    1    2    0    0  0.67404468592E+02 -0.30635184047E+03 -0.27244870478E+03  0.77873828437E+03  0.65864270000E+03 0.  1.
    8880022    1    1    2    0    0 -0.67404468592E+02  0.30635184047E+03  0.26002001522E+04  0.26235143028E+04  0.15294330000E+03 0.  0.
<mgrwt>
<rscale>  0 0.60670768E+03</rscale>
<asrwt>0</asrwt>
<pdfrwt beam="1">  1        2 0.44076953E+00 0.72952383E+03</pdfrwt>
<pdfrwt beam="2">  1       -2 0.82653935E-01 0.72952383E+03</pdfrwt>
<totfact> 0.28914276E+00</totfact>
</mgrwt>
</event>
<event>
 4    1  0.3057048E-007  0.8084394E+03  0.7818608E-02  0.9692837E-01
         -2   -1    0    0    0  501 -0.00000000000E+00  0.00000000000E+00  0.14994914724E+03  0.14994914727E+03  0.25500000000E-02 0.  1.
          2   -1    0    0  501    0  0.00000000000E+00 -0.00000000000E+00 -0.28950390276E+04  0.28950390276E+04  0.25500000000E-02 0. -1.
    8880023    1    1    2    0    0  0.18587870863E+03 -0.43036391252E+03 -0.19279751661E+04  0.20906129338E+04  0.65864270000E+03 0.  0.
    8880022    1    1    2    0    0 -0.18587870863E+03  0.43036391252E+03 -0.81711471418E+03  0.95437524102E+03  0.15294330000E+03 0.  0.
<mgrwt>
<rscale>  0 0.71444883E+03</rscale>
<asrwt>0</asrwt>
<pdfrwt beam="1">  1        2 0.44539058E+00 0.80843936E+03</pdfrwt>
<pdfrwt beam="2">  1       -2 0.23069102E-01 0.80843936E+03</pdfrwt>
<totfact> 0.35012562E+01</totfact>
</mgrwt>
</event>
<event>
 4    1  0.3057048E-007  0.7147470E+03  0.7818608E-02  0.9940778E-01
          2   -1    0    0  501    0  0.00000000000E+00  0.00000000000E+00  0.12938274144E+04  0.12938274144E+04  0.25500000000E-02 0. -1.
         -2   -1    0    0    0  501 -0.00000000000E+00 -0.00000000000E+00 -0.58058323146E+03  0.58058323147E+03  0.25500000000E-02 0.  1.
    8880023    1    1    2    0    0  0.12388029031E+03 -0.24840847651E+03 -0.32769962988E+03  0.78628897437E+03  0.65864270000E+03 0.  1.
    8880022    1    1    2    0    0 -0.12388029031E+03  0.24840847651E+03  0.10409438129E+04  0.10881216715E+04  0.15294330000E+03 0.  0.
<mgrwt>
<rscale>  0 0.58325057E+03</rscale>
<asrwt>0</asrwt>
<pdfrwt beam="1">  1        2 0.19905037E+00 0.71474702E+03</pdfrwt>
<pdfrwt beam="2">  1       -2 0.89320497E-01 0.71474702E+03</pdfrwt>
<totfact> 0.18373525E+01</totfact>
</mgrwt>
</event>
<event>
 4    1  0.3057048E-007  0.6821199E+03  0.7818608E-02  0.1008149E+00
          2   -1    0    0  501    0  0.00000000000E+00  0.00000000000E+00  0.64102977176E+03  0.64102977177E+03  0.25500000000E-02 0. -1.
         -2   -1    0    0    0  501 -0.00000000000E+00 -0.00000000000E+00 -0.93159423543E+03  0.93159423544E+03  0.25500000000E-02 0.  1.
    8880023    1    1    2    0    0 -0.63388287804E+02  0.16570824188E+03 -0.77627050691E+03  0.10333844409E+04  0.65864270000E+03 0.  1.
    8880022    1    1    2    0    0  0.63388287804E+02 -0.16570824188E+03  0.48570604323E+03  0.53923956634E+03  0.15294330000E+03 0.  0.
<mgrwt>
<rscale>  0 0.52216932E+03</rscale>
<asrwt>0</asrwt>
<pdfrwt beam="1">  1        2 0.98619965E-01 0.68211986E+03</pdfrwt>
<pdfrwt beam="2">  1       -2 0.14332219E+00 0.68211986E+03</pdfrwt>
<totfact> 0.15783378E+01</totfact>
</mgrwt>
</event>
<event>
 4    1  0.3057048E-007  0.7132694E+03  0.7818608E-02  0.9946055E-01
          2   -1    0    0  501    0  0.00000000000E+00  0.00000000000E+00  0.14900742659E+04  0.14900742659E+04  0.25500000000E-02 0. -1.
         -2   -1    0    0    0  501 -0.00000000000E+00 -0.00000000000E+00 -0.27371789219E+03  0.27371789221E+03  0.25500000000E-02 0.  1.
    8880023    1    1    2    0    0  0.26018475970E+03  0.85129202730E+02  0.12593118168E+04  0.14472800518E+04  0.65864270000E+03 0. -1.
    8880022    1    1    2    0    0 -0.26018475970E+03 -0.85129202730E+02 -0.42955443023E+02  0.31651210631E+03  0.15294330000E+03 0.  0.
<mgrwt>
<rscale>  0 0.58080265E+03</rscale>
<asrwt>0</asrwt>
<pdfrwt beam="1">  1        2 0.22924220E+00 0.71326944E+03</pdfrwt>
<pdfrwt beam="2">  1       -2 0.42110444E-01 0.71326944E+03</pdfrwt>
<totfact> 0.70362347E+01</totfact>
</mgrwt>
</event>
<event>
 4    1  0.3057048E-007  0.8141643E+03  0.7818608E-02  0.9680967E-01
         -2   -1    0    0    0  501 -0.00000000000E+00  0.00000000000E+00  0.27234338752E+03  0.27234338753E+03  0.25500000000E-02 0.  1.
          2   -1    0    0  501    0  0.00000000000E+00 -0.00000000000E+00 -0.23382066983E+04  0.23382066983E+04  0.25500000000E-02 0. -1.
    8880023    1    1    2    0    0 -0.33221171066E+03  0.34451225485E+03 -0.19229132962E+04  0.20881712251E+04  0.65864270000E+03 0.  0.
    8880022    1    1    2    0    0  0.33221171066E+03 -0.34451225485E+03 -0.14295001458E+03  0.52237886072E+03  0.15294330000E+03 0.  0.
<mgrwt>
<rscale>  0 0.72161389E+03</rscale>
<asrwt>0</asrwt>
<pdfrwt beam="1">  1        2 0.35972409E+00 0.81416431E+03</pdfrwt>
<pdfrwt beam="2">  1       -2 0.41898984E-01 0.81416431E+03</pdfrwt>
<totfact> 0.24016491E+01</totfact>
</mgrwt>
</event>
<event>
 4    1  0.3057048E-007  0.7143132E+03  0.7818608E-02  0.9942320E-01
          2   -1    0    0  501    0  0.00000000000E+00  0.00000000000E+00  0.11265663016E+04  0.11265663016E+04  0.25500000000E-02 0. -1.
         -2   -1    0    0    0  501 -0.00000000000E+00 -0.00000000000E+00 -0.37418621240E+03  0.37418621241E+03  0.25500000000E-02 0.  1.
    8880023    1    1    2    0    0  0.23752874027E+03  0.14146839972E+03  0.33031911999E+02  0.71507658614E+03  0.65864270000E+03 0.  0.
    8880022    1    1    2    0    0 -0.23752874027E+03 -0.14146839972E+03  0.71934817717E+03  0.78567592784E+03  0.15294330000E+03 0.  0.
<mgrwt>
<rscale>  0 0.58253412E+03</rscale>
<asrwt>0</asrwt>
<pdfrwt beam="1">  1        2 0.17331789E+00 0.71431325E+03</pdfrwt>
<pdfrwt beam="2">  1       -2 0.57567110E-01 0.71431325E+03</pdfrwt>
<totfact> 0.60460981E+01</totfact>
</mgrwt>
</event>
<event>
 4    1  0.3057048E-007  0.7323356E+03  0.7818608E-02  0.9882863E-01
         -2   -1    0    0    0  501 -0.00000000000E+00  0.00000000000E+00  0.16061492735E+03  0.16061492737E+03  0.25500000000E-02 0.  1.
          2   -1    0    0  501    0  0.00000000000E+00 -0.00000000000E+00 -0.30267032083E+04  0.30267032083E+04  0.25500000000E-02 0. -1.
    8880023    1    1    2    0    0  0.14239733447E+03 -0.28675464302E+03 -0.77474458184E+03  0.10660884576E+04  0.65864270000E+03 0.  1.
    8880022    1    1    2    0    0 -0.14239733447E+03  0.28675464302E+03 -0.20913436992E+04  0.21212296781E+04  0.15294330000E+03 0.  0.
<mgrwt>
<rscale>  0 0.61099053E+03</rscale>
<asrwt>0</asrwt>
<pdfrwt beam="1">  1        2 0.46564660E+00 0.73233560E+03</pdfrwt>
<pdfrwt beam="2">  1       -2 0.24709991E-01 0.73233560E+03</pdfrwt>
<totfact> 0.26038997E+01</totfact>
</mgrwt>
</event>
<event>
 4    1  0.3057048E-007  0.7318093E+03  0.7818608E-02  0.9884482E-01
          2   -1    0    0  501    0  0.00000000000E+00  0.00000000000E+00  0.54412239750E+03  0.54412239751E+03  0.25500000000E-02 0. -1.
         -2   -1    0    0    0  501 -0.00000000000E+00 -0.00000000000E+00 -0.90353155692E+03  0.90353155692E+03  0.25500000000E-02 0.  1.
    8880023    1    1    2    0    0  0.15146877985E+03  0.28069886811E+03 -0.65847074244E+03  0.98444327959E+03  0.65864270000E+03 0.  0.
    8880022    1    1    2    0    0 -0.15146877985E+03 -0.28069886811E+03  0.29906158303E+03  0.46321067484E+03  0.15294330000E+03 0. -1.
<mgrwt>
<rscale>  0 0.61019271E+03</rscale>
<asrwt>0</asrwt>
<pdfrwt beam="1">  1        2 0.83711138E-01 0.73180930E+03</pdfrwt>
<pdfrwt beam="2">  1       -2 0.13900486E+00 0.73180930E+03</pdfrwt>
<totfact> 0.20704966E+01</totfact>
</mgrwt>
</event>
<event>
 4    1  0.3057048E-007  0.7883462E+03  0.7818608E-02  0.9736585E-01
         -2   -1    0    0    0  501 -0.00000000000E+00  0.00000000000E+00  0.33879010705E+03  0.33879010706E+03  0.25500000000E-02 0.  1.
          2   -1    0    0  501    0  0.00000000000E+00 -0.00000000000E+00 -0.22333334634E+04  0.22333334634E+04  0.25500000000E-02 0. -1.
    8880023    1    1    2    0    0 -0.21917543584E+03  0.37368661960E+03 -0.19572656640E+03  0.81227991259E+03  0.65864270000E+03 0.  0.
    8880022    1    1    2    0    0  0.21917543584E+03 -0.37368661960E+03 -0.16988167900E+04  0.17598436579E+04  0.15294330000E+03 0.  0.
<mgrwt>
<rscale>  0 0.68879719E+03</rscale>
<asrwt>0</asrwt>
<pdfrwt beam="1">  1        2 0.34358975E+00 0.78834622E+03</pdfrwt>
<pdfrwt beam="2">  1       -2 0.52121556E-01 0.78834622E+03</pdfrwt>
<totfact> 0.17769744E+01</totfact>
</mgrwt>
</event>
<event>
 4    1  0.3057048E-007  0.9138041E+03  0.7818608E-02  0.9504225E-01
          2   -1    0    0  501    0  0.00000000000E+00  0.00000000000E+00  0.78484658368E+03  0.78484658369E+03  0.25500000000E-02 0. -1.
         -2   -1    0    0    0  501 -0.00000000000E+00 -0.00000000000E+00 -0.18214125601E+04  0.18214125601E+04  0.25500000000E-02 0.  1.
    8880023    1    1    2    0    0  0.55786760867E+02  0.63096393570E+03  0.42365853610E+03  0.10072360261E+04  0.65864270000E+03 0. -1.
    8880022    1    1    2    0    0 -0.55786760867E+02 -0.63096393570E+03 -0.14602245126E+04  0.15990231177E+04  0.15294330000E+03 0.  0.
<mgrwt>
<rscale>  0 0.83973021E+03</rscale>
<asrwt>0</asrwt>
<pdfrwt beam="1">  1        2 0.12074563E+00 0.91380406E+03</pdfrwt>
<pdfrwt beam="2">  1       -2 0.28021732E+00 0.91380406E+03</pdfrwt>
<totfact> 0.15028745E+00</totfact>
</mgrwt>
</event>
<event>
 4    1  0.3057048E-007  0.6820448E+03  0.7818608E-02  0.1008190E+00
         -2   -1    0    0    0  501 -0.00000000000E+00  0.00000000000E+00  0.16103783639E+03  0.16103783641E+03  0.25500000000E-02 0.  1.
          2   -1    0    0  501    0  0.00000000000E+00 -0.00000000000E+00 -0.16412750921E+04  0.16412750921E+04  0.25500000000E-02 0. -1.
    8880023    1    1    2    0    0 -0.13936322510E+03 -0.10932870876E+03 -0.65907249944E+03  0.94845223435E+03  0.65864270000E+03 0.  1.
    8880022    1    1    2    0    0  0.13936322510E+03  0.10932870876E+03 -0.82116475625E+03  0.85386069413E+03  0.15294330000E+03 0. -1.
<mgrwt>
<rscale>  0 0.52200429E+03</rscale>
<asrwt>0</asrwt>
<pdfrwt beam="1">  1        2 0.25250385E+00 0.68204478E+03</pdfrwt>
<pdfrwt beam="2">  1       -2 0.24775053E-01 0.68204478E+03</pdfrwt>
<totfact> 0.15778646E+02</totfact>
</mgrwt>
</event>
<event>
 4    1  0.3057048E-007  0.6828197E+03  0.7818608E-02  0.1007772E+00
          2   -1    0    0  501    0  0.00000000000E+00  0.00000000000E+00  0.26586831091E+04  0.26586831091E+04  0.25500000000E-02 0. -1.
         -2   -1    0    0    0  501 -0.00000000000E+00 -0.00000000000E+00 -0.11696480553E+03  0.11696480556E+03  0.25500000000E-02 0.  1.
    8880023    1    1    2    0    0  0.18002294054E+03  0.49233884206E+01  0.96976982831E+03  0.11860422526E+04  0.65864270000E+03 0.  0.
    8880022    1    1    2    0    0 -0.18002294054E+03 -0.49233884206E+01  0.15719484753E+04  0.15896056621E+04  0.15294330000E+03 0.  0.
<mgrwt>
<rscale>  0 0.52369965E+03</rscale>
<asrwt>0</asrwt>
<pdfrwt beam="1">  1        2 0.40902817E+00 0.68281967E+03</pdfrwt>
<pdfrwt beam="2">  1       -2 0.17994586E-01 0.68281967E+03</pdfrwt>
<totfact> 0.75919023E+01</totfact>
</mgrwt>
</event>
<event>
 4    1  0.3057048E-007  0.6884288E+03  0.7818608E-02  0.1004908E+00
         -2   -1    0    0    0  501 -0.00000000000E+00  0.00000000000E+00  0.65782297738E+03  0.65782297738E+03  0.25500000000E-02 0.  1.
          2   -1    0    0  501    0  0.00000000000E+00 -0.00000000000E+00 -0.41620556216E+03  0.41620556217E+03  0.25500000000E-02 0. -1.
    8880023    1    1    2    0    0  0.14962859994E+03 -0.13317412080E+03 -0.48011086363E+02  0.69010096004E+03  0.65864270000E+03 0.  0.
    8880022    1    1    2    0    0 -0.14962859994E+03  0.13317412080E+03  0.28962850158E+03  0.38392757951E+03  0.15294330000E+03 0.  0.
<mgrwt>
<rscale>  0 0.53549380E+03</rscale>
<asrwt>0</asrwt>
<pdfrwt beam="1">  1        2 0.64031625E-01 0.68842884E+03</pdfrwt>
<pdfrwt beam="2">  1       -2 0.10120353E+00 0.68842884E+03</pdfrwt>
<totfact> 0.61940899E+01</totfact>
</mgrwt>
</event>
<event>
 4    1  0.3057048E-007  0.6900883E+03  0.7818608E-02  0.1004111E+00
          2   -1    0    0  501    0  0.00000000000E+00  0.00000000000E+00  0.10533836625E+04  0.10533836625E+04  0.25500000000E-02 0. -1.
         -2   -1    0    0    0  501 -0.00000000000E+00 -0.00000000000E+00 -0.23889508632E+03  0.23889508634E+03  0.25500000000E-02 0.  1.
    8880023    1    1    2    0    0  0.14557185707E+03  0.14567253679E+03  0.38021032827E+03  0.78789704501E+03  0.65864270000E+03 0.  0.
    8880022    1    1    2    0    0 -0.14557185707E+03 -0.14567253679E+03  0.43427824793E+03  0.50438170386E+03  0.15294330000E+03 0.  0.
<mgrwt>
<rscale>  0 0.53883955E+03</rscale>
<asrwt>0</asrwt>
<pdfrwt beam="1">  1        2 0.16205903E+00 0.69008830E+03</pdfrwt>
<pdfrwt beam="2">  1       -2 0.36753090E-01 0.69008830E+03</pdfrwt>
<totfact> 0.16496174E+02</totfact>
</mgrwt>
</event>
<event>
 4    1  0.3057048E-007  0.8006314E+03  0.7818608E-02  0.9709433E-01
          2   -1    0    0  501    0  0.00000000000E+00  0.00000000000E+00  0.20131906135E+04  0.20131906135E+04  0.25500000000E-02 0. -1.
         -2   -1    0    0    0  501 -0.00000000000E+00 -0.00000000000E+00 -0.33693104492E+03  0.33693104493E+03  0.25500000000E-02 0.  1.
    8880023    1    1    2    0    0  0.43649188027E+03 -0.12913252145E+03  0.24017585893E+03  0.83587978748E+03  0.65864270000E+03 0.  0.
    8880022    1    1    2    0    0 -0.43649188027E+03  0.12913252145E+03  0.14360837097E+04  0.15142418710E+04  0.15294330000E+03 0.  0.
<mgrwt>
<rscale>  0 0.70457947E+03</rscale>
<asrwt>0</asrwt>
<pdfrwt beam="1">  1        2 0.30972163E+00 0.80063136E+03</pdfrwt>
<pdfrwt beam="2">  1       -2 0.51835547E-01 0.80063136E+03</pdfrwt>
<totfact> 0.23709685E+01</totfact>
</mgrwt>
</event>
<event>
 4    1  0.3057048E-007  0.8522934E+03  0.7818608E-02  0.9607422E-01
         -2   -1    0    0    0  501 -0.00000000000E+00  0.00000000000E+00  0.48136589846E+03  0.48136589847E+03  0.25500000000E-02 0.  1.
          2   -1    0    0  501    0  0.00000000000E+00 -0.00000000000E+00 -0.12620465268E+04  0.12620465268E+04  0.25500000000E-02 0. -1.
    8880023    1    1    2    0    0  0.39455396527E+03 -0.37002841531E+03 -0.96219021547E+02  0.85770750610E+03  0.65864270000E+03 0.  1.
    8880022    1    1    2    0    0 -0.39455396527E+03  0.37002841531E+03 -0.68446160676E+03  0.88570491914E+03  0.15294330000E+03 0.  0.
<mgrwt>
<rscale>  0 0.76806902E+03</rscale>
<asrwt>0</asrwt>
<pdfrwt beam="1">  1        2 0.19416100E+00 0.85229342E+03</pdfrwt>
<pdfrwt beam="2">  1       -2 0.74056292E-01 0.85229342E+03</pdfrwt>
<totfact> 0.28839487E+01</totfact>
</mgrwt>
</event>
<event>
 4    1  0.3057048E-007  0.1210243E+04  0.7818608E-02  0.9147230E-01
         -2   -1    0    0    0  501 -0.00000000000E+00  0.00000000000E+00  0.83347110695E+03  0.83347110696E+03  0.25500000000E-02 0.  1.
          2   -1    0    0  501    0  0.00000000000E+00 -0.00000000000E+00 -0.19634227137E+04  0.19634227137E+04  0.25500000000E-02 0. -1.
    8880023    1    1    2    0    0 -0.31803241734E+03 -0.96422618225E+03 -0.12773024237E+04  0.17595989420E+04  0.65864270000E+03 0.  0.
    8880022    1    1    2    0    0  0.31803241734E+03  0.96422618225E+03  0.14735081691E+03  0.10372948787E+04  0.15294330000E+03 0.  0.
<mgrwt>
<rscale>  0 0.11615107E+04</rscale>
<asrwt>0</asrwt>
<pdfrwt beam="1">  1        2 0.30206503E+00 0.12102425E+04</pdfrwt>
<pdfrwt beam="2">  1       -2 0.12822632E+00 0.12102425E+04</pdfrwt>
<totfact> 0.30669455E+00</totfact>
</mgrwt>
</event>
<event>
 4    1  0.3057048E-007  0.6807095E+03  0.7818608E-02  0.1008925E+00
          2   -1    0    0  501    0  0.00000000000E+00  0.00000000000E+00  0.16210909448E+04  0.16210909448E+04  0.25500000000E-02 0. -1.
         -2   -1    0    0    0  501 -0.00000000000E+00 -0.00000000000E+00 -0.24964818139E+03  0.24964818140E+03  0.25500000000E-02 0.  1.
    8880023    1    1    2    0    0 -0.87804411738E+02 -0.14780267161E+03  0.24879275841E+03  0.72475050007E+03  0.65864270000E+03 0.  1.
    8880022    1    1    2    0    0  0.87804411738E+02  0.14780267161E+03  0.11226500050E+04  0.11459886261E+04  0.15294330000E+03 0.  0.
<mgrwt>
<rscale>  0 0.51904072E+03</rscale>
<asrwt>0</asrwt>
<pdfrwt beam="1">  1        2 0.24939860E+00 0.68070952E+03</pdfrwt>
<pdfrwt beam="2">  1       -2 0.38407413E-01 0.68070952E+03</pdfrwt>
<totfact> 0.71526220E+01</totfact>
</mgrwt>
</event>
<event>
 4    1  0.3057048E-007  0.6847462E+03  0.7818608E-02  0.1006757E+00
          2   -1    0    0  501    0  0.00000000000E+00  0.00000000000E+00  0.83492955302E+03  0.83492955302E+03  0.25500000000E-02 0. -1.
         -2   -1    0    0    0  501 -0.00000000000E+00 -0.00000000000E+00 -0.39616756069E+03  0.39616756070E+03  0.25500000000E-02 0.  1.
    8880023    1    1    2    0    0 -0.26096259772E+02  0.18543498553E+03 -0.49207418027E+02  0.68651199908E+03  0.65864270000E+03 0.  1.
    8880022    1    1    2    0    0  0.26096259772E+02 -0.18543498553E+03  0.48796941036E+03  0.54458511464E+03  0.15294330000E+03 0.  0.
<mgrwt>
<rscale>  0 0.52784141E+03</rscale>
<asrwt>0</asrwt>
<pdfrwt beam="1">  1        2 0.12845070E+00 0.68474620E+03</pdfrwt>
<pdfrwt beam="2">  1       -2 0.60948856E-01 0.68474620E+03</pdfrwt>
<totfact> 0.82935713E+01</totfact>
</mgrwt>
</event>
<event>
 4    1  0.3057048E-007  0.8617907E+03  0.7818608E-02  0.9590386E-01
          2   -1    0    0  501    0  0.00000000000E+00  0.00000000000E+00  0.81515450113E+03  0.81515450113E+03  0.25500000000E-02 0. -1.
         -2   -1    0    0    0  501 -0.00000000000E+00 -0.00000000000E+00 -0.13906327424E+04  0.13906327424E+04  0.25500000000E-02 0.  1.
    8880023    1    1    2    0    0 -0.45855367539E+03  0.31400877075E+03 -0.11197674410E+04  0.14129976325E+04  0.65864270000E+03 0.  1.
    8880022    1    1    2    0    0  0.45855367539E+03 -0.31400877075E+03  0.54428919975E+03  0.79278961099E+03  0.15294330000E+03 0.  0.
<mgrwt>
<rscale>  0 0.77935776E+03</rscale>
<asrwt>0</asrwt>
<pdfrwt beam="1">  1        2 0.12540838E+00 0.86179069E+03</pdfrwt>
<pdfrwt beam="2">  1       -2 0.21394350E+00 0.86179069E+03</pdfrwt>
<totfact> 0.36627352E+00</totfact>
</mgrwt>
</event>
<event>
 4    1  0.3057048E-007  0.8260043E+03  0.7818608E-02  0.9657157E-01
         -2   -1    0    0    0  501 -0.00000000000E+00  0.00000000000E+00  0.64851708490E+03  0.64851708490E+03  0.25500000000E-02 0.  1.
          2   -1    0    0  501    0  0.00000000000E+00 -0.00000000000E+00 -0.70867292566E+03  0.70867292567E+03  0.25500000000E-02 0. -1.
    8880023    1    1    2    0    0 -0.32904719186E+03 -0.37443413670E+03 -0.11048271622E+03  0.83336043465E+03  0.65864270000E+03 0. -1.
    8880022    1    1    2    0    0  0.32904719186E+03  0.37443413670E+03  0.50326875455E+02  0.52382957592E+03  0.15294330000E+03 0.  1.
<mgrwt>
<rscale>  0 0.73625938E+03</rscale>
<asrwt>0</asrwt>
<pdfrwt beam="1">  1        2 0.10902660E+00 0.82600435E+03</pdfrwt>
<pdfrwt beam="2">  1       -2 0.99771859E-01 0.82600435E+03</pdfrwt>
<totfact> 0.33742844E+01</totfact>
</mgrwt>
</event>
<event>
 4    1  0.3057048E-007  0.8182554E+03  0.7818608E-02  0.9672631E-01
         -2   -1    0    0    0  501 -0.00000000000E+00  0.00000000000E+00  0.26721164874E+03  0.26721164875E+03  0.25500000000E-02 0.  1.
          2   -1    0    0  501    0  0.00000000000E+00 -0.00000000000E+00 -0.20783882673E+04  0.20783882673E+04  0.25500000000E-02 0. -1.
    8880023    1    1    2    0    0 -0.48506840361E+03 -0.20985947496E+02 -0.55096191519E+03  0.98645882044E+03  0.65864270000E+03 0.  0.
    8880022    1    1    2    0    0  0.48506840361E+03  0.20985947496E+02 -0.12602147034E+04  0.13591410956E+04  0.15294330000E+03 0.  0.
<mgrwt>
<rscale>  0 0.72669975E+03</rscale>
<asrwt>0</asrwt>
<pdfrwt beam="1">  1        2 0.31975203E+00 0.81825544E+03</pdfrwt>
<pdfrwt beam="2">  1       -2 0.41109486E-01 0.81825544E+03</pdfrwt>
<totfact> 0.34696795E+01</totfact>
</mgrwt>
</event>
<event>
 4    1  0.3057048E-007  0.9600503E+03  0.7818608E-02  0.9435799E-01
          2   -1    0    0  501    0  0.00000000000E+00  0.00000000000E+00  0.98905176284E+03  0.98905176285E+03  0.25500000000E-02 0. -1.
         -2   -1    0    0    0  501 -0.00000000000E+00 -0.00000000000E+00 -0.11843989201E+04  0.11843989201E+04  0.25500000000E-02 0.  1.
    8880023    1    1    2    0    0  0.65996428096E+03  0.22876539633E+03 -0.79012180166E+03  0.12433781108E+04  0.65864270000E+03 0.  0.
    8880022    1    1    2    0    0 -0.65996428096E+03 -0.22876539633E+03  0.59477464444E+03  0.93007257211E+03  0.15294330000E+03 0.  0.
<mgrwt>
<rscale>  0 0.89187226E+03</rscale>
<asrwt>0</asrwt>
<pdfrwt beam="1">  1        2 0.15216181E+00 0.96005035E+03</pdfrwt>
<pdfrwt beam="2">  1       -2 0.18221522E+00 0.96005035E+03</pdfrwt>
<totfact> 0.44623330E+00</totfact>
</mgrwt>
</event>
<event>
 4    1  0.3057048E-007  0.6753511E+03  0.7818608E-02  0.1012086E+00
          2   -1    0    0  501    0  0.00000000000E+00  0.00000000000E+00  0.25900586059E+04  0.25900586059E+04  0.25500000000E-02 0. -1.
         -2   -1    0    0    0  501 -0.00000000000E+00 -0.00000000000E+00 -0.99597353462E+02  0.99597353495E+02  0.25500000000E-02 0.  1.
    8880023    1    1    2    0    0  0.12961058597E+03  0.74094348385E+02  0.11611133848E+04  0.13432361576E+04  0.65864270000E+03 0.  1.
    8880022    1    1    2    0    0 -0.12961058597E+03 -0.74094348385E+02  0.13293478676E+04  0.13464198018E+04  0.15294330000E+03 0.  0.
<mgrwt>
<rscale>  0 0.50653982E+03</rscale>
<asrwt>0</asrwt>
<pdfrwt beam="1">  1        2 0.39847051E+00 0.67535108E+03</pdfrwt>
<pdfrwt beam="2">  1       -2 0.15322671E-01 0.67535108E+03</pdfrwt>
<totfact> 0.10950112E+02</totfact>
</mgrwt>
</event>
<event>
 4    1  0.3057048E-007  0.8165921E+03  0.7818608E-02  0.9676006E-01
          2   -1    0    0  501    0  0.00000000000E+00  0.00000000000E+00  0.18083769564E+04  0.18083769564E+04  0.25500000000E-02 0. -1.
         -2   -1    0    0    0  501 -0.00000000000E+00 -0.00000000000E+00 -0.37505926706E+03  0.37505926707E+03  0.25500000000E-02 0.  1.
    8880023    1    1    2    0    0  0.12033008523E+03  0.46747526066E+03  0.18635926578E+03  0.83758726766E+03  0.65864270000E+03 0.  0.
    8880022    1    1    2    0    0 -0.12033008523E+03 -0.46747526066E+03  0.12469584236E+04  0.13458489558E+04  0.15294330000E+03 0.  0.
<mgrwt>
<rscale>  0 0.72463532E+03</rscale>
<asrwt>0</asrwt>
<pdfrwt beam="1">  1        2 0.27821185E+00 0.81659210E+03</pdfrwt>
<pdfrwt beam="2">  1       -2 0.57701424E-01 0.81659210E+03</pdfrwt>
<totfact> 0.24513387E+01</totfact>
</mgrwt>
</event>
<event>
 4    1  0.3057048E-007  0.8539996E+03  0.7818608E-02  0.9604327E-01
         -2   -1    0    0    0  501 -0.00000000000E+00  0.00000000000E+00  0.42953130552E+03  0.42953130553E+03  0.25500000000E-02 0.  1.
          2   -1    0    0  501    0  0.00000000000E+00 -0.00000000000E+00 -0.17358570177E+04  0.17358570177E+04  0.25500000000E-02 0. -1.
    8880023    1    1    2    0    0  0.51968139069E+03  0.15948798133E+03 -0.13441241193E+03  0.86451261805E+03  0.65864270000E+03 0.  1.
    8880022    1    1    2    0    0 -0.51968139069E+03 -0.15948798133E+03 -0.11719133003E+04  0.13008757052E+04  0.15294330000E+03 0.  0.
<mgrwt>
<rscale>  0 0.77010428E+03</rscale>
<asrwt>0</asrwt>
<pdfrwt beam="1">  1        2 0.26705492E+00 0.85399963E+03</pdfrwt>
<pdfrwt beam="2">  1       -2 0.66081740E-01 0.85399963E+03</pdfrwt>
<totfact> 0.20040170E+01</totfact>
</mgrwt>
</event>
<event>
 4    1  0.3057048E-007  0.8504917E+03  0.7818608E-02  0.9610706E-01
         -2   -1    0    0    0  501 -0.00000000000E+00  0.00000000000E+00  0.15776194869E+04  0.15776194869E+04  0.25500000000E-02 0.  1.
          2   -1    0    0  501    0  0.00000000000E+00 -0.00000000000E+00 -0.36195231800E+03  0.36195231801E+03  0.25500000000E-02 0. -1.
    8880023    1    1    2    0    0 -0.41874930094E+03  0.33789783586E+03  0.37428984964E+03  0.92920881524E+03  0.65864270000E+03 0. -1.
    8880022    1    1    2    0    0  0.41874930094E+03 -0.33789783586E+03  0.84137731923E+03  0.10103629896E+04  0.15294330000E+03 0.  1.
<mgrwt>
<rscale>  0 0.76591629E+03</rscale>
<asrwt>0</asrwt>
<pdfrwt beam="1">  1        2 0.55684972E-01 0.85049170E+03</pdfrwt>
<pdfrwt beam="2">  1       -2 0.24271069E+00 0.85049170E+03</pdfrwt>
<totfact> 0.64381251E+00</totfact>
</mgrwt>
</event>
<event>
 4    1  0.3057048E-007  0.6995063E+03  0.7818608E-02  0.9999256E-01
         -2   -1    0    0    0  501 -0.00000000000E+00  0.00000000000E+00  0.25062946608E+03  0.25062946610E+03  0.25500000000E-02 0.  1.
          2   -1    0    0  501    0  0.00000000000E+00 -0.00000000000E+00 -0.13635155164E+04  0.13635155164E+04  0.25500000000E-02 0. -1.
    8880023    1    1    2    0    0 -0.12397744771E+02 -0.23525536580E+03 -0.31292941842E+03  0.76631182843E+03  0.65864270000E+03 0.  1.
    8880022    1    1    2    0    0  0.12397744771E+02  0.23525536580E+03 -0.79995663187E+03  0.84783315405E+03  0.15294330000E+03 0.  0.
<mgrwt>
<rscale>  0 0.55682888E+03</rscale>
<asrwt>0</asrwt>
<pdfrwt beam="1">  1        2 0.20977161E+00 0.69950625E+03</pdfrwt>
<pdfrwt beam="2">  1       -2 0.38558380E-01 0.69950625E+03</pdfrwt>
<totfact> 0.98561425E+01</totfact>
</mgrwt>
</event>
<event>
 4    1  0.3057048E-007  0.9461320E+03  0.7818608E-02  0.9455701E-01
          2   -1    0    0  501    0  0.00000000000E+00  0.00000000000E+00  0.16787548569E+04  0.16787548569E+04  0.25500000000E-02 0. -1.
         -2   -1    0    0    0  501 -0.00000000000E+00 -0.00000000000E+00 -0.47157563029E+03  0.47157563029E+03  0.25500000000E-02 0.  1.
    8880023    1    1    2    0    0  0.18169345830E+03  0.65447919848E+03  0.27203218749E+03  0.98446292532E+03  0.65864270000E+03 0.  0.
    8880022    1    1    2    0    0 -0.18169345830E+03 -0.65447919848E+03  0.93514703910E+03  0.11658675619E+04  0.15294330000E+03 0.  0.
<mgrwt>
<rscale>  0 0.87630080E+03</rscale>
<asrwt>0</asrwt>
<pdfrwt beam="1">  1        2 0.25826998E+00 0.94613199E+03</pdfrwt>
<pdfrwt beam="2">  1       -2 0.72550097E-01 0.94613199E+03</pdfrwt>
<totfact> 0.17397225E+01</totfact>
</mgrwt>
</event>
<event>
 4    1  0.3057048E-007  0.8694261E+03  0.7818608E-02  0.9577011E-01
          2   -1    0    0  501    0  0.00000000000E+00  0.00000000000E+00  0.12491464028E+04  0.12491464028E+04  0.25500000000E-02 0. -1.
         -2   -1    0    0    0  501 -0.00000000000E+00 -0.00000000000E+00 -0.49010271678E+03  0.49010271678E+03  0.25500000000E-02 0.  1.
    8880023    1    1    2    0    0 -0.46968177504E+03 -0.31857579932E+03  0.13130632994E+03  0.87928554421E+03  0.65864270000E+03 0. -1.
    8880022    1    1    2    0    0  0.46968177504E+03  0.31857579932E+03  0.62773735607E+03  0.85996357536E+03  0.15294330000E+03 0.  0.
<mgrwt>
<rscale>  0 0.78836595E+03</rscale>
<asrwt>0</asrwt>
<pdfrwt beam="1">  1        2 0.19217637E+00 0.86942608E+03</pdfrwt>
<pdfrwt beam="2">  1       -2 0.75400418E-01 0.86942608E+03</pdfrwt>
<totfact> 0.28152268E+01</totfact>
</mgrwt>
</event>
<event>
 4    1  0.3057048E-007  0.1187421E+04  0.7818608E-02  0.9169448E-01
          2   -1    0    0  501    0  0.00000000000E+00  0.00000000000E+00  0.99590224862E+03  0.99590224862E+03  0.25500000000E-02 0. -1.
         -2   -1    0    0    0  501 -0.00000000000E+00 -0.00000000000E+00 -0.14257607521E+04  0.14257607521E+04  0.25500000000E-02 0.  1.
    8880023    1    1    2    0    0  0.73822170164E+03  0.65664854936E+03 -0.70984959327E+03  0.13834215733E+04  0.65864270000E+03 0.  0.
    8880022    1    1    2    0    0 -0.73822170164E+03 -0.65664854936E+03  0.27999108982E+03  0.10382414274E+04  0.15294330000E+03 0.  0.
<mgrwt>
<rscale>  0 0.11374417E+04</rscale>
<asrwt>0</asrwt>
<pdfrwt beam="1">  1        2 0.15321573E+00 0.11874211E+04</pdfrwt>
<pdfrwt beam="2">  1       -2 0.21934781E+00 0.11874211E+04</pdfrwt>
<totfact> 0.24631567E+00</totfact>
</mgrwt>
</event>
<event>
 4    1  0.3057048E-007  0.8456053E+03  0.7818608E-02  0.9619700E-01
          2   -1    0    0  501    0  0.00000000000E+00  0.00000000000E+00  0.19264101466E+04  0.19264101466E+04  0.25500000000E-02 0. -1.
         -2   -1    0    0    0  501 -0.00000000000E+00 -0.00000000000E+00 -0.29987226186E+03  0.29987226187E+03  0.25500000000E-02 0.  1.
    8880023    1    1    2    0    0 -0.35827288124E+03  0.39099693991E+03  0.52806934012E+03  0.99694809228E+03  0.65864270000E+03 0. -1.
    8880022    1    1    2    0    0  0.35827288124E+03 -0.39099693991E+03  0.10984685447E+04  0.12293343162E+04  0.15294330000E+03 0.  0.
<mgrwt>
<rscale>  0 0.76005898E+03</rscale>
<asrwt>0</asrwt>
<pdfrwt beam="1">  1        2 0.29637080E+00 0.84560527E+03</pdfrwt>
<pdfrwt beam="2">  1       -2 0.46134193E-01 0.84560527E+03</pdfrwt>
<totfact> 0.33325758E+01</totfact>
</mgrwt>
</event>
<event>
 4    1  0.3057048E-007  0.8344247E+03  0.7818608E-02  0.9640784E-01
         -2   -1    0    0    0  501 -0.00000000000E+00  0.00000000000E+00  0.16177196308E+04  0.16177196308E+04  0.25500000000E-02 0.  1.
          2   -1    0    0  501    0  0.00000000000E+00 -0.00000000000E+00 -0.98896725170E+03  0.98896725170E+03  0.25500000000E-02 0. -1.
    8880023    1    1    2    0    0 -0.31917617954E+03  0.40072554243E+03  0.14227938570E+04  0.16494262516E+04  0.65864270000E+03 0.  0.
    8880022    1    1    2    0    0  0.31917617954E+03 -0.40072554243E+03 -0.79404147782E+03  0.95726063090E+03  0.15294330000E+03 0.  0.
<mgrwt>
<rscale>  0 0.74654655E+03</rscale>
<asrwt>0</asrwt>
<pdfrwt beam="1">  1        2 0.15214881E+00 0.83442471E+03</pdfrwt>
<pdfrwt beam="2">  1       -2 0.24887994E+00 0.83442471E+03</pdfrwt>
<totfact> 0.17047124E+00</totfact>
</mgrwt>
</event>
<event>
 4    1  0.3057048E-007  0.7399466E+03  0.7818608E-02  0.9860103E-01
         -2   -1    0    0    0  501 -0.00000000000E+00  0.00000000000E+00  0.48465016113E+03  0.48465016114E+03  0.25500000000E-02 0.  1.
          2   -1    0    0  501    0  0.00000000000E+00 -0.00000000000E+00 -0.14522714910E+04  0.14522714910E+04  0.25500000000E-02 0. -1.
    8880023    1    1    2    0    0  0.18381176349E+02 -0.33670884671E+03  0.15396566448E+03  0.75579517543E+03  0.65864270000E+03 0.  1.
    8880022    1    1    2    0    0 -0.18381176349E+02  0.33670884671E+03 -0.11215869943E+04  0.11811264767E+04  0.15294330000E+03 0.  0.
<mgrwt>
<rscale>  0 0.62234455E+03</rscale>
<asrwt>0</asrwt>
<pdfrwt beam="1">  1        2 0.22342638E+00 0.73994657E+03</pdfrwt>
<pdfrwt beam="2">  1       -2 0.74561564E-01 0.73994657E+03</pdfrwt>
<totfact> 0.22384005E+01</totfact>
</mgrwt>
</event>
<event>
 4    1  0.3057048E-007  0.8337078E+03  0.7818608E-02  0.9642161E-01
          2   -1    0    0  501    0  0.00000000000E+00  0.00000000000E+00  0.12982574201E+04  0.12982574202E+04  0.25500000000E-02 0. -1.
         -2   -1    0    0    0  501 -0.00000000000E+00 -0.00000000000E+00 -0.39010133298E+03  0.39010133299E+03  0.25500000000E-02 0.  1.
    8880023    1    1    2    0    0 -0.47802012737E+03  0.18098395841E+03  0.31672980581E+03  0.89184438751E+03  0.65864270000E+03 0.  1.
    8880022    1    1    2    0    0  0.47802012737E+03 -0.18098395841E+03  0.59142628136E+03  0.79651436564E+03  0.15294330000E+03 0. -1.
<mgrwt>
<rscale>  0 0.74567452E+03</rscale>
<asrwt>0</asrwt>
<pdfrwt beam="1">  1        2 0.19973191E+00 0.83370777E+03</pdfrwt>
<pdfrwt beam="2">  1       -2 0.60015589E-01 0.83370777E+03</pdfrwt>
<totfact> 0.43374249E+01</totfact>
</mgrwt>
</event>
<event>
 4    1  0.3057048E-007  0.7544382E+03  0.7818608E-02  0.9819725E-01
          2   -1    0    0  501    0  0.00000000000E+00  0.00000000000E+00  0.34377580009E+04  0.34377580009E+04  0.25500000000E-02 0. -1.
         -2   -1    0    0    0  501 -0.00000000000E+00 -0.00000000000E+00 -0.12277640341E+03  0.12277640344E+03  0.25500000000E-02 0.  1.
    8880023    1    1    2    0    0  0.87828071013E+02 -0.35728570595E+03  0.12707208834E+04  0.14778053375E+04  0.65864270000E+03 0.  0.
    8880022    1    1    2    0    0 -0.87828071013E+02  0.35728570595E+03  0.20442607141E+04  0.20827290669E+04  0.15294330000E+03 0.  0.
<mgrwt>
<rscale>  0 0.64314647E+03</rscale>
<asrwt>0</asrwt>
<pdfrwt beam="1">  1        2 0.52888582E+00 0.75443824E+03</pdfrwt>
<pdfrwt beam="2">  1       -2 0.18888678E-01 0.75443824E+03</pdfrwt>
<totfact> 0.22730909E+01</totfact>
</mgrwt>
</event>
<event>
 4    1  0.3057048E-007  0.8579199E+03  0.7818608E-02  0.9597274E-01
          2   -1    0    0  501    0  0.00000000000E+00  0.00000000000E+00  0.81936734402E+03  0.81936734403E+03  0.25500000000E-02 0. -1.
         -2   -1    0    0    0  501 -0.00000000000E+00 -0.00000000000E+00 -0.12215959208E+04  0.12215959208E+04  0.25500000000E-02 0.  1.
    8880023    1    1    2    0    0 -0.54564830946E+03 -0.66964928982E+02 -0.92887837804E+03  0.12644530939E+04  0.65864270000E+03 0.  1.
    8880022    1    1    2    0    0  0.54564830946E+03  0.66964928982E+02  0.52664980126E+03  0.77651017089E+03  0.15294330000E+03 0.  0.
<mgrwt>
<rscale>  0 0.77476849E+03</rscale>
<asrwt>0</asrwt>
<pdfrwt beam="1">  1        2 0.12605651E+00 0.85791992E+03</pdfrwt>
<pdfrwt beam="2">  1       -2 0.18793784E+00 0.85791992E+03</pdfrwt>
<totfact> 0.53763156E+00</totfact>
</mgrwt>
</event>
<event>
 4    1  0.3057048E-007  0.7055940E+03  0.7818608E-02  0.9974741E-01
         -2   -1    0    0    0  501 -0.00000000000E+00  0.00000000000E+00  0.85078077973E+03  0.85078077974E+03  0.25500000000E-02 0.  1.
          2   -1    0    0  501    0  0.00000000000E+00 -0.00000000000E+00 -0.56295874098E+03  0.56295874099E+03  0.25500000000E-02 0. -1.
    8880023    1    1    2    0    0  0.19674216997E+02 -0.25232046596E+03  0.64088185714E+03  0.95320116105E+03  0.65864270000E+03 0.  1.
    8880022    1    1    2    0    0 -0.19674216997E+02  0.25232046596E+03 -0.35305981839E+03  0.46053835968E+03  0.15294330000E+03 0.  0.
<mgrwt>
<rscale>  0 0.56771795E+03</rscale>
<asrwt>0</asrwt>
<pdfrwt beam="1">  1        2 0.86609038E-01 0.70559400E+03</pdfrwt>
<pdfrwt beam="2">  1       -2 0.13088935E+00 0.70559400E+03</pdfrwt>
<totfact> 0.23245730E+01</totfact>
</mgrwt>
</event>
<event>
 4    1  0.3057048E-007  0.8332366E+03  0.7818608E-02  0.9643067E-01
         -2   -1    0    0    0  501 -0.00000000000E+00  0.00000000000E+00  0.44167541129E+03  0.44167541129E+03  0.25500000000E-02 0.  1.
          2   -1    0    0  501    0  0.00000000000E+00 -0.00000000000E+00 -0.14618995191E+04  0.14618995191E+04  0.25500000000E-02 0. -1.
    8880023    1    1    2    0    0  0.42972518812E+03 -0.27533491793E+03 -0.98626854830E+02  0.83905334580E+03  0.65864270000E+03 0.  1.
    8880022    1    1    2    0    0 -0.42972518812E+03  0.27533491793E+03 -0.92159725294E+03  0.10645215846E+04  0.15294330000E+03 0. -1.
<mgrwt>
<rscale>  0 0.74510107E+03</rscale>
<asrwt>0</asrwt>
<pdfrwt beam="1">  1        2 0.22490762E+00 0.83323662E+03</pdfrwt>
<pdfrwt beam="2">  1       -2 0.67950064E-01 0.83323662E+03</pdfrwt>
<totfact> 0.26818790E+01</totfact>
</mgrwt>
</event>
<event>
 4    1  0.3057048E-007  0.6725288E+03  0.7818608E-02  0.1013911E+00
          2   -1    0    0  501    0  0.00000000000E+00  0.00000000000E+00  0.61543780298E+03  0.61543780299E+03  0.25500000000E-02 0. -1.
         -2   -1    0    0    0  501 -0.00000000000E+00 -0.00000000000E+00 -0.55590709380E+03  0.55590709381E+03  0.25500000000E-02 0.  1.
    8880023    1    1    2    0    0 -0.88065074765E+02  0.10358221402E+03 -0.31646677939E+03  0.74326722057E+03  0.65864270000E+03 0.  1.
    8880022    1    1    2    0    0  0.88065074765E+02 -0.10358221402E+03  0.37599748857E+03  0.42807767623E+03  0.15294330000E+03 0.  0.
<mgrwt>
<rscale>  0 0.49949287E+03</rscale>
<asrwt>0</asrwt>
<pdfrwt beam="1">  1        2 0.94682739E-01 0.67252876E+03</pdfrwt>
<pdfrwt beam="2">  1       -2 0.85524169E-01 0.67252876E+03</pdfrwt>
<totfact> 0.58158692E+01</totfact>
</mgrwt>
</event>
<event>
 4    1  0.3057048E-007  0.7759391E+03  0.7818608E-02  0.9765464E-01
         -2   -1    0    0    0  501 -0.00000000000E+00  0.00000000000E+00  0.40367414177E+03  0.40367414178E+03  0.25500000000E-02 0.  1.
          2   -1    0    0  501    0  0.00000000000E+00 -0.00000000000E+00 -0.12612472168E+04  0.12612472168E+04  0.25500000000E-02 0. -1.
    8880023    1    1    2    0    0 -0.33717561484E+03 -0.23363205093E+03 -0.89822803504E+02  0.78112077988E+03  0.65864270000E+03 0.  0.
    8880022    1    1    2    0    0  0.33717561484E+03  0.23363205093E+03 -0.76775027150E+03  0.88380057867E+03  0.15294330000E+03 0.  0.
<mgrwt>
<rscale>  0 0.67249339E+03</rscale>
<asrwt>0</asrwt>
<pdfrwt beam="1">  1        2 0.19403803E+00 0.77593913E+03</pdfrwt>
<pdfrwt beam="2">  1       -2 0.62103715E-01 0.77593913E+03</pdfrwt>
<totfact> 0.42613812E+01</totfact>
</mgrwt>
</event>
<event>
 4    1  0.3057048E-007  0.7986261E+03  0.7818608E-02  0.9713775E-01
         -2   -1    0    0    0  501 -0.00000000000E+00  0.00000000000E+00  0.76453590678E+03  0.76453590679E+03  0.25500000000E-02 0.  1.
          2   -1    0    0  501    0  0.00000000000E+00 -0.00000000000E+00 -0.39186654924E+04  0.39186654924E+04  0.25500000000E-02 0. -1.
    8880023    1    1    2    0    0  0.16453041970E+03 -0.42062240511E+03  0.53636693503E+03  0.96202555161E+03  0.65864270000E+03 0.  0.
    8880022    1    1    2    0    0 -0.16453041970E+03  0.42062240511E+03 -0.36904965207E+04  0.37211758476E+04  0.15294330000E+03 0.  0.
<mgrwt>
<rscale>  0 0.70202550E+03</rscale>
<asrwt>0</asrwt>
<pdfrwt beam="1">  1        2 0.60287161E+00 0.79862612E+03</pdfrwt>
<pdfrwt beam="2">  1       -2 0.11762091E+00 0.79862612E+03</pdfrwt>
<totfact> 0.24302254E-01</totfact>
</mgrwt>
</event>
<event>
 4    1  0.3057048E-007  0.8224127E+03  0.7818608E-02  0.9664279E-01
         -2   -1    0    0    0  501 -0.00000000000E+00  0.00000000000E+00  0.10223319559E+04  0.10223319559E+04  0.25500000000E-02 0.  1.
          2   -1    0    0  501    0  0.00000000000E+00 -0.00000000000E+00 -0.55248743293E+03  0.55248743294E+03  0.25500000000E-02 0. -1.
    8880023    1    1    2    0    0 -0.47626695511E+03  0.12538805628E+03  0.62871710563E+03  0.10352042225E+04  0.65864270000E+03 0.  1.
    8880022    1    1    2    0    0  0.47626695511E+03 -0.12538805628E+03 -0.15887258265E+03  0.53961516632E+03  0.15294330000E+03 0.  0.
<mgrwt>
<rscale>  0 0.73183996E+03</rscale>
<asrwt>0</asrwt>
<pdfrwt beam="1">  1        2 0.84998067E-01 0.82241266E+03</pdfrwt>
<pdfrwt beam="2">  1       -2 0.15728184E+00 0.82241266E+03</pdfrwt>
<totfact> 0.14564523E+01</totfact>
</mgrwt>
</event>
<event>
 4    1  0.3057048E-007  0.6871692E+03  0.7818608E-02  0.1005528E+00
          2   -1    0    0  501    0  0.00000000000E+00  0.00000000000E+00  0.21561184779E+04  0.21561184779E+04  0.25500000000E-02 0. -1.
         -2   -1    0    0    0  501 -0.00000000000E+00 -0.00000000000E+00 -0.11880143991E+03  0.11880143994E+03  0.25500000000E-02 0.  1.
    8880023    1    1    2    0    0  0.53962325748E+02 -0.18835970194E+03  0.10357610962E+04  0.12429813211E+04  0.65864270000E+03 0. -1.
    8880022    1    1    2    0    0 -0.53962325748E+02  0.18835970194E+03  0.10015559419E+04  0.10319385968E+04  0.15294330000E+03 0.  0.
<mgrwt>
<rscale>  0 0.53291305E+03</rscale>
<asrwt>0</asrwt>
<pdfrwt beam="1">  1        2 0.33171053E+00 0.68716920E+03</pdfrwt>
<pdfrwt beam="2">  1       -2 0.18277145E-01 0.68716920E+03</pdfrwt>
<totfact> 0.14131013E+02</totfact>
</mgrwt>
</event>
<event>
 4    1  0.3057048E-007  0.6902371E+03  0.7818608E-02  0.1004040E+00
         -2   -1    0    0    0  501 -0.00000000000E+00  0.00000000000E+00  0.10271617228E+04  0.10271617228E+04  0.25500000000E-02 0.  1.
          2   -1    0    0  501    0  0.00000000000E+00 -0.00000000000E+00 -0.28670567709E+03  0.28670567710E+03  0.25500000000E-02 0. -1.
    8880023    1    1    2    0    0 -0.19962763885E+02  0.20547165549E+03  0.79332086579E+03  0.10515632722E+04  0.65864270000E+03 0.  0.
    8880022    1    1    2    0    0  0.19962763885E+02 -0.20547165549E+03 -0.52864820122E+02  0.26230412763E+03  0.15294330000E+03 0.  0.
<mgrwt>
<rscale>  0 0.53913676E+03</rscale>
<asrwt>0</asrwt>
<pdfrwt beam="1">  1        2 0.44108566E-01 0.69023715E+03</pdfrwt>
<pdfrwt beam="2">  1       -2 0.15802488E+00 0.69023715E+03</pdfrwt>
<totfact> 0.30590429E+01</totfact>
</mgrwt>
</event>
<event>
 4    1  0.3057048E-007  0.6737046E+03  0.7818608E-02  0.1013136E+00
          2   -1    0    0  501    0  0.00000000000E+00  0.00000000000E+00  0.15672697079E+04  0.15672697079E+04  0.25500000000E-02 0. -1.
         -2   -1    0    0    0  501 -0.00000000000E+00 -0.00000000000E+00 -0.72453554482E+03  0.72453554483E+03  0.25500000000E-02 0.  1.
    8880023    1    1    2    0    0 -0.48776680276E+02 -0.13299802426E+03 -0.55852974805E+03  0.87511903460E+03  0.65864270000E+03 0.  1.
    8880022    1    1    2    0    0  0.48776680276E+02  0.13299802426E+03  0.14012639111E+04  0.14166862181E+04  0.15294330000E+03 0.  0.
<mgrwt>
<rscale>  0 0.50247268E+03</rscale>
<asrwt>0</asrwt>
<pdfrwt beam="1">  1        2 0.24111841E+00 0.67370457E+03</pdfrwt>
<pdfrwt beam="2">  1       -2 0.11146701E+00 0.67370457E+03</pdfrwt>
<totfact> 0.76841209E+00</totfact>
</mgrwt>
</event>
<event>
 4    1  0.3057048E-007  0.8648595E+03  0.7818608E-02  0.9584977E-01
         -2   -1    0    0    0  501 -0.00000000000E+00  0.00000000000E+00  0.14677912016E+04  0.14677912016E+04  0.25500000000E-02 0.  1.
          2   -1    0    0  501    0  0.00000000000E+00 -0.00000000000E+00 -0.39899099987E+03  0.39899099988E+03  0.25500000000E-02 0. -1.
    8880023    1    1    2    0    0 -0.50372619453E+01 -0.56048758560E+03  0.92887293687E+03  0.12691677772E+04  0.65864270000E+03 0.  1.
    8880022    1    1    2    0    0  0.50372619453E+01  0.56048758560E+03  0.13992726485E+03  0.59761442426E+03  0.15294330000E+03 0.  0.
<mgrwt>
<rscale>  0 0.78298524E+03</rscale>
<asrwt>0</asrwt>
<pdfrwt beam="1">  1        2 0.61383230E-01 0.86485948E+03</pdfrwt>
<pdfrwt beam="2">  1       -2 0.22581403E+00 0.86485948E+03</pdfrwt>
<totfact> 0.73219574E+00</totfact>
</mgrwt>
</event>
<event>
 4    1  0.3057048E-007  0.7012821E+03  0.7818608E-02  0.9991924E-01
          2   -1    0    0  501    0  0.00000000000E+00  0.00000000000E+00  0.52598378906E+03  0.52598378906E+03  0.25500000000E-02 0. -1.
         -2   -1    0    0    0  501 -0.00000000000E+00 -0.00000000000E+00 -0.53846254594E+03  0.53846254594E+03  0.25500000000E-02 0.  1.
    8880023    1    1    2    0    0 -0.13053482805E+03 -0.20235371870E+03 -0.19237764675E+03  0.72719030112E+03  0.65864270000E+03 0.  1.
    8880022    1    1    2    0    0  0.13053482805E+03  0.20235371870E+03  0.17989888987E+03  0.33725603389E+03  0.15294330000E+03 0.  0.
<mgrwt>
<rscale>  0 0.56005793E+03</rscale>
<asrwt>0</asrwt>
<pdfrwt beam="1">  1        2 0.80920583E-01 0.70128209E+03</pdfrwt>
<pdfrwt beam="2">  1       -2 0.82840391E-01 0.70128209E+03</pdfrwt>
<totfact> 0.75215177E+01</totfact>
</mgrwt>
</event>
<event>
 4    1  0.3057048E-007  0.9045284E+03  0.7818608E-02  0.9518801E-01
          2   -1    0    0  501    0  0.00000000000E+00  0.00000000000E+00  0.71365283381E+03  0.71365283381E+03  0.25500000000E-02 0. -1.
         -2   -1    0    0    0  501 -0.00000000000E+00 -0.00000000000E+00 -0.10090453174E+04  0.10090453174E+04  0.25500000000E-02 0.  1.
    8880023    1    1    2    0    0  0.42510979538E+03 -0.45126824399E+03 -0.52293562825E+03  0.10448125400E+04  0.65864270000E+03 0.  0.
    8880022    1    1    2    0    0 -0.42510979538E+03  0.45126824399E+03  0.22754314469E+03  0.67788561120E+03  0.15294330000E+03 0.  0.
<mgrwt>
<rscale>  0 0.82911790E+03</rscale>
<asrwt>0</asrwt>
<pdfrwt beam="1">  1        2 0.10979274E+00 0.90452837E+03</pdfrwt>
<pdfrwt beam="2">  1       -2 0.15523774E+00 0.90452837E+03</pdfrwt>
<totfact> 0.10935026E+01</totfact>
</mgrwt>
</event>
<event>
 4    1  0.3057048E-007  0.8529963E+03  0.7818608E-02  0.9606145E-01
          2   -1    0    0  501    0  0.00000000000E+00  0.00000000000E+00  0.12557909236E+04  0.12557909236E+04  0.25500000000E-02 0. -1.
         -2   -1    0    0    0  501 -0.00000000000E+00 -0.00000000000E+00 -0.46312055330E+03  0.46312055331E+03  0.25500000000E-02 0.  1.
    8880023    1    1    2    0    0 -0.26998769859E+03 -0.46999898011E+03  0.15294191224E+03  0.86659900385E+03  0.65864270000E+03 0.  1.
    8880022    1    1    2    0    0  0.26998769859E+03  0.46999898011E+03  0.63972845810E+03  0.85231247311E+03  0.15294330000E+03 0. -1.
<mgrwt>
<rscale>  0 0.76890779E+03</rscale>
<asrwt>0</asrwt>
<pdfrwt beam="1">  1        2 0.19319860E+00 0.85299625E+03</pdfrwt>
<pdfrwt beam="2">  1       -2 0.71249317E-01 0.85299625E+03</pdfrwt>
<totfact> 0.31667950E+01</totfact>
</mgrwt>
</event>
<event>
 4    1  0.3057048E-007  0.7510108E+03  0.7818608E-02  0.9828961E-01
          2   -1    0    0  501    0  0.00000000000E+00  0.00000000000E+00  0.93431162637E+03  0.93431162637E+03  0.25500000000E-02 0. -1.
         -2   -1    0    0    0  501 -0.00000000000E+00 -0.00000000000E+00 -0.37445350165E+03  0.37445350166E+03  0.25500000000E-02 0.  1.
    8880023    1    1    2    0    0 -0.13239479842E+03  0.33567627130E+03  0.52288218748E+03  0.91510815208E+03  0.65864270000E+03 0.  0.
    8880022    1    1    2    0    0  0.13239479842E+03 -0.33567627130E+03  0.36975937235E+02  0.39365697595E+03  0.15294330000E+03 0.  0.
<mgrwt>
<rscale>  0 0.63831202E+03</rscale>
<asrwt>0</asrwt>
<pdfrwt beam="1">  1        2 0.14374025E+00 0.75101075E+03</pdfrwt>
<pdfrwt beam="2">  1       -2 0.57608232E-01 0.75101075E+03</pdfrwt>
<totfact> 0.79547718E+01</totfact>
</mgrwt>
</event>
<event>
 4    1  0.3057048E-007  0.6669257E+03  0.7818608E-02  0.1017970E+00
         -2   -1    0    0    0  501 -0.00000000000E+00  0.00000000000E+00  0.37462089498E+03  0.37462089499E+03  0.25500000000E-02 0.  1.
          2   -1    0    0  501    0  0.00000000000E+00 -0.00000000000E+00 -0.26892129689E+04  0.26892129689E+04  0.25500000000E-02 0. -1.
    8880023    1    1    2    0    0 -0.69999360718E+02 -0.77972938726E+02  0.71321235246E+02  0.67072842085E+03  0.65864270000E+03 0.  1.
    8880022    1    1    2    0    0  0.69999360718E+02  0.77972938726E+02 -0.23859133091E+04  0.23931054430E+04  0.15294330000E+03 0.  0.
<mgrwt>
<rscale>  0 0.48426452E+03</rscale>
<asrwt>0</asrwt>
<pdfrwt beam="1">  1        2 0.41372506E+00 0.66692570E+03</pdfrwt>
<pdfrwt beam="2">  1       -2 0.57633986E-01 0.66692570E+03</pdfrwt>
<totfact> 0.81393439E+00</totfact>
</mgrwt>
</event>
<event>
 4    1  0.3057048E-007  0.8810514E+03  0.7818608E-02  0.9557162E-01
          2   -1    0    0  501    0  0.00000000000E+00  0.00000000000E+00  0.28562476736E+04  0.28562476736E+04  0.25500000000E-02 0. -1.
         -2   -1    0    0    0  501 -0.00000000000E+00 -0.00000000000E+00 -0.47815998535E+03  0.47815998535E+03  0.25500000000E-02 0.  1.
    8880023    1    1    2    0    0 -0.51583402115E+03  0.27632697240E+03  0.45789214665E+00  0.88105150189E+03  0.65864270000E+03 0.  1.
    8880022    1    1    2    0    0  0.51583402115E+03 -0.27632697240E+03  0.23776297961E+04  0.24533561571E+04  0.15294330000E+03 0.  0.
<mgrwt>
<rscale>  0 0.80197584E+03</rscale>
<asrwt>0</asrwt>
<pdfrwt beam="1">  1        2 0.43942271E+00 0.88105138E+03</pdfrwt>
<pdfrwt beam="2">  1       -2 0.73563076E-01 0.88105138E+03</pdfrwt>
<totfact> 0.36940241E+00</totfact>
</mgrwt>
</event>
<event>
 4    1  0.3057048E-007  0.8134097E+03  0.7818608E-02  0.9682518E-01
         -2   -1    0    0    0  501 -0.00000000000E+00  0.00000000000E+00  0.47173095263E+03  0.47173095264E+03  0.25500000000E-02 0.  1.
          2   -1    0    0  501    0  0.00000000000E+00 -0.00000000000E+00 -0.20698204888E+04  0.20698204888E+04  0.25500000000E-02 0. -1.
    8880023    1    1    2    0    0  0.46917352675E+03 -0.87757675013E+02  0.53907097132E+02  0.81519408064E+03  0.65864270000E+03 0.  1.
    8880022    1    1    2    0    0 -0.46917352675E+03  0.87757675013E+02 -0.16519966333E+04  0.17263573608E+04  0.15294330000E+03 0.  0.
<mgrwt>
<rscale>  0 0.72067279E+03</rscale>
<asrwt>0</asrwt>
<pdfrwt beam="1">  1        2 0.31843392E+00 0.81340975E+03</pdfrwt>
<pdfrwt beam="2">  1       -2 0.72573994E-01 0.81340975E+03</pdfrwt>
<totfact> 0.10777893E+01</totfact>
</mgrwt>
</event>
<event>
 4    1  0.3057048E-007  0.9429185E+03  0.7818608E-02  0.9460377E-01
         -2   -1    0    0    0  501 -0.00000000000E+00  0.00000000000E+00  0.30610564316E+03  0.30610564317E+03  0.25500000000E-02 0.  1.
          2   -1    0    0  501    0  0.00000000000E+00 -0.00000000000E+00 -0.28874097510E+04  0.28874097510E+04  0.25500000000E-02 0. -1.
    8880023    1    1    2    0    0  0.37663789515E+03 -0.55984729516E+03 -0.65868852497E+03  0.11502025374E+04  0.65864270000E+03 0.  0.
    8880022    1    1    2    0    0 -0.37663789515E+03  0.55984729516E+03 -0.19226155829E+04  0.20433128568E+04  0.15294330000E+03 0.  0.
<mgrwt>
<rscale>  0 0.87269183E+03</rscale>
<asrwt>0</asrwt>
<pdfrwt beam="1">  1        2 0.44421687E+00 0.94291850E+03</pdfrwt>
<pdfrwt beam="2">  1       -2 0.47093178E-01 0.94291850E+03</pdfrwt>
<totfact> 0.89894424E+00</totfact>
</mgrwt>
</event>
<event>
 4    1  0.3057048E-007  0.8446452E+03  0.7818608E-02  0.9621483E-01
         -2   -1    0    0    0  501 -0.00000000000E+00  0.00000000000E+00  0.57826188813E+03  0.57826188814E+03  0.25500000000E-02 0.  1.
          2   -1    0    0  501    0  0.00000000000E+00 -0.00000000000E+00 -0.12331348140E+04  0.12331348140E+04  0.25500000000E-02 0. -1.
    8880023    1    1    2    0    0  0.15938860153E+02  0.52854629928E+03  0.12808556350E+03  0.85430167715E+03  0.65864270000E+03 0.  1.
    8880022    1    1    2    0    0 -0.15938860153E+02 -0.52854629928E+03 -0.78295848933E+03  0.95709502494E+03  0.15294330000E+03 0.  0.
<mgrwt>
<rscale>  0 0.75890478E+03</rscale>
<asrwt>0</asrwt>
<pdfrwt beam="1">  1        2 0.18971305E+00 0.84464516E+03</pdfrwt>
<pdfrwt beam="2">  1       -2 0.88963368E-01 0.84464516E+03</pdfrwt>
<totfact> 0.19829545E+01</totfact>
</mgrwt>
</event>
<event>
 4    1  0.3057048E-007  0.7974304E+03  0.7818608E-02  0.9716380E-01
         -2   -1    0    0    0  501 -0.00000000000E+00  0.00000000000E+00  0.11450631929E+04  0.11450631929E+04  0.25500000000E-02 0.  1.
          2   -1    0    0  501    0  0.00000000000E+00 -0.00000000000E+00 -0.55285219759E+03  0.55285219760E+03  0.25500000000E-02 0. -1.
    8880023    1    1    2    0    0 -0.22580303345E+03 -0.38871332709E+03  0.84342366685E+03  0.11607147577E+04  0.65864270000E+03 0.  1.
    8880022    1    1    2    0    0  0.22580303345E+03  0.38871332709E+03 -0.25121267154E+03  0.53720063284E+03  0.15294330000E+03 0. -1.
<mgrwt>
<rscale>  0 0.70049866E+03</rscale>
<asrwt>0</asrwt>
<pdfrwt beam="1">  1        2 0.85054184E-01 0.79743042E+03</pdfrwt>
<pdfrwt beam="2">  1       -2 0.17616357E+00 0.79743042E+03</pdfrwt>
<totfact> 0.10672973E+01</totfact>
</mgrwt>
</event>
<event>
 4    1  0.3057048E-007  0.1020577E+04  0.7818608E-02  0.9355119E-01
          2   -1    0    0  501    0  0.00000000000E+00  0.00000000000E+00  0.26772141349E+04  0.26772141349E+04  0.25500000000E-02 0. -1.
         -2   -1    0    0    0  501 -0.00000000000E+00 -0.00000000000E+00 -0.62085523237E+03  0.62085523237E+03  0.25500000000E-02 0.  1.
    8880023    1    1    2    0    0  0.77801028857E+03 -0.49662230234E+02 -0.75129771013E+02  0.10233381821E+04  0.65864270000E+03 0.  1.
    8880022    1    1    2    0    0 -0.77801028857E+03  0.49662230234E+02  0.21314886735E+04  0.22747311851E+04  0.15294330000E+03 0.  0.
<mgrwt>
<rscale>  0 0.95863098E+03</rscale>
<asrwt>0</asrwt>
<pdfrwt beam="1">  1        2 0.41187910E+00 0.10205766E+04</pdfrwt>
<pdfrwt beam="2">  1       -2 0.95516188E-01 0.10205766E+04</pdfrwt>
<totfact> 0.25452793E+00</totfact>
</mgrwt>
</event>
<event>
 4    1  0.3057048E-007  0.8658994E+03  0.7818608E-02  0.9583154E-01
         -2   -1    0    0    0  501 -0.00000000000E+00  0.00000000000E+00  0.29171693735E+03  0.29171693736E+03  0.25500000000E-02 0.  1.
          2   -1    0    0  501    0  0.00000000000E+00 -0.00000000000E+00 -0.24503117275E+04  0.24503117275E+04  0.25500000000E-02 0. -1.
    8880023    1    1    2    0    0 -0.47391456422E+03 -0.30228565355E+03 -0.53682467404E+03  0.10188044795E+04  0.65864270000E+03 0.  1.
    8880022    1    1    2    0    0  0.47391456422E+03  0.30228565355E+03 -0.16217701161E+04  0.17232241853E+04  0.15294330000E+03 0.  0.
<mgrwt>
<rscale>  0 0.78421239E+03</rscale>
<asrwt>0</asrwt>
<pdfrwt beam="1">  1        2 0.37697102E+00 0.86589944E+03</pdfrwt>
<pdfrwt beam="2">  1       -2 0.44879530E-01 0.86589944E+03</pdfrwt>
<totfact> 0.17999839E+01</totfact>
</mgrwt>
</event>
<event>
 4    1  0.3057048E-007  0.7725518E+03  0.7818608E-02  0.9773633E-01
          2   -1    0    0  501    0  0.00000000000E+00  0.00000000000E+00  0.12176884182E+04  0.12176884182E+04  0.25500000000E-02 0. -1.
         -2   -1    0    0    0  501 -0.00000000000E+00 -0.00000000000E+00 -0.79025298165E+03  0.79025298165E+03  0.25500000000E-02 0.  1.
    8880023    1    1    2    0    0 -0.19724642415E+03 -0.35230656945E+03 -0.54400763837E+03  0.94487067241E+03  0.65864270000E+03 0.  1.
    8880022    1    1    2    0    0  0.19724642415E+03  0.35230656945E+03  0.97144307494E+03  0.10630707275E+04  0.15294330000E+03 0.  0.
<mgrwt>
<rscale>  0 0.66796946E+03</rscale>
<asrwt>0</asrwt>
<pdfrwt beam="1">  1        2 0.18733668E+00 0.77255180E+03</pdfrwt>
<pdfrwt beam="2">  1       -2 0.12157738E+00 0.77255180E+03</pdfrwt>
<totfact> 0.96656351E+00</totfact>
</mgrwt>
</event>
<event>
 4    1  0.3057048E-007  0.7015404E+03  0.7818608E-02  0.9990870E-01
         -2   -1    0    0    0  501 -0.00000000000E+00  0.00000000000E+00  0.27380489590E+03  0.27380489591E+03  0.25500000000E-02 0.  1.
          2   -1    0    0  501    0  0.00000000000E+00 -0.00000000000E+00 -0.12405787653E+04  0.12405787653E+04  0.25500000000E-02 0. -1.
    8880023    1    1    2    0    0  0.23769072565E+02 -0.24038246965E+03 -0.25348763456E+03  0.74593222726E+03  0.65864270000E+03 0.  0.
    8880022    1    1    2    0    0 -0.23769072565E+02  0.24038246965E+03 -0.71328623482E+03  0.76845143394E+03  0.15294330000E+03 0.  0.
<mgrwt>
<rscale>  0 0.56052382E+03</rscale>
<asrwt>0</asrwt>
<pdfrwt beam="1">  1        2 0.19085827E+00 0.70154038E+03</pdfrwt>
<pdfrwt beam="2">  1       -2 0.42123831E-01 0.70154038E+03</pdfrwt>
<totfact> 0.97593269E+01</totfact>
</mgrwt>
</event>
<event>
 4    1  0.3057048E-007  0.7294708E+03  0.7818608E-02  0.9891753E-01
         -2   -1    0    0    0  501 -0.00000000000E+00  0.00000000000E+00  0.29935240688E+03  0.29935240689E+03  0.25500000000E-02 0.  1.
          2   -1    0    0  501    0  0.00000000000E+00 -0.00000000000E+00 -0.14736185247E+04  0.14736185247E+04  0.25500000000E-02 0. -1.
    8880023    1    1    2    0    0  0.22995764709E+02  0.31271168831E+03 -0.22773280815E+03  0.76419228167E+03  0.65864270000E+03 0.  1.
    8880022    1    1    2    0    0 -0.22995764709E+02 -0.31271168831E+03 -0.94653330963E+03  0.10087786499E+04  0.15294330000E+03 0.  0.
<mgrwt>
<rscale>  0 0.60662637E+03</rscale>
<asrwt>0</asrwt>
<pdfrwt beam="1">  1        2 0.22671054E+00 0.72947077E+03</pdfrwt>
<pdfrwt beam="2">  1       -2 0.46054217E-01 0.72947077E+03</pdfrwt>
<totfact> 0.60066489E+01</totfact>
</mgrwt>
</event>
<event>
 4    1  0.3057048E-007  0.8035626E+03  0.7818608E-02  0.9703145E-01
         -2   -1    0    0    0  501 -0.00000000000E+00  0.00000000000E+00  0.24797730487E+03  0.24797730488E+03  0.25500000000E-02 0.  1.
          2   -1    0    0  501    0  0.00000000000E+00 -0.00000000000E+00 -0.25660071847E+04  0.25660071847E+04  0.25500000000E-02 0. -1.
    8880023    1    1    2    0    0 -0.18857740175E+03  0.41993004316E+03 -0.53310099659E+03  0.96431818215E+03  0.65864270000E+03 0.  0.
    8880022    1    1    2    0    0  0.18857740175E+03 -0.41993004316E+03 -0.17849288832E+04  0.18496663074E+04  0.15294330000E+03 0.  0.
<mgrwt>
<rscale>  0 0.70829835E+03</rscale>
<asrwt>0</asrwt>
<pdfrwt beam="1">  1        2 0.39477032E+00 0.80356262E+03</pdfrwt>
<pdfrwt beam="2">  1       -2 0.38150356E-01 0.80356262E+03</pdfrwt>
<totfact> 0.21469405E+01</totfact>
</mgrwt>
</event>
<event>
 4    1  0.3057048E-007  0.8023403E+03  0.7818608E-02  0.9705759E-01
         -2   -1    0    0    0  501 -0.00000000000E+00  0.00000000000E+00  0.35956986352E+03  0.35956986353E+03  0.25500000000E-02 0.  1.
          2   -1    0    0  501    0  0.00000000000E+00 -0.00000000000E+00 -0.31823116446E+04  0.31823116446E+04  0.25500000000E-02 0. -1.
    8880023    1    1    2    0    0 -0.31729106887E+03 -0.33055425594E+03 -0.13811151229E+03  0.81414048824E+03  0.65864270000E+03 0.  0.
    8880022    1    1    2    0    0  0.31729106887E+03  0.33055425594E+03 -0.26846302687E+04  0.27277410198E+04  0.15294330000E+03 0. -1.
<mgrwt>
<rscale>  0 0.70674964E+03</rscale>
<asrwt>0</asrwt>
<pdfrwt beam="1">  1        2 0.48958639E+00 0.80234029E+03</pdfrwt>
<pdfrwt beam="2">  1       -2 0.55318443E-01 0.80234029E+03</pdfrwt>
<totfact> 0.43442698E+00</totfact>
</mgrwt>
</event>
<event>
 4    1  0.3057048E-007  0.7220139E+03  0.7818608E-02  0.9915830E-01
         -2   -1    0    0    0  501 -0.00000000000E+00  0.00000000000E+00  0.35157108505E+03  0.35157108506E+03  0.25500000000E-02 0.  1.
          2   -1    0    0  501    0  0.00000000000E+00 -0.00000000000E+00 -0.10962877610E+04  0.10962877610E+04  0.25500000000E-02 0. -1.
    8880023    1    1    2    0    0  0.29456791309E+03  0.26898663645E+02 -0.10898108227E+03  0.73019235554E+03  0.65864270000E+03 0.  0.
    8880022    1    1    2    0    0 -0.29456791309E+03 -0.26898663645E+02 -0.63573559372E+03  0.71766649055E+03  0.15294330000E+03 0.  0.
<mgrwt>
<rscale>  0 0.59500205E+03</rscale>
<asrwt>0</asrwt>
<pdfrwt beam="1">  1        2 0.16865965E+00 0.72201385E+03</pdfrwt>
<pdfrwt beam="2">  1       -2 0.54087860E-01 0.72201385E+03</pdfrwt>
<totfact> 0.71765311E+01</totfact>
</mgrwt>
</event>
<event>
 4    1  0.3057048E-007  0.7433911E+03  0.7818608E-02  0.9850177E-01
          2   -1    0    0  501    0  0.00000000000E+00  0.00000000000E+00  0.81059314627E+03  0.81059314628E+03  0.25500000000E-02 0. -1.
         -2   -1    0    0    0  501 -0.00000000000E+00 -0.00000000000E+00 -0.51944103056E+03  0.51944103057E+03  0.25500000000E-02 0.  1.
    8880023    1    1    2    0    0  0.22319698809E+03  0.26268470235E+03 -0.14082195847E+03  0.75661164318E+03  0.65864270000E+03 0.  1.
    8880022    1    1    2    0    0 -0.22319698809E+03 -0.26268470235E+03  0.43197407418E+03  0.57342253367E+03  0.15294330000E+03 0.  0.
<mgrwt>
<rscale>  0 0.62737900E+03</rscale>
<asrwt>0</asrwt>
<pdfrwt beam="1">  1        2 0.12470664E+00 0.74339112E+03</pdfrwt>
<pdfrwt beam="2">  1       -2 0.79914005E-01 0.74339112E+03</pdfrwt>
<totfact> 0.47570870E+01</totfact>
</mgrwt>
</event>
<event>
 4    1  0.3057048E-007  0.7412200E+03  0.7818608E-02  0.9856407E-01
          2   -1    0    0  501    0  0.00000000000E+00  0.00000000000E+00  0.45981212284E+04  0.45981212284E+04  0.25500000000E-02 0. -1.
         -2   -1    0    0    0  501 -0.00000000000E+00 -0.00000000000E+00 -0.68810155692E+03  0.68810155692E+03  0.25500000000E-02 0.  1.
    8880023    1    1    2    0    0 -0.32303272652E+03  0.10605094994E+03 -0.47826840237E+03  0.88212687146E+03  0.65864270000E+03 0.  0.
    8880022    1    1    2    0    0  0.32303272652E+03 -0.10605094994E+03  0.43882880738E+04  0.44040959138E+04  0.15294330000E+03 0.  0.
<mgrwt>
<rscale>  0 0.62421293E+03</rscale>
<asrwt>0</asrwt>
<pdfrwt beam="1">  1        2 0.70740325E+00 0.74122004E+03</pdfrwt>
<pdfrwt beam="2">  1       -2 0.10586178E+00 0.74122004E+03</pdfrwt>
<totfact> 0.81759415E-02</totfact>
</mgrwt>
</event>
<event>
 4    1  0.3057048E-007  0.6641495E+03  0.7818608E-02  0.1020258E+00
          2   -1    0    0  501    0  0.00000000000E+00  0.00000000000E+00  0.31833323407E+04  0.31833323407E+04  0.25500000000E-02 0. -1.
         -2   -1    0    0    0  501 -0.00000000000E+00 -0.00000000000E+00 -0.74794408641E+02  0.74794408684E+02  0.25500000000E-02 0.  1.
    8880023    1    1    2    0    0  0.29857934952E+02  0.79955258669E+02  0.15047053755E+04  0.16447591961E+04  0.65864270000E+03 0.  1.
    8880022    1    1    2    0    0 -0.29857934952E+02 -0.79955258669E+02  0.16038325566E+04  0.16133675533E+04  0.15294330000E+03 0.  0.
<mgrwt>
<rscale>  0 0.47593672E+03</rscale>
<asrwt>0</asrwt>
<pdfrwt beam="1">  1        2 0.48974339E+00 0.66414949E+03</pdfrwt>
<pdfrwt beam="2">  1       -2 0.11506833E-01 0.66414949E+03</pdfrwt>
<totfact> 0.78012579E+01</totfact>
</mgrwt>
</event>
<event>
 4    1  0.3057048E-007  0.8736561E+03  0.7818608E-02  0.9569719E-01
          2   -1    0    0  501    0  0.00000000000E+00  0.00000000000E+00  0.21812216922E+04  0.21812216922E+04  0.25500000000E-02 0. -1.
         -2   -1    0    0    0  501 -0.00000000000E+00 -0.00000000000E+00 -0.41987092452E+03  0.41987092453E+03  0.25500000000E-02 0.  1.
    8880023    1    1    2    0    0  0.43989517886E+03 -0.36872353298E+03  0.15352249047E+03  0.88704237413E+03  0.65864270000E+03 0.  1.
    8880022    1    1    2    0    0 -0.43989517886E+03  0.36872353298E+03  0.16078282772E+04  0.17140502426E+04  0.15294330000E+03 0.  0.
<mgrwt>
<rscale>  0 0.79333233E+03</rscale>
<asrwt>0</asrwt>
<pdfrwt beam="1">  1        2 0.33557256E+00 0.87365612E+03</pdfrwt>
<pdfrwt beam="2">  1       -2 0.64595529E-01 0.87365612E+03</pdfrwt>
<totfact> 0.11958724E+01</totfact>
</mgrwt>
</event>
<event>
 4    1  0.3057048E-007  0.9614920E+03  0.7818608E-02  0.9433769E-01
         -2   -1    0    0    0  501 -0.00000000000E+00  0.00000000000E+00  0.88747561512E+03  0.88747561513E+03  0.25500000000E-02 0.  1.
          2   -1    0    0  501    0  0.00000000000E+00 -0.00000000000E+00 -0.99267526254E+03  0.99267526254E+03  0.25500000000E-02 0. -1.
    8880023    1    1    2    0    0 -0.69964083617E+03 -0.34048130883E+02  0.35866241010E+03  0.10262092893E+04  0.65864270000E+03 0.  1.
    8880022    1    1    2    0    0  0.69964083617E+03  0.34048130883E+02 -0.46386205752E+03  0.85394158832E+03  0.15294330000E+03 0.  0.
<mgrwt>
<rscale>  0 0.89347977E+03</rscale>
<asrwt>0</asrwt>
<pdfrwt beam="1">  1        2 0.15271927E+00 0.96149196E+03</pdfrwt>
<pdfrwt beam="2">  1       -2 0.13653471E+00 0.96149196E+03</pdfrwt>
<totfact> 0.97123208E+00</totfact>
</mgrwt>
</event>
<event>
 4    1  0.3057048E-007  0.7679447E+03  0.7818608E-02  0.9784957E-01
          2   -1    0    0  501    0  0.00000000000E+00  0.00000000000E+00  0.16852613952E+04  0.16852613952E+04  0.25500000000E-02 0. -1.
         -2   -1    0    0    0  501 -0.00000000000E+00 -0.00000000000E+00 -0.38249262342E+03  0.38249262342E+03  0.25500000000E-02 0.  1.
    8880023    1    1    2    0    0  0.38684790288E+03  0.79230614146E+02  0.78059541917E+02  0.77190173502E+03  0.65864270000E+03 0.  1.
    8880022    1    1    2    0    0 -0.38684790288E+03 -0.79230614146E+02  0.12247092298E+04  0.12958522836E+04  0.15294330000E+03 0.  0.
<mgrwt>
<rscale>  0 0.66176100E+03</rscale>
<asrwt>0</asrwt>
<pdfrwt beam="1">  1        2 0.25927099E+00 0.76794466E+03</pdfrwt>
<pdfrwt beam="2">  1       -2 0.58845019E-01 0.76794466E+03</pdfrwt>
<totfact> 0.27630248E+01</totfact>
</mgrwt>
</event>
<event>
 4    1  0.3057048E-007  0.8077071E+03  0.7818608E-02  0.9694373E-01
         -2   -1    0    0    0  501 -0.00000000000E+00  0.00000000000E+00  0.69612698429E+03  0.69612698430E+03  0.25500000000E-02 0.  1.
          2   -1    0    0  501    0  0.00000000000E+00 -0.00000000000E+00 -0.99801051771E+03  0.99801051772E+03  0.25500000000E-02 0. -1.
    8880023    1    1    2    0    0 -0.13573361842E+03 -0.44738901193E+03  0.34765897356E+03  0.87935061911E+03  0.65864270000E+03 0.  0.
    8880022    1    1    2    0    0  0.13573361842E+03  0.44738901193E+03 -0.64954250698E+03  0.81478688290E+03  0.15294330000E+03 0. -1.
<mgrwt>
<rscale>  0 0.71352814E+03</rscale>
<asrwt>0</asrwt>
<pdfrwt beam="1">  1        2 0.15354008E+00 0.80770709E+03</pdfrwt>
<pdfrwt beam="2">  1       -2 0.10709646E+00 0.80770709E+03</pdfrwt>
<totfact> 0.17895044E+01</totfact>
</mgrwt>
</event>
<event>
 4    1  0.3057048E-007  0.7675195E+03  0.7818608E-02  0.9786015E-01
          2   -1    0    0  501    0  0.00000000000E+00  0.00000000000E+00  0.14018664559E+04  0.14018664559E+04  0.25500000000E-02 0. -1.
         -2   -1    0    0    0  501 -0.00000000000E+00 -0.00000000000E+00 -0.53479859788E+03  0.53479859788E+03  0.25500000000E-02 0.  1.
    8880023    1    1    2    0    0  0.39160174468E+03  0.43864053771E+02 -0.19642064170E+03  0.79225454016E+03  0.65864270000E+03 0.  1.
    8880022    1    1    2    0    0 -0.39160174468E+03 -0.43864053771E+02  0.10634884998E+04  0.11444105137E+04  0.15294330000E+03 0.  0.
<mgrwt>
<rscale>  0 0.66118471E+03</rscale>
<asrwt>0</asrwt>
<pdfrwt beam="1">  1        2 0.21567176E+00 0.76751950E+03</pdfrwt>
<pdfrwt beam="2">  1       -2 0.82276707E-01 0.76751950E+03</pdfrwt>
<totfact> 0.19106636E+01</totfact>
</mgrwt>
</event>
<event>
 4    1  0.3057048E-007  0.8325329E+03  0.7818608E-02  0.9644424E-01
         -2   -1    0    0    0  501 -0.00000000000E+00  0.00000000000E+00  0.20340360106E+04  0.20340360106E+04  0.25500000000E-02 0.  1.
          2   -1    0    0  501    0  0.00000000000E+00 -0.00000000000E+00 -0.30381885783E+03  0.30381885784E+03  0.25500000000E-02 0. -1.
    8880023    1    1    2    0    0  0.64136294875E+02  0.50516064787E+03  0.43841552925E+03  0.94091398492E+03  0.65864270000E+03 0. -1.
    8880022    1    1    2    0    0 -0.64136294875E+02 -0.50516064787E+03  0.12918016235E+04  0.13969408835E+04  0.15294330000E+03 0.  0.
<mgrwt>
<rscale>  0 0.74424393E+03</rscale>
<asrwt>0</asrwt>
<pdfrwt beam="1">  1        2 0.46741363E-01 0.83253285E+03</pdfrwt>
<pdfrwt beam="2">  1       -2 0.31292861E+00 0.83253285E+03</pdfrwt>
<totfact> 0.29557384E+00</totfact>
</mgrwt>
</event>
<event>
 4    1  0.3057048E-007  0.6794022E+03  0.7818608E-02  0.1009664E+00
         -2   -1    0    0    0  501 -0.00000000000E+00  0.00000000000E+00  0.10214562001E+04  0.10214562001E+04  0.25500000000E-02 0.  1.
          2   -1    0    0  501    0  0.00000000000E+00 -0.00000000000E+00 -0.83098859900E+03  0.83098859901E+03  0.25500000000E-02 0. -1.
    8880023    1    1    2    0    0 -0.16600376141E+03 -0.14829834029E+02  0.88860606365E+03  0.11185741439E+04  0.65864270000E+03 0.  1.
    8880022    1    1    2    0    0  0.16600376141E+03  0.14829834029E+02 -0.69813846251E+03  0.73387065525E+03  0.15294330000E+03 0.  0.
<mgrwt>
<rscale>  0 0.51608460E+03</rscale>
<asrwt>0</asrwt>
<pdfrwt beam="1">  1        2 0.12784440E+00 0.67940222E+03</pdfrwt>
<pdfrwt beam="2">  1       -2 0.15714711E+00 0.67940222E+03</pdfrwt>
<totfact> 0.88824274E+00</totfact>
</mgrwt>
</event>
<event>
 4    1  0.3057048E-007  0.7354849E+03  0.7818608E-02  0.9873300E-01
          2   -1    0    0  501    0  0.00000000000E+00  0.00000000000E+00  0.20044188731E+04  0.20044188731E+04  0.25500000000E-02 0. -1.
         -2   -1    0    0    0  501 -0.00000000000E+00 -0.00000000000E+00 -0.41559300997E+03  0.41559300997E+03  0.25500000000E-02 0.  1.
    8880023    1    1    2    0    0 -0.23236017480E+02  0.32647814578E+03 -0.54443994182E+02  0.73749728606E+03  0.65864270000E+03 0.  1.
    8880022    1    1    2    0    0  0.23236017480E+02 -0.32647814578E+03  0.16432698573E+04  0.16825145970E+04  0.15294330000E+03 0.  0.
<mgrwt>
<rscale>  0 0.61572925E+03</rscale>
<asrwt>0</asrwt>
<pdfrwt beam="1">  1        2 0.30837214E+00 0.73548494E+03</pdfrwt>
<pdfrwt beam="2">  1       -2 0.63937385E-01 0.73548494E+03</pdfrwt>
<totfact> 0.15581567E+01</totfact>
</mgrwt>
</event>
<event>
 4    1  0.3057048E-007  0.7069141E+03  0.7818608E-02  0.9969644E-01
         -2   -1    0    0    0  501 -0.00000000000E+00  0.00000000000E+00  0.18134087269E+03  0.18134087270E+03  0.25500000000E-02 0.  1.
          2   -1    0    0  501    0  0.00000000000E+00 -0.00000000000E+00 -0.24162386225E+04  0.24162386225E+04  0.25500000000E-02 0. -1.
    8880023    1    1    2    0    0  0.24844569433E+03 -0.64746602589E+02 -0.57568719783E+03  0.91167063218E+03  0.65864270000E+03 0.  1.
    8880022    1    1    2    0    0 -0.24844569433E+03  0.64746602589E+02 -0.16592105520E+04  0.16859088630E+04  0.15294330000E+03 0.  0.
<mgrwt>
<rscale>  0 0.57001584E+03</rscale>
<asrwt>0</asrwt>
<pdfrwt beam="1">  1        2 0.37172899E+00 0.70691413E+03</pdfrwt>
<pdfrwt beam="2">  1       -2 0.27898598E-01 0.70691413E+03</pdfrwt>
<totfact> 0.47697889E+01</totfact>
</mgrwt>
</event>
<event>
 4    1  0.3057048E-007  0.7535013E+03  0.7818608E-02  0.9822232E-01
          2   -1    0    0  501    0  0.00000000000E+00  0.00000000000E+00  0.22992378962E+04  0.22992378962E+04  0.25500000000E-02 0. -1.
         -2   -1    0    0    0  501 -0.00000000000E+00 -0.00000000000E+00 -0.18299493165E+03  0.18299493166E+03  0.25500000000E-02 0.  1.
    8880023    1    1    2    0    0 -0.36516266885E+03 -0.24701427763E+02  0.76420309385E+03  0.10732057166E+04  0.65864270000E+03 0.  0.
    8880022    1    1    2    0    0  0.36516266885E+03  0.24701427763E+02  0.13520398707E+04  0.14090271113E+04  0.15294330000E+03 0.  0.
<mgrwt>
<rscale>  0 0.64182970E+03</rscale>
<asrwt>0</asrwt>
<pdfrwt beam="1">  1        2 0.35372892E+00 0.75350126E+03</pdfrwt>
<pdfrwt beam="2">  1       -2 0.28153065E-01 0.75350126E+03</pdfrwt>
<totfact> 0.54184087E+01</totfact>
</mgrwt>
</event>
<event>
 4    1  0.3057048E-007  0.7319904E+03  0.7818608E-02  0.9883924E-01
          2   -1    0    0  501    0  0.00000000000E+00  0.00000000000E+00  0.67191380361E+03  0.67191380362E+03  0.25500000000E-02 0. -1.
         -2   -1    0    0    0  501 -0.00000000000E+00 -0.00000000000E+00 -0.76843744757E+03  0.76843744758E+03  0.25500000000E-02 0.  1.
    8880023    1    1    2    0    0 -0.26309088973E+03  0.18106043989E+03 -0.51287188158E+03  0.89378267623E+03  0.65864270000E+03 0.  1.
    8880022    1    1    2    0    0  0.26309088973E+03 -0.18106043989E+03  0.41634823762E+03  0.54656857496E+03  0.15294330000E+03 0.  0.
<mgrwt>
<rscale>  0 0.61046740E+03</rscale>
<asrwt>0</asrwt>
<pdfrwt beam="1">  1        2 0.10337136E+00 0.73199037E+03</pdfrwt>
<pdfrwt beam="2">  1       -2 0.11822114E+00 0.73199037E+03</pdfrwt>
<totfact> 0.24132650E+01</totfact>
</mgrwt>
</event>
<event>
 4    1  0.3057048E-007  0.7875449E+03  0.7818608E-02  0.9738403E-01
          2   -1    0    0  501    0  0.00000000000E+00  0.00000000000E+00  0.22286943440E+04  0.22286943440E+04  0.25500000000E-02 0. -1.
         -2   -1    0    0    0  501 -0.00000000000E+00 -0.00000000000E+00 -0.63059085496E+03  0.63059085496E+03  0.25500000000E-02 0.  1.
    8880023    1    1    2    0    0 -0.30270558875E+03  0.30787350083E+03 -0.34727225290E+03  0.86071190875E+03  0.65864270000E+03 0.  0.
    8880022    1    1    2    0    0  0.30270558875E+03 -0.30787350083E+03  0.19453757419E+04  0.19985732902E+04  0.15294330000E+03 0.  0.
<mgrwt>
<rscale>  0 0.68775595E+03</rscale>
<asrwt>0</asrwt>
<pdfrwt beam="1">  1        2 0.34287605E+00 0.78754490E+03</pdfrwt>
<pdfrwt beam="2">  1       -2 0.97013978E-01 0.78754490E+03</pdfrwt>
<totfact> 0.45710114E+00</totfact>
</mgrwt>
</event>
<event>
 4    1  0.3057048E-007  0.8732084E+03  0.7818608E-02  0.9570487E-01
         -2   -1    0    0    0  501 -0.00000000000E+00  0.00000000000E+00  0.92842891726E+03  0.92842891726E+03  0.25500000000E-02 0.  1.
          2   -1    0    0  501    0  0.00000000000E+00 -0.00000000000E+00 -0.19101187751E+04  0.19101187751E+04  0.25500000000E-02 0. -1.
    8880023    1    1    2    0    0  0.53806406286E+03  0.19791357404E+03  0.65892719064E+03  0.10939277706E+04  0.65864270000E+03 0.  1.
    8880022    1    1    2    0    0 -0.53806406286E+03 -0.19791357404E+03 -0.16406170485E+04  0.17446199218E+04  0.15294330000E+03 0.  0.
<mgrwt>
<rscale>  0 0.79280747E+03</rscale>
<asrwt>0</asrwt>
<pdfrwt beam="1">  1        2 0.29386443E+00 0.87320841E+03</pdfrwt>
<pdfrwt beam="2">  1       -2 0.14283522E+00 0.87320841E+03</pdfrwt>
<totfact> 0.25923350E+00</totfact>
</mgrwt>
</event>
<event>
 4    1  0.3057048E-007  0.6879150E+03  0.7818608E-02  0.1005160E+00
         -2   -1    0    0    0  501 -0.00000000000E+00  0.00000000000E+00  0.52868862655E+03  0.52868862656E+03  0.25500000000E-02 0.  1.
          2   -1    0    0  501    0  0.00000000000E+00 -0.00000000000E+00 -0.92749023998E+03  0.92749023998E+03  0.25500000000E-02 0. -1.
    8880023    1    1    2    0    0  0.76173695213E+02  0.18334220276E+03  0.27227049057E+03  0.73983661808E+03  0.65864270000E+03 0.  1.
    8880022    1    1    2    0    0 -0.76173695213E+02 -0.18334220276E+03 -0.67107210399E+03  0.71634224846E+03  0.15294330000E+03 0.  0.
<mgrwt>
<rscale>  0 0.53444538E+03</rscale>
<asrwt>0</asrwt>
<pdfrwt beam="1">  1        2 0.14269081E+00 0.68791497E+03</pdfrwt>
<pdfrwt beam="2">  1       -2 0.81336712E-01 0.68791497E+03</pdfrwt>
<totfact> 0.38203450E+01</totfact>
</mgrwt>
</event>
<event>
 4    1  0.3057048E-007  0.9565117E+03  0.7818608E-02  0.9440806E-01
         -2   -1    0    0    0  501 -0.00000000000E+00  0.00000000000E+00  0.10321881171E+04  0.10321881171E+04  0.25500000000E-02 0.  1.
          2   -1    0    0  501    0  0.00000000000E+00 -0.00000000000E+00 -0.11999172385E+04  0.11999172385E+04  0.25500000000E-02 0. -1.
    8880023    1    1    2    0    0  0.56680469393E+03  0.39979600450E+03  0.64429763591E+03  0.11532710246E+04  0.65864270000E+03 0.  0.
    8880022    1    1    2    0    0 -0.56680469393E+03 -0.39979600450E+03 -0.81202675728E+03  0.10788343310E+04  0.15294330000E+03 0.  0.
<mgrwt>
<rscale>  0 0.88792224E+03</rscale>
<asrwt>0</asrwt>
<pdfrwt beam="1">  1        2 0.18460265E+00 0.95651169E+03</pdfrwt>
<pdfrwt beam="2">  1       -2 0.15879817E+00 0.95651169E+03</pdfrwt>
<totfact> 0.48507049E+00</totfact>
</mgrwt>
</event>
<event>
 4    1  0.3057048E-007  0.1099890E+04  0.7818608E-02  0.9261179E-01
          2   -1    0    0  501    0  0.00000000000E+00  0.00000000000E+00  0.27414286300E+04  0.27414286300E+04  0.25500000000E-02 0. -1.
         -2   -1    0    0    0  501 -0.00000000000E+00 -0.00000000000E+00 -0.37464239029E+03  0.37464239030E+03  0.25500000000E-02 0.  1.
    8880023    1    1    2    0    0 -0.86090082753E+03  0.18654018695E+03  0.15798659482E+04  0.19250283366E+04  0.65864270000E+03 0.  0.
    8880022    1    1    2    0    0  0.86090082753E+03 -0.18654018695E+03  0.78692029153E+03  0.11910426837E+04  0.15294330000E+03 0.  0.
<mgrwt>
<rscale>  0 0.10443673E+04</rscale>
<asrwt>0</asrwt>
<pdfrwt beam="1">  1        2 0.42175825E+00 0.10998899E+04</pdfrwt>
<pdfrwt beam="2">  1       -2 0.57637292E-01 0.10998899E+04</pdfrwt>
<totfact> 0.71001106E+00</totfact>
</mgrwt>
</event>
<event>
 4    1  0.3057048E-007  0.8575909E+03  0.7818608E-02  0.9597863E-01
          2   -1    0    0  501    0  0.00000000000E+00  0.00000000000E+00  0.15476041147E+04  0.15476041147E+04  0.25500000000E-02 0. -1.
         -2   -1    0    0    0  501 -0.00000000000E+00 -0.00000000000E+00 -0.55013827365E+03  0.55013827365E+03  0.25500000000E-02 0.  1.
    8880023    1    1    2    0    0  0.50179658927E+03  0.22327574941E+03 -0.97625498616E+02  0.86312966669E+03  0.65864270000E+03 0.  0.
    8880022    1    1    2    0    0 -0.50179658927E+03 -0.22327574941E+03  0.10950913397E+04  0.12346127217E+04  0.15294330000E+03 0.  0.
<mgrwt>
<rscale>  0 0.77437763E+03</rscale>
<asrwt>0</asrwt>
<pdfrwt beam="1">  1        2 0.23809294E+00 0.85759086E+03</pdfrwt>
<pdfrwt beam="2">  1       -2 0.84636658E-01 0.85759086E+03</pdfrwt>
<totfact> 0.14692494E+01</totfact>
</mgrwt>
</event>
<event>
 4    1  0.3057048E-007  0.7671877E+03  0.7818608E-02  0.9786842E-01
          2   -1    0    0  501    0  0.00000000000E+00  0.00000000000E+00  0.26258377103E+03  0.26258377105E+03  0.25500000000E-02 0. -1.
         -2   -1    0    0    0  501 -0.00000000000E+00 -0.00000000000E+00 -0.24022415556E+04  0.24022415556E+04  0.25500000000E-02 0.  1.
    8880023    1    1    2    0    0 -0.36118288630E+03  0.15592860420E+03 -0.21060126502E+04  0.22413982904E+04  0.65864270000E+03 0.  1.
    8880022    1    1    2    0    0  0.36118288630E+03 -0.15592860420E+03 -0.33645134349E+02  0.42342703627E+03  0.15294330000E+03 0.  0.
<mgrwt>
<rscale>  0 0.66073459E+03</rscale>
<asrwt>0</asrwt>
<pdfrwt beam="1">  1        2 0.40397505E-01 0.76718773E+03</pdfrwt>
<pdfrwt beam="2">  1       -2 0.36957561E+00 0.76718773E+03</pdfrwt>
<totfact> 0.15672063E+00</totfact>
</mgrwt>
</event>
<event>
 4    1  0.3057048E-007  0.9061158E+03  0.7818608E-02  0.9516284E-01
          2   -1    0    0  501    0  0.00000000000E+00  0.00000000000E+00  0.15918378774E+04  0.15918378774E+04  0.25500000000E-02 0. -1.
         -2   -1    0    0    0  501 -0.00000000000E+00 -0.00000000000E+00 -0.57987296710E+03  0.57987296711E+03  0.25500000000E-02 0.  1.
    8880023    1    1    2    0    0  0.59542644307E+03  0.18083969627E+03 -0.75745484809E+02  0.90927621194E+03  0.65864270000E+03 0.  1.
    8880022    1    1    2    0    0 -0.59542644307E+03 -0.18083969627E+03  0.10877103951E+04  0.12624346325E+04  0.15294330000E+03 0.  0.
<mgrwt>
<rscale>  0 0.83093826E+03</rscale>
<asrwt>0</asrwt>
<pdfrwt beam="1">  1        2 0.24489813E+00 0.90611580E+03</pdfrwt>
<pdfrwt beam="2">  1       -2 0.89211226E-01 0.90611580E+03</pdfrwt>
<totfact> 0.12238395E+01</totfact>
</mgrwt>
</event>
<event>
 4    1  0.3057048E-007  0.7524376E+03  0.7818608E-02  0.9825094E-01
          2   -1    0    0  501    0  0.00000000000E+00  0.00000000000E+00  0.15170566187E+04  0.15170566187E+04  0.25500000000E-02 0. -1.
         -2   -1    0    0    0  501 -0.00000000000E+00 -0.00000000000E+00 -0.55892465143E+03  0.55892465144E+03  0.25500000000E-02 0.  1.
    8880023    1    1    2    0    0  0.18187005974E+03 -0.31508001993E+03  0.13336228821E+04  0.15312453545E+04  0.65864270000E+03 0. -1.
    8880022    1    1    2    0    0 -0.18187005974E+03  0.31508001993E+03 -0.37549091490E+03  0.54473591563E+03  0.15294330000E+03 0.  0.
<mgrwt>
<rscale>  0 0.64033053E+03</rscale>
<asrwt>0</asrwt>
<pdfrwt beam="1">  1        2 0.23339332E+00 0.75243760E+03</pdfrwt>
<pdfrwt beam="2">  1       -2 0.85988409E-01 0.75243760E+03</pdfrwt>
<totfact> 0.14923720E+01</totfact>
</mgrwt>
</event>
<event>
 4    1  0.3057048E-007  0.1125841E+04  0.7818608E-02  0.9232817E-01
         -2   -1    0    0    0  501 -0.00000000000E+00  0.00000000000E+00  0.16550844191E+04  0.16550844191E+04  0.25500000000E-02 0.  1.
          2   -1    0    0  501    0  0.00000000000E+00 -0.00000000000E+00 -0.63588621175E+03  0.63588621175E+03  0.25500000000E-02 0. -1.
    8880023    1    1    2    0    0 -0.70729986870E+03 -0.57743741435E+03  0.54604772131E+03  0.12512735081E+04  0.65864270000E+03 0.  0.
    8880022    1    1    2    0    0  0.70729986870E+03  0.57743741435E+03  0.47315048608E+03  0.10396971228E+04  0.15294330000E+03 0. -1.
<mgrwt>
<rscale>  0 0.10721031E+04</rscale>
<asrwt>0</asrwt>
<pdfrwt beam="1">  1        2 0.97828651E-01 0.11258407E+04</pdfrwt>
<pdfrwt beam="2">  1       -2 0.25462836E+00 0.11258407E+04</pdfrwt>
<totfact> 0.27429148E+00</totfact>
</mgrwt>
</event>
<event>
 4    1  0.3057048E-007  0.9272001E+03  0.7818608E-02  0.9483706E-01
          2   -1    0    0  501    0  0.00000000000E+00  0.00000000000E+00  0.10268167700E+04  0.10268167700E+04  0.25500000000E-02 0. -1.
         -2   -1    0    0    0  501 -0.00000000000E+00 -0.00000000000E+00 -0.71572957845E+03  0.71572957845E+03  0.25500000000E-02 0.  1.
    8880023    1    1    2    0    0 -0.43641493972E+03 -0.48521311338E+03 -0.13559319247E+03  0.93706215648E+03  0.65864270000E+03 0.  1.
    8880022    1    1    2    0    0  0.43641493972E+03  0.48521311338E+03  0.44668038398E+03  0.80548419193E+03  0.15294330000E+03 0.  0.
<mgrwt>
<rscale>  0 0.85495823E+03</rscale>
<asrwt>0</asrwt>
<pdfrwt beam="1">  1        2 0.15797181E+00 0.92720007E+03</pdfrwt>
<pdfrwt beam="2">  1       -2 0.11011224E+00 0.92720007E+03</pdfrwt>
<totfact> 0.15860329E+01</totfact>
</mgrwt>
</event>
<event>
 4    1  0.3057048E-007  0.7257768E+03  0.7818608E-02  0.9903503E-01
         -2   -1    0    0    0  501 -0.00000000000E+00  0.00000000000E+00  0.21096975109E+03  0.21096975110E+03  0.25500000000E-02 0.  1.
          2   -1    0    0  501    0  0.00000000000E+00 -0.00000000000E+00 -0.23566645599E+04  0.23566645600E+04  0.25500000000E-02 0. -1.
    8880023    1    1    2    0    0 -0.79612562368E+02  0.29428495776E+03 -0.48650522287E+03  0.87375015570E+03  0.65864270000E+03 0.  1.
    8880022    1    1    2    0    0  0.79612562368E+02 -0.29428495776E+03 -0.16591895860E+04  0.16938841554E+04  0.15294330000E+03 0.  0.
<mgrwt>
<rscale>  0 0.60091826E+03</rscale>
<asrwt>0</asrwt>
<pdfrwt beam="1">  1        2 0.36256376E+00 0.72577683E+03</pdfrwt>
<pdfrwt beam="2">  1       -2 0.32456886E-01 0.72577683E+03</pdfrwt>
<totfact> 0.38786597E+01</totfact>
</mgrwt>
</event>
<event>
 4    1  0.3057048E-007  0.7618013E+03  0.7818608E-02  0.9800466E-01
         -2   -1    0    0    0  501 -0.00000000000E+00  0.00000000000E+00  0.24168105347E+03  0.24168105349E+03  0.25500000000E-02 0.  1.
          2   -1    0    0  501    0  0.00000000000E+00 -0.00000000000E+00 -0.17731043638E+04  0.17731043638E+04  0.25500000000E-02 0. -1.
    8880023    1    1    2    0    0 -0.23165272278E+03 -0.30474257998E+03 -0.51936683281E+03  0.92199953217E+03  0.65864270000E+03 0.  0.
    8880022    1    1    2    0    0  0.23165272278E+03  0.30474257998E+03 -0.10120564775E+04  0.10927858851E+04  0.15294330000E+03 0.  0.
<mgrwt>
<rscale>  0 0.65337528E+03</rscale>
<asrwt>0</asrwt>
<pdfrwt beam="1">  1        2 0.27278528E+00 0.76180131E+03</pdfrwt>
<pdfrwt beam="2">  1       -2 0.37181702E-01 0.76180131E+03</pdfrwt>
<totfact> 0.62324319E+01</totfact>
</mgrwt>
</event>
<event>
 4    1  0.3057048E-007  0.7675165E+03  0.7818608E-02  0.9786023E-01
         -2   -1    0    0    0  501 -0.00000000000E+00  0.00000000000E+00  0.58082164307E+03  0.58082164308E+03  0.25500000000E-02 0.  1.
          2   -1    0    0  501    0  0.00000000000E+00 -0.00000000000E+00 -0.74625707536E+03  0.74625707536E+03  0.25500000000E-02 0. -1.
    8880023    1    1    2    0    0  0.35469425425E+03  0.17164876056E+03  0.17160740697E+03  0.78646717629E+03  0.65864270000E+03 0.  1.
    8880022    1    1    2    0    0 -0.35469425425E+03 -0.17164876056E+03 -0.33704283925E+03  0.54061154215E+03  0.15294330000E+03 0.  0.
<mgrwt>
<rscale>  0 0.66118058E+03</rscale>
<asrwt>0</asrwt>
<pdfrwt beam="1">  1        2 0.11480878E+00 0.76751646E+03</pdfrwt>
<pdfrwt beam="2">  1       -2 0.89357176E-01 0.76751646E+03</pdfrwt>
<totfact> 0.41041913E+01</totfact>
</mgrwt>
</event>
<event>
 4    1  0.3057048E-007  0.7351148E+03  0.7818608E-02  0.9874413E-01
         -2   -1    0    0    0  501 -0.00000000000E+00  0.00000000000E+00  0.94775599920E+03  0.94775599921E+03  0.25500000000E-02 0.  1.
          2   -1    0    0  501    0  0.00000000000E+00 -0.00000000000E+00 -0.34264817008E+03  0.34264817009E+03  0.25500000000E-02 0. -1.
    8880023    1    1    2    0    0 -0.13295489421E+03  0.29817192158E+03  0.23028808875E+03  0.77034168315E+03  0.65864270000E+03 0.  0.
    8880022    1    1    2    0    0  0.13295489421E+03 -0.29817192158E+03  0.37481974037E+03  0.52006248615E+03  0.15294330000E+03 0.  0.
<mgrwt>
<rscale>  0 0.61517531E+03</rscale>
<asrwt>0</asrwt>
<pdfrwt beam="1">  1        2 0.52715103E-01 0.73511476E+03</pdfrwt>
<pdfrwt beam="2">  1       -2 0.14580862E+00 0.73511476E+03</pdfrwt>
<totfact> 0.30959498E+01</totfact>
</mgrwt>
</event>
<event>
 4    1  0.3057048E-007  0.7509448E+03  0.7818608E-02  0.9829141E-01
          2   -1    0    0  501    0  0.00000000000E+00  0.00000000000E+00  0.83465240413E+03  0.83465240414E+03  0.25500000000E-02 0. -1.
         -2   -1    0    0    0  501 -0.00000000000E+00 -0.00000000000E+00 -0.81304515583E+03  0.81304515584E+03  0.25500000000E-02 0.  1.
    8880023    1    1    2    0    0 -0.31640882745E+03  0.17318573112E+03 -0.56676289535E+03  0.94081785132E+03  0.65864270000E+03 0.  1.
    8880022    1    1    2    0    0  0.31640882745E+03 -0.17318573112E+03  0.58837014365E+03  0.70687970865E+03  0.15294330000E+03 0.  0.
<mgrwt>
<rscale>  0 0.63821847E+03</rscale>
<asrwt>0</asrwt>
<pdfrwt beam="1">  1        2 0.12840806E+00 0.75094477E+03</pdfrwt>
<pdfrwt beam="2">  1       -2 0.12508387E+00 0.75094477E+03</pdfrwt>
<totfact> 0.15809714E+01</totfact>
</mgrwt>
</event>
<event>
 4    1  0.3057048E-007  0.7466882E+03  0.7818608E-02  0.9840876E-01
         -2   -1    0    0    0  501 -0.00000000000E+00  0.00000000000E+00  0.54399940523E+03  0.54399940524E+03  0.25500000000E-02 0.  1.
          2   -1    0    0  501    0  0.00000000000E+00 -0.00000000000E+00 -0.10926509673E+04  0.10926509673E+04  0.25500000000E-02 0. -1.
    8880023    1    1    2    0    0 -0.32062826558E+03 -0.14467417345E+03  0.21930888632E+03  0.77822856221E+03  0.65864270000E+03 0.  0.
    8880022    1    1    2    0    0  0.32062826558E+03  0.14467417345E+03 -0.76796044844E+03  0.85842181038E+03  0.15294330000E+03 0.  0.
<mgrwt>
<rscale>  0 0.63214280E+03</rscale>
<asrwt>0</asrwt>
<pdfrwt beam="1">  1        2 0.16810015E+00 0.74668823E+03</pdfrwt>
<pdfrwt beam="2">  1       -2 0.83692216E-01 0.74668823E+03</pdfrwt>
<totfact> 0.27964727E+01</totfact>
</mgrwt>
</event>
<event>
 4    1  0.3057048E-007  0.6643632E+03  0.7818608E-02  0.1020074E+00
          2   -1    0    0  501    0  0.00000000000E+00  0.00000000000E+00  0.18991021429E+04  0.18991021429E+04  0.25500000000E-02 0. -1.
         -2   -1    0    0    0  501 -0.00000000000E+00 -0.00000000000E+00 -0.13691055616E+03  0.13691055618E+03  0.25500000000E-02 0.  1.
    8880023    1    1    2    0    0 -0.12408552917E+02  0.86106483596E+02  0.72243772608E+03  0.98147581378E+03  0.65864270000E+03 0.  0.
    8880022    1    1    2    0    0  0.12408552917E+02 -0.86106483596E+02  0.10397538607E+04  0.10545368853E+04  0.15294330000E+03 0.  0.
<mgrwt>
<rscale>  0 0.47660021E+03</rscale>
<asrwt>0</asrwt>
<pdfrwt beam="1">  1        2 0.29216956E+00 0.66436323E+03</pdfrwt>
<pdfrwt beam="2">  1       -2 0.21063162E-01 0.66436323E+03</pdfrwt>
<totfact> 0.15271057E+02</totfact>
</mgrwt>
</event>
<event>
 4    1  0.3057048E-007  0.7594244E+03  0.7818608E-02  0.9806600E-01
         -2   -1    0    0    0  501 -0.00000000000E+00  0.00000000000E+00  0.51903782955E+03  0.51903782955E+03  0.25500000000E-02 0.  1.
          2   -1    0    0  501    0  0.00000000000E+00 -0.00000000000E+00 -0.10826756708E+04  0.10826756709E+04  0.25500000000E-02 0. -1.
    8880023    1    1    2    0    0  0.74758316365E+02 -0.37057584443E+03  0.15532463095E+03  0.77514592793E+03  0.65864270000E+03 0.  1.
    8880022    1    1    2    0    0 -0.74758316365E+02  0.37057584443E+03 -0.71896247225E+03  0.82656757247E+03  0.15294330000E+03 0. -1.
<mgrwt>
<rscale>  0 0.65009558E+03</rscale>
<asrwt>0</asrwt>
<pdfrwt beam="1">  1        2 0.16656549E+00 0.75942443E+03</pdfrwt>
<pdfrwt beam="2">  1       -2 0.79851974E-01 0.75942443E+03</pdfrwt>
<totfact> 0.31497930E+01</totfact>
</mgrwt>
</event>
<event>
 4    1  0.3057048E-007  0.7655923E+03  0.7818608E-02  0.9790839E-01
         -2   -1    0    0    0  501 -0.00000000000E+00  0.00000000000E+00  0.26247559969E+03  0.26247559971E+03  0.25500000000E-02 0.  1.
          2   -1    0    0  501    0  0.00000000000E+00 -0.00000000000E+00 -0.22269458400E+04  0.22269458400E+04  0.25500000000E-02 0. -1.
    8880023    1    1    2    0    0 -0.16170011162E+03 -0.35521046855E+03 -0.38824324942E+03  0.85840807897E+03  0.65864270000E+03 0.  1.
    8880022    1    1    2    0    0  0.16170011162E+03  0.35521046855E+03 -0.15762269909E+04  0.16310133607E+04  0.15294330000E+03 0.  0.
<mgrwt>
<rscale>  0 0.65856506E+03</rscale>
<asrwt>0</asrwt>
<pdfrwt beam="1">  1        2 0.34260704E+00 0.76559233E+03</pdfrwt>
<pdfrwt beam="2">  1       -2 0.40380863E-01 0.76559233E+03</pdfrwt>
<totfact> 0.29963017E+01</totfact>
</mgrwt>
</event>
<event>
 4    1  0.3057048E-007  0.6954261E+03  0.7818608E-02  0.1001673E+00
          2   -1    0    0  501    0  0.00000000000E+00  0.00000000000E+00  0.26547229148E+04  0.26547229148E+04  0.25500000000E-02 0. -1.
         -2   -1    0    0    0  501 -0.00000000000E+00 -0.00000000000E+00 -0.12065985681E+03  0.12065985684E+03  0.25500000000E-02 0.  1.
    8880023    1    1    2    0    0  0.20823800649E+03 -0.80275565324E+02  0.23433667749E+04  0.24443783017E+04  0.65864270000E+03 0. -1.
    8880022    1    1    2    0    0 -0.20823800649E+03  0.80275565324E+02  0.19069628308E+03  0.33100446995E+03  0.15294330000E+03 0.  0.
<mgrwt>
<rscale>  0 0.54922626E+03</rscale>
<asrwt>0</asrwt>
<pdfrwt beam="1">  1        2 0.40841890E+00 0.69542609E+03</pdfrwt>
<pdfrwt beam="2">  1       -2 0.18563056E-01 0.69542609E+03</pdfrwt>
<totfact> 0.72199104E+01</totfact>
</mgrwt>
</event>
<event>
 4    1  0.3057048E-007  0.8556510E+03  0.7818608E-02  0.9601347E-01
         -2   -1    0    0    0  501 -0.00000000000E+00  0.00000000000E+00  0.57989650344E+03  0.57989650345E+03  0.25500000000E-02 0.  1.
          2   -1    0    0  501    0  0.00000000000E+00 -0.00000000000E+00 -0.16927352030E+04  0.16927352030E+04  0.25500000000E-02 0. -1.
    8880023    1    1    2    0    0 -0.52990475381E+03 -0.13239854153E+03  0.16785026035E+03  0.87195890848E+03  0.65864270000E+03 0.  1.
    8880022    1    1    2    0    0  0.52990475381E+03  0.13239854153E+03 -0.12806889599E+04  0.14006727979E+04  0.15294330000E+03 0.  0.
<mgrwt>
<rscale>  0 0.77207105E+03</rscale>
<asrwt>0</asrwt>
<pdfrwt beam="1">  1        2 0.26042080E+00 0.85565100E+03</pdfrwt>
<pdfrwt beam="2">  1       -2 0.89214847E-01 0.85565100E+03</pdfrwt>
<totfact> 0.10826618E+01</totfact>
</mgrwt>
</event>
<event>
 4    1  0.3057048E-007  0.8185261E+03  0.7818608E-02  0.9672084E-01
          2   -1    0    0  501    0  0.00000000000E+00  0.00000000000E+00  0.50502400417E+03  0.50502400417E+03  0.25500000000E-02 0. -1.
         -2   -1    0    0    0  501 -0.00000000000E+00 -0.00000000000E+00 -0.13205495362E+04  0.13205495362E+04  0.25500000000E-02 0.  1.
    8880023    1    1    2    0    0 -0.30481814346E+03  0.37849792897E+03 -0.99227317141E+03  0.12863090747E+04  0.65864270000E+03 0.  0.
    8880022    1    1    2    0    0  0.30481814346E+03 -0.37849792897E+03  0.17674763940E+03  0.53926446561E+03  0.15294330000E+03 0.  0.
<mgrwt>
<rscale>  0 0.72703525E+03</rscale>
<asrwt>0</asrwt>
<pdfrwt beam="1">  1        2 0.77696001E-01 0.81852611E+03</pdfrwt>
<pdfrwt beam="2">  1       -2 0.20316147E+00 0.81852611E+03</pdfrwt>
<totfact> 0.78143026E+00</totfact>
</mgrwt>
</event>
<event>
 4    1  0.3057048E-007  0.1020697E+04  0.7818608E-02  0.9354967E-01
          2   -1    0    0  501    0  0.00000000000E+00  0.00000000000E+00  0.15582002582E+04  0.15582002582E+04  0.25500000000E-02 0. -1.
         -2   -1    0    0    0  501 -0.00000000000E+00 -0.00000000000E+00 -0.54319115555E+03  0.54319115555E+03  0.25500000000E-02 0.  1.
    8880023    1    1    2    0    0  0.57302905854E+03 -0.52881966347E+03  0.39876639022E+03  0.10958272577E+04  0.65864270000E+03 0.  0.
    8880022    1    1    2    0    0 -0.57302905854E+03  0.52881966347E+03  0.61624271246E+03  0.10055641561E+04  0.15294330000E+03 0.  0.
<mgrwt>
<rscale>  0 0.95876268E+03</rscale>
<asrwt>0</asrwt>
<pdfrwt beam="1">  1        2 0.23972311E+00 0.10206972E+04</pdfrwt>
<pdfrwt beam="2">  1       -2 0.83567872E-01 0.10206972E+04</pdfrwt>
<totfact> 0.14671600E+01</totfact>
</mgrwt>
</event>
<event>
 4    1  0.3057048E-007  0.1097438E+04  0.7818608E-02  0.9263913E-01
         -2   -1    0    0    0  501 -0.00000000000E+00  0.00000000000E+00  0.14127023581E+04  0.14127023581E+04  0.25500000000E-02 0.  1.
          2   -1    0    0  501    0  0.00000000000E+00 -0.00000000000E+00 -0.82194025275E+03  0.82194025276E+03  0.25500000000E-02 0. -1.
    8880023    1    1    2    0    0  0.62734744571E+03 -0.61400016084E+03  0.75033552295E+03  0.13294264246E+04  0.65864270000E+03 0.  0.
    8880022    1    1    2    0    0 -0.62734744571E+03  0.61400016084E+03 -0.15957341765E+03  0.90521618622E+03  0.15294330000E+03 0.  0.
<mgrwt>
<rscale>  0 0.10417403E+04</rscale>
<asrwt>0</asrwt>
<pdfrwt beam="1">  1        2 0.12645235E+00 0.10974385E+04</pdfrwt>
<pdfrwt beam="2">  1       -2 0.21733882E+00 0.10974385E+04</pdfrwt>
<totfact> 0.33596127E+00</totfact>
</mgrwt>
</event>
<event>
 4    1  0.3057048E-007  0.6618297E+03  0.7818608E-02  0.1022356E+00
          2   -1    0    0  501    0  0.00000000000E+00  0.00000000000E+00  0.69723544998E+03  0.69723544998E+03  0.25500000000E-02 0. -1.
         -2   -1    0    0    0  501 -0.00000000000E+00 -0.00000000000E+00 -0.25345558352E+03  0.25345558353E+03  0.25500000000E-02 0.  1.
    8880023    1    1    2    0    0 -0.62217678655E+02 -0.18364888596E+02  0.28399362904E+03  0.72018809784E+03  0.65864270000E+03 0.  1.
    8880022    1    1    2    0    0  0.62217678655E+02  0.18364888596E+02  0.15978623742E+03  0.23050293567E+03  0.15294330000E+03 0. -1.
<mgrwt>
<rscale>  0 0.46846078E+03</rscale>
<asrwt>0</asrwt>
<pdfrwt beam="1">  1        2 0.10726699E+00 0.66182967E+03</pdfrwt>
<pdfrwt beam="2">  1       -2 0.38993167E-01 0.66182967E+03</pdfrwt>
<totfact> 0.25911584E+02</totfact>
</mgrwt>
</event>
<event>
 4    1  0.3057048E-007  0.1025164E+04  0.7818608E-02  0.9349351E-01
         -2   -1    0    0    0  501 -0.00000000000E+00  0.00000000000E+00  0.17304258308E+04  0.17304258308E+04  0.25500000000E-02 0.  1.
          2   -1    0    0  501    0  0.00000000000E+00 -0.00000000000E+00 -0.48574559826E+03  0.48574559827E+03  0.25500000000E-02 0. -1.
    8880023    1    1    2    0    0 -0.65274239621E+02  0.78287317509E+03  0.80171153619E+03  0.13014233470E+04  0.65864270000E+03 0.  1.
    8880022    1    1    2    0    0  0.65274239621E+02 -0.78287317509E+03  0.44296869632E+03  0.91474808202E+03  0.15294330000E+03 0. -1.
<mgrwt>
<rscale>  0 0.96363718E+03</rscale>
<asrwt>0</asrwt>
<pdfrwt beam="1">  1        2 0.74730094E-01 0.10251641E+04</pdfrwt>
<pdfrwt beam="2">  1       -2 0.26621935E+00 0.10251641E+04</pdfrwt>
<totfact> 0.32543600E+00</totfact>
</mgrwt>
</event>
<event>
 4    1  0.3057048E-007  0.7294307E+03  0.7818608E-02  0.9891879E-01
          2   -1    0    0  501    0  0.00000000000E+00  0.00000000000E+00  0.15697809716E+04  0.15697809716E+04  0.25500000000E-02 0. -1.
         -2   -1    0    0    0  501 -0.00000000000E+00 -0.00000000000E+00 -0.23885919275E+03  0.23885919277E+03  0.25500000000E-02 0.  1.
    8880023    1    1    2    0    0  0.31075441772E+03 -0.41117159796E+02  0.43995972829E+03  0.85184135714E+03  0.65864270000E+03 0.  1.
    8880022    1    1    2    0    0 -0.31075441772E+03  0.41117159796E+02  0.89096205057E+03  0.95679880724E+03  0.15294330000E+03 0.  0.
<mgrwt>
<rscale>  0 0.60656493E+03</rscale>
<asrwt>0</asrwt>
<pdfrwt beam="1">  1        2 0.24150476E+00 0.72943069E+03</pdfrwt>
<pdfrwt beam="2">  1       -2 0.36747569E-01 0.72943069E+03</pdfrwt>
<totfact> 0.82683679E+01</totfact>
</mgrwt>
</event>
<event>
 4    1  0.3057048E-007  0.6940875E+03  0.7818608E-02  0.1002267E+00
          2   -1    0    0  501    0  0.00000000000E+00  0.00000000000E+00  0.15560204837E+04  0.15560204837E+04  0.25500000000E-02 0. -1.
         -2   -1    0    0    0  501 -0.00000000000E+00 -0.00000000000E+00 -0.18772635693E+03  0.18772635695E+03  0.25500000000E-02 0.  1.
    8880023    1    1    2    0    0 -0.71627273631E+02 -0.20692226393E+03  0.55802010799E+03  0.89058628825E+03  0.65864270000E+03 0.  1.
    8880022    1    1    2    0    0  0.71627273631E+02  0.20692226393E+03  0.81027401882E+03  0.85316055244E+03  0.15294330000E+03 0.  0.
<mgrwt>
<rscale>  0 0.54667160E+03</rscale>
<asrwt>0</asrwt>
<pdfrwt beam="1">  1        2 0.23938777E+00 0.69408753E+03</pdfrwt>
<pdfrwt beam="2">  1       -2 0.28880978E-01 0.69408753E+03</pdfrwt>
<totfact> 0.13280286E+02</totfact>
</mgrwt>
</event>
<event>
 4    1  0.3057048E-007  0.8644779E+03  0.7818608E-02  0.9585647E-01
         -2   -1    0    0    0  501 -0.00000000000E+00  0.00000000000E+00  0.10206347141E+04  0.10206347141E+04  0.25500000000E-02 0.  1.
          2   -1    0    0  501    0  0.00000000000E+00 -0.00000000000E+00 -0.76276050067E+03  0.76276050067E+03  0.25500000000E-02 0. -1.
    8880023    1    1    2    0    0  0.45411337802E+03  0.32755595577E+03  0.65115043000E+03  0.10822748972E+04  0.65864270000E+03 0.  0.
    8880022    1    1    2    0    0 -0.45411337802E+03 -0.32755595577E+03 -0.39327621657E+03  0.70112031762E+03  0.15294330000E+03 0.  0.
<mgrwt>
<rscale>  0 0.78253473E+03</rscale>
<asrwt>0</asrwt>
<pdfrwt beam="1">  1        2 0.11734777E+00 0.86447792E+03</pdfrwt>
<pdfrwt beam="2">  1       -2 0.15702073E+00 0.86447792E+03</pdfrwt>
<totfact> 0.97659037E+00</totfact>
</mgrwt>
</event>
<event>
 4    1  0.3057048E-007  0.7219855E+03  0.7818608E-02  0.9915924E-01
          2   -1    0    0  501    0  0.00000000000E+00  0.00000000000E+00  0.22499164188E+04  0.22499164188E+04  0.25500000000E-02 0. -1.
         -2   -1    0    0    0  501 -0.00000000000E+00 -0.00000000000E+00 -0.32712205413E+03  0.32712205414E+03  0.25500000000E-02 0.  1.
    8880023    1    1    2    0    0 -0.28978687805E+03 -0.58961545578E+02  0.10568385646E+03  0.72967950658E+03  0.65864270000E+03 0.  1.
    8880022    1    1    2    0    0  0.28978687805E+03  0.58961545578E+02  0.18171105082E+04  0.18473589663E+04  0.15294330000E+03 0.  0.
<mgrwt>
<rscale>  0 0.59495712E+03</rscale>
<asrwt>0</asrwt>
<pdfrwt beam="1">  1        2 0.34614099E+00 0.72198553E+03</pdfrwt>
<pdfrwt beam="2">  1       -2 0.50326469E-01 0.72198553E+03</pdfrwt>
<totfact> 0.18872686E+01</totfact>
</mgrwt>
</event>
<event>
 4    1  0.3057048E-007  0.6865114E+03  0.7818608E-02  0.1005857E+00
          2   -1    0    0  501    0  0.00000000000E+00  0.00000000000E+00  0.27166198719E+03  0.27166198720E+03  0.25500000000E-02 0. -1.
         -2   -1    0    0    0  501 -0.00000000000E+00 -0.00000000000E+00 -0.91987087172E+03  0.91987087172E+03  0.25500000000E-02 0.  1.
    8880023    1    1    2    0    0 -0.15493087025E+03 -0.11612107871E+03 -0.64910518677E+03  0.94479385542E+03  0.65864270000E+03 0.  1.
    8880022    1    1    2    0    0  0.15493087025E+03  0.11612107871E+03  0.89630223560E+00  0.24673900350E+03  0.15294330000E+03 0.  0.
<mgrwt>
<rscale>  0 0.53155052E+03</rscale>
<asrwt>0</asrwt>
<pdfrwt beam="1">  1        2 0.41794152E-01 0.68651139E+03</pdfrwt>
<pdfrwt beam="2">  1       -2 0.14151859E+00 0.68651139E+03</pdfrwt>
<totfact> 0.43467870E+01</totfact>
</mgrwt>
</event>
<event>
 4    1  0.3057048E-007  0.6695510E+03  0.7818608E-02  0.1015987E+00
         -2   -1    0    0    0  501 -0.00000000000E+00  0.00000000000E+00  0.16720277930E+03  0.16720277932E+03  0.25500000000E-02 0.  1.
          2   -1    0    0  501    0  0.00000000000E+00 -0.00000000000E+00 -0.12266233852E+04  0.12266233852E+04  0.25500000000E-02 0. -1.
    8880023    1    1    2    0    0  0.10817676877E+03  0.52784339949E+02 -0.61699931949E+03  0.91048710390E+03  0.65864270000E+03 0.  1.
    8880022    1    1    2    0    0 -0.10817676877E+03 -0.52784339949E+02 -0.44242128636E+03  0.48333906058E+03  0.15294330000E+03 0. -1.
<mgrwt>
<rscale>  0 0.49163081E+03</rscale>
<asrwt>0</asrwt>
<pdfrwt beam="1">  1        2 0.18871128E+00 0.66955105E+03</pdfrwt>
<pdfrwt beam="2">  1       -2 0.25723505E-01 0.66955105E+03</pdfrwt>
<totfact> 0.25246371E+02</totfact>
</mgrwt>
</event>
<event>
 4    1  0.3145945E-007  0.8236007E+03  0.7818608E-02  0.9661914E-01
         -2   -1    0    0    0  501 -0.00000000000E+00  0.00000000000E+00  0.18638856905E+04  0.18638856905E+04  0.25500000000E-02 0.  1.
          2   -1    0    0  501    0  0.00000000000E+00 -0.00000000000E+00 -0.10051035931E+04  0.10051035931E+04  0.25500000000E-02 0. -1.
    8880023    1    1    2    0    0 -0.30177016831E+03  0.39171749989E+03  0.16955975808E+04  0.18850382480E+04  0.65864270000E+03 0.  1.
    8880022    1    1    2    0    0  0.30177016831E+03 -0.39171749989E+03 -0.83681548343E+03  0.98395103563E+03  0.15294330000E+03 0.  0.
<mgrwt>
<rscale>  0 0.73330391E+03</rscale>
<asrwt>0</asrwt>
<pdfrwt beam="1">  1        2 0.15463132E+00 0.82360066E+03</pdfrwt>
<pdfrwt beam="2">  1       -2 0.28675165E+00 0.82360066E+03</pdfrwt>
<totfact> 0.98563616E-01</totfact>
</mgrwt>
</event>
<event>
 4    1  0.3057048E-007  0.6724883E+03  0.7818608E-02  0.1013939E+00
          2   -1    0    0  501    0  0.00000000000E+00  0.00000000000E+00  0.14117145677E+04  0.14117145677E+04  0.25500000000E-02 0. -1.
         -2   -1    0    0    0  501 -0.00000000000E+00 -0.00000000000E+00 -0.31473777884E+03  0.31473777885E+03  0.25500000000E-02 0.  1.
    8880023    1    1    2    0    0 -0.13319505646E+03 -0.26254867478E+02  0.66374460229E+02  0.67575588519E+03  0.65864270000E+03 0.  1.
    8880022    1    1    2    0    0  0.13319505646E+03  0.26254867478E+02  0.10306023286E+04  0.10506964614E+04  0.15294330000E+03 0.  0.
<mgrwt>
<rscale>  0 0.49938902E+03</rscale>
<asrwt>0</asrwt>
<pdfrwt beam="1">  1        2 0.21718685E+00 0.67248825E+03</pdfrwt>
<pdfrwt beam="2">  1       -2 0.48421197E-01 0.67248825E+03</pdfrwt>
<totfact> 0.59180917E+01</totfact>
</mgrwt>
</event>
<event>
 4    1  0.3057048E-007  0.1190789E+04  0.7818608E-02  0.9166128E-01
         -2   -1    0    0    0  501 -0.00000000000E+00  0.00000000000E+00  0.12324032211E+04  0.12324032211E+04  0.25500000000E-02 0.  1.
          2   -1    0    0  501    0  0.00000000000E+00 -0.00000000000E+00 -0.11046452736E+04  0.11046452736E+04  0.25500000000E-02 0. -1.
    8880023    1    1    2    0    0 -0.68950054275E+03 -0.71327263928E+03  0.46467372336E+03  0.12782412651E+04  0.65864270000E+03 0.  1.
    8880022    1    1    2    0    0  0.68950054275E+03  0.71327263928E+03 -0.33691577582E+03  0.10588072296E+04  0.15294330000E+03 0.  0.
<mgrwt>
<rscale>  0 0.11409985E+04</rscale>
<asrwt>0</asrwt>
<pdfrwt beam="1">  1        2 0.16994543E+00 0.11907893E+04</pdfrwt>
<pdfrwt beam="2">  1       -2 0.18960050E+00 0.11907893E+04</pdfrwt>
<totfact> 0.32830962E+00</totfact>
</mgrwt>
</event>
<event>
 4    1  0.3057048E-007  0.7006370E+03  0.7818608E-02  0.9994569E-01
         -2   -1    0    0    0  501 -0.00000000000E+00  0.00000000000E+00  0.38581210577E+03  0.38581210578E+03  0.25500000000E-02 0.  1.
          2   -1    0    0  501    0  0.00000000000E+00 -0.00000000000E+00 -0.12220610115E+04  0.12220610115E+04  0.25500000000E-02 0. -1.
    8880023    1    1    2    0    0  0.10233221008E+03 -0.21589377079E+03  0.25025289624E+02  0.70108378449E+03  0.65864270000E+03 0.  0.
    8880022    1    1    2    0    0 -0.10233221008E+03  0.21589377079E+03 -0.86127419539E+03  0.90678933284E+03  0.15294330000E+03 0.  0.
<mgrwt>
<rscale>  0 0.55889023E+03</rscale>
<asrwt>0</asrwt>
<pdfrwt beam="1">  1        2 0.18800938E+00 0.70063700E+03</pdfrwt>
<pdfrwt beam="2">  1       -2 0.59355709E-01 0.70063700E+03</pdfrwt>
<totfact> 0.49807977E+01</totfact>
</mgrwt>
</event>
<event>
 4    1  0.3057048E-007  0.7372490E+03  0.7818608E-02  0.9868034E-01
          2   -1    0    0  501    0  0.00000000000E+00  0.00000000000E+00  0.13604044598E+04  0.13604044598E+04  0.25500000000E-02 0. -1.
         -2   -1    0    0    0  501 -0.00000000000E+00 -0.00000000000E+00 -0.29179609421E+03  0.29179609422E+03  0.25500000000E-02 0.  1.
    8880023    1    1    2    0    0  0.32599673591E+03  0.58753704072E+02  0.28979258447E+03  0.79215895996E+03  0.65864270000E+03 0. -1.
    8880022    1    1    2    0    0 -0.32599673591E+03 -0.58753704072E+02  0.77881578110E+03  0.86004159404E+03  0.15294330000E+03 0.  0.
<mgrwt>
<rscale>  0 0.61835809E+03</rscale>
<asrwt>0</asrwt>
<pdfrwt beam="1">  1        2 0.20929299E+00 0.73724899E+03</pdfrwt>
<pdfrwt beam="2">  1       -2 0.44891708E-01 0.73724899E+03</pdfrwt>
<totfact> 0.73158647E+01</totfact>
</mgrwt>
</event>
<event>
 4    1  0.3057048E-007  0.7590312E+03  0.7818608E-02  0.9807622E-01
          2   -1    0    0  501    0  0.00000000000E+00  0.00000000000E+00  0.23554799374E+04  0.23554799374E+04  0.25500000000E-02 0. -1.
         -2   -1    0    0    0  501 -0.00000000000E+00 -0.00000000000E+00 -0.20476207161E+03  0.20476207163E+03  0.25500000000E-02 0.  1.
    8880023    1    1    2    0    0  0.27287398594E+03  0.26049555160E+03  0.63134412243E+03  0.98728098928E+03  0.65864270000E+03 0.  0.
    8880022    1    1    2    0    0 -0.27287398594E+03 -0.26049555160E+03  0.15193737434E+04  0.15729610198E+04  0.15294330000E+03 0.  0.
<mgrwt>
<rscale>  0 0.64955098E+03</rscale>
<asrwt>0</asrwt>
<pdfrwt beam="1">  1        2 0.36238154E+00 0.75903119E+03</pdfrwt>
<pdfrwt beam="2">  1       -2 0.31501856E-01 0.75903119E+03</pdfrwt>
<totfact> 0.40899976E+01</totfact>
</mgrwt>
</event>
<event>
 4    1  0.3057048E-007  0.1047693E+04  0.7818608E-02  0.9321660E-01
          2   -1    0    0  501    0  0.00000000000E+00  0.00000000000E+00  0.21678278550E+04  0.21678278550E+04  0.25500000000E-02 0. -1.
         -2   -1    0    0    0  501 -0.00000000000E+00 -0.00000000000E+00 -0.68981789440E+03  0.68981789441E+03  0.25500000000E-02 0.  1.
    8880023    1    1    2    0    0  0.25049830937E+03  0.77530730218E+03 -0.12285032347E+03  0.10548711884E+04  0.65864270000E+03 0.  1.
    8880022    1    1    2    0    0 -0.25049830937E+03 -0.77530730218E+03  0.16008602841E+04  0.18027745610E+04  0.15294330000E+03 0.  0.
<mgrwt>
<rscale>  0 0.98813058E+03</rscale>
<asrwt>0</asrwt>
<pdfrwt beam="1">  1        2 0.33351197E+00 0.10476932E+04</pdfrwt>
<pdfrwt beam="2">  1       -2 0.10612583E+00 0.10476932E+04</pdfrwt>
<totfact> 0.38430941E+00</totfact>
</mgrwt>
</event>
<event>
 4    1  0.3057048E-007  0.6787167E+03  0.7818608E-02  0.1010059E+00
          2   -1    0    0  501    0  0.00000000000E+00  0.00000000000E+00  0.25147601048E+03  0.25147601049E+03  0.25500000000E-02 0. -1.
         -2   -1    0    0    0  501 -0.00000000000E+00 -0.00000000000E+00 -0.10948476163E+04  0.10948476163E+04  0.25500000000E-02 0.  1.
    8880023    1    1    2    0    0  0.16349181715E+03  0.10799286300E+02 -0.88811054418E+03  0.11177641718E+04  0.65864270000E+03 0.  1.
    8880022    1    1    2    0    0 -0.16349181715E+03 -0.10799286300E+02  0.44738938323E+02  0.22855945501E+03  0.15294330000E+03 0.  0.
<mgrwt>
<rscale>  0 0.51451175E+03</rscale>
<asrwt>0</asrwt>
<pdfrwt beam="1">  1        2 0.38688617E-01 0.67871673E+03</pdfrwt>
<pdfrwt beam="2">  1       -2 0.16843809E+00 0.67871673E+03</pdfrwt>
<totfact> 0.29763904E+01</totfact>
</mgrwt>
</event>
<event>
 4    1  0.3057048E-007  0.1296383E+04  0.7818608E-02  0.9068689E-01
         -2   -1    0    0    0  501 -0.00000000000E+00  0.00000000000E+00  0.60097837091E+03  0.60097837092E+03  0.25500000000E-02 0.  1.
          2   -1    0    0  501    0  0.00000000000E+00 -0.00000000000E+00 -0.43684146338E+04  0.43684146338E+04  0.25500000000E-02 0. -1.
    8880023    1    1    2    0    0  0.95368340616E+03  0.58076477753E+03 -0.31004105590E+03  0.13329423951E+04  0.65864270000E+03 0.  0.
    8880022    1    1    2    0    0 -0.95368340616E+03 -0.58076477753E+03 -0.34573952070E+04  0.36364506097E+04  0.15294330000E+03 0.  0.
<mgrwt>
<rscale>  0 0.12517965E+04</rscale>
<asrwt>0</asrwt>
<pdfrwt beam="1">  1        2 0.67206377E+00 0.12963834E+04</pdfrwt>
<pdfrwt beam="2">  1       -2 0.92458214E-01 0.12963834E+04</pdfrwt>
<totfact> 0.16462951E-01</totfact>
</mgrwt>
</event>
<event>
 4    1  0.3057048E-007  0.1024438E+04  0.7818608E-02  0.9350261E-01
         -2   -1    0    0    0  501 -0.00000000000E+00  0.00000000000E+00  0.11644706732E+04  0.11644706732E+04  0.25500000000E-02 0.  1.
          2   -1    0    0  501    0  0.00000000000E+00 -0.00000000000E+00 -0.18025342567E+04  0.18025342567E+04  0.25500000000E-02 0. -1.
    8880023    1    1    2    0    0 -0.69114756985E+03 -0.37145381995E+03 -0.14839031367E+04  0.18031754293E+04  0.65864270000E+03 0. -1.
    8880022    1    1    2    0    0  0.69114756985E+03  0.37145381995E+03  0.84583955313E+03  0.11638295005E+04  0.15294330000E+03 0.  0.
<mgrwt>
<rscale>  0 0.96284523E+03</rscale>
<asrwt>0</asrwt>
<pdfrwt beam="1">  1        2 0.27731296E+00 0.10244379E+04</pdfrwt>
<pdfrwt beam="2">  1       -2 0.17914934E+00 0.10244379E+04</pdfrwt>
<totfact> 0.15683377E+00</totfact>
</mgrwt>
</event>
<event>
 4    1  0.3057048E-007  0.7497443E+03  0.7818608E-02  0.9832421E-01
          2   -1    0    0  501    0  0.00000000000E+00  0.00000000000E+00  0.16223140619E+04  0.16223140619E+04  0.25500000000E-02 0. -1.
         -2   -1    0    0    0  501 -0.00000000000E+00 -0.00000000000E+00 -0.24482625987E+03  0.24482625988E+03  0.25500000000E-02 0.  1.
    8880023    1    1    2    0    0  0.24271672753E+03  0.26342920920E+03  0.48385489625E+03  0.89231839887E+03  0.65864270000E+03 0.  1.
    8880022    1    1    2    0    0 -0.24271672753E+03 -0.26342920920E+03  0.89363290579E+03  0.97482192292E+03  0.15294330000E+03 0. -1.
<mgrwt>
<rscale>  0 0.63651315E+03</rscale>
<asrwt>0</asrwt>
<pdfrwt beam="1">  1        2 0.24958678E+00 0.74974433E+03</pdfrwt>
<pdfrwt beam="2">  1       -2 0.37665578E-01 0.74974433E+03</pdfrwt>
<totfact> 0.73615726E+01</totfact>
</mgrwt>
</event>
<event>
 4    1  0.3057048E-007  0.7273171E+03  0.7818608E-02  0.9898563E-01
         -2   -1    0    0    0  501 -0.00000000000E+00  0.00000000000E+00  0.14005145336E+04  0.14005145336E+04  0.25500000000E-02 0.  1.
          2   -1    0    0  501    0  0.00000000000E+00 -0.00000000000E+00 -0.52644623720E+03  0.52644623721E+03  0.25500000000E-02 0. -1.
    8880023    1    1    2    0    0  0.63125137998E+02  0.30198531562E+03  0.12317572377E+04  0.14304600703E+04  0.65864270000E+03 0.  1.
    8880022    1    1    2    0    0 -0.63125137998E+02 -0.30198531562E+03 -0.35768894127E+03  0.49650070052E+03  0.15294330000E+03 0.  0.
<mgrwt>
<rscale>  0 0.60330984E+03</rscale>
<asrwt>0</asrwt>
<pdfrwt beam="1">  1        2 0.80991728E-01 0.72731707E+03</pdfrwt>
<pdfrwt beam="2">  1       -2 0.21546378E+00 0.72731707E+03</pdfrwt>
<totfact> 0.62769279E+00</totfact>
</mgrwt>
</event>
<event>
 4    1  0.3057048E-007  0.7353017E+03  0.7818608E-02  0.9873850E-01
          2   -1    0    0  501    0  0.00000000000E+00  0.00000000000E+00  0.22118177176E+04  0.22118177176E+04  0.25500000000E-02 0. -1.
         -2   -1    0    0    0  501 -0.00000000000E+00 -0.00000000000E+00 -0.17873206808E+03  0.17873206809E+03  0.25500000000E-02 0.  1.
    8880023    1    1    2    0    0 -0.22050926679E+03 -0.24131743746E+03  0.72128870803E+03  0.10300126450E+04  0.65864270000E+03 0.  0.
    8880022    1    1    2    0    0  0.22050926679E+03  0.24131743746E+03  0.13117969415E+04  0.13605371407E+04  0.15294330000E+03 0.  0.
<mgrwt>
<rscale>  0 0.61545521E+03</rscale>
<asrwt>0</asrwt>
<pdfrwt beam="1">  1        2 0.34027964E+00 0.73530174E+03</pdfrwt>
<pdfrwt beam="2">  1       -2 0.27497242E-01 0.73530174E+03</pdfrwt>
<totfact> 0.63386696E+01</totfact>
</mgrwt>
</event>
<event>
 4    1  0.3640233E-007  0.1000563E+04  0.7818608E-02  0.9380822E-01
          2   -1    0    0  501    0  0.00000000000E+00  0.00000000000E+00  0.13787737378E+04  0.13787737378E+04  0.25500000000E-02 0. -1.
         -2   -1    0    0    0  501 -0.00000000000E+00 -0.00000000000E+00 -0.16598372273E+04  0.16598372273E+04  0.25500000000E-02 0.  1.
    8880023    1    1    2    0    0 -0.33859915283E+03 -0.67280474307E+03 -0.13757115477E+04  0.17010902613E+04  0.65864270000E+03 0.  1.
    8880022    1    1    2    0    0  0.33859915283E+03  0.67280474307E+03  0.10946480582E+04  0.13375207037E+04  0.15294330000E+03 0.  0.
<mgrwt>
<rscale>  0 0.93670920E+03</rscale>
<asrwt>0</asrwt>
<pdfrwt beam="1">  1        2 0.21211904E+00 0.10005627E+04</pdfrwt>
<pdfrwt beam="2">  1       -2 0.25535957E+00 0.10005627E+04</pdfrwt>
<totfact> 0.88487408E-01</totfact>
</mgrwt>
</event>
<event>
 4    1  0.3057048E-007  0.1238321E+04  0.7818608E-02  0.9120743E-01
         -2   -1    0    0    0  501 -0.00000000000E+00  0.00000000000E+00  0.67875106554E+03  0.67875106554E+03  0.25500000000E-02 0.  1.
          2   -1    0    0  501    0  0.00000000000E+00 -0.00000000000E+00 -0.23055725284E+04  0.23055725284E+04  0.25500000000E-02 0. -1.
    8880023    1    1    2    0    0  0.10181809386E+04  0.25086974019E+03 -0.14552323794E+04  0.19107955240E+04  0.65864270000E+03 0.  0.
    8880022    1    1    2    0    0 -0.10181809386E+04 -0.25086974019E+03 -0.17158908345E+03  0.10735280699E+04  0.15294330000E+03 0.  0.
<mgrwt>
<rscale>  0 0.11910316E+04</rscale>
<asrwt>0</asrwt>
<pdfrwt beam="1">  1        2 0.35470346E+00 0.12383207E+04</pdfrwt>
<pdfrwt beam="2">  1       -2 0.10442324E+00 0.12383207E+04</pdfrwt>
<totfact> 0.32739661E+00</totfact>
</mgrwt>
</event>
<event>
 4    1  0.3057048E-007  0.8481840E+03  0.7818608E-02  0.9614938E-01
         -2   -1    0    0    0  501 -0.00000000000E+00  0.00000000000E+00  0.56927127200E+03  0.56927127201E+03  0.25500000000E-02 0.  1.
          2   -1    0    0  501    0  0.00000000000E+00 -0.00000000000E+00 -0.10263406091E+04  0.10263406091E+04  0.25500000000E-02 0. -1.
    8880023    1    1    2    0    0  0.20735591779E+03 -0.49255396792E+03  0.41092070204E+02  0.84917881065E+03  0.65864270000E+03 0. -1.
    8880022    1    1    2    0    0 -0.20735591779E+03  0.49255396792E+03 -0.49816140732E+03  0.74643307049E+03  0.15294330000E+03 0.  0.
<mgrwt>
<rscale>  0 0.76315356E+03</rscale>
<asrwt>0</asrwt>
<pdfrwt beam="1">  1        2 0.15789856E+00 0.84818400E+03</pdfrwt>
<pdfrwt beam="2">  1       -2 0.87580195E-01 0.84818400E+03</pdfrwt>
<totfact> 0.27462500E+01</totfact>
</mgrwt>
</event>
<event>
 4    1  0.3057048E-007  0.7238637E+03  0.7818608E-02  0.9909723E-01
         -2   -1    0    0    0  501 -0.00000000000E+00  0.00000000000E+00  0.72097174838E+03  0.72097174839E+03  0.25500000000E-02 0.  1.
          2   -1    0    0  501    0  0.00000000000E+00 -0.00000000000E+00 -0.47023785528E+03  0.47023785529E+03  0.25500000000E-02 0. -1.
    8880023    1    1    2    0    0 -0.25253535326E+03 -0.16246349164E+03  0.39501971980E+03  0.82463281286E+03  0.65864270000E+03 0.  1.
    8880022    1    1    2    0    0  0.25253535326E+03  0.16246349164E+03 -0.14428582670E+03  0.36657679081E+03  0.15294330000E+03 0.  0.
<mgrwt>
<rscale>  0 0.59792382E+03</rscale>
<asrwt>0</asrwt>
<pdfrwt beam="1">  1        2 0.72344286E-01 0.72386373E+03</pdfrwt>
<pdfrwt beam="2">  1       -2 0.11091873E+00 0.72386373E+03</pdfrwt>
<totfact> 0.43151879E+01</totfact>
</mgrwt>
</event>
<event>
 4    1  0.3057048E-007  0.9608933E+03  0.7818608E-02  0.9434611E-01
         -2   -1    0    0    0  501 -0.00000000000E+00  0.00000000000E+00  0.56859577937E+03  0.56859577938E+03  0.25500000000E-02 0.  1.
          2   -1    0    0  501    0  0.00000000000E+00 -0.00000000000E+00 -0.18175993462E+04  0.18175993462E+04  0.25500000000E-02 0. -1.
    8880023    1    1    2    0    0  0.58107381858E+03 -0.38969094647E+03 -0.13561407896E+04  0.16620571181E+04  0.65864270000E+03 0.  0.
    8880022    1    1    2    0    0 -0.58107381858E+03  0.38969094647E+03  0.10713722273E+03  0.72413800750E+03  0.15294330000E+03 0.  0.
<mgrwt>
<rscale>  0 0.89281239E+03</rscale>
<asrwt>0</asrwt>
<pdfrwt beam="1">  1        2 0.27963067E+00 0.96089335E+03</pdfrwt>
<pdfrwt beam="2">  1       -2 0.87476275E-01 0.96089335E+03</pdfrwt>
<totfact> 0.95543731E+00</totfact>
</mgrwt>
</event>
<event>
 4    1  0.3057048E-007  0.9405516E+03  0.7818608E-02  0.9463841E-01
          2   -1    0    0  501    0  0.00000000000E+00  0.00000000000E+00  0.16350702836E+04  0.16350702836E+04  0.25500000000E-02 0. -1.
         -2   -1    0    0    0  501 -0.00000000000E+00 -0.00000000000E+00 -0.97578845447E+03  0.97578845448E+03  0.25500000000E-02 0.  1.
    8880023    1    1    2    0    0 -0.67142600871E+03  0.37606033782E+01 -0.64187960364E+03  0.11387039383E+04  0.65864270000E+03 0.  1.
    8880022    1    1    2    0    0  0.67142600871E+03 -0.37606033782E+01  0.13011614327E+04  0.14721547997E+04  0.15294330000E+03 0.  0.
<mgrwt>
<rscale>  0 0.87003012E+03</rscale>
<asrwt>0</asrwt>
<pdfrwt beam="1">  1        2 0.25154927E+00 0.94055156E+03</pdfrwt>
<pdfrwt beam="2">  1       -2 0.15012130E+00 0.94055156E+03</pdfrwt>
<totfact> 0.31907604E+00</totfact>
</mgrwt>
</event>
<event>
 4    1  0.3057048E-007  0.8136306E+03  0.7818608E-02  0.9682064E-01
          2   -1    0    0  501    0  0.00000000000E+00  0.00000000000E+00  0.12229133184E+04  0.12229133184E+04  0.25500000000E-02 0. -1.
         -2   -1    0    0    0  501 -0.00000000000E+00 -0.00000000000E+00 -0.76589929875E+03  0.76589929875E+03  0.25500000000E-02 0.  1.
    8880023    1    1    2    0    0  0.51233069380E+02 -0.47493127026E+03 -0.46650247455E+03  0.93788021831E+03  0.65864270000E+03 0.  1.
    8880022    1    1    2    0    0 -0.51233069380E+02  0.47493127026E+03  0.92351649418E+03  0.10509323988E+04  0.15294330000E+03 0. -1.
<mgrwt>
<rscale>  0 0.72094834E+03</rscale>
<asrwt>0</asrwt>
<pdfrwt beam="1">  1        2 0.18814051E+00 0.81363060E+03</pdfrwt>
<pdfrwt beam="2">  1       -2 0.11783066E+00 0.81363060E+03</pdfrwt>
<totfact> 0.10321764E+01</totfact>
</mgrwt>
</event>
<event>
 4    1  0.3057048E-007  0.7323830E+03  0.7818608E-02  0.9882717E-01
          2   -1    0    0  501    0  0.00000000000E+00  0.00000000000E+00  0.28541079696E+04  0.28541079696E+04  0.25500000000E-02 0. -1.
         -2   -1    0    0    0  501 -0.00000000000E+00 -0.00000000000E+00 -0.38891411182E+03  0.38891411183E+03  0.25500000000E-02 0.  1.
    8880023    1    1    2    0    0 -0.29024590135E+03  0.13539569052E+03 -0.19957470128E+02  0.73265488679E+03  0.65864270000E+03 0.  1.
    8880022    1    1    2    0    0  0.29024590135E+03 -0.13539569052E+03  0.24851513279E+04  0.25103671946E+04  0.15294330000E+03 0.  0.
<mgrwt>
<rscale>  0 0.61106232E+03</rscale>
<asrwt>0</asrwt>
<pdfrwt beam="1">  1        2 0.43909351E+00 0.73238302E+03</pdfrwt>
<pdfrwt beam="2">  1       -2 0.59832943E-01 0.73238302E+03</pdfrwt>
<totfact> 0.59431601E+00</totfact>
</mgrwt>
</event>
<event>
 4    1  0.3057048E-007  0.7807052E+03  0.7818608E-02  0.9754183E-01
          2   -1    0    0  501    0  0.00000000000E+00  0.00000000000E+00  0.18584761391E+04  0.18584761391E+04  0.25500000000E-02 0. -1.
         -2   -1    0    0    0  501 -0.00000000000E+00 -0.00000000000E+00 -0.39076410550E+03  0.39076410551E+03  0.25500000000E-02 0.  1.
    8880023    1    1    2    0    0 -0.99348117536E+02 -0.40721051887E+03  0.72086746356E+02  0.78402624982E+03  0.65864270000E+03 0.  1.
    8880022    1    1    2    0    0  0.99348117536E+02  0.40721051887E+03  0.13956252873E+04  0.14652139948E+04  0.15294330000E+03 0.  0.
<mgrwt>
<rscale>  0 0.67880393E+03</rscale>
<asrwt>0</asrwt>
<pdfrwt beam="1">  1        2 0.28591941E+00 0.78070523E+03</pdfrwt>
<pdfrwt beam="2">  1       -2 0.60117554E-01 0.78070523E+03</pdfrwt>
<totfact> 0.21204917E+01</totfact>
</mgrwt>
</event>
<event>
 4    1  0.3057048E-007  0.7147383E+03  0.7818608E-02  0.9940809E-01
          2   -1    0    0  501    0  0.00000000000E+00  0.00000000000E+00  0.19653663540E+04  0.19653663540E+04  0.25500000000E-02 0. -1.
         -2   -1    0    0    0  501 -0.00000000000E+00 -0.00000000000E+00 -0.16177323288E+03  0.16177323290E+03  0.25500000000E-02 0.  1.
    8880023    1    1    2    0    0 -0.14204767837E+03 -0.23845968208E+03  0.15947812326E+04  0.17476206537E+04  0.65864270000E+03 0.  0.
    8880022    1    1    2    0    0  0.14204767837E+03  0.23845968208E+03  0.20881188855E+03  0.37951893329E+03  0.15294330000E+03 0.  0.
<mgrwt>
<rscale>  0 0.58323610E+03</rscale>
<asrwt>0</asrwt>
<pdfrwt beam="1">  1        2 0.30236406E+00 0.71473825E+03</pdfrwt>
<pdfrwt beam="2">  1       -2 0.24888189E-01 0.71473825E+03</pdfrwt>
<totfact> 0.10387940E+02</totfact>
</mgrwt>
</event>
<event>
 4    1  0.3057048E-007  0.6709510E+03  0.7818608E-02  0.1014990E+00
          2   -1    0    0  501    0  0.00000000000E+00  0.00000000000E+00  0.16898434199E+04  0.16898434199E+04  0.25500000000E-02 0. -1.
         -2   -1    0    0    0  501 -0.00000000000E+00 -0.00000000000E+00 -0.11217226128E+03  0.11217226131E+03  0.25500000000E-02 0.  1.
    8880023    1    1    2    0    0 -0.58840313015E+02 -0.11359051068E+03  0.12391652304E+04  0.14091506879E+04  0.65864270000E+03 0.  0.
    8880022    1    1    2    0    0  0.58840313015E+02  0.11359051068E+03  0.33850592814E+03  0.39286499329E+03  0.15294330000E+03 0.  1.
<mgrwt>
<rscale>  0 0.49538664E+03</rscale>
<asrwt>0</asrwt>
<pdfrwt beam="1">  1        2 0.25997589E+00 0.67095096E+03</pdfrwt>
<pdfrwt beam="2">  1       -2 0.17257272E-01 0.67095096E+03</pdfrwt>
<totfact> 0.28029895E+02</totfact>
</mgrwt>
</event>
<event>
 4    1  0.3121811E-007  0.1159709E+04  0.7818608E-02  0.9197319E-01
          2   -1    0    0  501    0  0.00000000000E+00  0.00000000000E+00  0.18924135100E+04  0.18924135100E+04  0.25500000000E-02 0. -1.
         -2   -1    0    0    0  501 -0.00000000000E+00 -0.00000000000E+00 -0.15805815430E+04  0.15805815430E+04  0.25500000000E-02 0.  1.
    8880023    1    1    2    0    0 -0.70578464332E+03 -0.64263697380E+03 -0.12062128110E+04  0.16732823415E+04  0.65864270000E+03 0.  1.
    8880022    1    1    2    0    0  0.70578464332E+03  0.64263697380E+03  0.15180447779E+04  0.17997127114E+04  0.15294330000E+03 0.  0.
<mgrwt>
<rscale>  0 0.11081141E+04</rscale>
<asrwt>0</asrwt>
<pdfrwt beam="1">  1        2 0.29114054E+00 0.11597088E+04</pdfrwt>
<pdfrwt beam="2">  1       -2 0.24316639E+00 0.11597088E+04</pdfrwt>
<totfact> 0.53066004E-01</totfact>
</mgrwt>
</event>
<event>
 4    1  0.3057048E-007  0.6586961E+03  0.7818608E-02  0.1025534E+00
          2   -1    0    0  501    0  0.00000000000E+00  0.00000000000E+00  0.11690486034E+04  0.11690486034E+04  0.25500000000E-02 0. -1.
         -2   -1    0    0    0  501 -0.00000000000E+00 -0.00000000000E+00 -0.42209928485E+03  0.42209928486E+03  0.25500000000E-02 0.  1.
    8880023    1    1    2    0    0 -0.77270388199E+01  0.32585314086E+01 -0.15466871093E+03  0.67661136671E+03  0.65864270000E+03 0.  1.
    8880022    1    1    2    0    0  0.77270388199E+01 -0.32585314086E+01  0.90161802943E+03  0.91453652150E+03  0.15294330000E+03 0.  0.
<mgrwt>
<rscale>  0 0.45741393E+03</rscale>
<asrwt>0</asrwt>
<pdfrwt beam="1">  1        2 0.17985363E+00 0.65869608E+03</pdfrwt>
<pdfrwt beam="2">  1       -2 0.64938353E-01 0.65869608E+03</pdfrwt>
<totfact> 0.44423580E+01</totfact>
</mgrwt>
</event>
<event>
 4    1  0.3057048E-007  0.8421707E+03  0.7818608E-02  0.9626101E-01
          2   -1    0    0  501    0  0.00000000000E+00  0.00000000000E+00  0.21749828773E+04  0.21749828773E+04  0.25500000000E-02 0. -1.
         -2   -1    0    0    0  501 -0.00000000000E+00 -0.00000000000E+00 -0.62047496187E+03  0.62047496188E+03  0.25500000000E-02 0.  1.
    8880023    1    1    2    0    0 -0.51650877966E+03  0.93059213439E+02 -0.27507317273E+03  0.88595529982E+03  0.65864270000E+03 0.  1.
    8880022    1    1    2    0    0  0.51650877966E+03 -0.93059213439E+02  0.18295810881E+04  0.19095025393E+04  0.15294330000E+03 0.  0.
<mgrwt>
<rscale>  0 0.75592494E+03</rscale>
<asrwt>0</asrwt>
<pdfrwt beam="1">  1        2 0.33461275E+00 0.84217073E+03</pdfrwt>
<pdfrwt beam="2">  1       -2 0.95457687E-01 0.84217073E+03</pdfrwt>
<totfact> 0.50400688E+00</totfact>
</mgrwt>
</event>
<event>
 4    1  0.3057048E-007  0.1350302E+04  0.7818608E-02  0.9023294E-01
          2   -1    0    0  501    0  0.00000000000E+00  0.00000000000E+00  0.15692884785E+04  0.15692884785E+04  0.25500000000E-02 0. -1.
         -2   -1    0    0    0  501 -0.00000000000E+00 -0.00000000000E+00 -0.18189334939E+04  0.18189334939E+04  0.25500000000E-02 0.  1.
    8880023    1    1    2    0    0  0.10562987836E+04 -0.52319976954E+03 -0.12459032855E+04  0.18372779654E+04  0.65864270000E+03 0.  0.
    8880022    1    1    2    0    0 -0.10562987836E+04  0.52319976954E+03  0.99625827008E+03  0.15509440070E+04  0.15294330000E+03 0.  0.
<mgrwt>
<rscale>  0 0.13079374E+04</rscale>
<asrwt>0</asrwt>
<pdfrwt beam="1">  1        2 0.24142900E+00 0.13503019E+04</pdfrwt>
<pdfrwt beam="2">  1       -2 0.27983592E+00 0.13503019E+04</pdfrwt>
<totfact> 0.46806851E-01</totfact>
</mgrwt>
</event>
<event>
 4    1  0.3057048E-007  0.1250271E+04  0.7818608E-02  0.9109740E-01
         -2   -1    0    0    0  501 -0.00000000000E+00  0.00000000000E+00  0.63084857102E+03  0.63084857102E+03  0.25500000000E-02 0.  1.
          2   -1    0    0  501    0  0.00000000000E+00 -0.00000000000E+00 -0.33641717108E+04  0.33641717108E+04  0.25500000000E-02 0. -1.
    8880023    1    1    2    0    0 -0.92117337624E+02  0.10587166502E+04 -0.23011460931E+03  0.12712708166E+04  0.65864270000E+03 0.  0.
    8880022    1    1    2    0    0  0.92117337624E+02 -0.10587166502E+04 -0.25032085304E+04  0.27237494652E+04  0.15294330000E+03 0.  0.
<mgrwt>
<rscale>  0 0.12035671E+04</rscale>
<asrwt>0</asrwt>
<pdfrwt beam="1">  1        2 0.51756487E+00 0.12502707E+04</pdfrwt>
<pdfrwt beam="2">  1       -2 0.97053628E-01 0.12502707E+04</pdfrwt>
<totfact> 0.88578092E-01</totfact>
</mgrwt>
</event>
<event>
 4    1  0.3057048E-007  0.6759763E+03  0.7818608E-02  0.1011698E+00
         -2   -1    0    0    0  501 -0.00000000000E+00  0.00000000000E+00  0.30127443232E+03  0.30127443233E+03  0.25500000000E-02 0.  1.
          2   -1    0    0  501    0  0.00000000000E+00 -0.00000000000E+00 -0.73044269602E+03  0.73044269602E+03  0.25500000000E-02 0. -1.
    8880023    1    1    2    0    0  0.95476953896E+02  0.11839708491E+03 -0.17480708537E+03  0.69821303468E+03  0.65864270000E+03 0.  1.
    8880022    1    1    2    0    0 -0.95476953896E+02 -0.11839708491E+03 -0.25436117832E+03  0.33350409367E+03  0.15294330000E+03 0.  1.
<mgrwt>
<rscale>  0 0.50805394E+03</rscale>
<asrwt>0</asrwt>
<pdfrwt beam="1">  1        2 0.11237580E+00 0.67597628E+03</pdfrwt>
<pdfrwt beam="2">  1       -2 0.46349913E-01 0.67597628E+03</pdfrwt>
<totfact> 0.17368784E+02</totfact>
</mgrwt>
</event>
<event>
 4    1  0.3057048E-007  0.1316887E+04  0.7818608E-02  0.9051113E-01
          2   -1    0    0  501    0  0.00000000000E+00  0.00000000000E+00  0.30213401083E+04  0.30213401083E+04  0.25500000000E-02 0. -1.
         -2   -1    0    0    0  501 -0.00000000000E+00 -0.00000000000E+00 -0.53613614842E+03  0.53613614842E+03  0.25500000000E-02 0.  1.
    8880023    1    1    2    0    0  0.11199243073E+04 -0.21482649198E+03  0.88521644543E+03  0.15867574601E+04  0.65864270000E+03 0.  0.
    8880022    1    1    2    0    0 -0.11199243073E+04  0.21482649198E+03  0.15999875145E+04  0.19707187966E+04  0.15294330000E+03 0.  0.
<mgrwt>
<rscale>  0 0.12731748E+04</rscale>
<asrwt>0</asrwt>
<pdfrwt beam="1">  1        2 0.46482157E+00 0.13168869E+04</pdfrwt>
<pdfrwt beam="2">  1       -2 0.82482482E-01 0.13168869E+04</pdfrwt>
<totfact> 0.21334903E+00</totfact>
</mgrwt>
</event>
<event>
 4    1  0.3057048E-007  0.6912058E+03  0.7818608E-02  0.1003585E+00
         -2   -1    0    0    0  501 -0.00000000000E+00  0.00000000000E+00  0.99006145538E+02  0.99006145571E+02  0.25500000000E-02 0.  1.
          2   -1    0    0  501    0  0.00000000000E+00 -0.00000000000E+00 -0.30106833997E+04  0.30106833997E+04  0.25500000000E-02 0. -1.
    8880023    1    1    2    0    0  0.30884405084E+02 -0.20736782589E+03 -0.12545241392E+04  0.14323394444E+04  0.65864270000E+03 0.  0.
    8880022    1    1    2    0    0 -0.30884405084E+02  0.20736782589E+03 -0.16571531150E+04  0.16773501009E+04  0.15294330000E+03 0.  0.
<mgrwt>
<rscale>  0 0.54105977E+03</rscale>
<asrwt>0</asrwt>
<pdfrwt beam="1">  1        2 0.46318199E+00 0.69120581E+03</pdfrwt>
<pdfrwt beam="2">  1       -2 0.15231717E-01 0.69120581E+03</pdfrwt>
<totfact> 0.62312355E+01</totfact>
</mgrwt>
</event>
<event>
 4    1  0.3057048E-007  0.9130707E+03  0.7818608E-02  0.9505366E-01
         -2   -1    0    0    0  501 -0.00000000000E+00  0.00000000000E+00  0.59678205095E+03  0.59678205096E+03  0.25500000000E-02 0.  1.
          2   -1    0    0  501    0  0.00000000000E+00 -0.00000000000E+00 -0.13513887456E+04  0.13513887456E+04  0.25500000000E-02 0. -1.
    8880023    1    1    2    0    0 -0.63041099826E+03 -0.49697404147E+02  0.48796700831E+02  0.91437365611E+03  0.65864270000E+03 0.  0.
    8880022    1    1    2    0    0  0.63041099826E+03  0.49697404147E+02 -0.80340339546E+03  0.10337971404E+04  0.15294330000E+03 0.  0.
<mgrwt>
<rscale>  0 0.83889326E+03</rscale>
<asrwt>0</asrwt>
<pdfrwt beam="1">  1        2 0.20790596E+00 0.91307068E+03</pdfrwt>
<pdfrwt beam="2">  1       -2 0.91812624E-01 0.91307068E+03</pdfrwt>
<totfact> 0.15629459E+01</totfact>
</mgrwt>
</event>
<event>
 4    1  0.3057048E-007  0.7223174E+03  0.7818608E-02  0.9914821E-01
         -2   -1    0    0    0  501 -0.00000000000E+00  0.00000000000E+00  0.14157624125E+03  0.14157624127E+03  0.25500000000E-02 0.  1.
          2   -1    0    0  501    0  0.00000000000E+00 -0.00000000000E+00 -0.25817076670E+04  0.25817076670E+04  0.25500000000E-02 0. -1.
    8880023    1    1    2    0    0 -0.15693371532E+03  0.25160284052E+03 -0.93443848038E+03  0.11810663234E+04  0.65864270000E+03 0.  1.
    8880022    1    1    2    0    0  0.15693371532E+03 -0.25160284052E+03 -0.15056929454E+04  0.15422175849E+04  0.15294330000E+03 0.  0.
<mgrwt>
<rscale>  0 0.59548327E+03</rscale>
<asrwt>0</asrwt>
<pdfrwt beam="1">  1        2 0.39718576E+00 0.72231737E+03</pdfrwt>
<pdfrwt beam="2">  1       -2 0.21780962E-01 0.72231737E+03</pdfrwt>
<totfact> 0.59891134E+01</totfact>
</mgrwt>
</event>
<event>
 4    1  0.3057048E-007  0.8910063E+03  0.7818608E-02  0.9540626E-01
         -2   -1    0    0    0  501 -0.00000000000E+00  0.00000000000E+00  0.91769229712E+03  0.91769229712E+03  0.25500000000E-02 0.  1.
          2   -1    0    0  501    0  0.00000000000E+00 -0.00000000000E+00 -0.68772416606E+03  0.68772416606E+03  0.25500000000E-02 0. -1.
    8880023    1    1    2    0    0 -0.41053428768E+03  0.43765694597E+03  0.37935166349E+03  0.96840068906E+03  0.65864270000E+03 0.  0.
    8880022    1    1    2    0    0  0.41053428768E+03 -0.43765694597E+03 -0.14938353243E+03  0.63701577413E+03  0.15294330000E+03 0.  0.
<mgrwt>
<rscale>  0 0.81353739E+03</rscale>
<asrwt>0</asrwt>
<pdfrwt beam="1">  1        2 0.10580372E+00 0.89100629E+03</pdfrwt>
<pdfrwt beam="2">  1       -2 0.14118343E+00 0.89100629E+03</pdfrwt>
<totfact> 0.14745583E+01</totfact>
</mgrwt>
</event>
<event>
 4    1  0.3057048E-007  0.6638487E+03  0.7818608E-02  0.1020520E+00
         -2   -1    0    0    0  501 -0.00000000000E+00  0.00000000000E+00  0.30685549847E+03  0.30685549848E+03  0.25500000000E-02 0.  1.
          2   -1    0    0  501    0  0.00000000000E+00 -0.00000000000E+00 -0.57245935558E+03  0.57245935558E+03  0.25500000000E-02 0. -1.
    8880023    1    1    2    0    0  0.49874089079E+01  0.82825020669E+02 -0.22127582739E+03  0.69975571191E+03  0.65864270000E+03 0.  0.
    8880022    1    1    2    0    0 -0.49874089079E+01 -0.82825020669E+02 -0.44328029720E+02  0.17955914215E+03  0.15294330000E+03 0. -1.
<mgrwt>
<rscale>  0 0.47499611E+03</rscale>
<asrwt>0</asrwt>
<pdfrwt beam="1">  1        2 0.88070670E-01 0.66384868E+03</pdfrwt>
<pdfrwt beam="2">  1       -2 0.47208538E-01 0.66384868E+03</pdfrwt>
<totfact> 0.22604844E+02</totfact>
</mgrwt>
</event>
<event>
 4    1  0.3057048E-007  0.6594119E+03  0.7818608E-02  0.1024767E+00
          2   -1    0    0  501    0  0.00000000000E+00  0.00000000000E+00  0.34448741265E+03  0.34448741266E+03  0.25500000000E-02 0. -1.
         -2   -1    0    0    0  501 -0.00000000000E+00 -0.00000000000E+00 -0.99692467045E+03  0.99692467045E+03  0.25500000000E-02 0.  1.
    8880023    1    1    2    0    0 -0.27082216720E+02  0.16743954367E+02 -0.85869272514E+03  0.10826713301E+04  0.65864270000E+03 0.  1.
    8880022    1    1    2    0    0  0.27082216720E+02 -0.16743954367E+02  0.20625546734E+03  0.25874075305E+03  0.15294330000E+03 0.  0.
<mgrwt>
<rscale>  0 0.46004831E+03</rscale>
<asrwt>0</asrwt>
<pdfrwt beam="1">  1        2 0.52998064E-01 0.65941187E+03</pdfrwt>
<pdfrwt beam="2">  1       -2 0.15337302E+00 0.65941187E+03</pdfrwt>
<totfact> 0.27092085E+01</totfact>
</mgrwt>
</event>
<event>
 4    1  0.3057048E-007  0.1212443E+04  0.7818608E-02  0.9145120E-01
          2   -1    0    0  501    0  0.00000000000E+00  0.00000000000E+00  0.13451664762E+04  0.13451664762E+04  0.25500000000E-02 0. -1.
         -2   -1    0    0    0  501 -0.00000000000E+00 -0.00000000000E+00 -0.12972410354E+04  0.12972410354E+04  0.25500000000E-02 0.  1.
    8880023    1    1    2    0    0 -0.86116088719E+03  0.54278033496E+03  0.72278744271E+03  0.14115383308E+04  0.65864270000E+03 0.  0.
    8880022    1    1    2    0    0  0.86116088719E+03 -0.54278033496E+03 -0.67486200193E+03  0.12308691808E+04  0.15294330000E+03 0.  0.
<mgrwt>
<rscale>  0 0.11638281E+04</rscale>
<asrwt>0</asrwt>
<pdfrwt beam="1">  1        2 0.20694869E+00 0.12124433E+04</pdfrwt>
<pdfrwt beam="2">  1       -2 0.19957554E+00 0.12124433E+04</pdfrwt>
<totfact> 0.20188278E+00</totfact>
</mgrwt>
</event>
<event>
 4    1  0.3057048E-007  0.6745947E+03  0.7818608E-02  0.1012563E+00
          2   -1    0    0  501    0  0.00000000000E+00  0.00000000000E+00  0.11318018984E+04  0.11318018984E+04  0.25500000000E-02 0. -1.
         -2   -1    0    0    0  501 -0.00000000000E+00 -0.00000000000E+00 -0.17802567632E+03  0.17802567634E+03  0.25500000000E-02 0.  1.
    8880023    1    1    2    0    0  0.76471358236E+02 -0.12417703280E+03  0.81050261222E+03  0.10545105475E+04  0.65864270000E+03 0. -1.
    8880022    1    1    2    0    0 -0.76471358236E+02  0.12417703280E+03  0.14327360986E+03  0.25531702725E+03  0.15294330000E+03 0.  1.
<mgrwt>
<rscale>  0 0.50468614E+03</rscale>
<asrwt>0</asrwt>
<pdfrwt beam="1">  1        2 0.17412337E+00 0.67459470E+03</pdfrwt>
<pdfrwt beam="2">  1       -2 0.27388566E-01 0.67459470E+03</pdfrwt>
<totfact> 0.25635258E+02</totfact>
</mgrwt>
</event>
<event>
 4    1  0.3057048E-007  0.9133359E+03  0.7818608E-02  0.9504953E-01
          2   -1    0    0  501    0  0.00000000000E+00  0.00000000000E+00  0.17124833612E+04  0.17124833612E+04  0.25500000000E-02 0. -1.
         -2   -1    0    0    0  501 -0.00000000000E+00 -0.00000000000E+00 -0.60081733668E+03  0.60081733669E+03  0.25500000000E-02 0.  1.
    8880023    1    1    2    0    0  0.61144036931E+03  0.16282818754E+03  0.13415407882E+04  0.16229338361E+04  0.65864270000E+03 0.  0.
    8880022    1    1    2    0    0 -0.61144036931E+03 -0.16282818754E+03 -0.22987476362E+03  0.69036686178E+03  0.15294330000E+03 0.  0.
<mgrwt>
<rscale>  0 0.83919603E+03</rscale>
<asrwt>0</asrwt>
<pdfrwt beam="1">  1        2 0.26345898E+00 0.91333595E+03</pdfrwt>
<pdfrwt beam="2">  1       -2 0.92433436E-01 0.91333595E+03</pdfrwt>
<totfact> 0.96598593E+00</totfact>
</mgrwt>
</event>
<event>
 4    1  0.3057048E-007  0.6742966E+03  0.7818608E-02  0.1012753E+00
         -2   -1    0    0    0  501 -0.00000000000E+00  0.00000000000E+00  0.15460276820E+03  0.15460276822E+03  0.25500000000E-02 0.  1.
          2   -1    0    0  501    0  0.00000000000E+00 -0.00000000000E+00 -0.13330761550E+04  0.13330761550E+04  0.25500000000E-02 0. -1.
    8880023    1    1    2    0    0  0.10932775451E+03 -0.94409469366E+02 -0.73869784366E+03  0.10001751928E+04  0.65864270000E+03 0. -1.
    8880022    1    1    2    0    0 -0.10932775451E+03  0.94409469366E+02 -0.43977554316E+03  0.48750373044E+03  0.15294330000E+03 0.  0.
<mgrwt>
<rscale>  0 0.50394880E+03</rscale>
<asrwt>0</asrwt>
<pdfrwt beam="1">  1        2 0.20508863E+00 0.67429661E+03</pdfrwt>
<pdfrwt beam="2">  1       -2 0.23785042E-01 0.67429661E+03</pdfrwt>
<totfact> 0.25221617E+02</totfact>
</mgrwt>
</event>
<event>
 4    1  0.3057048E-007  0.1011909E+04  0.7818608E-02  0.9366140E-01
          2   -1    0    0  501    0  0.00000000000E+00  0.00000000000E+00  0.96575817153E+03  0.96575817153E+03  0.25500000000E-02 0. -1.
         -2   -1    0    0    0  501 -0.00000000000E+00 -0.00000000000E+00 -0.92005147501E+03  0.92005147502E+03  0.25500000000E-02 0.  1.
    8880023    1    1    2    0    0  0.43177635845E+02 -0.76699816314E+03  0.31131050452E+03  0.10587138079E+04  0.65864270000E+03 0. -1.
    8880022    1    1    2    0    0 -0.43177635845E+02  0.76699816314E+03 -0.26560380800E+03  0.82709583867E+03  0.15294330000E+03 0.  0.
<mgrwt>
<rscale>  0 0.94915422E+03</rscale>
<asrwt>0</asrwt>
<pdfrwt beam="1">  1        2 0.14857818E+00 0.10119094E+04</pdfrwt>
<pdfrwt beam="2">  1       -2 0.14154638E+00 0.10119094E+04</pdfrwt>
<totfact> 0.91654054E+00</totfact>
</mgrwt>
</event>
<event>
 4    1  0.3057048E-007  0.7615452E+03  0.7818608E-02  0.9801123E-01
         -2   -1    0    0    0  501 -0.00000000000E+00  0.00000000000E+00  0.49769396219E+03  0.49769396220E+03  0.25500000000E-02 0.  1.
          2   -1    0    0  501    0  0.00000000000E+00 -0.00000000000E+00 -0.23644485413E+04  0.23644485413E+04  0.25500000000E-02 0. -1.
    8880023    1    1    2    0    0  0.36415483721E+03  0.11632773676E+03  0.17324756625E+03  0.78100308148E+03  0.65864270000E+03 0.  1.
    8880022    1    1    2    0    0 -0.36415483721E+03 -0.11632773676E+03 -0.20400021454E+04  0.20811394220E+04  0.15294330000E+03 0.  0.
<mgrwt>
<rscale>  0 0.65302288E+03</rscale>
<asrwt>0</asrwt>
<pdfrwt beam="1">  1        2 0.36376131E+00 0.76154520E+03</pdfrwt>
<pdfrwt beam="2">  1       -2 0.76568303E-01 0.76154520E+03</pdfrwt>
<totfact> 0.66295744E+00</totfact>
</mgrwt>
</event>
<event>
 4    1  0.3057048E-007  0.6655728E+03  0.7818608E-02  0.1019058E+00
         -2   -1    0    0    0  501 -0.00000000000E+00  0.00000000000E+00  0.75770921961E+02  0.75770922004E+02  0.25500000000E-02 0.  1.
          2   -1    0    0  501    0  0.00000000000E+00 -0.00000000000E+00 -0.30241587689E+04  0.30241587689E+04  0.25500000000E-02 0. -1.
    8880023    1    1    2    0    0  0.65080372291E+02 -0.70295977664E+02 -0.15088748214E+04  0.16491483900E+04  0.65864270000E+03 0.  1.
    8880022    1    1    2    0    0 -0.65080372291E+02  0.70295977664E+02 -0.14395130256E+04  0.14507813009E+04  0.15294330000E+03 0.  0.
<mgrwt>
<rscale>  0 0.48028235E+03</rscale>
<asrwt>0</asrwt>
<pdfrwt beam="1">  1        2 0.46525510E+00 0.66557283E+03</pdfrwt>
<pdfrwt beam="2">  1       -2 0.11657067E-01 0.66557283E+03</pdfrwt>
<totfact> 0.95899796E+01</totfact>
</mgrwt>
</event>
<event>
 4    1  0.3057048E-007  0.9324145E+03  0.7818608E-02  0.9475880E-01
          2   -1    0    0  501    0  0.00000000000E+00  0.00000000000E+00  0.87544262261E+03  0.87544262262E+03  0.25500000000E-02 0. -1.
         -2   -1    0    0    0  501 -0.00000000000E+00 -0.00000000000E+00 -0.10937014333E+04  0.10937014333E+04  0.25500000000E-02 0.  1.
    8880023    1    1    2    0    0 -0.22028608591E+03 -0.62214202301E+03 -0.67586020559E+03  0.11516005732E+04  0.65864270000E+03 0.  0.
    8880022    1    1    2    0    0  0.22028608591E+03  0.62214202301E+03  0.45760139492E+03  0.81754348269E+03  0.15294330000E+03 0.  0.
<mgrwt>
<rscale>  0 0.86085657E+03</rscale>
<asrwt>0</asrwt>
<pdfrwt beam="1">  1        2 0.13468348E+00 0.93241453E+03</pdfrwt>
<pdfrwt beam="2">  1       -2 0.16826176E+00 0.93241453E+03</pdfrwt>
<totfact> 0.66703126E+00</totfact>
</mgrwt>
</event>
<event>
 4    1  0.3654067E-007  0.8770858E+03  0.7818608E-02  0.9563865E-01
         -2   -1    0    0    0  501 -0.00000000000E+00  0.00000000000E+00  0.75515578974E+03  0.75515578974E+03  0.25500000000E-02 0.  1.
          2   -1    0    0  501    0  0.00000000000E+00 -0.00000000000E+00 -0.27769077563E+04  0.27769077563E+04  0.25500000000E-02 0. -1.
    8880023    1    1    2    0    0 -0.40264058474E+03  0.41635310283E+03  0.45207536013E+03  0.98673790047E+03  0.65864270000E+03 0.  1.
    8880022    1    1    2    0    0  0.40264058474E+03 -0.41635310283E+03 -0.24738273267E+04  0.25453256456E+04  0.15294330000E+03 0.  0.
<mgrwt>
<rscale>  0 0.79734698E+03</rscale>
<asrwt>0</asrwt>
<pdfrwt beam="1">  1        2 0.42721657E+00 0.87708583E+03</pdfrwt>
<pdfrwt beam="2">  1       -2 0.11617782E+00 0.87708583E+03</pdfrwt>
<totfact> 0.14201443E+00</totfact>
</mgrwt>
</event>
<event>
 4    1  0.3057048E-007  0.7816965E+03  0.7818608E-02  0.9751867E-01
          2   -1    0    0  501    0  0.00000000000E+00  0.00000000000E+00  0.10642414408E+04  0.10642414408E+04  0.25500000000E-02 0. -1.
         -2   -1    0    0    0  501 -0.00000000000E+00 -0.00000000000E+00 -0.87067371604E+03  0.87067371604E+03  0.25500000000E-02 0.  1.
    8880023    1    1    2    0    0  0.37985659738E+03  0.18151643438E+03 -0.62564831281E+03  0.10012418629E+04  0.65864270000E+03 0.  0.
    8880022    1    1    2    0    0 -0.37985659738E+03 -0.18151643438E+03  0.81921603757E+03  0.93367329390E+03  0.15294330000E+03 0.  0.
<mgrwt>
<rscale>  0 0.68010875E+03</rscale>
<asrwt>0</asrwt>
<pdfrwt beam="1">  1        2 0.16372945E+00 0.78169652E+03</pdfrwt>
<pdfrwt beam="2">  1       -2 0.13394980E+00 0.78169652E+03</pdfrwt>
<totfact> 0.93625863E+00</totfact>
</mgrwt>
</event>
<event>
 4    1  0.3057048E-007  0.7332793E+03  0.7818608E-02  0.9879975E-01
         -2   -1    0    0    0  501 -0.00000000000E+00  0.00000000000E+00  0.61873966794E+03  0.61873966794E+03  0.25500000000E-02 0.  1.
          2   -1    0    0  501    0  0.00000000000E+00 -0.00000000000E+00 -0.91385894047E+03  0.91385894048E+03  0.25500000000E-02 0. -1.
    8880023    1    1    2    0    0  0.22907425746E+03 -0.22674496459E+03  0.33679784358E+03  0.80692706492E+03  0.65864270000E+03 0.  1.
    8880022    1    1    2    0    0 -0.22907425746E+03  0.22674496459E+03 -0.63191711611E+03  0.72567154350E+03  0.15294330000E+03 0.  0.
<mgrwt>
<rscale>  0 0.61241675E+03</rscale>
<asrwt>0</asrwt>
<pdfrwt beam="1">  1        2 0.14059368E+00 0.73327928E+03</pdfrwt>
<pdfrwt beam="2">  1       -2 0.95190718E-01 0.73327928E+03</pdfrwt>
<totfact> 0.27071473E+01</totfact>
</mgrwt>
</event>
<event>
 4    1  0.3057048E-007  0.7940386E+03  0.7818608E-02  0.9723837E-01
         -2   -1    0    0    0  501 -0.00000000000E+00  0.00000000000E+00  0.96986889357E+03  0.96986889358E+03  0.25500000000E-02 0.  1.
          2   -1    0    0  501    0  0.00000000000E+00 -0.00000000000E+00 -0.10745847090E+04  0.10745847090E+04  0.25500000000E-02 0. -1.
    8880023    1    1    2    0    0 -0.38911814779E+03  0.21277732647E+03  0.73537390235E+03  0.10822532541E+04  0.65864270000E+03 0.  1.
    8880022    1    1    2    0    0  0.38911814779E+03 -0.21277732647E+03 -0.84008971775E+03  0.96220034841E+03  0.15294330000E+03 0.  0.
<mgrwt>
<rscale>  0 0.69615106E+03</rscale>
<asrwt>0</asrwt>
<pdfrwt beam="1">  1        2 0.16532072E+00 0.79403862E+03</pdfrwt>
<pdfrwt beam="2">  1       -2 0.14921060E+00 0.79403862E+03</pdfrwt>
<totfact> 0.69587728E+00</totfact>
</mgrwt>
</event>
<event>
 4    1  0.3057048E-007  0.8388753E+03  0.7818608E-02  0.9632305E-01
         -2   -1    0    0    0  501 -0.00000000000E+00  0.00000000000E+00  0.10829962856E+04  0.10829962856E+04  0.25500000000E-02 0.  1.
          2   -1    0    0  501    0  0.00000000000E+00 -0.00000000000E+00 -0.52654531706E+03  0.52654531707E+03  0.25500000000E-02 0. -1.
    8880023    1    1    2    0    0  0.21554679970E+03 -0.47269559926E+03  0.64836637852E+03  0.10602314462E+04  0.65864270000E+03 0.  1.
    8880022    1    1    2    0    0 -0.21554679970E+03  0.47269559926E+03 -0.91915409975E+02  0.54931015649E+03  0.15294330000E+03 0.  0.
<mgrwt>
<rscale>  0 0.75194453E+03</rscale>
<asrwt>0</asrwt>
<pdfrwt beam="1">  1        2 0.81006972E-01 0.83887529E+03</pdfrwt>
<pdfrwt beam="2">  1       -2 0.16661481E+00 0.83887529E+03</pdfrwt>
<totfact> 0.13153982E+01</totfact>
</mgrwt>
</event>
<event>
 4    1  0.3057048E-007  0.8181200E+03  0.7818608E-02  0.9672905E-01
         -2   -1    0    0    0  501 -0.00000000000E+00  0.00000000000E+00  0.67446027368E+03  0.67446027369E+03  0.25500000000E-02 0.  1.
          2   -1    0    0  501    0  0.00000000000E+00 -0.00000000000E+00 -0.13379937141E+04  0.13379937141E+04  0.25500000000E-02 0. -1.
    8880023    1    1    2    0    0 -0.41864930257E+03 -0.24544419009E+03  0.34104872234E+03  0.88636026889E+03  0.65864270000E+03 0.  0.
    8880022    1    1    2    0    0  0.41864930257E+03  0.24544419009E+03 -0.10045821628E+04  0.11260937189E+04  0.15294330000E+03 0.  0.
<mgrwt>
<rscale>  0 0.72653179E+03</rscale>
<asrwt>0</asrwt>
<pdfrwt beam="1">  1        2 0.20584519E+00 0.81811998E+03</pdfrwt>
<pdfrwt beam="2">  1       -2 0.10376312E+00 0.81811998E+03</pdfrwt>
<totfact> 0.12040464E+01</totfact>
</mgrwt>
</event>
<event>
 4    1  0.3057048E-007  0.1230925E+04  0.7818608E-02  0.9127632E-01
         -2   -1    0    0    0  501 -0.00000000000E+00  0.00000000000E+00  0.92128348788E+03  0.92128348789E+03  0.25500000000E-02 0.  1.
          2   -1    0    0  501    0  0.00000000000E+00 -0.00000000000E+00 -0.20690812419E+04  0.20690812419E+04  0.25500000000E-02 0. -1.
    8880023    1    1    2    0    0 -0.59560188786E+03 -0.85242308045E+03  0.23529359431E+03  0.12532118730E+04  0.65864270000E+03 0.  1.
    8880022    1    1    2    0    0  0.59560188786E+03  0.85242308045E+03 -0.13830913483E+04  0.17371528568E+04  0.15294330000E+03 0.  0.
<mgrwt>
<rscale>  0 0.11832654E+04</rscale>
<asrwt>0</asrwt>
<pdfrwt beam="1">  1        2 0.31832019E+00 0.12309252E+04</pdfrwt>
<pdfrwt beam="2">  1       -2 0.14173592E+00 0.12309252E+04</pdfrwt>
<totfact> 0.20651787E+00</totfact>
</mgrwt>
</event>
<event>
 4    1  0.3057048E-007  0.7268922E+03  0.7818608E-02  0.9899920E-01
         -2   -1    0    0    0  501 -0.00000000000E+00  0.00000000000E+00  0.38260442788E+03  0.38260442789E+03  0.25500000000E-02 0.  1.
          2   -1    0    0  501    0  0.00000000000E+00 -0.00000000000E+00 -0.89738856741E+03  0.89738856741E+03  0.25500000000E-02 0. -1.
    8880023    1    1    2    0    0  0.30557501011E+03 -0.34438239640E+02 -0.88028888922E+02  0.73220309389E+03  0.65864270000E+03 0.  1.
    8880022    1    1    2    0    0 -0.30557501011E+03  0.34438239640E+02 -0.42675525060E+03  0.54778990141E+03  0.15294330000E+03 0.  1.
<mgrwt>
<rscale>  0 0.60265182E+03</rscale>
<asrwt>0</asrwt>
<pdfrwt beam="1">  1        2 0.13805978E+00 0.72689221E+03</pdfrwt>
<pdfrwt beam="2">  1       -2 0.58862220E-01 0.72689221E+03</pdfrwt>
<totfact> 0.80612801E+01</totfact>
</mgrwt>
</event>
<event>
 4    1  0.3057048E-007  0.9843774E+03  0.7818608E-02  0.9402288E-01
         -2   -1    0    0    0  501 -0.00000000000E+00  0.00000000000E+00  0.18060940154E+04  0.18060940154E+04  0.25500000000E-02 0.  1.
          2   -1    0    0  501    0  0.00000000000E+00 -0.00000000000E+00 -0.46786840107E+03  0.46786840108E+03  0.25500000000E-02 0. -1.
    8880023    1    1    2    0    0  0.41122397330E+03  0.60504833392E+03  0.11289343525E+04  0.14978289692E+04  0.65864270000E+03 0.  1.
    8880022    1    1    2    0    0 -0.41122397330E+03 -0.60504833392E+03  0.20929126181E+03  0.77613344721E+03  0.15294330000E+03 0.  0.
<mgrwt>
<rscale>  0 0.91887603E+03</rscale>
<asrwt>0</asrwt>
<pdfrwt beam="1">  1        2 0.71979753E-01 0.98437739E+03</pdfrwt>
<pdfrwt beam="2">  1       -2 0.27786062E+00 0.98437739E+03</pdfrwt>
<totfact> 0.29030877E+00</totfact>
</mgrwt>
</event>
<event>
 4    1  0.3057048E-007  0.6667321E+03  0.7818608E-02  0.1018122E+00
          2   -1    0    0  501    0  0.00000000000E+00  0.00000000000E+00  0.94128282190E+03  0.94128282191E+03  0.25500000000E-02 0. -1.
         -2   -1    0    0    0  501 -0.00000000000E+00 -0.00000000000E+00 -0.24040922567E+03  0.24040922569E+03  0.25500000000E-02 0.  1.
    8880023    1    1    2    0    0 -0.95518065445E+02  0.39972002185E+02  0.28202102054E+03  0.72392508181E+03  0.65864270000E+03 0.  1.
    8880022    1    1    2    0    0  0.95518065445E+02 -0.39972002185E+02  0.41885257569E+03  0.45776696579E+03  0.15294330000E+03 0.  0.
<mgrwt>
<rscale>  0 0.48370289E+03</rscale>
<asrwt>0</asrwt>
<pdfrwt beam="1">  1        2 0.14481274E+00 0.66673208E+03</pdfrwt>
<pdfrwt beam="2">  1       -2 0.36986035E-01 0.66673208E+03</pdfrwt>
<totfact> 0.19241460E+02</totfact>
</mgrwt>
</event>
<event>
 4    1  0.3057048E-007  0.6761143E+03  0.7818608E-02  0.1011613E+00
          2   -1    0    0  501    0  0.00000000000E+00  0.00000000000E+00  0.57874095357E+03  0.57874095358E+03  0.25500000000E-02 0. -1.
         -2   -1    0    0    0  501 -0.00000000000E+00 -0.00000000000E+00 -0.41165962453E+03  0.41165962454E+03  0.25500000000E-02 0.  1.
    8880023    1    1    2    0    0 -0.13758021576E+02  0.15208917616E+03 -0.57696798921E+02  0.67857168194E+03  0.65864270000E+03 0.  1.
    8880022    1    1    2    0    0  0.13758021576E+02 -0.15208917616E+03  0.22477812797E+03  0.31182889618E+03  0.15294330000E+03 0.  0.
<mgrwt>
<rscale>  0 0.50838618E+03</rscale>
<asrwt>0</asrwt>
<pdfrwt beam="1">  1        2 0.89037069E-01 0.67611434E+03</pdfrwt>
<pdfrwt beam="2">  1       -2 0.63332250E-01 0.67611434E+03</pdfrwt>
<totfact> 0.12139282E+02</totfact>
</mgrwt>
</event>
<event>
 4    1  0.3057048E-007  0.1287832E+04  0.7818608E-02  0.9076140E-01
          2   -1    0    0  501    0  0.00000000000E+00  0.00000000000E+00  0.32732213682E+04  0.32732213682E+04  0.25500000000E-02 0. -1.
         -2   -1    0    0    0  501 -0.00000000000E+00 -0.00000000000E+00 -0.47096298943E+03  0.47096298944E+03  0.25500000000E-02 0.  1.
    8880023    1    1    2    0    0  0.72143616730E+03 -0.83918413047E+03  0.10294182398E+04  0.16487001750E+04  0.65864270000E+03 0.  0.
    8880022    1    1    2    0    0 -0.72143616730E+03  0.83918413047E+03  0.17728401389E+04  0.20954841826E+04  0.15294330000E+03 0.  0.
<mgrwt>
<rscale>  0 0.12428684E+04</rscale>
<asrwt>0</asrwt>
<pdfrwt beam="1">  1        2 0.50357254E+00 0.12878316E+04</pdfrwt>
<pdfrwt beam="2">  1       -2 0.72455841E-01 0.12878316E+04</pdfrwt>
<totfact> 0.19773759E+00</totfact>
</mgrwt>
</event>
<event>
 4    1  0.3057048E-007  0.1511124E+04  0.7818608E-02  0.8901821E-01
          2   -1    0    0  501    0  0.00000000000E+00  0.00000000000E+00  0.18727116365E+04  0.18727116365E+04  0.25500000000E-02 0. -1.
         -2   -1    0    0    0  501 -0.00000000000E+00 -0.00000000000E+00 -0.16617989623E+04  0.16617989623E+04  0.25500000000E-02 0.  1.
    8880023    1    1    2    0    0  0.75013889216E+03 -0.11344498108E+04 -0.91129900424E+03  0.17646418368E+04  0.65864270000E+03 0.  0.
    8880022    1    1    2    0    0 -0.75013889216E+03  0.11344498108E+04  0.11222116784E+04  0.17698687621E+04  0.15294330000E+03 0.  0.
<mgrwt>
<rscale>  0 0.14741594E+04</rscale>
<asrwt>0</asrwt>
<pdfrwt beam="1">  1        2 0.28810948E+00 0.15111237E+04</pdfrwt>
<pdfrwt beam="2">  1       -2 0.25566138E+00 0.15111237E+04</pdfrwt>
<totfact> 0.43691501E-01</totfact>
</mgrwt>
</event>
<event>
 4    1  0.3057048E-007  0.1142232E+04  0.7818608E-02  0.9215431E-01
          2   -1    0    0  501    0  0.00000000000E+00  0.00000000000E+00  0.13903763413E+04  0.13903763413E+04  0.25500000000E-02 0. -1.
         -2   -1    0    0    0  501 -0.00000000000E+00 -0.00000000000E+00 -0.11879135920E+04  0.11879135920E+04  0.25500000000E-02 0.  1.
    8880023    1    1    2    0    0  0.84019471556E+03  0.40614942683E+03 -0.64214716669E+03  0.13103616703E+04  0.65864270000E+03 0.  0.
    8880022    1    1    2    0    0 -0.84019471556E+03 -0.40614942683E+03  0.84460991597E+03  0.12679282630E+04  0.15294330000E+03 0.  0.
<mgrwt>
<rscale>  0 0.10895566E+04</rscale>
<asrwt>0</asrwt>
<pdfrwt beam="1">  1        2 0.21390405E+00 0.11422323E+04</pdfrwt>
<pdfrwt beam="2">  1       -2 0.18275594E+00 0.11422323E+04</pdfrwt>
<totfact> 0.24836619E+00</totfact>
</mgrwt>
</event>
<event>
 4    1  0.3057048E-007  0.1626452E+04  0.7818608E-02  0.8825147E-01
          2   -1    0    0  501    0  0.00000000000E+00  0.00000000000E+00  0.18835069428E+04  0.18835069428E+04  0.25500000000E-02 0. -1.
         -2   -1    0    0    0  501 -0.00000000000E+00 -0.00000000000E+00 -0.18164359244E+04  0.18164359244E+04  0.25500000000E-02 0.  1.
    8880023    1    1    2    0    0  0.18471651442E+03 -0.14756072583E+04 -0.95769483221E+03  0.18874656472E+04  0.65864270000E+03 0.  0.
    8880022    1    1    2    0    0 -0.18471651442E+03  0.14756072583E+04  0.10247658506E+04  0.18124772200E+04  0.15294330000E+03 0.  0.
<mgrwt>
<rscale>  0 0.15925349E+04</rscale>
<asrwt>0</asrwt>
<pdfrwt beam="1">  1        2 0.28977030E+00 0.16264523E+04</pdfrwt>
<pdfrwt beam="2">  1       -2 0.27945168E+00 0.16264523E+04</pdfrwt>
<totfact> 0.30452973E-01</totfact>
</mgrwt>
</event>
<event>
 4    1  0.3057048E-007  0.7071643E+03  0.7818608E-02  0.9968686E-01
         -2   -1    0    0    0  501 -0.00000000000E+00  0.00000000000E+00  0.16288671186E+03  0.16288671188E+03  0.25500000000E-02 0.  1.
          2   -1    0    0  501    0  0.00000000000E+00 -0.00000000000E+00 -0.22001732312E+04  0.22001732312E+04  0.25500000000E-02 0. -1.
    8880023    1    1    2    0    0 -0.12771468754E+03  0.22351758699E+03 -0.70877524457E+03  0.10012211078E+04  0.65864270000E+03 0.  1.
    8880022    1    1    2    0    0  0.12771468754E+03 -0.22351758699E+03 -0.13285112748E+04  0.13618388353E+04  0.15294330000E+03 0.  0.
<mgrwt>
<rscale>  0 0.57044896E+03</rscale>
<asrwt>0</asrwt>
<pdfrwt beam="1">  1        2 0.33848817E+00 0.70716431E+03</pdfrwt>
<pdfrwt beam="2">  1       -2 0.25059496E-01 0.70716431E+03</pdfrwt>
<totfact> 0.76408642E+01</totfact>
</mgrwt>
</event>
<event>
 4    1  0.3057048E-007  0.6670947E+03  0.7818608E-02  0.1017837E+00
         -2   -1    0    0    0  501 -0.00000000000E+00  0.00000000000E+00  0.14822481426E+03  0.14822481428E+03  0.25500000000E-02 0.  1.
          2   -1    0    0  501    0  0.00000000000E+00 -0.00000000000E+00 -0.27020177691E+04  0.27020177691E+04  0.25500000000E-02 0. -1.
    8880023    1    1    2    0    0 -0.10552696514E+03 -0.83150686842E+01 -0.63026136205E+03  0.91773889070E+03  0.65864270000E+03 0.  1.
    8880022    1    1    2    0    0  0.10552696514E+03  0.83150686842E+01 -0.19235315928E+04  0.19325036927E+04  0.15294330000E+03 0.  0.
<mgrwt>
<rscale>  0 0.48475242E+03</rscale>
<asrwt>0</asrwt>
<pdfrwt beam="1">  1        2 0.41569500E+00 0.66709466E+03</pdfrwt>
<pdfrwt beam="2">  1       -2 0.22803820E-01 0.66709466E+03</pdfrwt>
<totfact> 0.47452540E+01</totfact>
</mgrwt>
</event>
<event>
 4    1  0.3057048E-007  0.7914451E+03  0.7818608E-02  0.9729608E-01
          2   -1    0    0  501    0  0.00000000000E+00  0.00000000000E+00  0.85171308471E+03  0.85171308472E+03  0.25500000000E-02 0. -1.
         -2   -1    0    0    0  501 -0.00000000000E+00 -0.00000000000E+00 -0.46892333413E+03  0.46892333414E+03  0.25500000000E-02 0.  1.
    8880023    1    1    2    0    0 -0.43846290209E+03  0.18039188522E+02  0.16991810181E+03  0.80947976900E+03  0.65864270000E+03 0.  0.
    8880022    1    1    2    0    0  0.43846290209E+03 -0.18039188522E+02  0.21287164876E+03  0.51115664986E+03  0.15294330000E+03 0.  0.
<mgrwt>
<rscale>  0 0.69280970E+03</rscale>
<asrwt>0</asrwt>
<pdfrwt beam="1">  1        2 0.13103278E+00 0.79144509E+03</pdfrwt>
<pdfrwt beam="2">  1       -2 0.72142051E-01 0.79144509E+03</pdfrwt>
<totfact> 0.55662147E+01</totfact>
</mgrwt>
</event>
<event>
 4    1  0.3057048E-007  0.6753354E+03  0.7818608E-02  0.1012096E+00
         -2   -1    0    0    0  501 -0.00000000000E+00  0.00000000000E+00  0.35738766157E+03  0.35738766158E+03  0.25500000000E-02 0.  1.
          2   -1    0    0  501    0  0.00000000000E+00 -0.00000000000E+00 -0.16485186910E+04  0.16485186910E+04  0.25500000000E-02 0. -1.
    8880023    1    1    2    0    0  0.14833166860E+03  0.16293151561E+02  0.21813162358E+02  0.67568762828E+03  0.65864270000E+03 0.  1.
    8880022    1    1    2    0    0 -0.14833166860E+03 -0.16293151561E+02 -0.13129441918E+04  0.13302187243E+04  0.15294330000E+03 0.  0.
<mgrwt>
<rscale>  0 0.50650173E+03</rscale>
<asrwt>0</asrwt>
<pdfrwt beam="1">  1        2 0.25361826E+00 0.67533544E+03</pdfrwt>
<pdfrwt beam="2">  1       -2 0.54982718E-01 0.67533544E+03</pdfrwt>
<totfact> 0.33735427E+01</totfact>
</mgrwt>
</event>
<event>
 4    1  0.3057048E-007  0.9221054E+03  0.7818608E-02  0.9491438E-01
          2   -1    0    0  501    0  0.00000000000E+00  0.00000000000E+00  0.17562212517E+04  0.17562212517E+04  0.25500000000E-02 0. -1.
         -2   -1    0    0    0  501 -0.00000000000E+00 -0.00000000000E+00 -0.11111080153E+04  0.11111080154E+04  0.25500000000E-02 0.  1.
    8880023    1    1    2    0    0  0.56001464747E+03  0.32070522144E+03 -0.83590364140E+03  0.12445936479E+04  0.65864270000E+03 0.  1.
    8880022    1    1    2    0    0 -0.56001464747E+03 -0.32070522144E+03  0.14810168778E+04  0.16227356192E+04  0.15294330000E+03 0.  0.
<mgrwt>
<rscale>  0 0.84917996E+03</rscale>
<asrwt>0</asrwt>
<pdfrwt beam="1">  1        2 0.27018788E+00 0.92210544E+03</pdfrwt>
<pdfrwt beam="2">  1       -2 0.17093969E+00 0.92210544E+03</pdfrwt>
<totfact> 0.19260365E+00</totfact>
</mgrwt>
</event>
<event>
 4    1  0.3057048E-007  0.8360470E+03  0.7818608E-02  0.9637679E-01
         -2   -1    0    0    0  501 -0.00000000000E+00  0.00000000000E+00  0.73397163266E+03  0.73397163266E+03  0.25500000000E-02 0.  1.
          2   -1    0    0  501    0  0.00000000000E+00 -0.00000000000E+00 -0.78793902032E+03  0.78793902032E+03  0.25500000000E-02 0. -1.
    8880023    1    1    2    0    0 -0.99035440266E+02 -0.50532801376E+03  0.28899789614E+03  0.88458714108E+03  0.65864270000E+03 0.  1.
    8880022    1    1    2    0    0  0.99035440266E+02  0.50532801376E+03 -0.34296528380E+03  0.63732351191E+03  0.15294330000E+03 0.  0.
<mgrwt>
<rscale>  0 0.74851724E+03</rscale>
<asrwt>0</asrwt>
<pdfrwt beam="1">  1        2 0.12122139E+00 0.83604702E+03</pdfrwt>
<pdfrwt beam="2">  1       -2 0.11291871E+00 0.83604702E+03</pdfrwt>
<totfact> 0.21812118E+01</totfact>
</mgrwt>
</event>
<event>
 4    1  0.3057048E-007  0.6895388E+03  0.7818608E-02  0.1004373E+00
          2   -1    0    0  501    0  0.00000000000E+00  0.00000000000E+00  0.12708933736E+04  0.12708933736E+04  0.25500000000E-02 0. -1.
         -2   -1    0    0    0  501 -0.00000000000E+00 -0.00000000000E+00 -0.79463871983E+03  0.79463871983E+03  0.25500000000E-02 0.  1.
    8880023    1    1    2    0    0 -0.81697934102E+02 -0.18702678037E+03 -0.62772789197E+03  0.93247309968E+03  0.65864270000E+03 0.  1.
    8880022    1    1    2    0    0  0.81697934102E+02  0.18702678037E+03  0.11039825458E+04  0.11330589938E+04  0.15294330000E+03 0.  0.
<mgrwt>
<rscale>  0 0.53773829E+03</rscale>
<asrwt>0</asrwt>
<pdfrwt beam="1">  1        2 0.19552206E+00 0.68953881E+03</pdfrwt>
<pdfrwt beam="2">  1       -2 0.12225211E+00 0.68953881E+03</pdfrwt>
<totfact> 0.89730381E+00</totfact>
</mgrwt>
</event>
<event>
 4    1  0.3057048E-007  0.6699368E+03  0.7818608E-02  0.1015708E+00
          2   -1    0    0  501    0  0.00000000000E+00  0.00000000000E+00  0.10385694520E+04  0.10385694520E+04  0.25500000000E-02 0. -1.
         -2   -1    0    0    0  501 -0.00000000000E+00 -0.00000000000E+00 -0.14575383088E+04  0.14575383088E+04  0.25500000000E-02 0.  1.
    8880023    1    1    2    0    0 -0.63711268620E+02  0.10462296451E+03 -0.13700372397E+04  0.15250630593E+04  0.65864270000E+03 0.  1.
    8880022    1    1    2    0    0  0.63711268620E+02 -0.10462296451E+03  0.95106838285E+03  0.97104470151E+03  0.15294330000E+03 0.  0.
<mgrwt>
<rscale>  0 0.49267686E+03</rscale>
<asrwt>0</asrwt>
<pdfrwt beam="1">  1        2 0.15977992E+00 0.66993679E+03</pdfrwt>
<pdfrwt beam="2">  1       -2 0.22423666E+00 0.66993679E+03</pdfrwt>
<totfact> 0.23073786E+00</totfact>
</mgrwt>
</event>
<event>
 4    1  0.3057048E-007  0.6945454E+03  0.7818608E-02  0.1002063E+00
          2   -1    0    0  501    0  0.00000000000E+00  0.00000000000E+00  0.43491559301E+03  0.43491559302E+03  0.25500000000E-02 0. -1.
         -2   -1    0    0    0  501 -0.00000000000E+00 -0.00000000000E+00 -0.10963031139E+04  0.10963031139E+04  0.25500000000E-02 0.  1.
    8880023    1    1    2    0    0  0.15433057945E+03  0.15736942665E+03 -0.92391394276E+03  0.11558590935E+04  0.65864270000E+03 0.  1.
    8880022    1    1    2    0    0 -0.15433057945E+03 -0.15736942665E+03  0.26252642185E+03  0.37535961341E+03  0.15294330000E+03 0.  0.
<mgrwt>
<rscale>  0 0.54754896E+03</rscale>
<asrwt>0</asrwt>
<pdfrwt beam="1">  1        2 0.66910092E-01 0.69454537E+03</pdfrwt>
<pdfrwt beam="2">  1       -2 0.16866202E+00 0.69454537E+03</pdfrwt>
<totfact> 0.16071670E+01</totfact>
</mgrwt>
</event>
<event>
 4    1  0.3057048E-007  0.7492845E+03  0.7818608E-02  0.9833683E-01
          2   -1    0    0  501    0  0.00000000000E+00  0.00000000000E+00  0.31668227732E+03  0.31668227733E+03  0.25500000000E-02 0. -1.
         -2   -1    0    0    0  501 -0.00000000000E+00 -0.00000000000E+00 -0.21512005175E+04  0.21512005175E+04  0.25500000000E-02 0.  1.
    8880023    1    1    2    0    0  0.31175877587E+03 -0.17442359586E+03 -0.19277580445E+04  0.20682549189E+04  0.65864270000E+03 0.  0.
    8880022    1    1    2    0    0 -0.31175877587E+03  0.17442359586E+03  0.93239804294E+02  0.39962787596E+03  0.15294330000E+03 0.  0.
<mgrwt>
<rscale>  0 0.63585832E+03</rscale>
<asrwt>0</asrwt>
<pdfrwt beam="1">  1        2 0.48720352E-01 0.74928455E+03</pdfrwt>
<pdfrwt beam="2">  1       -2 0.33095392E+00 0.74928455E+03</pdfrwt>
<totfact> 0.22175301E+00</totfact>
</mgrwt>
</event>
<event>
 4    1  0.3057048E-007  0.1005334E+04  0.7818608E-02  0.9374612E-01
          2   -1    0    0  501    0  0.00000000000E+00  0.00000000000E+00  0.45195494368E+03  0.45195494368E+03  0.25500000000E-02 0. -1.
         -2   -1    0    0    0  501 -0.00000000000E+00 -0.00000000000E+00 -0.18786539842E+04  0.18786539842E+04  0.25500000000E-02 0.  1.
    8880023    1    1    2    0    0 -0.75170451494E+03  0.10875373104E+03 -0.10987645708E+04  0.14892887027E+04  0.65864270000E+03 0.  1.
    8880022    1    1    2    0    0  0.75170451494E+03 -0.10875373104E+03 -0.32793446974E+03  0.84132022515E+03  0.15294330000E+03 0.  0.
<mgrwt>
<rscale>  0 0.94194821E+03</rscale>
<asrwt>0</asrwt>
<pdfrwt beam="1">  1        2 0.69531530E-01 0.10053344E+04</pdfrwt>
<pdfrwt beam="2">  1       -2 0.28902369E+00 0.10053344E+04</pdfrwt>
<totfact> 0.25810868E+00</totfact>
</mgrwt>
</event>
<event>
 4    1  0.3057048E-007  0.6774894E+03  0.7818608E-02  0.1010781E+00
         -2   -1    0    0    0  501 -0.00000000000E+00  0.00000000000E+00  0.20615049470E+03  0.20615049472E+03  0.25500000000E-02 0.  1.
          2   -1    0    0  501    0  0.00000000000E+00 -0.00000000000E+00 -0.30139247831E+04  0.30139247831E+04  0.25500000000E-02 0. -1.
    8880023    1    1    2    0    0 -0.13870867905E+03  0.77081562565E+02 -0.36919096061E+03  0.77155287349E+03  0.65864270000E+03 0.  1.
    8880022    1    1    2    0    0  0.13870867905E+03 -0.77081562565E+02 -0.24385833277E+04  0.24485224043E+04  0.15294330000E+03 0.  0.
<mgrwt>
<rscale>  0 0.51165426E+03</rscale>
<asrwt>0</asrwt>
<pdfrwt beam="1">  1        2 0.46368070E+00 0.67748939E+03</pdfrwt>
<pdfrwt beam="2">  1       -2 0.31715463E-01 0.67748939E+03</pdfrwt>
<totfact> 0.16936752E+01</totfact>
</mgrwt>
</event>
<event>
 4    1  0.3057048E-007  0.7237297E+03  0.7818608E-02  0.9910162E-01
          2   -1    0    0  501    0  0.00000000000E+00  0.00000000000E+00  0.37275397034E+04  0.37275397034E+04  0.25500000000E-02 0. -1.
         -2   -1    0    0    0  501 -0.00000000000E+00 -0.00000000000E+00 -0.75554665873E+02  0.75554665916E+02  0.25500000000E-02 0.  1.
    8880023    1    1    2    0    0  0.29724486126E+03 -0.40248928340E+02  0.24162009164E+04  0.25222631819E+04  0.65864270000E+03 0. -1.
    8880022    1    1    2    0    0 -0.29724486126E+03  0.40248928340E+02  0.12357841211E+04  0.12808311875E+04  0.15294330000E+03 0.  1.
<mgrwt>
<rscale>  0 0.59771302E+03</rscale>
<asrwt>0</asrwt>
<pdfrwt beam="1">  1        2 0.57346767E+00 0.72372971E+03</pdfrwt>
<pdfrwt beam="2">  1       -2 0.11623794E-01 0.72372971E+03</pdfrwt>
<totfact> 0.32602761E+01</totfact>
</mgrwt>
</event>
<event>
 4    1  0.3057048E-007  0.7108651E+03  0.7818608E-02  0.9954802E-01
          2   -1    0    0  501    0  0.00000000000E+00  0.00000000000E+00  0.39185285699E+04  0.39185285699E+04  0.25500000000E-02 0. -1.
         -2   -1    0    0    0  501 -0.00000000000E+00 -0.00000000000E+00 -0.11003438633E+03  0.11003438636E+03  0.25500000000E-02 0.  1.
    8880023    1    1    2    0    0 -0.15831296529E+03 -0.21553662378E+03  0.11478632039E+04  0.13501552401E+04  0.65864270000E+03 0.  0.
    8880022    1    1    2    0    0  0.15831296529E+03  0.21553662378E+03  0.26606309796E+04  0.26784077161E+04  0.15294330000E+03 0.  0.
<mgrwt>
<rscale>  0 0.57677284E+03</rscale>
<asrwt>0</asrwt>
<pdfrwt beam="1">  1        2 0.60285037E+00 0.71086513E+03</pdfrwt>
<pdfrwt beam="2">  1       -2 0.16928372E-01 0.71086513E+03</pdfrwt>
<totfact> 0.12527493E+01</totfact>
</mgrwt>
</event>
<event>
 4    1  0.3057048E-007  0.6830272E+03  0.7818608E-02  0.1007661E+00
         -2   -1    0    0    0  501 -0.00000000000E+00  0.00000000000E+00  0.50414158409E+02  0.50414158474E+02  0.25500000000E-02 0.  1.
          2   -1    0    0  501    0  0.00000000000E+00 -0.00000000000E+00 -0.42257839705E+04  0.42257839705E+04  0.25500000000E-02 0. -1.
    8880023    1    1    2    0    0  0.66494233922E+02 -0.16820953357E+03 -0.32495140912E+04  0.33205222429E+04  0.65864270000E+03 0.  0.
    8880022    1    1    2    0    0 -0.66494233922E+02  0.16820953357E+03 -0.92585572082E+03  0.95567588602E+03  0.15294330000E+03 0.  0.
<mgrwt>
<rscale>  0 0.52415072E+03</rscale>
<asrwt>0</asrwt>
<pdfrwt beam="1">  1        2 0.65012033E+00 0.68302719E+03</pdfrwt>
<pdfrwt beam="2">  1       -2 0.77560277E-02 0.68302719E+03</pdfrwt>
<totfact> 0.25768484E+01</totfact>
</mgrwt>
</event>
<event>
 4    1  0.3057048E-007  0.6746624E+03  0.7818608E-02  0.1012520E+00
         -2   -1    0    0    0  501 -0.00000000000E+00  0.00000000000E+00  0.20982783490E+03  0.20982783492E+03  0.25500000000E-02 0.  1.
          2   -1    0    0  501    0  0.00000000000E+00 -0.00000000000E+00 -0.24991128008E+04  0.24991128008E+04  0.25500000000E-02 0. -1.
    8880023    1    1    2    0    0  0.10321497864E+03  0.10346902151E+03 -0.35356147731E+03  0.76169225723E+03  0.65864270000E+03 0.  1.
    8880022    1    1    2    0    0 -0.10321497864E+03 -0.10346902151E+03 -0.19357234886E+04  0.19472483785E+04  0.15294330000E+03 0.  0.
<mgrwt>
<rscale>  0 0.50485309E+03</rscale>
<asrwt>0</asrwt>
<pdfrwt beam="1">  1        2 0.38447887E+00 0.67466242E+03</pdfrwt>
<pdfrwt beam="2">  1       -2 0.32281207E-01 0.67466242E+03</pdfrwt>
<totfact> 0.32846136E+01</totfact>
</mgrwt>
</event>
<event>
 4    1  0.3057048E-007  0.6935098E+03  0.7818608E-02  0.1002527E+00
         -2   -1    0    0    0  501 -0.00000000000E+00  0.00000000000E+00  0.13060488291E+04  0.13060488291E+04  0.25500000000E-02 0.  1.
          2   -1    0    0  501    0  0.00000000000E+00 -0.00000000000E+00 -0.64785782243E+03  0.64785782243E+03  0.25500000000E-02 0. -1.
    8880023    1    1    2    0    0  0.68398258607E+02 -0.20607584816E+03  0.11798236807E+04  0.13685538720E+04  0.65864270000E+03 0.  1.
    8880022    1    1    2    0    0 -0.68398258607E+02  0.20607584816E+03 -0.52163267394E+03  0.58535277954E+03  0.15294330000E+03 0.  0.
<mgrwt>
<rscale>  0 0.54555901E+03</rscale>
<asrwt>0</asrwt>
<pdfrwt beam="1">  1        2 0.99670435E-01 0.69350976E+03</pdfrwt>
<pdfrwt beam="2">  1       -2 0.20093059E+00 0.69350976E+03</pdfrwt>
<totfact> 0.60870365E+00</totfact>
</mgrwt>
</event>
<event>
 4    1  0.3057048E-007  0.1292111E+04  0.7818608E-02  0.9072402E-01
          2   -1    0    0  501    0  0.00000000000E+00  0.00000000000E+00  0.24985824822E+04  0.24985824822E+04  0.25500000000E-02 0. -1.
         -2   -1    0    0    0  501 -0.00000000000E+00 -0.00000000000E+00 -0.77197097289E+03  0.77197097289E+03  0.25500000000E-02 0.  1.
    8880023    1    1    2    0    0  0.10174822657E+03 -0.11069729911E+04  0.10205203891E+03  0.12961353052E+04  0.65864270000E+03 0.  0.
    8880022    1    1    2    0    0 -0.10174822657E+03  0.11069729911E+04  0.16245594704E+04  0.19744181499E+04  0.15294330000E+03 0.  0.
<mgrwt>
<rscale>  0 0.12473375E+04</rscale>
<asrwt>0</asrwt>
<pdfrwt beam="1">  1        2 0.38439731E+00 0.12921115E+04</pdfrwt>
<pdfrwt beam="2">  1       -2 0.11876476E+00 0.12921115E+04</pdfrwt>
<totfact> 0.18440632E+00</totfact>
</mgrwt>
</event>
<event>
 4    1  0.3057048E-007  0.7006413E+03  0.7818608E-02  0.9994551E-01
         -2   -1    0    0    0  501 -0.00000000000E+00  0.00000000000E+00  0.11465345367E+03  0.11465345370E+03  0.25500000000E-02 0.  1.
          2   -1    0    0  501    0  0.00000000000E+00 -0.00000000000E+00 -0.30186463491E+04  0.30186463491E+04  0.25500000000E-02 0. -1.
    8880023    1    1    2    0    0  0.23852695796E+03  0.13891871426E+02 -0.10798905376E+04  0.12872691533E+04  0.65864270000E+03 0.  0.
    8880022    1    1    2    0    0 -0.23852695796E+03 -0.13891871426E+02 -0.18241023579E+04  0.18460306495E+04  0.15294330000E+03 0.  0.
<mgrwt>
<rscale>  0 0.55889812E+03</rscale>
<asrwt>0</asrwt>
<pdfrwt beam="1">  1        2 0.46440707E+00 0.70064135E+03</pdfrwt>
<pdfrwt beam="2">  1       -2 0.17638995E-01 0.70064135E+03</pdfrwt>
<totfact> 0.47900710E+01</totfact>
</mgrwt>
</event>
<event>
 4    1  0.3057048E-007  0.1172330E+04  0.7818608E-02  0.9184500E-01
          2   -1    0    0  501    0  0.00000000000E+00  0.00000000000E+00  0.19935186474E+04  0.19935186474E+04  0.25500000000E-02 0. -1.
         -2   -1    0    0    0  501 -0.00000000000E+00 -0.00000000000E+00 -0.22486238142E+04  0.22486238142E+04  0.25500000000E-02 0.  1.
    8880023    1    1    2    0    0  0.96973516866E+03  0.12723751759E+02  0.16937832353E+04  0.20599174851E+04  0.65864270000E+03 0.  0.
    8880022    1    1    2    0    0 -0.96973516866E+03 -0.12723751759E+02 -0.19488884021E+04  0.21822249765E+04  0.15294330000E+03 0.  1.
<mgrwt>
<rscale>  0 0.11214857E+04</rscale>
<asrwt>0</asrwt>
<pdfrwt beam="1">  1        2 0.30669518E+00 0.11723303E+04</pdfrwt>
<pdfrwt beam="2">  1       -2 0.34594212E+00 0.11723303E+04</pdfrwt>
<totfact> 0.10957633E-01</totfact>
</mgrwt>
</event>
<event>
 4    1  0.3057048E-007  0.6948888E+03  0.7818608E-02  0.1001910E+00
          2   -1    0    0  501    0  0.00000000000E+00  0.00000000000E+00  0.72621701356E+03  0.72621701356E+03  0.25500000000E-02 0. -1.
         -2   -1    0    0    0  501 -0.00000000000E+00 -0.00000000000E+00 -0.42916795206E+03  0.42916795207E+03  0.25500000000E-02 0.  1.
    8880023    1    1    2    0    0 -0.20834628656E+03 -0.75180274122E+02 -0.71994260632E+02  0.69860835134E+03  0.65864270000E+03 0.  0.
    8880022    1    1    2    0    0  0.20834628656E+03  0.75180274122E+02  0.36904332213E+03  0.45677661429E+03  0.15294330000E+03 0.  0.
<mgrwt>
<rscale>  0 0.54820465E+03</rscale>
<asrwt>0</asrwt>
<pdfrwt beam="1">  1        2 0.11172569E+00 0.69488881E+03</pdfrwt>
<pdfrwt beam="2">  1       -2 0.66025839E-01 0.69488881E+03</pdfrwt>
<totfact> 0.83853501E+01</totfact>
</mgrwt>
</event>
<event>
 4    1  0.3057048E-007  0.7627211E+03  0.7818608E-02  0.9798113E-01
         -2   -1    0    0    0  501 -0.00000000000E+00  0.00000000000E+00  0.14680454116E+04  0.14680454116E+04  0.25500000000E-02 0.  1.
          2   -1    0    0  501    0  0.00000000000E+00 -0.00000000000E+00 -0.69535331961E+03  0.69535331961E+03  0.25500000000E-02 0. -1.
    8880023    1    1    2    0    0 -0.16092385264E+03 -0.34933757048E+03  0.12913794188E+04  0.14998013982E+04  0.65864270000E+03 0.  1.
    8880022    1    1    2    0    0  0.16092385264E+03  0.34933757048E+03 -0.51868732675E+03  0.66359733306E+03  0.15294330000E+03 0.  0.
<mgrwt>
<rscale>  0 0.65463898E+03</rscale>
<asrwt>0</asrwt>
<pdfrwt beam="1">  1        2 0.10697743E+00 0.76272107E+03</pdfrwt>
<pdfrwt beam="2">  1       -2 0.22585314E+00 0.76272107E+03</pdfrwt>
<totfact> 0.38400735E+00</totfact>
</mgrwt>
</event>
<event>
 4    1  0.3057048E-007  0.1018011E+04  0.7818608E-02  0.9358363E-01
         -2   -1    0    0    0  501 -0.00000000000E+00  0.00000000000E+00  0.10883900418E+04  0.10883900418E+04  0.25500000000E-02 0.  1.
          2   -1    0    0  501    0  0.00000000000E+00 -0.00000000000E+00 -0.18038299607E+04  0.18038299607E+04  0.25500000000E-02 0. -1.
    8880023    1    1    2    0    0 -0.25193900768E+03  0.73420966775E+03  0.72432795411E+03  0.12493991721E+04  0.65864270000E+03 0.  0.
    8880022    1    1    2    0    0  0.25193900768E+03 -0.73420966775E+03 -0.14397678730E+04  0.16428208305E+04  0.15294330000E+03 0.  0.
<mgrwt>
<rscale>  0 0.95582879E+03</rscale>
<asrwt>0</asrwt>
<pdfrwt beam="1">  1        2 0.27751230E+00 0.10180114E+04</pdfrwt>
<pdfrwt beam="2">  1       -2 0.16744462E+00 0.10180114E+04</pdfrwt>
<totfact> 0.18951158E+00</totfact>
</mgrwt>
</event>
<event>
 4    1  0.3057048E-007  0.7045186E+03  0.7818608E-02  0.9978949E-01
         -2   -1    0    0    0  501 -0.00000000000E+00  0.00000000000E+00  0.23159671985E+03  0.23159671986E+03  0.25500000000E-02 0.  1.
          2   -1    0    0  501    0  0.00000000000E+00 -0.00000000000E+00 -0.11128834644E+04  0.11128834644E+04  0.25500000000E-02 0. -1.
    8880023    1    1    2    0    0  0.47053907299E+02  0.24560561147E+03 -0.50177533168E+03  0.86494212311E+03  0.65864270000E+03 0.  1.
    8880022    1    1    2    0    0 -0.47053907299E+02 -0.24560561147E+03 -0.37951141285E+03  0.47953806113E+03  0.15294330000E+03 0. -1.
<mgrwt>
<rscale>  0 0.56583012E+03</rscale>
<asrwt>0</asrwt>
<pdfrwt beam="1">  1        2 0.17121284E+00 0.70451855E+03</pdfrwt>
<pdfrwt beam="2">  1       -2 0.35630265E-01 0.70451855E+03</pdfrwt>
<totfact> 0.16075352E+02</totfact>
</mgrwt>
</event>
<event>
 4    1  0.3057048E-007  0.1040674E+04  0.7818608E-02  0.9330177E-01
         -2   -1    0    0    0  501 -0.00000000000E+00  0.00000000000E+00  0.15970652527E+04  0.15970652527E+04  0.25500000000E-02 0.  1.
          2   -1    0    0  501    0  0.00000000000E+00 -0.00000000000E+00 -0.12350312288E+04  0.12350312288E+04  0.25500000000E-02 0. -1.
    8880023    1    1    2    0    0  0.36873221223E+03 -0.71640045734E+03  0.12479031872E+04  0.16248894210E+04  0.65864270000E+03 0.  0.
    8880022    1    1    2    0    0 -0.36873221223E+03  0.71640045734E+03 -0.88586916325E+03  0.12072070605E+04  0.15294330000E+03 0.  0.
<mgrwt>
<rscale>  0 0.98051566E+03</rscale>
<asrwt>0</asrwt>
<pdfrwt beam="1">  1        2 0.19000480E+00 0.10406744E+04</pdfrwt>
<pdfrwt beam="2">  1       -2 0.24570235E+00 0.10406744E+04</pdfrwt>
<totfact> 0.12219883E+00</totfact>
</mgrwt>
</event>
<event>
 4    1  0.3057048E-007  0.7486598E+03  0.7818608E-02  0.9835404E-01
         -2   -1    0    0    0  501 -0.00000000000E+00  0.00000000000E+00  0.20147743836E+03  0.20147743838E+03  0.25500000000E-02 0.  1.
          2   -1    0    0  501    0  0.00000000000E+00 -0.00000000000E+00 -0.16092734333E+04  0.16092734333E+04  0.25500000000E-02 0. -1.
    8880023    1    1    2    0    0 -0.34163547278E+03  0.99832352917E+02 -0.98655983474E+03  0.12384634870E+04  0.65864270000E+03 0. -1.
    8880022    1    1    2    0    0  0.34163547278E+03 -0.99832352917E+02 -0.42123616022E+03  0.57228738466E+03  0.15294330000E+03 0.  1.
<mgrwt>
<rscale>  0 0.63496705E+03</rscale>
<asrwt>0</asrwt>
<pdfrwt beam="1">  1        2 0.24758052E+00 0.74865980E+03</pdfrwt>
<pdfrwt beam="2">  1       -2 0.30996530E-01 0.74865980E+03</pdfrwt>
<totfact> 0.10832480E+02</totfact>
</mgrwt>
</event>
<event>
 4    1  0.3057048E-007  0.7090162E+03  0.7818608E-02  0.9961672E-01
          2   -1    0    0  501    0  0.00000000000E+00  0.00000000000E+00  0.91026546946E+03  0.91026546946E+03  0.25500000000E-02 0. -1.
         -2   -1    0    0    0  501 -0.00000000000E+00 -0.00000000000E+00 -0.13351069831E+04  0.13351069831E+04  0.25500000000E-02 0.  1.
    8880023    1    1    2    0    0 -0.13170345973E+03  0.22704174015E+03 -0.12105937922E+04  0.14029402301E+04  0.65864270000E+03 0.  1.
    8880022    1    1    2    0    0  0.13170345973E+03 -0.22704174015E+03  0.78575227862E+03  0.84243222247E+03  0.15294330000E+03 0.  0.
<mgrwt>
<rscale>  0 0.57363249E+03</rscale>
<asrwt>0</asrwt>
<pdfrwt beam="1">  1        2 0.14004084E+00 0.70901619E+03</pdfrwt>
<pdfrwt beam="2">  1       -2 0.20540108E+00 0.70901619E+03</pdfrwt>
<totfact> 0.36453876E+00</totfact>
</mgrwt>
</event>
<event>
 4    1  0.3057048E-007  0.7244329E+03  0.7818608E-02  0.9907862E-01
          2   -1    0    0  501    0  0.00000000000E+00  0.00000000000E+00  0.13339555420E+04  0.13339555420E+04  0.25500000000E-02 0. -1.
         -2   -1    0    0    0  501 -0.00000000000E+00 -0.00000000000E+00 -0.42172746027E+03  0.42172746027E+03  0.25500000000E-02 0.  1.
    8880023    1    1    2    0    0  0.80856674068E+01 -0.30154173585E+03 -0.59410815319E+02  0.72686494462E+03  0.65864270000E+03 0.  1.
    8880022    1    1    2    0    0 -0.80856674068E+01  0.30154173585E+03  0.97163889707E+03  0.10288180577E+04  0.15294330000E+03 0.  0.
<mgrwt>
<rscale>  0 0.59881751E+03</rscale>
<asrwt>0</asrwt>
<pdfrwt beam="1">  1        2 0.20522393E+00 0.72443288E+03</pdfrwt>
<pdfrwt beam="2">  1       -2 0.64881148E-01 0.72443288E+03</pdfrwt>
<totfact> 0.35421555E+01</totfact>
</mgrwt>
</event>
<event>
 4    1  0.3057048E-007  0.7350583E+03  0.7818608E-02  0.9874583E-01
          2   -1    0    0  501    0  0.00000000000E+00  0.00000000000E+00  0.14125754784E+04  0.14125754784E+04  0.25500000000E-02 0. -1.
         -2   -1    0    0    0  501 -0.00000000000E+00 -0.00000000000E+00 -0.24406620659E+03  0.24406620660E+03  0.25500000000E-02 0.  1.
    8880023    1    1    2    0    0  0.11550767750E+03  0.30521867787E+03  0.47529900662E+03  0.87533982935E+03  0.65864270000E+03 0.  1.
    8880022    1    1    2    0    0 -0.11550767750E+03 -0.30521867787E+03  0.69321026522E+03  0.78130185569E+03  0.15294330000E+03 0. -1.
<mgrwt>
<rscale>  0 0.61509073E+03</rscale>
<asrwt>0</asrwt>
<pdfrwt beam="1">  1        2 0.21731930E+00 0.73505828E+03</pdfrwt>
<pdfrwt beam="2">  1       -2 0.37548648E-01 0.73505828E+03</pdfrwt>
<totfact> 0.97006842E+01</totfact>
</mgrwt>
</event>
<event>
 4    1  0.3057048E-007  0.7603779E+03  0.7818608E-02  0.9804130E-01
         -2   -1    0    0    0  501 -0.00000000000E+00  0.00000000000E+00  0.14381111333E+04  0.14381111333E+04  0.25500000000E-02 0.  1.
          2   -1    0    0  501    0  0.00000000000E+00 -0.00000000000E+00 -0.46191835770E+03  0.46191835770E+03  0.25500000000E-02 0. -1.
    8880023    1    1    2    0    0 -0.42721280524E+02  0.37754377668E+03  0.12095018708E+04  0.14286599990E+04  0.65864270000E+03 0.  1.
    8880022    1    1    2    0    0  0.42721280524E+02 -0.37754377668E+03 -0.23330909513E+03  0.47136949202E+03  0.15294330000E+03 0.  0.
<mgrwt>
<rscale>  0 0.65141374E+03</rscale>
<asrwt>0</asrwt>
<pdfrwt beam="1">  1        2 0.71064364E-01 0.76037794E+03</pdfrwt>
<pdfrwt beam="2">  1       -2 0.22124786E+00 0.76037794E+03</pdfrwt>
<totfact> 0.66917128E+00</totfact>
</mgrwt>
</event>
<event>
 4    1  0.3057048E-007  0.1395533E+04  0.7818608E-02  0.8987162E-01
          2   -1    0    0  501    0  0.00000000000E+00  0.00000000000E+00  0.13798986476E+04  0.13798986476E+04  0.25500000000E-02 0. -1.
         -2   -1    0    0    0  501 -0.00000000000E+00 -0.00000000000E+00 -0.16673049859E+04  0.16673049859E+04  0.25500000000E-02 0.  1.
    8880023    1    1    2    0    0 -0.20472107991E+03 -0.12131738548E+04  0.60357140560E+03  0.15204638011E+04  0.65864270000E+03 0.  0.
    8880022    1    1    2    0    0  0.20472107991E+03  0.12131738548E+04 -0.89097774397E+03  0.15267398324E+04  0.15294330000E+03 0.  0.
<mgrwt>
<rscale>  0 0.13548542E+04</rscale>
<asrwt>0</asrwt>
<pdfrwt beam="1">  1        2 0.21229210E+00 0.13955328E+04</pdfrwt>
<pdfrwt beam="2">  1       -2 0.25650846E+00 0.13955328E+04</pdfrwt>
<totfact> 0.82869936E-01</totfact>
</mgrwt>
</event>
<event>
 4    1  0.3057048E-007  0.8527878E+03  0.7818608E-02  0.9606524E-01
         -2   -1    0    0    0  501 -0.00000000000E+00  0.00000000000E+00  0.11796797538E+04  0.11796797538E+04  0.25500000000E-02 0.  1.
          2   -1    0    0  501    0  0.00000000000E+00 -0.00000000000E+00 -0.74642680195E+03  0.74642680196E+03  0.25500000000E-02 0. -1.
    8880023    1    1    2    0    0  0.42770009408E+02 -0.54000691987E+03 -0.38279600729E+03  0.93476186094E+03  0.65864270000E+03 0.  0.
    8880022    1    1    2    0    0 -0.42770009408E+02  0.54000691987E+03  0.81604895916E+03  0.99134469483E+03  0.15294330000E+03 0.  0.
<mgrwt>
<rscale>  0 0.76865902E+03</rscale>
<asrwt>0</asrwt>
<pdfrwt beam="1">  1        2 0.11483489E+00 0.85278775E+03</pdfrwt>
<pdfrwt beam="2">  1       -2 0.18148919E+00 0.85278775E+03</pdfrwt>
<totfact> 0.67279962E+00</totfact>
</mgrwt>
</event>
<event>
 4    1  0.3057048E-007  0.7509808E+03  0.7818608E-02  0.9829043E-01
         -2   -1    0    0    0  501 -0.00000000000E+00  0.00000000000E+00  0.31272747577E+04  0.31272747577E+04  0.25500000000E-02 0.  1.
          2   -1    0    0  501    0  0.00000000000E+00 -0.00000000000E+00 -0.38459153755E+03  0.38459153755E+03  0.25500000000E-02 0. -1.
    8880023    1    1    2    0    0  0.32606451829E+03  0.15441456213E+03  0.29668495176E+04  0.30604196107E+04  0.65864270000E+03 0.  1.
    8880022    1    1    2    0    0 -0.32606451829E+03 -0.15441456213E+03 -0.22416629745E+03  0.45144668457E+03  0.15294330000E+03 0.  0.
<mgrwt>
<rscale>  0 0.63826953E+03</rscale>
<asrwt>0</asrwt>
<pdfrwt beam="1">  1        2 0.59167931E-01 0.75098078E+03</pdfrwt>
<pdfrwt beam="2">  1       -2 0.48111918E+00 0.75098078E+03</pdfrwt>
<totfact> 0.19168574E-01</totfact>
</mgrwt>
</event>
<event>
 4    1  0.3057048E-007  0.6841848E+03  0.7818608E-02  0.1007049E+00
         -2   -1    0    0    0  501 -0.00000000000E+00  0.00000000000E+00  0.70049024763E+03  0.70049024763E+03  0.25500000000E-02 0.  1.
          2   -1    0    0  501    0  0.00000000000E+00 -0.00000000000E+00 -0.18502966596E+04  0.18502966596E+04  0.25500000000E-02 0. -1.
    8880023    1    1    2    0    0  0.12334383890E+02  0.18478776158E+03  0.52277515600E+03  0.86104745738E+03  0.65864270000E+03 0.  1.
    8880022    1    1    2    0    0 -0.12334383890E+02 -0.18478776158E+03 -0.16725815680E+04  0.16897394499E+04  0.15294330000E+03 0.  0.
<mgrwt>
<rscale>  0 0.52664496E+03</rscale>
<asrwt>0</asrwt>
<pdfrwt beam="1">  1        2 0.28466102E+00 0.68418481E+03</pdfrwt>
<pdfrwt beam="2">  1       -2 0.10776773E+00 0.68418481E+03</pdfrwt>
<totfact> 0.58310995E+00</totfact>
</mgrwt>
</event>
<event>
 4    1  0.3057048E-007  0.1174871E+04  0.7818608E-02  0.9181945E-01
         -2   -1    0    0    0  501 -0.00000000000E+00  0.00000000000E+00  0.60649937383E+03  0.60649937384E+03  0.25500000000E-02 0.  1.
          2   -1    0    0  501    0  0.00000000000E+00 -0.00000000000E+00 -0.22192442918E+04  0.22192442918E+04  0.25500000000E-02 0. -1.
    8880023    1    1    2    0    0 -0.64987960904E+03  0.72399504388E+03 -0.35306335847E+03  0.12267747434E+04  0.65864270000E+03 0.  1.
    8880022    1    1    2    0    0  0.64987960904E+03 -0.72399504388E+03 -0.12596815595E+04  0.15989689222E+04  0.15294330000E+03 0.  0.
<mgrwt>
<rscale>  0 0.11241747E+04</rscale>
<asrwt>0</asrwt>
<pdfrwt beam="1">  1        2 0.34142220E+00 0.11748713E+04</pdfrwt>
<pdfrwt beam="2">  1       -2 0.93307597E-01 0.11748713E+04</pdfrwt>
<totfact> 0.48172671E+00</totfact>
</mgrwt>
</event>
<event>
 4    1  0.3057048E-007  0.1042409E+04  0.7818608E-02  0.9328063E-01
         -2   -1    0    0    0  501 -0.00000000000E+00  0.00000000000E+00  0.53591644781E+03  0.53591644782E+03  0.25500000000E-02 0.  1.
          2   -1    0    0  501    0  0.00000000000E+00 -0.00000000000E+00 -0.23462941118E+04  0.23462941118E+04  0.25500000000E-02 0. -1.
    8880023    1    1    2    0    0  0.53688223215E+03 -0.60379061784E+03 -0.18227197004E+03  0.10582244179E+04  0.65864270000E+03 0.  0.
    8880022    1    1    2    0    0 -0.53688223215E+03  0.60379061784E+03 -0.16281056939E+04  0.18239861417E+04  0.15294330000E+03 0.  0.
<mgrwt>
<rscale>  0 0.98239850E+03</rscale>
<asrwt>0</asrwt>
<pdfrwt beam="1">  1        2 0.36096832E+00 0.10424087E+04</pdfrwt>
<pdfrwt beam="2">  1       -2 0.82448686E-01 0.10424087E+04</pdfrwt>
<totfact> 0.55201769E+00</totfact>
</mgrwt>
</event>
<event>
 4    1  0.5179743E-007  0.7667708E+03  0.7818608E-02  0.9787884E-01
          2   -1    0    0  501    0  0.00000000000E+00  0.00000000000E+00  0.24041410263E+04  0.24041410263E+04  0.25500000000E-02 0. -1.
         -2   -1    0    0    0  501 -0.00000000000E+00 -0.00000000000E+00 -0.12249150874E+04  0.12249150874E+04  0.25500000000E-02 0.  1.
    8880023    1    1    2    0    0  0.35805282889E+03 -0.16101371533E+03 -0.10835378902E+04  0.13274003958E+04  0.65864270000E+03 0.  1.
    8880022    1    1    2    0    0 -0.35805282889E+03  0.16101371533E+03  0.22627638291E+04  0.23016557180E+04  0.15294330000E+03 0.  0.
<mgrwt>
<rscale>  0 0.66016842E+03</rscale>
<asrwt>0</asrwt>
<pdfrwt beam="1">  1        2 0.36986785E+00 0.76677079E+03</pdfrwt>
<pdfrwt beam="2">  1       -2 0.18844848E+00 0.76677079E+03</pdfrwt>
<totfact> 0.65893957E-01</totfact>
</mgrwt>
</event>
<event>
 4    1  0.3057048E-007  0.7634147E+03  0.7818608E-02  0.9796346E-01
         -2   -1    0    0    0  501 -0.00000000000E+00  0.00000000000E+00  0.43701372463E+03  0.43701372464E+03  0.25500000000E-02 0.  1.
          2   -1    0    0  501    0  0.00000000000E+00 -0.00000000000E+00 -0.11756772649E+04  0.11756772649E+04  0.25500000000E-02 0. -1.
    8880023    1    1    2    0    0 -0.31023608561E+03 -0.22966347801E+03  0.22018253717E+01  0.76341783857E+03  0.65864270000E+03 0.  1.
    8880022    1    1    2    0    0  0.31023608561E+03  0.22966347801E+03 -0.74086536569E+03  0.84927315101E+03  0.15294330000E+03 0.  0.
<mgrwt>
<rscale>  0 0.65558997E+03</rscale>
<asrwt>0</asrwt>
<pdfrwt beam="1">  1        2 0.18087342E+00 0.76341466E+03</pdfrwt>
<pdfrwt beam="2">  1       -2 0.67232881E-01 0.76341466E+03</pdfrwt>
<totfact> 0.40414740E+01</totfact>
</mgrwt>
</event>
<event>
 4    1  0.3057048E-007  0.8593409E+03  0.7818608E-02  0.9594737E-01
         -2   -1    0    0    0  501 -0.00000000000E+00  0.00000000000E+00  0.24601672630E+03  0.24601672632E+03  0.25500000000E-02 0.  1.
          2   -1    0    0  501    0  0.00000000000E+00 -0.00000000000E+00 -0.27568748186E+04  0.27568748186E+04  0.25500000000E-02 0. -1.
    8880023    1    1    2    0    0  0.34558297002E+03 -0.43038229319E+03 -0.71495481673E+03  0.11178672120E+04  0.65864270000E+03 0.  0.
    8880022    1    1    2    0    0 -0.34558297002E+03  0.43038229319E+03 -0.17959032756E+04  0.18850243329E+04  0.15294330000E+03 0.  0.
<mgrwt>
<rscale>  0 0.77645501E+03</rscale>
<asrwt>0</asrwt>
<pdfrwt beam="1">  1        2 0.42413457E+00 0.85934086E+03</pdfrwt>
<pdfrwt beam="2">  1       -2 0.37848729E-01 0.85934086E+03</pdfrwt>
<totfact> 0.16756091E+01</totfact>
</mgrwt>
</event>
<event>
 4    1  0.3057048E-007  0.7487432E+03  0.7818608E-02  0.9835174E-01
          2   -1    0    0  501    0  0.00000000000E+00  0.00000000000E+00  0.39004345599E+03  0.39004345599E+03  0.25500000000E-02 0. -1.
         -2   -1    0    0    0  501 -0.00000000000E+00 -0.00000000000E+00 -0.94836966148E+03  0.94836966148E+03  0.25500000000E-02 0.  1.
    8880023    1    1    2    0    0 -0.14697640401E+03  0.32435181982E+03 -0.58465338045E+03  0.94996628776E+03  0.65864270000E+03 0.  1.
    8880022    1    1    2    0    0  0.14697640401E+03 -0.32435181982E+03  0.26327174958E+02  0.38844682971E+03  0.15294330000E+03 0.  0.
<mgrwt>
<rscale>  0 0.63508612E+03</rscale>
<asrwt>0</asrwt>
<pdfrwt beam="1">  1        2 0.60006686E-01 0.74874320E+03</pdfrwt>
<pdfrwt beam="2">  1       -2 0.14590302E+00 0.74874320E+03</pdfrwt>
<totfact> 0.26706699E+01</totfact>
</mgrwt>
</event>
<event>
 4    1  0.3057048E-007  0.7826327E+03  0.7818608E-02  0.9749689E-01
         -2   -1    0    0    0  501 -0.00000000000E+00  0.00000000000E+00  0.17976658667E+03  0.17976658669E+03  0.25500000000E-02 0.  1.
          2   -1    0    0  501    0  0.00000000000E+00 -0.00000000000E+00 -0.39330396754E+04  0.39330396754E+04  0.25500000000E-02 0. -1.
    8880023    1    1    2    0    0 -0.40503031441E+03 -0.12105457069E+03 -0.77721292812E+03  0.11029840917E+04  0.65864270000E+03 0.  1.
    8880022    1    1    2    0    0  0.40503031441E+03  0.12105457069E+03 -0.29760601607E+04  0.30098221704E+04  0.15294330000E+03 0.  0.
<mgrwt>
<rscale>  0 0.68133870E+03</rscale>
<asrwt>0</asrwt>
<pdfrwt beam="1">  1        2 0.60508296E+00 0.78263272E+03</pdfrwt>
<pdfrwt beam="2">  1       -2 0.27656401E-01 0.78263272E+03</pdfrwt>
<totfact> 0.50468924E+00</totfact>
</mgrwt>
</event>
<event>
 4    1  0.3057048E-007  0.6952205E+03  0.7818608E-02  0.1001764E+00
         -2   -1    0    0    0  501 -0.00000000000E+00  0.00000000000E+00  0.97593438604E+03  0.97593438605E+03  0.25500000000E-02 0.  1.
          2   -1    0    0  501    0  0.00000000000E+00 -0.00000000000E+00 -0.53004399597E+03  0.53004399597E+03  0.25500000000E-02 0. -1.
    8880023    1    1    2    0    0  0.50597963940E+02 -0.21670534228E+03  0.80050872886E+03  0.10602574171E+04  0.65864270000E+03 0.  1.
    8880022    1    1    2    0    0 -0.50597963940E+02  0.21670534228E+03 -0.35461833879E+03  0.44572096489E+03  0.15294330000E+03 0.  0.
<mgrwt>
<rscale>  0 0.54883597E+03</rscale>
<asrwt>0</asrwt>
<pdfrwt beam="1">  1        2 0.81545230E-01 0.69522052E+03</pdfrwt>
<pdfrwt beam="2">  1       -2 0.15014375E+00 0.69522052E+03</pdfrwt>
<totfact> 0.17517095E+01</totfact>
</mgrwt>
</event>
<event>
 4    1  0.3057048E-007  0.9536827E+03  0.7818608E-02  0.9444835E-01
         -2   -1    0    0    0  501 -0.00000000000E+00  0.00000000000E+00  0.10503862355E+04  0.10503862355E+04  0.25500000000E-02 0.  1.
          2   -1    0    0  501    0  0.00000000000E+00 -0.00000000000E+00 -0.92348379302E+03  0.92348379302E+03  0.25500000000E-02 0. -1.
    8880023    1    1    2    0    0  0.34365312186E+03  0.59799913401E+03  0.59714895458E+03  0.11252099860E+04  0.65864270000E+03 0.  0.
    8880022    1    1    2    0    0 -0.34365312186E+03 -0.59799913401E+03 -0.47024651214E+03  0.84866004244E+03  0.15294330000E+03 0.  0.
<mgrwt>
<rscale>  0 0.88476005E+03</rscale>
<asrwt>0</asrwt>
<pdfrwt beam="1">  1        2 0.14207443E+00 0.95368267E+03</pdfrwt>
<pdfrwt beam="2">  1       -2 0.16159788E+00 0.95368267E+03</pdfrwt>
<totfact> 0.69015821E+00</totfact>
</mgrwt>
</event>
<event>
 4    1  0.3057048E-007  0.6829117E+03  0.7818608E-02  0.1007722E+00
          2   -1    0    0  501    0  0.00000000000E+00  0.00000000000E+00  0.21570842118E+04  0.21570842118E+04  0.25500000000E-02 0. -1.
         -2   -1    0    0    0  501 -0.00000000000E+00 -0.00000000000E+00 -0.20948147944E+03  0.20948147946E+03  0.25500000000E-02 0.  1.
    8880023    1    1    2    0    0  0.14698082666E+03 -0.10466524577E+03  0.38059526669E+03  0.78180633175E+03  0.65864270000E+03 0.  1.
    8880022    1    1    2    0    0 -0.14698082666E+03  0.10466524577E+03  0.15670074657E+04  0.15847593595E+04  0.15294330000E+03 0.  0.
<mgrwt>
<rscale>  0 0.52389983E+03</rscale>
<asrwt>0</asrwt>
<pdfrwt beam="1">  1        2 0.33185909E+00 0.68291170E+03</pdfrwt>
<pdfrwt beam="2">  1       -2 0.32227921E-01 0.68291170E+03</pdfrwt>
<totfact> 0.50971854E+01</totfact>
</mgrwt>
</event>
<event>
 4    1  0.3057048E-007  0.6724416E+03  0.7818608E-02  0.1013970E+00
         -2   -1    0    0    0  501 -0.00000000000E+00  0.00000000000E+00  0.19291333183E+03  0.19291333185E+03  0.25500000000E-02 0.  1.
          2   -1    0    0  501    0  0.00000000000E+00 -0.00000000000E+00 -0.17546821782E+04  0.17546821782E+04  0.25500000000E-02 0. -1.
    8880023    1    1    2    0    0  0.93305078089E+02 -0.98293509383E+02 -0.43145139748E+03  0.79895429546E+03  0.65864270000E+03 0.  1.
    8880022    1    1    2    0    0 -0.93305078089E+02  0.98293509383E+02 -0.11303174489E+04  0.11486412146E+04  0.15294330000E+03 0.  0.
<mgrwt>
<rscale>  0 0.49926924E+03</rscale>
<asrwt>0</asrwt>
<pdfrwt beam="1">  1        2 0.26995109E+00 0.67244156E+03</pdfrwt>
<pdfrwt beam="2">  1       -2 0.29678975E-01 0.67244156E+03</pdfrwt>
<totfact> 0.98529584E+01</totfact>
</mgrwt>
</event>
<event>
 4    1  0.3057048E-007  0.7535365E+03  0.7818608E-02  0.9822137E-01
          2   -1    0    0  501    0  0.00000000000E+00  0.00000000000E+00  0.17621474824E+04  0.17621474824E+04  0.25500000000E-02 0. -1.
         -2   -1    0    0    0  501 -0.00000000000E+00 -0.00000000000E+00 -0.42525456327E+03  0.42525456328E+03  0.25500000000E-02 0.  1.
    8880023    1    1    2    0    0  0.33540463710E+03 -0.14666567141E+03 -0.39895430508E+02  0.75459190388E+03  0.65864270000E+03 0.  1.
    8880022    1    1    2    0    0 -0.33540463710E+03  0.14666567141E+03  0.13767883497E+04  0.14328101418E+04  0.15294330000E+03 0.  0.
<mgrwt>
<rscale>  0 0.64187933E+03</rscale>
<asrwt>0</asrwt>
<pdfrwt beam="1">  1        2 0.27109962E+00 0.75353653E+03</pdfrwt>
<pdfrwt beam="2">  1       -2 0.65423778E-01 0.75353653E+03</pdfrwt>
<totfact> 0.20053302E+01</totfact>
</mgrwt>
</event>
<event>
 4    1  0.3057048E-007  0.8553241E+03  0.7818608E-02  0.9601936E-01
         -2   -1    0    0    0  501 -0.00000000000E+00  0.00000000000E+00  0.61810022535E+03  0.61810022535E+03  0.25500000000E-02 0.  1.
          2   -1    0    0  501    0  0.00000000000E+00 -0.00000000000E+00 -0.31650225379E+04  0.31650225379E+04  0.25500000000E-02 0. -1.
    8880023    1    1    2    0    0  0.18288156822E+03 -0.51412391820E+03  0.27997486035E+03  0.89998066643E+03  0.65864270000E+03 0.  0.
    8880022    1    1    2    0    0 -0.18288156822E+03  0.51412391820E+03 -0.28268971729E+04  0.28831420968E+04  0.15294330000E+03 0.  0.
<mgrwt>
<rscale>  0 0.77168192E+03</rscale>
<asrwt>0</asrwt>
<pdfrwt beam="1">  1        2 0.48692653E+00 0.85532408E+03</pdfrwt>
<pdfrwt beam="2">  1       -2 0.95092345E-01 0.85532408E+03</pdfrwt>
<totfact> 0.13353868E+00</totfact>
</mgrwt>
</event>
<event>
 4    1  0.3057048E-007  0.7934553E+03  0.7818608E-02  0.9725130E-01
         -2   -1    0    0    0  501 -0.00000000000E+00  0.00000000000E+00  0.97067748418E+03  0.97067748418E+03  0.25500000000E-02 0.  1.
          2   -1    0    0  501    0  0.00000000000E+00 -0.00000000000E+00 -0.86931041272E+03  0.86931041272E+03  0.25500000000E-02 0. -1.
    8880023    1    1    2    0    0  0.17228581338E+03 -0.40752751340E+03  0.71506311635E+03  0.10681229060E+04  0.65864270000E+03 0.  0.
    8880022    1    1    2    0    0 -0.17228581338E+03  0.40752751340E+03 -0.61369604489E+03  0.77186499091E+03  0.15294330000E+03 0.  0.
<mgrwt>
<rscale>  0 0.69540082E+03</rscale>
<asrwt>0</asrwt>
<pdfrwt beam="1">  1        2 0.13374006E+00 0.79345528E+03</pdfrwt>
<pdfrwt beam="2">  1       -2 0.14933500E+00 0.79345528E+03</pdfrwt>
<totfact> 0.94402901E+00</totfact>
</mgrwt>
</event>
<event>
 4    1  0.3057048E-007  0.8289913E+03  0.7818608E-02  0.9651298E-01
         -2   -1    0    0    0  501 -0.00000000000E+00  0.00000000000E+00  0.64507360991E+03  0.64507360992E+03  0.25500000000E-02 0.  1.
          2   -1    0    0  501    0  0.00000000000E+00 -0.00000000000E+00 -0.18478499447E+04  0.18478499447E+04  0.25500000000E-02 0. -1.
    8880023    1    1    2    0    0 -0.22305512300E+02 -0.50291029317E+03  0.31478745911E+03  0.88674553821E+03  0.65864270000E+03 0.  0.
    8880022    1    1    2    0    0  0.22305512300E+02  0.50291029317E+03 -0.15175637939E+04  0.16061780164E+04  0.15294330000E+03 0.  0.
<mgrwt>
<rscale>  0 0.73992003E+03</rscale>
<asrwt>0</asrwt>
<pdfrwt beam="1">  1        2 0.28428460E+00 0.82899126E+03</pdfrwt>
<pdfrwt beam="2">  1       -2 0.99242095E-01 0.82899126E+03</pdfrwt>
<totfact> 0.69652824E+00</totfact>
</mgrwt>
</event>
<event>
 4    1  0.3057048E-007  0.7119792E+03  0.7818608E-02  0.9950724E-01
          2   -1    0    0  501    0  0.00000000000E+00  0.00000000000E+00  0.15518756630E+04  0.15518756630E+04  0.25500000000E-02 0. -1.
         -2   -1    0    0    0  501 -0.00000000000E+00 -0.00000000000E+00 -0.44382086432E+03  0.44382086432E+03  0.25500000000E-02 0.  1.
    8880023    1    1    2    0    0 -0.83850630550E+02  0.25704708003E+03 -0.12608978913E+03  0.72305806875E+03  0.65864270000E+03 0.  1.
    8880022    1    1    2    0    0  0.83850630550E+02 -0.25704708003E+03  0.12341445879E+04  0.12726384586E+04  0.15294330000E+03 0.  0.
<mgrwt>
<rscale>  0 0.57864740E+03</rscale>
<asrwt>0</asrwt>
<pdfrwt beam="1">  1        2 0.23875010E+00 0.71197917E+03</pdfrwt>
<pdfrwt beam="2">  1       -2 0.68280133E-01 0.71197917E+03</pdfrwt>
<totfact> 0.23976007E+01</totfact>
</mgrwt>
</event>
<event>
 4    1  0.3057048E-007  0.9837228E+03  0.7818608E-02  0.9403170E-01
          2   -1    0    0  501    0  0.00000000000E+00  0.00000000000E+00  0.39825575869E+04  0.39825575869E+04  0.25500000000E-02 0. -1.
         -2   -1    0    0    0  501 -0.00000000000E+00 -0.00000000000E+00 -0.61422922507E+03  0.61422922507E+03  0.25500000000E-02 0.  1.
    8880023    1    1    2    0    0 -0.73062648468E+03 -0.92362458057E+01 -0.15445436218E+03  0.99577443460E+03  0.65864270000E+03 0.  1.
    8880022    1    1    2    0    0  0.73062648468E+03  0.92362458057E+01  0.35227827240E+04  0.36010123774E+04  0.15294330000E+03 0.  0.
<mgrwt>
<rscale>  0 0.91815269E+03</rscale>
<asrwt>0</asrwt>
<pdfrwt beam="1">  1        2 0.61270119E+00 0.98372281E+03</pdfrwt>
<pdfrwt beam="2">  1       -2 0.94496800E-01 0.98372281E+03</pdfrwt>
<totfact> 0.35162337E-01</totfact>
</mgrwt>
</event>
<event>
 4    1  0.3057048E-007  0.6623392E+03  0.7818608E-02  0.1021878E+00
         -2   -1    0    0    0  501 -0.00000000000E+00  0.00000000000E+00  0.21384901849E+03  0.21384901850E+03  0.25500000000E-02 0.  1.
          2   -1    0    0  501    0  0.00000000000E+00 -0.00000000000E+00 -0.12567069651E+04  0.12567069651E+04  0.25500000000E-02 0. -1.
    8880023    1    1    2    0    0 -0.62513844211E+02  0.31225352916E+02 -0.33354241817E+03  0.74158192694E+03  0.65864270000E+03 0.  0.
    8880022    1    1    2    0    0  0.62513844211E+02 -0.31225352916E+02 -0.70931552840E+03  0.72897405662E+03  0.15294330000E+03 0.  0.
<mgrwt>
<rscale>  0 0.47014845E+03</rscale>
<asrwt>0</asrwt>
<pdfrwt beam="1">  1        2 0.19333953E+00 0.66233920E+03</pdfrwt>
<pdfrwt beam="2">  1       -2 0.32899850E-01 0.66233920E+03</pdfrwt>
<totfact> 0.15412373E+02</totfact>
</mgrwt>
</event>
<event>
 4    1  0.3057048E-007  0.9500230E+03  0.7818608E-02  0.9450081E-01
         -2   -1    0    0    0  501 -0.00000000000E+00  0.00000000000E+00  0.39151825618E+03  0.39151825619E+03  0.25500000000E-02 0.  1.
          2   -1    0    0  501    0  0.00000000000E+00 -0.00000000000E+00 -0.18858535836E+04  0.18858535836E+04  0.25500000000E-02 0. -1.
    8880023    1    1    2    0    0  0.66042345107E+03  0.18048349783E+03 -0.11625424064E+04  0.15013488871E+04  0.65864270000E+03 0.  0.
    8880022    1    1    2    0    0 -0.66042345107E+03 -0.18048349783E+03 -0.33179292099E+03  0.77602295272E+03  0.15294330000E+03 0.  0.
<mgrwt>
<rscale>  0 0.88066354E+03</rscale>
<asrwt>0</asrwt>
<pdfrwt beam="1">  1        2 0.29013132E+00 0.95002296E+03</pdfrwt>
<pdfrwt beam="2">  1       -2 0.60233579E-01 0.95002296E+03</pdfrwt>
<totfact> 0.20007105E+01</totfact>
</mgrwt>
</event>
<event>
 4    1  0.3057048E-007  0.6798272E+03  0.7818608E-02  0.1009422E+00
          2   -1    0    0  501    0  0.00000000000E+00  0.00000000000E+00  0.23929487867E+03  0.23929487868E+03  0.25500000000E-02 0. -1.
         -2   -1    0    0    0  501 -0.00000000000E+00 -0.00000000000E+00 -0.13801652448E+04  0.13801652448E+04  0.25500000000E-02 0.  1.
    8880023    1    1    2    0    0 -0.98441902419E+02  0.13661632320E+03 -0.12046253060E+04  0.13832162383E+04  0.65864270000E+03 0.  1.
    8880022    1    1    2    0    0  0.98441902419E+02 -0.13661632320E+03  0.63754939827E+02  0.23624388518E+03  0.15294330000E+03 0.  0.
<mgrwt>
<rscale>  0 0.51705175E+03</rscale>
<asrwt>0</asrwt>
<pdfrwt beam="1">  1        2 0.36814597E-01 0.67982721E+03</pdfrwt>
<pdfrwt beam="2">  1       -2 0.21233311E+00 0.67982721E+03</pdfrwt>
<totfact> 0.16031780E+01</totfact>
</mgrwt>
</event>
<event>
 4    1  0.3057048E-007  0.8589154E+03  0.7818608E-02  0.9595496E-01
          2   -1    0    0  501    0  0.00000000000E+00  0.00000000000E+00  0.62012360273E+03  0.62012360274E+03  0.25500000000E-02 0. -1.
         -2   -1    0    0    0  501 -0.00000000000E+00 -0.00000000000E+00 -0.17786112138E+04  0.17786112138E+04  0.25500000000E-02 0.  1.
    8880023    1    1    2    0    0  0.26141604769E+03  0.48537309739E+03 -0.15028463406E+04  0.17309773896E+04  0.65864270000E+03 0.  0.
    8880022    1    1    2    0    0 -0.26141604769E+03 -0.48537309739E+03  0.34435872950E+03  0.66775742696E+03  0.15294330000E+03 0.  0.
<mgrwt>
<rscale>  0 0.77595021E+03</rscale>
<asrwt>0</asrwt>
<pdfrwt beam="1">  1        2 0.95403632E-01 0.85891536E+03</pdfrwt>
<pdfrwt beam="2">  1       -2 0.27363249E+00 0.85891536E+03</pdfrwt>
<totfact> 0.22371820E+00</totfact>
</mgrwt>
</event>
<event>
 4    1  0.4573357E-007  0.1052227E+04  0.7818608E-02  0.9316209E-01
         -2   -1    0    0    0  501 -0.00000000000E+00  0.00000000000E+00  0.24830222961E+04  0.24830222961E+04  0.25500000000E-02 0.  1.
          2   -1    0    0  501    0  0.00000000000E+00 -0.00000000000E+00 -0.18631589188E+04  0.18631589188E+04  0.25500000000E-02 0. -1.
    8880023    1    1    2    0    0  0.44702961639E+03 -0.68813949272E+03  0.22671760974E+04  0.24994537608E+04  0.65864270000E+03 0.  1.
    8880022    1    1    2    0    0 -0.44702961639E+03  0.68813949272E+03 -0.16473127200E+04  0.18467274541E+04  0.15294330000E+03 0.  0.
<mgrwt>
<rscale>  0 0.99304224E+03</rscale>
<asrwt>0</asrwt>
<pdfrwt beam="1">  1        2 0.28663983E+00 0.10522270E+04</pdfrwt>
<pdfrwt beam="2">  1       -2 0.38200343E+00 0.10522270E+04</pdfrwt>
<totfact> 0.78091720E-02</totfact>
</mgrwt>
</event>
<event>
 4    1  0.3057048E-007  0.1046186E+04  0.7818608E-02  0.9323480E-01
         -2   -1    0    0    0  501 -0.00000000000E+00  0.00000000000E+00  0.65667153732E+03  0.65667153732E+03  0.25500000000E-02 0.  1.
          2   -1    0    0  501    0  0.00000000000E+00 -0.00000000000E+00 -0.21374695621E+04  0.21374695621E+04  0.25500000000E-02 0. -1.
    8880023    1    1    2    0    0  0.38536912854E+03 -0.71567163867E+03  0.57310692700E+02  0.10477547334E+04  0.65864270000E+03 0.  1.
    8880022    1    1    2    0    0 -0.38536912854E+03  0.71567163867E+03 -0.15381087175E+04  0.17463863661E+04  0.15294330000E+03 0. -1.
<mgrwt>
<rscale>  0 0.98649670E+03</rscale>
<asrwt>0</asrwt>
<pdfrwt beam="1">  1        2 0.32884147E+00 0.10461862E+04</pdfrwt>
<pdfrwt beam="2">  1       -2 0.10102639E+00 0.10461862E+04</pdfrwt>
<totfact> 0.44984172E+00</totfact>
</mgrwt>
</event>
<event>
 4    1  0.3057048E-007  0.6772475E+03  0.7818608E-02  0.1010926E+00
         -2   -1    0    0    0  501 -0.00000000000E+00  0.00000000000E+00  0.10028207612E+03  0.10028207616E+03  0.25500000000E-02 0.  1.
          2   -1    0    0  501    0  0.00000000000E+00 -0.00000000000E+00 -0.22525733514E+04  0.22525733514E+04  0.25500000000E-02 0. -1.
    8880023    1    1    2    0    0  0.42787359747E+02 -0.15173393876E+03 -0.12233812057E+04  0.13983296204E+04  0.65864270000E+03 0.  1.
    8880022    1    1    2    0    0 -0.42787359747E+02  0.15173393876E+03 -0.92891006952E+03  0.95452580720E+03  0.15294330000E+03 0.  0.
<mgrwt>
<rscale>  0 0.51108456E+03</rscale>
<asrwt>0</asrwt>
<pdfrwt beam="1">  1        2 0.34654971E+00 0.67724748E+03</pdfrwt>
<pdfrwt beam="2">  1       -2 0.15428013E-01 0.67724748E+03</pdfrwt>
<totfact> 0.16729760E+02</totfact>
</mgrwt>
</event>
<event>
 4    1  0.3057048E-007  0.7537767E+03  0.7818608E-02  0.9821494E-01
         -2   -1    0    0    0  501 -0.00000000000E+00  0.00000000000E+00  0.29692626979E+03  0.29692626981E+03  0.25500000000E-02 0.  1.
          2   -1    0    0  501    0  0.00000000000E+00 -0.00000000000E+00 -0.23380343437E+04  0.23380343437E+04  0.25500000000E-02 0. -1.
    8880023    1    1    2    0    0 -0.35596703532E+03  0.87502082613E+02 -0.24072126819E+03  0.79128129001E+03  0.65864270000E+03 0.  1.
    8880022    1    1    2    0    0  0.35596703532E+03 -0.87502082613E+02 -0.18003868057E+04  0.18436793235E+04  0.15294330000E+03 0.  0.
<mgrwt>
<rscale>  0 0.64221719E+03</rscale>
<asrwt>0</asrwt>
<pdfrwt beam="1">  1        2 0.35969758E+00 0.75377672E+03</pdfrwt>
<pdfrwt beam="2">  1       -2 0.45680966E-01 0.75377672E+03</pdfrwt>
<totfact> 0.20406670E+01</totfact>
</mgrwt>
</event>
<event>
 4    1  0.3057048E-007  0.6753291E+03  0.7818608E-02  0.1012100E+00
         -2   -1    0    0    0  501 -0.00000000000E+00  0.00000000000E+00  0.37781660278E+03  0.37781660279E+03  0.25500000000E-02 0.  1.
          2   -1    0    0  501    0  0.00000000000E+00 -0.00000000000E+00 -0.54330807855E+03  0.54330807855E+03  0.25500000000E-02 0. -1.
    8880023    1    1    2    0    0  0.71435830786E+02 -0.13098142067E+03 -0.47375132132E+02  0.67698878860E+03  0.65864270000E+03 0.  0.
    8880022    1    1    2    0    0 -0.71435830786E+02  0.13098142067E+03 -0.11811634363E+03  0.24413589275E+03  0.15294330000E+03 0.  1.
<mgrwt>
<rscale>  0 0.50648633E+03</rscale>
<asrwt>0</asrwt>
<pdfrwt beam="1">  1        2 0.83585858E-01 0.67532912E+03</pdfrwt>
<pdfrwt beam="2">  1       -2 0.58125632E-01 0.67532912E+03</pdfrwt>
<totfact> 0.15684122E+02</totfact>
</mgrwt>
</event>
<event>
 4    1  0.3057048E-007  0.6876600E+03  0.7818608E-02  0.1005285E+00
         -2   -1    0    0    0  501 -0.00000000000E+00  0.00000000000E+00  0.92505497869E+02  0.92505497905E+02  0.25500000000E-02 0.  1.
          2   -1    0    0  501    0  0.00000000000E+00 -0.00000000000E+00 -0.25140105820E+04  0.25140105820E+04  0.25500000000E-02 0. -1.
    8880023    1    1    2    0    0 -0.18726383328E+03  0.63231834777E+02 -0.14725081088E+04  0.16251634825E+04  0.65864270000E+03 0.  0.
    8880022    1    1    2    0    0  0.18726383328E+03 -0.63231834777E+02 -0.94899697537E+03  0.98135259742E+03  0.15294330000E+03 0.  0.
<mgrwt>
<rscale>  0 0.53392286E+03</rscale>
<asrwt>0</asrwt>
<pdfrwt beam="1">  1        2 0.38677081E+00 0.68765996E+03</pdfrwt>
<pdfrwt beam="2">  1       -2 0.14231617E-01 0.68765996E+03</pdfrwt>
<totfact> 0.13680358E+02</totfact>
</mgrwt>
</event>
<event>
 4    1  0.3057048E-007  0.7598647E+03  0.7818608E-02  0.9805458E-01
          2   -1    0    0  501    0  0.00000000000E+00  0.00000000000E+00  0.13752295749E+04  0.13752295749E+04  0.25500000000E-02 0. -1.
         -2   -1    0    0    0  501 -0.00000000000E+00 -0.00000000000E+00 -0.76379050424E+03  0.76379050425E+03  0.25500000000E-02 0.  1.
    8880023    1    1    2    0    0 -0.13213383230E+03 -0.35514044139E+03 -0.53013277643E+03  0.92651770067E+03  0.65864270000E+03 0.  1.
    8880022    1    1    2    0    0  0.13213383230E+03  0.35514044139E+03  0.11415718471E+04  0.12125023785E+04  0.15294330000E+03 0.  0.
<mgrwt>
<rscale>  0 0.65070456E+03</rscale>
<asrwt>0</asrwt>
<pdfrwt beam="1">  1        2 0.21157378E+00 0.75986465E+03</pdfrwt>
<pdfrwt beam="2">  1       -2 0.11750623E+00 0.75986465E+03</pdfrwt>
<totfact> 0.85414895E+00</totfact>
</mgrwt>
</event>
<event>
 4    1  0.3057048E-007  0.8113465E+03  0.7818608E-02  0.9686779E-01
          2   -1    0    0  501    0  0.00000000000E+00  0.00000000000E+00  0.24666996184E+04  0.24666996184E+04  0.25500000000E-02 0. -1.
         -2   -1    0    0    0  501 -0.00000000000E+00 -0.00000000000E+00 -0.22352637456E+03  0.22352637457E+03  0.25500000000E-02 0.  1.
    8880023    1    1    2    0    0 -0.37636845086E+03 -0.28778413566E+03  0.70963907606E+03  0.10779010827E+04  0.65864270000E+03 0.  0.
    8880022    1    1    2    0    0  0.37636845086E+03  0.28778413566E+03  0.15335341678E+04  0.16123249103E+04  0.15294330000E+03 0.  0.
<mgrwt>
<rscale>  0 0.71809446E+03</rscale>
<asrwt>0</asrwt>
<pdfrwt beam="1">  1        2 0.37949225E+00 0.81134649E+03</pdfrwt>
<pdfrwt beam="2">  1       -2 0.34388673E-01 0.81134649E+03</pdfrwt>
<totfact> 0.29810784E+01</totfact>
</mgrwt>
</event>
<event>
 4    1  0.3057048E-007  0.6782027E+03  0.7818608E-02  0.1010359E+00
         -2   -1    0    0    0  501 -0.00000000000E+00  0.00000000000E+00  0.72825758358E+02  0.72825758402E+02  0.25500000000E-02 0.  1.
          2   -1    0    0  501    0  0.00000000000E+00 -0.00000000000E+00 -0.43522075855E+04  0.43522075855E+04  0.25500000000E-02 0. -1.
    8880023    1    1    2    0    0  0.15964916458E+03  0.25707340446E+02 -0.16183925954E+04  0.17547516982E+04  0.65864270000E+03 0.  1.
    8880022    1    1    2    0    0 -0.15964916458E+03 -0.25707340446E+02 -0.26609892317E+04  0.26702816457E+04  0.15294330000E+03 0.  0.
<mgrwt>
<rscale>  0 0.51332162E+03</rscale>
<asrwt>0</asrwt>
<pdfrwt beam="1">  1        2 0.66957019E+00 0.67820272E+03</pdfrwt>
<pdfrwt beam="2">  1       -2 0.11203966E-01 0.67820272E+03</pdfrwt>
<totfact> 0.11041000E+01</totfact>
</mgrwt>
</event>
<event>
 4    1  0.3057048E-007  0.9594728E+03  0.7818608E-02  0.9436614E-01
          2   -1    0    0  501    0  0.00000000000E+00  0.00000000000E+00  0.18663548608E+04  0.18663548608E+04  0.25500000000E-02 0. -1.
         -2   -1    0    0    0  501 -0.00000000000E+00 -0.00000000000E+00 -0.75179222404E+03  0.75179222404E+03  0.25500000000E-02 0.  1.
    8880023    1    1    2    0    0  0.29526946657E+03  0.63213430202E+03 -0.32344250544E+03  0.10125231327E+04  0.65864270000E+03 0.  0.
    8880022    1    1    2    0    0 -0.29526946657E+03 -0.63213430202E+03  0.14380051422E+04  0.16056239522E+04  0.15294330000E+03 0.  0.
<mgrwt>
<rscale>  0 0.89122797E+03</rscale>
<asrwt>0</asrwt>
<pdfrwt beam="1">  1        2 0.28713151E+00 0.95947279E+03</pdfrwt>
<pdfrwt beam="2">  1       -2 0.11566034E+00 0.95947279E+03</pdfrwt>
<totfact> 0.46215358E+00</totfact>
</mgrwt>
</event>
<event>
 4    1  0.4463891E-007  0.8404547E+03  0.7818608E-02  0.9629323E-01
         -2   -1    0    0    0  501 -0.00000000000E+00  0.00000000000E+00  0.82846873372E+03  0.82846873372E+03  0.25500000000E-02 0.  1.
          2   -1    0    0  501    0  0.00000000000E+00 -0.00000000000E+00 -0.25463553503E+04  0.25463553503E+04  0.25500000000E-02 0. -1.
    8880023    1    1    2    0    0 -0.16460124954E+02  0.52180742503E+03  0.57497317813E+03  0.10183114879E+04  0.65864270000E+03 0.  1.
    8880022    1    1    2    0    0  0.16460124954E+02 -0.52180742503E+03 -0.22928597947E+04  0.23565125961E+04  0.15294330000E+03 0.  0.
<mgrwt>
<rscale>  0 0.75385396E+03</rscale>
<asrwt>0</asrwt>
<pdfrwt beam="1">  1        2 0.39174697E+00 0.84045472E+03</pdfrwt>
<pdfrwt beam="2">  1       -2 0.12745673E+00 0.84045472E+03</pdfrwt>
<totfact> 0.15450645E+00</totfact>
</mgrwt>
</event>
<event>
 4    1  0.3057048E-007  0.7847251E+03  0.7818608E-02  0.9744852E-01
         -2   -1    0    0    0  501 -0.00000000000E+00  0.00000000000E+00  0.32728801565E+03  0.32728801566E+03  0.25500000000E-02 0.  1.
          2   -1    0    0  501    0  0.00000000000E+00 -0.00000000000E+00 -0.11978737781E+04  0.11978737781E+04  0.25500000000E-02 0. -1.
    8880023    1    1    2    0    0 -0.81784191129E+01 -0.42651663719E+03 -0.43813448981E+03  0.89875211586E+03  0.65864270000E+03 0.  1.
    8880022    1    1    2    0    0  0.81784191129E+01  0.42651663719E+03 -0.43245127262E+03  0.62640967788E+03  0.15294330000E+03 0. -1.
<mgrwt>
<rscale>  0 0.68407956E+03</rscale>
<asrwt>0</asrwt>
<pdfrwt beam="1">  1        2 0.18428827E+00 0.78472513E+03</pdfrwt>
<pdfrwt beam="2">  1       -2 0.50352003E-01 0.78472513E+03</pdfrwt>
<totfact> 0.71822957E+01</totfact>
</mgrwt>
</event>
<event>
 4    1  0.3057048E-007  0.8559971E+03  0.7818608E-02  0.9600724E-01
         -2   -1    0    0    0  501 -0.00000000000E+00  0.00000000000E+00  0.39861657385E+03  0.39861657386E+03  0.25500000000E-02 0.  1.
          2   -1    0    0  501    0  0.00000000000E+00 -0.00000000000E+00 -0.13179154183E+04  0.13179154184E+04  0.25500000000E-02 0. -1.
    8880023    1    1    2    0    0  0.45149626412E+03 -0.30833734000E+03 -0.70767654612E+03  0.11106471501E+04  0.65864270000E+03 0.  1.
    8880022    1    1    2    0    0 -0.45149626412E+03  0.30833734000E+03 -0.21162229838E+03  0.60588484215E+03  0.15294330000E+03 0.  0.
<mgrwt>
<rscale>  0 0.77248285E+03</rscale>
<asrwt>0</asrwt>
<pdfrwt beam="1">  1        2 0.20275622E+00 0.85599708E+03</pdfrwt>
<pdfrwt beam="2">  1       -2 0.61325628E-01 0.85599708E+03</pdfrwt>
<totfact> 0.40282031E+01</totfact>
</mgrwt>
</event>
<event>
 4    1  0.3057048E-007  0.1337336E+04  0.7818608E-02  0.9033971E-01
          2   -1    0    0  501    0  0.00000000000E+00  0.00000000000E+00  0.14887729460E+04  0.14887729460E+04  0.25500000000E-02 0. -1.
         -2   -1    0    0    0  501 -0.00000000000E+00 -0.00000000000E+00 -0.15812345277E+04  0.15812345277E+04  0.25500000000E-02 0.  1.
    8880023    1    1    2    0    0  0.11636987561E+04  0.21492669652E+02  0.83267277652E+03  0.15753764277E+04  0.65864270000E+03 0.  0.
    8880022    1    1    2    0    0 -0.11636987561E+04 -0.21492669652E+02 -0.92513435830E+03  0.14946310460E+04  0.15294330000E+03 0.  0.
<mgrwt>
<rscale>  0 0.12944593E+04</rscale>
<asrwt>0</asrwt>
<pdfrwt beam="1">  1        2 0.22904199E+00 0.13373358E+04</pdfrwt>
<pdfrwt beam="2">  1       -2 0.24326685E+00 0.13373358E+04</pdfrwt>
<totfact> 0.87094051E-01</totfact>
</mgrwt>
</event>
<event>
 4    1  0.3057048E-007  0.7938968E+03  0.7818608E-02  0.9724151E-01
         -2   -1    0    0    0  501 -0.00000000000E+00  0.00000000000E+00  0.65287305861E+03  0.65287305861E+03  0.25500000000E-02 0.  1.
          2   -1    0    0  501    0  0.00000000000E+00 -0.00000000000E+00 -0.99140160459E+03  0.99140160459E+03  0.25500000000E-02 0. -1.
    8880023    1    1    2    0    0 -0.24789008982E+03  0.36744039192E+03  0.30291959435E+03  0.84972491146E+03  0.65864270000E+03 0.  1.
    8880022    1    1    2    0    0  0.24789008982E+03 -0.36744039192E+03 -0.64144814034E+03  0.79454975175E+03  0.15294330000E+03 0.  0.
<mgrwt>
<rscale>  0 0.69596875E+03</rscale>
<asrwt>0</asrwt>
<pdfrwt beam="1">  1        2 0.15252332E+00 0.79389681E+03</pdfrwt>
<pdfrwt beam="2">  1       -2 0.10044201E+00 0.79389681E+03</pdfrwt>
<totfact> 0.21101813E+01</totfact>
</mgrwt>
</event>
<event>
 4    1  0.3057048E-007  0.1089774E+04  0.7818608E-02  0.9272527E-01
          2   -1    0    0  501    0  0.00000000000E+00  0.00000000000E+00  0.24466732240E+04  0.24466732240E+04  0.25500000000E-02 0. -1.
         -2   -1    0    0    0  501 -0.00000000000E+00 -0.00000000000E+00 -0.45306737503E+03  0.45306737504E+03  0.25500000000E-02 0.  1.
    8880023    1    1    2    0    0 -0.77746129963E+03 -0.38646054560E+03  0.15961750705E+04  0.19327138660E+04  0.65864270000E+03 0.  0.
    8880022    1    1    2    0    0  0.77746129963E+03  0.38646054560E+03  0.39743077841E+03  0.96702673302E+03  0.15294330000E+03 0.  0.
<mgrwt>
<rscale>  0 0.10335186E+04</rscale>
<asrwt>0</asrwt>
<pdfrwt beam="1">  1        2 0.37641127E+00 0.10897743E+04</pdfrwt>
<pdfrwt beam="2">  1       -2 0.69702673E-01 0.10897743E+04</pdfrwt>
<totfact> 0.70068169E+00</totfact>
</mgrwt>
</event>
<event>
 4    1  0.3057048E-007  0.8263800E+03  0.7818608E-02  0.9656417E-01
          2   -1    0    0  501    0  0.00000000000E+00  0.00000000000E+00  0.27957276406E+04  0.27957276406E+04  0.25500000000E-02 0. -1.
         -2   -1    0    0    0  501 -0.00000000000E+00 -0.00000000000E+00 -0.25008871998E+03  0.25008871999E+03  0.25500000000E-02 0.  1.
    8880023    1    1    2    0    0 -0.47091814707E+03 -0.16531747682E+03  0.57380949425E+03  0.10060622800E+04  0.65864270000E+03 0.  0.
    8880022    1    1    2    0    0  0.47091814707E+03  0.16531747682E+03  0.19718294264E+04  0.20397540805E+04  0.15294330000E+03 0.  0.
<mgrwt>
<rscale>  0 0.73672053E+03</rscale>
<asrwt>0</asrwt>
<pdfrwt beam="1">  1        2 0.43011194E+00 0.82638004E+03</pdfrwt>
<pdfrwt beam="2">  1       -2 0.38475188E-01 0.82638004E+03</pdfrwt>
<totfact> 0.15470417E+01</totfact>
</mgrwt>
</event>
<event>
 4    1  0.3057048E-007  0.6693991E+03  0.7818608E-02  0.1016097E+00
          2   -1    0    0  501    0  0.00000000000E+00  0.00000000000E+00  0.58234813156E+03  0.58234813157E+03  0.25500000000E-02 0. -1.
         -2   -1    0    0    0  501 -0.00000000000E+00 -0.00000000000E+00 -0.85185538573E+03  0.85185538574E+03  0.25500000000E-02 0.  1.
    8880023    1    1    2    0    0  0.60084728424E+02  0.10331859884E+03 -0.69597032214E+03  0.96564476026E+03  0.65864270000E+03 0.  0.
    8880022    1    1    2    0    0 -0.60084728424E+02 -0.10331859884E+03  0.42646306796E+03  0.46855875705E+03  0.15294330000E+03 0.  0.
<mgrwt>
<rscale>  0 0.49121626E+03</rscale>
<asrwt>0</asrwt>
<pdfrwt beam="1">  1        2 0.89592021E-01 0.66939907E+03</pdfrwt>
<pdfrwt beam="2">  1       -2 0.13105467E+00 0.66939907E+03</pdfrwt>
<totfact> 0.22332021E+01</totfact>
</mgrwt>
</event>
<event>
 4    1  0.3057048E-007  0.7378059E+03  0.7818608E-02  0.9866385E-01
         -2   -1    0    0    0  501 -0.00000000000E+00  0.00000000000E+00  0.48585321301E+03  0.48585321302E+03  0.25500000000E-02 0.  1.
          2   -1    0    0  501    0  0.00000000000E+00 -0.00000000000E+00 -0.67766037157E+03  0.67766037157E+03  0.25500000000E-02 0. -1.
    8880023    1    1    2    0    0  0.99971334907E+02 -0.31710092845E+03  0.24832251657E+02  0.73822362033E+03  0.65864270000E+03 0.  1.
    8880022    1    1    2    0    0 -0.99971334907E+02  0.31710092845E+03 -0.21663941021E+03  0.42528996426E+03  0.15294330000E+03 0.  0.
<mgrwt>
<rscale>  0 0.61918428E+03</rscale>
<asrwt>0</asrwt>
<pdfrwt beam="1">  1        2 0.10425544E+00 0.73780585E+03</pdfrwt>
<pdfrwt beam="2">  1       -2 0.74746648E-01 0.73780585E+03</pdfrwt>
<totfact> 0.69582609E+01</totfact>
</mgrwt>
</event>
<event>
 4    1  0.3057048E-007  0.6781376E+03  0.7818608E-02  0.1010397E+00
         -2   -1    0    0    0  501 -0.00000000000E+00  0.00000000000E+00  0.12754948986E+04  0.12754948986E+04  0.25500000000E-02 0.  1.
          2   -1    0    0  501    0  0.00000000000E+00 -0.00000000000E+00 -0.22718015287E+03  0.22718015289E+03  0.25500000000E-02 0. -1.
    8880023    1    1    2    0    0  0.14923347604E+03  0.61560867640E+02  0.10828136142E+04  0.12776368420E+04  0.65864270000E+03 0.  1.
    8880022    1    1    2    0    0 -0.14923347604E+03 -0.61560867640E+02 -0.34498868414E+02  0.22503820950E+03  0.15294330000E+03 0.  0.
<mgrwt>
<rscale>  0 0.51317013E+03</rscale>
<asrwt>0</asrwt>
<pdfrwt beam="1">  1        2 0.34950793E-01 0.67813758E+03</pdfrwt>
<pdfrwt beam="2">  1       -2 0.19622998E+00 0.67813758E+03</pdfrwt>
<totfact> 0.21567357E+01</totfact>
</mgrwt>
</event>
<event>
 4    1  0.3057048E-007  0.7339348E+03  0.7818608E-02  0.9877980E-01
         -2   -1    0    0    0  501 -0.00000000000E+00  0.00000000000E+00  0.71853683190E+03  0.71853683191E+03  0.25500000000E-02 0.  1.
          2   -1    0    0  501    0  0.00000000000E+00 -0.00000000000E+00 -0.63052582321E+03  0.63052582321E+03  0.25500000000E-02 0. -1.
    8880023    1    1    2    0    0  0.16045501026E+03 -0.28125489838E+03  0.43272293237E+03  0.85200321047E+03  0.65864270000E+03 0.  0.
    8880022    1    1    2    0    0 -0.16045501026E+03  0.28125489838E+03 -0.34471192368E+03  0.49705944465E+03  0.15294330000E+03 0.  0.
<mgrwt>
<rscale>  0 0.61340430E+03</rscale>
<asrwt>0</asrwt>
<pdfrwt beam="1">  1        2 0.97003973E-01 0.73393483E+03</pdfrwt>
<pdfrwt beam="2">  1       -2 0.11054413E+00 0.73393483E+03</pdfrwt>
<totfact> 0.30739527E+01</totfact>
</mgrwt>
</event>
<event>
 4    1  0.4447370E-007  0.6699102E+03  0.7818608E-02  0.1015727E+00
         -2   -1    0    0    0  501 -0.00000000000E+00  0.00000000000E+00  0.12251983004E+04  0.12251983004E+04  0.25500000000E-02 0.  1.
          2   -1    0    0  501    0  0.00000000000E+00 -0.00000000000E+00 -0.21623762804E+04  0.21623762804E+04  0.25500000000E-02 0. -1.
    8880023    1    1    2    0    0  0.12020095009E+03 -0.22830785368E+02  0.11286459420E+04  0.13124867169E+04  0.65864270000E+03 0.  1.
    8880022    1    1    2    0    0 -0.12020095009E+03  0.22830785368E+02 -0.20658239220E+04  0.20750878639E+04  0.15294330000E+03 0.  0.
<mgrwt>
<rscale>  0 0.49260513E+03</rscale>
<asrwt>0</asrwt>
<pdfrwt beam="1">  1        2 0.33267327E+00 0.66991023E+03</pdfrwt>
<pdfrwt beam="2">  1       -2 0.18849205E+00 0.66991023E+03</pdfrwt>
<totfact> 0.91645943E-01</totfact>
</mgrwt>
</event>
<event>
 4    1  0.3057048E-007  0.9528987E+03  0.7818608E-02  0.9445956E-01
          2   -1    0    0  501    0  0.00000000000E+00  0.00000000000E+00  0.26892561302E+04  0.26892561302E+04  0.25500000000E-02 0. -1.
         -2   -1    0    0    0  501 -0.00000000000E+00 -0.00000000000E+00 -0.43291502386E+03  0.43291502387E+03  0.25500000000E-02 0.  1.
    8880023    1    1    2    0    0  0.43952410708E+03  0.53011727545E+03  0.23523979059E+03  0.98150584908E+03  0.65864270000E+03 0.  0.
    8880022    1    1    2    0    0 -0.43952410708E+03 -0.53011727545E+03  0.20211013157E+04  0.21406653050E+04  0.15294330000E+03 0.  0.
<mgrwt>
<rscale>  0 0.88388309E+03</rscale>
<asrwt>0</asrwt>
<pdfrwt beam="1">  1        2 0.41373172E+00 0.95289872E+03</pdfrwt>
<pdfrwt beam="2">  1       -2 0.66602311E-01 0.95289872E+03</pdfrwt>
<totfact> 0.57038327E+00</totfact>
</mgrwt>
</event>
<event>
 4    1  0.3057048E-007  0.7384590E+03  0.7818608E-02  0.9864459E-01
         -2   -1    0    0    0  501 -0.00000000000E+00  0.00000000000E+00  0.37449270037E+03  0.37449270038E+03  0.25500000000E-02 0.  1.
          2   -1    0    0  501    0  0.00000000000E+00 -0.00000000000E+00 -0.21917765984E+04  0.21917765984E+04  0.25500000000E-02 0. -1.
    8880023    1    1    2    0    0 -0.19725005488E+03 -0.26945109481E+03 -0.27270624924E+02  0.73896236027E+03  0.65864270000E+03 0.  0.
    8880022    1    1    2    0    0  0.19725005488E+03  0.26945109481E+03 -0.17900132731E+04  0.18273069385E+04  0.15294330000E+03 0.  0.
<mgrwt>
<rscale>  0 0.62015113E+03</rscale>
<asrwt>0</asrwt>
<pdfrwt beam="1">  1        2 0.33719639E+00 0.73845899E+03</pdfrwt>
<pdfrwt beam="2">  1       -2 0.57614263E-01 0.73845899E+03</pdfrwt>
<totfact> 0.15328813E+01</totfact>
</mgrwt>
</event>
<event>
 4    1  0.3057048E-007  0.1113320E+04  0.7818608E-02  0.9246369E-01
          2   -1    0    0  501    0  0.00000000000E+00  0.00000000000E+00  0.10271366104E+04  0.10271366104E+04  0.25500000000E-02 0. -1.
         -2   -1    0    0    0  501 -0.00000000000E+00 -0.00000000000E+00 -0.10549240679E+04  0.10549240679E+04  0.25500000000E-02 0.  1.
    8880023    1    1    2    0    0  0.72369277976E+03 -0.53098056230E+03  0.22770018244E+03  0.11363666558E+04  0.65864270000E+03 0.  0.
    8880022    1    1    2    0    0 -0.72369277976E+03  0.53098056230E+03 -0.25548763995E+03  0.94569402251E+03  0.15294330000E+03 0.  0.
<mgrwt>
<rscale>  0 0.10587380E+04</rscale>
<asrwt>0</asrwt>
<pdfrwt beam="1">  1        2 0.15802102E+00 0.11133202E+04</pdfrwt>
<pdfrwt beam="2">  1       -2 0.16229601E+00 0.11133202E+04</pdfrwt>
<totfact> 0.57501454E+00</totfact>
</mgrwt>
</event>
<event>
 4    1  0.3057048E-007  0.1286243E+04  0.7818608E-02  0.9077532E-01
         -2   -1    0    0    0  501 -0.00000000000E+00  0.00000000000E+00  0.49417507458E+03  0.49417507459E+03  0.25500000000E-02 0.  1.
          2   -1    0    0  501    0  0.00000000000E+00 -0.00000000000E+00 -0.38766564365E+04  0.38766564365E+04  0.25500000000E-02 0. -1.
    8880023    1    1    2    0    0 -0.10252902071E+04 -0.41157193067E+03 -0.69702085080E+03  0.14629626570E+04  0.65864270000E+03 0.  0.
    8880022    1    1    2    0    0  0.10252902071E+04  0.41157193067E+03 -0.26854605111E+04  0.29078688541E+04  0.15294330000E+03 0.  0.
<mgrwt>
<rscale>  0 0.12412093E+04</rscale>
<asrwt>0</asrwt>
<pdfrwt beam="1">  1        2 0.59640866E+00 0.12862432E+04</pdfrwt>
<pdfrwt beam="2">  1       -2 0.76026937E-01 0.12862432E+04</pdfrwt>
<totfact> 0.66469694E-01</totfact>
</mgrwt>
</event>
<event>
 4    1  0.3057048E-007  0.7801473E+03  0.7818608E-02  0.9755491E-01
         -2   -1    0    0    0  501 -0.00000000000E+00  0.00000000000E+00  0.12977176033E+04  0.12977176033E+04  0.25500000000E-02 0.  1.
          2   -1    0    0  501    0  0.00000000000E+00 -0.00000000000E+00 -0.55057054485E+03  0.55057054485E+03  0.25500000000E-02 0. -1.
    8880023    1    1    2    0    0  0.27346806259E+03 -0.31628279295E+03  0.10512692933E+04  0.13091206666E+04  0.65864270000E+03 0.  1.
    8880022    1    1    2    0    0 -0.27346806259E+03  0.31628279295E+03 -0.30412223489E+03  0.53916748153E+03  0.15294330000E+03 0.  0.
<mgrwt>
<rscale>  0 0.67806837E+03</rscale>
<asrwt>0</asrwt>
<pdfrwt beam="1">  1        2 0.84703161E-01 0.78014729E+03</pdfrwt>
<pdfrwt beam="2">  1       -2 0.19964886E+00 0.78014729E+03</pdfrwt>
<totfact> 0.74713549E+00</totfact>
</mgrwt>
</event>
<event>
 4    1  0.3057048E-007  0.6753524E+03  0.7818608E-02  0.1012085E+00
          2   -1    0    0  501    0  0.00000000000E+00  0.00000000000E+00  0.66187950987E+03  0.66187950988E+03  0.25500000000E-02 0. -1.
         -2   -1    0    0    0  501 -0.00000000000E+00 -0.00000000000E+00 -0.30313140654E+03  0.30313140655E+03  0.25500000000E-02 0.  1.
    8880023    1    1    2    0    0  0.22531784617E+02 -0.14759053806E+03  0.22039118679E+03  0.71040349782E+03  0.65864270000E+03 0.  1.
    8880022    1    1    2    0    0 -0.22531784617E+02  0.14759053806E+03  0.13835691654E+03  0.25460741861E+03  0.15294330000E+03 0.  0.
<mgrwt>
<rscale>  0 0.50654301E+03</rscale>
<asrwt>0</asrwt>
<pdfrwt beam="1">  1        2 0.10182762E+00 0.67535239E+03</pdfrwt>
<pdfrwt beam="2">  1       -2 0.46635601E-01 0.67535239E+03</pdfrwt>
<totfact> 0.19418124E+02</totfact>
</mgrwt>
</event>
<event>
 4    1  0.3057048E-007  0.6864859E+03  0.7818608E-02  0.1005870E+00
          2   -1    0    0  501    0  0.00000000000E+00  0.00000000000E+00  0.89058226943E+03  0.89058226943E+03  0.25500000000E-02 0. -1.
         -2   -1    0    0    0  501 -0.00000000000E+00 -0.00000000000E+00 -0.63304598734E+03  0.63304598735E+03  0.25500000000E-02 0.  1.
    8880023    1    1    2    0    0 -0.68059539675E+02  0.18116460809E+03 -0.41850242498E+03  0.80399452867E+03  0.65864270000E+03 0.  1.
    8880022    1    1    2    0    0  0.68059539675E+02 -0.18116460809E+03  0.67603870707E+03  0.71963372811E+03  0.15294330000E+03 0.  0.
<mgrwt>
<rscale>  0 0.53149756E+03</rscale>
<asrwt>0</asrwt>
<pdfrwt beam="1">  1        2 0.13701266E+00 0.68648592E+03</pdfrwt>
<pdfrwt beam="2">  1       -2 0.97391690E-01 0.68648592E+03</pdfrwt>
<totfact> 0.26724939E+01</totfact>
</mgrwt>
</event>
<event>
 4    1  0.3057048E-007  0.6628589E+03  0.7818608E-02  0.1021402E+00
         -2   -1    0    0    0  501 -0.00000000000E+00  0.00000000000E+00  0.72418932783E+02  0.72418932828E+02  0.25500000000E-02 0.  1.
          2   -1    0    0  501    0  0.00000000000E+00 -0.00000000000E+00 -0.28593638603E+04  0.28593638603E+04  0.25500000000E-02 0. -1.
    8880023    1    1    2    0    0 -0.74089236646E+02 -0.90822281408E+01 -0.15875958382E+04  0.17204192668E+04  0.65864270000E+03 0.  1.
    8880022    1    1    2    0    0  0.74089236646E+02  0.90822281408E+01 -0.11993490893E+04  0.12113635263E+04  0.15294330000E+03 0.  0.
<mgrwt>
<rscale>  0 0.47184235E+03</rscale>
<asrwt>0</asrwt>
<pdfrwt beam="1">  1        2 0.43990204E+00 0.66285889E+03</pdfrwt>
<pdfrwt beam="2">  1       -2 0.11141376E-01 0.66285889E+03</pdfrwt>
<totfact> 0.12992561E+02</totfact>
</mgrwt>
</event>
<event>
 4    1  0.3057048E-007  0.6888424E+03  0.7818608E-02  0.1004708E+00
         -2   -1    0    0    0  501 -0.00000000000E+00  0.00000000000E+00  0.21401926259E+03  0.21401926260E+03  0.25500000000E-02 0.  1.
          2   -1    0    0  501    0  0.00000000000E+00 -0.00000000000E+00 -0.30736156314E+04  0.30736156314E+04  0.25500000000E-02 0. -1.
    8880023    1    1    2    0    0  0.20171038167E+03  0.25702407512E+01 -0.36375422172E+03  0.77898717852E+03  0.65864270000E+03 0.  0.
    8880022    1    1    2    0    0 -0.20171038167E+03 -0.25702407512E+01 -0.24958421470E+04  0.25086477154E+04  0.15294330000E+03 0.  0.
<mgrwt>
<rscale>  0 0.53633329E+03</rscale>
<asrwt>0</asrwt>
<pdfrwt beam="1">  1        2 0.47286391E+00 0.68884243E+03</pdfrwt>
<pdfrwt beam="2">  1       -2 0.32926043E-01 0.68884243E+03</pdfrwt>
<totfact> 0.14475901E+01</totfact>
</mgrwt>
</event>
<event>
 4    1  0.3057048E-007  0.7688448E+03  0.7818608E-02  0.9782725E-01
         -2   -1    0    0    0  501 -0.00000000000E+00  0.00000000000E+00  0.43038552771E+03  0.43038552772E+03  0.25500000000E-02 0.  1.
          2   -1    0    0  501    0  0.00000000000E+00 -0.00000000000E+00 -0.12653666111E+04  0.12653666111E+04  0.25500000000E-02 0. -1.
    8880023    1    1    2    0    0 -0.38176745122E+03  0.10754402647E+03 -0.11393200321E+02  0.76892920072E+03  0.65864270000E+03 0.  1.
    8880022    1    1    2    0    0  0.38176745122E+03 -0.10754402647E+03 -0.82358788310E+03  0.92682293813E+03  0.15294330000E+03 0.  0.
<mgrwt>
<rscale>  0 0.66297920E+03</rscale>
<asrwt>0</asrwt>
<pdfrwt beam="1">  1        2 0.19467178E+00 0.76884479E+03</pdfrwt>
<pdfrwt beam="2">  1       -2 0.66213159E-01 0.76884479E+03</pdfrwt>
<totfact> 0.36967926E+01</totfact>
</mgrwt>
</event>
<event>
 4    1  0.3057048E-007  0.7088171E+03  0.7818608E-02  0.9962420E-01
         -2   -1    0    0    0  501 -0.00000000000E+00  0.00000000000E+00  0.21987084034E+03  0.21987084036E+03  0.25500000000E-02 0.  1.
          2   -1    0    0  501    0  0.00000000000E+00 -0.00000000000E+00 -0.14132555571E+04  0.14132555571E+04  0.25500000000E-02 0. -1.
    8880023    1    1    2    0    0  0.15437151284E+03  0.21161491173E+03 -0.47479361672E+03  0.85314161755E+03  0.65864270000E+03 0.  1.
    8880022    1    1    2    0    0 -0.15437151284E+03 -0.21161491173E+03 -0.71859110007E+03  0.77998477995E+03  0.15294330000E+03 0.  0.
<mgrwt>
<rscale>  0 0.57329206E+03</rscale>
<asrwt>0</asrwt>
<pdfrwt beam="1">  1        2 0.21742393E+00 0.70881707E+03</pdfrwt>
<pdfrwt beam="2">  1       -2 0.33826284E-01 0.70881707E+03</pdfrwt>
<totfact> 0.11857860E+02</totfact>
</mgrwt>
</event>
<event>
 4    1  0.3651642E-007  0.7220061E+03  0.7818608E-02  0.9915856E-01
         -2   -1    0    0    0  501 -0.00000000000E+00  0.00000000000E+00  0.61935804811E+03  0.61935804811E+03  0.25500000000E-02 0.  1.
          2   -1    0    0  501    0  0.00000000000E+00 -0.00000000000E+00 -0.31812001429E+04  0.31812001429E+04  0.25500000000E-02 0. -1.
    8880023    1    1    2    0    0 -0.17467162018E+03  0.23868885384E+03  0.39637910646E+03  0.82365596346E+03  0.65864270000E+03 0.  0.
    8880022    1    1    2    0    0  0.17467162018E+03 -0.23868885384E+03 -0.29582212013E+04  0.29769022276E+04  0.15294330000E+03 0. -1.
<mgrwt>
<rscale>  0 0.59498969E+03</rscale>
<asrwt>0</asrwt>
<pdfrwt beam="1">  1        2 0.48941540E+00 0.72200606E+03</pdfrwt>
<pdfrwt beam="2">  1       -2 0.95285855E-01 0.72200606E+03</pdfrwt>
<totfact> 0.13352647E+00</totfact>
</mgrwt>
</event>
<event>
 4    1  0.3288327E-007  0.8913810E+03  0.7818608E-02  0.9540012E-01
          2   -1    0    0  501    0  0.00000000000E+00  0.00000000000E+00  0.21692470718E+04  0.21692470718E+04  0.25500000000E-02 0. -1.
         -2   -1    0    0    0  501 -0.00000000000E+00 -0.00000000000E+00 -0.82914771688E+03  0.82914771689E+03  0.25500000000E-02 0.  1.
    8880023    1    1    2    0    0 -0.58899157995E+03  0.11763829346E+03 -0.52397847051E+03  0.10339794452E+04  0.65864270000E+03 0.  1.
    8880022    1    1    2    0    0  0.58899157995E+03 -0.11763829346E+03  0.18640778254E+04  0.19644153434E+04  0.15294330000E+03 0.  0.
<mgrwt>
<rscale>  0 0.81397099E+03</rscale>
<asrwt>0</asrwt>
<pdfrwt beam="1">  1        2 0.33373032E+00 0.89138098E+03</pdfrwt>
<pdfrwt beam="2">  1       -2 0.12756119E+00 0.89138098E+03</pdfrwt>
<totfact> 0.24894011E+00</totfact>
</mgrwt>
</event>
<event>
 4    1  0.3057048E-007  0.1135386E+04  0.7818608E-02  0.9222644E-01
          2   -1    0    0  501    0  0.00000000000E+00  0.00000000000E+00  0.26236854150E+04  0.26236854150E+04  0.25500000000E-02 0. -1.
         -2   -1    0    0    0  501 -0.00000000000E+00 -0.00000000000E+00 -0.43851361510E+03  0.43851361511E+03  0.25500000000E-02 0.  1.
    8880023    1    1    2    0    0  0.65607298956E+03 -0.65181281337E+03  0.79707863186E+03  0.13872405209E+04  0.65864270000E+03 0.  0.
    8880022    1    1    2    0    0 -0.65607298956E+03  0.65181281337E+03  0.13880931681E+04  0.16749585092E+04  0.15294330000E+03 0.  0.
<mgrwt>
<rscale>  0 0.10822729E+04</rscale>
<asrwt>0</asrwt>
<pdfrwt beam="1">  1        2 0.40364392E+00 0.11353862E+04</pdfrwt>
<pdfrwt beam="2">  1       -2 0.67463632E-01 0.11353862E+04</pdfrwt>
<totfact> 0.59188893E+00</totfact>
</mgrwt>
</event>
<event>
 4    1  0.3057048E-007  0.7121067E+03  0.7818608E-02  0.9950260E-01
          2   -1    0    0  501    0  0.00000000000E+00  0.00000000000E+00  0.97399211941E+03  0.97399211942E+03  0.25500000000E-02 0. -1.
         -2   -1    0    0    0  501 -0.00000000000E+00 -0.00000000000E+00 -0.13437354377E+04  0.13437354377E+04  0.25500000000E-02 0.  1.
    8880023    1    1    2    0    0 -0.27027781408E+03  0.15351949569E+02 -0.12198790907E+04  0.14125158340E+04  0.65864270000E+03 0.  1.
    8880022    1    1    2    0    0  0.27027781408E+03 -0.15351949569E+02  0.85013577240E+03  0.90521172312E+03  0.15294330000E+03 0.  0.
<mgrwt>
<rscale>  0 0.57886122E+03</rscale>
<asrwt>0</asrwt>
<pdfrwt beam="1">  1        2 0.14984494E+00 0.71210672E+03</pdfrwt>
<pdfrwt beam="2">  1       -2 0.20672853E+00 0.71210672E+03</pdfrwt>
<totfact> 0.32450622E+00</totfact>
</mgrwt>
</event>
<event>
 4    1  0.3057048E-007  0.7566729E+03  0.7818608E-02  0.9813798E-01
          2   -1    0    0  501    0  0.00000000000E+00  0.00000000000E+00  0.10483241652E+04  0.10483241652E+04  0.25500000000E-02 0. -1.
         -2   -1    0    0    0  501 -0.00000000000E+00 -0.00000000000E+00 -0.54945432618E+03  0.54945432618E+03  0.25500000000E-02 0.  1.
    8880023    1    1    2    0    0  0.68290024963E+02 -0.36616948338E+03 -0.20758261174E+03  0.78463008165E+03  0.65864270000E+03 0.  0.
    8880022    1    1    2    0    0 -0.68290024963E+02  0.36616948338E+03  0.70645245077E+03  0.81314840975E+03  0.15294330000E+03 0.  0.
<mgrwt>
<rscale>  0 0.64627270E+03</rscale>
<asrwt>0</asrwt>
<pdfrwt beam="1">  1        2 0.16128064E+00 0.75667286E+03</pdfrwt>
<pdfrwt beam="2">  1       -2 0.84531435E-01 0.75667286E+03</pdfrwt>
<totfact> 0.29091941E+01</totfact>
</mgrwt>
</event>
<event>
 4    1  0.3057048E-007  0.7363410E+03  0.7818608E-02  0.9870737E-01
          2   -1    0    0  501    0  0.00000000000E+00  0.00000000000E+00  0.69775365877E+03  0.69775365877E+03  0.25500000000E-02 0. -1.
         -2   -1    0    0    0  501 -0.00000000000E+00 -0.00000000000E+00 -0.43405418899E+03  0.43405418900E+03  0.25500000000E-02 0.  1.
    8880023    1    1    2    0    0  0.32730255449E+03 -0.35509001011E+02  0.15061048304E+03  0.75158603978E+03  0.65864270000E+03 0. -1.
    8880022    1    1    2    0    0 -0.32730255449E+03  0.35509001011E+02  0.11308898673E+03  0.38022180798E+03  0.15294330000E+03 0.  1.
<mgrwt>
<rscale>  0 0.61700718E+03</rscale>
<asrwt>0</asrwt>
<pdfrwt beam="1">  1        2 0.10734672E+00 0.73634099E+03</pdfrwt>
<pdfrwt beam="2">  1       -2 0.66777568E-01 0.73634099E+03</pdfrwt>
<totfact> 0.85841879E+01</totfact>
</mgrwt>
</event>
<event>
 4    1  0.3057048E-007  0.6842108E+03  0.7818608E-02  0.1007035E+00
          2   -1    0    0  501    0  0.00000000000E+00  0.00000000000E+00  0.20216455815E+04  0.20216455815E+04  0.25500000000E-02 0. -1.
         -2   -1    0    0    0  501 -0.00000000000E+00 -0.00000000000E+00 -0.16778663036E+03  0.16778663038E+03  0.25500000000E-02 0.  1.
    8880023    1    1    2    0    0  0.16505472143E+03  0.84209314526E+02  0.59159264923E+03  0.90450336572E+03  0.65864270000E+03 0.  1.
    8880022    1    1    2    0    0 -0.16505472143E+03 -0.84209314526E+02  0.12622663020E+04  0.12849288462E+04  0.15294330000E+03 0.  0.
<mgrwt>
<rscale>  0 0.52670061E+03</rscale>
<asrwt>0</asrwt>
<pdfrwt beam="1">  1        2 0.31102239E+00 0.68421084E+03</pdfrwt>
<pdfrwt beam="2">  1       -2 0.25813329E-01 0.68421084E+03</pdfrwt>
<totfact> 0.90944133E+01</totfact>
</mgrwt>
</event>
<event>
 4    1  0.3057048E-007  0.9362745E+03  0.7818608E-02  0.9470143E-01
         -2   -1    0    0    0  501 -0.00000000000E+00  0.00000000000E+00  0.53529357921E+03  0.53529357922E+03  0.25500000000E-02 0.  1.
          2   -1    0    0  501    0  0.00000000000E+00 -0.00000000000E+00 -0.15246827937E+04  0.15246827937E+04  0.25500000000E-02 0. -1.
    8880023    1    1    2    0    0  0.60368013484E+03 -0.27994630893E+03 -0.10095707815E+04  0.13768961509E+04  0.65864270000E+03 0. -1.
    8880022    1    1    2    0    0 -0.60368013484E+03  0.27994630893E+03  0.20181567050E+02  0.68308022204E+03  0.15294330000E+03 0.  0.
<mgrwt>
<rscale>  0 0.86521273E+03</rscale>
<asrwt>0</asrwt>
<pdfrwt beam="1">  1        2 0.23456658E+00 0.93627445E+03</pdfrwt>
<pdfrwt beam="2">  1       -2 0.82352859E-01 0.93627445E+03</pdfrwt>
<totfact> 0.15968730E+01</totfact>
</mgrwt>
</event>
<event>
 4    1  0.3057048E-007  0.7967822E+03  0.7818608E-02  0.9717797E-01
         -2   -1    0    0    0  501 -0.00000000000E+00  0.00000000000E+00  0.59624606914E+03  0.59624606914E+03  0.25500000000E-02 0.  1.
          2   -1    0    0  501    0  0.00000000000E+00 -0.00000000000E+00 -0.70340888975E+03  0.70340888976E+03  0.25500000000E-02 0. -1.
    8880023    1    1    2    0    0  0.44812560696E+03 -0.15332290234E+02  0.55602725563E+02  0.79871991843E+03  0.65864270000E+03 0. -1.
    8880022    1    1    2    0    0 -0.44812560696E+03  0.15332290234E+02 -0.16276554618E+03  0.50093504047E+03  0.15294330000E+03 0.  0.
<mgrwt>
<rscale>  0 0.69966966E+03</rscale>
<asrwt>0</asrwt>
<pdfrwt beam="1">  1        2 0.10821675E+00 0.79678218E+03</pdfrwt>
<pdfrwt beam="2">  1       -2 0.91730165E-01 0.79678218E+03</pdfrwt>
<totfact> 0.41570335E+01</totfact>
</mgrwt>
</event>
<event>
 4    1  0.3057048E-007  0.1122827E+04  0.7818608E-02  0.9236057E-01
         -2   -1    0    0    0  501 -0.00000000000E+00  0.00000000000E+00  0.15055525119E+04  0.15055525119E+04  0.25500000000E-02 0.  1.
          2   -1    0    0  501    0  0.00000000000E+00 -0.00000000000E+00 -0.97054853165E+03  0.97054853165E+03  0.25500000000E-02 0. -1.
    8880023    1    1    2    0    0 -0.81532369237E+03 -0.40271208398E+03  0.94439312211E+03  0.14671803983E+04  0.65864270000E+03 0.  0.
    8880022    1    1    2    0    0  0.81532369237E+03  0.40271208398E+03 -0.40938914183E+03  0.10089206452E+04  0.15294330000E+03 0.  0.
<mgrwt>
<rscale>  0 0.10688886E+04</rscale>
<asrwt>0</asrwt>
<pdfrwt beam="1">  1        2 0.14931516E+00 0.11228268E+04</pdfrwt>
<pdfrwt beam="2">  1       -2 0.23162346E+00 0.11228268E+04</pdfrwt>
<totfact> 0.21571055E+00</totfact>
</mgrwt>
</event>
<event>
 4    1  0.3173493E-007  0.7014934E+03  0.7818608E-02  0.9991062E-01
         -2   -1    0    0    0  501 -0.00000000000E+00  0.00000000000E+00  0.68496079565E+03  0.68496079566E+03  0.25500000000E-02 0.  1.
          2   -1    0    0  501    0  0.00000000000E+00 -0.00000000000E+00 -0.23979216489E+04  0.23979216489E+04  0.25500000000E-02 0. -1.
    8880023    1    1    2    0    0  0.13745275211E+03 -0.19846787405E+03  0.49369063942E+03  0.85780149790E+03  0.65864270000E+03 0.  0.
    8880022    1    1    2    0    0 -0.13745275211E+03  0.19846787405E+03 -0.22066514926E+04  0.22250809466E+04  0.15294330000E+03 0.  0.
<mgrwt>
<rscale>  0 0.56043911E+03</rscale>
<asrwt>0</asrwt>
<pdfrwt beam="1">  1        2 0.36891102E+00 0.70149338E+03</pdfrwt>
<pdfrwt beam="2">  1       -2 0.10537858E+00 0.70149338E+03</pdfrwt>
<totfact> 0.30711329E+00</totfact>
</mgrwt>
</event>
<event>
 4    1  0.3057048E-007  0.7761002E+03  0.7818608E-02  0.9765079E-01
         -2   -1    0    0    0  501 -0.00000000000E+00  0.00000000000E+00  0.18778840221E+03  0.18778840223E+03  0.25500000000E-02 0.  1.
          2   -1    0    0  501    0  0.00000000000E+00 -0.00000000000E+00 -0.22425828824E+04  0.22425828824E+04  0.25500000000E-02 0. -1.
    8880023    1    1    2    0    0  0.14948058743E+03  0.38233076718E+03 -0.86317397402E+03  0.11607759376E+04  0.65864270000E+03 0.  1.
    8880022    1    1    2    0    0 -0.14948058743E+03 -0.38233076718E+03 -0.11916205062E+04  0.12695953471E+04  0.15294330000E+03 0.  0.
<mgrwt>
<rscale>  0 0.67270764E+03</rscale>
<asrwt>0</asrwt>
<pdfrwt beam="1">  1        2 0.34501273E+00 0.77610017E+03</pdfrwt>
<pdfrwt beam="2">  1       -2 0.28890525E-01 0.77610017E+03</pdfrwt>
<totfact> 0.55386530E+01</totfact>
</mgrwt>
</event>
<event>
 4    1  0.3057048E-007  0.7540098E+03  0.7818608E-02  0.9820870E-01
         -2   -1    0    0    0  501 -0.00000000000E+00  0.00000000000E+00  0.30509500389E+03  0.30509500390E+03  0.25500000000E-02 0.  1.
          2   -1    0    0  501    0  0.00000000000E+00 -0.00000000000E+00 -0.22392824000E+04  0.22392824000E+04  0.25500000000E-02 0. -1.
    8880023    1    1    2    0    0  0.25441718042E+03 -0.26456077996E+03 -0.22111601864E+03  0.78576269188E+03  0.65864270000E+03 0.  1.
    8880022    1    1    2    0    0 -0.25441718042E+03  0.26456077996E+03 -0.17130713775E+04  0.17586147121E+04  0.15294330000E+03 0.  0.
<mgrwt>
<rscale>  0 0.64254476E+03</rscale>
<asrwt>0</asrwt>
<pdfrwt beam="1">  1        2 0.34450498E+00 0.75400976E+03</pdfrwt>
<pdfrwt beam="2">  1       -2 0.46937694E-01 0.75400976E+03</pdfrwt>
<totfact> 0.21925115E+01</totfact>
</mgrwt>
</event>
<event>
 4    1  0.3057048E-007  0.7917299E+03  0.7818608E-02  0.9728971E-01
         -2   -1    0    0    0  501 -0.00000000000E+00  0.00000000000E+00  0.36384580469E+03  0.36384580470E+03  0.25500000000E-02 0.  1.
          2   -1    0    0  501    0  0.00000000000E+00 -0.00000000000E+00 -0.25951661634E+04  0.25951661634E+04  0.25500000000E-02 0. -1.
    8880023    1    1    2    0    0  0.30784056193E+03  0.31346485476E+03 -0.12452110224E+03  0.80146224983E+03  0.65864270000E+03 0.  1.
    8880022    1    1    2    0    0 -0.30784056193E+03 -0.31346485476E+03 -0.21067992565E+04  0.21575497183E+04  0.15294330000E+03 0.  0.
<mgrwt>
<rscale>  0 0.69317737E+03</rscale>
<asrwt>0</asrwt>
<pdfrwt beam="1">  1        2 0.39925632E+00 0.79172990E+03</pdfrwt>
<pdfrwt beam="2">  1       -2 0.55976279E-01 0.79172990E+03</pdfrwt>
<totfact> 0.95857991E+00</totfact>
</mgrwt>
</event>
<event>
 4    1  0.3057048E-007  0.8706339E+03  0.7818608E-02  0.9574921E-01
          2   -1    0    0  501    0  0.00000000000E+00  0.00000000000E+00  0.22906004945E+04  0.22906004945E+04  0.25500000000E-02 0. -1.
         -2   -1    0    0    0  501 -0.00000000000E+00 -0.00000000000E+00 -0.47560033448E+03  0.47560033449E+03  0.25500000000E-02 0.  1.
    8880023    1    1    2    0    0  0.12472867971E+03  0.55555017760E+03  0.13559435016E+02  0.87073951783E+03  0.65864270000E+03 0.  1.
    8880022    1    1    2    0    0 -0.12472867971E+03 -0.55555017760E+03  0.18014407250E+04  0.18954613111E+04  0.15294330000E+03 0.  0.
<mgrwt>
<rscale>  0 0.78978577E+03</rscale>
<asrwt>0</asrwt>
<pdfrwt beam="1">  1        2 0.35240007E+00 0.87063394E+03</pdfrwt>
<pdfrwt beam="2">  1       -2 0.73169283E-01 0.87063394E+03</pdfrwt>
<totfact> 0.79279975E+00</totfact>
</mgrwt>
</event>
<event>
 4    1  0.3057048E-007  0.8807823E+03  0.7818608E-02  0.9557614E-01
         -2   -1    0    0    0  501 -0.00000000000E+00  0.00000000000E+00  0.10077763060E+04  0.10077763060E+04  0.25500000000E-02 0.  1.
          2   -1    0    0  501    0  0.00000000000E+00 -0.00000000000E+00 -0.13322068071E+04  0.13322068071E+04  0.25500000000E-02 0. -1.
    8880023    1    1    2    0    0 -0.27618349527E+01 -0.58477313633E+03  0.71708500732E+03  0.11357765461E+04  0.65864270000E+03 0.  1.
    8880022    1    1    2    0    0  0.27618349527E+01  0.58477313633E+03 -0.10415155084E+04  0.12042065670E+04  0.15294330000E+03 0.  0.
<mgrwt>
<rscale>  0 0.80166218E+03</rscale>
<asrwt>0</asrwt>
<pdfrwt beam="1">  1        2 0.20495489E+00 0.88078230E+03</pdfrwt>
<pdfrwt beam="2">  1       -2 0.15504251E+00 0.88078230E+03</pdfrwt>
<totfact> 0.43681429E+00</totfact>
</mgrwt>
</event>
<event>
 4    1  0.3057048E-007  0.6770092E+03  0.7818608E-02  0.1011069E+00
         -2   -1    0    0    0  501 -0.00000000000E+00  0.00000000000E+00  0.15213239377E+03  0.15213239379E+03  0.25500000000E-02 0.  1.
          2   -1    0    0  501    0  0.00000000000E+00 -0.00000000000E+00 -0.30669439476E+04  0.30669439476E+04  0.25500000000E-02 0. -1.
    8880023    1    1    2    0    0 -0.13509315382E+03 -0.79253191525E+02 -0.63316378078E+03  0.92695081214E+03  0.65864270000E+03 0.  1.
    8880022    1    1    2    0    0  0.13509315382E+03  0.79253191525E+02 -0.22816477731E+04  0.22921255293E+04  0.15294330000E+03 0.  0.
<mgrwt>
<rscale>  0 0.51052120E+03</rscale>
<asrwt>0</asrwt>
<pdfrwt beam="1">  1        2 0.47183748E+00 0.67700918E+03</pdfrwt>
<pdfrwt beam="2">  1       -2 0.23404986E-01 0.67700918E+03</pdfrwt>
<totfact> 0.27365214E+01</totfact>
</mgrwt>
</event>
<event>
 4    1  0.3057048E-007  0.7363765E+03  0.7818608E-02  0.9870630E-01
         -2   -1    0    0    0  501 -0.00000000000E+00  0.00000000000E+00  0.32377713553E+03  0.32377713554E+03  0.25500000000E-02 0.  1.
          2   -1    0    0  501    0  0.00000000000E+00 -0.00000000000E+00 -0.11457069082E+04  0.11457069082E+04  0.25500000000E-02 0. -1.
    8880023    1    1    2    0    0  0.84116587791E+02 -0.31837806558E+03 -0.22354838199E+03  0.76956109461E+03  0.65864270000E+03 0.  1.
    8880022    1    1    2    0    0 -0.84116587791E+02  0.31837806558E+03 -0.59838139069E+03  0.69992294913E+03  0.15294330000E+03 0.  0.
<mgrwt>
<rscale>  0 0.61706014E+03</rscale>
<asrwt>0</asrwt>
<pdfrwt beam="1">  1        2 0.17626260E+00 0.73637653E+03</pdfrwt>
<pdfrwt beam="2">  1       -2 0.49811868E-01 0.73637653E+03</pdfrwt>
<totfact> 0.79199694E+01</totfact>
</mgrwt>
</event>
<event>
 4    1  0.3057048E-007  0.6667791E+03  0.7818608E-02  0.1018085E+00
          2   -1    0    0  501    0  0.00000000000E+00  0.00000000000E+00  0.32294996304E+04  0.32294996304E+04  0.25500000000E-02 0. -1.
         -2   -1    0    0    0  501 -0.00000000000E+00 -0.00000000000E+00 -0.41148264803E+03  0.41148264804E+03  0.25500000000E-02 0.  1.
    8880023    1    1    2    0    0 -0.74747086938E+02 -0.72090755361E+02 -0.13656650528E+03  0.68062090817E+03  0.65864270000E+03 0.  1.
    8880022    1    1    2    0    0  0.74747086938E+02  0.72090755361E+02  0.29545834877E+04  0.29603613703E+04  0.15294330000E+03 0.  0.
<mgrwt>
<rscale>  0 0.48383962E+03</rscale>
<asrwt>0</asrwt>
<pdfrwt beam="1">  1        2 0.49684610E+00 0.66677913E+03</pdfrwt>
<pdfrwt beam="2">  1       -2 0.63305023E-01 0.66677913E+03</pdfrwt>
<totfact> 0.31399750E+00</totfact>
</mgrwt>
</event>
<event>
 4    1  0.3057048E-007  0.6822518E+03  0.7818608E-02  0.1008078E+00
          2   -1    0    0  501    0  0.00000000000E+00  0.00000000000E+00  0.18629776744E+04  0.18629776744E+04  0.25500000000E-02 0. -1.
         -2   -1    0    0    0  501 -0.00000000000E+00 -0.00000000000E+00 -0.50446381144E+03  0.50446381145E+03  0.25500000000E-02 0.  1.
    8880023    1    1    2    0    0  0.17295532580E+03 -0.41758989943E+02 -0.26140741303E+03  0.73061713627E+03  0.65864270000E+03 0.  1.
    8880022    1    1    2    0    0 -0.17295532580E+03  0.41758989943E+02  0.16199212759E+04  0.16368243495E+04  0.15294330000E+03 0.  0.
<mgrwt>
<rscale>  0 0.52245901E+03</rscale>
<asrwt>0</asrwt>
<pdfrwt beam="1">  1        2 0.28661195E+00 0.68225183E+03</pdfrwt>
<pdfrwt beam="2">  1       -2 0.77609816E-01 0.68225183E+03</pdfrwt>
<totfact> 0.12281542E+01</totfact>
</mgrwt>
</event>
<event>
 4    1  0.3057048E-007  0.9366531E+03  0.7818608E-02  0.9469583E-01
          2   -1    0    0  501    0  0.00000000000E+00  0.00000000000E+00  0.11050641212E+04  0.11050641212E+04  0.25500000000E-02 0. -1.
         -2   -1    0    0    0  501 -0.00000000000E+00 -0.00000000000E+00 -0.68534062209E+03  0.68534062210E+03  0.25500000000E-02 0.  1.
    8880023    1    1    2    0    0 -0.59368098214E+03 -0.30174785436E+03 -0.85591202022E+02  0.94055565295E+03  0.65864270000E+03 0.  0.
    8880022    1    1    2    0    0  0.59368098214E+03  0.30174785436E+03  0.50531470111E+03  0.84984909033E+03  0.15294330000E+03 0.  1.
<mgrwt>
<rscale>  0 0.86563964E+03</rscale>
<asrwt>0</asrwt>
<pdfrwt beam="1">  1        2 0.17000987E+00 0.93665313E+03</pdfrwt>
<pdfrwt beam="2">  1       -2 0.10543702E+00 0.93665313E+03</pdfrwt>
<totfact> 0.15727645E+01</totfact>
</mgrwt>
</event>
<event>
 4    1  0.3057048E-007  0.6588323E+03  0.7818608E-02  0.1025386E+00
         -2   -1    0    0    0  501 -0.00000000000E+00  0.00000000000E+00  0.17851576614E+03  0.17851576615E+03  0.25500000000E-02 0.  1.
          2   -1    0    0  501    0  0.00000000000E+00 -0.00000000000E+00 -0.14613917583E+04  0.14613917583E+04  0.25500000000E-02 0. -1.
    8880023    1    1    2    0    0  0.24471979071E+01 -0.15612706146E+02 -0.46180612770E+03  0.80456500745E+03  0.65864270000E+03 0.  1.
    8880022    1    1    2    0    0 -0.24471979071E+01  0.15612706146E+02 -0.82106986447E+03  0.83534251701E+03  0.15294330000E+03 0.  0.
<mgrwt>
<rscale>  0 0.45792071E+03</rscale>
<asrwt>0</asrwt>
<pdfrwt beam="1">  1        2 0.22482949E+00 0.65883226E+03</pdfrwt>
<pdfrwt beam="2">  1       -2 0.27463965E-01 0.65883226E+03</pdfrwt>
<totfact> 0.16487728E+02</totfact>
</mgrwt>
</event>
<event>
 4    1  0.3057048E-007  0.9762067E+03  0.7818608E-02  0.9413371E-01
          2   -1    0    0  501    0  0.00000000000E+00  0.00000000000E+00  0.14410860877E+04  0.14410860877E+04  0.25500000000E-02 0. -1.
         -2   -1    0    0    0  501 -0.00000000000E+00 -0.00000000000E+00 -0.10968957088E+04  0.10968957088E+04  0.25500000000E-02 0.  1.
    8880023    1    1    2    0    0 -0.59285208548E+02  0.71809090476E+03 -0.74158120198E+03  0.12259372614E+04  0.65864270000E+03 0.  0.
    8880022    1    1    2    0    0  0.59285208548E+02 -0.71809090476E+03  0.10857715809E+04  0.13120445352E+04  0.15294330000E+03 0.  0.
<mgrwt>
<rscale>  0 0.90983449E+03</rscale>
<asrwt>0</asrwt>
<pdfrwt beam="1">  1        2 0.22170555E+00 0.97620668E+03</pdfrwt>
<pdfrwt beam="2">  1       -2 0.16875319E+00 0.97620668E+03</pdfrwt>
<totfact> 0.29677376E+00</totfact>
</mgrwt>
</event>
<event>
 4    1  0.3057048E-007  0.1647144E+04  0.7818608E-02  0.8812165E-01
          2   -1    0    0  501    0  0.00000000000E+00  0.00000000000E+00  0.35641072941E+04  0.35641072941E+04  0.25500000000E-02 0. -1.
         -2   -1    0    0    0  501 -0.00000000000E+00 -0.00000000000E+00 -0.73729325313E+03  0.73729325313E+03  0.25500000000E-02 0.  1.
    8880023    1    1    2    0    0  0.13340038831E+04 -0.70690054572E+03  0.10015483232E+04  0.19277406443E+04  0.65864270000E+03 0.  0.
    8880022    1    1    2    0    0 -0.13340038831E+04  0.70690054572E+03  0.18252657177E+04  0.23736599029E+04  0.15294330000E+03 0.  0.
<mgrwt>
<rscale>  0 0.16137180E+04</rscale>
<asrwt>0</asrwt>
<pdfrwt beam="1">  1        2 0.54832420E+00 0.16471445E+04</pdfrwt>
<pdfrwt beam="2">  1       -2 0.11342973E+00 0.16471445E+04</pdfrwt>
<totfact> 0.42168642E-01</totfact>
</mgrwt>
</event>
<event>
 4    1  0.3057048E-007  0.6823838E+03  0.7818608E-02  0.1008006E+00
          2   -1    0    0  501    0  0.00000000000E+00  0.00000000000E+00  0.42294387595E+03  0.42294387596E+03  0.25500000000E-02 0. -1.
         -2   -1    0    0    0  501 -0.00000000000E+00 -0.00000000000E+00 -0.52226179649E+03  0.52226179650E+03  0.25500000000E-02 0.  1.
    8880023    1    1    2    0    0  0.14231950092E+03 -0.10762252889E+03  0.17830923803E+02  0.68261672787E+03  0.65864270000E+03 0. -1.
    8880022    1    1    2    0    0 -0.14231950092E+03  0.10762252889E+03 -0.11714884435E+03  0.26258894458E+03  0.15294330000E+03 0.  1.
<mgrwt>
<rscale>  0 0.52274818E+03</rscale>
<asrwt>0</asrwt>
<pdfrwt beam="1">  1        2 0.65068289E-01 0.68238380E+03</pdfrwt>
<pdfrwt beam="2">  1       -2 0.80347969E-01 0.68238380E+03</pdfrwt>
<totfact> 0.10362432E+02</totfact>
</mgrwt>
</event>
<event>
 4    1  0.3057048E-007  0.7299806E+03  0.7818608E-02  0.9890157E-01
         -2   -1    0    0    0  501 -0.00000000000E+00  0.00000000000E+00  0.42259223041E+03  0.42259223041E+03  0.25500000000E-02 0.  1.
          2   -1    0    0  501    0  0.00000000000E+00 -0.00000000000E+00 -0.10205744190E+04  0.10205744190E+04  0.25500000000E-02 0. -1.
    8880023    1    1    2    0    0 -0.50249207247E+02  0.31070319520E+03  0.23035582894E+02  0.73034396189E+03  0.65864270000E+03 0.  1.
    8880022    1    1    2    0    0  0.50249207247E+02 -0.31070319520E+03 -0.62101777151E+03  0.71282268755E+03  0.15294330000E+03 0.  0.
<mgrwt>
<rscale>  0 0.60740689E+03</rscale>
<asrwt>0</asrwt>
<pdfrwt beam="1">  1        2 0.15701145E+00 0.72998059E+03</pdfrwt>
<pdfrwt beam="2">  1       -2 0.65014190E-01 0.72998059E+03</pdfrwt>
<totfact> 0.54243608E+01</totfact>
</mgrwt>
</event>
<event>
 4    1  0.3057048E-007  0.7076606E+03  0.7818608E-02  0.9966793E-01
         -2   -1    0    0    0  501 -0.00000000000E+00  0.00000000000E+00  0.22318537818E+03  0.22318537820E+03  0.25500000000E-02 0.  1.
          2   -1    0    0  501    0  0.00000000000E+00 -0.00000000000E+00 -0.17600259498E+04  0.17600259498E+04  0.25500000000E-02 0. -1.
    8880023    1    1    2    0    0 -0.50104486981E+02 -0.25389540472E+03 -0.41191779962E+03  0.81881610637E+03  0.65864270000E+03 0.  1.
    8880022    1    1    2    0    0  0.50104486981E+02  0.25389540472E+03 -0.11249227720E+04  0.11643952216E+04  0.15294330000E+03 0.  0.
<mgrwt>
<rscale>  0 0.57130601E+03</rscale>
<asrwt>0</asrwt>
<pdfrwt beam="1">  1        2 0.27077321E+00 0.70766061E+03</pdfrwt>
<pdfrwt beam="2">  1       -2 0.34336213E-01 0.70766061E+03</pdfrwt>
<totfact> 0.74200741E+01</totfact>
</mgrwt>
</event>
<event>
 4    1  0.3057048E-007  0.7082187E+03  0.7818608E-02  0.9964676E-01
         -2   -1    0    0    0  501 -0.00000000000E+00  0.00000000000E+00  0.60349159327E+03  0.60349159327E+03  0.25500000000E-02 0.  1.
          2   -1    0    0  501    0  0.00000000000E+00 -0.00000000000E+00 -0.13254356135E+04  0.13254356135E+04  0.25500000000E-02 0. -1.
    8880023    1    1    2    0    0 -0.19172972423E+03 -0.17607728296E+03  0.36787237893E+03  0.79806252272E+03  0.65864270000E+03 0.  1.
    8880022    1    1    2    0    0  0.19172972423E+03  0.17607728296E+03 -0.10898163992E+04  0.11308646841E+04  0.15294330000E+03 0.  0.
<mgrwt>
<rscale>  0 0.57226632E+03</rscale>
<asrwt>0</asrwt>
<pdfrwt beam="1">  1        2 0.20391317E+00 0.70821868E+03</pdfrwt>
<pdfrwt beam="2">  1       -2 0.92844861E-01 0.70821868E+03</pdfrwt>
<totfact> 0.16126289E+01</totfact>
</mgrwt>
</event>
<event>
 4    1  0.3057048E-007  0.8027274E+03  0.7818608E-02  0.9704930E-01
         -2   -1    0    0    0  501 -0.00000000000E+00  0.00000000000E+00  0.38683355928E+03  0.38683355929E+03  0.25500000000E-02 0.  1.
          2   -1    0    0  501    0  0.00000000000E+00 -0.00000000000E+00 -0.13698407496E+04  0.13698407496E+04  0.25500000000E-02 0. -1.
    8880023    1    1    2    0    0  0.44737125156E+03 -0.10207821921E+03 -0.18538833629E+03  0.82385680859E+03  0.65864270000E+03 0.  0.
    8880022    1    1    2    0    0 -0.44737125156E+03  0.10207821921E+03 -0.79761885399E+03  0.93281750028E+03  0.15294330000E+03 0.  0.
<mgrwt>
<rscale>  0 0.70724037E+03</rscale>
<asrwt>0</asrwt>
<pdfrwt beam="1">  1        2 0.21074473E+00 0.80272735E+03</pdfrwt>
<pdfrwt beam="2">  1       -2 0.59512856E-01 0.80272735E+03</pdfrwt>
<totfact> 0.40281740E+01</totfact>
</mgrwt>
</event>
<event>
 4    1  0.3057048E-007  0.6626357E+03  0.7818608E-02  0.1021605E+00
         -2   -1    0    0    0  501 -0.00000000000E+00  0.00000000000E+00  0.68759311321E+03  0.68759311322E+03  0.25500000000E-02 0.  1.
          2   -1    0    0  501    0  0.00000000000E+00 -0.00000000000E+00 -0.35452155720E+03  0.35452155721E+03  0.25500000000E-02 0. -1.
    8880023    1    1    2    0    0 -0.71367743325E+02 -0.13509216057E+02  0.47977132710E+03  0.81808715078E+03  0.65864270000E+03 0.  0.
    8880022    1    1    2    0    0  0.71367743325E+02  0.13509216057E+02 -0.14669977109E+03  0.22402751965E+03  0.15294330000E+03 0.  0.
<mgrwt>
<rscale>  0 0.47111817E+03</rscale>
<asrwt>0</asrwt>
<pdfrwt beam="1">  1        2 0.54541779E-01 0.66263569E+03</pdfrwt>
<pdfrwt beam="2">  1       -2 0.10578355E+00 0.66263569E+03</pdfrwt>
<totfact> 0.66805956E+01</totfact>
</mgrwt>
</event>
<event>
 4    1  0.3057048E-007  0.7168908E+03  0.7818608E-02  0.9933250E-01
         -2   -1    0    0    0  501 -0.00000000000E+00  0.00000000000E+00  0.38799909189E+03  0.38799909190E+03  0.25500000000E-02 0.  1.
          2   -1    0    0  501    0  0.00000000000E+00 -0.00000000000E+00 -0.19078371053E+04  0.19078371053E+04  0.25500000000E-02 0. -1.
    8880023    1    1    2    0    0  0.68637210496E+02 -0.27461102933E+03  0.25516667876E+02  0.71734481994E+03  0.65864270000E+03 0.  1.
    8880022    1    1    2    0    0 -0.68637210496E+02  0.27461102933E+03 -0.15453546813E+04  0.15784913773E+04  0.15294330000E+03 0.  0.
<mgrwt>
<rscale>  0 0.58676558E+03</rscale>
<asrwt>0</asrwt>
<pdfrwt beam="1">  1        2 0.29351340E+00 0.71689085E+03</pdfrwt>
<pdfrwt beam="2">  1       -2 0.59692169E-01 0.71689085E+03</pdfrwt>
<totfact> 0.20405851E+01</totfact>
</mgrwt>
</event>
<event>
 4    1  0.3057048E-007  0.7259126E+03  0.7818608E-02  0.9903065E-01
          2   -1    0    0  501    0  0.00000000000E+00  0.00000000000E+00  0.26570817734E+04  0.26570817734E+04  0.25500000000E-02 0. -1.
         -2   -1    0    0    0  501 -0.00000000000E+00 -0.00000000000E+00 -0.20727980269E+03  0.20727980270E+03  0.25500000000E-02 0.  1.
    8880023    1    1    2    0    0 -0.16396030766E+03 -0.25740214010E+03  0.49179255734E+03  0.87681752373E+03  0.65864270000E+03 0.  1.
    8880022    1    1    2    0    0  0.16396030766E+03  0.25740214010E+03  0.19580094134E+04  0.19875440524E+04  0.15294330000E+03 0.  0.
<mgrwt>
<rscale>  0 0.60112970E+03</rscale>
<asrwt>0</asrwt>
<pdfrwt beam="1">  1        2 0.40878179E+00 0.72591256E+03</pdfrwt>
<pdfrwt beam="2">  1       -2 0.31889202E-01 0.72591256E+03</pdfrwt>
<totfact> 0.27080009E+01</totfact>
</mgrwt>
</event>
<event>
 4    1  0.3057048E-007  0.1185443E+04  0.7818608E-02  0.9171405E-01
         -2   -1    0    0    0  501 -0.00000000000E+00  0.00000000000E+00  0.27355057096E+04  0.27355057096E+04  0.25500000000E-02 0.  1.
          2   -1    0    0  501    0  0.00000000000E+00 -0.00000000000E+00 -0.96300730945E+03  0.96300730946E+03  0.25500000000E-02 0. -1.
    8880023    1    1    2    0    0 -0.31781507147E+03 -0.93298326068E+03  0.22871738856E+04  0.25761286407E+04  0.65864270000E+03 0.  0.
    8880022    1    1    2    0    0  0.31781507147E+03  0.93298326068E+03 -0.51467548546E+03  0.11223843783E+04  0.15294330000E+03 0.  0.
<mgrwt>
<rscale>  0 0.11353518E+04</rscale>
<asrwt>0</asrwt>
<pdfrwt beam="1">  1        2 0.14815497E+00 0.11854427E+04</pdfrwt>
<pdfrwt beam="2">  1       -2 0.42084702E+00 0.11854427E+04</pdfrwt>
<totfact> 0.14247120E-01</totfact>
</mgrwt>
</event>
<event>
 4    1  0.3057048E-007  0.1054789E+04  0.7818608E-02  0.9313146E-01
         -2   -1    0    0    0  501 -0.00000000000E+00  0.00000000000E+00  0.91003407076E+03  0.91003407077E+03  0.25500000000E-02 0.  1.
          2   -1    0    0  501    0  0.00000000000E+00 -0.00000000000E+00 -0.99916323482E+03  0.99916323482E+03  0.25500000000E-02 0. -1.
    8880023    1    1    2    0    0  0.13182862584E+03  0.81325978120E+03  0.66634898289E+02  0.10568919880E+04  0.65864270000E+03 0. -1.
    8880022    1    1    2    0    0 -0.13182862584E+03 -0.81325978120E+03 -0.15576406234E+03  0.85230531762E+03  0.15294330000E+03 0.  0.
<mgrwt>
<rscale>  0 0.99581564E+03</rscale>
<asrwt>0</asrwt>
<pdfrwt beam="1">  1        2 0.15371742E+00 0.10547893E+04</pdfrwt>
<pdfrwt beam="2">  1       -2 0.14000524E+00 0.10547893E+04</pdfrwt>
<totfact> 0.89375780E+00</totfact>
</mgrwt>
</event>
<event>
 4    1  0.3057048E-007  0.7793652E+03  0.7818608E-02  0.9757330E-01
          2   -1    0    0  501    0  0.00000000000E+00  0.00000000000E+00  0.14635918867E+04  0.14635918867E+04  0.25500000000E-02 0. -1.
         -2   -1    0    0    0  501 -0.00000000000E+00 -0.00000000000E+00 -0.37483136490E+03  0.37483136491E+03  0.25500000000E-02 0.  1.
    8880023    1    1    2    0    0 -0.21709936549E+03  0.35562318823E+03  0.14118124492E+03  0.79204945343E+03  0.65864270000E+03 0.  1.
    8880022    1    1    2    0    0  0.21709936549E+03 -0.35562318823E+03  0.94757927684E+03  0.10463737981E+04  0.15294330000E+03 0.  0.
<mgrwt>
<rscale>  0 0.67703599E+03</rscale>
<asrwt>0</asrwt>
<pdfrwt beam="1">  1        2 0.22516799E+00 0.77936525E+03</pdfrwt>
<pdfrwt beam="2">  1       -2 0.57666362E-01 0.77936525E+03</pdfrwt>
<totfact> 0.38191032E+01</totfact>
</mgrwt>
</event>
<event>
 4    1  0.3057048E-007  0.1481119E+04  0.7818608E-02  0.8923085E-01
         -2   -1    0    0    0  501 -0.00000000000E+00  0.00000000000E+00  0.24339446001E+04  0.24339446001E+04  0.25500000000E-02 0.  1.
          2   -1    0    0  501    0  0.00000000000E+00 -0.00000000000E+00 -0.11373714409E+04  0.11373714409E+04  0.25500000000E-02 0. -1.
    8880023    1    1    2    0    0 -0.12443833533E+04  0.45979669505E+03  0.16223473304E+04  0.21967530579E+04  0.65864270000E+03 0.  1.
    8880022    1    1    2    0    0  0.12443833533E+04 -0.45979669505E+03 -0.32577417116E+03  0.13745629831E+04  0.15294330000E+03 0.  0.
<mgrwt>
<rscale>  0 0.14432625E+04</rscale>
<asrwt>0</asrwt>
<pdfrwt beam="1">  1        2 0.17498022E+00 0.14811189E+04</pdfrwt>
<pdfrwt beam="2">  1       -2 0.37445301E+00 0.14811189E+04</pdfrwt>
<totfact> 0.21325661E-01</totfact>
</mgrwt>
</event>
<event>
 4    1  0.3057048E-007  0.8188039E+03  0.7818608E-02  0.9671522E-01
          2   -1    0    0  501    0  0.00000000000E+00  0.00000000000E+00  0.23824671128E+04  0.23824671128E+04  0.25500000000E-02 0. -1.
         -2   -1    0    0    0  501 -0.00000000000E+00 -0.00000000000E+00 -0.25496937241E+03  0.25496937242E+03  0.25500000000E-02 0.  1.
    8880023    1    1    2    0    0 -0.12590619076E+03  0.46986933567E+03  0.56757308234E+03  0.99628257614E+03  0.65864270000E+03 0.  0.
    8880022    1    1    2    0    0  0.12590619076E+03 -0.46986933567E+03  0.15599246581E+04  0.16411539091E+04  0.15294330000E+03 0.  0.
<mgrwt>
<rscale>  0 0.72737942E+03</rscale>
<asrwt>0</asrwt>
<pdfrwt beam="1">  1        2 0.36653340E+00 0.81880386E+03</pdfrwt>
<pdfrwt beam="2">  1       -2 0.39226057E-01 0.81880386E+03</pdfrwt>
<totfact> 0.25793062E+01</totfact>
</mgrwt>
</event>
<event>
 4    1  0.3057048E-007  0.6933759E+03  0.7818608E-02  0.1002588E+00
         -2   -1    0    0    0  501 -0.00000000000E+00  0.00000000000E+00  0.33463525568E+03  0.33463525568E+03  0.25500000000E-02 0.  1.
          2   -1    0    0  501    0  0.00000000000E+00 -0.00000000000E+00 -0.20957795438E+04  0.20957795438E+04  0.25500000000E-02 0. -1.
    8880023    1    1    2    0    0 -0.17340799507E+03  0.12996001677E+03 -0.46018821924E+02  0.69490134332E+03  0.65864270000E+03 0.  1.
    8880022    1    1    2    0    0  0.17340799507E+03 -0.12996001677E+03 -0.17151254662E+04  0.17355134562E+04  0.15294330000E+03 0.  0.
<mgrwt>
<rscale>  0 0.54530038E+03</rscale>
<asrwt>0</asrwt>
<pdfrwt beam="1">  1        2 0.32242761E+00 0.69337590E+03</pdfrwt>
<pdfrwt beam="2">  1       -2 0.51482349E-01 0.69337590E+03</pdfrwt>
<totfact> 0.21992845E+01</totfact>
</mgrwt>
</event>
<event>
 4    1  0.3057048E-007  0.1349936E+04  0.7818608E-02  0.9023593E-01
          2   -1    0    0  501    0  0.00000000000E+00  0.00000000000E+00  0.28023961558E+04  0.28023961558E+04  0.25500000000E-02 0. -1.
         -2   -1    0    0    0  501 -0.00000000000E+00 -0.00000000000E+00 -0.77937117117E+03  0.77937117117E+03  0.25500000000E-02 0.  1.
    8880023    1    1    2    0    0 -0.68446664559E+02 -0.11763644799E+04  0.14269374900E+03  0.13574571993E+04  0.65864270000E+03 0.  1.
    8880022    1    1    2    0    0  0.68446664559E+02  0.11763644799E+04  0.18803312356E+04  0.22243101277E+04  0.15294330000E+03 0.  0.
<mgrwt>
<rscale>  0 0.13075578E+04</rscale>
<asrwt>0</asrwt>
<pdfrwt beam="1">  1        2 0.43113787E+00 0.13499365E+04</pdfrwt>
<pdfrwt beam="2">  1       -2 0.11990326E+00 0.13499365E+04</pdfrwt>
<totfact> 0.11856684E+00</totfact>
</mgrwt>
</event>
<event>
 4    1  0.3057048E-007  0.7246968E+03  0.7818608E-02  0.9907003E-01
         -2   -1    0    0    0  501 -0.00000000000E+00  0.00000000000E+00  0.10066237729E+04  0.10066237729E+04  0.25500000000E-02 0.  1.
          2   -1    0    0  501    0  0.00000000000E+00 -0.00000000000E+00 -0.28121323939E+03  0.28121323940E+03  0.25500000000E-02 0. -1.
    8880023    1    1    2    0    0 -0.27588145832E+03  0.12355005590E+03  0.51479057855E+03  0.88892898557E+03  0.65864270000E+03 0.  1.
    8880022    1    1    2    0    0  0.27588145832E+03 -0.12355005590E+03  0.21061995498E+03  0.39890802676E+03  0.15294330000E+03 0. -1.
<mgrwt>
<rscale>  0 0.59923104E+03</rscale>
<asrwt>0</asrwt>
<pdfrwt beam="1">  1        2 0.43263574E-01 0.72469677E+03</pdfrwt>
<pdfrwt beam="2">  1       -2 0.15486520E+00 0.72469677E+03</pdfrwt>
<totfact> 0.32914713E+01</totfact>
</mgrwt>
</event>
<event>
 4    1  0.3057048E-007  0.1295069E+04  0.7818608E-02  0.9069829E-01
          2   -1    0    0  501    0  0.00000000000E+00  0.00000000000E+00  0.15003746627E+04  0.15003746627E+04  0.25500000000E-02 0. -1.
         -2   -1    0    0    0  501 -0.00000000000E+00 -0.00000000000E+00 -0.15048073847E+04  0.15048073847E+04  0.25500000000E-02 0.  1.
    8880023    1    1    2    0    0 -0.36987537757E+03 -0.10519442831E+04 -0.89138623892E+03  0.15721877124E+04  0.65864270000E+03 0.  0.
    8880022    1    1    2    0    0  0.36987537757E+03  0.10519442831E+04  0.88695351693E+03  0.14329943349E+04  0.15294330000E+03 0.  0.
<mgrwt>
<rscale>  0 0.12504252E+04</rscale>
<asrwt>0</asrwt>
<pdfrwt beam="1">  1        2 0.23082687E+00 0.12950694E+04</pdfrwt>
<pdfrwt beam="2">  1       -2 0.23150883E+00 0.12950694E+04</pdfrwt>
<totfact> 0.10193555E+00</totfact>
</mgrwt>
</event>
<event>
 4    1  0.3057048E-007  0.9155572E+03  0.7818608E-02  0.9501505E-01
          2   -1    0    0  501    0  0.00000000000E+00  0.00000000000E+00  0.32415650398E+04  0.32415650398E+04  0.25500000000E-02 0. -1.
         -2   -1    0    0    0  501 -0.00000000000E+00 -0.00000000000E+00 -0.21436360607E+03  0.21436360609E+03  0.25500000000E-02 0.  1.
    8880023    1    1    2    0    0  0.24659753249E+03 -0.58619492871E+03  0.11619305975E+04  0.14792997523E+04  0.65864270000E+03 0.  0.
    8880022    1    1    2    0    0 -0.24659753249E+03  0.58619492871E+03  0.18652708363E+04  0.19766288936E+04  0.15294330000E+03 0.  0.
<mgrwt>
<rscale>  0 0.84172957E+03</rscale>
<asrwt>0</asrwt>
<pdfrwt beam="1">  1        2 0.49870226E+00 0.91555723E+03</pdfrwt>
<pdfrwt beam="2">  1       -2 0.32979020E-01 0.91555723E+03</pdfrwt>
<totfact> 0.10881192E+01</totfact>
</mgrwt>
</event>
<event>
 4    1  0.3057048E-007  0.9457477E+03  0.7818608E-02  0.9456259E-01
          2   -1    0    0  501    0  0.00000000000E+00  0.00000000000E+00  0.59766363088E+03  0.59766363088E+03  0.25500000000E-02 0. -1.
         -2   -1    0    0    0  501 -0.00000000000E+00 -0.00000000000E+00 -0.14871720118E+04  0.14871720118E+04  0.25500000000E-02 0.  1.
    8880023    1    1    2    0    0  0.10161020269E+03  0.67104681812E+03 -0.10045246045E+04  0.13796769016E+04  0.65864270000E+03 0.  1.
    8880022    1    1    2    0    0 -0.10161020269E+03 -0.67104681812E+03  0.11501622363E+03  0.70515874108E+03  0.15294330000E+03 0.  0.
<mgrwt>
<rscale>  0 0.87586947E+03</rscale>
<asrwt>0</asrwt>
<pdfrwt beam="1">  1        2 0.91948251E-01 0.94574768E+03</pdfrwt>
<pdfrwt beam="2">  1       -2 0.22879569E+00 0.94574768E+03</pdfrwt>
<totfact> 0.43445133E+00</totfact>
</mgrwt>
</event>
<event>
 4    1  0.3057048E-007  0.7303202E+03  0.7818608E-02  0.9889097E-01
         -2   -1    0    0    0  501 -0.00000000000E+00  0.00000000000E+00  0.38867495825E+03  0.38867495826E+03  0.25500000000E-02 0.  1.
          2   -1    0    0  501    0  0.00000000000E+00 -0.00000000000E+00 -0.16751414371E+04  0.16751414371E+04  0.25500000000E-02 0. -1.
    8880023    1    1    2    0    0  0.45355423772E+02  0.31225043795E+03  0.10371602508E+00  0.73032024995E+03  0.65864270000E+03 0.  1.
    8880022    1    1    2    0    0 -0.45355423772E+02 -0.31225043795E+03 -0.12865701949E+04  0.13334961454E+04  0.15294330000E+03 0.  0.
<mgrwt>
<rscale>  0 0.60792594E+03</rscale>
<asrwt>0</asrwt>
<pdfrwt beam="1">  1        2 0.25771406E+00 0.73032024E+03</pdfrwt>
<pdfrwt beam="2">  1       -2 0.59796148E-01 0.73032024E+03</pdfrwt>
<totfact> 0.27179970E+01</totfact>
</mgrwt>
</event>
<event>
 4    1  0.3057048E-007  0.6988828E+03  0.7818608E-02  0.1000187E+00
          2   -1    0    0  501    0  0.00000000000E+00  0.00000000000E+00  0.10975577953E+04  0.10975577953E+04  0.25500000000E-02 0. -1.
         -2   -1    0    0    0  501 -0.00000000000E+00 -0.00000000000E+00 -0.55530542926E+03  0.55530542927E+03  0.25500000000E-02 0.  1.
    8880023    1    1    2    0    0  0.17651560934E+03 -0.15319683050E+03 -0.30367989923E+03  0.76200965655E+03  0.65864270000E+03 0.  1.
    8880022    1    1    2    0    0 -0.17651560934E+03  0.15319683050E+03  0.84593226529E+03  0.89085356804E+03  0.15294330000E+03 0.  0.
<mgrwt>
<rscale>  0 0.55568428E+03</rscale>
<asrwt>0</asrwt>
<pdfrwt beam="1">  1        2 0.16885504E+00 0.69888285E+03</pdfrwt>
<pdfrwt beam="2">  1       -2 0.85431606E-01 0.69888285E+03</pdfrwt>
<totfact> 0.26637846E+01</totfact>
</mgrwt>
</event>
<event>
 4    1  0.3057048E-007  0.7063372E+03  0.7818608E-02  0.9971862E-01
         -2   -1    0    0    0  501 -0.00000000000E+00  0.00000000000E+00  0.29541316528E+03  0.29541316529E+03  0.25500000000E-02 0.  1.
          2   -1    0    0  501    0  0.00000000000E+00 -0.00000000000E+00 -0.92720898199E+03  0.92720898199E+03  0.25500000000E-02 0. -1.
    8880023    1    1    2    0    0 -0.48516269108E+02 -0.25049604402E+03 -0.27475291216E+03  0.75789277965E+03  0.65864270000E+03 0.  0.
    8880022    1    1    2    0    0  0.48516269108E+02  0.25049604402E+03 -0.35704290455E+03  0.46472936763E+03  0.15294330000E+03 0.  0.
<mgrwt>
<rscale>  0 0.56901427E+03</rscale>
<asrwt>0</asrwt>
<pdfrwt beam="1">  1        2 0.14264753E+00 0.70633724E+03</pdfrwt>
<pdfrwt beam="2">  1       -2 0.45448180E-01 0.70633724E+03</pdfrwt>
<totfact> 0.13099265E+02</totfact>
</mgrwt>
</event>
<event>
 4    1  0.3057048E-007  0.6600082E+03  0.7818608E-02  0.1024148E+00
         -2   -1    0    0    0  501 -0.00000000000E+00  0.00000000000E+00  0.59552472875E+03  0.59552472876E+03  0.25500000000E-02 0.  1.
          2   -1    0    0  501    0  0.00000000000E+00 -0.00000000000E+00 -0.38771479829E+03  0.38771479830E+03  0.25500000000E-02 0. -1.
    8880023    1    1    2    0    0  0.41354731653E+02 -0.95109382651E+01  0.36972030996E+03  0.75650775650E+03  0.65864270000E+03 0.  1.
    8880022    1    1    2    0    0 -0.41354731653E+02  0.95109382651E+01 -0.16191037950E+03  0.22673177056E+03  0.15294330000E+03 0.  0.
<mgrwt>
<rscale>  0 0.46219001E+03</rscale>
<asrwt>0</asrwt>
<pdfrwt beam="1">  1        2 0.59648431E-01 0.66000824E+03</pdfrwt>
<pdfrwt beam="2">  1       -2 0.91619189E-01 0.66000824E+03</pdfrwt>
<totfact> 0.84829331E+01</totfact>
</mgrwt>
</event>
<event>
 4    1  0.3057048E-007  0.7179163E+03  0.7818608E-02  0.9929700E-01
         -2   -1    0    0    0  501 -0.00000000000E+00  0.00000000000E+00  0.34322621709E+03  0.34322621710E+03  0.25500000000E-02 0.  1.
          2   -1    0    0  501    0  0.00000000000E+00 -0.00000000000E+00 -0.15976610454E+04  0.15976610454E+04  0.25500000000E-02 0. -1.
    8880023    1    1    2    0    0  0.27803228490E+03 -0.65511068089E+02 -0.79746875842E+02  0.72233193336E+03  0.65864270000E+03 0.  1.
    8880022    1    1    2    0    0 -0.27803228490E+03  0.65511068089E+02 -0.11746879525E+04  0.12185553291E+04  0.15294330000E+03 0.  0.
<mgrwt>
<rscale>  0 0.58843221E+03</rscale>
<asrwt>0</asrwt>
<pdfrwt beam="1">  1        2 0.24579400E+00 0.71791633E+03</pdfrwt>
<pdfrwt beam="2">  1       -2 0.52804034E-01 0.71791633E+03</pdfrwt>
<totfact> 0.38898254E+01</totfact>
</mgrwt>
</event>
<event>
 4    1  0.3057048E-007  0.7252163E+03  0.7818608E-02  0.9905315E-01
          2   -1    0    0  501    0  0.00000000000E+00  0.00000000000E+00  0.19214887801E+04  0.19214887801E+04  0.25500000000E-02 0. -1.
         -2   -1    0    0    0  501 -0.00000000000E+00 -0.00000000000E+00 -0.36999639656E+03  0.36999639656E+03  0.25500000000E-02 0.  1.
    8880023    1    1    2    0    0  0.15068108010E+03 -0.26348371279E+03  0.22916466773E+02  0.72557826974E+03  0.65864270000E+03 0.  1.
    8880022    1    1    2    0    0 -0.15068108010E+03  0.26348371279E+03  0.15285759167E+04  0.15659069069E+04  0.15294330000E+03 0.  0.
<mgrwt>
<rscale>  0 0.60004367E+03</rscale>
<asrwt>0</asrwt>
<pdfrwt beam="1">  1        2 0.29561367E+00 0.72521629E+03</pdfrwt>
<pdfrwt beam="2">  1       -2 0.56922521E-01 0.72521629E+03</pdfrwt>
<totfact> 0.22136493E+01</totfact>
</mgrwt>
</event>
<event>
 4    1  0.3057048E-007  0.8282612E+03  0.7818608E-02  0.9652725E-01
         -2   -1    0    0    0  501 -0.00000000000E+00  0.00000000000E+00  0.40623699091E+03  0.40623699092E+03  0.25500000000E-02 0.  1.
          2   -1    0    0  501    0  0.00000000000E+00 -0.00000000000E+00 -0.37104810698E+04  0.37104810698E+04  0.25500000000E-02 0. -1.
    8880023    1    1    2    0    0 -0.23953637138E+03 -0.44139405832E+03 -0.60172764694E+02  0.83044407145E+03  0.65864270000E+03 0.  1.
    8880022    1    1    2    0    0  0.23953637138E+03  0.44139405832E+03 -0.32440713142E+04  0.32862739893E+04  0.15294330000E+03 0.  0.
<mgrwt>
<rscale>  0 0.73902648E+03</rscale>
<asrwt>0</asrwt>
<pdfrwt beam="1">  1        2 0.57084322E+00 0.82826119E+03</pdfrwt>
<pdfrwt beam="2">  1       -2 0.62498001E-01 0.82826119E+03</pdfrwt>
<totfact> 0.14683655E+00</totfact>
</mgrwt>
</event>
<event>
 4    1  0.3057048E-007  0.8354779E+03  0.7818608E-02  0.9638767E-01
          2   -1    0    0  501    0  0.00000000000E+00  0.00000000000E+00  0.24658830150E+04  0.24658830150E+04  0.25500000000E-02 0. -1.
         -2   -1    0    0    0  501 -0.00000000000E+00 -0.00000000000E+00 -0.34106134503E+03  0.34106134503E+03  0.25500000000E-02 0.  1.
    8880023    1    1    2    0    0 -0.22668704409E+03 -0.46133070409E+03  0.27287393684E+03  0.87891036298E+03  0.65864270000E+03 0.  0.
    8880022    1    1    2    0    0  0.22668704409E+03  0.46133070409E+03  0.18519477332E+04  0.19280339971E+04  0.15294330000E+03 0.  0.
<mgrwt>
<rscale>  0 0.74782624E+03</rscale>
<asrwt>0</asrwt>
<pdfrwt beam="1">  1        2 0.37936660E+00 0.83547785E+03</pdfrwt>
<pdfrwt beam="2">  1       -2 0.52470978E-01 0.83547785E+03</pdfrwt>
<totfact> 0.12902480E+01</totfact>
</mgrwt>
</event>
<event>
 4    1  0.3057048E-007  0.1215418E+04  0.7818608E-02  0.9142279E-01
          2   -1    0    0  501    0  0.00000000000E+00  0.00000000000E+00  0.10026196683E+04  0.10026196683E+04  0.25500000000E-02 0. -1.
         -2   -1    0    0    0  501 -0.00000000000E+00 -0.00000000000E+00 -0.13638439488E+04  0.13638439488E+04  0.25500000000E-02 0.  1.
    8880023    1    1    2    0    0  0.10196784947E+04 -0.60710160428E+02 -0.51903984178E+03  0.13216060380E+04  0.65864270000E+03 0.  0.
    8880022    1    1    2    0    0 -0.10196784947E+04  0.60710160428E+02  0.15781556121E+03  0.10448575791E+04  0.15294330000E+03 0.  0.
<mgrwt>
<rscale>  0 0.11669591E+04</rscale>
<asrwt>0</asrwt>
<pdfrwt beam="1">  1        2 0.15424918E+00 0.12154177E+04</pdfrwt>
<pdfrwt beam="2">  1       -2 0.20982215E+00 0.12154177E+04</pdfrwt>
<totfact> 0.27979338E+00</totfact>
</mgrwt>
</event>
<event>
 4    1  0.3057048E-007  0.6753806E+03  0.7818608E-02  0.1012067E+00
          2   -1    0    0  501    0  0.00000000000E+00  0.00000000000E+00  0.12433668880E+04  0.12433668880E+04  0.25500000000E-02 0. -1.
         -2   -1    0    0    0  501 -0.00000000000E+00 -0.00000000000E+00 -0.43018378469E+03  0.43018378470E+03  0.25500000000E-02 0.  1.
    8880023    1    1    2    0    0  0.84787579919E+02  0.12304413997E+03 -0.14586719217E+03  0.69095313741E+03  0.65864270000E+03 0.  1.
    8880022    1    1    2    0    0 -0.84787579919E+02 -0.12304413997E+03  0.95905029548E+03  0.98259753529E+03  0.15294330000E+03 0.  0.
<mgrwt>
<rscale>  0 0.50661175E+03</rscale>
<asrwt>0</asrwt>
<pdfrwt beam="1">  1        2 0.19128722E+00 0.67538063E+03</pdfrwt>
<pdfrwt beam="2">  1       -2 0.66182120E-01 0.67538063E+03</pdfrwt>
<totfact> 0.38491882E+01</totfact>
</mgrwt>
</event>
<event>
 4    1  0.3083081E-007  0.7549240E+03  0.7818608E-02  0.9818430E-01
         -2   -1    0    0    0  501 -0.00000000000E+00  0.00000000000E+00  0.87554707379E+03  0.87554707380E+03  0.25500000000E-02 0.  1.
          2   -1    0    0  501    0  0.00000000000E+00 -0.00000000000E+00 -0.17040787079E+04  0.17040787079E+04  0.25500000000E-02 0. -1.
    8880023    1    1    2    0    0  0.25384860522E+03  0.26769560239E+03  0.68189386365E+03  0.10172951870E+04  0.65864270000E+03 0.  1.
    8880022    1    1    2    0    0 -0.25384860522E+03 -0.26769560239E+03 -0.15104254978E+04  0.15623305947E+04  0.15294330000E+03 0.  0.
<mgrwt>
<rscale>  0 0.64382775E+03</rscale>
<asrwt>0</asrwt>
<pdfrwt beam="1">  1        2 0.26216596E+00 0.75492401E+03</pdfrwt>
<pdfrwt beam="2">  1       -2 0.13469955E+00 0.75492401E+03</pdfrwt>
<totfact> 0.39835111E+00</totfact>
</mgrwt>
</event>
<event>
 4    1  0.3057048E-007  0.6712160E+03  0.7818608E-02  0.1014806E+00
          2   -1    0    0  501    0  0.00000000000E+00  0.00000000000E+00  0.99265327149E+03  0.99265327149E+03  0.25500000000E-02 0. -1.
         -2   -1    0    0    0  501 -0.00000000000E+00 -0.00000000000E+00 -0.55707674657E+03  0.55707674658E+03  0.25500000000E-02 0.  1.
    8880023    1    1    2    0    0 -0.10262948571E+03 -0.78663306461E+02 -0.33738787188E+03  0.75123998128E+03  0.65864270000E+03 0.  1.
    8880022    1    1    2    0    0  0.10262948571E+03  0.78663306461E+02  0.77296439680E+03  0.79849003679E+03  0.15294330000E+03 0.  0.
<mgrwt>
<rscale>  0 0.49608550E+03</rscale>
<asrwt>0</asrwt>
<pdfrwt beam="1">  1        2 0.15271589E+00 0.67121601E+03</pdfrwt>
<pdfrwt beam="2">  1       -2 0.85704116E-01 0.67121601E+03</pdfrwt>
<totfact> 0.30839058E+01</totfact>
</mgrwt>
</event>
<event>
 4    1  0.3057048E-007  0.7687948E+03  0.7818608E-02  0.9782849E-01
         -2   -1    0    0    0  501 -0.00000000000E+00  0.00000000000E+00  0.20510350435E+03  0.20510350437E+03  0.25500000000E-02 0.  1.
          2   -1    0    0  501    0  0.00000000000E+00 -0.00000000000E+00 -0.22218810230E+04  0.22218810230E+04  0.25500000000E-02 0. -1.
    8880023    1    1    2    0    0  0.34497375583E+03 -0.19552061753E+03 -0.68729370283E+03  0.10312216272E+04  0.65864270000E+03 0.  0.
    8880022    1    1    2    0    0 -0.34497375583E+03  0.19552061753E+03 -0.13294838159E+04  0.13957629003E+04  0.15294330000E+03 0.  0.
<mgrwt>
<rscale>  0 0.66291159E+03</rscale>
<asrwt>0</asrwt>
<pdfrwt beam="1">  1        2 0.34182783E+00 0.76879478E+03</pdfrwt>
<pdfrwt beam="2">  1       -2 0.31554387E-01 0.76879478E+03</pdfrwt>
<totfact> 0.48308770E+01</totfact>
</mgrwt>
</event>
<event>
 4    1  0.3057048E-007  0.9723645E+03  0.7818608E-02  0.9418641E-01
          2   -1    0    0  501    0  0.00000000000E+00  0.00000000000E+00  0.27300913872E+04  0.27300913872E+04  0.25500000000E-02 0. -1.
         -2   -1    0    0    0  501 -0.00000000000E+00 -0.00000000000E+00 -0.93540846277E+03  0.93540846277E+03  0.25500000000E-02 0.  1.
    8880023    1    1    2    0    0  0.65759366348E+03 -0.28151923515E+03 -0.61279166604E+03  0.11493503984E+04  0.65864270000E+03 0.  0.
    8880022    1    1    2    0    0 -0.65759366348E+03  0.28151923515E+03  0.24074745905E+04  0.25161494516E+04  0.15294330000E+03 0.  0.
<mgrwt>
<rscale>  0 0.90557321E+03</rscale>
<asrwt>0</asrwt>
<pdfrwt beam="1">  1        2 0.42001405E+00 0.97236450E+03</pdfrwt>
<pdfrwt beam="2">  1       -2 0.14390900E+00 0.97236450E+03</pdfrwt>
<totfact> 0.86460445E-01</totfact>
</mgrwt>
</event>
<event>
 4    1  0.3057048E-007  0.9070042E+03  0.7818608E-02  0.9514880E-01
         -2   -1    0    0    0  501 -0.00000000000E+00  0.00000000000E+00  0.74969020531E+03  0.74969020532E+03  0.25500000000E-02 0.  1.
          2   -1    0    0  501    0  0.00000000000E+00 -0.00000000000E+00 -0.12189873740E+04  0.12189873740E+04  0.25500000000E-02 0. -1.
    8880023    1    1    2    0    0  0.29901047414E+03  0.54721030315E+03  0.31039790031E+03  0.95864667229E+03  0.65864270000E+03 0.  0.
    8880022    1    1    2    0    0 -0.29901047414E+03 -0.54721030315E+03 -0.77969506895E+03  0.10100309070E+04  0.15294330000E+03 0.  0.
<mgrwt>
<rscale>  0 0.83195622E+03</rscale>
<asrwt>0</asrwt>
<pdfrwt beam="1">  1        2 0.18753652E+00 0.90700418E+03</pdfrwt>
<pdfrwt beam="2">  1       -2 0.11533695E+00 0.90700418E+03</pdfrwt>
<totfact> 0.10825553E+01</totfact>
</mgrwt>
</event>
<event>
 4    1  0.3057048E-007  0.1476597E+04  0.7818608E-02  0.8926341E-01
          2   -1    0    0  501    0  0.00000000000E+00  0.00000000000E+00  0.14955974674E+04  0.14955974674E+04  0.25500000000E-02 0. -1.
         -2   -1    0    0    0  501 -0.00000000000E+00 -0.00000000000E+00 -0.15288714942E+04  0.15288714942E+04  0.25500000000E-02 0.  1.
    8880023    1    1    2    0    0 -0.82977854217E+03  0.10285895141E+04 -0.57960147373E+03  0.15862776844E+04  0.65864270000E+03 0.  0.
    8880022    1    1    2    0    0  0.82977854217E+03 -0.10285895141E+04  0.54632744698E+03  0.14381912772E+04  0.15294330000E+03 0.  0.
<mgrwt>
<rscale>  0 0.14386022E+04</rscale>
<asrwt>0</asrwt>
<pdfrwt beam="1">  1        2 0.23009192E+00 0.14765971E+04</pdfrwt>
<pdfrwt beam="2">  1       -2 0.23521100E+00 0.14765971E+04</pdfrwt>
<totfact> 0.95486753E-01</totfact>
</mgrwt>
</event>
<event>
 4    1  0.3057048E-007  0.6755546E+03  0.7818608E-02  0.1011959E+00
         -2   -1    0    0    0  501 -0.00000000000E+00  0.00000000000E+00  0.26748860196E+03  0.26748860197E+03  0.25500000000E-02 0.  1.
          2   -1    0    0  501    0  0.00000000000E+00 -0.00000000000E+00 -0.22678954538E+04  0.22678954538E+04  0.25500000000E-02 0. -1.
    8880023    1    1    2    0    0  0.20137342168E+02  0.14885651857E+03 -0.17556674384E+03  0.69799546093E+03  0.65864270000E+03 0.  1.
    8880022    1    1    2    0    0 -0.20137342168E+02 -0.14885651857E+03 -0.18248401080E+04  0.18373885948E+04  0.15294330000E+03 0.  0.
<mgrwt>
<rscale>  0 0.50703441E+03</rscale>
<asrwt>0</asrwt>
<pdfrwt beam="1">  1        2 0.34890698E+00 0.67555457E+03</pdfrwt>
<pdfrwt beam="2">  1       -2 0.41152094E-01 0.67555457E+03</pdfrwt>
<totfact> 0.27767770E+01</totfact>
</mgrwt>
</event>
<event>
 4    1  0.3057048E-007  0.1637804E+04  0.7818608E-02  0.8817998E-01
          2   -1    0    0  501    0  0.00000000000E+00  0.00000000000E+00  0.16638992558E+04  0.16638992558E+04  0.25500000000E-02 0. -1.
         -2   -1    0    0    0  501 -0.00000000000E+00 -0.00000000000E+00 -0.17019154453E+04  0.17019154453E+04  0.25500000000E-02 0.  1.
    8880023    1    1    2    0    0 -0.92336285507E+03 -0.11815211482E+04 -0.61835122073E+03  0.17506454879E+04  0.65864270000E+03 0.  1.
    8880022    1    1    2    0    0  0.92336285507E+03  0.11815211482E+04  0.58033503122E+03  0.16151692132E+04  0.15294330000E+03 0.  1.
<mgrwt>
<rscale>  0 0.16041576E+04</rscale>
<asrwt>0</asrwt>
<pdfrwt beam="1">  1        2 0.25598450E+00 0.16378038E+04</pdfrwt>
<pdfrwt beam="2">  1       -2 0.26183315E+00 0.16378038E+04</pdfrwt>
<totfact> 0.51737672E-01</totfact>
</mgrwt>
</event>
<event>
 4    1  0.3057048E-007  0.7641670E+03  0.7818608E-02  0.9794437E-01
          2   -1    0    0  501    0  0.00000000000E+00  0.00000000000E+00  0.13079468834E+04  0.13079468834E+04  0.25500000000E-02 0. -1.
         -2   -1    0    0    0  501 -0.00000000000E+00 -0.00000000000E+00 -0.60798118583E+03  0.60798118584E+03  0.25500000000E-02 0.  1.
    8880023    1    1    2    0    0 -0.62344427610E+02 -0.38243184892E+03 -0.30905578491E+03  0.82429765933E+03  0.65864270000E+03 0.  0.
    8880022    1    1    2    0    0  0.62344427610E+02  0.38243184892E+03  0.10090214825E+04  0.10916304099E+04  0.15294330000E+03 0. -1.
<mgrwt>
<rscale>  0 0.65661958E+03</rscale>
<asrwt>0</asrwt>
<pdfrwt beam="1">  1        2 0.20122260E+00 0.76416697E+03</pdfrwt>
<pdfrwt beam="2">  1       -2 0.93535567E-01 0.76416697E+03</pdfrwt>
<totfact> 0.16110847E+01</totfact>
</mgrwt>
</event>
<event>
 4    1  0.3057048E-007  0.6746531E+03  0.7818608E-02  0.1012526E+00
         -2   -1    0    0    0  501 -0.00000000000E+00  0.00000000000E+00  0.21884162849E+03  0.21884162851E+03  0.25500000000E-02 0.  1.
          2   -1    0    0  501    0  0.00000000000E+00 -0.00000000000E+00 -0.12931683474E+04  0.12931683475E+04  0.25500000000E-02 0. -1.
    8880023    1    1    2    0    0  0.13791951882E+03 -0.48216878719E+02 -0.35524785503E+03  0.76246829825E+03  0.65864270000E+03 0.  1.
    8880022    1    1    2    0    0 -0.13791951882E+03  0.48216878719E+02 -0.71907886393E+03  0.74954167771E+03  0.15294330000E+03 0.  0.
<mgrwt>
<rscale>  0 0.50483024E+03</rscale>
<asrwt>0</asrwt>
<pdfrwt beam="1">  1        2 0.19894897E+00 0.67465315E+03</pdfrwt>
<pdfrwt beam="2">  1       -2 0.33667944E-01 0.67465315E+03</pdfrwt>
<totfact> 0.14043082E+02</totfact>
</mgrwt>
</event>
<event>
 4    1  0.3057048E-007  0.6918392E+03  0.7818608E-02  0.1003290E+00
          2   -1    0    0  501    0  0.00000000000E+00  0.00000000000E+00  0.21875899857E+04  0.21875899857E+04  0.25500000000E-02 0. -1.
         -2   -1    0    0    0  501 -0.00000000000E+00 -0.00000000000E+00 -0.22505718040E+03  0.22505718041E+03  0.25500000000E-02 0.  1.
    8880023    1    1    2    0    0  0.16367458001E+03  0.13432020554E+03  0.34302107749E+03  0.77220784224E+03  0.65864270000E+03 0.  1.
    8880022    1    1    2    0    0 -0.16367458001E+03 -0.13432020554E+03  0.16195117278E+04  0.16404393238E+04  0.15294330000E+03 0.  0.
<mgrwt>
<rscale>  0 0.54230696E+03</rscale>
<asrwt>0</asrwt>
<pdfrwt beam="1">  1        2 0.33655231E+00 0.69183921E+03</pdfrwt>
<pdfrwt beam="2">  1       -2 0.34624182E-01 0.69183921E+03</pdfrwt>
<totfact> 0.42784550E+01</totfact>
</mgrwt>
</event>
<event>
 4    1  0.3057048E-007  0.1164453E+04  0.7818608E-02  0.9192476E-01
         -2   -1    0    0    0  501 -0.00000000000E+00  0.00000000000E+00  0.14795139049E+04  0.14795139049E+04  0.25500000000E-02 0.  1.
          2   -1    0    0  501    0  0.00000000000E+00 -0.00000000000E+00 -0.18177970800E+04  0.18177970800E+04  0.25500000000E-02 0. -1.
    8880023    1    1    2    0    0 -0.64931395183E+03 -0.70748286998E+03  0.10730201904E+04  0.15834529215E+04  0.65864270000E+03 0.  0.
    8880022    1    1    2    0    0  0.64931395183E+03  0.70748286998E+03 -0.14113033655E+04  0.17138580635E+04  0.15294330000E+03 0.  0.
<mgrwt>
<rscale>  0 0.11131432E+04</rscale>
<asrwt>0</asrwt>
<pdfrwt beam="1">  1        2 0.27966109E+00 0.11644530E+04</pdfrwt>
<pdfrwt beam="2">  1       -2 0.22761752E+00 0.11644530E+04</pdfrwt>
<totfact> 0.72811253E-01</totfact>
</mgrwt>
</event>
<event>
 4    1  0.3057048E-007  0.7062730E+03  0.7818608E-02  0.9972110E-01
         -2   -1    0    0    0  501 -0.00000000000E+00  0.00000000000E+00  0.13035195095E+03  0.13035195097E+03  0.25500000000E-02 0.  1.
          2   -1    0    0  501    0  0.00000000000E+00 -0.00000000000E+00 -0.19902807232E+04  0.19902807232E+04  0.25500000000E-02 0. -1.
    8880023    1    1    2    0    0  0.42199578570E+02 -0.25145677567E+03 -0.11311696685E+04  0.13335540258E+04  0.65864270000E+03 0.  0.
    8880022    1    1    2    0    0 -0.42199578570E+02  0.25145677567E+03 -0.72875910372E+03  0.78707864838E+03  0.15294330000E+03 0.  0.
<mgrwt>
<rscale>  0 0.56890244E+03</rscale>
<asrwt>0</asrwt>
<pdfrwt beam="1">  1        2 0.30619701E+00 0.70627298E+03</pdfrwt>
<pdfrwt beam="2">  1       -2 0.20054148E-01 0.70627298E+03</pdfrwt>
<totfact> 0.14784431E+02</totfact>
</mgrwt>
</event>
<event>
 4    1  0.3057048E-007  0.9088109E+03  0.7818608E-02  0.9512033E-01
         -2   -1    0    0    0  501 -0.00000000000E+00  0.00000000000E+00  0.64261641940E+03  0.64261641940E+03  0.25500000000E-02 0.  1.
          2   -1    0    0  501    0  0.00000000000E+00 -0.00000000000E+00 -0.10156422847E+04  0.10156422847E+04  0.25500000000E-02 0. -1.
    8880023    1    1    2    0    0  0.59017251368E+03 -0.20934044336E+03  0.91832710699E+01  0.90885728025E+03  0.65864270000E+03 0.  0.
    8880022    1    1    2    0    0 -0.59017251368E+03  0.20934044336E+03 -0.38220913637E+03  0.74940142385E+03  0.15294330000E+03 0.  0.
<mgrwt>
<rscale>  0 0.83402479E+03</rscale>
<asrwt>0</asrwt>
<pdfrwt beam="1">  1        2 0.15625266E+00 0.90881088E+03</pdfrwt>
<pdfrwt beam="2">  1       -2 0.98864065E-01 0.90881088E+03</pdfrwt>
<totfact> 0.20920000E+01</totfact>
</mgrwt>
</event>
<event>
 4    1  0.3057048E-007  0.7749021E+03  0.7818608E-02  0.9767951E-01
          2   -1    0    0  501    0  0.00000000000E+00  0.00000000000E+00  0.87631074556E+03  0.87631074557E+03  0.25500000000E-02 0. -1.
         -2   -1    0    0    0  501 -0.00000000000E+00 -0.00000000000E+00 -0.55546965518E+03  0.55546965518E+03  0.25500000000E-02 0.  1.
    8880023    1    1    2    0    0  0.34532541589E+03 -0.21774623868E+03 -0.15088618003E+03  0.78945545340E+03  0.65864270000E+03 0. -1.
    8880022    1    1    2    0    0 -0.34532541589E+03  0.21774623868E+03  0.47172727042E+03  0.64232494735E+03  0.15294330000E+03 0.  0.
<mgrwt>
<rscale>  0 0.67111194E+03</rscale>
<asrwt>0</asrwt>
<pdfrwt beam="1">  1        2 0.13481704E+00 0.77490211E+03</pdfrwt>
<pdfrwt beam="2">  1       -2 0.85456870E-01 0.77490211E+03</pdfrwt>
<totfact> 0.36675917E+01</totfact>
</mgrwt>
</event>
<event>
 4    1  0.3057048E-007  0.9571511E+03  0.7818608E-02  0.9439899E-01
         -2   -1    0    0    0  501 -0.00000000000E+00  0.00000000000E+00  0.96733467283E+03  0.96733467284E+03  0.25500000000E-02 0.  1.
          2   -1    0    0  501    0  0.00000000000E+00 -0.00000000000E+00 -0.10046916880E+04  0.10046916880E+04  0.25500000000E-02 0. -1.
    8880023    1    1    2    0    0 -0.30958086198E+03  0.62168134856E+03  0.50076502517E+03  0.10802332276E+04  0.65864270000E+03 0.  0.
    8880022    1    1    2    0    0  0.30958086198E+03 -0.62168134856E+03 -0.53812204037E+03  0.89179313330E+03  0.15294330000E+03 0.  0.
<mgrwt>
<rscale>  0 0.88863641E+03</rscale>
<asrwt>0</asrwt>
<pdfrwt beam="1">  1        2 0.15456795E+00 0.95715109E+03</pdfrwt>
<pdfrwt beam="2">  1       -2 0.14882072E+00 0.95715109E+03</pdfrwt>
<totfact> 0.76178712E+00</totfact>
</mgrwt>
</event>
<event>
 4    1  0.3057048E-007  0.7834885E+03  0.7818608E-02  0.9747705E-01
         -2   -1    0    0    0  501 -0.00000000000E+00  0.00000000000E+00  0.10976781247E+04  0.10976781247E+04  0.25500000000E-02 0.  1.
          2   -1    0    0  501    0  0.00000000000E+00 -0.00000000000E+00 -0.80401388618E+03  0.80401388618E+03  0.25500000000E-02 0. -1.
    8880023    1    1    2    0    0  0.39863077770E+03 -0.14538774096E+03  0.86938168647E+03  0.11703327797E+04  0.65864270000E+03 0.  1.
    8880022    1    1    2    0    0 -0.39863077770E+03  0.14538774096E+03 -0.57571744796E+03  0.73135923119E+03  0.15294330000E+03 0.  0.
<mgrwt>
<rscale>  0 0.68246109E+03</rscale>
<asrwt>0</asrwt>
<pdfrwt beam="1">  1        2 0.12369444E+00 0.78348854E+03</pdfrwt>
<pdfrwt beam="2">  1       -2 0.16887356E+00 0.78348854E+03</pdfrwt>
<totfact> 0.75320145E+00</totfact>
</mgrwt>
</event>
<event>
 4    1  0.3057048E-007  0.6910599E+03  0.7818608E-02  0.1003653E+00
         -2   -1    0    0    0  501 -0.00000000000E+00  0.00000000000E+00  0.31758019857E+03  0.31758019858E+03  0.25500000000E-02 0.  1.
          2   -1    0    0  501    0  0.00000000000E+00 -0.00000000000E+00 -0.20303334921E+04  0.20303334921E+04  0.25500000000E-02 0. -1.
    8880023    1    1    2    0    0 -0.96710581126E+02 -0.18547426043E+03 -0.81088263729E+02  0.69580108548E+03  0.65864270000E+03 0.  1.
    8880022    1    1    2    0    0  0.96710581126E+02  0.18547426043E+03 -0.16316650298E+04  0.16521126052E+04  0.15294330000E+03 0.  0.
<mgrwt>
<rscale>  0 0.54077142E+03</rscale>
<asrwt>0</asrwt>
<pdfrwt beam="1">  1        2 0.31235899E+00 0.69105994E+03</pdfrwt>
<pdfrwt beam="2">  1       -2 0.48858494E-01 0.69105994E+03</pdfrwt>
<totfact> 0.26568041E+01</totfact>
</mgrwt>
</event>
<event>
 4    1  0.3057048E-007  0.7088782E+03  0.7818608E-02  0.9962191E-01
         -2   -1    0    0    0  501 -0.00000000000E+00  0.00000000000E+00  0.54288078374E+03  0.54288078374E+03  0.25500000000E-02 0.  1.
          2   -1    0    0  501    0  0.00000000000E+00 -0.00000000000E+00 -0.59488721536E+03  0.59488721536E+03  0.25500000000E-02 0. -1.
    8880023    1    1    2    0    0  0.24575905609E+03 -0.91107365747E+02  0.20734268505E+03  0.73857921786E+03  0.65864270000E+03 0.  0.
    8880022    1    1    2    0    0 -0.24575905609E+03  0.91107365747E+02 -0.25934911667E+03  0.39918878125E+03  0.15294330000E+03 0.  0.
<mgrwt>
<rscale>  0 0.57339658E+03</rscale>
<asrwt>0</asrwt>
<pdfrwt beam="1">  1        2 0.91521111E-01 0.70887818E+03</pdfrwt>
<pdfrwt beam="2">  1       -2 0.83520120E-01 0.70887818E+03</pdfrwt>
<totfact> 0.63776141E+01</totfact>
</mgrwt>
</event>
<event>
 4    1  0.3057048E-007  0.7463047E+03  0.7818608E-02  0.9841948E-01
         -2   -1    0    0    0  501 -0.00000000000E+00  0.00000000000E+00  0.12031037858E+04  0.12031037858E+04  0.25500000000E-02 0.  1.
          2   -1    0    0  501    0  0.00000000000E+00 -0.00000000000E+00 -0.87570330430E+03  0.87570330430E+03  0.25500000000E-02 0. -1.
    8880023    1    1    2    0    0  0.16069247997E+02 -0.35057419424E+03  0.10339832856E+04  0.12751831741E+04  0.65864270000E+03 0.  1.
    8880022    1    1    2    0    0 -0.16069247997E+02  0.35057419424E+03 -0.70658280405E+03  0.80362391602E+03  0.15294330000E+03 0.  0.
<mgrwt>
<rscale>  0 0.63159131E+03</rscale>
<asrwt>0</asrwt>
<pdfrwt beam="1">  1        2 0.13472358E+00 0.74630469E+03</pdfrwt>
<pdfrwt beam="2">  1       -2 0.18509289E+00 0.74630469E+03</pdfrwt>
<totfact> 0.52039272E+00</totfact>
</mgrwt>
</event>
<event>
 4    1  0.3057048E-007  0.9185981E+03  0.7818608E-02  0.9496812E-01
          2   -1    0    0  501    0  0.00000000000E+00  0.00000000000E+00  0.89132727307E+03  0.89132727307E+03  0.25500000000E-02 0. -1.
         -2   -1    0    0    0  501 -0.00000000000E+00 -0.00000000000E+00 -0.95804630941E+03  0.95804630942E+03  0.25500000000E-02 0.  1.
    8880023    1    1    2    0    0  0.55506006589E+03  0.31924990440E+03 -0.51480357041E+03  0.10530171416E+04  0.65864270000E+03 0.  1.
    8880022    1    1    2    0    0 -0.55506006589E+03 -0.31924990440E+03  0.44808453406E+03  0.79635644085E+03  0.15294330000E+03 0. -1.
<mgrwt>
<rscale>  0 0.84519269E+03</rscale>
<asrwt>0</asrwt>
<pdfrwt beam="1">  1        2 0.13712727E+00 0.91859805E+03</pdfrwt>
<pdfrwt beam="2">  1       -2 0.14739174E+00 0.91859805E+03</pdfrwt>
<totfact> 0.93193979E+00</totfact>
</mgrwt>
</event>
<event>
 4    1  0.3057048E-007  0.7073104E+03  0.7818608E-02  0.9968127E-01
          2   -1    0    0  501    0  0.00000000000E+00  0.00000000000E+00  0.48343155281E+04  0.48343155281E+04  0.25500000000E-02 0. -1.
         -2   -1    0    0    0  501 -0.00000000000E+00 -0.00000000000E+00 -0.10309066886E+03  0.10309066889E+03  0.25500000000E-02 0.  1.
    8880023    1    1    2    0    0  0.10146807102E+03 -0.23702751913E+03  0.11960311440E+04  0.13895245654E+04  0.65864270000E+03 0.  1.
    8880022    1    1    2    0    0 -0.10146807102E+03  0.23702751913E+03  0.35351937152E+04  0.35478816315E+04  0.15294330000E+03 0.  0.
<mgrwt>
<rscale>  0 0.57070156E+03</rscale>
<asrwt>0</asrwt>
<pdfrwt beam="1">  1        2 0.74374088E+00 0.70731041E+03</pdfrwt>
<pdfrwt beam="2">  1       -2 0.15860102E-01 0.70731041E+03</pdfrwt>
<totfact> 0.20284351E+00</totfact>
</mgrwt>
</event>
<event>
 4    1  0.3057048E-007  0.9672089E+03  0.7818608E-02  0.9425775E-01
         -2   -1    0    0    0  501 -0.00000000000E+00  0.00000000000E+00  0.63393771338E+03  0.63393771338E+03  0.25500000000E-02 0.  1.
          2   -1    0    0  501    0  0.00000000000E+00 -0.00000000000E+00 -0.22890264102E+04  0.22890264102E+04  0.25500000000E-02 0. -1.
    8880023    1    1    2    0    0  0.66328139309E+03 -0.24847657153E+03  0.14915942718E+03  0.97864271008E+03  0.65864270000E+03 0.  1.
    8880022    1    1    2    0    0 -0.66328139309E+03  0.24847657153E+03 -0.18042481240E+04  0.19443214135E+04  0.15294330000E+03 0.  0.
<mgrwt>
<rscale>  0 0.89984523E+03</rscale>
<asrwt>0</asrwt>
<pdfrwt beam="1">  1        2 0.35215790E+00 0.96720888E+03</pdfrwt>
<pdfrwt beam="2">  1       -2 0.97528880E-01 0.96720888E+03</pdfrwt>
<totfact> 0.40681565E+00</totfact>
</mgrwt>
</event>
<event>
 4    1  0.3057048E-007  0.8478681E+03  0.7818608E-02  0.9615519E-01
         -2   -1    0    0    0  501 -0.00000000000E+00  0.00000000000E+00  0.48833449729E+03  0.48833449729E+03  0.25500000000E-02 0.  1.
          2   -1    0    0  501    0  0.00000000000E+00 -0.00000000000E+00 -0.10893660834E+04  0.10893660834E+04  0.25500000000E-02 0. -1.
    8880023    1    1    2    0    0 -0.35440819188E+03  0.39933058183E+03 -0.56957210561E+03  0.10214169912E+04  0.65864270000E+03 0.  0.
    8880022    1    1    2    0    0  0.35440819188E+03 -0.39933058183E+03 -0.31459480499E+02  0.55628358954E+03  0.15294330000E+03 0.  0.
<mgrwt>
<rscale>  0 0.76277487E+03</rscale>
<asrwt>0</asrwt>
<pdfrwt beam="1">  1        2 0.16759478E+00 0.84786808E+03</pdfrwt>
<pdfrwt beam="2">  1       -2 0.75128384E-01 0.84786808E+03</pdfrwt>
<totfact> 0.35467320E+01</totfact>
</mgrwt>
</event>
<event>
 4    1  0.3057048E-007  0.7240225E+03  0.7818608E-02  0.9909203E-01
         -2   -1    0    0    0  501 -0.00000000000E+00  0.00000000000E+00  0.13391923997E+04  0.13391923997E+04  0.25500000000E-02 0.  1.
          2   -1    0    0  501    0  0.00000000000E+00 -0.00000000000E+00 -0.44905406125E+03  0.44905406126E+03  0.25500000000E-02 0. -1.
    8880023    1    1    2    0    0 -0.20621618026E+03  0.21879961449E+03  0.11523964141E+04  0.13609651303E+04  0.65864270000E+03 0.  1.
    8880022    1    1    2    0    0  0.20621618026E+03 -0.21879961449E+03 -0.26225807565E+03  0.42728133070E+03  0.15294330000E+03 0.  0.
<mgrwt>
<rscale>  0 0.59817338E+03</rscale>
<asrwt>0</asrwt>
<pdfrwt beam="1">  1        2 0.69085240E-01 0.72402251E+03</pdfrwt>
<pdfrwt beam="2">  1       -2 0.20602960E+00 0.72402251E+03</pdfrwt>
<totfact> 0.86626628E+00</totfact>
</mgrwt>
</event>
<event>
 4    1  0.3057048E-007  0.8660404E+03  0.7818608E-02  0.9582908E-01
          2   -1    0    0  501    0  0.00000000000E+00  0.00000000000E+00  0.12256551652E+04  0.12256551652E+04  0.25500000000E-02 0. -1.
         -2   -1    0    0    0  501 -0.00000000000E+00 -0.00000000000E+00 -0.71415146542E+03  0.71415146543E+03  0.25500000000E-02 0.  1.
    8880023    1    1    2    0    0  0.39848236252E+03 -0.39677136535E+03 -0.32098869181E+03  0.92361228669E+03  0.65864270000E+03 0.  0.
    8880022    1    1    2    0    0 -0.39848236252E+03  0.39677136535E+03  0.83249239162E+03  0.10161943440E+04  0.15294330000E+03 0. -1.
<mgrwt>
<rscale>  0 0.78437860E+03</rscale>
<asrwt>0</asrwt>
<pdfrwt beam="1">  1        2 0.18856233E+00 0.86604037E+03</pdfrwt>
<pdfrwt beam="2">  1       -2 0.10986946E+00 0.86604037E+03</pdfrwt>
<totfact> 0.12127453E+01</totfact>
</mgrwt>
</event>
<event>
 4    1  0.3057048E-007  0.7795501E+03  0.7818608E-02  0.9756895E-01
          2   -1    0    0  501    0  0.00000000000E+00  0.00000000000E+00  0.29372510146E+04  0.29372510146E+04  0.25500000000E-02 0. -1.
         -2   -1    0    0    0  501 -0.00000000000E+00 -0.00000000000E+00 -0.42221381295E+03  0.42221381296E+03  0.25500000000E-02 0.  1.
    8880023    1    1    2    0    0 -0.11553384966E+03  0.40067461390E+03  0.27490396375E+04  0.28574319505E+04  0.65864270000E+03 0. -1.
    8880022    1    1    2    0    0  0.11553384966E+03 -0.40067461390E+03 -0.23400243590E+03  0.50203287707E+03  0.15294330000E+03 0.  0.
<mgrwt>
<rscale>  0 0.67728021E+03</rscale>
<asrwt>0</asrwt>
<pdfrwt beam="1">  1        2 0.45188477E+00 0.77955014E+03</pdfrwt>
<pdfrwt beam="2">  1       -2 0.64955972E-01 0.77955014E+03</pdfrwt>
<totfact> 0.44082862E+00</totfact>
</mgrwt>
</event>
<event>
 4    1  0.3057048E-007  0.6750083E+03  0.7818608E-02  0.1012301E+00
         -2   -1    0    0    0  501 -0.00000000000E+00  0.00000000000E+00  0.22053219661E+03  0.22053219662E+03  0.25500000000E-02 0.  1.
          2   -1    0    0  501    0  0.00000000000E+00 -0.00000000000E+00 -0.18255173722E+04  0.18255173722E+04  0.25500000000E-02 0. -1.
    8880023    1    1    2    0    0 -0.29480175999E+02 -0.14476489506E+03 -0.32618179859E+03  0.74968708646E+03  0.65864270000E+03 0.  1.
    8880022    1    1    2    0    0  0.29480175999E+02  0.14476489506E+03 -0.12788033770E+04  0.12963624824E+04  0.15294330000E+03 0.  0.
<mgrwt>
<rscale>  0 0.50570270E+03</rscale>
<asrwt>0</asrwt>
<pdfrwt beam="1">  1        2 0.28084882E+00 0.67500827E+03</pdfrwt>
<pdfrwt beam="2">  1       -2 0.33928031E-01 0.67500827E+03</pdfrwt>
<totfact> 0.70187887E+01</totfact>
</mgrwt>
</event>
<event>
 4    1  0.3057048E-007  0.6813737E+03  0.7818608E-02  0.1008557E+00
          2   -1    0    0  501    0  0.00000000000E+00  0.00000000000E+00  0.15763131934E+04  0.15763131934E+04  0.25500000000E-02 0. -1.
         -2   -1    0    0    0  501 -0.00000000000E+00 -0.00000000000E+00 -0.28148281426E+03  0.28148281428E+03  0.25500000000E-02 0.  1.
    8880023    1    1    2    0    0  0.14799082241E+03 -0.92513064523E+02  0.16056659166E+03  0.70003698991E+03  0.65864270000E+03 0.  1.
    8880022    1    1    2    0    0 -0.14799082241E+03  0.92513064523E+02  0.11342637875E+04  0.11577590178E+04  0.15294330000E+03 0.  0.
<mgrwt>
<rscale>  0 0.52052173E+03</rscale>
<asrwt>0</asrwt>
<pdfrwt beam="1">  1        2 0.24250973E+00 0.68137373E+03</pdfrwt>
<pdfrwt beam="2">  1       -2 0.43305047E-01 0.68137373E+03</pdfrwt>
<totfact> 0.59863090E+01</totfact>
</mgrwt>
</event>
<event>
 4    1  0.3057048E-007  0.1322684E+04  0.7818608E-02  0.9046214E-01
         -2   -1    0    0    0  501 -0.00000000000E+00  0.00000000000E+00  0.13065407769E+04  0.13065407769E+04  0.25500000000E-02 0.  1.
          2   -1    0    0  501    0  0.00000000000E+00 -0.00000000000E+00 -0.15124336253E+04  0.15124336253E+04  0.25500000000E-02 0. -1.
    8880023    1    1    2    0    0 -0.11355381591E+02 -0.11469763114E+04  0.55461358041E+03  0.14342559163E+04  0.65864270000E+03 0. -1.
    8880022    1    1    2    0    0  0.11355381591E+02  0.11469763114E+04 -0.76050642880E+03  0.13847184858E+04  0.15294330000E+03 0.  0.
<mgrwt>
<rscale>  0 0.12792127E+04</rscale>
<asrwt>0</asrwt>
<pdfrwt beam="1">  1        2 0.23268210E+00 0.13226843E+04</pdfrwt>
<pdfrwt beam="2">  1       -2 0.20100627E+00 0.13226843E+04</pdfrwt>
<totfact> 0.15669911E+00</totfact>
</mgrwt>
</event>
<event>
 4    1  0.3057048E-007  0.7094498E+03  0.7818608E-02  0.9960050E-01
         -2   -1    0    0    0  501 -0.00000000000E+00  0.00000000000E+00  0.40734541436E+03  0.40734541437E+03  0.25500000000E-02 0.  1.
          2   -1    0    0  501    0  0.00000000000E+00 -0.00000000000E+00 -0.80160624255E+03  0.80160624255E+03  0.25500000000E-02 0. -1.
    8880023    1    1    2    0    0 -0.62474856089E+02  0.25613616279E+03  0.14664465653E+01  0.70945133608E+03  0.65864270000E+03 0.  1.
    8880022    1    1    2    0    0  0.62474856089E+02 -0.25613616279E+03 -0.39572727475E+03  0.49950032085E+03  0.15294330000E+03 0.  0.
<mgrwt>
<rscale>  0 0.57437234E+03</rscale>
<asrwt>0</asrwt>
<pdfrwt beam="1">  1        2 0.12332404E+00 0.70944982E+03</pdfrwt>
<pdfrwt beam="2">  1       -2 0.62668525E-01 0.70944982E+03</pdfrwt>
<totfact> 0.82391335E+01</totfact>
</mgrwt>
</event>
<event>
 4    1  0.3057048E-007  0.8948577E+03  0.7818608E-02  0.9534338E-01
          2   -1    0    0  501    0  0.00000000000E+00  0.00000000000E+00  0.98677334688E+03  0.98677334688E+03  0.25500000000E-02 0. -1.
         -2   -1    0    0    0  501 -0.00000000000E+00 -0.00000000000E+00 -0.89526314761E+03  0.89526314761E+03  0.25500000000E-02 0.  1.
    8880023    1    1    2    0    0 -0.28154697304E+03  0.53636872579E+03 -0.49709869555E+03  0.10236588433E+04  0.65864270000E+03 0.  1.
    8880022    1    1    2    0    0  0.28154697304E+03 -0.53636872579E+03  0.58860889482E+03  0.85837765122E+03  0.15294330000E+03 0.  0.
<mgrwt>
<rscale>  0 0.81798908E+03</rscale>
<asrwt>0</asrwt>
<pdfrwt beam="1">  1        2 0.15181128E+00 0.89485771E+03</pdfrwt>
<pdfrwt beam="2">  1       -2 0.13773279E+00 0.89485771E+03</pdfrwt>
<totfact> 0.96405355E+00</totfact>
</mgrwt>
</event>
<event>
 4    1  0.3057048E-007  0.1201122E+04  0.7818608E-02  0.9156032E-01
          2   -1    0    0  501    0  0.00000000000E+00  0.00000000000E+00  0.22789914809E+04  0.22789914809E+04  0.25500000000E-02 0. -1.
         -2   -1    0    0    0  501 -0.00000000000E+00 -0.00000000000E+00 -0.84637320018E+03  0.84637320019E+03  0.25500000000E-02 0.  1.
    8880023    1    1    2    0    0  0.13204189218E+03  0.99571554450E+03 -0.18485223085E+03  0.12152633708E+04  0.65864270000E+03 0.  1.
    8880022    1    1    2    0    0 -0.13204189218E+03 -0.99571554450E+03  0.16174705116E+04  0.19101013103E+04  0.15294330000E+03 0.  0.
<mgrwt>
<rscale>  0 0.11519003E+04</rscale>
<asrwt>0</asrwt>
<pdfrwt beam="1">  1        2 0.35061408E+00 0.12011223E+04</pdfrwt>
<pdfrwt beam="2">  1       -2 0.13021126E+00 0.12011223E+04</pdfrwt>
<totfact> 0.19693652E+00</totfact>
</mgrwt>
</event>
<event>
 4    1  0.3057048E-007  0.6655203E+03  0.7818608E-02  0.1019101E+00
          2   -1    0    0  501    0  0.00000000000E+00  0.00000000000E+00  0.15102364453E+04  0.15102364453E+04  0.25500000000E-02 0. -1.
         -2   -1    0    0    0  501 -0.00000000000E+00 -0.00000000000E+00 -0.20052827056E+03  0.20052827058E+03  0.25500000000E-02 0.  1.
    8880023    1    1    2    0    0 -0.89988953828E+02 -0.31765903834E+02  0.38543658454E+03  0.76907649257E+03  0.65864270000E+03 0.  1.
    8880022    1    1    2    0    0  0.89988953828E+02  0.31765903834E+02  0.92427159021E+03  0.94168822332E+03  0.15294330000E+03 0.  0.
<mgrwt>
<rscale>  0 0.48012498E+03</rscale>
<asrwt>0</asrwt>
<pdfrwt beam="1">  1        2 0.23234408E+00 0.66552032E+03</pdfrwt>
<pdfrwt beam="2">  1       -2 0.30850502E-01 0.66552032E+03</pdfrwt>
<totfact> 0.12492474E+02</totfact>
</mgrwt>
</event>
<event>
 4    1  0.3265645E-007  0.7053239E+03  0.7818608E-02  0.9975793E-01
          2   -1    0    0  501    0  0.00000000000E+00  0.00000000000E+00  0.31246835139E+04  0.31246835139E+04  0.25500000000E-02 0. -1.
         -2   -1    0    0    0  501 -0.00000000000E+00 -0.00000000000E+00 -0.58122664432E+03  0.58122664433E+03  0.25500000000E-02 0.  1.
    8880023    1    1    2    0    0 -0.26357765925E+02  0.25095185206E+03 -0.35697079477E+03  0.79051244042E+03  0.65864270000E+03 0.  1.
    8880022    1    1    2    0    0  0.26357765925E+02 -0.25095185206E+03  0.29004276644E+04  0.29153977178E+04  0.15294330000E+03 0.  0.
<mgrwt>
<rscale>  0 0.56724513E+03</rscale>
<asrwt>0</asrwt>
<pdfrwt beam="1">  1        2 0.48072054E+00 0.70532388E+03</pdfrwt>
<pdfrwt beam="2">  1       -2 0.89419483E-01 0.70532388E+03</pdfrwt>
<totfact> 0.16860209E+00</totfact>
</mgrwt>
</event>
<event>
 4    1  0.3057048E-007  0.7402755E+03  0.7818608E-02  0.9859145E-01
          2   -1    0    0  501    0  0.00000000000E+00  0.00000000000E+00  0.83946500323E+03  0.83946500323E+03  0.25500000000E-02 0. -1.
         -2   -1    0    0    0  501 -0.00000000000E+00 -0.00000000000E+00 -0.56498620103E+03  0.56498620103E+03  0.25500000000E-02 0.  1.
    8880023    1    1    2    0    0 -0.27547187759E+03 -0.19573684803E+03 -0.23280529314E+03  0.77601944550E+03  0.65864270000E+03 0.  1.
    8880022    1    1    2    0    0  0.27547187759E+03  0.19573684803E+03  0.50728409534E+03  0.62843175876E+03  0.15294330000E+03 0.  0.
<mgrwt>
<rscale>  0 0.62282802E+03</rscale>
<asrwt>0</asrwt>
<pdfrwt beam="1">  1        2 0.12914846E+00 0.74027554E+03</pdfrwt>
<pdfrwt beam="2">  1       -2 0.86920954E-01 0.74027554E+03</pdfrwt>
<totfact> 0.37521860E+01</totfact>
</mgrwt>
</event>
<event>
 4    1  0.3057048E-007  0.7290221E+03  0.7818608E-02  0.9893162E-01
         -2   -1    0    0    0  501 -0.00000000000E+00  0.00000000000E+00  0.75761440948E+03  0.75761440949E+03  0.25500000000E-02 0.  1.
          2   -1    0    0  501    0  0.00000000000E+00 -0.00000000000E+00 -0.77465500496E+03  0.77465500496E+03  0.25500000000E-02 0. -1.
    8880023    1    1    2    0    0  0.30269250431E+03  0.77719565817E+02  0.51781431113E+03  0.89420632415E+03  0.65864270000E+03 0.  1.
    8880022    1    1    2    0    0 -0.30269250431E+03 -0.77719565817E+02 -0.53485490660E+03  0.63806309030E+03  0.15294330000E+03 0.  0.
<mgrwt>
<rscale>  0 0.60593810E+03</rscale>
<asrwt>0</asrwt>
<pdfrwt beam="1">  1        2 0.11917769E+00 0.72902215E+03</pdfrwt>
<pdfrwt beam="2">  1       -2 0.11655606E+00 0.72902215E+03</pdfrwt>
<totfact> 0.20846399E+01</totfact>
</mgrwt>
</event>
<event>
 4    1  0.3057048E-007  0.7524002E+03  0.7818608E-02  0.9825195E-01
         -2   -1    0    0    0  501 -0.00000000000E+00  0.00000000000E+00  0.38221864600E+03  0.38221864601E+03  0.25500000000E-02 0.  1.
          2   -1    0    0  501    0  0.00000000000E+00 -0.00000000000E+00 -0.17488358615E+04  0.17488358615E+04  0.25500000000E-02 0. -1.
    8880023    1    1    2    0    0 -0.26520099614E+03 -0.24892634647E+03 -0.47174731793E+02  0.75387767967E+03  0.65864270000E+03 0.  1.
    8880022    1    1    2    0    0  0.26520099614E+03  0.24892634647E+03 -0.13194424838E+04  0.13771768279E+04  0.15294330000E+03 0.  0.
<mgrwt>
<rscale>  0 0.64027777E+03</rscale>
<asrwt>0</asrwt>
<pdfrwt beam="1">  1        2 0.26905167E+00 0.75240023E+03</pdfrwt>
<pdfrwt beam="2">  1       -2 0.58802869E-01 0.75240023E+03</pdfrwt>
<totfact> 0.25590241E+01</totfact>
</mgrwt>
</event>
<event>
 4    1  0.3057048E-007  0.8395537E+03  0.7818608E-02  0.9631022E-01
         -2   -1    0    0    0  501 -0.00000000000E+00  0.00000000000E+00  0.11584315267E+04  0.11584315267E+04  0.25500000000E-02 0.  1.
          2   -1    0    0  501    0  0.00000000000E+00 -0.00000000000E+00 -0.76411350920E+03  0.76411350920E+03  0.25500000000E-02 0. -1.
    8880023    1    1    2    0    0  0.22416320756E+03  0.46988412139E+03  0.86412291112E+03  0.12048065583E+04  0.65864270000E+03 0.  1.
    8880022    1    1    2    0    0 -0.22416320756E+03 -0.46988412139E+03 -0.46980489361E+03  0.71773847760E+03  0.15294330000E+03 0.  0.
<mgrwt>
<rscale>  0 0.75276509E+03</rscale>
<asrwt>0</asrwt>
<pdfrwt beam="1">  1        2 0.11755592E+00 0.83955371E+03</pdfrwt>
<pdfrwt beam="2">  1       -2 0.17822024E+00 0.83955371E+03</pdfrwt>
<totfact> 0.68829906E+00</totfact>
</mgrwt>
</event>
<event>
 4    1  0.3057048E-007  0.9284568E+03  0.7818608E-02  0.9481812E-01
         -2   -1    0    0    0  501 -0.00000000000E+00  0.00000000000E+00  0.71757531155E+03  0.71757531155E+03  0.25500000000E-02 0.  1.
          2   -1    0    0  501    0  0.00000000000E+00 -0.00000000000E+00 -0.98977156489E+03  0.98977156489E+03  0.25500000000E-02 0. -1.
    8880023    1    1    2    0    0  0.28082725257E+03 -0.59106497879E+03 -0.42036379310E+03  0.10191848114E+04  0.65864270000E+03 0.  0.
    8880022    1    1    2    0    0 -0.28082725257E+03  0.59106497879E+03  0.14816753975E+03  0.68816206506E+03  0.15294330000E+03 0.  0.
<mgrwt>
<rscale>  0 0.85638118E+03</rscale>
<asrwt>0</asrwt>
<pdfrwt beam="1">  1        2 0.15227255E+00 0.92845676E+03</pdfrwt>
<pdfrwt beam="2">  1       -2 0.11039620E+00 0.92845676E+03</pdfrwt>
<totfact> 0.16644224E+01</totfact>
</mgrwt>
</event>
<event>
 4    1  0.3057048E-007  0.6918057E+03  0.7818608E-02  0.1003306E+00
          2   -1    0    0  501    0  0.00000000000E+00  0.00000000000E+00  0.48162931173E+03  0.48162931174E+03  0.25500000000E-02 0. -1.
         -2   -1    0    0    0  501 -0.00000000000E+00 -0.00000000000E+00 -0.70112628716E+03  0.70112628716E+03  0.25500000000E-02 0.  1.
    8880023    1    1    2    0    0  0.19003141490E+03 -0.93128919155E+02 -0.45754552307E+03  0.82942332146E+03  0.65864270000E+03 0.  1.
    8880022    1    1    2    0    0 -0.19003141490E+03  0.93128919155E+02  0.23804854764E+03  0.35333227744E+03  0.15294330000E+03 0.  0.
<mgrwt>
<rscale>  0 0.54224120E+03</rscale>
<asrwt>0</asrwt>
<pdfrwt beam="1">  1        2 0.74096817E-01 0.69180571E+03</pdfrwt>
<pdfrwt beam="2">  1       -2 0.10786558E+00 0.69180571E+03</pdfrwt>
<totfact> 0.45014192E+01</totfact>
</mgrwt>
</event>
<event>
 4    1  0.3057048E-007  0.7773053E+03  0.7818608E-02  0.9762205E-01
         -2   -1    0    0    0  501 -0.00000000000E+00  0.00000000000E+00  0.59772425880E+03  0.59772425880E+03  0.25500000000E-02 0.  1.
          2   -1    0    0  501    0  0.00000000000E+00 -0.00000000000E+00 -0.10358616527E+04  0.10358616528E+04  0.25500000000E-02 0. -1.
    8880023    1    1    2    0    0  0.22731784859E+03 -0.34455757538E+03  0.25014919907E+03  0.81656485052E+03  0.65864270000E+03 0.  0.
    8880022    1    1    2    0    0 -0.22731784859E+03  0.34455757538E+03 -0.68828659301E+03  0.81702106104E+03  0.15294330000E+03 0.  0.
<mgrwt>
<rscale>  0 0.67430866E+03</rscale>
<asrwt>0</asrwt>
<pdfrwt beam="1">  1        2 0.15936333E+00 0.77730530E+03</pdfrwt>
<pdfrwt beam="2">  1       -2 0.91957579E-01 0.77730530E+03</pdfrwt>
<totfact> 0.24360917E+01</totfact>
</mgrwt>
</event>
<event>
 4    1  0.3057048E-007  0.9315140E+03  0.7818608E-02  0.9477226E-01
         -2   -1    0    0    0  501 -0.00000000000E+00  0.00000000000E+00  0.37761276563E+03  0.37761276564E+03  0.25500000000E-02 0.  1.
          2   -1    0    0  501    0  0.00000000000E+00 -0.00000000000E+00 -0.19710204827E+04  0.19710204827E+04  0.25500000000E-02 0. -1.
    8880023    1    1    2    0    0  0.63037560790E+03 -0.19114035387E+03 -0.48496772404E+03  0.10501961443E+04  0.65864270000E+03 0.  0.
    8880022    1    1    2    0    0 -0.63037560790E+03  0.19114035387E+03 -0.11084399930E+04  0.12984371040E+04  0.15294330000E+03 0.  0.
<mgrwt>
<rscale>  0 0.85983900E+03</rscale>
<asrwt>0</asrwt>
<pdfrwt beam="1">  1        2 0.30323391E+00 0.93151395E+03</pdfrwt>
<pdfrwt beam="2">  1       -2 0.58094273E-01 0.93151395E+03</pdfrwt>
<totfact> 0.19429257E+01</totfact>
</mgrwt>
</event>
<event>
 4    1  0.3057048E-007  0.8068054E+03  0.7818608E-02  0.9696270E-01
          2   -1    0    0  501    0  0.00000000000E+00  0.00000000000E+00  0.15107714714E+04  0.15107714714E+04  0.25500000000E-02 0. -1.
         -2   -1    0    0    0  501 -0.00000000000E+00 -0.00000000000E+00 -0.46595987906E+03  0.46595987906E+03  0.25500000000E-02 0.  1.
    8880023    1    1    2    0    0  0.53820867952E+02 -0.46284779273E+03 -0.17159865628E+02  0.80698787619E+03  0.65864270000E+03 0.  1.
    8880022    1    1    2    0    0 -0.53820867952E+02  0.46284779273E+03  0.10619714580E+04  0.11697434743E+04  0.15294330000E+03 0.  0.
<mgrwt>
<rscale>  0 0.71239308E+03</rscale>
<asrwt>0</asrwt>
<pdfrwt beam="1">  1        2 0.23242638E+00 0.80680541E+03</pdfrwt>
<pdfrwt beam="2">  1       -2 0.71686136E-01 0.80680541E+03</pdfrwt>
<totfact> 0.22467097E+01</totfact>
</mgrwt>
</event>
<event>
 4    1  0.3057048E-007  0.9862899E+03  0.7818608E-02  0.9399719E-01
          2   -1    0    0  501    0  0.00000000000E+00  0.00000000000E+00  0.27789552447E+04  0.27789552447E+04  0.25500000000E-02 0. -1.
         -2   -1    0    0    0  501 -0.00000000000E+00 -0.00000000000E+00 -0.56054975327E+03  0.56054975328E+03  0.25500000000E-02 0.  1.
    8880023    1    1    2    0    0  0.67623900955E+03 -0.28575916862E+03 -0.12048708361E+02  0.98636346147E+03  0.65864270000E+03 0.  1.
    8880022    1    1    2    0    0 -0.67623900955E+03  0.28575916862E+03  0.22304541998E+04  0.23531415365E+04  0.15294330000E+03 0.  0.
<mgrwt>
<rscale>  0 0.92098845E+03</rscale>
<asrwt>0</asrwt>
<pdfrwt beam="1">  1        2 0.42753157E+00 0.98628987E+03</pdfrwt>
<pdfrwt beam="2">  1       -2 0.86238424E-01 0.98628987E+03</pdfrwt>
<totfact> 0.28246427E+00</totfact>
</mgrwt>
</event>
<event>
 4    1  0.3057048E-007  0.7684074E+03  0.7818608E-02  0.9783809E-01
          2   -1    0    0  501    0  0.00000000000E+00  0.00000000000E+00  0.33649951581E+04  0.33649951581E+04  0.25500000000E-02 0. -1.
         -2   -1    0    0    0  501 -0.00000000000E+00 -0.00000000000E+00 -0.21966724013E+03  0.21966724015E+03  0.25500000000E-02 0.  1.
    8880023    1    1    2    0    0 -0.63735923696E+02 -0.39061158869E+03  0.52601153809E+03  0.93120246223E+03  0.65864270000E+03 0.  1.
    8880022    1    1    2    0    0  0.63735923696E+02  0.39061158869E+03  0.26193163799E+04  0.26534599361E+04  0.15294330000E+03 0.  0.
<mgrwt>
<rscale>  0 0.66238754E+03</rscale>
<asrwt>0</asrwt>
<pdfrwt beam="1">  1        2 0.51769157E+00 0.76840737E+03</pdfrwt>
<pdfrwt beam="2">  1       -2 0.33794959E-01 0.76840737E+03</pdfrwt>
<totfact> 0.88428657E+00</totfact>
</mgrwt>
</event>
<event>
 4    1  0.3057048E-007  0.1291607E+04  0.7818608E-02  0.9072842E-01
          2   -1    0    0  501    0  0.00000000000E+00  0.00000000000E+00  0.41933287305E+04  0.41933287305E+04  0.25500000000E-02 0. -1.
         -2   -1    0    0    0  501 -0.00000000000E+00 -0.00000000000E+00 -0.46593405257E+03  0.46593405258E+03  0.25500000000E-02 0.  1.
    8880023    1    1    2    0    0  0.79503900839E+03 -0.77611350028E+03  0.78759774311E+03  0.15127985991E+04  0.65864270000E+03 0.  0.
    8880022    1    1    2    0    0 -0.79503900839E+03  0.77611350028E+03  0.29397969349E+04  0.31464641840E+04  0.15294330000E+03 0.  0.
<mgrwt>
<rscale>  0 0.12468111E+04</rscale>
<asrwt>0</asrwt>
<pdfrwt beam="1">  1        2 0.64512747E+00 0.12916073E+04</pdfrwt>
<pdfrwt beam="2">  1       -2 0.71682165E-01 0.12916073E+04</pdfrwt>
<totfact> 0.41961508E-01</totfact>
</mgrwt>
</event>
<event>
 4    1  0.3057048E-007  0.8479942E+03  0.7818608E-02  0.9615287E-01
          2   -1    0    0  501    0  0.00000000000E+00  0.00000000000E+00  0.11773293953E+04  0.11773293953E+04  0.25500000000E-02 0. -1.
         -2   -1    0    0    0  501 -0.00000000000E+00 -0.00000000000E+00 -0.56895432061E+03  0.56895432062E+03  0.25500000000E-02 0.  1.
    8880023    1    1    2    0    0  0.41368045659E+03 -0.33786450124E+03 -0.91251361022E+02  0.85288976926E+03  0.65864270000E+03 0.  1.
    8880022    1    1    2    0    0 -0.41368045659E+03  0.33786450124E+03  0.69962643571E+03  0.89339394666E+03  0.15294330000E+03 0.  0.
<mgrwt>
<rscale>  0 0.76292605E+03</rscale>
<asrwt>0</asrwt>
<pdfrwt beam="1">  1        2 0.18112760E+00 0.84799419E+03</pdfrwt>
<pdfrwt beam="2">  1       -2 0.87531435E-01 0.84799419E+03</pdfrwt>
<totfact> 0.22207770E+01</totfact>
</mgrwt>
</event>
<event>
 4    1  0.3057048E-007  0.7439462E+03  0.7818608E-02  0.9848598E-01
         -2   -1    0    0    0  501 -0.00000000000E+00  0.00000000000E+00  0.12546380523E+04  0.12546380523E+04  0.25500000000E-02 0.  1.
          2   -1    0    0  501    0  0.00000000000E+00 -0.00000000000E+00 -0.41118502455E+03  0.41118502456E+03  0.25500000000E-02 0. -1.
    8880023    1    1    2    0    0  0.26641177696E+03 -0.22061401958E+03  0.10084737888E+04  0.12531860873E+04  0.65864270000E+03 0.  1.
    8880022    1    1    2    0    0 -0.26641177696E+03  0.22061401958E+03 -0.16502076105E+03  0.41263698953E+03  0.15294330000E+03 0.  0.
<mgrwt>
<rscale>  0 0.62818473E+03</rscale>
<asrwt>0</asrwt>
<pdfrwt beam="1">  1        2 0.63259235E-01 0.74394623E+03</pdfrwt>
<pdfrwt beam="2">  1       -2 0.19302124E+00 0.74394623E+03</pdfrwt>
<totfact> 0.11610675E+01</totfact>
</mgrwt>
</event>
<event>
 4    1  0.3057048E-007  0.8181160E+03  0.7818608E-02  0.9672913E-01
          2   -1    0    0  501    0  0.00000000000E+00  0.00000000000E+00  0.93846373055E+03  0.93846373055E+03  0.25500000000E-02 0. -1.
         -2   -1    0    0    0  501 -0.00000000000E+00 -0.00000000000E+00 -0.77457593823E+03  0.77457593823E+03  0.25500000000E-02 0.  1.
    8880023    1    1    2    0    0  0.42535209892E+03  0.23362202854E+03 -0.43549912749E+03  0.92680815522E+03  0.65864270000E+03 0.  1.
    8880022    1    1    2    0    0 -0.42535209892E+03 -0.23362202854E+03  0.59938691981E+03  0.78623151357E+03  0.15294330000E+03 0.  0.
<mgrwt>
<rscale>  0 0.72652691E+03</rscale>
<asrwt>0</asrwt>
<pdfrwt beam="1">  1        2 0.14437904E+00 0.81811605E+03</pdfrwt>
<pdfrwt beam="2">  1       -2 0.11916553E+00 0.81811605E+03</pdfrwt>
<totfact> 0.15063536E+01</totfact>
</mgrwt>
</event>
<event>
 4    1  0.3057048E-007  0.1314649E+04  0.7818608E-02  0.9053012E-01
          2   -1    0    0  501    0  0.00000000000E+00  0.00000000000E+00  0.25643428482E+04  0.25643428482E+04  0.25500000000E-02 0. -1.
         -2   -1    0    0    0  501 -0.00000000000E+00 -0.00000000000E+00 -0.14432431139E+04  0.14432431139E+04  0.25500000000E-02 0.  1.
    8880023    1    1    2    0    0  0.11377497597E+04 -0.41544954485E+01 -0.96204730275E+03  0.16290601568E+04  0.65864270000E+03 0.  0.
    8880022    1    1    2    0    0 -0.11377497597E+04  0.41544954485E+01  0.20831470371E+04  0.23785258053E+04  0.15294330000E+03 0.  0.
<mgrwt>
<rscale>  0 0.12708432E+04</rscale>
<asrwt>0</asrwt>
<pdfrwt beam="1">  1        2 0.39451428E+00 0.13146490E+04</pdfrwt>
<pdfrwt beam="2">  1       -2 0.22203740E+00 0.13146490E+04</pdfrwt>
<totfact> 0.29443687E-01</totfact>
</mgrwt>
</event>
<event>
 4    1  0.3057048E-007  0.7628004E+03  0.7818608E-02  0.9797911E-01
         -2   -1    0    0    0  501 -0.00000000000E+00  0.00000000000E+00  0.66923682070E+03  0.66923682071E+03  0.25500000000E-02 0.  1.
          2   -1    0    0  501    0  0.00000000000E+00 -0.00000000000E+00 -0.13150818184E+04  0.13150818184E+04  0.25500000000E-02 0. -1.
    8880023    1    1    2    0    0  0.34023711305E+03  0.17970249927E+03  0.39869052642E+03  0.86070821040E+03  0.65864270000E+03 0.  0.
    8880022    1    1    2    0    0 -0.34023711305E+03 -0.17970249927E+03 -0.10445355241E+04  0.11236104287E+04  0.15294330000E+03 0.  0.
<mgrwt>
<rscale>  0 0.65474787E+03</rscale>
<asrwt>0</asrwt>
<pdfrwt beam="1">  1        2 0.20232028E+00 0.76280042E+03</pdfrwt>
<pdfrwt beam="2">  1       -2 0.10295951E+00 0.76280042E+03</pdfrwt>
<totfact> 0.12727682E+01</totfact>
</mgrwt>
</event>
<event>
 4    1  0.3057048E-007  0.1315047E+04  0.7818608E-02  0.9052674E-01
         -2   -1    0    0    0  501 -0.00000000000E+00  0.00000000000E+00  0.11294085676E+04  0.11294085676E+04  0.25500000000E-02 0.  1.
          2   -1    0    0  501    0  0.00000000000E+00 -0.00000000000E+00 -0.19477214546E+04  0.19477214546E+04  0.25500000000E-02 0. -1.
    8880023    1    1    2    0    0 -0.40703933006E+03 -0.10629472399E+04  0.42744733431E+03  0.13827723171E+04  0.65864270000E+03 0.  0.
    8880022    1    1    2    0    0  0.40703933006E+03  0.10629472399E+04 -0.12457602213E+04  0.16943577052E+04  0.15294330000E+03 0.  0.
<mgrwt>
<rscale>  0 0.12712577E+04</rscale>
<asrwt>0</asrwt>
<pdfrwt beam="1">  1        2 0.29964945E+00 0.13150468E+04</pdfrwt>
<pdfrwt beam="2">  1       -2 0.17375516E+00 0.13150468E+04</pdfrwt>
<totfact> 0.13738651E+00</totfact>
</mgrwt>
</event>
<event>
 4    1  0.3057048E-007  0.7336987E+03  0.7818608E-02  0.9878698E-01
         -2   -1    0    0    0  501 -0.00000000000E+00  0.00000000000E+00  0.57233863714E+03  0.57233863714E+03  0.25500000000E-02 0.  1.
          2   -1    0    0  501    0  0.00000000000E+00 -0.00000000000E+00 -0.73037605216E+03  0.73037605217E+03  0.25500000000E-02 0. -1.
    8880023    1    1    2    0    0 -0.12527883015E+03 -0.29800807393E+03  0.23587184787E+03  0.77068108339E+03  0.65864270000E+03 0.  1.
    8880022    1    1    2    0    0  0.12527883015E+03  0.29800807393E+03 -0.39390926290E+03  0.53203360592E+03  0.15294330000E+03 0.  0.
<mgrwt>
<rscale>  0 0.61304890E+03</rscale>
<asrwt>0</asrwt>
<pdfrwt beam="1">  1        2 0.11236555E+00 0.73369871E+03</pdfrwt>
<pdfrwt beam="2">  1       -2 0.88052098E-01 0.73369871E+03</pdfrwt>
<totfact> 0.43762636E+01</totfact>
</mgrwt>
</event>
<event>
 4    1  0.3057048E-007  0.8190936E+03  0.7818608E-02  0.9670938E-01
          2   -1    0    0  501    0  0.00000000000E+00  0.00000000000E+00  0.48360006348E+03  0.48360006348E+03  0.25500000000E-02 0. -1.
         -2   -1    0    0    0  501 -0.00000000000E+00 -0.00000000000E+00 -0.17292950660E+04  0.17292950660E+04  0.25500000000E-02 0.  1.
    8880023    1    1    2    0    0  0.12411617691E+02  0.48677510173E+03 -0.14482090816E+04  0.16637980040E+04  0.65864270000E+03 0.  0.
    8880022    1    1    2    0    0 -0.12411617691E+02 -0.48677510173E+03  0.20251407910E+03  0.54909712544E+03  0.15294330000E+03 0.  0.
<mgrwt>
<rscale>  0 0.72773825E+03</rscale>
<asrwt>0</asrwt>
<pdfrwt beam="1">  1        2 0.74400011E-01 0.81909356E+03</pdfrwt>
<pdfrwt beam="2">  1       -2 0.26604539E+00 0.81909356E+03</pdfrwt>
<totfact> 0.33566488E+00</totfact>
</mgrwt>
</event>
<event>
 4    1  0.3057048E-007  0.8435045E+03  0.7818608E-02  0.9623607E-01
          2   -1    0    0  501    0  0.00000000000E+00  0.00000000000E+00  0.20889665628E+04  0.20889665628E+04  0.25500000000E-02 0. -1.
         -2   -1    0    0    0  501 -0.00000000000E+00 -0.00000000000E+00 -0.30168053614E+03  0.30168053616E+03  0.25500000000E-02 0.  1.
    8880023    1    1    2    0    0  0.45544136757E+03 -0.26507135993E+03  0.47451148363E+03  0.96781249192E+03  0.65864270000E+03 0.  0.
    8880022    1    1    2    0    0 -0.45544136757E+03  0.26507135993E+03  0.13127745430E+04  0.14228346070E+04  0.15294330000E+03 0.  0.
<mgrwt>
<rscale>  0 0.75753209E+03</rscale>
<asrwt>0</asrwt>
<pdfrwt beam="1">  1        2 0.32137947E+00 0.84350452E+03</pdfrwt>
<pdfrwt beam="2">  1       -2 0.46412390E-01 0.84350452E+03</pdfrwt>
<totfact> 0.26824245E+01</totfact>
</mgrwt>
</event>
