<event>
 4    2  0.9070994E-007  0.6758794E+03  0.7818608E-02  0.1011758E+00
          2   -1    0    0  501    0  0.00000000000E+00  0.00000000000E+00  0.78235774899E+03  0.78235774899E+03  0.25500000000E-02 0. -1.
         -2   -1    0    0    0  501 -0.00000000000E+00 -0.00000000000E+00 -0.65914532514E+03  0.65914532514E+03  0.25500000000E-02 0.  1.
    8880023    1    1    2    0    0 -0.13729045955E+03 -0.64452315183E+02  0.60920714139E+03  0.90991555575E+03  0.65864270000E+03 0. -1.
    8880022    1    1    2    0    0  0.13729045955E+03  0.64452315183E+02 -0.48599471753E+03  0.53158751838E+03  0.15294330000E+03 0.  0.
<mgrwt>
<rscale>  0 0.50782039E+03</rscale>
<asrwt>0</asrwt>
<pdfrwt beam="1">  1        2 0.12036273E+00 0.67587941E+03</pdfrwt>
<pdfrwt beam="2">  1       -2 0.10140697E+00 0.67587941E+03</pdfrwt>
<totfact> 0.28948212E+01</totfact>
</mgrwt>
</event>
<event>
 4    2  0.9070994E-007  0.7362450E+03  0.7818608E-02  0.9871023E-01
         -2   -1    0    0    0  501 -0.00000000000E+00  0.00000000000E+00  0.20382314184E+03  0.20382314186E+03  0.25500000000E-02 0.  1.
          2   -1    0    0  501    0  0.00000000000E+00 -0.00000000000E+00 -0.16023873886E+04  0.16023873886E+04  0.25500000000E-02 0. -1.
    8880023    1    1    2    0    0  0.17107766063E+03  0.28103202849E+03 -0.11533031455E+04  0.13682707768E+04  0.65864270000E+03 0.  1.
    8880022    1    1    2    0    0 -0.17107766063E+03 -0.28103202849E+03 -0.24526110125E+03  0.43793975362E+03  0.15294330000E+03 0.  0.
<mgrwt>
<rscale>  0 0.61686416E+03</rscale>
<asrwt>0</asrwt>
<pdfrwt beam="1">  1        2 0.24652113E+00 0.73624505E+03</pdfrwt>
<pdfrwt beam="2">  1       -2 0.31357407E-01 0.73624505E+03</pdfrwt>
<totfact> 0.10706075E+02</totfact>
</mgrwt>
</event>
<event>
 4    2  0.9070994E-007  0.6592422E+03  0.7818608E-02  0.1024947E+00
         -2   -1    0    0    0  501 -0.00000000000E+00  0.00000000000E+00  0.89532247880E+02  0.89532247916E+02  0.25500000000E-02 0.  1.
          2   -1    0    0  501    0  0.00000000000E+00 -0.00000000000E+00 -0.19462229676E+04  0.19462229676E+04  0.25500000000E-02 0. -1.
    8880023    1    1    2    0    0 -0.23530211993E+02 -0.15375117572E+02 -0.16521086701E+04  0.17787814169E+04  0.65864270000E+03 0. -1.
    8880022    1    1    2    0    0  0.23530211993E+02  0.15375117572E+02 -0.20458204957E+03  0.25697379854E+03  0.15294330000E+03 0.  0.
<mgrwt>
<rscale>  0 0.45943031E+03</rscale>
<asrwt>0</asrwt>
<pdfrwt beam="1">  1        2 0.29941889E+00 0.65924219E+03</pdfrwt>
<pdfrwt beam="2">  1       -2 0.13774193E-01 0.65924219E+03</pdfrwt>
<totfact> 0.29821688E+02</totfact>
</mgrwt>
</event>
<event>
 4    2  0.9070994E-007  0.8419790E+03  0.7818608E-02  0.9626460E-01
          2   -1    0    0  501    0  0.00000000000E+00  0.00000000000E+00  0.11984787549E+04  0.11984787549E+04  0.25500000000E-02 0. -1.
         -2   -1    0    0    0  501 -0.00000000000E+00 -0.00000000000E+00 -0.52798875599E+03  0.52798875600E+03  0.25500000000E-02 0.  1.
    8880023    1    1    2    0    0  0.48340556172E+03 -0.20356185467E+03  0.80382564368E+03  0.11640722647E+04  0.65864270000E+03 0.  0.
    8880022    1    1    2    0    0 -0.48340556172E+03  0.20356185467E+03 -0.13333564475E+03  0.56239524621E+03  0.15294330000E+03 0.  0.
<mgrwt>
<rscale>  0 0.75569369E+03</rscale>
<asrwt>0</asrwt>
<pdfrwt beam="1">  1        2 0.18438135E+00 0.84197896E+03</pdfrwt>
<pdfrwt beam="2">  1       -2 0.81229039E-01 0.84197896E+03</pdfrwt>
<totfact> 0.25589308E+01</totfact>
</mgrwt>
</event>
<event>
 4    2  0.9070994E-007  0.6671449E+03  0.7818608E-02  0.1017798E+00
         -2   -1    0    0    0  501 -0.00000000000E+00  0.00000000000E+00  0.32418590106E+03  0.32418590107E+03  0.25500000000E-02 0.  1.
          2   -1    0    0  501    0  0.00000000000E+00 -0.00000000000E+00 -0.63460245276E+03  0.63460245277E+03  0.25500000000E-02 0. -1.
    8880023    1    1    2    0    0 -0.12499392482E+02  0.10543212761E+03 -0.37053912589E+03  0.76313931783E+03  0.65864270000E+03 0.  0.
    8880022    1    1    2    0    0  0.12499392482E+02 -0.10543212761E+03  0.60122574188E+02  0.19564903600E+03  0.15294330000E+03 0.  0.
<mgrwt>
<rscale>  0 0.48489723E+03</rscale>
<asrwt>0</asrwt>
<pdfrwt beam="1">  1        2 0.97631147E-01 0.66714494E+03</pdfrwt>
<pdfrwt beam="2">  1       -2 0.49874754E-01 0.66714494E+03</pdfrwt>
<totfact> 0.17865480E+02</totfact>
</mgrwt>
</event>
<event>
 4    2  0.9070994E-007  0.7429239E+03  0.7818608E-02  0.9851510E-01
         -2   -1    0    0    0  501 -0.00000000000E+00  0.00000000000E+00  0.19504475183E+03  0.19504475184E+03  0.25500000000E-02 0.  1.
          2   -1    0    0  501    0  0.00000000000E+00 -0.00000000000E+00 -0.18616655507E+04  0.18616655507E+04  0.25500000000E-02 0. -1.
    8880023    1    1    2    0    0  0.32332516222E+03 -0.11656165999E+03 -0.14323048099E+04  0.16135157439E+04  0.65864270000E+03 0.  0.
    8880022    1    1    2    0    0 -0.32332516222E+03  0.11656165999E+03 -0.23431598897E+03  0.44319455864E+03  0.15294330000E+03 0.  0.
<mgrwt>
<rscale>  0 0.62669973E+03</rscale>
<asrwt>0</asrwt>
<pdfrwt beam="1">  1        2 0.28641007E+00 0.74292394E+03</pdfrwt>
<pdfrwt beam="2">  1       -2 0.30006886E-01 0.74292394E+03</pdfrwt>
<totfact> 0.83788941E+01</totfact>
</mgrwt>
</event>
<event>
 4    2  0.9070994E-007  0.6939554E+03  0.7818608E-02  0.1002326E+00
          2   -1    0    0  501    0  0.00000000000E+00  0.00000000000E+00  0.80918770396E+03  0.80918770396E+03  0.25500000000E-02 0. -1.
         -2   -1    0    0    0  501 -0.00000000000E+00 -0.00000000000E+00 -0.86138908252E+03  0.86138908253E+03  0.25500000000E-02 0.  1.
    8880023    1    1    2    0    0  0.21815794942E+03 -0.13077837809E+02  0.63050422067E+03  0.93760850001E+03  0.65864270000E+03 0. -1.
    8880022    1    1    2    0    0 -0.21815794942E+03  0.13077837809E+02 -0.68270559924E+03  0.73296828648E+03  0.15294330000E+03 0.  0.
<mgrwt>
<rscale>  0 0.54641775E+03</rscale>
<asrwt>0</asrwt>
<pdfrwt beam="1">  1        2 0.12449042E+00 0.69395542E+03</pdfrwt>
<pdfrwt beam="2">  1       -2 0.13252140E+00 0.69395542E+03</pdfrwt>
<totfact> 0.14333258E+01</totfact>
</mgrwt>
</event>
<event>
 4    2  0.9070994E-007  0.1076725E+04  0.7818608E-02  0.9287423E-01
         -2   -1    0    0    0  501 -0.00000000000E+00  0.00000000000E+00  0.39684448200E+03  0.39684448201E+03  0.25500000000E-02 0.  1.
          2   -1    0    0  501    0  0.00000000000E+00 -0.00000000000E+00 -0.27155422995E+04  0.27155422995E+04  0.25500000000E-02 0. -1.
    8880023    1    1    2    0    0  0.85127119447E+03  0.29394425368E+02 -0.72243536349E+03  0.12966301475E+04  0.65864270000E+03 0. -1.
    8880022    1    1    2    0    0 -0.85127119447E+03 -0.29394425368E+02 -0.15962624540E+04  0.18157566340E+04  0.15294330000E+03 0.  0.
<mgrwt>
<rscale>  0 0.10194899E+04</rscale>
<asrwt>0</asrwt>
<pdfrwt beam="1">  1        2 0.41777573E+00 0.10767251E+04</pdfrwt>
<pdfrwt beam="2">  1       -2 0.61052999E-01 0.10767251E+04</pdfrwt>
<totfact> 0.65284390E+00</totfact>
</mgrwt>
</event>
<event>
 4    2  0.9070994E-007  0.1037107E+04  0.7818608E-02  0.9334543E-01
          2   -1    0    0  501    0  0.00000000000E+00  0.00000000000E+00  0.21607232591E+04  0.21607232591E+04  0.25500000000E-02 0. -1.
         -2   -1    0    0    0  501 -0.00000000000E+00 -0.00000000000E+00 -0.56001416126E+03  0.56001416127E+03  0.25500000000E-02 0.  1.
    8880023    1    1    2    0    0 -0.65570691010E+02  0.79842452802E+03  0.13831289989E+03  0.10462895904E+04  0.65864270000E+03 0.  0.
    8880022    1    1    2    0    0  0.65570691010E+02 -0.79842452802E+03  0.14623961979E+04  0.16744478299E+04  0.15294330000E+03 0.  0.
<mgrwt>
<rscale>  0 0.97664014E+03</rscale>
<asrwt>0</asrwt>
<pdfrwt beam="1">  1        2 0.33241896E+00 0.10371073E+04</pdfrwt>
<pdfrwt beam="2">  1       -2 0.86156026E-01 0.10371073E+04</pdfrwt>
<totfact> 0.63441586E+00</totfact>
</mgrwt>
</event>
<event>
 4    2  0.9070994E-007  0.7473010E+03  0.7818608E-02  0.9839168E-01
          2   -1    0    0  501    0  0.00000000000E+00  0.00000000000E+00  0.11234399156E+04  0.11234399156E+04  0.25500000000E-02 0. -1.
         -2   -1    0    0    0  501 -0.00000000000E+00 -0.00000000000E+00 -0.34875613025E+03  0.34875613026E+03  0.25500000000E-02 0.  1.
    8880023    1    1    2    0    0 -0.23673402718E+03  0.26192660142E+03  0.18797758857E+03  0.77058051119E+03  0.65864270000E+03 0. -1.
    8880022    1    1    2    0    0  0.23673402718E+03 -0.26192660142E+03  0.58670619680E+03  0.70161553470E+03  0.15294330000E+03 0.  0.
<mgrwt>
<rscale>  0 0.63302246E+03</rscale>
<asrwt>0</asrwt>
<pdfrwt beam="1">  1        2 0.17283691E+00 0.74730098E+03</pdfrwt>
<pdfrwt beam="2">  1       -2 0.53654789E-01 0.74730098E+03</pdfrwt>
<totfact> 0.70087814E+01</totfact>
</mgrwt>
</event>
<event>
 4    2  0.9070994E-007  0.1002156E+04  0.7818608E-02  0.9378742E-01
          2   -1    0    0  501    0  0.00000000000E+00  0.00000000000E+00  0.13691862035E+04  0.13691862035E+04  0.25500000000E-02 0. -1.
         -2   -1    0    0    0  501 -0.00000000000E+00 -0.00000000000E+00 -0.67001938778E+03  0.67001938778E+03  0.25500000000E-02 0.  1.
    8880023    1    1    2    0    0  0.69507560999E+03 -0.29559636159E+03  0.77213186915E+03  0.12651107233E+04  0.65864270000E+03 0.  0.
    8880022    1    1    2    0    0 -0.69507560999E+03  0.29559636159E+03 -0.72965053433E+02  0.77409486798E+03  0.15294330000E+03 0.  0.
<mgrwt>
<rscale>  0 0.93845988E+03</rscale>
<asrwt>0</asrwt>
<pdfrwt beam="1">  1        2 0.21064403E+00 0.10021564E+04</pdfrwt>
<pdfrwt beam="2">  1       -2 0.10307991E+00 0.10021564E+04</pdfrwt>
<totfact> 0.11514971E+01</totfact>
</mgrwt>
</event>
<event>
 4    2  0.9070994E-007  0.7568989E+03  0.7818608E-02  0.9813203E-01
          2   -1    0    0  501    0  0.00000000000E+00  0.00000000000E+00  0.15929754297E+04  0.15929754297E+04  0.25500000000E-02 0. -1.
         -2   -1    0    0    0  501 -0.00000000000E+00 -0.00000000000E+00 -0.40954886374E+03  0.40954886374E+03  0.25500000000E-02 0.  1.
    8880023    1    1    2    0    0 -0.37249224327E+03  0.18311449614E+02  0.13647068809E+04  0.15605514594E+04  0.65864270000E+03 0.  0.
    8880022    1    1    2    0    0  0.37249224327E+03 -0.18311449614E+02 -0.18128031487E+03  0.44197283408E+03  0.15294330000E+03 0.  0.
<mgrwt>
<rscale>  0 0.64658786E+03</rscale>
<asrwt>0</asrwt>
<pdfrwt beam="1">  1        2 0.24507315E+00 0.75689893E+03</pdfrwt>
<pdfrwt beam="2">  1       -2 0.63007517E-01 0.75689893E+03</pdfrwt>
<totfact> 0.26902663E+01</totfact>
</mgrwt>
</event>
<event>
 4    2  0.9070994E-007  0.8751455E+03  0.7818608E-02  0.9567170E-01
         -2   -1    0    0    0  501 -0.00000000000E+00  0.00000000000E+00  0.10324454979E+04  0.10324454979E+04  0.25500000000E-02 0.  1.
          2   -1    0    0  501    0  0.00000000000E+00 -0.00000000000E+00 -0.93791952341E+03  0.93791952341E+03  0.25500000000E-02 0. -1.
    8880023    1    1    2    0    0 -0.49721824455E+03  0.29127912163E+03 -0.59543094553E+03  0.10584978633E+04  0.65864270000E+03 0. -1.
    8880022    1    1    2    0    0  0.49721824455E+03 -0.29127912163E+03  0.68995692001E+03  0.91186715804E+03  0.15294330000E+03 0.  0.
<mgrwt>
<rscale>  0 0.79507708E+03</rscale>
<asrwt>0</asrwt>
<pdfrwt beam="1">  1        2 0.14429531E+00 0.87514554E+03</pdfrwt>
<pdfrwt beam="2">  1       -2 0.15883777E+00 0.87514554E+03</pdfrwt>
<totfact> 0.71318342E+00</totfact>
</mgrwt>
</event>
<event>
 4    2  0.9070994E-007  0.1336876E+04  0.7818608E-02  0.9034352E-01
          2   -1    0    0  501    0  0.00000000000E+00  0.00000000000E+00  0.19865183389E+04  0.19865183389E+04  0.25500000000E-02 0. -1.
         -2   -1    0    0    0  501 -0.00000000000E+00 -0.00000000000E+00 -0.14692975605E+04  0.14692975605E+04  0.25500000000E-02 0.  1.
    8880023    1    1    2    0    0  0.90096767379E+03  0.73599224908E+03  0.14386315478E+04  0.19638987439E+04  0.65864270000E+03 0.  0.
    8880022    1    1    2    0    0 -0.90096767379E+03 -0.73599224908E+03 -0.92141076941E+03  0.14919171555E+04  0.15294330000E+03 0.  0.
<mgrwt>
<rscale>  0 0.12939812E+04</rscale>
<asrwt>0</asrwt>
<pdfrwt beam="1">  1        2 0.30561821E+00 0.13368760E+04</pdfrwt>
<pdfrwt beam="2">  1       -2 0.22604578E+00 0.13368760E+04</pdfrwt>
<totfact> 0.58782620E-01</totfact>
</mgrwt>
</event>
<event>
 4    2  0.9070994E-007  0.6753722E+03  0.7818608E-02  0.1012073E+00
         -2   -1    0    0    0  501 -0.00000000000E+00  0.00000000000E+00  0.39298958742E+03  0.39298958743E+03  0.25500000000E-02 0.  1.
          2   -1    0    0  501    0  0.00000000000E+00 -0.00000000000E+00 -0.52415275037E+03  0.52415275037E+03  0.25500000000E-02 0. -1.
    8880023    1    1    2    0    0  0.98138480574E+02 -0.11263317030E+03 -0.18838604116E+02  0.67563488046E+03  0.65864270000E+03 0.  1.
    8880022    1    1    2    0    0 -0.98138480574E+02  0.11263317030E+03 -0.11232455883E+03  0.24150745734E+03  0.15294330000E+03 0.  1.
<mgrwt>
<rscale>  0 0.50659121E+03</rscale>
<asrwt>0</asrwt>
<pdfrwt beam="1">  1        2 0.80638885E-01 0.67537219E+03</pdfrwt>
<pdfrwt beam="2">  1       -2 0.60459936E-01 0.67537219E+03</pdfrwt>
<totfact> 0.15057955E+02</totfact>
</mgrwt>
</event>
<event>
 4    2  0.9070994E-007  0.7572783E+03  0.7818608E-02  0.9812205E-01
          2   -1    0    0  501    0  0.00000000000E+00  0.00000000000E+00  0.10367004265E+04  0.10367004265E+04  0.25500000000E-02 0. -1.
         -2   -1    0    0    0  501 -0.00000000000E+00 -0.00000000000E+00 -0.49229428148E+03  0.49229428148E+03  0.25500000000E-02 0.  1.
    8880023    1    1    2    0    0 -0.15997712280E+03 -0.33773879404E+03  0.75861442733E+03  0.10718984226E+04  0.65864270000E+03 0. -1.
    8880022    1    1    2    0    0  0.15997712280E+03  0.33773879404E+03 -0.21420828234E+03  0.45709628532E+03  0.15294330000E+03 0.  0.
<mgrwt>
<rscale>  0 0.64711629E+03</rscale>
<asrwt>0</asrwt>
<pdfrwt beam="1">  1        2 0.15949237E+00 0.75727827E+03</pdfrwt>
<pdfrwt beam="2">  1       -2 0.75737582E-01 0.75727827E+03</pdfrwt>
<totfact> 0.37871055E+01</totfact>
</mgrwt>
</event>
<event>
 4    2  0.9070994E-007  0.6598639E+03  0.7818608E-02  0.1024296E+00
         -2   -1    0    0    0  501 -0.00000000000E+00  0.00000000000E+00  0.89670899280E+03  0.89670899281E+03  0.25500000000E-02 0.  1.
          2   -1    0    0  501    0  0.00000000000E+00 -0.00000000000E+00 -0.47856371891E+03  0.47856371891E+03  0.25500000000E-02 0. -1.
    8880023    1    1    2    0    0  0.32388453215E+02  0.23689893103E+02 -0.23713886489E+03  0.70118133920E+03  0.65864270000E+03 0. -1.
    8880022    1    1    2    0    0 -0.32388453215E+02 -0.23689893103E+02  0.65528413879E+03  0.67409137252E+03  0.15294330000E+03 0.  0.
<mgrwt>
<rscale>  0 0.46167608E+03</rscale>
<asrwt>0</asrwt>
<pdfrwt beam="1">  1        2 0.73625188E-01 0.65986395E+03</pdfrwt>
<pdfrwt beam="2">  1       -2 0.13795523E+00 0.65986395E+03</pdfrwt>
<totfact> 0.24676586E+01</totfact>
</mgrwt>
</event>
<event>
 4    2  0.9070994E-007  0.7290742E+03  0.7818608E-02  0.9892999E-01
         -2   -1    0    0    0  501 -0.00000000000E+00  0.00000000000E+00  0.36753128984E+03  0.36753128985E+03  0.25500000000E-02 0.  1.
          2   -1    0    0  501    0  0.00000000000E+00 -0.00000000000E+00 -0.23749847463E+04  0.23749847463E+04  0.25500000000E-02 0. -1.
    8880023    1    1    2    0    0  0.30480083645E+03  0.69537452070E+02 -0.22186772222E+04  0.23353967178E+04  0.65864270000E+03 0. -1.
    8880022    1    1    2    0    0 -0.30480083645E+03 -0.69537452070E+02  0.21122376572E+03  0.40711931833E+03  0.15294330000E+03 0.  0.
<mgrwt>
<rscale>  0 0.60601806E+03</rscale>
<asrwt>0</asrwt>
<pdfrwt beam="1">  1        2 0.36538226E+00 0.72907422E+03</pdfrwt>
<pdfrwt beam="2">  1       -2 0.56543277E-01 0.72907422E+03</pdfrwt>
<totfact> 0.12635391E+01</totfact>
</mgrwt>
</event>
<event>
 4    2  0.9070994E-007  0.6623428E+03  0.7818608E-02  0.1021875E+00
          2   -1    0    0  501    0  0.00000000000E+00  0.00000000000E+00  0.35712092338E+03  0.35712092339E+03  0.25500000000E-02 0. -1.
         -2   -1    0    0    0  501 -0.00000000000E+00 -0.00000000000E+00 -0.11272642811E+04  0.11272642811E+04  0.25500000000E-02 0.  1.
    8880023    1    1    2    0    0 -0.39948508132E+02 -0.57374714851E+02  0.33642252486E+02  0.66319661385E+03  0.65864270000E+03 0. -1.
    8880022    1    1    2    0    0  0.39948508132E+02  0.57374714851E+02 -0.80378561021E+03  0.82118859065E+03  0.15294330000E+03 0.  0.
<mgrwt>
<rscale>  0 0.47016020E+03</rscale>
<asrwt>0</asrwt>
<pdfrwt beam="1">  1        2 0.54941681E-01 0.66234277E+03</pdfrwt>
<pdfrwt beam="2">  1       -2 0.17342527E+00 0.66234277E+03</pdfrwt>
<totfact> 0.18622319E+01</totfact>
</mgrwt>
</event>
<event>
 4    2  0.9070994E-007  0.6819099E+03  0.7818608E-02  0.1008263E+00
         -2   -1    0    0    0  501 -0.00000000000E+00  0.00000000000E+00  0.27984771839E+03  0.27984771840E+03  0.25500000000E-02 0.  1.
          2   -1    0    0  501    0  0.00000000000E+00 -0.00000000000E+00 -0.19229257111E+04  0.19229257111E+04  0.25500000000E-02 0. -1.
    8880023    1    1    2    0    0  0.17558240221E+03 -0.19018180453E+02 -0.17976492951E+04  0.19226398690E+04  0.65864270000E+03 0. -1.
    8880022    1    1    2    0    0 -0.17558240221E+03  0.19018180453E+02  0.15457130247E+03  0.28013356050E+03  0.15294330000E+03 0.  0.
<mgrwt>
<rscale>  0 0.52170733E+03</rscale>
<asrwt>0</asrwt>
<pdfrwt beam="1">  1        2 0.29583472E+00 0.68190987E+03</pdfrwt>
<pdfrwt beam="2">  1       -2 0.43053496E-01 0.68190987E+03</pdfrwt>
<totfact> 0.39187071E+01</totfact>
</mgrwt>
</event>
<event>
 4    2  0.9070994E-007  0.8809712E+03  0.7818608E-02  0.9557296E-01
         -2   -1    0    0    0  501 -0.00000000000E+00  0.00000000000E+00  0.22061043958E+03  0.22061043959E+03  0.25500000000E-02 0.  1.
          2   -1    0    0  501    0  0.00000000000E+00 -0.00000000000E+00 -0.25191887826E+04  0.25191887826E+04  0.25500000000E-02 0. -1.
    8880023    1    1    2    0    0 -0.45693501584E+03  0.36539078209E+03 -0.12481762508E+04  0.15277611697E+04  0.65864270000E+03 0.  0.
    8880022    1    1    2    0    0  0.45693501584E+03 -0.36539078209E+03 -0.10504020923E+04  0.12120380525E+04  0.15294330000E+03 0.  1.
<mgrwt>
<rscale>  0 0.80188237E+03</rscale>
<asrwt>0</asrwt>
<pdfrwt beam="1">  1        2 0.38756748E+00 0.88097119E+03</pdfrwt>
<pdfrwt beam="2">  1       -2 0.33940069E-01 0.88097119E+03</pdfrwt>
<totfact> 0.28280898E+01</totfact>
</mgrwt>
</event>
<event>
 4    2  0.9070994E-007  0.6829149E+03  0.7818608E-02  0.1007721E+00
          2   -1    0    0  501    0  0.00000000000E+00  0.00000000000E+00  0.25797410146E+04  0.25797410146E+04  0.25500000000E-02 0. -1.
         -2   -1    0    0    0  501 -0.00000000000E+00 -0.00000000000E+00 -0.27992637428E+03  0.27992637429E+03  0.25500000000E-02 0.  1.
    8880023    1    1    2    0    0 -0.17833277319E+03  0.27566457590E+02  0.24736037117E+04  0.25661426337E+04  0.65864270000E+03 0. -1.
    8880022    1    1    2    0    0  0.17833277319E+03 -0.27566457590E+02 -0.17378907138E+03  0.29352475522E+03  0.15294330000E+03 0.  0.
<mgrwt>
<rscale>  0 0.52390669E+03</rscale>
<asrwt>0</asrwt>
<pdfrwt beam="1">  1        2 0.39688324E+00 0.68291485E+03</pdfrwt>
<pdfrwt beam="2">  1       -2 0.43065596E-01 0.68291485E+03</pdfrwt>
<totfact> 0.16955898E+01</totfact>
</mgrwt>
</event>
<event>
 4    2  0.9070994E-007  0.7385667E+03  0.7818608E-02  0.9864142E-01
         -2   -1    0    0    0  501 -0.00000000000E+00  0.00000000000E+00  0.26720679494E+03  0.26720679496E+03  0.25500000000E-02 0.  1.
          2   -1    0    0  501    0  0.00000000000E+00 -0.00000000000E+00 -0.18714665506E+04  0.18714665506E+04  0.25500000000E-02 0. -1.
    8880023    1    1    2    0    0 -0.31412657982E+03  0.11399578020E+03 -0.16097821682E+04  0.17711237623E+04  0.65864270000E+03 0. -1.
    8880022    1    1    2    0    0  0.31412657982E+03 -0.11399578020E+03  0.55224126132E+01  0.36754958320E+03  0.15294330000E+03 0.  0.
<mgrwt>
<rscale>  0 0.62031033E+03</rscale>
<asrwt>0</asrwt>
<pdfrwt beam="1">  1        2 0.28791792E+00 0.73856669E+03</pdfrwt>
<pdfrwt beam="2">  1       -2 0.41108739E-01 0.73856669E+03</pdfrwt>
<totfact> 0.45443947E+01</totfact>
</mgrwt>
</event>
<event>
 4    2  0.9070994E-007  0.1049140E+04  0.7818608E-02  0.9319916E-01
         -2   -1    0    0    0  501 -0.00000000000E+00  0.00000000000E+00  0.47640897090E+03  0.47640897091E+03  0.25500000000E-02 0.  1.
          2   -1    0    0  501    0  0.00000000000E+00 -0.00000000000E+00 -0.20263536000E+04  0.20263536000E+04  0.25500000000E-02 0. -1.
    8880023    1    1    2    0    0 -0.61997782769E+03  0.53151869612E+03 -0.49532368072E+03  0.11601898061E+04  0.65864270000E+03 0.  1.
    8880022    1    1    2    0    0  0.61997782769E+03 -0.53151869612E+03 -0.10546209484E+04  0.13425727649E+04  0.15294330000E+03 0. -1.
<mgrwt>
<rscale>  0 0.98969863E+03</rscale>
<asrwt>0</asrwt>
<pdfrwt beam="1">  1        2 0.31174670E+00 0.10491400E+04</pdfrwt>
<pdfrwt beam="2">  1       -2 0.73293689E-01 0.10491400E+04</pdfrwt>
<totfact> 0.10828136E+01</totfact>
</mgrwt>
</event>
<event>
 4    2  0.9070994E-007  0.7694174E+03  0.7818608E-02  0.9781310E-01
          2   -1    0    0  501    0  0.00000000000E+00  0.00000000000E+00  0.14616052779E+04  0.14616052779E+04  0.25500000000E-02 0. -1.
         -2   -1    0    0    0  501 -0.00000000000E+00 -0.00000000000E+00 -0.31123610706E+03  0.31123610707E+03  0.25500000000E-02 0.  1.
    8880023    1    1    2    0    0 -0.34563506498E+03  0.19679754497E+03  0.11019309944E+04  0.13439698637E+04  0.65864270000E+03 0. -1.
    8880022    1    1    2    0    0  0.34563506498E+03 -0.19679754497E+03  0.48438176500E+02  0.42887152133E+03  0.15294330000E+03 0.  1.
<mgrwt>
<rscale>  0 0.66375276E+03</rscale>
<asrwt>0</asrwt>
<pdfrwt beam="1">  1        2 0.22486235E+00 0.76941736E+03</pdfrwt>
<pdfrwt beam="2">  1       -2 0.47882478E-01 0.76941736E+03</pdfrwt>
<totfact> 0.56185386E+01</totfact>
</mgrwt>
</event>
<event>
 4    2  0.9070994E-007  0.7342620E+03  0.7818608E-02  0.9876988E-01
          2   -1    0    0  501    0  0.00000000000E+00  0.00000000000E+00  0.64003419259E+03  0.64003419260E+03  0.25500000000E-02 0. -1.
         -2   -1    0    0    0  501 -0.00000000000E+00 -0.00000000000E+00 -0.63923420222E+03  0.63923420222E+03  0.25500000000E-02 0.  1.
    8880023    1    1    2    0    0  0.83209653854E+02 -0.31369836819E+03 -0.31719794705E+03  0.79984702074E+03  0.65864270000E+03 0.  1.
    8880022    1    1    2    0    0 -0.83209653854E+02  0.31369836819E+03  0.31799793743E+03  0.47942137408E+03  0.15294330000E+03 0. -1.
<mgrwt>
<rscale>  0 0.61389623E+03</rscale>
<asrwt>0</asrwt>
<pdfrwt beam="1">  1        2 0.98466798E-01 0.73426202E+03</pdfrwt>
<pdfrwt beam="2">  1       -2 0.98343724E-01 0.73426202E+03</pdfrwt>
<totfact> 0.39930796E+01</totfact>
</mgrwt>
</event>
<event>
 4    2  0.9070994E-007  0.7087034E+03  0.7818608E-02  0.9962848E-01
          2   -1    0    0  501    0  0.00000000000E+00  0.00000000000E+00  0.94194635566E+03  0.94194635566E+03  0.25500000000E-02 0. -1.
         -2   -1    0    0    0  501 -0.00000000000E+00 -0.00000000000E+00 -0.10413853052E+04  0.10413853052E+04  0.25500000000E-02 0.  1.
    8880023    1    1    2    0    0  0.23341914979E+03 -0.11817692444E+03  0.77956221712E+03  0.10535548119E+04  0.65864270000E+03 0. -1.
    8880022    1    1    2    0    0 -0.23341914979E+03  0.11817692444E+03 -0.87900116670E+03  0.92977684905E+03  0.15294330000E+03 0.  0.
<mgrwt>
<rscale>  0 0.57309750E+03</rscale>
<asrwt>0</asrwt>
<pdfrwt beam="1">  1        2 0.14491482E+00 0.70870339E+03</pdfrwt>
<pdfrwt beam="2">  1       -2 0.16021312E+00 0.70870339E+03</pdfrwt>
<totfact> 0.70638218E+00</totfact>
</mgrwt>
</event>
<event>
 4    2  0.9070994E-007  0.7824780E+03  0.7818608E-02  0.9750048E-01
         -2   -1    0    0    0  501 -0.00000000000E+00  0.00000000000E+00  0.17180853799E+03  0.17180853801E+03  0.25500000000E-02 0.  1.
          2   -1    0    0  501    0  0.00000000000E+00 -0.00000000000E+00 -0.28697009687E+04  0.28697009687E+04  0.25500000000E-02 0. -1.
    8880023    1    1    2    0    0  0.41342234658E+03 -0.86853911565E+02 -0.23392117332E+04  0.24666137471E+04  0.65864270000E+03 0. -1.
    8880022    1    1    2    0    0 -0.41342234658E+03  0.86853911565E+02 -0.35868069758E+03  0.57489575963E+03  0.15294330000E+03 0.  0.
<mgrwt>
<rscale>  0 0.68113561E+03</rscale>
<asrwt>0</asrwt>
<pdfrwt beam="1">  1        2 0.44149242E+00 0.78247802E+03</pdfrwt>
<pdfrwt beam="2">  1       -2 0.26432085E-01 0.78247802E+03</pdfrwt>
<totfact> 0.28476717E+01</totfact>
</mgrwt>
</event>
<event>
 4    2  0.9070994E-007  0.7338502E+03  0.7818608E-02  0.9878237E-01
         -2   -1    0    0    0  501 -0.00000000000E+00  0.00000000000E+00  0.56710629333E+03  0.56710629334E+03  0.25500000000E-02 0.  1.
          2   -1    0    0  501    0  0.00000000000E+00 -0.00000000000E+00 -0.20012044134E+04  0.20012044134E+04  0.25500000000E-02 0. -1.
    8880023    1    1    2    0    0 -0.60046181947E+02 -0.31799437164E+03 -0.18673234879E+04  0.20063482198E+04  0.65864270000E+03 0. -1.
    8880022    1    1    2    0    0  0.60046181947E+02  0.31799437164E+03  0.43322536784E+03  0.56196248693E+03  0.15294330000E+03 0.  0.
<mgrwt>
<rscale>  0 0.61327701E+03</rscale>
<asrwt>0</asrwt>
<pdfrwt beam="1">  1        2 0.30787760E+00 0.73385024E+03</pdfrwt>
<pdfrwt beam="2">  1       -2 0.87247124E-01 0.73385024E+03</pdfrwt>
<totfact> 0.78625287E+00</totfact>
</mgrwt>
</event>
<event>
 4    2  0.9070994E-007  0.6587291E+03  0.7818608E-02  0.1025498E+00
         -2   -1    0    0    0  501 -0.00000000000E+00  0.00000000000E+00  0.75198756450E+03  0.75198756450E+03  0.25500000000E-02 0.  1.
          2   -1    0    0  501    0  0.00000000000E+00 -0.00000000000E+00 -0.23140739019E+03  0.23140739021E+03  0.25500000000E-02 0. -1.
    8880023    1    1    2    0    0  0.96524979998E+01  0.45392428375E+01  0.32400149319E+03  0.73409873266E+03  0.65864270000E+03 0. -1.
    8880022    1    1    2    0    0 -0.96524979998E+01 -0.45392428375E+01  0.19657868112E+03  0.24929622205E+03  0.15294330000E+03 0.  0.
<mgrwt>
<rscale>  0 0.45753692E+03</rscale>
<asrwt>0</asrwt>
<pdfrwt beam="1">  1        2 0.35601137E-01 0.65872907E+03</pdfrwt>
<pdfrwt beam="2">  1       -2 0.11569039E+00 0.65872907E+03</pdfrwt>
<totfact> 0.86436105E+01</totfact>
</mgrwt>
</event>
<event>
 4    2  0.9070994E-007  0.7372753E+03  0.7818608E-02  0.9867956E-01
         -2   -1    0    0    0  501 -0.00000000000E+00  0.00000000000E+00  0.28773913967E+03  0.28773913969E+03  0.25500000000E-02 0.  1.
          2   -1    0    0  501    0  0.00000000000E+00 -0.00000000000E+00 -0.11826085069E+04  0.11826085069E+04  0.25500000000E-02 0. -1.
    8880023    1    1    2    0    0  0.21242050231E+03  0.25424823729E+03 -0.35390818988E+03  0.81781773587E+03  0.65864270000E+03 0.  0.
    8880022    1    1    2    0    0 -0.21242050231E+03 -0.25424823729E+03 -0.54096117731E+03  0.65252991069E+03  0.15294330000E+03 0.  0.
<mgrwt>
<rscale>  0 0.61839713E+03</rscale>
<asrwt>0</asrwt>
<pdfrwt beam="1">  1        2 0.18193977E+00 0.73727528E+03</pdfrwt>
<pdfrwt beam="2">  1       -2 0.44267560E-01 0.73727528E+03</pdfrwt>
<totfact> 0.95417953E+01</totfact>
</mgrwt>
</event>
<event>
 4    2  0.9070994E-007  0.8755942E+03  0.7818608E-02  0.9566405E-01
          2   -1    0    0  501    0  0.00000000000E+00  0.00000000000E+00  0.53102184585E+03  0.53102184585E+03  0.25500000000E-02 0. -1.
         -2   -1    0    0    0  501 -0.00000000000E+00 -0.00000000000E+00 -0.13003924992E+04  0.13003924992E+04  0.25500000000E-02 0.  1.
    8880023    1    1    2    0    0  0.44576627434E+03 -0.36626132773E+03 -0.23208577378E+02  0.87590169303E+03  0.65864270000E+03 0.  0.
    8880022    1    1    2    0    0 -0.44576627434E+03  0.36626132773E+03 -0.74616207596E+03  0.95551265200E+03  0.15294330000E+03 0.  0.
<mgrwt>
<rscale>  0 0.79560221E+03</rscale>
<asrwt>0</asrwt>
<pdfrwt beam="1">  1        2 0.81695669E-01 0.87559416E+03</pdfrwt>
<pdfrwt beam="2">  1       -2 0.20006038E+00 0.87559416E+03</pdfrwt>
<totfact> 0.76733577E+00</totfact>
</mgrwt>
</event>
<event>
 4    2  0.9070994E-007  0.9014928E+03  0.7818608E-02  0.9523639E-01
         -2   -1    0    0    0  501 -0.00000000000E+00  0.00000000000E+00  0.30065807629E+03  0.30065807630E+03  0.25500000000E-02 0.  1.
          2   -1    0    0  501    0  0.00000000000E+00 -0.00000000000E+00 -0.39477880138E+04  0.39477880138E+04  0.25500000000E-02 0. -1.
    8880023    1    1    2    0    0  0.61531324202E+03 -0.16392965780E+02 -0.34767328826E+04  0.35917072345E+04  0.65864270000E+03 0.  0.
    8880022    1    1    2    0    0 -0.61531324202E+03  0.16392965780E+02 -0.17039705493E+03  0.65673885562E+03  0.15294330000E+03 0.  0.
<mgrwt>
<rscale>  0 0.82563200E+03</rscale>
<asrwt>0</asrwt>
<pdfrwt beam="1">  1        2 0.60735196E+00 0.90149283E+03</pdfrwt>
<pdfrwt beam="2">  1       -2 0.46255092E-01 0.90149283E+03</pdfrwt>
<totfact> 0.17903038E+00</totfact>
</mgrwt>
</event>
<event>
 4    2  0.9070994E-007  0.9351141E+03  0.7818608E-02  0.9471863E-01
         -2   -1    0    0    0  501 -0.00000000000E+00  0.00000000000E+00  0.52298427329E+03  0.52298427330E+03  0.25500000000E-02 0.  1.
          2   -1    0    0  501    0  0.00000000000E+00 -0.00000000000E+00 -0.20046680811E+04  0.20046680811E+04  0.25500000000E-02 0. -1.
    8880023    1    1    2    0    0  0.24906522580E+03 -0.61530050435E+03 -0.15833989260E+04  0.18389101562E+04  0.65864270000E+03 0. -1.
    8880022    1    1    2    0    0 -0.24906522580E+03  0.61530050435E+03  0.10171511819E+03  0.68874219824E+03  0.15294330000E+03 0.  0.
<mgrwt>
<rscale>  0 0.86390409E+03</rscale>
<asrwt>0</asrwt>
<pdfrwt beam="1">  1        2 0.30841047E+00 0.93511411E+03</pdfrwt>
<pdfrwt beam="2">  1       -2 0.80459120E-01 0.93511411E+03</pdfrwt>
<totfact> 0.91519727E+00</totfact>
</mgrwt>
</event>
<event>
 4    2  0.9070994E-007  0.7251994E+03  0.7818608E-02  0.9905370E-01
          2   -1    0    0  501    0  0.00000000000E+00  0.00000000000E+00  0.47203849255E+03  0.47203849256E+03  0.25500000000E-02 0. -1.
         -2   -1    0    0    0  501 -0.00000000000E+00 -0.00000000000E+00 -0.92378496260E+03  0.92378496260E+03  0.25500000000E-02 0.  1.
    8880023    1    1    2    0    0 -0.13326806797E+03  0.27266023414E+03  0.11572106608E+03  0.73437425923E+03  0.65864270000E+03 0.  0.
    8880022    1    1    2    0    0  0.13326806797E+03 -0.27266023414E+03 -0.56746753613E+03  0.66144919593E+03  0.15294330000E+03 0.  1.
<mgrwt>
<rscale>  0 0.60001731E+03</rscale>
<asrwt>0</asrwt>
<pdfrwt beam="1">  1        2 0.72621307E-01 0.72519941E+03</pdfrwt>
<pdfrwt beam="2">  1       -2 0.14212076E+00 0.72519941E+03</pdfrwt>
<totfact> 0.23076267E+01</totfact>
</mgrwt>
</event>
<event>
 4    2  0.9070994E-007  0.8742260E+03  0.7818608E-02  0.9568743E-01
          2   -1    0    0  501    0  0.00000000000E+00  0.00000000000E+00  0.39401960452E+04  0.39401960452E+04  0.25500000000E-02 0. -1.
         -2   -1    0    0    0  501 -0.00000000000E+00 -0.00000000000E+00 -0.21124979972E+03  0.21124979974E+03  0.25500000000E-02 0.  1.
    8880023    1    1    2    0    0 -0.45297309562E+03  0.35394383767E+03  0.33109348484E+04  0.34244066117E+04  0.65864270000E+03 0. -1.
    8880022    1    1    2    0    0  0.45297309562E+03 -0.35394383767E+03  0.41801139708E+03  0.72703923325E+03  0.15294330000E+03 0.  0.
<mgrwt>
<rscale>  0 0.79400012E+03</rscale>
<asrwt>0</asrwt>
<pdfrwt beam="1">  1        2 0.60618402E+00 0.87422598E+03</pdfrwt>
<pdfrwt beam="2">  1       -2 0.32499969E-01 0.87422598E+03</pdfrwt>
<totfact> 0.36245285E+00</totfact>
</mgrwt>
</event>
<event>
 4    2  0.9070994E-007  0.6860124E+03  0.7818608E-02  0.1006109E+00
         -2   -1    0    0    0  501 -0.00000000000E+00  0.00000000000E+00  0.29745345567E+03  0.29745345568E+03  0.25500000000E-02 0.  1.
          2   -1    0    0  501    0  0.00000000000E+00 -0.00000000000E+00 -0.15159766181E+04  0.15159766181E+04  0.25500000000E-02 0. -1.
    8880023    1    1    2    0    0 -0.91720937418E+02  0.16849348581E+03 -0.13649965813E+04  0.15276873563E+04  0.65864270000E+03 0. -1.
    8880022    1    1    2    0    0  0.91720937418E+02 -0.16849348581E+03  0.14647341896E+03  0.28574271749E+03  0.15294330000E+03 0.  0.
<mgrwt>
<rscale>  0 0.53050992E+03</rscale>
<asrwt>0</asrwt>
<pdfrwt beam="1">  1        2 0.23322717E+00 0.68601238E+03</pdfrwt>
<pdfrwt beam="2">  1       -2 0.45762071E-01 0.68601238E+03</pdfrwt>
<totfact> 0.57893378E+01</totfact>
</mgrwt>
</event>
<event>
 4    2  0.9070994E-007  0.6941248E+03  0.7818608E-02  0.1002251E+00
         -2   -1    0    0    0  501 -0.00000000000E+00  0.00000000000E+00  0.65186627835E+03  0.65186627836E+03  0.25500000000E-02 0.  1.
          2   -1    0    0  501    0  0.00000000000E+00 -0.00000000000E+00 -0.22442298917E+04  0.22442298917E+04  0.25500000000E-02 0. -1.
    8880023    1    1    2    0    0 -0.17344086389E+03  0.13385535527E+03 -0.21599618016E+04  0.22687538826E+04  0.65864270000E+03 0.  0.
    8880022    1    1    2    0    0  0.17344086389E+03 -0.13385535527E+03  0.56759818819E+03  0.62734228747E+03  0.15294330000E+03 0.  0.
<mgrwt>
<rscale>  0 0.54674311E+03</rscale>
<asrwt>0</asrwt>
<pdfrwt beam="1">  1        2 0.34526613E+00 0.69412477E+03</pdfrwt>
<pdfrwt beam="2">  1       -2 0.10028712E+00 0.69412477E+03</pdfrwt>
<totfact> 0.42133040E+00</totfact>
</mgrwt>
</event>
<event>
 4    2  0.9070994E-007  0.9673255E+03  0.7818608E-02  0.9425613E-01
          2   -1    0    0  501    0  0.00000000000E+00  0.00000000000E+00  0.19967731761E+04  0.19967731761E+04  0.25500000000E-02 0. -1.
         -2   -1    0    0    0  501 -0.00000000000E+00 -0.00000000000E+00 -0.44904407816E+03  0.44904407816E+03  0.25500000000E-02 0.  1.
    8880023    1    1    2    0    0  0.77433661315E+02 -0.70421057141E+03  0.14070952076E+04  0.17075232445E+04  0.65864270000E+03 0.  0.
    8880022    1    1    2    0    0 -0.77433661315E+02  0.70421057141E+03  0.14063389031E+03  0.73829400980E+03  0.15294330000E+03 0.  0.
<mgrwt>
<rscale>  0 0.89997497E+03</rscale>
<asrwt>0</asrwt>
<pdfrwt beam="1">  1        2 0.30719587E+00 0.96732554E+03</pdfrwt>
<pdfrwt beam="2">  1       -2 0.69083704E-01 0.96732554E+03</pdfrwt>
<totfact> 0.12920249E+01</totfact>
</mgrwt>
</event>
<event>
 4    2  0.9070994E-007  0.9338175E+03  0.7818608E-02  0.9473790E-01
          2   -1    0    0  501    0  0.00000000000E+00  0.00000000000E+00  0.23287106789E+04  0.23287106789E+04  0.25500000000E-02 0. -1.
         -2   -1    0    0    0  501 -0.00000000000E+00 -0.00000000000E+00 -0.49386031387E+03  0.49386031388E+03  0.25500000000E-02 0.  1.
    8880023    1    1    2    0    0 -0.48014532666E+03 -0.45570320927E+03  0.19227321116E+04  0.21375017962E+04  0.65864270000E+03 0. -1.
    8880022    1    1    2    0    0  0.48014532666E+03  0.45570320927E+03 -0.87881746582E+02  0.68506919654E+03  0.15294330000E+03 0.  0.
<mgrwt>
<rscale>  0 0.86244089E+03</rscale>
<asrwt>0</asrwt>
<pdfrwt beam="1">  1        2 0.35826319E+00 0.93381752E+03</pdfrwt>
<pdfrwt beam="2">  1       -2 0.75978508E-01 0.93381752E+03</pdfrwt>
<totfact> 0.68835000E+00</totfact>
</mgrwt>
</event>
<event>
 4    2  0.9070994E-007  0.7294426E+03  0.7818608E-02  0.9891841E-01
          2   -1    0    0  501    0  0.00000000000E+00  0.00000000000E+00  0.11308287626E+04  0.11308287626E+04  0.25500000000E-02 0. -1.
         -2   -1    0    0    0  501 -0.00000000000E+00 -0.00000000000E+00 -0.92862125777E+03  0.92862125777E+03  0.25500000000E-02 0.  1.
    8880023    1    1    2    0    0 -0.30697547913E+03  0.63579725341E+02  0.97144589527E+03  0.12148224808E+04  0.65864270000E+03 0. -1.
    8880022    1    1    2    0    0  0.30697547913E+03 -0.63579725341E+02 -0.76923839042E+03  0.84462753955E+03  0.15294330000E+03 0.  0.
<mgrwt>
<rscale>  0 0.60658321E+03</rscale>
<asrwt>0</asrwt>
<pdfrwt beam="1">  1        2 0.17397365E+00 0.72944262E+03</pdfrwt>
<pdfrwt beam="2">  1       -2 0.14286481E+00 0.72944262E+03</pdfrwt>
<totfact> 0.72653705E+00</totfact>
</mgrwt>
</event>
<event>
 4    2  0.9070994E-007  0.7681712E+03  0.7818608E-02  0.9784395E-01
         -2   -1    0    0    0  501 -0.00000000000E+00  0.00000000000E+00  0.33491024322E+03  0.33491024323E+03  0.25500000000E-02 0.  1.
          2   -1    0    0  501    0  0.00000000000E+00 -0.00000000000E+00 -0.22377502419E+04  0.22377502419E+04  0.25500000000E-02 0. -1.
    8880023    1    1    2    0    0  0.90606559598E+02 -0.38479511852E+03 -0.19959610279E+04  0.21386789061E+04  0.65864270000E+03 0.  0.
    8880022    1    1    2    0    0 -0.90606559598E+02  0.38479511852E+03  0.93121029261E+02  0.43398157908E+03  0.15294330000E+03 0.  0.
<mgrwt>
<rscale>  0 0.66206788E+03</rscale>
<asrwt>0</asrwt>
<pdfrwt beam="1">  1        2 0.34426926E+00 0.76817123E+03</pdfrwt>
<pdfrwt beam="2">  1       -2 0.51524654E-01 0.76817123E+03</pdfrwt>
<totfact> 0.18144215E+01</totfact>
</mgrwt>
</event>
<event>
 4    2  0.9070994E-007  0.9388963E+03  0.7818608E-02  0.9466273E-01
          2   -1    0    0  501    0  0.00000000000E+00  0.00000000000E+00  0.12904106039E+04  0.12904106039E+04  0.25500000000E-02 0. -1.
         -2   -1    0    0    0  501 -0.00000000000E+00 -0.00000000000E+00 -0.15393574745E+04  0.15393574745E+04  0.25500000000E-02 0.  1.
    8880023    1    1    2    0    0  0.28453174566E+03  0.60560527334E+03  0.10204640535E+04  0.13866770180E+04  0.65864270000E+03 0. -1.
    8880022    1    1    2    0    0 -0.28453174566E+03 -0.60560527334E+03 -0.12694109242E+04  0.14430910605E+04  0.15294330000E+03 0.  0.
<mgrwt>
<rscale>  0 0.86816695E+03</rscale>
<asrwt>0</asrwt>
<pdfrwt beam="1">  1        2 0.19852471E+00 0.93889630E+03</pdfrwt>
<pdfrwt beam="2">  1       -2 0.23682423E+00 0.93889630E+03</pdfrwt>
<totfact> 0.13035374E+00</totfact>
</mgrwt>
</event>
<event>
 4    2  0.9070994E-007  0.1285627E+04  0.7818608E-02  0.9078072E-01
         -2   -1    0    0    0  501 -0.00000000000E+00  0.00000000000E+00  0.53832500939E+03  0.53832500940E+03  0.25500000000E-02 0.  1.
          2   -1    0    0  501    0  0.00000000000E+00 -0.00000000000E+00 -0.29067386658E+04  0.29067386658E+04  0.25500000000E-02 0. -1.
    8880023    1    1    2    0    0 -0.84184804736E+03  0.71436538917E+03 -0.77720864903E+03  0.15022947562E+04  0.65864270000E+03 0.  0.
    8880022    1    1    2    0    0  0.84184804736E+03 -0.71436538917E+03 -0.15912050073E+04  0.19427689190E+04  0.15294330000E+03 0.  0.
<mgrwt>
<rscale>  0 0.12405653E+04</rscale>
<asrwt>0</asrwt>
<pdfrwt beam="1">  1        2 0.44719055E+00 0.12856268E+04</pdfrwt>
<pdfrwt beam="2">  1       -2 0.82819234E-01 0.12856268E+04</pdfrwt>
<totfact> 0.24964663E+00</totfact>
</mgrwt>
</event>
<event>
 4    2  0.9070994E-007  0.7546630E+03  0.7818608E-02  0.9819126E-01
          2   -1    0    0  501    0  0.00000000000E+00  0.00000000000E+00  0.98361533515E+03  0.98361533515E+03  0.25500000000E-02 0. -1.
         -2   -1    0    0    0  501 -0.00000000000E+00 -0.00000000000E+00 -0.63585370251E+03  0.63585370252E+03  0.25500000000E-02 0.  1.
    8880023    1    1    2    0    0 -0.14890237726E+03  0.33694828637E+03  0.74221957280E+03  0.10584924025E+04  0.65864270000E+03 0. -1.
    8880022    1    1    2    0    0  0.14890237726E+03 -0.33694828637E+03 -0.39445794016E+03  0.56097663517E+03  0.15294330000E+03 0.  0.
<mgrwt>
<rscale>  0 0.64346184E+03</rscale>
<asrwt>0</asrwt>
<pdfrwt beam="1">  1        2 0.15132544E+00 0.75466302E+03</pdfrwt>
<pdfrwt beam="2">  1       -2 0.97823647E-01 0.75466302E+03</pdfrwt>
<totfact> 0.22810025E+01</totfact>
</mgrwt>
</event>
<event>
 4    2  0.9070994E-007  0.8027774E+03  0.7818608E-02  0.9704823E-01
         -2   -1    0    0    0  501 -0.00000000000E+00  0.00000000000E+00  0.55593900058E+03  0.55593900059E+03  0.25500000000E-02 0.  1.
          2   -1    0    0  501    0  0.00000000000E+00 -0.00000000000E+00 -0.15612754349E+04  0.15612754349E+04  0.25500000000E-02 0. -1.
    8880023    1    1    2    0    0  0.33227639481E+03 -0.31659704430E+03 -0.13165425389E+04  0.15419908411E+04  0.65864270000E+03 0. -1.
    8880022    1    1    2    0    0 -0.33227639481E+03  0.31659704430E+03  0.31120610458E+03  0.57522359440E+03  0.15294330000E+03 0.  0.
<mgrwt>
<rscale>  0 0.70730375E+03</rscale>
<asrwt>0</asrwt>
<pdfrwt beam="1">  1        2 0.24019622E+00 0.80277736E+03</pdfrwt>
<pdfrwt beam="2">  1       -2 0.85529078E-01 0.80277736E+03</pdfrwt>
<totfact> 0.14187801E+01</totfact>
</mgrwt>
</event>
<event>
 4    2  0.9070994E-007  0.8797420E+03  0.7818608E-02  0.9559368E-01
         -2   -1    0    0    0  501 -0.00000000000E+00  0.00000000000E+00  0.61372861063E+03  0.61372861064E+03  0.25500000000E-02 0.  1.
          2   -1    0    0  501    0  0.00000000000E+00 -0.00000000000E+00 -0.16700554543E+04  0.16700554543E+04  0.25500000000E-02 0. -1.
    8880023    1    1    2    0    0  0.34081747987E+03 -0.47326435684E+03 -0.13513982239E+04  0.16125207198E+04  0.65864270000E+03 0.  0.
    8880022    1    1    2    0    0 -0.34081747987E+03  0.47326435684E+03  0.29507138023E+03  0.67126334511E+03  0.15294330000E+03 0.  0.
<mgrwt>
<rscale>  0 0.80044891E+03</rscale>
<asrwt>0</asrwt>
<pdfrwt beam="1">  1        2 0.25693161E+00 0.87974196E+03</pdfrwt>
<pdfrwt beam="2">  1       -2 0.94419787E-01 0.87974196E+03</pdfrwt>
<totfact> 0.97387944E+00</totfact>
</mgrwt>
</event>
<event>
 4    2  0.9070994E-007  0.8111054E+03  0.7818608E-02  0.9687279E-01
          2   -1    0    0  501    0  0.00000000000E+00  0.00000000000E+00  0.28500703470E+04  0.28500703470E+04  0.25500000000E-02 0. -1.
         -2   -1    0    0    0  501 -0.00000000000E+00 -0.00000000000E+00 -0.19769126792E+03  0.19769126793E+03  0.25500000000E-02 0.  1.
    8880023    1    1    2    0    0  0.44480183071E+03 -0.16196624721E+03  0.22980908542E+04  0.24370296499E+04  0.65864270000E+03 0. -1.
    8880022    1    1    2    0    0 -0.44480183071E+03  0.16196624721E+03  0.35428822481E+03  0.61073196502E+03  0.15294330000E+03 0.  0.
<mgrwt>
<rscale>  0 0.71779268E+03</rscale>
<asrwt>0</asrwt>
<pdfrwt beam="1">  1        2 0.43847234E+00 0.81110538E+03</pdfrwt>
<pdfrwt beam="2">  1       -2 0.30414042E-01 0.81110538E+03</pdfrwt>
<totfact> 0.22499527E+01</totfact>
</mgrwt>
</event>
<event>
 4    2  0.9070994E-007  0.7386996E+03  0.7818608E-02  0.9863751E-01
         -2   -1    0    0    0  501 -0.00000000000E+00  0.00000000000E+00  0.23302728768E+03  0.23302728770E+03  0.25500000000E-02 0.  1.
          2   -1    0    0  501    0  0.00000000000E+00 -0.00000000000E+00 -0.17234555215E+04  0.17234555215E+04  0.25500000000E-02 0. -1.
    8880023    1    1    2    0    0 -0.33287969558E+03 -0.32526836336E+02 -0.13918433970E+04  0.15757236861E+04  0.65864270000E+03 0.  0.
    8880022    1    1    2    0    0  0.33287969558E+03  0.32526836336E+02 -0.98584836872E+02  0.38075912318E+03  0.15294330000E+03 0.  0.
<mgrwt>
<rscale>  0 0.62050671E+03</rscale>
<asrwt>0</asrwt>
<pdfrwt beam="1">  1        2 0.26514700E+00 0.73869960E+03</pdfrwt>
<pdfrwt beam="2">  1       -2 0.35850353E-01 0.73869960E+03</pdfrwt>
<totfact> 0.71321190E+01</totfact>
</mgrwt>
</event>
<event>
 4    2  0.9070994E-007  0.1319919E+04  0.7818608E-02  0.9048547E-01
         -2   -1    0    0    0  501 -0.00000000000E+00  0.00000000000E+00  0.12059684250E+04  0.12059684250E+04  0.25500000000E-02 0.  1.
          2   -1    0    0  501    0  0.00000000000E+00 -0.00000000000E+00 -0.32462093427E+04  0.32462093427E+04  0.25500000000E-02 0. -1.
    8880023    1    1    2    0    0 -0.90757756819E+03 -0.69618822654E+03 -0.27827539725E+04  0.30799196364E+04  0.65864270000E+03 0.  0.
    8880022    1    1    2    0    0  0.90757756819E+03  0.69618822654E+03  0.74251305486E+03  0.13722581312E+04  0.15294330000E+03 0.  0.
<mgrwt>
<rscale>  0 0.12763327E+04</rscale>
<asrwt>0</asrwt>
<pdfrwt beam="1">  1        2 0.49941682E+00 0.13199187E+04</pdfrwt>
<pdfrwt beam="2">  1       -2 0.18553361E+00 0.13199187E+04</pdfrwt>
<totfact> 0.19481358E-01</totfact>
</mgrwt>
</event>
<event>
 4    2  0.9070994E-007  0.6963118E+03  0.7818608E-02  0.1001286E+00
          2   -1    0    0  501    0  0.00000000000E+00  0.00000000000E+00  0.25905071008E+04  0.25905071008E+04  0.25500000000E-02 0. -1.
         -2   -1    0    0    0  501 -0.00000000000E+00 -0.00000000000E+00 -0.22411972230E+03  0.22411972232E+03  0.25500000000E-02 0.  1.
    8880023    1    1    2    0    0 -0.16283252104E+03 -0.15660601696E+03  0.34900473319E+03  0.77888021191E+03  0.65864270000E+03 0.  1.
    8880022    1    1    2    0    0  0.16283252104E+03  0.15660601696E+03  0.20173826453E+04  0.20357466112E+04  0.15294330000E+03 0.  0.
<mgrwt>
<rscale>  0 0.55089955E+03</rscale>
<asrwt>0</asrwt>
<pdfrwt beam="1">  1        2 0.39853955E+00 0.69631177E+03</pdfrwt>
<pdfrwt beam="2">  1       -2 0.34479957E-01 0.69631177E+03</pdfrwt>
<totfact> 0.25646419E+01</totfact>
</mgrwt>
</event>
<event>
 4    2  0.9070994E-007  0.7492204E+03  0.7818608E-02  0.9833859E-01
         -2   -1    0    0    0  501 -0.00000000000E+00  0.00000000000E+00  0.62463960708E+03  0.62463960708E+03  0.25500000000E-02 0.  1.
          2   -1    0    0  501    0  0.00000000000E+00 -0.00000000000E+00 -0.12231420561E+04  0.12231420561E+04  0.25500000000E-02 0. -1.
    8880023    1    1    2    0    0  0.28894786132E+03  0.20983344877E+03 -0.10258106111E+04  0.12702828657E+04  0.65864270000E+03 0. -1.
    8880022    1    1    2    0    0 -0.28894786132E+03 -0.20983344877E+03  0.42730816204E+03  0.57749879752E+03  0.15294330000E+03 0.  1.
<mgrwt>
<rscale>  0 0.63576683E+03</rscale>
<asrwt>0</asrwt>
<pdfrwt beam="1">  1        2 0.18817570E+00 0.74922036E+03</pdfrwt>
<pdfrwt beam="2">  1       -2 0.96098402E-01 0.74922036E+03</pdfrwt>
<totfact> 0.16973969E+01</totfact>
</mgrwt>
</event>
<event>
 4    2  0.9070994E-007  0.6979841E+03  0.7818608E-02  0.1000567E+00
          2   -1    0    0  501    0  0.00000000000E+00  0.00000000000E+00  0.14481185087E+04  0.14481185087E+04  0.25500000000E-02 0. -1.
         -2   -1    0    0    0  501 -0.00000000000E+00 -0.00000000000E+00 -0.26711199842E+03  0.26711199843E+03  0.25500000000E-02 0.  1.
    8880023    1    1    2    0    0 -0.13471850873E+03 -0.18767666614E+03  0.12482338083E+04  0.14301291739E+04  0.65864270000E+03 0.  0.
    8880022    1    1    2    0    0  0.13471850873E+03  0.18767666614E+03 -0.67227297997E+02  0.28510133325E+03  0.15294330000E+03 0.  0.
<mgrwt>
<rscale>  0 0.55402368E+03</rscale>
<asrwt>0</asrwt>
<pdfrwt beam="1">  1        2 0.22278746E+00 0.69798411E+03</pdfrwt>
<pdfrwt beam="2">  1       -2 0.41094154E-01 0.69798411E+03</pdfrwt>
<totfact> 0.78029665E+01</totfact>
</mgrwt>
</event>
<event>
 4    2  0.9070994E-007  0.6845039E+03  0.7818608E-02  0.1006883E+00
          2   -1    0    0  501    0  0.00000000000E+00  0.00000000000E+00  0.19828115634E+03  0.19828115636E+03  0.25500000000E-02 0. -1.
         -2   -1    0    0    0  501 -0.00000000000E+00 -0.00000000000E+00 -0.22666213759E+04  0.22666213759E+04  0.25500000000E-02 0.  1.
    8880023    1    1    2    0    0 -0.18236323996E+03 -0.38458613343E+02 -0.42878181289E+03  0.80771248942E+03  0.65864270000E+03 0. -1.
    8880022    1    1    2    0    0  0.18236323996E+03  0.38458613343E+02 -0.16395584067E+04  0.16571900429E+04  0.15294330000E+03 0.  0.
<mgrwt>
<rscale>  0 0.52732609E+03</rscale>
<asrwt>0</asrwt>
<pdfrwt beam="1">  1        2 0.30504795E-01 0.68450392E+03</pdfrwt>
<pdfrwt beam="2">  1       -2 0.34871096E+00 0.68450392E+03</pdfrwt>
<totfact> 0.29376390E+00</totfact>
</mgrwt>
</event>
<event>
 4    2  0.9070994E-007  0.7646903E+03  0.7818608E-02  0.9793113E-01
         -2   -1    0    0    0  501 -0.00000000000E+00  0.00000000000E+00  0.11594247380E+04  0.11594247380E+04  0.25500000000E-02 0.  1.
          2   -1    0    0  501    0  0.00000000000E+00 -0.00000000000E+00 -0.69820518911E+03  0.69820518911E+03  0.25500000000E-02 0. -1.
    8880023    1    1    2    0    0  0.23026414292E+03 -0.31292093050E+03 -0.42724213560E+03  0.87594927533E+03  0.65864270000E+03 0. -1.
    8880022    1    1    2    0    0 -0.23026414292E+03  0.31292093050E+03  0.88846168446E+03  0.98168065176E+03  0.15294330000E+03 0.  0.
<mgrwt>
<rscale>  0 0.65733471E+03</rscale>
<asrwt>0</asrwt>
<pdfrwt beam="1">  1        2 0.10741618E+00 0.76469032E+03</pdfrwt>
<pdfrwt beam="2">  1       -2 0.17837304E+00 0.76469032E+03</pdfrwt>
<totfact> 0.77740264E+00</totfact>
</mgrwt>
</event>
<event>
 4    2  0.9070994E-007  0.9843115E+03  0.7818608E-02  0.9402377E-01
          2   -1    0    0  501    0  0.00000000000E+00  0.00000000000E+00  0.27018160862E+04  0.27018160862E+04  0.25500000000E-02 0. -1.
         -2   -1    0    0    0  501 -0.00000000000E+00 -0.00000000000E+00 -0.37728623243E+03  0.37728623244E+03  0.25500000000E-02 0.  1.
    8880023    1    1    2    0    0  0.47153568105E+03 -0.55920755430E+03  0.49276493750E+03  0.11007663136E+04  0.65864270000E+03 0. -1.
    8880022    1    1    2    0    0 -0.47153568105E+03  0.55920755430E+03  0.18317649162E+04  0.19783360050E+04  0.15294330000E+03 0.  0.
<mgrwt>
<rscale>  0 0.91880326E+03</rscale>
<asrwt>0</asrwt>
<pdfrwt beam="1">  1        2 0.41566401E+00 0.98431153E+03</pdfrwt>
<pdfrwt beam="2">  1       -2 0.58044037E-01 0.98431153E+03</pdfrwt>
<totfact> 0.74904163E+00</totfact>
</mgrwt>
</event>
<event>
 4    2  0.9070994E-007  0.7569462E+03  0.7818608E-02  0.9813079E-01
         -2   -1    0    0    0  501 -0.00000000000E+00  0.00000000000E+00  0.56542059413E+03  0.56542059413E+03  0.25500000000E-02 0.  1.
          2   -1    0    0  501    0  0.00000000000E+00 -0.00000000000E+00 -0.15344135345E+04  0.15344135345E+04  0.25500000000E-02 0. -1.
    8880023    1    1    2    0    0  0.35474119743E+03 -0.11539478082E+03 -0.13483207237E+04  0.15462652595E+04  0.65864270000E+03 0.  0.
    8880022    1    1    2    0    0 -0.35474119743E+03  0.11539478082E+03  0.37932778335E+03  0.55356886909E+03  0.15294330000E+03 0.  0.
<mgrwt>
<rscale>  0 0.64665368E+03</rscale>
<asrwt>0</asrwt>
<pdfrwt beam="1">  1        2 0.23606362E+00 0.75694615E+03</pdfrwt>
<pdfrwt beam="2">  1       -2 0.86987785E-01 0.75694615E+03</pdfrwt>
<totfact> 0.14207354E+01</totfact>
</mgrwt>
</event>
<event>
 4    2  0.9070994E-007  0.7416615E+03  0.7818608E-02  0.9855133E-01
          2   -1    0    0  501    0  0.00000000000E+00  0.00000000000E+00  0.30953818715E+04  0.30953818715E+04  0.25500000000E-02 0. -1.
         -2   -1    0    0    0  501 -0.00000000000E+00 -0.00000000000E+00 -0.26720099691E+03  0.26720099692E+03  0.25500000000E-02 0.  1.
    8880023    1    1    2    0    0 -0.88354488607E+02  0.32931007410E+03  0.28901468022E+04  0.29837912770E+04  0.65864270000E+03 0. -1.
    8880022    1    1    2    0    0  0.88354488607E+02 -0.32931007410E+03 -0.61965927520E+02  0.37879159144E+03  0.15294330000E+03 0.  0.
<mgrwt>
<rscale>  0 0.62485872E+03</rscale>
<asrwt>0</asrwt>
<pdfrwt beam="1">  1        2 0.47621257E+00 0.74166154E+03</pdfrwt>
<pdfrwt beam="2">  1       -2 0.41107848E-01 0.74166154E+03</pdfrwt>
<totfact> 0.90726867E+00</totfact>
</mgrwt>
</event>
<event>
 4    2  0.9070994E-007  0.7988256E+03  0.7818608E-02  0.9713341E-01
          2   -1    0    0  501    0  0.00000000000E+00  0.00000000000E+00  0.13521021832E+04  0.13521021832E+04  0.25500000000E-02 0. -1.
         -2   -1    0    0    0  501 -0.00000000000E+00 -0.00000000000E+00 -0.58189572707E+03  0.58189572707E+03  0.25500000000E-02 0.  1.
    8880023    1    1    2    0    0 -0.50616574544E+02 -0.44916598546E+03  0.10959871991E+04  0.13562117338E+04  0.65864270000E+03 0.  0.
    8880022    1    1    2    0    0  0.50616574544E+02  0.44916598546E+03 -0.32578074302E+03  0.57778617641E+03  0.15294330000E+03 0.  0.
<mgrwt>
<rscale>  0 0.70227993E+03</rscale>
<asrwt>0</asrwt>
<pdfrwt beam="1">  1        2 0.20801572E+00 0.79882559E+03</pdfrwt>
<pdfrwt beam="2">  1       -2 0.89522419E-01 0.79882559E+03</pdfrwt>
<totfact> 0.16756948E+01</totfact>
</mgrwt>
</event>
<event>
 4    2  0.9070994E-007  0.9467519E+03  0.7818608E-02  0.9454803E-01
         -2   -1    0    0    0  501 -0.00000000000E+00  0.00000000000E+00  0.10493979526E+04  0.10493979526E+04  0.25500000000E-02 0.  1.
          2   -1    0    0  501    0  0.00000000000E+00 -0.00000000000E+00 -0.15623240967E+04  0.15623240968E+04  0.25500000000E-02 0. -1.
    8880023    1    1    2    0    0 -0.10710368094E+03  0.67160835890E+03 -0.12690549507E+04  0.15833002433E+04  0.65864270000E+03 0. -1.
    8880022    1    1    2    0    0  0.10710368094E+03 -0.67160835890E+03  0.75612880650E+03  0.10284218061E+04  0.15294330000E+03 0.  0.
<mgrwt>
<rscale>  0 0.87699641E+03</rscale>
<asrwt>0</asrwt>
<pdfrwt beam="1">  1        2 0.24035755E+00 0.94675192E+03</pdfrwt>
<pdfrwt beam="2">  1       -2 0.16144584E+00 0.94675192E+03</pdfrwt>
<totfact> 0.28766987E+00</totfact>
</mgrwt>
</event>
<event>
 4    2  0.9070994E-007  0.8406163E+03  0.7818608E-02  0.9629019E-01
         -2   -1    0    0    0  501 -0.00000000000E+00  0.00000000000E+00  0.48035216498E+03  0.48035216498E+03  0.25500000000E-02 0.  1.
          2   -1    0    0  501    0  0.00000000000E+00 -0.00000000000E+00 -0.15123263291E+04  0.15123263291E+04  0.25500000000E-02 0. -1.
    8880023    1    1    2    0    0  0.36272558696E+03 -0.37583992094E+03 -0.11609642516E+04  0.14333435378E+04  0.65864270000E+03 0. -1.
    8880022    1    1    2    0    0 -0.36272558696E+03  0.37583992094E+03  0.12899008750E+03  0.55933495626E+03  0.15294330000E+03 0.  0.
<mgrwt>
<rscale>  0 0.75404908E+03</rscale>
<asrwt>0</asrwt>
<pdfrwt beam="1">  1        2 0.23266559E+00 0.84061626E+03</pdfrwt>
<pdfrwt beam="2">  1       -2 0.73900334E-01 0.84061626E+03</pdfrwt>
<totfact> 0.20889698E+01</totfact>
</mgrwt>
</event>
<event>
 4    2  0.9070994E-007  0.7192737E+03  0.7818608E-02  0.9925051E-01
          2   -1    0    0  501    0  0.00000000000E+00  0.00000000000E+00  0.15710378198E+04  0.15710378198E+04  0.25500000000E-02 0. -1.
         -2   -1    0    0    0  501 -0.00000000000E+00 -0.00000000000E+00 -0.30753305142E+03  0.30753305143E+03  0.25500000000E-02 0.  1.
    8880023    1    1    2    0    0  0.26713947791E+03 -0.11036702630E+03  0.13592531217E+04  0.15378308218E+04  0.65864270000E+03 0. -1.
    8880022    1    1    2    0    0 -0.26713947791E+03  0.11036702630E+03 -0.95748353338E+02  0.34074004950E+03  0.15294330000E+03 0.  0.
<mgrwt>
<rscale>  0 0.59062404E+03</rscale>
<asrwt>0</asrwt>
<pdfrwt beam="1">  1        2 0.24169813E+00 0.71927365E+03</pdfrwt>
<pdfrwt beam="2">  1       -2 0.47312777E-01 0.71927365E+03</pdfrwt>
<totfact> 0.50297193E+01</totfact>
</mgrwt>
</event>
<event>
 4    2  0.9070994E-007  0.7614493E+03  0.7818608E-02  0.9801370E-01
          2   -1    0    0  501    0  0.00000000000E+00  0.00000000000E+00  0.10402920067E+04  0.10402920067E+04  0.25500000000E-02 0. -1.
         -2   -1    0    0    0  501 -0.00000000000E+00 -0.00000000000E+00 -0.36430022575E+03  0.36430022576E+03  0.25500000000E-02 0.  1.
    8880023    1    1    2    0    0 -0.38206778139E+03  0.43585323594E+01  0.63409510433E+03  0.99089938640E+03  0.65864270000E+03 0. -1.
    8880022    1    1    2    0    0  0.38206778139E+03 -0.43585323594E+01  0.41896676663E+02  0.41369284609E+03  0.15294330000E+03 0.  1.
<mgrwt>
<rscale>  0 0.65289082E+03</rscale>
<asrwt>0</asrwt>
<pdfrwt beam="1">  1        2 0.16004492E+00 0.76144927E+03</pdfrwt>
<pdfrwt beam="2">  1       -2 0.56046188E-01 0.76144927E+03</pdfrwt>
<totfact> 0.71963524E+01</totfact>
</mgrwt>
</event>
<event>
 4    2  0.9070994E-007  0.6948813E+03  0.7818608E-02  0.1001914E+00
          2   -1    0    0  501    0  0.00000000000E+00  0.00000000000E+00  0.62528360305E+03  0.62528360305E+03  0.25500000000E-02 0. -1.
         -2   -1    0    0    0  501 -0.00000000000E+00 -0.00000000000E+00 -0.41712414332E+03  0.41712414333E+03  0.25500000000E-02 0.  1.
    8880023    1    1    2    0    0  0.19203242388E+03  0.11033323622E+03  0.30158452288E+03  0.75750465711E+03  0.65864270000E+03 0.  1.
    8880022    1    1    2    0    0 -0.19203242388E+03 -0.11033323622E+03 -0.93425063151E+02  0.28490308927E+03  0.15294330000E+03 0.  0.
<mgrwt>
<rscale>  0 0.54819042E+03</rscale>
<asrwt>0</asrwt>
<pdfrwt beam="1">  1        2 0.96197477E-01 0.69488134E+03</pdfrwt>
<pdfrwt beam="2">  1       -2 0.64172945E-01 0.69488134E+03</pdfrwt>
<totfact> 0.10739494E+02</totfact>
</mgrwt>
</event>
<event>
 4    2  0.9070994E-007  0.6667256E+03  0.7818608E-02  0.1018128E+00
          2   -1    0    0  501    0  0.00000000000E+00  0.00000000000E+00  0.10626580856E+04  0.10626580856E+04  0.25500000000E-02 0. -1.
         -2   -1    0    0    0  501 -0.00000000000E+00 -0.00000000000E+00 -0.25997421228E+03  0.25997421230E+03  0.25500000000E-02 0.  1.
    8880023    1    1    2    0    0  0.47847247148E+02  0.91779760001E+02  0.89510281326E+03  0.11161237100E+04  0.65864270000E+03 0. -1.
    8880022    1    1    2    0    0 -0.47847247148E+02 -0.91779760001E+02 -0.92418939951E+02  0.20650858791E+03  0.15294330000E+03 0.  0.
<mgrwt>
<rscale>  0 0.48368419E+03</rscale>
<asrwt>0</asrwt>
<pdfrwt beam="1">  1        2 0.16348586E+00 0.66672565E+03</pdfrwt>
<pdfrwt beam="2">  1       -2 0.39996032E-01 0.66672565E+03</pdfrwt>
<totfact> 0.13849267E+02</totfact>
</mgrwt>
</event>
<event>
 4    2  0.9070994E-007  0.7740337E+03  0.7818608E-02  0.9770043E-01
          2   -1    0    0  501    0  0.00000000000E+00  0.00000000000E+00  0.18539308697E+04  0.18539308697E+04  0.25500000000E-02 0. -1.
         -2   -1    0    0    0  501 -0.00000000000E+00 -0.00000000000E+00 -0.30414919469E+03  0.30414919470E+03  0.25500000000E-02 0.  1.
    8880023    1    1    2    0    0  0.38691967609E+03  0.12494460975E+03  0.15399800956E+04  0.17235622682E+04  0.65864270000E+03 0. -1.
    8880022    1    1    2    0    0 -0.38691967609E+03 -0.12494460975E+03  0.98015794380E+01  0.43451779622E+03  0.15294330000E+03 0.  0.
<mgrwt>
<rscale>  0 0.66995275E+03</rscale>
<asrwt>0</asrwt>
<pdfrwt beam="1">  1        2 0.28522013E+00 0.77403372E+03</pdfrwt>
<pdfrwt beam="2">  1       -2 0.46792184E-01 0.77403372E+03</pdfrwt>
<totfact> 0.35776282E+01</totfact>
</mgrwt>
</event>
<event>
 4    2  0.9070994E-007  0.6839638E+03  0.7818608E-02  0.1007165E+00
         -2   -1    0    0    0  501 -0.00000000000E+00  0.00000000000E+00  0.14470241083E+03  0.14470241085E+03  0.25500000000E-02 0.  1.
          2   -1    0    0  501    0  0.00000000000E+00 -0.00000000000E+00 -0.18451010051E+04  0.18451010051E+04  0.25500000000E-02 0. -1.
    8880023    1    1    2    0    0 -0.15295266207E+03 -0.10296508893E+03 -0.15800101401E+04  0.17216964237E+04  0.65864270000E+03 0. -1.
    8880022    1    1    2    0    0  0.15295266207E+03  0.10296508893E+03 -0.12038845418E+03  0.26810699224E+03  0.15294330000E+03 0.  1.
<mgrwt>
<rscale>  0 0.52617168E+03</rscale>
<asrwt>0</asrwt>
<pdfrwt beam="1">  1        2 0.28386168E+00 0.68396384E+03</pdfrwt>
<pdfrwt beam="2">  1       -2 0.22261911E-01 0.68396384E+03</pdfrwt>
<totfact> 0.14786790E+02</totfact>
</mgrwt>
</event>
<event>
 4    2  0.9070994E-007  0.8058111E+03  0.7818608E-02  0.9698369E-01
          2   -1    0    0  501    0  0.00000000000E+00  0.00000000000E+00  0.40478063641E+04  0.40478063641E+04  0.25500000000E-02 0. -1.
         -2   -1    0    0    0  501 -0.00000000000E+00 -0.00000000000E+00 -0.16580250696E+03  0.16580250698E+03  0.25500000000E-02 0.  1.
    8880023    1    1    2    0    0  0.43624817459E+03 -0.15877273746E+03  0.35046809290E+04  0.35961256753E+04  0.65864270000E+03 0.  0.
    8880022    1    1    2    0    0 -0.43624817459E+03  0.15877273746E+03  0.37732292813E+03  0.61748319580E+03  0.15294330000E+03 0.  0.
<mgrwt>
<rscale>  0 0.71113961E+03</rscale>
<asrwt>0</asrwt>
<pdfrwt beam="1">  1        2 0.62273944E+00 0.80581106E+03</pdfrwt>
<pdfrwt beam="2">  1       -2 0.25508078E-01 0.80581106E+03</pdfrwt>
<totfact> 0.47272980E+00</totfact>
</mgrwt>
</event>
<event>
 4    2  0.9070994E-007  0.7305916E+03  0.7818608E-02  0.9888253E-01
         -2   -1    0    0    0  501 -0.00000000000E+00  0.00000000000E+00  0.50282639768E+03  0.50282639769E+03  0.25500000000E-02 0.  1.
          2   -1    0    0  501    0  0.00000000000E+00 -0.00000000000E+00 -0.18528110655E+04  0.18528110655E+04  0.25500000000E-02 0. -1.
    8880023    1    1    2    0    0 -0.24034223680E+03  0.20540080250E+03 -0.17058095707E+04  0.18556805701E+04  0.65864270000E+03 0.  0.
    8880022    1    1    2    0    0  0.24034223680E+03 -0.20540080250E+03  0.35582490287E+03  0.49995689311E+03  0.15294330000E+03 0.  0.
<mgrwt>
<rscale>  0 0.60834009E+03</rscale>
<asrwt>0</asrwt>
<pdfrwt beam="1">  1        2 0.28504785E+00 0.73059160E+03</pdfrwt>
<pdfrwt beam="2">  1       -2 0.77357908E-01 0.73059160E+03</pdfrwt>
<totfact> 0.12436975E+01</totfact>
</mgrwt>
</event>
<event>
 4    2  0.9070994E-007  0.7835910E+03  0.7818608E-02  0.9747468E-01
          2   -1    0    0  501    0  0.00000000000E+00  0.00000000000E+00  0.14283913061E+04  0.14283913061E+04  0.25500000000E-02 0. -1.
         -2   -1    0    0    0  501 -0.00000000000E+00 -0.00000000000E+00 -0.59440475280E+03  0.59440475281E+03  0.25500000000E-02 0.  1.
    8880023    1    1    2    0    0  0.11100161013E+02  0.42435997820E+03  0.12058547042E+04  0.14380891414E+04  0.65864270000E+03 0. -1.
    8880022    1    1    2    0    0 -0.11100161013E+02 -0.42435997820E+03 -0.37186815093E+03  0.58470691749E+03  0.15294330000E+03 0.  0.
<mgrwt>
<rscale>  0 0.68259530E+03</rscale>
<asrwt>0</asrwt>
<pdfrwt beam="1">  1        2 0.21975251E+00 0.78359097E+03</pdfrwt>
<pdfrwt beam="2">  1       -2 0.91446886E-01 0.78359097E+03</pdfrwt>
<totfact> 0.14465200E+01</totfact>
</mgrwt>
</event>
<event>
 4    2  0.9070994E-007  0.6976043E+03  0.7818608E-02  0.1000729E+00
          2   -1    0    0  501    0  0.00000000000E+00  0.00000000000E+00  0.40205408833E+03  0.40205408834E+03  0.25500000000E-02 0. -1.
         -2   -1    0    0    0  501 -0.00000000000E+00 -0.00000000000E+00 -0.73964138202E+03  0.73964138202E+03  0.25500000000E-02 0.  1.
    8880023    1    1    2    0    0  0.21854522035E+03 -0.71270523053E+02  0.10145831384E+02  0.69767803818E+03  0.65864270000E+03 0.  0.
    8880022    1    1    2    0    0 -0.21854522035E+03  0.71270523053E+02 -0.34773312507E+03  0.44401743219E+03  0.15294330000E+03 0.  0.
<mgrwt>
<rscale>  0 0.55331804E+03</rscale>
<asrwt>0</asrwt>
<pdfrwt beam="1">  1        2 0.61854475E-01 0.69760426E+03</pdfrwt>
<pdfrwt beam="2">  1       -2 0.11379098E+00 0.69760426E+03</pdfrwt>
<totfact> 0.48540011E+01</totfact>
</mgrwt>
</event>
<event>
 4    2  0.9070994E-007  0.7435806E+03  0.7818608E-02  0.9849637E-01
          2   -1    0    0  501    0  0.00000000000E+00  0.00000000000E+00  0.71669931741E+03  0.71669931742E+03  0.25500000000E-02 0. -1.
         -2   -1    0    0    0  501 -0.00000000000E+00 -0.00000000000E+00 -0.11404700855E+04  0.11404700855E+04  0.25500000000E-02 0.  1.
    8880023    1    1    2    0    0 -0.34429928155E+03 -0.23662762221E+02  0.47499833352E+03  0.88234661256E+03  0.65864270000E+03 0. -1.
    8880022    1    1    2    0    0  0.34429928155E+03  0.23662762221E+02 -0.89876910160E+03  0.97482279036E+03  0.15294330000E+03 0.  0.
<mgrwt>
<rscale>  0 0.62765422E+03</rscale>
<asrwt>0</asrwt>
<pdfrwt beam="1">  1        2 0.11026143E+00 0.74358061E+03</pdfrwt>
<pdfrwt beam="2">  1       -2 0.17545694E+00 0.74358061E+03</pdfrwt>
<totfact> 0.78984178E+00</totfact>
</mgrwt>
</event>
<event>
 4    2  0.1345108E-006  0.9001556E+03  0.7818608E-02  0.9525782E-01
         -2   -1    0    0    0  501 -0.00000000000E+00  0.00000000000E+00  0.14185664958E+04  0.14185664958E+04  0.25500000000E-02 0.  1.
          2   -1    0    0  501    0  0.00000000000E+00 -0.00000000000E+00 -0.20407942614E+04  0.20407942614E+04  0.25500000000E-02 0. -1.
    8880023    1    1    2    0    0 -0.56947313804E+03  0.22840791504E+03 -0.18617025036E+04  0.20679014118E+04  0.65864270000E+03 0. -1.
    8880022    1    1    2    0    0  0.56947313804E+03 -0.22840791504E+03  0.12394747381E+04  0.13914593454E+04  0.15294330000E+03 0.  0.
<mgrwt>
<rscale>  0 0.82409423E+03</rscale>
<asrwt>0</asrwt>
<pdfrwt beam="1">  1        2 0.31396835E+00 0.90015556E+03</pdfrwt>
<pdfrwt beam="2">  1       -2 0.21824100E+00 0.90015556E+03</pdfrwt>
<totfact> 0.65427720E-01</totfact>
</mgrwt>
</event>
<event>
 4    2  0.9070994E-007  0.9095075E+03  0.7818608E-02  0.9510938E-01
         -2   -1    0    0    0  501 -0.00000000000E+00  0.00000000000E+00  0.23699507249E+03  0.23699507250E+03  0.25500000000E-02 0.  1.
          2   -1    0    0  501    0  0.00000000000E+00 -0.00000000000E+00 -0.26432759906E+04  0.26432759906E+04  0.25500000000E-02 0. -1.
    8880023    1    1    2    0    0  0.34942800186E+03 -0.52085873269E+03 -0.11349336262E+04  0.14543996322E+04  0.65864270000E+03 0. -1.
    8880022    1    1    2    0    0 -0.34942800186E+03  0.52085873269E+03 -0.12713472919E+04  0.14258714309E+04  0.15294330000E+03 0.  0.
<mgrwt>
<rscale>  0 0.83482181E+03</rscale>
<asrwt>0</asrwt>
<pdfrwt beam="1">  1        2 0.40665782E+00 0.90950753E+03</pdfrwt>
<pdfrwt beam="2">  1       -2 0.36460782E-01 0.90950753E+03</pdfrwt>
<totfact> 0.20846946E+01</totfact>
</mgrwt>
</event>
<event>
 4    2  0.9070994E-007  0.7075099E+03  0.7818608E-02  0.9967366E-01
         -2   -1    0    0    0  501 -0.00000000000E+00  0.00000000000E+00  0.60963917298E+03  0.60963917298E+03  0.25500000000E-02 0.  1.
          2   -1    0    0  501    0  0.00000000000E+00 -0.00000000000E+00 -0.10578407947E+04  0.10578407947E+04  0.25500000000E-02 0. -1.
    8880023    1    1    2    0    0  0.23769759056E+03 -0.10129154737E+03 -0.88773332993E+03  0.11351831541E+04  0.65864270000E+03 0. -1.
    8880022    1    1    2    0    0 -0.23769759056E+03  0.10129154737E+03  0.43953170823E+03  0.53229681352E+03  0.15294330000E+03 0.  1.
<mgrwt>
<rscale>  0 0.57104614E+03</rscale>
<asrwt>0</asrwt>
<pdfrwt beam="1">  1        2 0.16274474E+00 0.70750995E+03</pdfrwt>
<pdfrwt beam="2">  1       -2 0.93790642E-01 0.70750995E+03</pdfrwt>
<totfact> 0.22708949E+01</totfact>
</mgrwt>
</event>
<event>
 4    2  0.9070994E-007  0.7592073E+03  0.7818608E-02  0.9807164E-01
         -2   -1    0    0    0  501 -0.00000000000E+00  0.00000000000E+00  0.41979339048E+03  0.41979339049E+03  0.25500000000E-02 0.  1.
          2   -1    0    0  501    0  0.00000000000E+00 -0.00000000000E+00 -0.21639481207E+04  0.21639481207E+04  0.25500000000E-02 0. -1.
    8880023    1    1    2    0    0 -0.37666529649E+03 -0.26621447449E+02 -0.19747091659E+04  0.21156256624E+04  0.65864270000E+03 0. -1.
    8880022    1    1    2    0    0  0.37666529649E+03  0.26621447449E+02  0.23055443573E+03  0.46811584880E+03  0.15294330000E+03 0.  0.
<mgrwt>
<rscale>  0 0.64979488E+03</rscale>
<asrwt>0</asrwt>
<pdfrwt beam="1">  1        2 0.33291509E+00 0.75920725E+03</pdfrwt>
<pdfrwt beam="2">  1       -2 0.64583600E-01 0.75920725E+03</pdfrwt>
<totfact> 0.12427204E+01</totfact>
</mgrwt>
</event>
<event>
 4    2  0.9070994E-007  0.9273859E+03  0.7818608E-02  0.9483426E-01
          2   -1    0    0  501    0  0.00000000000E+00  0.00000000000E+00  0.13901304898E+04  0.13901304898E+04  0.25500000000E-02 0. -1.
         -2   -1    0    0    0  501 -0.00000000000E+00 -0.00000000000E+00 -0.88729459649E+03  0.88729459649E+03  0.25500000000E-02 0.  1.
    8880023    1    1    2    0    0 -0.21625441771E+03  0.61601003559E+03 -0.51331741733E+03  0.10599713743E+04  0.65864270000E+03 0.  1.
    8880022    1    1    2    0    0  0.21625441771E+03 -0.61601003559E+03  0.10161533106E+04  0.12174537120E+04  0.15294330000E+03 0.  0.
<mgrwt>
<rscale>  0 0.85516867E+03</rscale>
<asrwt>0</asrwt>
<pdfrwt beam="1">  1        2 0.21386623E+00 0.92738587E+03</pdfrwt>
<pdfrwt beam="2">  1       -2 0.13650686E+00 0.92738587E+03</pdfrwt>
<totfact> 0.56246719E+00</totfact>
</mgrwt>
</event>
<event>
 4    2  0.9070994E-007  0.1982092E+04  0.7818608E-02  0.8627981E-01
         -2   -1    0    0    0  501 -0.00000000000E+00  0.00000000000E+00  0.15050247824E+04  0.15050247824E+04  0.25500000000E-02 0.  1.
          2   -1    0    0  501    0  0.00000000000E+00 -0.00000000000E+00 -0.26906083865E+04  0.26906083865E+04  0.25500000000E-02 0. -1.
    8880023    1    1    2    0    0 -0.14373052731E+04 -0.11954218087E+04 -0.12053590455E+04  0.23198233518E+04  0.65864270000E+03 0.  0.
    8880022    1    1    2    0    0  0.14373052731E+04  0.11954218087E+04  0.19775441377E+02  0.18758098171E+04  0.15294330000E+03 0.  0.
<mgrwt>
<rscale>  0 0.19549429E+04</rscale>
<asrwt>0</asrwt>
<pdfrwt beam="1">  1        2 0.41393975E+00 0.19820923E+04</pdfrwt>
<pdfrwt beam="2">  1       -2 0.23154228E+00 0.19820923E+04</pdfrwt>
<totfact> 0.20072110E-01</totfact>
</mgrwt>
</event>
<event>
 4    2  0.9070994E-007  0.7010927E+03  0.7818608E-02  0.9992698E-01
          2   -1    0    0  501    0  0.00000000000E+00  0.00000000000E+00  0.10402884294E+04  0.10402884294E+04  0.25500000000E-02 0. -1.
         -2   -1    0    0    0  501 -0.00000000000E+00 -0.00000000000E+00 -0.66719901724E+03  0.66719901724E+03  0.25500000000E-02 0.  1.
    8880023    1    1    2    0    0 -0.89766635750E+02 -0.22285132731E+03  0.88055190734E+03  0.11255676927E+04  0.65864270000E+03 0. -1.
    8880022    1    1    2    0    0  0.89766635750E+02  0.22285132731E+03 -0.50746249521E+03  0.58191975395E+03  0.15294330000E+03 0.  0.
<mgrwt>
<rscale>  0 0.55971571E+03</rscale>
<asrwt>0</asrwt>
<pdfrwt beam="1">  1        2 0.16004437E+00 0.70109270E+03</pdfrwt>
<pdfrwt beam="2">  1       -2 0.10264600E+00 0.70109270E+03</pdfrwt>
<totfact> 0.18842923E+01</totfact>
</mgrwt>
</event>
<event>
 4    2  0.9070994E-007  0.1091731E+04  0.7818608E-02  0.9270319E-01
          2   -1    0    0  501    0  0.00000000000E+00  0.00000000000E+00  0.22520555960E+04  0.22520555960E+04  0.25500000000E-02 0. -1.
         -2   -1    0    0    0  501 -0.00000000000E+00 -0.00000000000E+00 -0.83795782276E+03  0.83795782276E+03  0.25500000000E-02 0.  1.
    8880023    1    1    2    0    0 -0.42914165384E+03  0.75756452552E+03  0.18160322809E+04  0.21189266200E+04  0.65864270000E+03 0.  0.
    8880022    1    1    2    0    0  0.42914165384E+03 -0.75756452552E+03 -0.40193450761E+03  0.97108679881E+03  0.15294330000E+03 0.  0.
<mgrwt>
<rscale>  0 0.10356189E+04</rscale>
<asrwt>0</asrwt>
<pdfrwt beam="1">  1        2 0.34647009E+00 0.10917311E+04</pdfrwt>
<pdfrwt beam="2">  1       -2 0.12891659E+00 0.10917311E+04</pdfrwt>
<totfact> 0.21196173E+00</totfact>
</mgrwt>
</event>
<event>
 4    2  0.9070994E-007  0.7049437E+03  0.7818608E-02  0.9977279E-01
          2   -1    0    0  501    0  0.00000000000E+00  0.00000000000E+00  0.36890323129E+04  0.36890323129E+04  0.25500000000E-02 0. -1.
         -2   -1    0    0    0  501 -0.00000000000E+00 -0.00000000000E+00 -0.19406188714E+03  0.19406188716E+03  0.25500000000E-02 0.  1.
    8880023    1    1    2    0    0  0.16641227186E+03  0.18826143326E+03  0.35180995095E+04  0.35880314626E+04  0.65864270000E+03 0. -1.
    8880022    1    1    2    0    0 -0.16641227186E+03 -0.18826143326E+03 -0.23129083808E+02  0.29506273742E+03  0.15294330000E+03 0.  0.
<mgrwt>
<rscale>  0 0.56657815E+03</rscale>
<asrwt>0</asrwt>
<pdfrwt beam="1">  1        2 0.56754346E+00 0.70494370E+03</pdfrwt>
<pdfrwt beam="2">  1       -2 0.29855674E-01 0.70494370E+03</pdfrwt>
<totfact> 0.67648151E+00</totfact>
</mgrwt>
</event>
<event>
 4    2  0.9070994E-007  0.1052709E+04  0.7818608E-02  0.9315632E-01
         -2   -1    0    0    0  501 -0.00000000000E+00  0.00000000000E+00  0.92974641543E+03  0.92974641544E+03  0.25500000000E-02 0.  1.
          2   -1    0    0  501    0  0.00000000000E+00 -0.00000000000E+00 -0.22396409198E+04  0.22396409198E+04  0.25500000000E-02 0. -1.
    8880023    1    1    2    0    0  0.25127965997E+03 -0.78182171590E+03 -0.18823544017E+04  0.21567232004E+04  0.65864270000E+03 0.  0.
    8880022    1    1    2    0    0 -0.25127965997E+03  0.78182171590E+03  0.57245989737E+03  0.10126641349E+04  0.15294330000E+03 0.  0.
<mgrwt>
<rscale>  0 0.99356441E+03</rscale>
<asrwt>0</asrwt>
<pdfrwt beam="1">  1        2 0.34456014E+00 0.10527093E+04</pdfrwt>
<pdfrwt beam="2">  1       -2 0.14303791E+00 0.10527093E+04</pdfrwt>
<totfact> 0.16556712E+00</totfact>
</mgrwt>
</event>
<event>
 4    2  0.9070994E-007  0.8423193E+03  0.7818608E-02  0.9625822E-01
         -2   -1    0    0    0  501 -0.00000000000E+00  0.00000000000E+00  0.33622435886E+04  0.33622435886E+04  0.25500000000E-02 0.  1.
          2   -1    0    0  501    0  0.00000000000E+00 -0.00000000000E+00 -0.10841943741E+04  0.10841943741E+04  0.25500000000E-02 0. -1.
    8880023    1    1    2    0    0 -0.38785347582E+03  0.35392268553E+03 -0.89358180653E+03  0.12280025396E+04  0.65864270000E+03 0. -1.
    8880022    1    1    2    0    0  0.38785347582E+03 -0.35392268553E+03  0.31716310211E+04  0.32184354231E+04  0.15294330000E+03 0.  0.
<mgrwt>
<rscale>  0 0.75610406E+03</rscale>
<asrwt>0</asrwt>
<pdfrwt beam="1">  1        2 0.16679914E+00 0.84231929E+03</pdfrwt>
<pdfrwt beam="2">  1       -2 0.51726824E+00 0.84231929E+03</pdfrwt>
<totfact> 0.29922090E-02</totfact>
</mgrwt>
</event>
<event>
 4    2  0.9070994E-007  0.7571989E+03  0.7818608E-02  0.9812414E-01
         -2   -1    0    0    0  501 -0.00000000000E+00  0.00000000000E+00  0.55932756750E+03  0.55932756751E+03  0.25500000000E-02 0.  1.
          2   -1    0    0  501    0  0.00000000000E+00 -0.00000000000E+00 -0.14633703420E+04  0.14633703420E+04  0.25500000000E-02 0. -1.
    8880023    1    1    2    0    0 -0.15857255412E+03  0.33822278167E+03 -0.12695134327E+04  0.14781794434E+04  0.65864270000E+03 0. -1.
    8880022    1    1    2    0    0  0.15857255412E+03 -0.33822278167E+03  0.36547065815E+03  0.54451846611E+03  0.15294330000E+03 0.  0.
<mgrwt>
<rscale>  0 0.64700571E+03</rscale>
<asrwt>0</asrwt>
<pdfrwt beam="1">  1        2 0.22513390E+00 0.75719886E+03</pdfrwt>
<pdfrwt beam="2">  1       -2 0.86050395E-01 0.75719886E+03</pdfrwt>
<totfact> 0.15953280E+01</totfact>
</mgrwt>
</event>
<event>
 4    2  0.9070994E-007  0.8569588E+03  0.7818608E-02  0.9598996E-01
          2   -1    0    0  501    0  0.00000000000E+00  0.00000000000E+00  0.17949360729E+04  0.17949360729E+04  0.25500000000E-02 0. -1.
         -2   -1    0    0    0  501 -0.00000000000E+00 -0.00000000000E+00 -0.52430565284E+03  0.52430565285E+03  0.25500000000E-02 0.  1.
    8880023    1    1    2    0    0 -0.49872316105E+03  0.22769155931E+03  0.14821296978E+04  0.17120417299E+04  0.65864270000E+03 0.  0.
    8880022    1    1    2    0    0  0.49872316105E+03 -0.22769155931E+03 -0.21149927769E+03  0.60719999590E+03  0.15294330000E+03 0.  0.
<mgrwt>
<rscale>  0 0.77362657E+03</rscale>
<asrwt>0</asrwt>
<pdfrwt beam="1">  1        2 0.27614401E+00 0.85695883E+03</pdfrwt>
<pdfrwt beam="2">  1       -2 0.80662409E-01 0.85695883E+03</pdfrwt>
<totfact> 0.11972390E+01</totfact>
</mgrwt>
</event>
<event>
 4    2  0.9070994E-007  0.6832379E+03  0.7818608E-02  0.1007548E+00
         -2   -1    0    0    0  501 -0.00000000000E+00  0.00000000000E+00  0.22294758575E+03  0.22294758577E+03  0.25500000000E-02 0.  1.
          2   -1    0    0  501    0  0.00000000000E+00 -0.00000000000E+00 -0.24901071950E+04  0.24901071950E+04  0.25500000000E-02 0. -1.
    8880023    1    1    2    0    0 -0.74635725072E+01 -0.18151600452E+03 -0.23608772627E+04  0.24577541416E+04  0.65864270000E+03 0. -1.
    8880022    1    1    2    0    0  0.74635725072E+01  0.18151600452E+03  0.93717653388E+02  0.25530063922E+03  0.15294330000E+03 0.  0.
<mgrwt>
<rscale>  0 0.52460741E+03</rscale>
<asrwt>0</asrwt>
<pdfrwt beam="1">  1        2 0.38309339E+00 0.68323786E+03</pdfrwt>
<pdfrwt beam="2">  1       -2 0.34299630E-01 0.68323786E+03</pdfrwt>
<totfact> 0.29602115E+01</totfact>
</mgrwt>
</event>
<event>
 4    2  0.9070994E-007  0.6764596E+03  0.7818608E-02  0.1011402E+00
          2   -1    0    0  501    0  0.00000000000E+00  0.00000000000E+00  0.11479584636E+04  0.11479584636E+04  0.25500000000E-02 0. -1.
         -2   -1    0    0    0  501 -0.00000000000E+00 -0.00000000000E+00 -0.80751782886E+03  0.80751782886E+03  0.25500000000E-02 0.  1.
    8880023    1    1    2    0    0  0.15419775061E+03 -0.32252730465E+01  0.10301357748E+04  0.12323868181E+04  0.65864270000E+03 0. -1.
    8880022    1    1    2    0    0 -0.15419775061E+03  0.32252730465E+01 -0.68969514005E+03  0.72308947434E+03  0.15294330000E+03 0.  0.
<mgrwt>
<rscale>  0 0.50921358E+03</rscale>
<asrwt>0</asrwt>
<pdfrwt beam="1">  1        2 0.17660899E+00 0.67645957E+03</pdfrwt>
<pdfrwt beam="2">  1       -2 0.12423351E+00 0.67645957E+03</pdfrwt>
<totfact> 0.10201941E+01</totfact>
</mgrwt>
</event>
<event>
 4    2  0.9070994E-007  0.1093104E+04  0.7818608E-02  0.9268773E-01
          2   -1    0    0  501    0  0.00000000000E+00  0.00000000000E+00  0.35263081092E+03  0.35263081093E+03  0.25500000000E-02 0. -1.
         -2   -1    0    0    0  501 -0.00000000000E+00 -0.00000000000E+00 -0.31527906358E+04  0.31527906358E+04  0.25500000000E-02 0.  1.
    8880023    1    1    2    0    0  0.26055285076E+03  0.83257351268E+03 -0.21322489672E+04  0.23961140011E+04  0.65864270000E+03 0.  1.
    8880022    1    1    2    0    0 -0.26055285076E+03 -0.83257351268E+03 -0.66791085771E+03  0.11093074456E+04  0.15294330000E+03 0.  0.
<mgrwt>
<rscale>  0 0.10370922E+04</rscale>
<asrwt>0</asrwt>
<pdfrwt beam="1">  1        2 0.54250896E-01 0.10931041E+04</pdfrwt>
<pdfrwt beam="2">  1       -2 0.48504469E+00 0.10931041E+04</pdfrwt>
<totfact> 0.18883008E-01</totfact>
</mgrwt>
</event>
<event>
 4    2  0.9070994E-007  0.8346200E+03  0.7818608E-02  0.9640409E-01
          2   -1    0    0  501    0  0.00000000000E+00  0.00000000000E+00  0.22665731907E+04  0.22665731907E+04  0.25500000000E-02 0. -1.
         -2   -1    0    0    0  501 -0.00000000000E+00 -0.00000000000E+00 -0.36793558370E+03  0.36793558371E+03  0.25500000000E-02 0.  1.
    8880023    1    1    2    0    0 -0.50580890279E+03 -0.83292728209E+02  0.19257890933E+04  0.20988697346E+04  0.65864270000E+03 0. -1.
    8880022    1    1    2    0    0  0.50580890279E+03  0.83292728209E+02 -0.27151486338E+02  0.53563903978E+03  0.15294330000E+03 0.  0.
<mgrwt>
<rscale>  0 0.74678395E+03</rscale>
<asrwt>0</asrwt>
<pdfrwt beam="1">  1        2 0.34870357E+00 0.83461999E+03</pdfrwt>
<pdfrwt beam="2">  1       -2 0.56605474E-01 0.83461999E+03</pdfrwt>
<totfact> 0.14262126E+01</totfact>
</mgrwt>
</event>
<event>
 4    2  0.9070994E-007  0.6887680E+03  0.7818608E-02  0.1004744E+00
         -2   -1    0    0    0  501 -0.00000000000E+00  0.00000000000E+00  0.10170535139E+03  0.10170535142E+03  0.25500000000E-02 0.  1.
          2   -1    0    0  501    0  0.00000000000E+00 -0.00000000000E+00 -0.31514801907E+04  0.31514801907E+04  0.25500000000E-02 0. -1.
    8880023    1    1    2    0    0 -0.98508154655E+02 -0.17574791963E+03 -0.28466017639E+04  0.29287442695E+04  0.65864270000E+03 0. -1.
    8880022    1    1    2    0    0  0.98508154655E+02  0.17574791963E+03 -0.20317307547E+03  0.32444127265E+03  0.15294330000E+03 0.  0.
<mgrwt>
<rscale>  0 0.53618255E+03</rscale>
<asrwt>0</asrwt>
<pdfrwt beam="1">  1        2 0.48484303E+00 0.68876803E+03</pdfrwt>
<pdfrwt beam="2">  1       -2 0.15646980E-01 0.68876803E+03</pdfrwt>
<totfact> 0.48715137E+01</totfact>
</mgrwt>
</event>
<event>
 4    2  0.9070994E-007  0.8744097E+03  0.7818608E-02  0.9568428E-01
         -2   -1    0    0    0  501 -0.00000000000E+00  0.00000000000E+00  0.71899102957E+03  0.71899102958E+03  0.25500000000E-02 0.  1.
          2   -1    0    0  501    0  0.00000000000E+00 -0.00000000000E+00 -0.26097027210E+04  0.26097027210E+04  0.25500000000E-02 0. -1.
    8880023    1    1    2    0    0  0.27608693707E+03  0.50453752056E+03 -0.23943764813E+04  0.25490451245E+04  0.65864270000E+03 0. -1.
    8880022    1    1    2    0    0 -0.27608693707E+03 -0.50453752056E+03  0.50366478989E+03  0.77964862602E+03  0.15294330000E+03 0.  0.
<mgrwt>
<rscale>  0 0.79421534E+03</rscale>
<asrwt>0</asrwt>
<pdfrwt beam="1">  1        2 0.40149272E+00 0.87440969E+03</pdfrwt>
<pdfrwt beam="2">  1       -2 0.11061401E+00 0.87440969E+03</pdfrwt>
<totfact> 0.20056828E+00</totfact>
</mgrwt>
</event>
<event>
 4    2  0.9070994E-007  0.6711431E+03  0.7818608E-02  0.1014856E+00
         -2   -1    0    0    0  501 -0.00000000000E+00  0.00000000000E+00  0.11632940435E+03  0.11632940438E+03  0.25500000000E-02 0.  1.
          2   -1    0    0  501    0  0.00000000000E+00 -0.00000000000E+00 -0.16516302602E+04  0.16516302602E+04  0.25500000000E-02 0. -1.
    8880023    1    1    2    0    0  0.76327290198E+01 -0.12870350823E+03 -0.12608270217E+04  0.14283269362E+04  0.65864270000E+03 0. -1.
    8880022    1    1    2    0    0 -0.76327290198E+01  0.12870350823E+03 -0.27447383410E+03  0.33963272841E+03  0.15294330000E+03 0. -1.
<mgrwt>
<rscale>  0 0.49589363E+03</rscale>
<asrwt>0</asrwt>
<pdfrwt beam="1">  1        2 0.25409695E+00 0.67114310E+03</pdfrwt>
<pdfrwt beam="2">  1       -2 0.17896833E-01 0.67114310E+03</pdfrwt>
<totfact> 0.27626626E+02</totfact>
</mgrwt>
</event>
<event>
 4    2  0.9070994E-007  0.6721025E+03  0.7818608E-02  0.1014198E+00
          2   -1    0    0  501    0  0.00000000000E+00  0.00000000000E+00  0.20845271409E+04  0.20845271409E+04  0.25500000000E-02 0. -1.
         -2   -1    0    0    0  501 -0.00000000000E+00 -0.00000000000E+00 -0.15641349518E+03  0.15641349520E+03  0.25500000000E-02 0.  1.
    8880023    1    1    2    0    0 -0.10498300079E+03 -0.83007126566E+02  0.19236248219E+04  0.20376590184E+04  0.65864270000E+03 0. -1.
    8880022    1    1    2    0    0  0.10498300079E+03  0.83007126566E+02  0.44888237425E+01  0.20328161764E+03  0.15294330000E+03 0.  0.
<mgrwt>
<rscale>  0 0.49839618E+03</rscale>
<asrwt>0</asrwt>
<pdfrwt beam="1">  1        2 0.32069647E+00 0.67210254E+03</pdfrwt>
<pdfrwt beam="2">  1       -2 0.24063615E-01 0.67210254E+03</pdfrwt>
<totfact> 0.95502914E+01</totfact>
</mgrwt>
</event>
<event>
 4    2  0.9070994E-007  0.8742192E+03  0.7818608E-02  0.9568754E-01
          2   -1    0    0  501    0  0.00000000000E+00  0.00000000000E+00  0.13791927207E+04  0.13791927207E+04  0.25500000000E-02 0. -1.
         -2   -1    0    0    0  501 -0.00000000000E+00 -0.00000000000E+00 -0.70870220913E+03  0.70870220913E+03  0.25500000000E-02 0.  1.
    8880023    1    1    2    0    0 -0.18658865959E+03  0.54372198982E+03  0.10621768306E+04  0.13756739279E+04  0.65864270000E+03 0.  0.
    8880022    1    1    2    0    0  0.18658865959E+03 -0.54372198982E+03 -0.39168631903E+03  0.71222100196E+03  0.15294330000E+03 0.  0.
<mgrwt>
<rscale>  0 0.79399212E+03</rscale>
<asrwt>0</asrwt>
<pdfrwt beam="1">  1        2 0.21218349E+00 0.87421916E+03</pdfrwt>
<pdfrwt beam="2">  1       -2 0.10903111E+00 0.87421916E+03</pdfrwt>
<totfact> 0.10056472E+01</totfact>
</mgrwt>
</event>
<event>
 4    2  0.9070994E-007  0.7107158E+03  0.7818608E-02  0.9955353E-01
          2   -1    0    0  501    0  0.00000000000E+00  0.00000000000E+00  0.28392593744E+03  0.28392593745E+03  0.25500000000E-02 0. -1.
         -2   -1    0    0    0  501 -0.00000000000E+00 -0.00000000000E+00 -0.96342439485E+03  0.96342439485E+03  0.25500000000E-02 0.  1.
    8880023    1    1    2    0    0  0.15363375744E+03 -0.21841094999E+03 -0.33590664305E+03  0.78609805598E+03  0.65864270000E+03 0.  1.
    8880022    1    1    2    0    0 -0.15363375744E+03  0.21841094999E+03 -0.34359181436E+03  0.46125227632E+03  0.15294330000E+03 0.  0.
<mgrwt>
<rscale>  0 0.57652049E+03</rscale>
<asrwt>0</asrwt>
<pdfrwt beam="1">  1        2 0.43680914E-01 0.71071575E+03</pdfrwt>
<pdfrwt beam="2">  1       -2 0.14821914E+00 0.71071575E+03</pdfrwt>
<totfact> 0.36614068E+01</totfact>
</mgrwt>
</event>
<event>
 4    2  0.9070994E-007  0.6877195E+03  0.7818608E-02  0.1005256E+00
          2   -1    0    0  501    0  0.00000000000E+00  0.00000000000E+00  0.49777250950E+03  0.49777250951E+03  0.25500000000E-02 0. -1.
         -2   -1    0    0    0  501 -0.00000000000E+00 -0.00000000000E+00 -0.84709955175E+03  0.84709955176E+03  0.25500000000E-02 0.  1.
    8880023    1    1    2    0    0 -0.18817102109E+03  0.61152086258E+02  0.22081130527E+03  0.72229893370E+03  0.65864270000E+03 0. -1.
    8880022    1    1    2    0    0  0.18817102109E+03 -0.61152086258E+02 -0.57013834752E+03  0.62257312756E+03  0.15294330000E+03 0.  0.
<mgrwt>
<rscale>  0 0.53404501E+03</rscale>
<asrwt>0</asrwt>
<pdfrwt beam="1">  1        2 0.76580386E-01 0.68771950E+03</pdfrwt>
<pdfrwt beam="2">  1       -2 0.13032301E+00 0.68771950E+03</pdfrwt>
<totfact> 0.27190426E+01</totfact>
</mgrwt>
</event>
<event>
 4    2  0.9070994E-007  0.9105368E+03  0.7818608E-02  0.9509324E-01
          2   -1    0    0  501    0  0.00000000000E+00  0.00000000000E+00  0.35708714113E+04  0.35708714113E+04  0.25500000000E-02 0. -1.
         -2   -1    0    0    0  501 -0.00000000000E+00 -0.00000000000E+00 -0.26911569542E+03  0.26911569543E+03  0.25500000000E-02 0.  1.
    8880023    1    1    2    0    0  0.20227486584E+03 -0.59527467324E+03  0.29826525200E+04  0.31185402545E+04  0.65864270000E+03 0. -1.
    8880022    1    1    2    0    0 -0.20227486584E+03  0.59527467324E+03  0.31910319597E+03  0.72144685226E+03  0.15294330000E+03 0.  0.
<mgrwt>
<rscale>  0 0.83599878E+03</rscale>
<asrwt>0</asrwt>
<pdfrwt beam="1">  1        2 0.54936481E+00 0.91053680E+03</pdfrwt>
<pdfrwt beam="2">  1       -2 0.41402416E-01 0.91053680E+03</pdfrwt>
<totfact> 0.42222189E+00</totfact>
</mgrwt>
</event>
<event>
 4    2  0.9070994E-007  0.1109731E+04  0.7818608E-02  0.9250298E-01
          2   -1    0    0  501    0  0.00000000000E+00  0.00000000000E+00  0.11045619493E+04  0.11045619493E+04  0.25500000000E-02 0. -1.
         -2   -1    0    0    0  501 -0.00000000000E+00 -0.00000000000E+00 -0.11653565578E+04  0.11653565578E+04  0.25500000000E-02 0.  1.
    8880023    1    1    2    0    0  0.81333841543E+03 -0.36901723309E+03  0.48610778791E+03  0.12115296464E+04  0.65864270000E+03 0.  0.
    8880022    1    1    2    0    0 -0.81333841543E+03  0.36901723309E+03 -0.54690239637E+03  0.10583888607E+04  0.15294330000E+03 0.  0.
<mgrwt>
<rscale>  0 0.10549013E+04</rscale>
<asrwt>0</asrwt>
<pdfrwt beam="1">  1        2 0.16993261E+00 0.11097312E+04</pdfrwt>
<pdfrwt beam="2">  1       -2 0.17928562E+00 0.11097312E+04</pdfrwt>
<totfact> 0.38914590E+00</totfact>
</mgrwt>
</event>
<event>
 4    2  0.9070994E-007  0.6990064E+03  0.7818608E-02  0.1000135E+00
         -2   -1    0    0    0  501 -0.00000000000E+00  0.00000000000E+00  0.91673034346E+03  0.91673034346E+03  0.25500000000E-02 0.  1.
          2   -1    0    0  501    0  0.00000000000E+00 -0.00000000000E+00 -0.12593549144E+04  0.12593549144E+04  0.25500000000E-02 0. -1.
    8880023    1    1    2    0    0  0.11251602683E+03  0.20527995433E+03 -0.11365810677E+04  0.13343262141E+04  0.65864270000E+03 0. -1.
    8880022    1    1    2    0    0 -0.11251602683E+03 -0.20527995433E+03  0.79395649677E+03  0.84175904374E+03  0.15294330000E+03 0.  0.
<mgrwt>
<rscale>  0 0.55591156E+03</rscale>
<asrwt>0</asrwt>
<pdfrwt beam="1">  1        2 0.19374691E+00 0.69900638E+03</pdfrwt>
<pdfrwt beam="2">  1       -2 0.14103544E+00 0.69900638E+03</pdfrwt>
<totfact> 0.63327485E+00</totfact>
</mgrwt>
</event>
<event>
 4    2  0.9070994E-007  0.7754325E+03  0.7818608E-02  0.9766678E-01
          2   -1    0    0  501    0  0.00000000000E+00  0.00000000000E+00  0.16960337260E+04  0.16960337260E+04  0.25500000000E-02 0. -1.
         -2   -1    0    0    0  501 -0.00000000000E+00 -0.00000000000E+00 -0.30415621013E+03  0.30415621014E+03  0.25500000000E-02 0.  1.
    8880023    1    1    2    0    0  0.26765847152E+01 -0.40924099701E+03  0.13557003566E+04  0.15617999299E+04  0.65864270000E+03 0. -1.
    8880022    1    1    2    0    0 -0.26765847152E+01  0.40924099701E+03  0.36177159267E+02  0.43839000629E+03  0.15294330000E+03 0.  0.
<mgrwt>
<rscale>  0 0.67181888E+03</rscale>
<asrwt>0</asrwt>
<pdfrwt beam="1">  1        2 0.26092827E+00 0.77543250E+03</pdfrwt>
<pdfrwt beam="2">  1       -2 0.46793262E-01 0.77543250E+03</pdfrwt>
<totfact> 0.43630782E+01</totfact>
</mgrwt>
</event>
<event>
 4    2  0.9070994E-007  0.1273833E+04  0.7818608E-02  0.9088493E-01
         -2   -1    0    0    0  501 -0.00000000000E+00  0.00000000000E+00  0.18493094640E+04  0.18493094640E+04  0.25500000000E-02 0.  1.
          2   -1    0    0  501    0  0.00000000000E+00 -0.00000000000E+00 -0.13088851087E+04  0.13088851087E+04  0.25500000000E-02 0. -1.
    8880023    1    1    2    0    0 -0.22799945401E+03  0.10662344665E+04 -0.73707388572E+03  0.14717091451E+04  0.65864270000E+03 0.  0.
    8880022    1    1    2    0    0  0.22799945401E+03 -0.10662344665E+04  0.12774982410E+04  0.16864854275E+04  0.15294330000E+03 0.  0.
<mgrwt>
<rscale>  0 0.12282379E+04</rscale>
<asrwt>0</asrwt>
<pdfrwt beam="1">  1        2 0.20136694E+00 0.12738328E+04</pdfrwt>
<pdfrwt beam="2">  1       -2 0.28450915E+00 0.12738328E+04</pdfrwt>
<totfact> 0.62371460E-01</totfact>
</mgrwt>
</event>
<event>
 4    2  0.9070994E-007  0.6645304E+03  0.7818608E-02  0.1019931E+00
         -2   -1    0    0    0  501 -0.00000000000E+00  0.00000000000E+00  0.10511681327E+03  0.10511681330E+03  0.25500000000E-02 0.  1.
          2   -1    0    0  501    0  0.00000000000E+00 -0.00000000000E+00 -0.17545263663E+04  0.17545263664E+04  0.25500000000E-02 0. -1.
    8880023    1    1    2    0    0  0.78308282798E+02 -0.40721868417E+02 -0.14384573153E+04  0.15845378228E+04  0.65864270000E+03 0. -1.
    8880022    1    1    2    0    0 -0.78308282798E+02  0.40721868417E+02 -0.21095223777E+03  0.27510535683E+03  0.15294330000E+03 0.  0.
<mgrwt>
<rscale>  0 0.47711639E+03</rscale>
<asrwt>0</asrwt>
<pdfrwt beam="1">  1        2 0.26992711E+00 0.66453041E+03</pdfrwt>
<pdfrwt beam="2">  1       -2 0.16171819E-01 0.66453041E+03</pdfrwt>
<totfact> 0.28894798E+02</totfact>
</mgrwt>
</event>
<event>
 4    2  0.9070994E-007  0.6902241E+03  0.7818608E-02  0.1004046E+00
          2   -1    0    0  501    0  0.00000000000E+00  0.00000000000E+00  0.67987716056E+03  0.67987716057E+03  0.25500000000E-02 0. -1.
         -2   -1    0    0    0  501 -0.00000000000E+00 -0.00000000000E+00 -0.94468138768E+03  0.94468138768E+03  0.25500000000E-02 0.  1.
    8880023    1    1    2    0    0 -0.46498434837E+02  0.20108940344E+03  0.47734571405E+03  0.83920688129E+03  0.65864270000E+03 0. -1.
    8880022    1    1    2    0    0  0.46498434837E+02 -0.20108940344E+03 -0.74214994116E+03  0.78535166696E+03  0.15294330000E+03 0.  0.
<mgrwt>
<rscale>  0 0.53911066E+03</rscale>
<asrwt>0</asrwt>
<pdfrwt beam="1">  1        2 0.10459649E+00 0.69022406E+03</pdfrwt>
<pdfrwt beam="2">  1       -2 0.14533560E+00 0.69022406E+03</pdfrwt>
<totfact> 0.14138503E+01</totfact>
</mgrwt>
</event>
<event>
 4    2  0.9070994E-007  0.7121710E+03  0.7818608E-02  0.9950026E-01
         -2   -1    0    0    0  501 -0.00000000000E+00  0.00000000000E+00  0.13804952746E+04  0.13804952746E+04  0.25500000000E-02 0.  1.
          2   -1    0    0  501    0  0.00000000000E+00 -0.00000000000E+00 -0.24081575652E+03  0.24081575654E+03  0.25500000000E-02 0. -1.
    8880023    1    1    2    0    0  0.26997232603E+03 -0.22188112798E+02  0.39525025302E+03  0.81450005399E+03  0.65864270000E+03 0. -1.
    8880022    1    1    2    0    0 -0.26997232603E+03  0.22188112798E+02  0.74442926509E+03  0.80681097718E+03  0.15294330000E+03 0.  0.
<mgrwt>
<rscale>  0 0.57896895E+03</rscale>
<asrwt>0</asrwt>
<pdfrwt beam="1">  1        2 0.37048578E-01 0.71217103E+03</pdfrwt>
<pdfrwt beam="2">  1       -2 0.21238389E+00 0.71217103E+03</pdfrwt>
<totfact> 0.15858112E+01</totfact>
</mgrwt>
</event>
<event>
 4    2  0.9070994E-007  0.9480774E+03  0.7818608E-02  0.9452886E-01
          2   -1    0    0  501    0  0.00000000000E+00  0.00000000000E+00  0.72913146164E+03  0.72913146164E+03  0.25500000000E-02 0. -1.
         -2   -1    0    0    0  501 -0.00000000000E+00 -0.00000000000E+00 -0.16200840525E+04  0.16200840525E+04  0.25500000000E-02 0.  1.
    8880023    1    1    2    0    0 -0.63299823192E+03 -0.25368043224E+03  0.27736765415E+03  0.98781756673E+03  0.65864270000E+03 0.  0.
    8880022    1    1    2    0    0  0.63299823192E+03  0.25368043224E+03 -0.11683202450E+04  0.13613979474E+04  0.15294330000E+03 0.  0.
<mgrwt>
<rscale>  0 0.87848302E+03</rscale>
<asrwt>0</asrwt>
<pdfrwt beam="1">  1        2 0.11217407E+00 0.94807739E+03</pdfrwt>
<pdfrwt beam="2">  1       -2 0.24924370E+00 0.94807739E+03</pdfrwt>
<totfact> 0.25361013E+00</totfact>
</mgrwt>
</event>
<event>
 4    2  0.9070994E-007  0.8097905E+03  0.7818608E-02  0.9690014E-01
          2   -1    0    0  501    0  0.00000000000E+00  0.00000000000E+00  0.96747183317E+03  0.96747183318E+03  0.25500000000E-02 0. -1.
         -2   -1    0    0    0  501 -0.00000000000E+00 -0.00000000000E+00 -0.59221297209E+03  0.59221297210E+03  0.25500000000E-02 0.  1.
    8880023    1    1    2    0    0 -0.46155700960E+03 -0.94421919773E+02  0.60778235570E+03  0.10125018371E+04  0.65864270000E+03 0.  0.
    8880022    1    1    2    0    0  0.46155700960E+03  0.94421919773E+02 -0.23252349463E+03  0.54718296813E+03  0.15294330000E+03 0.  0.
<mgrwt>
<rscale>  0 0.71614503E+03</rscale>
<asrwt>0</asrwt>
<pdfrwt beam="1">  1        2 0.14884182E+00 0.80979045E+03</pdfrwt>
<pdfrwt beam="2">  1       -2 0.91109689E-01 0.80979045E+03</pdfrwt>
<totfact> 0.27440744E+01</totfact>
</mgrwt>
</event>
<event>
 4    2  0.9070994E-007  0.8332839E+03  0.7818608E-02  0.9642976E-01
          2   -1    0    0  501    0  0.00000000000E+00  0.00000000000E+00  0.15949390977E+04  0.15949390977E+04  0.25500000000E-02 0. -1.
         -2   -1    0    0    0  501 -0.00000000000E+00 -0.00000000000E+00 -0.57124565999E+03  0.57124565999E+03  0.25500000000E-02 0.  1.
    8880023    1    1    2    0    0 -0.29520300072E+03  0.41642170292E+03  0.13165886616E+04  0.15581295698E+04  0.65864270000E+03 0. -1.
    8880022    1    1    2    0    0  0.29520300072E+03 -0.41642170292E+03 -0.29289522388E+03  0.60805518786E+03  0.15294330000E+03 0.  0.
<mgrwt>
<rscale>  0 0.74515863E+03</rscale>
<asrwt>0</asrwt>
<pdfrwt beam="1">  1        2 0.24537524E+00 0.83328390E+03</pdfrwt>
<pdfrwt beam="2">  1       -2 0.87883948E-01 0.83328390E+03</pdfrwt>
<totfact> 0.12724611E+01</totfact>
</mgrwt>
</event>
<event>
 4    2  0.9070994E-007  0.6839630E+03  0.7818608E-02  0.1007165E+00
          2   -1    0    0  501    0  0.00000000000E+00  0.00000000000E+00  0.20108685611E+04  0.20108685611E+04  0.25500000000E-02 0. -1.
         -2   -1    0    0    0  501 -0.00000000000E+00 -0.00000000000E+00 -0.46843254891E+03  0.46843254892E+03  0.25500000000E-02 0.  1.
    8880023    1    1    2    0    0  0.47584154387E+02 -0.17813166658E+03  0.19166201761E+04  0.20350032550E+04  0.65864270000E+03 0.  0.
    8880022    1    1    2    0    0 -0.47584154387E+02  0.17813166658E+03 -0.37418416391E+03  0.44429785496E+03  0.15294330000E+03 0.  0.
<mgrwt>
<rscale>  0 0.52616983E+03</rscale>
<asrwt>0</asrwt>
<pdfrwt beam="1">  1        2 0.30936440E+00 0.68396297E+03</pdfrwt>
<pdfrwt beam="2">  1       -2 0.72066545E-01 0.68396297E+03</pdfrwt>
<totfact> 0.12021065E+01</totfact>
</mgrwt>
</event>
<event>
 4    2  0.9070994E-007  0.1242720E+04  0.7818608E-02  0.9116674E-01
          2   -1    0    0  501    0  0.00000000000E+00  0.00000000000E+00  0.89037538006E+03  0.89037538006E+03  0.25500000000E-02 0. -1.
         -2   -1    0    0    0  501 -0.00000000000E+00 -0.00000000000E+00 -0.17691083428E+04  0.17691083428E+04  0.25500000000E-02 0.  1.
    8880023    1    1    2    0    0  0.26571212963E+03 -0.10197743126E+04  0.53986532008E+02  0.12438920115E+04  0.65864270000E+03 0.  0.
    8880022    1    1    2    0    0 -0.26571212963E+03  0.10197743126E+04 -0.93271949474E+03  0.14155917114E+04  0.15294330000E+03 0.  0.
<mgrwt>
<rscale>  0 0.11956482E+04</rscale>
<asrwt>0</asrwt>
<pdfrwt beam="1">  1        2 0.13698083E+00 0.12427199E+04</pdfrwt>
<pdfrwt beam="2">  1       -2 0.27217051E+00 0.12427199E+04</pdfrwt>
<totfact> 0.13610285E+00</totfact>
</mgrwt>
</event>
<event>
 4    2  0.9269398E-007  0.1011086E+04  0.7818608E-02  0.9367195E-01
          2   -1    0    0  501    0  0.00000000000E+00  0.00000000000E+00  0.29107800806E+04  0.29107800806E+04  0.25500000000E-02 0. -1.
         -2   -1    0    0    0  501 -0.00000000000E+00 -0.00000000000E+00 -0.87432865052E+03  0.87432865052E+03  0.25500000000E-02 0.  1.
    8880023    1    1    2    0    0  0.10994134753E+02  0.76704918037E+03  0.26205680707E+04  0.28088560902E+04  0.65864270000E+03 0.  0.
    8880022    1    1    2    0    0 -0.10994134753E+02 -0.76704918037E+03 -0.58411664060E+03  0.97625264094E+03  0.15294330000E+03 0.  0.
<mgrwt>
<rscale>  0 0.94825291E+03</rscale>
<asrwt>0</asrwt>
<pdfrwt beam="1">  1        2 0.44781233E+00 0.10110863E+04</pdfrwt>
<pdfrwt beam="2">  1       -2 0.13451210E+00 0.10110863E+04</pdfrwt>
<totfact> 0.79822999E-01</totfact>
</mgrwt>
</event>
<event>
 4    2  0.9070994E-007  0.1053850E+04  0.7818608E-02  0.9314268E-01
         -2   -1    0    0    0  501 -0.00000000000E+00  0.00000000000E+00  0.64850301807E+03  0.64850301808E+03  0.25500000000E-02 0.  1.
          2   -1    0    0  501    0  0.00000000000E+00 -0.00000000000E+00 -0.22050284973E+04  0.22050284973E+04  0.25500000000E-02 0. -1.
    8880023    1    1    2    0    0 -0.47605215606E+03 -0.67094222651E+03 -0.17043089856E+04  0.20038134772E+04  0.65864270000E+03 0. -1.
    8880022    1    1    2    0    0  0.47605215606E+03  0.67094222651E+03  0.14778350642E+03  0.84971803817E+03  0.15294330000E+03 0.  0.
<mgrwt>
<rscale>  0 0.99479891E+03</rscale>
<asrwt>0</asrwt>
<pdfrwt beam="1">  1        2 0.33923515E+00 0.10538498E+04</pdfrwt>
<pdfrwt beam="2">  1       -2 0.99769696E-01 0.10538498E+04</pdfrwt>
<totfact> 0.42469166E+00</totfact>
</mgrwt>
</event>
<event>
 4    2  0.9070994E-007  0.6612430E+03  0.7818608E-02  0.1022918E+00
          2   -1    0    0  501    0  0.00000000000E+00  0.00000000000E+00  0.12968731859E+04  0.12968731859E+04  0.25500000000E-02 0. -1.
         -2   -1    0    0    0  501 -0.00000000000E+00 -0.00000000000E+00 -0.22694505487E+03  0.22694505488E+03  0.25500000000E-02 0.  1.
    8880023    1    1    2    0    0  0.25525225703E+01 -0.58528922197E+02  0.11612364644E+04  0.13363055349E+04  0.65864270000E+03 0. -1.
    8880022    1    1    2    0    0 -0.25525225703E+01  0.58528922197E+02 -0.91308333369E+02  0.18751270587E+03  0.15294330000E+03 0.  0.
<mgrwt>
<rscale>  0 0.46648306E+03</rscale>
<asrwt>0</asrwt>
<pdfrwt beam="1">  1        2 0.19951895E+00 0.66124304E+03</pdfrwt>
<pdfrwt beam="2">  1       -2 0.34914623E-01 0.66124304E+03</pdfrwt>
<totfact> 0.13059531E+02</totfact>
</mgrwt>
</event>
<event>
 4    2  0.9070994E-007  0.7276898E+03  0.7818608E-02  0.9897376E-01
          2   -1    0    0  501    0  0.00000000000E+00  0.00000000000E+00  0.36738372304E+04  0.36738372304E+04  0.25500000000E-02 0. -1.
         -2   -1    0    0    0  501 -0.00000000000E+00 -0.00000000000E+00 -0.19108417362E+03  0.19108417364E+03  0.25500000000E-02 0.  1.
    8880023    1    1    2    0    0  0.29813807062E+03  0.82679259933E+02  0.34412018393E+04  0.35173004527E+04  0.65864270000E+03 0. -1.
    8880022    1    1    2    0    0 -0.29813807062E+03 -0.82679259933E+02  0.41551217514E+02  0.34762095142E+03  0.15294330000E+03 0.  0.
<mgrwt>
<rscale>  0 0.60388600E+03</rscale>
<asrwt>0</asrwt>
<pdfrwt beam="1">  1        2 0.56520572E+00 0.72768975E+03</pdfrwt>
<pdfrwt beam="2">  1       -2 0.29397566E-01 0.72768975E+03</pdfrwt>
<totfact> 0.71027132E+00</totfact>
</mgrwt>
</event>
<event>
 4    2  0.9070994E-007  0.7249507E+03  0.7818608E-02  0.9906177E-01
         -2   -1    0    0    0  501 -0.00000000000E+00  0.00000000000E+00  0.54991247494E+03  0.54991247495E+03  0.25500000000E-02 0.  1.
          2   -1    0    0  501    0  0.00000000000E+00 -0.00000000000E+00 -0.63178198485E+03  0.63178198485E+03  0.25500000000E-02 0. -1.
    8880023    1    1    2    0    0  0.44163323751E+02 -0.29965458028E+03 -0.29314788530E+03  0.78197772063E+03  0.65864270000E+03 0.  0.
    8880022    1    1    2    0    0 -0.44163323751E+02  0.29965458028E+03  0.21127837540E+03  0.39971673917E+03  0.15294330000E+03 0.  0.
<mgrwt>
<rscale>  0 0.59962844E+03</rscale>
<asrwt>0</asrwt>
<pdfrwt beam="1">  1        2 0.97197229E-01 0.72495067E+03</pdfrwt>
<pdfrwt beam="2">  1       -2 0.84601919E-01 0.72495067E+03</pdfrwt>
<totfact> 0.57515528E+01</totfact>
</mgrwt>
</event>
<event>
 4    2  0.9070994E-007  0.7413200E+03  0.7818608E-02  0.9856119E-01
         -2   -1    0    0    0  501 -0.00000000000E+00  0.00000000000E+00  0.42324622908E+03  0.42324622909E+03  0.25500000000E-02 0.  1.
          2   -1    0    0  501    0  0.00000000000E+00 -0.00000000000E+00 -0.23275777090E+04  0.23275777090E+04  0.25500000000E-02 0. -1.
    8880023    1    1    2    0    0  0.31161629860E+03 -0.13652988790E+03 -0.21698319729E+04  0.22929732063E+04  0.65864270000E+03 0.  0.
    8880022    1    1    2    0    0 -0.31161629860E+03  0.13652988790E+03  0.26550049296E+03  0.45785073182E+03  0.15294330000E+03 0.  0.
<mgrwt>
<rscale>  0 0.62435922E+03</rscale>
<asrwt>0</asrwt>
<pdfrwt beam="1">  1        2 0.35808887E+00 0.74131999E+03</pdfrwt>
<pdfrwt beam="2">  1       -2 0.65114806E-01 0.74131999E+03</pdfrwt>
<totfact> 0.99409738E+00</totfact>
</mgrwt>
</event>
<event>
 4    2  0.9070994E-007  0.7716336E+03  0.7818608E-02  0.9775870E-01
          2   -1    0    0  501    0  0.00000000000E+00  0.00000000000E+00  0.11192666242E+04  0.11192666242E+04  0.25500000000E-02 0. -1.
         -2   -1    0    0    0  501 -0.00000000000E+00 -0.00000000000E+00 -0.56810757157E+03  0.56810757158E+03  0.25500000000E-02 0.  1.
    8880023    1    1    2    0    0  0.36889839778E+03  0.15975648688E+03  0.86183034358E+03  0.11567929419E+04  0.65864270000E+03 0. -1.
    8880022    1    1    2    0    0 -0.36889839778E+03 -0.15975648688E+03 -0.31067129094E+03  0.53058125392E+03  0.15294330000E+03 0.  0.
<mgrwt>
<rscale>  0 0.66673729E+03</rscale>
<asrwt>0</asrwt>
<pdfrwt beam="1">  1        2 0.17219486E+00 0.77163357E+03</pdfrwt>
<pdfrwt beam="2">  1       -2 0.87401166E-01 0.77163357E+03</pdfrwt>
<totfact> 0.24338731E+01</totfact>
</mgrwt>
</event>
<event>
 4    2  0.9070994E-007  0.7217041E+03  0.7818608E-02  0.9916862E-01
          2   -1    0    0  501    0  0.00000000000E+00  0.00000000000E+00  0.73374637520E+03  0.73374637520E+03  0.25500000000E-02 0. -1.
         -2   -1    0    0    0  501 -0.00000000000E+00 -0.00000000000E+00 -0.52627005942E+03  0.52627005943E+03  0.25500000000E-02 0.  1.
    8880023    1    1    2    0    0  0.20206341069E+03  0.21498124508E+03 -0.18569765337E+03  0.74521163599E+03  0.65864270000E+03 0.  1.
    8880022    1    1    2    0    0 -0.20206341069E+03 -0.21498124508E+03  0.39317396915E+03  0.51480479865E+03  0.15294330000E+03 0.  0.
<mgrwt>
<rscale>  0 0.59451017E+03</rscale>
<asrwt>0</asrwt>
<pdfrwt beam="1">  1        2 0.11288406E+00 0.72170407E+03</pdfrwt>
<pdfrwt beam="2">  1       -2 0.80964625E-01 0.72170407E+03</pdfrwt>
<totfact> 0.52700443E+01</totfact>
</mgrwt>
</event>
<event>
 4    2  0.9070994E-007  0.8094838E+03  0.7818608E-02  0.9690653E-01
          2   -1    0    0  501    0  0.00000000000E+00  0.00000000000E+00  0.23939733714E+04  0.23939733714E+04  0.25500000000E-02 0. -1.
         -2   -1    0    0    0  501 -0.00000000000E+00 -0.00000000000E+00 -0.48481543676E+03  0.48481543676E+03  0.25500000000E-02 0.  1.
    8880023    1    1    2    0    0  0.14008809419E+03 -0.44925403510E+03  0.21723928046E+04  0.23183085571E+04  0.65864270000E+03 0. -1.
    8880022    1    1    2    0    0 -0.14008809419E+03  0.44925403510E+03 -0.26323486988E+03  0.56048025114E+03  0.15294330000E+03 0.  0.
<mgrwt>
<rscale>  0 0.71576038E+03</rscale>
<asrwt>0</asrwt>
<pdfrwt beam="1">  1        2 0.36830361E+00 0.80948383E+03</pdfrwt>
<pdfrwt beam="2">  1       -2 0.74586988E-01 0.80948383E+03</pdfrwt>
<totfact> 0.67120637E+00</totfact>
</mgrwt>
</event>
<event>
 4    2  0.9070994E-007  0.6774456E+03  0.7818608E-02  0.1010807E+00
          2   -1    0    0  501    0  0.00000000000E+00  0.00000000000E+00  0.22509952102E+04  0.22509952102E+04  0.25500000000E-02 0. -1.
         -2   -1    0    0    0  501 -0.00000000000E+00 -0.00000000000E+00 -0.15791968240E+03  0.15791968242E+03  0.25500000000E-02 0.  1.
    8880023    1    1    2    0    0 -0.57540372572E+02  0.14768692582E+03  0.20808147730E+04  0.21883150249E+04  0.65864270000E+03 0. -1.
    8880022    1    1    2    0    0  0.57540372572E+02 -0.14768692582E+03  0.12260754879E+02  0.22059986777E+03  0.15294330000E+03 0.  0.
<mgrwt>
<rscale>  0 0.51155128E+03</rscale>
<asrwt>0</asrwt>
<pdfrwt beam="1">  1        2 0.34630696E+00 0.67744559E+03</pdfrwt>
<pdfrwt beam="2">  1       -2 0.24295335E-01 0.67744559E+03</pdfrwt>
<totfact> 0.76030694E+01</totfact>
</mgrwt>
</event>
<event>
 4    2  0.9070994E-007  0.7878766E+03  0.7818608E-02  0.9737650E-01
         -2   -1    0    0    0  501 -0.00000000000E+00  0.00000000000E+00  0.90349571405E+03  0.90349571405E+03  0.25500000000E-02 0.  1.
          2   -1    0    0  501    0  0.00000000000E+00 -0.00000000000E+00 -0.12689036135E+04  0.12689036135E+04  0.25500000000E-02 0. -1.
    8880023    1    1    2    0    0  0.20716912972E+03  0.37950005829E+03 -0.10717757583E+04  0.13302078127E+04  0.65864270000E+03 0.  0.
    8880022    1    1    2    0    0 -0.20716912972E+03 -0.37950005829E+03  0.70636785890E+03  0.84219151483E+03  0.15294330000E+03 0.  0.
<mgrwt>
<rscale>  0 0.68818716E+03</rscale>
<asrwt>0</asrwt>
<pdfrwt beam="1">  1        2 0.19521594E+00 0.78787661E+03</pdfrwt>
<pdfrwt beam="2">  1       -2 0.13899934E+00 0.78787661E+03</pdfrwt>
<totfact> 0.64125855E+00</totfact>
</mgrwt>
</event>
<event>
 4    2  0.9070994E-007  0.7597269E+03  0.7818608E-02  0.9805815E-01
          2   -1    0    0  501    0  0.00000000000E+00  0.00000000000E+00  0.19293189423E+04  0.19293189423E+04  0.25500000000E-02 0. -1.
         -2   -1    0    0    0  501 -0.00000000000E+00 -0.00000000000E+00 -0.28836297790E+03  0.28836297791E+03  0.25500000000E-02 0.  1.
    8880023    1    1    2    0    0 -0.35158055619E+03  0.14059136606E+03  0.16420770955E+04  0.18093098721E+04  0.65864270000E+03 0. -1.
    8880022    1    1    2    0    0  0.35158055619E+03 -0.14059136606E+03 -0.11211310564E+01  0.40837204808E+03  0.15294330000E+03 0.  0.
<mgrwt>
<rscale>  0 0.65051414E+03</rscale>
<asrwt>0</asrwt>
<pdfrwt beam="1">  1        2 0.29681829E+00 0.75972694E+03</pdfrwt>
<pdfrwt beam="2">  1       -2 0.44363536E-01 0.75972694E+03</pdfrwt>
<totfact> 0.36266932E+01</totfact>
</mgrwt>
</event>
<event>
 4    2  0.9070994E-007  0.7409930E+03  0.7818608E-02  0.9857064E-01
          2   -1    0    0  501    0  0.00000000000E+00  0.00000000000E+00  0.21412749909E+04  0.21412749909E+04  0.25500000000E-02 0. -1.
         -2   -1    0    0    0  501 -0.00000000000E+00 -0.00000000000E+00 -0.54653114647E+03  0.54653114648E+03  0.25500000000E-02 0.  1.
    8880023    1    1    2    0    0  0.23334693955E+03  0.24659619444E+03  0.20027466830E+04  0.21354308604E+04  0.65864270000E+03 0. -1.
    8880022    1    1    2    0    0 -0.23334693955E+03 -0.24659619444E+03 -0.40800283854E+03  0.55237527694E+03  0.15294330000E+03 0.  0.
<mgrwt>
<rscale>  0 0.62388050E+03</rscale>
<asrwt>0</asrwt>
<pdfrwt beam="1">  1        2 0.32942692E+00 0.74099304E+03</pdfrwt>
<pdfrwt beam="2">  1       -2 0.84081715E-01 0.74099304E+03</pdfrwt>
<totfact> 0.71621245E+00</totfact>
</mgrwt>
</event>
<event>
 4    2  0.9070994E-007  0.6833763E+03  0.7818608E-02  0.1007475E+00
          2   -1    0    0  501    0  0.00000000000E+00  0.00000000000E+00  0.19696683015E+04  0.19696683015E+04  0.25500000000E-02 0. -1.
         -2   -1    0    0    0  501 -0.00000000000E+00 -0.00000000000E+00 -0.16756811395E+03  0.16756811397E+03  0.25500000000E-02 0.  1.
    8880023    1    1    2    0    0  0.21093754476E+02 -0.18096429011E+03  0.17698295861E+04  0.18971821185E+04  0.65864270000E+03 0. -1.
    8880022    1    1    2    0    0 -0.21093754476E+02  0.18096429011E+03  0.32270601519E+02  0.24005429700E+03  0.15294330000E+03 0.  0.
<mgrwt>
<rscale>  0 0.52490693E+03</rscale>
<asrwt>0</asrwt>
<pdfrwt beam="1">  1        2 0.30302588E+00 0.68337634E+03</pdfrwt>
<pdfrwt beam="2">  1       -2 0.25779711E-01 0.68337634E+03</pdfrwt>
<totfact> 0.97302279E+01</totfact>
</mgrwt>
</event>
<event>
 4    2  0.9070994E-007  0.9255778E+03  0.7818608E-02  0.9486159E-01
          2   -1    0    0  501    0  0.00000000000E+00  0.00000000000E+00  0.67823471257E+03  0.67823471257E+03  0.25500000000E-02 0. -1.
         -2   -1    0    0    0  501 -0.00000000000E+00 -0.00000000000E+00 -0.10947836655E+04  0.10947836655E+04  0.25500000000E-02 0.  1.
    8880023    1    1    2    0    0 -0.14624748685E+03 -0.63363696387E+03 -0.57076146968E+03  0.10874111416E+04  0.65864270000E+03 0.  0.
    8880022    1    1    2    0    0  0.14624748685E+03  0.63363696387E+03  0.15421251671E+03  0.68560723648E+03  0.15294330000E+03 0.  0.
<mgrwt>
<rscale>  0 0.85312000E+03</rscale>
<asrwt>0</asrwt>
<pdfrwt beam="1">  1        2 0.10434380E+00 0.92557784E+03</pdfrwt>
<pdfrwt beam="2">  1       -2 0.16842826E+00 0.92557784E+03</pdfrwt>
<totfact> 0.93168642E+00</totfact>
</mgrwt>
</event>
<event>
 4    2  0.9070994E-007  0.1298349E+04  0.7818608E-02  0.9066987E-01
          2   -1    0    0  501    0  0.00000000000E+00  0.00000000000E+00  0.13139971391E+04  0.13139971391E+04  0.25500000000E-02 0. -1.
         -2   -1    0    0    0  501 -0.00000000000E+00 -0.00000000000E+00 -0.13359185566E+04  0.13359185566E+04  0.25500000000E-02 0.  1.
    8880023    1    1    2    0    0  0.80719827097E+03 -0.77480945968E+03  0.51840811713E+03  0.13980185727E+04  0.65864270000E+03 0.  0.
    8880022    1    1    2    0    0 -0.80719827097E+03  0.77480945968E+03 -0.54032953469E+03  0.12518971230E+04  0.15294330000E+03 0.  0.
<mgrwt>
<rscale>  0 0.12538472E+04</rscale>
<asrwt>0</asrwt>
<pdfrwt beam="1">  1        2 0.20215341E+00 0.12983485E+04</pdfrwt>
<pdfrwt beam="2">  1       -2 0.20552593E+00 0.12983485E+04</pdfrwt>
<totfact> 0.19083325E+00</totfact>
</mgrwt>
</event>
<event>
 4    2  0.9070994E-007  0.9257482E+03  0.7818608E-02  0.9485901E-01
          2   -1    0    0  501    0  0.00000000000E+00  0.00000000000E+00  0.70887453014E+03  0.70887453015E+03  0.25500000000E-02 0. -1.
         -2   -1    0    0    0  501 -0.00000000000E+00 -0.00000000000E+00 -0.10796344683E+04  0.10796344683E+04  0.25500000000E-02 0.  1.
    8880023    1    1    2    0    0 -0.31480386709E+03  0.56929607674E+03  0.15445313546E+03  0.93854433835E+03  0.65864270000E+03 0.  0.
    8880022    1    1    2    0    0  0.31480386709E+03 -0.56929607674E+03 -0.52521307362E+03  0.84996466012E+03  0.15294330000E+03 0.  0.
<mgrwt>
<rscale>  0 0.85331311E+03</rscale>
<asrwt>0</asrwt>
<pdfrwt beam="1">  1        2 0.10905762E+00 0.92574819E+03</pdfrwt>
<pdfrwt beam="2">  1       -2 0.16609761E+00 0.92574819E+03</pdfrwt>
<totfact> 0.91555015E+00</totfact>
</mgrwt>
</event>
<event>
 4    2  0.9070994E-007  0.7646148E+03  0.7818608E-02  0.9793303E-01
          2   -1    0    0  501    0  0.00000000000E+00  0.00000000000E+00  0.99413894174E+03  0.99413894174E+03  0.25500000000E-02 0. -1.
         -2   -1    0    0    0  501 -0.00000000000E+00 -0.00000000000E+00 -0.49060793631E+03  0.49060793632E+03  0.25500000000E-02 0.  1.
    8880023    1    1    2    0    0  0.34477287479E+03 -0.17876601183E+03  0.68783739310E+03  0.10284727064E+04  0.65864270000E+03 0. -1.
    8880022    1    1    2    0    0 -0.34477287479E+03  0.17876601183E+03 -0.18430638768E+03  0.45627417167E+03  0.15294330000E+03 0.  0.
<mgrwt>
<rscale>  0 0.65723160E+03</rscale>
<asrwt>0</asrwt>
<pdfrwt beam="1">  1        2 0.15294445E+00 0.76461482E+03</pdfrwt>
<pdfrwt beam="2">  1       -2 0.75478145E-01 0.76461482E+03</pdfrwt>
<totfact> 0.40579947E+01</totfact>
</mgrwt>
</event>
<event>
 4    2  0.9070994E-007  0.6800295E+03  0.7818608E-02  0.1009307E+00
         -2   -1    0    0    0  501 -0.00000000000E+00  0.00000000000E+00  0.61418607656E+03  0.61418607657E+03  0.25500000000E-02 0.  1.
          2   -1    0    0  501    0  0.00000000000E+00 -0.00000000000E+00 -0.42966142756E+03  0.42966142757E+03  0.25500000000E-02 0. -1.
    8880023    1    1    2    0    0 -0.11092077405E+03  0.12777502571E+03 -0.91083953332E+02  0.68610230150E+03  0.65864270000E+03 0.  0.
    8880022    1    1    2    0    0  0.11092077405E+03 -0.12777502571E+03  0.27560860234E+03  0.35774520263E+03  0.15294330000E+03 0.  0.
<mgrwt>
<rscale>  0 0.51750993E+03</rscale>
<asrwt>0</asrwt>
<pdfrwt beam="1">  1        2 0.66101758E-01 0.68002947E+03</pdfrwt>
<pdfrwt beam="2">  1       -2 0.94490165E-01 0.68002947E+03</pdfrwt>
<totfact> 0.70257192E+01</totfact>
</mgrwt>
</event>
<event>
 4    2  0.1758975E-006  0.9065161E+03  0.7818608E-02  0.9515651E-01
          2   -1    0    0  501    0  0.00000000000E+00  0.00000000000E+00  0.16062459594E+04  0.16062459594E+04  0.25500000000E-02 0. -1.
         -2   -1    0    0    0  501 -0.00000000000E+00 -0.00000000000E+00 -0.16632572838E+04  0.16632572838E+04  0.25500000000E-02 0.  1.
    8880023    1    1    2    0    0  0.27633119732E+03 -0.55821347083E+03  0.14055319551E+04  0.16725105359E+04  0.65864270000E+03 0. -1.
    8880022    1    1    2    0    0 -0.27633119732E+03  0.55821347083E+03 -0.14625432796E+04  0.15969927073E+04  0.15294330000E+03 0.  0.
<mgrwt>
<rscale>  0 0.83139700E+03</rscale>
<asrwt>0</asrwt>
<pdfrwt beam="1">  1        2 0.24711476E+00 0.90651609E+03</pdfrwt>
<pdfrwt beam="2">  1       -2 0.25588573E+00 0.90651609E+03</pdfrwt>
<totfact> 0.66402854E-01</totfact>
</mgrwt>
</event>
<event>
 4    2  0.9070994E-007  0.8461595E+03  0.7818608E-02  0.9618674E-01
          2   -1    0    0  501    0  0.00000000000E+00  0.00000000000E+00  0.10697276303E+04  0.10697276303E+04  0.25500000000E-02 0. -1.
         -2   -1    0    0    0  501 -0.00000000000E+00 -0.00000000000E+00 -0.55759327754E+03  0.55759327755E+03  0.25500000000E-02 0.  1.
    8880023    1    1    2    0    0 -0.51946229000E+03  0.11106099769E+03  0.63880011482E+03  0.10602129073E+04  0.65864270000E+03 0.  0.
    8880022    1    1    2    0    0  0.51946229000E+03 -0.11106099769E+03 -0.12666576207E+03  0.56710800050E+03  0.15294330000E+03 0.  0.
<mgrwt>
<rscale>  0 0.76072469E+03</rscale>
<asrwt>0</asrwt>
<pdfrwt beam="1">  1        2 0.16457348E+00 0.84615945E+03</pdfrwt>
<pdfrwt beam="2">  1       -2 0.85783581E-01 0.84615945E+03</pdfrwt>
<totfact> 0.27053949E+01</totfact>
</mgrwt>
</event>
<event>
 4    2  0.9070994E-007  0.8195033E+03  0.7818608E-02  0.9670112E-01
          2   -1    0    0  501    0  0.00000000000E+00  0.00000000000E+00  0.40012267296E+03  0.40012267297E+03  0.25500000000E-02 0. -1.
         -2   -1    0    0    0  501 -0.00000000000E+00 -0.00000000000E+00 -0.17992544732E+04  0.17992544732E+04  0.25500000000E-02 0.  1.
    8880023    1    1    2    0    0  0.41128757714E+03  0.26195034204E+03 -0.12810080928E+03  0.82945492729E+03  0.65864270000E+03 0. -1.
    8880022    1    1    2    0    0 -0.41128757714E+03 -0.26195034204E+03 -0.12710309910E+04  0.13699222189E+04  0.15294330000E+03 0.  0.
<mgrwt>
<rscale>  0 0.72824555E+03</rscale>
<asrwt>0</asrwt>
<pdfrwt beam="1">  1        2 0.61557335E-01 0.81950330E+03</pdfrwt>
<pdfrwt beam="2">  1       -2 0.27680838E+00 0.81950330E+03</pdfrwt>
<totfact> 0.35901755E+00</totfact>
</mgrwt>
</event>
<event>
 4    2  0.9070994E-007  0.1169928E+04  0.7818608E-02  0.9186923E-01
         -2   -1    0    0    0  501 -0.00000000000E+00  0.00000000000E+00  0.51822056299E+03  0.51822056299E+03  0.25500000000E-02 0.  1.
          2   -1    0    0  501    0  0.00000000000E+00 -0.00000000000E+00 -0.31092029843E+04  0.31092029843E+04  0.25500000000E-02 0. -1.
    8880023    1    1    2    0    0 -0.85487600720E+03 -0.45178408914E+03 -0.23410198201E+04  0.26170796425E+04  0.65864270000E+03 0.  0.
    8880022    1    1    2    0    0  0.85487600720E+03  0.45178408914E+03 -0.24996260120E+03  0.10103439048E+04  0.15294330000E+03 0.  0.
<mgrwt>
<rscale>  0 0.11189427E+04</rscale>
<asrwt>0</asrwt>
<pdfrwt beam="1">  1        2 0.47833891E+00 0.11699282E+04</pdfrwt>
<pdfrwt beam="2">  1       -2 0.79726242E-01 0.11699282E+04</pdfrwt>
<totfact> 0.20667880E+00</totfact>
</mgrwt>
</event>
<event>
 4    2  0.9070994E-007  0.8511612E+03  0.7818608E-02  0.9609484E-01
         -2   -1    0    0    0  501 -0.00000000000E+00  0.00000000000E+00  0.17651066522E+04  0.17651066522E+04  0.25500000000E-02 0.  1.
          2   -1    0    0  501    0  0.00000000000E+00 -0.00000000000E+00 -0.28499191658E+03  0.28499191659E+03  0.25500000000E-02 0. -1.
    8880023    1    1    2    0    0  0.36767305127E+02 -0.53787849566E+03  0.79189060222E+03  0.11625687261E+04  0.65864270000E+03 0. -1.
    8880022    1    1    2    0    0 -0.36767305127E+02  0.53787849566E+03  0.68822413341E+03  0.88752984268E+03  0.15294330000E+03 0.  1.
<mgrwt>
<rscale>  0 0.76671660E+03</rscale>
<asrwt>0</asrwt>
<pdfrwt beam="1">  1        2 0.43844910E-01 0.85116116E+03</pdfrwt>
<pdfrwt beam="2">  1       -2 0.27155487E+00 0.85116116E+03</pdfrwt>
<totfact> 0.56250843E+00</totfact>
</mgrwt>
</event>
<event>
 4    2  0.9070994E-007  0.7642455E+03  0.7818608E-02  0.9794238E-01
          2   -1    0    0  501    0  0.00000000000E+00  0.00000000000E+00  0.17552651407E+04  0.17552651407E+04  0.25500000000E-02 0. -1.
         -2   -1    0    0    0  501 -0.00000000000E+00 -0.00000000000E+00 -0.20392071483E+03  0.20392071484E+03  0.25500000000E-02 0.  1.
    8880023    1    1    2    0    0  0.26792686762E+03 -0.28013586986E+03  0.11488518911E+04  0.13798303467E+04  0.65864270000E+03 0.  1.
    8880022    1    1    2    0    0 -0.26792686762E+03  0.28013586986E+03  0.40249253484E+03  0.57935550881E+03  0.15294330000E+03 0. -1.
<mgrwt>
<rscale>  0 0.65672689E+03</rscale>
<asrwt>0</asrwt>
<pdfrwt beam="1">  1        2 0.27004079E+00 0.76424546E+03</pdfrwt>
<pdfrwt beam="2">  1       -2 0.31372418E-01 0.76424546E+03</pdfrwt>
<totfact> 0.87956948E+01</totfact>
</mgrwt>
</event>
<event>
 4    2  0.9070994E-007  0.1137743E+04  0.7818608E-02  0.9220153E-01
          2   -1    0    0  501    0  0.00000000000E+00  0.00000000000E+00  0.33237983063E+04  0.33237983063E+04  0.25500000000E-02 0. -1.
         -2   -1    0    0    0  501 -0.00000000000E+00 -0.00000000000E+00 -0.40981294211E+03  0.40981294212E+03  0.25500000000E-02 0.  1.
    8880023    1    1    2    0    0 -0.73200368036E+03  0.56993033547E+03  0.24140542586E+04  0.26687296875E+04  0.65864270000E+03 0.  0.
    8880022    1    1    2    0    0  0.73200368036E+03 -0.56993033547E+03  0.49993110558E+03  0.10648815609E+04  0.15294330000E+03 0.  0.
<mgrwt>
<rscale>  0 0.10847817E+04</rscale>
<asrwt>0</asrwt>
<pdfrwt beam="1">  1        2 0.51135359E+00 0.11377435E+04</pdfrwt>
<pdfrwt beam="2">  1       -2 0.63048144E-01 0.11377435E+04</pdfrwt>
<totfact> 0.25291479E+00</totfact>
</mgrwt>
</event>
<event>
 4    2  0.9070994E-007  0.1088106E+04  0.7818608E-02  0.9274415E-01
          2   -1    0    0  501    0  0.00000000000E+00  0.00000000000E+00  0.11668835235E+04  0.11668835235E+04  0.25500000000E-02 0. -1.
         -2   -1    0    0    0  501 -0.00000000000E+00 -0.00000000000E+00 -0.14213531828E+04  0.14213531828E+04  0.25500000000E-02 0.  1.
    8880023    1    1    2    0    0 -0.67919305577E+03  0.53745827272E+03 -0.96747185590E+03  0.14560139423E+04  0.65864270000E+03 0.  0.
    8880022    1    1    2    0    0  0.67919305577E+03 -0.53745827272E+03  0.71300219659E+03  0.11322227640E+04  0.15294330000E+03 0.  0.
<mgrwt>
<rscale>  0 0.10317273E+04</rscale>
<asrwt>0</asrwt>
<pdfrwt beam="1">  1        2 0.17952054E+00 0.10881061E+04</pdfrwt>
<pdfrwt beam="2">  1       -2 0.21866972E+00 0.10881061E+04</pdfrwt>
<totfact> 0.19648810E+00</totfact>
</mgrwt>
</event>
<event>
 4    2  0.9070994E-007  0.6588303E+03  0.7818608E-02  0.1025388E+00
          2   -1    0    0  501    0  0.00000000000E+00  0.00000000000E+00  0.13497208839E+04  0.13497208839E+04  0.25500000000E-02 0. -1.
         -2   -1    0    0    0  501 -0.00000000000E+00 -0.00000000000E+00 -0.13984138465E+03  0.13984138467E+03  0.25500000000E-02 0.  1.
    8880023    1    1    2    0    0  0.39979421430E+01 -0.15202991030E+02  0.11484267111E+04  0.13239868698E+04  0.65864270000E+03 0. -1.
    8880022    1    1    2    0    0 -0.39979421430E+01  0.15202991030E+02  0.61452788147E+02  0.16557539873E+03  0.15294330000E+03 0.  0.
<mgrwt>
<rscale>  0 0.45791330E+03</rscale>
<asrwt>0</asrwt>
<pdfrwt beam="1">  1        2 0.20764937E+00 0.65883027E+03</pdfrwt>
<pdfrwt beam="2">  1       -2 0.21514059E-01 0.65883027E+03</pdfrwt>
<totfact> 0.29522823E+02</totfact>
</mgrwt>
</event>
<event>
 4    2  0.9070994E-007  0.8864617E+03  0.7818608E-02  0.9548124E-01
         -2   -1    0    0    0  501 -0.00000000000E+00  0.00000000000E+00  0.29696057173E+03  0.29696057174E+03  0.25500000000E-02 0.  1.
          2   -1    0    0  501    0  0.00000000000E+00 -0.00000000000E+00 -0.30147203297E+04  0.30147203297E+04  0.25500000000E-02 0. -1.
    8880023    1    1    2    0    0  0.12399330895E+03 -0.58019810110E+03 -0.51479190292E+03  0.10250975987E+04  0.65864270000E+03 0.  1.
    8880022    1    1    2    0    0 -0.12399330895E+03  0.58019810110E+03 -0.22029678551E+04  0.22865833028E+04  0.15294330000E+03 0.  0.
<mgrwt>
<rscale>  0 0.80826946E+03</rscale>
<asrwt>0</asrwt>
<pdfrwt beam="1">  1        2 0.46380311E+00 0.88646172E+03</pdfrwt>
<pdfrwt beam="2">  1       -2 0.45686244E-01 0.88646172E+03</pdfrwt>
<totfact> 0.80567797E+00</totfact>
</mgrwt>
</event>
<event>
 4    2  0.9070994E-007  0.8850568E+03  0.7818608E-02  0.9550459E-01
         -2   -1    0    0    0  501 -0.00000000000E+00  0.00000000000E+00  0.58169504239E+03  0.58169504239E+03  0.25500000000E-02 0.  1.
          2   -1    0    0  501    0  0.00000000000E+00 -0.00000000000E+00 -0.23411423566E+04  0.23411423566E+04  0.25500000000E-02 0. -1.
    8880023    1    1    2    0    0 -0.34041720383E+03 -0.48335446259E+03 -0.20601030090E+04  0.22421752883E+04  0.65864270000E+03 0.  0.
    8880022    1    1    2    0    0  0.34041720383E+03  0.48335446259E+03  0.30065569481E+03  0.68066211075E+03  0.15294330000E+03 0.  0.
<mgrwt>
<rscale>  0 0.80663758E+03</rscale>
<asrwt>0</asrwt>
<pdfrwt beam="1">  1        2 0.36017574E+00 0.88505684E+03</pdfrwt>
<pdfrwt beam="2">  1       -2 0.89491546E-01 0.88505684E+03</pdfrwt>
<totfact> 0.47039125E+00</totfact>
</mgrwt>
</event>
<event>
 4    2  0.9070994E-007  0.7161797E+03  0.7818608E-02  0.9935731E-01
          2   -1    0    0  501    0  0.00000000000E+00  0.00000000000E+00  0.23589600847E+04  0.23589600847E+04  0.25500000000E-02 0. -1.
         -2   -1    0    0    0  501 -0.00000000000E+00 -0.00000000000E+00 -0.27274741645E+03  0.27274741647E+03  0.25500000000E-02 0.  1.
    8880023    1    1    2    0    0 -0.24902848267E+03  0.13072111699E+03  0.21828155253E+04  0.22973021175E+04  0.65864270000E+03 0. -1.
    8880022    1    1    2    0    0  0.24902848267E+03 -0.13072111699E+03 -0.96602857012E+02  0.33440538364E+03  0.15294330000E+03 0.  0.
<mgrwt>
<rscale>  0 0.58560432E+03</rscale>
<asrwt>0</asrwt>
<pdfrwt beam="1">  1        2 0.36291693E+00 0.71617973E+03</pdfrwt>
<pdfrwt beam="2">  1       -2 0.41961142E-01 0.71617973E+03</pdfrwt>
<totfact> 0.23641683E+01</totfact>
</mgrwt>
</event>
<event>
 4    2  0.9070994E-007  0.6603257E+03  0.7818608E-02  0.1023825E+00
         -2   -1    0    0    0  501 -0.00000000000E+00  0.00000000000E+00  0.11940548065E+04  0.11940548065E+04  0.25500000000E-02 0.  1.
          2   -1    0    0  501    0  0.00000000000E+00 -0.00000000000E+00 -0.73397845568E+03  0.73397845568E+03  0.25500000000E-02 0. -1.
    8880023    1    1    2    0    0  0.17698759085E+00 -0.47115209568E+02 -0.57808006077E+03  0.87761417332E+03  0.65864270000E+03 0. -1.
    8880022    1    1    2    0    0 -0.17698759085E+00  0.47115209568E+02  0.10381564116E+04  0.10504190889E+04  0.15294330000E+03 0.  0.
<mgrwt>
<rscale>  0 0.46331153E+03</rscale>
<asrwt>0</asrwt>
<pdfrwt beam="1">  1        2 0.11291976E+00 0.66032574E+03</pdfrwt>
<pdfrwt beam="2">  1       -2 0.18370074E+00 0.66032574E+03</pdfrwt>
<totfact> 0.67984963E+00</totfact>
</mgrwt>
</event>
<event>
 4    2  0.9070994E-007  0.8508065E+03  0.7818608E-02  0.9610131E-01
         -2   -1    0    0    0  501 -0.00000000000E+00  0.00000000000E+00  0.30389453897E+03  0.30389453898E+03  0.25500000000E-02 0.  1.
          2   -1    0    0  501    0  0.00000000000E+00 -0.00000000000E+00 -0.16543173714E+04  0.16543173714E+04  0.25500000000E-02 0. -1.
    8880023    1    1    2    0    0 -0.40899769201E+03 -0.35040327034E+03 -0.91081881301E+03  0.12463798299E+04  0.65864270000E+03 0. -1.
    8880022    1    1    2    0    0  0.40899769201E+03  0.35040327034E+03 -0.43960401944E+03  0.71183208052E+03  0.15294330000E+03 0.  1.
<mgrwt>
<rscale>  0 0.76629273E+03</rscale>
<asrwt>0</asrwt>
<pdfrwt beam="1">  1        2 0.25451036E+00 0.85080654E+03</pdfrwt>
<pdfrwt beam="2">  1       -2 0.46753007E-01 0.85080654E+03</pdfrwt>
<totfact> 0.45717042E+01</totfact>
</mgrwt>
</event>
<event>
 4    2  0.9070994E-007  0.6756696E+03  0.7818608E-02  0.1011887E+00
         -2   -1    0    0    0  501 -0.00000000000E+00  0.00000000000E+00  0.38828657985E+03  0.38828657986E+03  0.25500000000E-02 0.  1.
          2   -1    0    0  501    0  0.00000000000E+00 -0.00000000000E+00 -0.11692077608E+04  0.11692077608E+04  0.25500000000E-02 0. -1.
    8880023    1    1    2    0    0 -0.93430874800E+02  0.11827889705E+03 -0.10279843247E+04  0.12301549512E+04  0.65864270000E+03 0. -1.
    8880022    1    1    2    0    0  0.93430874800E+02 -0.11827889705E+03  0.24706314378E+03  0.32733938944E+03  0.15294330000E+03 0.  0.
<mgrwt>
<rscale>  0 0.50731326E+03</rscale>
<asrwt>0</asrwt>
<pdfrwt beam="1">  1        2 0.17987812E+00 0.67566962E+03</pdfrwt>
<pdfrwt beam="2">  1       -2 0.59736397E-01 0.67566962E+03</pdfrwt>
<totfact> 0.52941597E+01</totfact>
</mgrwt>
</event>
<event>
 4    2  0.9070994E-007  0.7730923E+03  0.7818608E-02  0.9772321E-01
          2   -1    0    0  501    0  0.00000000000E+00  0.00000000000E+00  0.17026330244E+04  0.17026330244E+04  0.25500000000E-02 0. -1.
         -2   -1    0    0    0  501 -0.00000000000E+00 -0.00000000000E+00 -0.61887313871E+03  0.61887313871E+03  0.25500000000E-02 0.  1.
    8880023    1    1    2    0    0  0.15202384669E+03 -0.37516700681E+03  0.15210870520E+04  0.17062759328E+04  0.65864270000E+03 0.  0.
    8880022    1    1    2    0    0 -0.15202384669E+03  0.37516700681E+03 -0.43732716625E+03  0.61523023033E+03  0.15294330000E+03 0.  0.
<mgrwt>
<rscale>  0 0.66869361E+03</rscale>
<asrwt>0</asrwt>
<pdfrwt beam="1">  1        2 0.26194353E+00 0.77309232E+03</pdfrwt>
<pdfrwt beam="2">  1       -2 0.95211255E-01 0.77309232E+03</pdfrwt>
<totfact> 0.92921583E+00</totfact>
</mgrwt>
</event>
<event>
 4    2  0.9070994E-007  0.1235248E+04  0.7818608E-02  0.9123597E-01
         -2   -1    0    0    0  501 -0.00000000000E+00  0.00000000000E+00  0.10571050702E+04  0.10571050702E+04  0.25500000000E-02 0.  1.
          2   -1    0    0  501    0  0.00000000000E+00 -0.00000000000E+00 -0.19965386552E+04  0.19965386552E+04  0.25500000000E-02 0. -1.
    8880023    1    1    2    0    0 -0.64464956278E+03 -0.82246892092E+03 -0.14295733960E+04  0.18893169362E+04  0.65864270000E+03 0. -1.
    8880022    1    1    2    0    0  0.64464956278E+03  0.82246892092E+03  0.49013981092E+03  0.11643267892E+04  0.15294330000E+03 0.  0.
<mgrwt>
<rscale>  0 0.11878060E+04</rscale>
<asrwt>0</asrwt>
<pdfrwt beam="1">  1        2 0.30715979E+00 0.12352483E+04</pdfrwt>
<pdfrwt beam="2">  1       -2 0.16263155E+00 0.12352483E+04</pdfrwt>
<totfact> 0.15658442E+00</totfact>
</mgrwt>
</event>
<event>
 4    2  0.9070994E-007  0.1043640E+04  0.7818608E-02  0.9326567E-01
         -2   -1    0    0    0  501 -0.00000000000E+00  0.00000000000E+00  0.69051922861E+03  0.69051922861E+03  0.25500000000E-02 0.  1.
          2   -1    0    0  501    0  0.00000000000E+00 -0.00000000000E+00 -0.16374186355E+04  0.16374186356E+04  0.25500000000E-02 0. -1.
    8880023    1    1    2    0    0 -0.68669393326E+02 -0.80663376568E+03 -0.10702717398E+04  0.14948797011E+04  0.65864270000E+03 0.  0.
    8880022    1    1    2    0    0  0.68669393326E+02  0.80663376568E+03  0.12337233285E+03  0.83305816306E+03  0.15294330000E+03 0.  0.
<mgrwt>
<rscale>  0 0.98373443E+03</rscale>
<asrwt>0</asrwt>
<pdfrwt beam="1">  1        2 0.25191056E+00 0.10436397E+04</pdfrwt>
<pdfrwt beam="2">  1       -2 0.10623373E+00 0.10436397E+04</pdfrwt>
<totfact> 0.75306997E+00</totfact>
</mgrwt>
</event>
<event>
 4    2  0.9070994E-007  0.6971759E+03  0.7818608E-02  0.1000912E+00
         -2   -1    0    0    0  501 -0.00000000000E+00  0.00000000000E+00  0.39829365803E+03  0.39829365804E+03  0.25500000000E-02 0.  1.
          2   -1    0    0  501    0  0.00000000000E+00 -0.00000000000E+00 -0.13408548542E+04  0.13408548542E+04  0.25500000000E-02 0. -1.
    8880023    1    1    2    0    0 -0.53020302962E+02 -0.22233505409E+03 -0.11834567905E+04  0.13735443968E+04  0.65864270000E+03 0. -1.
    8880022    1    1    2    0    0  0.53020302962E+02  0.22233505409E+03  0.24089559435E+03  0.36560411539E+03  0.15294330000E+03 0.  0.
<mgrwt>
<rscale>  0 0.55251951E+03</rscale>
<asrwt>0</asrwt>
<pdfrwt beam="1">  1        2 0.20628536E+00 0.69717590E+03</pdfrwt>
<pdfrwt beam="2">  1       -2 0.61275948E-01 0.69717590E+03</pdfrwt>
<totfact> 0.39773086E+01</totfact>
</mgrwt>
</event>
<event>
 4    2  0.9070994E-007  0.8739760E+03  0.7818608E-02  0.9569171E-01
          2   -1    0    0  501    0  0.00000000000E+00  0.00000000000E+00  0.79218935929E+03  0.79218935930E+03  0.25500000000E-02 0. -1.
         -2   -1    0    0    0  501 -0.00000000000E+00 -0.00000000000E+00 -0.10918024992E+04  0.10918024992E+04  0.25500000000E-02 0.  1.
    8880023    1    1    2    0    0  0.49788614844E+03  0.28658881720E+03 -0.73917651241E+03  0.11446466222E+04  0.65864270000E+03 0.  0.
    8880022    1    1    2    0    0 -0.49788614844E+03 -0.28658881720E+03  0.43956337251E+03  0.73934523629E+03  0.15294330000E+03 0.  0.
<mgrwt>
<rscale>  0 0.79370716E+03</rscale>
<asrwt>0</asrwt>
<pdfrwt beam="1">  1        2 0.12187529E+00 0.87397596E+03</pdfrwt>
<pdfrwt beam="2">  1       -2 0.16796962E+00 0.87397596E+03</pdfrwt>
<totfact> 0.77202651E+00</totfact>
</mgrwt>
</event>
<event>
 4    2  0.9070994E-007  0.7896809E+03  0.7818608E-02  0.9733569E-01
          2   -1    0    0  501    0  0.00000000000E+00  0.00000000000E+00  0.61965652363E+03  0.61965652363E+03  0.25500000000E-02 0. -1.
         -2   -1    0    0    0  501 -0.00000000000E+00 -0.00000000000E+00 -0.97539236826E+03  0.97539236826E+03  0.25500000000E-02 0.  1.
    8880023    1    1    2    0    0  0.39292503036E+03 -0.18813723774E+03  0.25463426121E+03  0.82971953873E+03  0.65864270000E+03 0.  0.
    8880022    1    1    2    0    0 -0.39292503036E+03  0.18813723774E+03 -0.61037010583E+03  0.76532935316E+03  0.15294330000E+03 0.  0.
<mgrwt>
<rscale>  0 0.69052810E+03</rscale>
<asrwt>0</asrwt>
<pdfrwt beam="1">  1        2 0.95331773E-01 0.78968089E+03</pdfrwt>
<pdfrwt beam="2">  1       -2 0.15006036E+00 0.78968089E+03</pdfrwt>
<totfact> 0.14426125E+01</totfact>
</mgrwt>
</event>
<event>
 4    2  0.9070994E-007  0.7813721E+03  0.7818608E-02  0.9752624E-01
          2   -1    0    0  501    0  0.00000000000E+00  0.00000000000E+00  0.11260653902E+04  0.11260653902E+04  0.25500000000E-02 0. -1.
         -2   -1    0    0    0  501 -0.00000000000E+00 -0.00000000000E+00 -0.39986465942E+03  0.39986465943E+03  0.25500000000E-02 0.  1.
    8880023    1    1    2    0    0 -0.35629726715E+03 -0.22312419314E+03  0.74303777181E+03  0.10782613249E+04  0.65864270000E+03 0. -1.
    8880022    1    1    2    0    0  0.35629726715E+03  0.22312419314E+03 -0.16837041037E+02  0.44766872474E+03  0.15294330000E+03 0.  1.
<mgrwt>
<rscale>  0 0.67968200E+03</rscale>
<asrwt>0</asrwt>
<pdfrwt beam="1">  1        2 0.17324083E+00 0.78137210E+03</pdfrwt>
<pdfrwt beam="2">  1       -2 0.61517640E-01 0.78137210E+03</pdfrwt>
<totfact> 0.52288496E+01</totfact>
</mgrwt>
</event>
<event>
 4    2  0.9070994E-007  0.8491150E+03  0.7818608E-02  0.9613227E-01
          2   -1    0    0  501    0  0.00000000000E+00  0.00000000000E+00  0.20621706184E+04  0.20621706184E+04  0.25500000000E-02 0. -1.
         -2   -1    0    0    0  501 -0.00000000000E+00 -0.00000000000E+00 -0.47836050893E+03  0.47836050893E+03  0.25500000000E-02 0.  1.
    8880023    1    1    2    0    0 -0.36280349721E+03  0.39441049259E+03  0.17615996886E+04  0.19555637764E+04  0.65864270000E+03 0. -1.
    8880022    1    1    2    0    0  0.36280349721E+03 -0.39441049259E+03 -0.17778957913E+03  0.58496735098E+03  0.15294330000E+03 0.  0.
<mgrwt>
<rscale>  0 0.76426883E+03</rscale>
<asrwt>0</asrwt>
<pdfrwt beam="1">  1        2 0.31725702E+00 0.84911496E+03</pdfrwt>
<pdfrwt beam="2">  1       -2 0.73593925E-01 0.84911496E+03</pdfrwt>
<totfact> 0.10500799E+01</totfact>
</mgrwt>
</event>
<event>
 4    2  0.9070994E-007  0.8022330E+03  0.7818608E-02  0.9705989E-01
         -2   -1    0    0    0  501 -0.00000000000E+00  0.00000000000E+00  0.33023518862E+03  0.33023518863E+03  0.25500000000E-02 0.  1.
          2   -1    0    0  501    0  0.00000000000E+00 -0.00000000000E+00 -0.20357815855E+04  0.20357815855E+04  0.25500000000E-02 0. -1.
    8880023    1    1    2    0    0 -0.34291303407E+03  0.30360862570E+03 -0.26212581693E+03  0.84397138381E+03  0.65864270000E+03 0.  1.
    8880022    1    1    2    0    0  0.34291303407E+03 -0.30360862570E+03 -0.14434205799E+04  0.15220453903E+04  0.15294330000E+03 0.  0.
<mgrwt>
<rscale>  0 0.70661354E+03</rscale>
<asrwt>0</asrwt>
<pdfrwt beam="1">  1        2 0.31319716E+00 0.80223298E+03</pdfrwt>
<pdfrwt beam="2">  1       -2 0.50805415E-01 0.80223298E+03</pdfrwt>
<totfact> 0.24006351E+01</totfact>
</mgrwt>
</event>
<event>
 4    2  0.9070994E-007  0.6598492E+03  0.7818608E-02  0.1024311E+00
          2   -1    0    0  501    0  0.00000000000E+00  0.00000000000E+00  0.26449572685E+03  0.26449572686E+03  0.25500000000E-02 0. -1.
         -2   -1    0    0    0  501 -0.00000000000E+00 -0.00000000000E+00 -0.63428968929E+03  0.63428968930E+03  0.25500000000E-02 0.  1.
    8880023    1    1    2    0    0 -0.10784813763E+01  0.39870451923E+02 -0.31782394917E+03  0.73240226992E+03  0.65864270000E+03 0.  0.
    8880022    1    1    2    0    0  0.10784813763E+01 -0.39870451923E+02 -0.51970013271E+02  0.16638314624E+03  0.15294330000E+03 0.  0.
<mgrwt>
<rscale>  0 0.46162356E+03</rscale>
<asrwt>0</asrwt>
<pdfrwt beam="1">  1        2 0.40691650E-01 0.65984924E+03</pdfrwt>
<pdfrwt beam="2">  1       -2 0.97583029E-01 0.65984924E+03</pdfrwt>
<totfact> 0.11203785E+02</totfact>
</mgrwt>
</event>
<event>
 4    2  0.9070994E-007  0.6750145E+03  0.7818608E-02  0.1012297E+00
          2   -1    0    0  501    0  0.00000000000E+00  0.00000000000E+00  0.18147112697E+04  0.18147112697E+04  0.25500000000E-02 0. -1.
         -2   -1    0    0    0  501 -0.00000000000E+00 -0.00000000000E+00 -0.22108530220E+03  0.22108530221E+03  0.25500000000E-02 0.  1.
    8880023    1    1    2    0    0  0.32847161135E+01 -0.14772796328E+03  0.16767055186E+04  0.18074805512E+04  0.65864270000E+03 0. -1.
    8880022    1    1    2    0    0 -0.32847161135E+01  0.14772796328E+03 -0.83079551110E+02  0.22831602073E+03  0.15294330000E+03 0.  0.
<mgrwt>
<rscale>  0 0.50571791E+03</rscale>
<asrwt>0</asrwt>
<pdfrwt beam="1">  1        2 0.27918634E+00 0.67501448E+03</pdfrwt>
<pdfrwt beam="2">  1       -2 0.34013124E-01 0.67501448E+03</pdfrwt>
<totfact> 0.70806745E+01</totfact>
</mgrwt>
</event>
<event>
 4    2  0.9070994E-007  0.1075814E+04  0.7818608E-02  0.9288475E-01
         -2   -1    0    0    0  501 -0.00000000000E+00  0.00000000000E+00  0.42597089166E+03  0.42597089167E+03  0.25500000000E-02 0.  1.
          2   -1    0    0  501    0  0.00000000000E+00 -0.00000000000E+00 -0.43386587432E+04  0.43386587432E+04  0.25500000000E-02 0. -1.
    8880023    1    1    2    0    0  0.64476482486E+03 -0.55483624142E+03 -0.37289656988E+04  0.38810514456E+04  0.65864270000E+03 0. -1.
    8880022    1    1    2    0    0 -0.64476482486E+03  0.55483624142E+03 -0.18372215275E+03  0.88357818930E+03  0.15294330000E+03 0.  0.
<mgrwt>
<rscale>  0 0.10185087E+04</rscale>
<asrwt>0</asrwt>
<pdfrwt beam="1">  1        2 0.66748593E+00 0.10758137E+04</pdfrwt>
<pdfrwt beam="2">  1       -2 0.65533987E-01 0.10758137E+04</pdfrwt>
<totfact> 0.39490104E-01</totfact>
</mgrwt>
</event>
<event>
 4    2  0.9070994E-007  0.7881110E+03  0.7818608E-02  0.9737118E-01
         -2   -1    0    0    0  501 -0.00000000000E+00  0.00000000000E+00  0.44567103326E+03  0.44567103327E+03  0.25500000000E-02 0.  1.
          2   -1    0    0  501    0  0.00000000000E+00 -0.00000000000E+00 -0.20682892761E+04  0.20682892761E+04  0.25500000000E-02 0. -1.
    8880023    1    1    2    0    0  0.42851704128E+03 -0.60678628270E+02 -0.18432507008E+04  0.20046675791E+04  0.65864270000E+03 0.  0.
    8880022    1    1    2    0    0 -0.42851704128E+03  0.60678628270E+02  0.22063245792E+03  0.50929273027E+03  0.15294330000E+03 0.  0.
<mgrwt>
<rscale>  0 0.68849171E+03</rscale>
<asrwt>0</asrwt>
<pdfrwt beam="1">  1        2 0.31819834E+00 0.78811101E+03</pdfrwt>
<pdfrwt beam="2">  1       -2 0.68564775E-01 0.78811101E+03</pdfrwt>
<totfact> 0.12272813E+01</totfact>
</mgrwt>
</event>
<event>
 4    2  0.9070994E-007  0.7695216E+03  0.7818608E-02  0.9781053E-01
          2   -1    0    0  501    0  0.00000000000E+00  0.00000000000E+00  0.25009920040E+04  0.25009920040E+04  0.25500000000E-02 0. -1.
         -2   -1    0    0    0  501 -0.00000000000E+00 -0.00000000000E+00 -0.23524309394E+03  0.23524309396E+03  0.25500000000E-02 0.  1.
    8880023    1    1    2    0    0  0.35542533859E+03 -0.17895863083E+03  0.21656794615E+04  0.22983322430E+04  0.65864270000E+03 0. -1.
    8880022    1    1    2    0    0 -0.35542533859E+03  0.17895863083E+03  0.10006944857E+03  0.43790285499E+03  0.15294330000E+03 0.  0.
<mgrwt>
<rscale>  0 0.66389354E+03</rscale>
<asrwt>0</asrwt>
<pdfrwt beam="1">  1        2 0.38476799E+00 0.76952165E+03</pdfrwt>
<pdfrwt beam="2">  1       -2 0.36191246E-01 0.76952165E+03</pdfrwt>
<totfact> 0.26006644E+01</totfact>
</mgrwt>
</event>
<event>
 4    2  0.9070994E-007  0.7291717E+03  0.7818608E-02  0.9892692E-01
          2   -1    0    0  501    0  0.00000000000E+00  0.00000000000E+00  0.48349636555E+03  0.48349636556E+03  0.25500000000E-02 0. -1.
         -2   -1    0    0    0  501 -0.00000000000E+00 -0.00000000000E+00 -0.70354695435E+03  0.70354695436E+03  0.25500000000E-02 0.  1.
    8880023    1    1    2    0    0 -0.29215835764E+03 -0.11191338191E+03  0.71770293935E+02  0.73269522473E+03  0.65864270000E+03 0.  0.
    8880022    1    1    2    0    0  0.29215835764E+03  0.11191338191E+03 -0.29182088274E+03  0.45434809519E+03  0.15294330000E+03 0.  0.
<mgrwt>
<rscale>  0 0.60616764E+03</rscale>
<asrwt>0</asrwt>
<pdfrwt beam="1">  1        2 0.74384056E-01 0.72917167E+03</pdfrwt>
<pdfrwt beam="2">  1       -2 0.10823799E+00 0.72917167E+03</pdfrwt>
<totfact> 0.44323426E+01</totfact>
</mgrwt>
</event>
<event>
 4    2  0.9070994E-007  0.7217095E+03  0.7818608E-02  0.9916843E-01
         -2   -1    0    0    0  501 -0.00000000000E+00  0.00000000000E+00  0.25305016195E+03  0.25305016196E+03  0.25500000000E-02 0.  1.
          2   -1    0    0  501    0  0.00000000000E+00 -0.00000000000E+00 -0.17727433974E+04  0.17727433974E+04  0.25500000000E-02 0. -1.
    8880023    1    1    2    0    0 -0.17067980089E+03 -0.24067158827E+03 -0.15317315699E+04  0.16932413343E+04  0.65864270000E+03 0.  0.
    8880022    1    1    2    0    0  0.17067980089E+03  0.24067158827E+03  0.12038334484E+02  0.33255222498E+03  0.15294330000E+03 0.  0.
<mgrwt>
<rscale>  0 0.59451881E+03</rscale>
<asrwt>0</asrwt>
<pdfrwt beam="1">  1        2 0.27272975E+00 0.72170951E+03</pdfrwt>
<pdfrwt beam="2">  1       -2 0.38930795E-01 0.72170951E+03</pdfrwt>
<totfact> 0.57305506E+01</totfact>
</mgrwt>
</event>
<event>
 4    2  0.9070994E-007  0.6865290E+03  0.7818608E-02  0.1005848E+00
         -2   -1    0    0    0  501 -0.00000000000E+00  0.00000000000E+00  0.44112805347E+03  0.44112805348E+03  0.25500000000E-02 0.  1.
          2   -1    0    0  501    0  0.00000000000E+00 -0.00000000000E+00 -0.19654010296E+04  0.19654010296E+04  0.25500000000E-02 0. -1.
    8880023    1    1    2    0    0  0.12717730751E+03  0.14607483130E+03 -0.18641249397E+04  0.19865255903E+04  0.65864270000E+03 0. -1.
    8880022    1    1    2    0    0 -0.12717730751E+03 -0.14607483130E+03  0.33985196350E+03  0.42000349284E+03  0.15294330000E+03 0.  0.
<mgrwt>
<rscale>  0 0.53158723E+03</rscale>
<asrwt>0</asrwt>
<pdfrwt beam="1">  1        2 0.30236938E+00 0.68652905E+03</pdfrwt>
<pdfrwt beam="2">  1       -2 0.67865855E-01 0.68652905E+03</pdfrwt>
<totfact> 0.14499481E+01</totfact>
</mgrwt>
</event>
<event>
 4    2  0.9118575E-007  0.6918084E+03  0.7818608E-02  0.1003305E+00
          2   -1    0    0  501    0  0.00000000000E+00  0.00000000000E+00  0.15408061826E+04  0.15408061826E+04  0.25500000000E-02 0. -1.
         -2   -1    0    0    0  501 -0.00000000000E+00 -0.00000000000E+00 -0.12543334830E+04  0.12543334830E+04  0.25500000000E-02 0.  1.
    8880023    1    1    2    0    0 -0.10973917679E+03 -0.18095863419E+03  0.14479199118E+04  0.16047027736E+04  0.65864270000E+03 0. -1.
    8880022    1    1    2    0    0  0.10973917679E+03  0.18095863419E+03 -0.11614472122E+04  0.11904368921E+04  0.15294330000E+03 0.  0.
<mgrwt>
<rscale>  0 0.54224657E+03</rscale>
<asrwt>0</asrwt>
<pdfrwt beam="1">  1        2 0.23704710E+00 0.69180844E+03</pdfrwt>
<pdfrwt beam="2">  1       -2 0.19297438E+00 0.69180844E+03</pdfrwt>
<totfact> 0.18595692E+00</totfact>
</mgrwt>
</event>
<event>
 4    2  0.9070994E-007  0.7330402E+03  0.7818608E-02  0.9880705E-01
          2   -1    0    0  501    0  0.00000000000E+00  0.00000000000E+00  0.89819592630E+03  0.89819592631E+03  0.25500000000E-02 0. -1.
         -2   -1    0    0    0  501 -0.00000000000E+00 -0.00000000000E+00 -0.84069747532E+03  0.84069747532E+03  0.25500000000E-02 0.  1.
    8880023    1    1    2    0    0 -0.30259993242E+03 -0.10941237954E+03  0.69401223601E+03  0.10094557830E+04  0.65864270000E+03 0.  0.
    8880022    1    1    2    0    0  0.30259993242E+03  0.10941237954E+03 -0.63651378502E+03  0.72943761860E+03  0.15294330000E+03 0.  0.
<mgrwt>
<rscale>  0 0.61205600E+03</rscale>
<asrwt>0</asrwt>
<pdfrwt beam="1">  1        2 0.13818399E+00 0.73304024E+03</pdfrwt>
<pdfrwt beam="2">  1       -2 0.12933807E+00 0.73304024E+03</pdfrwt>
<totfact> 0.13169063E+01</totfact>
</mgrwt>
</event>
<event>
 4    2  0.9070994E-007  0.8470736E+03  0.7818608E-02  0.9616984E-01
         -2   -1    0    0    0  501 -0.00000000000E+00  0.00000000000E+00  0.39923329225E+03  0.39923329226E+03  0.25500000000E-02 0.  1.
          2   -1    0    0  501    0  0.00000000000E+00 -0.00000000000E+00 -0.17366979901E+04  0.17366979901E+04  0.25500000000E-02 0. -1.
    8880023    1    1    2    0    0  0.47702577086E+03  0.23700187477E+03 -0.13358130993E+04  0.15817491322E+04  0.65864270000E+03 0.  0.
    8880022    1    1    2    0    0 -0.47702577086E+03 -0.23700187477E+03 -0.16515985183E+01  0.55418215012E+03  0.15294330000E+03 0.  0.
<mgrwt>
<rscale>  0 0.76182200E+03</rscale>
<asrwt>0</asrwt>
<pdfrwt beam="1">  1        2 0.26718430E+00 0.84707360E+03</pdfrwt>
<pdfrwt beam="2">  1       -2 0.61420508E-01 0.84707360E+03</pdfrwt>
<totfact> 0.23434412E+01</totfact>
</mgrwt>
</event>
<event>
 4    2  0.9070994E-007  0.8856644E+03  0.7818608E-02  0.9549448E-01
          2   -1    0    0  501    0  0.00000000000E+00  0.00000000000E+00  0.17718515720E+04  0.17718515720E+04  0.25500000000E-02 0. -1.
         -2   -1    0    0    0  501 -0.00000000000E+00 -0.00000000000E+00 -0.38122245022E+03  0.38122245023E+03  0.25500000000E-02 0.  1.
    8880023    1    1    2    0    0 -0.22746933301E+03  0.54667070351E+03  0.12390302257E+04  0.15230224102E+04  0.65864270000E+03 0.  1.
    8880022    1    1    2    0    0  0.22746933301E+03 -0.54667070351E+03  0.15159889612E+03  0.63005161205E+03  0.15294330000E+03 0.  0.
<mgrwt>
<rscale>  0 0.80734346E+03</rscale>
<asrwt>0</asrwt>
<pdfrwt beam="1">  1        2 0.27259255E+00 0.88566436E+03</pdfrwt>
<pdfrwt beam="2">  1       -2 0.58649609E-01 0.88566436E+03</pdfrwt>
<totfact> 0.24612845E+01</totfact>
</mgrwt>
</event>
<event>
 4    2  0.9070994E-007  0.1029275E+04  0.7818608E-02  0.9344221E-01
          2   -1    0    0  501    0  0.00000000000E+00  0.00000000000E+00  0.22084548261E+04  0.22084548261E+04  0.25500000000E-02 0. -1.
         -2   -1    0    0    0  501 -0.00000000000E+00 -0.00000000000E+00 -0.62717847395E+03  0.62717847396E+03  0.25500000000E-02 0.  1.
    8880023    1    1    2    0    0 -0.78891374596E+03 -0.56674487958E+02  0.17332477444E+04  0.20158260952E+04  0.65864270000E+03 0.  0.
    8880022    1    1    2    0    0  0.78891374596E+03  0.56674487958E+02 -0.15197139225E+03  0.81980720492E+03  0.15294330000E+03 0.  0.
<mgrwt>
<rscale>  0 0.96811781E+03</rscale>
<asrwt>0</asrwt>
<pdfrwt beam="1">  1        2 0.33976228E+00 0.10292750E+04</pdfrwt>
<pdfrwt beam="2">  1       -2 0.96488996E-01 0.10292750E+04</pdfrwt>
<totfact> 0.45903357E+00</totfact>
</mgrwt>
</event>
<event>
 4    2  0.9070994E-007  0.7590958E+03  0.7818608E-02  0.9807454E-01
         -2   -1    0    0    0  501 -0.00000000000E+00  0.00000000000E+00  0.11266969642E+03  0.11266969644E+03  0.25500000000E-02 0.  1.
          2   -1    0    0  501    0  0.00000000000E+00 -0.00000000000E+00 -0.38864723145E+04  0.38864723145E+04  0.25500000000E-02 0. -1.
    8880023    1    1    2    0    0  0.37665196127E+03  0.23441254035E+02 -0.32401378137E+04  0.33278701072E+04  0.65864270000E+03 0.  0.
    8880022    1    1    2    0    0 -0.37665196127E+03 -0.23441254035E+02 -0.53366480439E+03  0.67127190376E+03  0.15294330000E+03 0.  0.
<mgrwt>
<rscale>  0 0.64964046E+03</rscale>
<asrwt>0</asrwt>
<pdfrwt beam="1">  1        2 0.59791871E+00 0.75909578E+03</pdfrwt>
<pdfrwt beam="2">  1       -2 0.17333802E-01 0.75909578E+03</pdfrwt>
<totfact> 0.12605712E+01</totfact>
</mgrwt>
</event>
<event>
 4    2  0.9070994E-007  0.6904091E+03  0.7818608E-02  0.1003959E+00
          2   -1    0    0  501    0  0.00000000000E+00  0.00000000000E+00  0.52223221548E+03  0.52223221549E+03  0.25500000000E-02 0. -1.
         -2   -1    0    0    0  501 -0.00000000000E+00 -0.00000000000E+00 -0.57570656571E+03  0.57570656571E+03  0.25500000000E-02 0.  1.
    8880023    1    1    2    0    0  0.16505896166E+03 -0.12494042856E+03  0.21784251507E+03  0.72396142103E+03  0.65864270000E+03 0.  0.
    8880022    1    1    2    0    0 -0.16505896166E+03  0.12494042856E+03 -0.27131686529E+03  0.37397736017E+03  0.15294330000E+03 0.  0.
<mgrwt>
<rscale>  0 0.53947962E+03</rscale>
<asrwt>0</asrwt>
<pdfrwt beam="1">  1        2 0.80343417E-01 0.69040914E+03</pdfrwt>
<pdfrwt beam="2">  1       -2 0.88570241E-01 0.69040914E+03</pdfrwt>
<totfact> 0.65171795E+01</totfact>
</mgrwt>
</event>
<event>
 4    2  0.9070994E-007  0.6798970E+03  0.7818608E-02  0.1009382E+00
         -2   -1    0    0    0  501 -0.00000000000E+00  0.00000000000E+00  0.15645475389E+03  0.15645475392E+03  0.25500000000E-02 0.  1.
          2   -1    0    0  501    0  0.00000000000E+00 -0.00000000000E+00 -0.15155390249E+04  0.15155390249E+04  0.25500000000E-02 0. -1.
    8880023    1    1    2    0    0 -0.12503826380E+03  0.11320430702E+03 -0.12421143861E+04  0.14160184098E+04  0.65864270000E+03 0. -1.
    8880022    1    1    2    0    0  0.12503826380E+03 -0.11320430702E+03 -0.11696988491E+03  0.25597536900E+03  0.15294330000E+03 0.  0.
<mgrwt>
<rscale>  0 0.51721009E+03</rscale>
<asrwt>0</asrwt>
<pdfrwt beam="1">  1        2 0.23315984E+00 0.67989704E+03</pdfrwt>
<pdfrwt beam="2">  1       -2 0.24069963E-01 0.67989704E+03</pdfrwt>
<totfact> 0.19493220E+02</totfact>
</mgrwt>
</event>
<event>
 4    2  0.9070994E-007  0.7988831E+03  0.7818608E-02  0.9713216E-01
          2   -1    0    0  501    0  0.00000000000E+00  0.00000000000E+00  0.65643121939E+03  0.65643121939E+03  0.25500000000E-02 0. -1.
         -2   -1    0    0    0  501 -0.00000000000E+00 -0.00000000000E+00 -0.20819138334E+04  0.20819138334E+04  0.25500000000E-02 0.  1.
    8880023    1    1    2    0    0  0.67500893458E+02  0.44704313405E+03  0.37007478510E+03  0.88043710005E+03  0.65864270000E+03 0. -1.
    8880022    1    1    2    0    0 -0.67500893458E+02 -0.44704313405E+03 -0.17955573991E+04  0.18579079528E+04  0.15294330000E+03 0.  0.
<mgrwt>
<rscale>  0 0.70235321E+03</rscale>
<asrwt>0</asrwt>
<pdfrwt beam="1">  1        2 0.10098942E+00 0.79888306E+03</pdfrwt>
<pdfrwt beam="2">  1       -2 0.32029443E+00 0.79888306E+03</pdfrwt>
<totfact> 0.11005728E+00</totfact>
</mgrwt>
</event>
<event>
 4    2  0.9070994E-007  0.6872537E+03  0.7818608E-02  0.1005486E+00
          2   -1    0    0  501    0  0.00000000000E+00  0.00000000000E+00  0.13144834925E+04  0.13144834925E+04  0.25500000000E-02 0. -1.
         -2   -1    0    0    0  501 -0.00000000000E+00 -0.00000000000E+00 -0.53580583551E+03  0.53580583552E+03  0.25500000000E-02 0.  1.
    8880023    1    1    2    0    0  0.18258265457E+02  0.19538176044E+03  0.11873143981E+04  0.13718721087E+04  0.65864270000E+03 0. -1.
    8880022    1    1    2    0    0 -0.18258265457E+02 -0.19538176044E+03 -0.40863674106E+03  0.47841721931E+03  0.15294330000E+03 0.  0.
<mgrwt>
<rscale>  0 0.53308725E+03</rscale>
<asrwt>0</asrwt>
<pdfrwt beam="1">  1        2 0.20222822E+00 0.68725367E+03</pdfrwt>
<pdfrwt beam="2">  1       -2 0.82431669E-01 0.68725367E+03</pdfrwt>
<totfact> 0.21542059E+01</totfact>
</mgrwt>
</event>
<event>
 4    2  0.9070994E-007  0.8095023E+03  0.7818608E-02  0.9690615E-01
         -2   -1    0    0    0  501 -0.00000000000E+00  0.00000000000E+00  0.35751563157E+03  0.35751563158E+03  0.25500000000E-02 0.  1.
          2   -1    0    0  501    0  0.00000000000E+00 -0.00000000000E+00 -0.39608733625E+04  0.39608733625E+04  0.25500000000E-02 0. -1.
    8880023    1    1    2    0    0  0.13775158004E+02 -0.47041891479E+03 -0.37224159969E+04  0.38094192169E+04  0.65864270000E+03 0. -1.
    8880022    1    1    2    0    0 -0.13775158004E+02  0.47041891479E+03  0.11905826591E+03  0.50896977717E+03  0.15294330000E+03 0.  0.
<mgrwt>
<rscale>  0 0.71578351E+03</rscale>
<asrwt>0</asrwt>
<pdfrwt beam="1">  1        2 0.60936510E+00 0.80950226E+03</pdfrwt>
<pdfrwt beam="2">  1       -2 0.55002408E-01 0.80950226E+03</pdfrwt>
<totfact> 0.12515407E+00</totfact>
</mgrwt>
</event>
<event>
 4    2  0.9070994E-007  0.7635898E+03  0.7818608E-02  0.9795901E-01
          2   -1    0    0  501    0  0.00000000000E+00  0.00000000000E+00  0.11538399593E+04  0.11538399593E+04  0.25500000000E-02 0. -1.
         -2   -1    0    0    0  501 -0.00000000000E+00 -0.00000000000E+00 -0.10129726528E+04  0.10129726528E+04  0.25500000000E-02 0.  1.
    8880023    1    1    2    0    0  0.79227821057E+02 -0.37812981827E+03  0.97291507587E+03  0.12367833918E+04  0.65864270000E+03 0. -1.
    8880022    1    1    2    0    0 -0.79227821057E+02  0.37812981827E+03 -0.83204776934E+03  0.93002922028E+03  0.15294330000E+03 0.  0.
<mgrwt>
<rscale>  0 0.65582987E+03</rscale>
<asrwt>0</asrwt>
<pdfrwt beam="1">  1        2 0.17751384E+00 0.76358982E+03</pdfrwt>
<pdfrwt beam="2">  1       -2 0.15584195E+00 0.76358982E+03</pdfrwt>
<totfact> 0.55678988E+00</totfact>
</mgrwt>
</event>
<event>
 4    2  0.9070994E-007  0.8306372E+03  0.7818608E-02  0.9648094E-01
         -2   -1    0    0    0  501 -0.00000000000E+00  0.00000000000E+00  0.48979894723E+03  0.48979894723E+03  0.25500000000E-02 0.  1.
          2   -1    0    0  501    0  0.00000000000E+00 -0.00000000000E+00 -0.10305569702E+04  0.10305569702E+04  0.25500000000E-02 0. -1.
    8880023    1    1    2    0    0 -0.31582116315E+03 -0.39548064900E+03 -0.10902222049E+03  0.83776130351E+03  0.65864270000E+03 0.  1.
    8880022    1    1    2    0    0  0.31582116315E+03  0.39548064900E+03 -0.43173580253E+03  0.68259461398E+03  0.15294330000E+03 0.  0.
<mgrwt>
<rscale>  0 0.74193174E+03</rscale>
<asrwt>0</asrwt>
<pdfrwt beam="1">  1        2 0.15854723E+00 0.83063720E+03</pdfrwt>
<pdfrwt beam="2">  1       -2 0.75353684E-01 0.83063720E+03</pdfrwt>
<totfact> 0.38394716E+01</totfact>
</mgrwt>
</event>
<event>
 4    2  0.9070994E-007  0.7305298E+03  0.7818608E-02  0.9888445E-01
         -2   -1    0    0    0  501 -0.00000000000E+00  0.00000000000E+00  0.30267529004E+03  0.30267529005E+03  0.25500000000E-02 0.  1.
          2   -1    0    0  501    0  0.00000000000E+00 -0.00000000000E+00 -0.15106693186E+04  0.15106693186E+04  0.25500000000E-02 0. -1.
    8880023    1    1    2    0    0 -0.23347198086E+03  0.21296587629E+03 -0.12619487035E+04  0.14581455232E+04  0.65864270000E+03 0. -1.
    8880022    1    1    2    0    0  0.23347198086E+03 -0.21296587629E+03  0.53954674975E+02  0.35519908542E+03  0.15294330000E+03 0.  0.
<mgrwt>
<rscale>  0 0.60824586E+03</rscale>
<asrwt>0</asrwt>
<pdfrwt beam="1">  1        2 0.23241066E+00 0.73052983E+03</pdfrwt>
<pdfrwt beam="2">  1       -2 0.46565430E-01 0.73052983E+03</pdfrwt>
<totfact> 0.56019282E+01</totfact>
</mgrwt>
</event>
<event>
 4    2  0.9070994E-007  0.7089575E+03  0.7818608E-02  0.9961893E-01
          2   -1    0    0  501    0  0.00000000000E+00  0.00000000000E+00  0.22274139032E+04  0.22274139032E+04  0.25500000000E-02 0. -1.
         -2   -1    0    0    0  501 -0.00000000000E+00 -0.00000000000E+00 -0.18459055493E+03  0.18459055495E+03  0.25500000000E-02 0.  1.
    8880023    1    1    2    0    0 -0.25875938144E+03  0.43060077733E+02  0.19784077241E+04  0.21015988953E+04  0.65864270000E+03 0. -1.
    8880022    1    1    2    0    0  0.25875938144E+03 -0.43060077733E+02  0.64415624157E+02  0.31040556282E+03  0.15294330000E+03 0.  0.
<mgrwt>
<rscale>  0 0.57353226E+03</rscale>
<asrwt>0</asrwt>
<pdfrwt beam="1">  1        2 0.34267907E+00 0.70895754E+03</pdfrwt>
<pdfrwt beam="2">  1       -2 0.28398546E-01 0.70895754E+03</pdfrwt>
<totfact> 0.58769147E+01</totfact>
</mgrwt>
</event>
<event>
 4    2  0.9070994E-007  0.6770997E+03  0.7818608E-02  0.1011014E+00
          2   -1    0    0  501    0  0.00000000000E+00  0.00000000000E+00  0.18180601692E+04  0.18180601692E+04  0.25500000000E-02 0. -1.
         -2   -1    0    0    0  501 -0.00000000000E+00 -0.00000000000E+00 -0.11137776970E+03  0.11137776973E+03  0.25500000000E-02 0.  1.
    8880023    1    1    2    0    0  0.54522890343E+02 -0.14724507869E+03  0.13608528503E+04  0.15199949161E+04  0.65864270000E+03 0. -1.
    8880022    1    1    2    0    0 -0.54522890343E+02  0.14724507869E+03  0.34582954922E+03  0.40944302278E+03  0.15294330000E+03 0.  1.
<mgrwt>
<rscale>  0 0.51073555E+03</rscale>
<asrwt>0</asrwt>
<pdfrwt beam="1">  1        2 0.27970156E+00 0.67709975E+03</pdfrwt>
<pdfrwt beam="2">  1       -2 0.17135042E-01 0.67709975E+03</pdfrwt>
<totfact> 0.24149409E+02</totfact>
</mgrwt>
</event>
<event>
 4    2  0.9070994E-007  0.6669673E+03  0.7818608E-02  0.1017937E+00
          2   -1    0    0  501    0  0.00000000000E+00  0.00000000000E+00  0.13267758092E+04  0.13267758092E+04  0.25500000000E-02 0. -1.
         -2   -1    0    0    0  501 -0.00000000000E+00 -0.00000000000E+00 -0.26266286005E+03  0.26266286006E+03  0.25500000000E-02 0.  1.
    8880023    1    1    2    0    0 -0.93611406981E+02 -0.47666290124E+02  0.11907348474E+04  0.13648057934E+04  0.65864270000E+03 0.  0.
    8880022    1    1    2    0    0  0.93611406981E+02  0.47666290124E+02 -0.12662189831E+03  0.22463287577E+03  0.15294330000E+03 0.  1.
<mgrwt>
<rscale>  0 0.48438482E+03</rscale>
<asrwt>0</asrwt>
<pdfrwt beam="1">  1        2 0.20411935E+00 0.66696730E+03</pdfrwt>
<pdfrwt beam="2">  1       -2 0.40409671E-01 0.66696730E+03</pdfrwt>
<totfact> 0.94710424E+01</totfact>
</mgrwt>
</event>
<event>
 4    2  0.9070994E-007  0.7711021E+03  0.7818608E-02  0.9777169E-01
          2   -1    0    0  501    0  0.00000000000E+00  0.00000000000E+00  0.20854930398E+04  0.20854930398E+04  0.25500000000E-02 0. -1.
         -2   -1    0    0    0  501 -0.00000000000E+00 -0.00000000000E+00 -0.24892561209E+03  0.24892561210E+03  0.25500000000E-02 0.  1.
    8880023    1    1    2    0    0 -0.12674252827E+03 -0.38042689535E+03  0.17272422986E+04  0.18915508070E+04  0.65864270000E+03 0. -1.
    8880022    1    1    2    0    0  0.12674252827E+03  0.38042689535E+03  0.10932512912E+03  0.44286784490E+03  0.15294330000E+03 0.  0.
<mgrwt>
<rscale>  0 0.66602299E+03</rscale>
<asrwt>0</asrwt>
<pdfrwt beam="1">  1        2 0.32084508E+00 0.77110213E+03</pdfrwt>
<pdfrwt beam="2">  1       -2 0.38296248E-01 0.77110213E+03</pdfrwt>
<totfact> 0.39707620E+01</totfact>
</mgrwt>
</event>
<event>
 4    2  0.9070994E-007  0.7170019E+03  0.7818608E-02  0.9932864E-01
         -2   -1    0    0    0  501 -0.00000000000E+00  0.00000000000E+00  0.26149451713E+03  0.26149451714E+03  0.25500000000E-02 0.  1.
          2   -1    0    0  501    0  0.00000000000E+00 -0.00000000000E+00 -0.15105415849E+04  0.15105415849E+04  0.25500000000E-02 0. -1.
    8880023    1    1    2    0    0  0.23414558530E+03  0.15955363050E+03 -0.12601609755E+04  0.14498611680E+04  0.65864270000E+03 0. -1.
    8880022    1    1    2    0    0 -0.23414558530E+03 -0.15955363050E+03  0.11113907772E+02  0.32217493398E+03  0.15294330000E+03 0.  0.
<mgrwt>
<rscale>  0 0.58694651E+03</rscale>
<asrwt>0</asrwt>
<pdfrwt beam="1">  1        2 0.23239101E+00 0.71700190E+03</pdfrwt>
<pdfrwt beam="2">  1       -2 0.40229926E-01 0.71700190E+03</pdfrwt>
<totfact> 0.74931823E+01</totfact>
</mgrwt>
</event>
<event>
 4    2  0.9070994E-007  0.8179509E+03  0.7818608E-02  0.9673247E-01
         -2   -1    0    0    0  501 -0.00000000000E+00  0.00000000000E+00  0.85469514076E+03  0.85469514076E+03  0.25500000000E-02 0.  1.
          2   -1    0    0  501    0  0.00000000000E+00 -0.00000000000E+00 -0.22095899865E+04  0.22095899865E+04  0.25500000000E-02 0. -1.
    8880023    1    1    2    0    0  0.25871874502E+03  0.41024154132E+03 -0.20476094921E+04  0.22049372666E+04  0.65864270000E+03 0. -1.
    8880022    1    1    2    0    0 -0.25871874502E+03 -0.41024154132E+03  0.69271464638E+03  0.85934786063E+03  0.15294330000E+03 0.  0.
<mgrwt>
<rscale>  0 0.72632214E+03</rscale>
<asrwt>0</asrwt>
<pdfrwt beam="1">  1        2 0.33993692E+00 0.81795093E+03</pdfrwt>
<pdfrwt beam="2">  1       -2 0.13149156E+00 0.81795093E+03</pdfrwt>
<totfact> 0.22161128E+00</totfact>
</mgrwt>
</event>
<event>
 4    2  0.9070994E-007  0.6607205E+03  0.7818608E-02  0.1023430E+00
          2   -1    0    0  501    0  0.00000000000E+00  0.00000000000E+00  0.43097539252E+03  0.43097539253E+03  0.25500000000E-02 0. -1.
         -2   -1    0    0    0  501 -0.00000000000E+00 -0.00000000000E+00 -0.45053795495E+03  0.45053795496E+03  0.25500000000E-02 0.  1.
    8880023    1    1    2    0    0 -0.30468301183E+02  0.42579619080E+02  0.11564763324E+03  0.67076517700E+03  0.65864270000E+03 0. -1.
    8880022    1    1    2    0    0  0.30468301183E+02 -0.42579619080E+02 -0.13521019567E+03  0.21074817049E+03  0.15294330000E+03 0.  1.
<mgrwt>
<rscale>  0 0.46468855E+03</rscale>
<asrwt>0</asrwt>
<pdfrwt beam="1">  1        2 0.66303907E-01 0.66072048E+03</pdfrwt>
<pdfrwt beam="2">  1       -2 0.69313531E-01 0.66072048E+03</pdfrwt>
<totfact> 0.14077833E+02</totfact>
</mgrwt>
</event>
<event>
 4    2  0.9070994E-007  0.1042925E+04  0.7818608E-02  0.9327435E-01
          2   -1    0    0  501    0  0.00000000000E+00  0.00000000000E+00  0.17470592221E+04  0.17470592221E+04  0.25500000000E-02 0. -1.
         -2   -1    0    0    0  501 -0.00000000000E+00 -0.00000000000E+00 -0.60287024451E+03  0.60287024451E+03  0.25500000000E-02 0.  1.
    8880023    1    1    2    0    0 -0.19499953101E+03 -0.78476611214E+03  0.14106897054E+03  0.10524225998E+04  0.65864270000E+03 0. -1.
    8880022    1    1    2    0    0  0.19499953101E+03  0.78476611214E+03  0.10031200070E+04  0.12975068668E+04  0.15294330000E+03 0.  0.
<mgrwt>
<rscale>  0 0.98295907E+03</rscale>
<asrwt>0</asrwt>
<pdfrwt beam="1">  1        2 0.26877834E+00 0.10429252E+04</pdfrwt>
<pdfrwt beam="2">  1       -2 0.92749269E-01 0.10429252E+04</pdfrwt>
<totfact> 0.90424317E+00</totfact>
</mgrwt>
</event>
<event>
 4    2  0.9070994E-007  0.9735617E+03  0.7818608E-02  0.9416995E-01
         -2   -1    0    0    0  501 -0.00000000000E+00  0.00000000000E+00  0.13006614818E+04  0.13006614818E+04  0.25500000000E-02 0.  1.
          2   -1    0    0  501    0  0.00000000000E+00 -0.00000000000E+00 -0.41979382496E+04  0.41979382496E+04  0.25500000000E-02 0. -1.
    8880023    1    1    2    0    0 -0.13152713829E+03  0.70477850411E+03 -0.40318903957E+04  0.41477659646E+04  0.65864270000E+03 0. -1.
    8880022    1    1    2    0    0  0.13152713829E+03 -0.70477850411E+03  0.11346136279E+04  0.13508337668E+04  0.15294330000E+03 0.  0.
<mgrwt>
<rscale>  0 0.90690165E+03</rscale>
<asrwt>0</asrwt>
<pdfrwt beam="1">  1        2 0.64583665E+00 0.97356167E+03</pdfrwt>
<pdfrwt beam="2">  1       -2 0.20010177E+00 0.97356167E+03</pdfrwt>
<totfact> 0.32993517E-02</totfact>
</mgrwt>
</event>
<event>
 4    2  0.1219182E-006  0.9740544E+03  0.7818608E-02  0.9416318E-01
          2   -1    0    0  501    0  0.00000000000E+00  0.00000000000E+00  0.30324073571E+04  0.30324073571E+04  0.25500000000E-02 0. -1.
         -2   -1    0    0    0  501 -0.00000000000E+00 -0.00000000000E+00 -0.10236611531E+04  0.10236611531E+04  0.25500000000E-02 0.  1.
    8880023    1    1    2    0    0  0.60953559859E+03  0.37873228392E+03  0.28073747684E+04  0.29715543214E+04  0.65864270000E+03 0. -1.
    8880022    1    1    2    0    0 -0.60953559859E+03 -0.37873228392E+03 -0.79862856439E+03  0.10845141888E+04  0.15294330000E+03 0.  1.
<mgrwt>
<rscale>  0 0.90744823E+03</rscale>
<asrwt>0</asrwt>
<pdfrwt beam="1">  1        2 0.46652420E+00 0.97405441E+03</pdfrwt>
<pdfrwt beam="2">  1       -2 0.15748634E+00 0.97405441E+03</pdfrwt>
<totfact> 0.44658136E-01</totfact>
</mgrwt>
</event>
<event>
 4    2  0.9070994E-007  0.9744381E+03  0.7818608E-02  0.9415792E-01
         -2   -1    0    0    0  501 -0.00000000000E+00  0.00000000000E+00  0.45218528926E+03  0.45218528927E+03  0.25500000000E-02 0.  1.
          2   -1    0    0  501    0  0.00000000000E+00 -0.00000000000E+00 -0.16567230876E+04  0.16567230876E+04  0.25500000000E-02 0. -1.
    8880023    1    1    2    0    0  0.43206959666E+03  0.57361599152E+03 -0.85214600087E+03  0.12944815391E+04  0.65864270000E+03 0. -1.
    8880022    1    1    2    0    0 -0.43206959666E+03 -0.57361599152E+03 -0.35239179745E+03  0.81442683772E+03  0.15294330000E+03 0.  1.
<mgrwt>
<rscale>  0 0.90787380E+03</rscale>
<asrwt>0</asrwt>
<pdfrwt beam="1">  1        2 0.25488047E+00 0.97443812E+03</pdfrwt>
<pdfrwt beam="2">  1       -2 0.69566968E-01 0.97443812E+03</pdfrwt>
<totfact> 0.19566357E+01</totfact>
</mgrwt>
</event>
<event>
 4    2  0.9070994E-007  0.1201068E+04  0.7818608E-02  0.9156085E-01
          2   -1    0    0  501    0  0.00000000000E+00  0.00000000000E+00  0.13601189936E+04  0.13601189936E+04  0.25500000000E-02 0. -1.
         -2   -1    0    0    0  501 -0.00000000000E+00 -0.00000000000E+00 -0.97631198339E+03  0.97631198339E+03  0.25500000000E-02 0.  1.
    8880023    1    1    2    0    0  0.99783641214E+03 -0.11434828695E+03  0.52485986148E+03  0.13107406748E+04  0.65864270000E+03 0.  0.
    8880022    1    1    2    0    0 -0.99783641214E+03  0.11434828695E+03 -0.14105285129E+03  0.10256903022E+04  0.15294330000E+03 0.  0.
<mgrwt>
<rscale>  0 0.11518426E+04</rscale>
<asrwt>0</asrwt>
<pdfrwt beam="1">  1        2 0.20924907E+00 0.12010675E+04</pdfrwt>
<pdfrwt beam="2">  1       -2 0.15020184E+00 0.12010675E+04</pdfrwt>
<totfact> 0.44279032E+00</totfact>
</mgrwt>
</event>
<event>
 4    2  0.9070994E-007  0.7755656E+03  0.7818608E-02  0.9766358E-01
          2   -1    0    0  501    0  0.00000000000E+00  0.00000000000E+00  0.25583483281E+03  0.25583483282E+03  0.25500000000E-02 0. -1.
         -2   -1    0    0    0  501 -0.00000000000E+00 -0.00000000000E+00 -0.14373738235E+04  0.14373738236E+04  0.25500000000E-02 0.  1.
    8880023    1    1    2    0    0 -0.37999387020E+03  0.15263180283E+03 -0.74422645167E+03  0.10748837269E+04  0.65864270000E+03 0.  0.
    8880022    1    1    2    0    0  0.37999387020E+03 -0.15263180283E+03 -0.43731253907E+03  0.61832492952E+03  0.15294330000E+03 0.  1.
<mgrwt>
<rscale>  0 0.67199617E+03</rscale>
<asrwt>0</asrwt>
<pdfrwt beam="1">  1        2 0.39359206E-01 0.77556561E+03</pdfrwt>
<pdfrwt beam="2">  1       -2 0.22113443E+00 0.77556561E+03</pdfrwt>
<totfact> 0.12981072E+01</totfact>
</mgrwt>
</event>
<event>
 4    2  0.9070994E-007  0.7605069E+03  0.7818608E-02  0.9803797E-01
         -2   -1    0    0    0  501 -0.00000000000E+00  0.00000000000E+00  0.25330112065E+03  0.25330112066E+03  0.25500000000E-02 0.  1.
          2   -1    0    0  501    0  0.00000000000E+00 -0.00000000000E+00 -0.18310101154E+04  0.18310101154E+04  0.25500000000E-02 0. -1.
    8880023    1    1    2    0    0  0.10358318794E+03  0.36582925843E+03 -0.14785396485E+04  0.16626635924E+04  0.65864270000E+03 0.  0.
    8880022    1    1    2    0    0 -0.10358318794E+03 -0.36582925843E+03 -0.99169346290E+02  0.42164764367E+03  0.15294330000E+03 0.  0.
<mgrwt>
<rscale>  0 0.65159174E+03</rscale>
<asrwt>0</asrwt>
<pdfrwt beam="1">  1        2 0.28169386E+00 0.76050689E+03</pdfrwt>
<pdfrwt beam="2">  1       -2 0.38969404E-01 0.76050689E+03</pdfrwt>
<totfact> 0.52929413E+01</totfact>
</mgrwt>
</event>
<event>
 4    2  0.9070994E-007  0.7509050E+03  0.7818608E-02  0.9829249E-01
         -2   -1    0    0    0  501 -0.00000000000E+00  0.00000000000E+00  0.27296110285E+03  0.27296110287E+03  0.25500000000E-02 0.  1.
          2   -1    0    0  501    0  0.00000000000E+00 -0.00000000000E+00 -0.18181251503E+04  0.18181251503E+04  0.25500000000E-02 0. -1.
    8880023    1    1    2    0    0 -0.33389094148E+03 -0.13625320503E+03 -0.15238221792E+04  0.16987914341E+04  0.65864270000E+03 0.  0.
    8880022    1    1    2    0    0  0.33389094148E+03  0.13625320503E+03 -0.21341868271E+02  0.39229481903E+03  0.15294330000E+03 0.  0.
<mgrwt>
<rscale>  0 0.63816206E+03</rscale>
<asrwt>0</asrwt>
<pdfrwt beam="1">  1        2 0.27971155E+00 0.75090499E+03</pdfrwt>
<pdfrwt beam="2">  1       -2 0.41994017E-01 0.75090499E+03</pdfrwt>
<totfact> 0.46530863E+01</totfact>
</mgrwt>
</event>
<event>
 4    2  0.9070994E-007  0.7114235E+03  0.7818608E-02  0.9952752E-01
          2   -1    0    0  501    0  0.00000000000E+00  0.00000000000E+00  0.14462032822E+04  0.14462032822E+04  0.25500000000E-02 0. -1.
         -2   -1    0    0    0  501 -0.00000000000E+00 -0.00000000000E+00 -0.42140560049E+03  0.42140560050E+03  0.25500000000E-02 0.  1.
    8880023    1    1    2    0    0 -0.25435234418E+03  0.87281591352E+02  0.12814221938E+04  0.14656623882E+04  0.65864270000E+03 0. -1.
    8880022    1    1    2    0    0  0.25435234418E+03 -0.87281591352E+02 -0.25662451212E+03  0.40194649447E+03  0.15294330000E+03 0.  0.
<mgrwt>
<rscale>  0 0.57771400E+03</rscale>
<asrwt>0</asrwt>
<pdfrwt beam="1">  1        2 0.22249281E+00 0.71142350E+03</pdfrwt>
<pdfrwt beam="2">  1       -2 0.64831631E-01 0.71142350E+03</pdfrwt>
<totfact> 0.30699745E+01</totfact>
</mgrwt>
</event>
<event>
 4    2  0.9070994E-007  0.7341963E+03  0.7818608E-02  0.9877187E-01
         -2   -1    0    0    0  501 -0.00000000000E+00  0.00000000000E+00  0.77644986726E+03  0.77644986727E+03  0.25500000000E-02 0.  1.
          2   -1    0    0  501    0  0.00000000000E+00 -0.00000000000E+00 -0.10151662448E+04  0.10151662448E+04  0.25500000000E-02 0. -1.
    8880023    1    1    2    0    0  0.26299297492E+03  0.18991755870E+03 -0.82496846050E+03  0.11043627805E+04  0.65864270000E+03 0. -1.
    8880022    1    1    2    0    0 -0.26299297492E+03 -0.18991755870E+03  0.58625208294E+03  0.68725333155E+03  0.15294330000E+03 0.  0.
<mgrwt>
<rscale>  0 0.61379745E+03</rscale>
<asrwt>0</asrwt>
<pdfrwt beam="1">  1        2 0.15617942E+00 0.73419629E+03</pdfrwt>
<pdfrwt beam="2">  1       -2 0.11945383E+00 0.73419629E+03</pdfrwt>
<totfact> 0.13478744E+01</totfact>
</mgrwt>
</event>
<event>
 4    2  0.9070994E-007  0.1015072E+04  0.7818608E-02  0.9362099E-01
         -2   -1    0    0    0  501 -0.00000000000E+00  0.00000000000E+00  0.43795126919E+03  0.43795126920E+03  0.25500000000E-02 0.  1.
          2   -1    0    0  501    0  0.00000000000E+00 -0.00000000000E+00 -0.27024959951E+04  0.27024959951E+04  0.25500000000E-02 0. -1.
    8880023    1    1    2    0    0  0.77166007247E+03  0.33206650470E+02 -0.21051581565E+04  0.23371056927E+04  0.65864270000E+03 0.  0.
    8880022    1    1    2    0    0 -0.77166007247E+03 -0.33206650470E+02 -0.15938656948E+03  0.80334157158E+03  0.15294330000E+03 0.  0.
<mgrwt>
<rscale>  0 0.95261560E+03</rscale>
<asrwt>0</asrwt>
<pdfrwt beam="1">  1        2 0.41576860E+00 0.10150725E+04</pdfrwt>
<pdfrwt beam="2">  1       -2 0.67377120E-01 0.10150725E+04</pdfrwt>
<totfact> 0.54173237E+00</totfact>
</mgrwt>
</event>
<event>
 4    2  0.9070994E-007  0.7828834E+03  0.7818608E-02  0.9749107E-01
         -2   -1    0    0    0  501 -0.00000000000E+00  0.00000000000E+00  0.59891377891E+03  0.59891377891E+03  0.25500000000E-02 0.  1.
          2   -1    0    0  501    0  0.00000000000E+00 -0.00000000000E+00 -0.18188693462E+04  0.18188693462E+04  0.25500000000E-02 0. -1.
    8880023    1    1    2    0    0  0.41102668402E+03  0.10076343622E+03 -0.16304655414E+04  0.18086802628E+04  0.65864270000E+03 0. -1.
    8880022    1    1    2    0    0 -0.41102668402E+03 -0.10076343622E+03  0.41050997409E+03  0.60910286234E+03  0.15294330000E+03 0.  0.
<mgrwt>
<rscale>  0 0.68166765E+03</rscale>
<asrwt>0</asrwt>
<pdfrwt beam="1">  1        2 0.27982605E+00 0.78288340E+03</pdfrwt>
<pdfrwt beam="2">  1       -2 0.92140582E-01 0.78288340E+03</pdfrwt>
<totfact> 0.86526955E+00</totfact>
</mgrwt>
</event>
<event>
 4    2  0.1007239E-006  0.9875756E+03  0.7818608E-02  0.9397996E-01
          2   -1    0    0  501    0  0.00000000000E+00  0.00000000000E+00  0.24529577706E+04  0.24529577706E+04  0.25500000000E-02 0. -1.
         -2   -1    0    0    0  501 -0.00000000000E+00 -0.00000000000E+00 -0.10099508768E+04  0.10099508768E+04  0.25500000000E-02 0.  1.
    8880023    1    1    2    0    0  0.73291511827E+03 -0.65808644733E+02  0.21905385433E+04  0.24028659273E+04  0.65864270000E+03 0.  0.
    8880022    1    1    2    0    0 -0.73291511827E+03  0.65808644733E+02 -0.74753164953E+03  0.10600427201E+04  0.15294330000E+03 0.  0.
<mgrwt>
<rscale>  0 0.92240778E+03</rscale>
<asrwt>0</asrwt>
<pdfrwt beam="1">  1        2 0.37737812E+00 0.98757559E+03</pdfrwt>
<pdfrwt beam="2">  1       -2 0.15537706E+00 0.98757559E+03</pdfrwt>
<totfact> 0.10176813E+00</totfact>
</mgrwt>
</event>
<event>
 4    2  0.9070994E-007  0.7615591E+03  0.7818608E-02  0.9801088E-01
          2   -1    0    0  501    0  0.00000000000E+00  0.00000000000E+00  0.63562816765E+03  0.63562816765E+03  0.25500000000E-02 0. -1.
         -2   -1    0    0    0  501 -0.00000000000E+00 -0.00000000000E+00 -0.66796092141E+03  0.66796092141E+03  0.25500000000E-02 0.  1.
    8880023    1    1    2    0    0  0.26616598103E+03  0.27444075088E+03  0.25315491752E+03  0.80253328512E+03  0.65864270000E+03 0.  0.
    8880022    1    1    2    0    0 -0.26616598103E+03 -0.27444075088E+03 -0.28548767128E+03  0.50105580394E+03  0.15294330000E+03 0.  0.
<mgrwt>
<rscale>  0 0.65304201E+03</rscale>
<asrwt>0</asrwt>
<pdfrwt beam="1">  1        2 0.97788949E-01 0.76155910E+03</pdfrwt>
<pdfrwt beam="2">  1       -2 0.10276322E+00 0.76155910E+03</pdfrwt>
<totfact> 0.36202234E+01</totfact>
</mgrwt>
</event>
<event>
 4    2  0.9070994E-007  0.8885148E+03  0.7818608E-02  0.9544726E-01
          2   -1    0    0  501    0  0.00000000000E+00  0.00000000000E+00  0.27857782329E+04  0.27857782329E+04  0.25500000000E-02 0. -1.
         -2   -1    0    0    0  501 -0.00000000000E+00 -0.00000000000E+00 -0.45724126389E+03  0.45724126390E+03  0.25500000000E-02 0.  1.
    8880023    1    1    2    0    0 -0.17630115332E+02 -0.59610196962E+03  0.24582021941E+04  0.26138509162E+04  0.65864270000E+03 0. -1.
    8880022    1    1    2    0    0  0.17630115332E+02  0.59610196962E+03 -0.12966522506E+03  0.62916858056E+03  0.15294330000E+03 0.  0.
<mgrwt>
<rscale>  0 0.81065141E+03</rscale>
<asrwt>0</asrwt>
<pdfrwt beam="1">  1        2 0.42858126E+00 0.88851482E+03</pdfrwt>
<pdfrwt beam="2">  1       -2 0.70344811E-01 0.88851482E+03</pdfrwt>
<totfact> 0.44848477E+00</totfact>
</mgrwt>
</event>
<event>
 4    2  0.9070994E-007  0.7127854E+03  0.7818608E-02  0.9947800E-01
          2   -1    0    0  501    0  0.00000000000E+00  0.00000000000E+00  0.98396966967E+03  0.98396966967E+03  0.25500000000E-02 0. -1.
         -2   -1    0    0    0  501 -0.00000000000E+00 -0.00000000000E+00 -0.40221916251E+03  0.40221916252E+03  0.25500000000E-02 0.  1.
    8880023    1    1    2    0    0 -0.18799422514E+03 -0.19725866467E+03  0.74716445560E+03  0.10326266215E+04  0.65864270000E+03 0. -1.
    8880022    1    1    2    0    0  0.18799422514E+03  0.19725866467E+03 -0.16541394844E+03  0.35356221069E+03  0.15294330000E+03 0.  0.
<mgrwt>
<rscale>  0 0.57999606E+03</rscale>
<asrwt>0</asrwt>
<pdfrwt beam="1">  1        2 0.15137995E+00 0.71278539E+03</pdfrwt>
<pdfrwt beam="2">  1       -2 0.61879871E-01 0.71278539E+03</pdfrwt>
<totfact> 0.63699263E+01</totfact>
</mgrwt>
</event>
<event>
 4    2  0.9070994E-007  0.6727850E+03  0.7818608E-02  0.1013740E+00
          2   -1    0    0  501    0  0.00000000000E+00  0.00000000000E+00  0.19711165447E+04  0.19711165447E+04  0.25500000000E-02 0. -1.
         -2   -1    0    0    0  501 -0.00000000000E+00 -0.00000000000E+00 -0.16537113125E+03  0.16537113127E+03  0.25500000000E-02 0.  1.
    8880023    1    1    2    0    0  0.12455701786E+03  0.57575695418E+02  0.18099702710E+04  0.19309665972E+04  0.65864270000E+03 0. -1.
    8880022    1    1    2    0    0 -0.12455701786E+03 -0.57575695418E+02 -0.42248574852E+01  0.20552107881E+03  0.15294330000E+03 0.  0.
<mgrwt>
<rscale>  0 0.50014779E+03</rscale>
<asrwt>0</asrwt>
<pdfrwt beam="1">  1        2 0.30324872E+00 0.67278497E+03</pdfrwt>
<pdfrwt beam="2">  1       -2 0.25441711E-01 0.67278497E+03</pdfrwt>
<totfact> 0.99593541E+01</totfact>
</mgrwt>
</event>
<event>
 4    2  0.9070994E-007  0.6942122E+03  0.7818608E-02  0.1002211E+00
          2   -1    0    0  501    0  0.00000000000E+00  0.00000000000E+00  0.10632770850E+04  0.10632770850E+04  0.25500000000E-02 0. -1.
         -2   -1    0    0    0  501 -0.00000000000E+00 -0.00000000000E+00 -0.45491506040E+03  0.45491506041E+03  0.25500000000E-02 0.  1.
    8880023    1    1    2    0    0  0.16437419406E+03  0.14526362050E+03  0.89072086015E+03  0.11292981236E+04  0.65864270000E+03 0. -1.
    8880022    1    1    2    0    0 -0.16437419406E+03 -0.14526362050E+03 -0.28235883556E+03  0.38889402175E+03  0.15294330000E+03 0.  0.
<mgrwt>
<rscale>  0 0.54691092E+03</rscale>
<asrwt>0</asrwt>
<pdfrwt beam="1">  1        2 0.16358109E+00 0.69421222E+03</pdfrwt>
<pdfrwt beam="2">  1       -2 0.69986933E-01 0.69421222E+03</pdfrwt>
<totfact> 0.43636242E+01</totfact>
</mgrwt>
</event>
<event>
 4    2  0.9070994E-007  0.1160421E+04  0.7818608E-02  0.9196590E-01
          2   -1    0    0  501    0  0.00000000000E+00  0.00000000000E+00  0.27330724012E+04  0.27330724012E+04  0.25500000000E-02 0. -1.
         -2   -1    0    0    0  501 -0.00000000000E+00 -0.00000000000E+00 -0.97181867558E+03  0.97181867558E+03  0.25500000000E-02 0.  1.
    8880023    1    1    2    0    0  0.53594829203E+03  0.79090165952E+03  0.23153802138E+04  0.25898960881E+04  0.65864270000E+03 0.  0.
    8880022    1    1    2    0    0 -0.53594829203E+03 -0.79090165952E+03 -0.55412648817E+03  0.11149949886E+04  0.15294330000E+03 0.  0.
<mgrwt>
<rscale>  0 0.11088690E+04</rscale>
<asrwt>0</asrwt>
<pdfrwt beam="1">  1        2 0.42047266E+00 0.11604207E+04</pdfrwt>
<pdfrwt beam="2">  1       -2 0.14951057E+00 0.11604207E+04</pdfrwt>
<totfact> 0.75628223E-01</totfact>
</mgrwt>
</event>
<event>
 4    2  0.9070994E-007  0.7256166E+03  0.7818608E-02  0.9904020E-01
          2   -1    0    0  501    0  0.00000000000E+00  0.00000000000E+00  0.70429218722E+03  0.70429218722E+03  0.25500000000E-02 0. -1.
         -2   -1    0    0    0  501 -0.00000000000E+00 -0.00000000000E+00 -0.82459498417E+03  0.82459498417E+03  0.25500000000E-02 0.  1.
    8880023    1    1    2    0    0  0.19454293487E+03 -0.23422699300E+03  0.45771222931E+03  0.85791603837E+03  0.65864270000E+03 0. -1.
    8880022    1    1    2    0    0 -0.19454293487E+03  0.23422699300E+03 -0.57801502626E+03  0.67097113303E+03  0.15294330000E+03 0.  0.
<mgrwt>
<rscale>  0 0.60066849E+03</rscale>
<asrwt>0</asrwt>
<pdfrwt beam="1">  1        2 0.10835264E+00 0.72561660E+03</pdfrwt>
<pdfrwt beam="2">  1       -2 0.12686077E+00 0.72561660E+03</pdfrwt>
<totfact> 0.19090804E+01</totfact>
</mgrwt>
</event>
<event>
 4    2  0.9070994E-007  0.9115756E+03  0.7818608E-02  0.9507699E-01
         -2   -1    0    0    0  501 -0.00000000000E+00  0.00000000000E+00  0.42568958527E+03  0.42568958527E+03  0.25500000000E-02 0.  1.
          2   -1    0    0  501    0  0.00000000000E+00 -0.00000000000E+00 -0.18547592620E+04  0.18547592620E+04  0.25500000000E-02 0. -1.
    8880023    1    1    2    0    0  0.61117745396E+03 -0.15369453818E+03 -0.26733384171E+03  0.94996709442E+03  0.65864270000E+03 0.  1.
    8880022    1    1    2    0    0 -0.61117745396E+03  0.15369453818E+03 -0.11617358350E+04  0.13304817529E+04  0.15294330000E+03 0.  0.
<mgrwt>
<rscale>  0 0.83718594E+03</rscale>
<asrwt>0</asrwt>
<pdfrwt beam="1">  1        2 0.28534757E+00 0.91157561E+03</pdfrwt>
<pdfrwt beam="2">  1       -2 0.65490706E-01 0.91157561E+03</pdfrwt>
<totfact> 0.17470761E+01</totfact>
</mgrwt>
</event>
<event>
 4    2  0.9070994E-007  0.1440664E+04  0.7818608E-02  0.8952713E-01
          2   -1    0    0  501    0  0.00000000000E+00  0.00000000000E+00  0.27812082907E+04  0.27812082907E+04  0.25500000000E-02 0. -1.
         -2   -1    0    0    0  501 -0.00000000000E+00 -0.00000000000E+00 -0.82377706294E+03  0.82377706294E+03  0.25500000000E-02 0.  1.
    8880023    1    1    2    0    0  0.12729125404E+04 -0.14627219529E+03  0.17992306423E+04  0.23049388280E+04  0.65864270000E+03 0.  0.
    8880022    1    1    2    0    0 -0.12729125404E+04  0.14627219529E+03  0.15820058547E+03  0.13000465256E+04  0.15294330000E+03 0.  0.
<mgrwt>
<rscale>  0 0.14015281E+04</rscale>
<asrwt>0</asrwt>
<pdfrwt beam="1">  1        2 0.42787820E+00 0.14406638E+04</pdfrwt>
<pdfrwt beam="2">  1       -2 0.12673493E+00 0.14406638E+04</pdfrwt>
<totfact> 0.10508799E+00</totfact>
</mgrwt>
</event>
<event>
 4    2  0.9070994E-007  0.9932949E+03  0.7818608E-02  0.9390383E-01
         -2   -1    0    0    0  501 -0.00000000000E+00  0.00000000000E+00  0.93798719250E+03  0.93798719250E+03  0.25500000000E-02 0.  1.
          2   -1    0    0  501    0  0.00000000000E+00 -0.00000000000E+00 -0.93852583085E+03  0.93852583085E+03  0.25500000000E-02 0. -1.
    8880023    1    1    2    0    0  0.33690697741E+03  0.66281080518E+03 -0.33325521530E+03  0.10477087953E+04  0.65864270000E+03 0. -1.
    8880022    1    1    2    0    0 -0.33690697741E+03 -0.66281080518E+03  0.33271657696E+03  0.82880422809E+03  0.15294330000E+03 0.  0.
<mgrwt>
<rscale>  0 0.92871363E+03</rscale>
<asrwt>0</asrwt>
<pdfrwt beam="1">  1        2 0.14438859E+00 0.99329486E+03</pdfrwt>
<pdfrwt beam="2">  1       -2 0.14430572E+00 0.99329486E+03</pdfrwt>
<totfact> 0.90962128E+00</totfact>
</mgrwt>
</event>
<event>
 4    2  0.9070994E-007  0.8193912E+03  0.7818608E-02  0.9670337E-01
          2   -1    0    0  501    0  0.00000000000E+00  0.00000000000E+00  0.14994656915E+04  0.14994656915E+04  0.25500000000E-02 0. -1.
         -2   -1    0    0    0  501 -0.00000000000E+00 -0.00000000000E+00 -0.30489697266E+03  0.30489697267E+03  0.25500000000E-02 0.  1.
    8880023    1    1    2    0    0 -0.44027118108E+03  0.20917235112E+03  0.88930364752E+03  0.12092406581E+04  0.65864270000E+03 0.  1.
    8880022    1    1    2    0    0  0.44027118108E+03 -0.20917235112E+03  0.30526507131E+03  0.59512200610E+03  0.15294330000E+03 0.  0.
<mgrwt>
<rscale>  0 0.72810683E+03</rscale>
<asrwt>0</asrwt>
<pdfrwt beam="1">  1        2 0.23068703E+00 0.81939123E+03</pdfrwt>
<pdfrwt beam="2">  1       -2 0.46907226E-01 0.81939123E+03</pdfrwt>
<totfact> 0.55510489E+01</totfact>
</mgrwt>
</event>
<event>
 4    2  0.9070994E-007  0.8350249E+03  0.7818608E-02  0.9639634E-01
         -2   -1    0    0    0  501 -0.00000000000E+00  0.00000000000E+00  0.12066580843E+04  0.12066580843E+04  0.25500000000E-02 0.  1.
          2   -1    0    0  501    0  0.00000000000E+00 -0.00000000000E+00 -0.51992902842E+03  0.51992902842E+03  0.25500000000E-02 0. -1.
    8880023    1    1    2    0    0  0.25861088184E+03 -0.44336983394E+03 -0.25547949198E+02  0.83541564614E+03  0.65864270000E+03 0.  1.
    8880022    1    1    2    0    0 -0.25861088184E+03  0.44336983394E+03  0.71227700506E+03  0.89117146655E+03  0.15294330000E+03 0.  0.
<mgrwt>
<rscale>  0 0.74727605E+03</rscale>
<asrwt>0</asrwt>
<pdfrwt beam="1">  1        2 0.79989082E-01 0.83502491E+03</pdfrwt>
<pdfrwt beam="2">  1       -2 0.18563970E+00 0.83502491E+03</pdfrwt>
<totfact> 0.98445401E+00</totfact>
</mgrwt>
</event>
<event>
 4    2  0.9070994E-007  0.6947929E+03  0.7818608E-02  0.1001953E+00
          2   -1    0    0  501    0  0.00000000000E+00  0.00000000000E+00  0.87417400434E+03  0.87417400435E+03  0.25500000000E-02 0. -1.
         -2   -1    0    0    0  501 -0.00000000000E+00 -0.00000000000E+00 -0.70269601848E+03  0.70269601848E+03  0.25500000000E-02 0.  1.
    8880023    1    1    2    0    0  0.18324443676E+03 -0.12388902651E+03  0.69849486282E+03  0.98520672660E+03  0.65864270000E+03 0. -1.
    8880022    1    1    2    0    0 -0.18324443676E+03  0.12388902651E+03 -0.52701687695E+03  0.59166329623E+03  0.15294330000E+03 0.  0.
<mgrwt>
<rscale>  0 0.54802181E+03</rscale>
<asrwt>0</asrwt>
<pdfrwt beam="1">  1        2 0.13448831E+00 0.69479293E+03</pdfrwt>
<pdfrwt beam="2">  1       -2 0.10810708E+00 0.69479293E+03</pdfrwt>
<totfact> 0.21362204E+01</totfact>
</mgrwt>
</event>
<event>
 4    2  0.9070994E-007  0.6677583E+03  0.7818608E-02  0.1017324E+00
          2   -1    0    0  501    0  0.00000000000E+00  0.00000000000E+00  0.55764160207E+03  0.55764160207E+03  0.25500000000E-02 0. -1.
         -2   -1    0    0    0  501 -0.00000000000E+00 -0.00000000000E+00 -0.63933862402E+03  0.63933862403E+03  0.25500000000E-02 0.  1.
    8880023    1    1    2    0    0 -0.56704586831E+01  0.10981233770E+03  0.32954635662E+03  0.74464885083E+03  0.65864270000E+03 0. -1.
    8880022    1    1    2    0    0  0.56704586831E+01 -0.10981233770E+03 -0.41124337858E+03  0.45233137527E+03  0.15294330000E+03 0.  0.
<mgrwt>
<rscale>  0 0.48664954E+03</rscale>
<asrwt>0</asrwt>
<pdfrwt beam="1">  1        2 0.85791016E-01 0.66775827E+03</pdfrwt>
<pdfrwt beam="2">  1       -2 0.98359788E-01 0.66775827E+03</pdfrwt>
<totfact> 0.47368045E+01</totfact>
</mgrwt>
</event>
<event>
 4    2  0.9070994E-007  0.6590866E+03  0.7818608E-02  0.1025112E+00
         -2   -1    0    0    0  501 -0.00000000000E+00  0.00000000000E+00  0.82583003631E+03  0.82583003632E+03  0.25500000000E-02 0.  1.
          2   -1    0    0  501    0  0.00000000000E+00 -0.00000000000E+00 -0.59258118760E+03  0.59258118760E+03  0.25500000000E-02 0. -1.
    8880023    1    1    2    0    0  0.39271335412E+01  0.23864590227E+02 -0.39700099709E+03  0.76941857204E+03  0.65864270000E+03 0. -1.
    8880022    1    1    2    0    0 -0.39271335412E+01 -0.23864590227E+02  0.63024984580E+03  0.64899265188E+03  0.15294330000E+03 0.  0.
<mgrwt>
<rscale>  0 0.45886010E+03</rscale>
<asrwt>0</asrwt>
<pdfrwt beam="1">  1        2 0.91166338E-01 0.65908660E+03</pdfrwt>
<pdfrwt beam="2">  1       -2 0.12705077E+00 0.65908660E+03</pdfrwt>
<totfact> 0.23673906E+01</totfact>
</mgrwt>
</event>
<event>
 4    2  0.9070994E-007  0.7357587E+03  0.7818608E-02  0.9872478E-01
          2   -1    0    0  501    0  0.00000000000E+00  0.00000000000E+00  0.94578421148E+03  0.94578421148E+03  0.25500000000E-02 0. -1.
         -2   -1    0    0    0  501 -0.00000000000E+00 -0.00000000000E+00 -0.11113480734E+04  0.11113480734E+04  0.25500000000E-02 0.  1.
    8880023    1    1    2    0    0  0.31981267660E+03 -0.72460104594E+02  0.76336577094E+03  0.10602207890E+04  0.65864270000E+03 0. -1.
    8880022    1    1    2    0    0 -0.31981267660E+03  0.72460104594E+02 -0.92892963290E+03  0.99691149595E+03  0.15294330000E+03 0.  0.
<mgrwt>
<rscale>  0 0.61613834E+03</rscale>
<asrwt>0</asrwt>
<pdfrwt beam="1">  1        2 0.14550526E+00 0.73575867E+03</pdfrwt>
<pdfrwt beam="2">  1       -2 0.17097663E+00 0.73575867E+03</pdfrwt>
<totfact> 0.58550384E+00</totfact>
</mgrwt>
</event>
<event>
 4    2  0.9070994E-007  0.9190374E+03  0.7818608E-02  0.9496137E-01
          2   -1    0    0  501    0  0.00000000000E+00  0.00000000000E+00  0.15777628061E+04  0.15777628061E+04  0.25500000000E-02 0. -1.
         -2   -1    0    0    0  501 -0.00000000000E+00 -0.00000000000E+00 -0.46357269706E+03  0.46357269707E+03  0.25500000000E-02 0.  1.
    8880023    1    1    2    0    0 -0.46501555200E+02  0.63926298360E+03  0.10245037120E+04  0.13763130527E+04  0.65864270000E+03 0.  0.
    8880022    1    1    2    0    0  0.46501555200E+02 -0.63926298360E+03  0.89686397046E+02  0.66502245049E+03  0.15294330000E+03 0.  0.
<mgrwt>
<rscale>  0 0.84569258E+03</rscale>
<asrwt>0</asrwt>
<pdfrwt beam="1">  1        2 0.24273274E+00 0.91903741E+03</pdfrwt>
<pdfrwt beam="2">  1       -2 0.71318876E-01 0.91903741E+03</pdfrwt>
<totfact> 0.20605951E+01</totfact>
</mgrwt>
</event>
<event>
 4    2  0.9070994E-007  0.7237131E+03  0.7818608E-02  0.9910217E-01
          2   -1    0    0  501    0  0.00000000000E+00  0.00000000000E+00  0.51558164282E+03  0.51558164283E+03  0.25500000000E-02 0. -1.
         -2   -1    0    0    0  501 -0.00000000000E+00 -0.00000000000E+00 -0.90723930865E+03  0.90723930865E+03  0.25500000000E-02 0.  1.
    8880023    1    1    2    0    0 -0.27706878646E+03  0.11481844495E+03  0.19224784857E+03  0.74881227906E+03  0.65864270000E+03 0.  0.
    8880022    1    1    2    0    0  0.27706878646E+03 -0.11481844495E+03 -0.58390551440E+03  0.67400867242E+03  0.15294330000E+03 0.  0.
<mgrwt>
<rscale>  0 0.59768683E+03</rscale>
<asrwt>0</asrwt>
<pdfrwt beam="1">  1        2 0.79320253E-01 0.72371306E+03</pdfrwt>
<pdfrwt beam="2">  1       -2 0.13957528E+00 0.72371306E+03</pdfrwt>
<totfact> 0.21839026E+01</totfact>
</mgrwt>
</event>
<event>
 4    2  0.9070994E-007  0.1207942E+04  0.7818608E-02  0.9149441E-01
         -2   -1    0    0    0  501 -0.00000000000E+00  0.00000000000E+00  0.15482222643E+04  0.15482222643E+04  0.25500000000E-02 0.  1.
          2   -1    0    0  501    0  0.00000000000E+00 -0.00000000000E+00 -0.82726422329E+03  0.82726422329E+03  0.25500000000E-02 0. -1.
    8880023    1    1    2    0    0 -0.57199412060E+03  0.83554535069E+03  0.58596575375E+03  0.13425644781E+04  0.65864270000E+03 0. -1.
    8880022    1    1    2    0    0  0.57199412060E+03 -0.83554535069E+03  0.13499228726E+03  0.10329220095E+04  0.15294330000E+03 0.  0.
<mgrwt>
<rscale>  0 0.11590874E+04</rscale>
<asrwt>0</asrwt>
<pdfrwt beam="1">  1        2 0.12727142E+00 0.12079419E+04</pdfrwt>
<pdfrwt beam="2">  1       -2 0.23818804E+00 0.12079419E+04</pdfrwt>
<totfact> 0.24404275E+00</totfact>
</mgrwt>
</event>
<event>
 4    2  0.9070994E-007  0.6619524E+03  0.7818608E-02  0.1022240E+00
         -2   -1    0    0    0  501 -0.00000000000E+00  0.00000000000E+00  0.15287693582E+03  0.15287693584E+03  0.25500000000E-02 0.  1.
          2   -1    0    0  501    0  0.00000000000E+00 -0.00000000000E+00 -0.42258170447E+04  0.42258170447E+04  0.25500000000E-02 0. -1.
    8880023    1    1    2    0    0  0.32514248279E+02 -0.57563624807E+02 -0.41447362333E+04  0.41972633223E+04  0.65864270000E+03 0. -1.
    8880022    1    1    2    0    0 -0.32514248279E+02  0.57563624807E+02  0.71796124412E+02  0.18143065821E+03  0.15294330000E+03 0.  0.
<mgrwt>
<rscale>  0 0.46886972E+03</rscale>
<asrwt>0</asrwt>
<pdfrwt beam="1">  1        2 0.65012561E+00 0.66195238E+03</pdfrwt>
<pdfrwt beam="2">  1       -2 0.23519532E-01 0.66195238E+03</pdfrwt>
<totfact> 0.40304412E+00</totfact>
</mgrwt>
</event>
<event>
 4    2  0.9070994E-007  0.8057229E+03  0.7818608E-02  0.9698556E-01
          2   -1    0    0  501    0  0.00000000000E+00  0.00000000000E+00  0.59408992139E+03  0.59408992140E+03  0.25500000000E-02 0. -1.
         -2   -1    0    0    0  501 -0.00000000000E+00 -0.00000000000E+00 -0.73736119807E+03  0.73736119808E+03  0.25500000000E-02 0.  1.
    8880023    1    1    2    0    0 -0.31189512931E+03  0.34365758171E+03  0.46950263585E+02  0.80708961006E+03  0.65864270000E+03 0.  0.
    8880022    1    1    2    0    0  0.31189512931E+03 -0.34365758171E+03 -0.19022154027E+03  0.52436150941E+03  0.15294330000E+03 0.  0.
<mgrwt>
<rscale>  0 0.71102833E+03</rscale>
<asrwt>0</asrwt>
<pdfrwt beam="1">  1        2 0.91398449E-01 0.80572285E+03</pdfrwt>
<pdfrwt beam="2">  1       -2 0.11344019E+00 0.80572285E+03</pdfrwt>
<totfact> 0.30855714E+01</totfact>
</mgrwt>
</event>
<event>
 4    2  0.9070994E-007  0.1176474E+04  0.7818608E-02  0.9180338E-01
         -2   -1    0    0    0  501 -0.00000000000E+00  0.00000000000E+00  0.57942085532E+03  0.57942085533E+03  0.25500000000E-02 0.  1.
          2   -1    0    0  501    0  0.00000000000E+00 -0.00000000000E+00 -0.22926667145E+04  0.22926667145E+04  0.25500000000E-02 0. -1.
    8880023    1    1    2    0    0  0.94986172067E+03 -0.21918601189E+03 -0.14171996625E+04  0.18418862304E+04  0.65864270000E+03 0.  0.
    8880022    1    1    2    0    0 -0.94986172067E+03  0.21918601189E+03 -0.29604619676E+03  0.10302013395E+04  0.15294330000E+03 0.  0.
<mgrwt>
<rscale>  0 0.11258698E+04</rscale>
<asrwt>0</asrwt>
<pdfrwt beam="1">  1        2 0.35271795E+00 0.11764735E+04</pdfrwt>
<pdfrwt beam="2">  1       -2 0.89141671E-01 0.11764735E+04</pdfrwt>
<totfact> 0.48722799E+00</totfact>
</mgrwt>
</event>
<event>
 4    2  0.9070994E-007  0.6661664E+03  0.7818608E-02  0.1018574E+00
          2   -1    0    0  501    0  0.00000000000E+00  0.00000000000E+00  0.36066497136E+04  0.36066497136E+04  0.25500000000E-02 0. -1.
         -2   -1    0    0    0  501 -0.00000000000E+00 -0.00000000000E+00 -0.16883264308E+03  0.16883264310E+03  0.25500000000E-02 0.  1.
    8880023    1    1    2    0    0  0.67973558257E+02 -0.73123723495E+02  0.35147297864E+04  0.35773038956E+04  0.65864270000E+03 0. -1.
    8880022    1    1    2    0    0 -0.67973558257E+02  0.73123723495E+02 -0.76912715919E+02  0.19817846110E+03  0.15294330000E+03 0.  0.
<mgrwt>
<rscale>  0 0.48204646E+03</rscale>
<asrwt>0</asrwt>
<pdfrwt beam="1">  1        2 0.55486918E+00 0.66616641E+03</pdfrwt>
<pdfrwt beam="2">  1       -2 0.25974253E-01 0.66616641E+03</pdfrwt>
<totfact> 0.10070864E+01</totfact>
</mgrwt>
</event>
<event>
 4    2  0.9070994E-007  0.6819409E+03  0.7818608E-02  0.1008246E+00
          2   -1    0    0  501    0  0.00000000000E+00  0.00000000000E+00  0.95297748572E+03  0.95297748572E+03  0.25500000000E-02 0. -1.
         -2   -1    0    0    0  501 -0.00000000000E+00 -0.00000000000E+00 -0.73592753995E+03  0.73592753995E+03  0.25500000000E-02 0.  1.
    8880023    1    1    2    0    0  0.35431969091E+02 -0.17314073496E+03  0.80569948281E+03  0.10555543574E+04  0.65864270000E+03 0.  0.
    8880022    1    1    2    0    0 -0.35431969091E+02  0.17314073496E+03 -0.58864953704E+03  0.63335066828E+03  0.15294330000E+03 0.  1.
<mgrwt>
<rscale>  0 0.52177559E+03</rscale>
<asrwt>0</asrwt>
<pdfrwt beam="1">  1        2 0.14661192E+00 0.68194087E+03</pdfrwt>
<pdfrwt beam="2">  1       -2 0.11321962E+00 0.68194087E+03</pdfrwt>
<totfact> 0.16951777E+01</totfact>
</mgrwt>
</event>
<event>
 4    2  0.9070994E-007  0.8612426E+03  0.7818608E-02  0.9591357E-01
          2   -1    0    0  501    0  0.00000000000E+00  0.00000000000E+00  0.61387417532E+03  0.61387417532E+03  0.25500000000E-02 0. -1.
         -2   -1    0    0    0  501 -0.00000000000E+00 -0.00000000000E+00 -0.89884439399E+03  0.89884439400E+03  0.25500000000E-02 0.  1.
    8880023    1    1    2    0    0  0.52687031127E+03  0.17417309163E+03  0.19673853832E+02  0.86146727015E+03  0.65864270000E+03 0. -1.
    8880022    1    1    2    0    0 -0.52687031127E+03 -0.17417309163E+03 -0.30464407251E+03  0.65125129917E+03  0.15294330000E+03 0. -1.
<mgrwt>
<rscale>  0 0.77870887E+03</rscale>
<asrwt>0</asrwt>
<pdfrwt beam="1">  1        2 0.94442180E-01 0.86124259E+03</pdfrwt>
<pdfrwt beam="2">  1       -2 0.13828375E+00 0.86124259E+03</pdfrwt>
<totfact> 0.17961275E+01</totfact>
</mgrwt>
</event>
<event>
 4    2  0.9070994E-007  0.6609634E+03  0.7818608E-02  0.1023190E+00
         -2   -1    0    0    0  501 -0.00000000000E+00  0.00000000000E+00  0.17351134599E+04  0.17351134599E+04  0.25500000000E-02 0.  1.
          2   -1    0    0  501    0  0.00000000000E+00 -0.00000000000E+00 -0.23018117920E+03  0.23018117921E+03  0.25500000000E-02 0. -1.
    8880023    1    1    2    0    0  0.53194444668E+02  0.15255809235E+02  0.26076750517E+03  0.71054365571E+03  0.65864270000E+03 0. -1.
    8880022    1    1    2    0    0 -0.53194444668E+02 -0.15255809235E+02  0.12441647756E+04  0.12547509834E+04  0.15294330000E+03 0.  0.
<mgrwt>
<rscale>  0 0.46552666E+03</rscale>
<asrwt>0</asrwt>
<pdfrwt beam="1">  1        2 0.35412488E-01 0.66096338E+03</pdfrwt>
<pdfrwt beam="2">  1       -2 0.26694054E+00 0.66096338E+03</pdfrwt>
<totfact> 0.77791778E+00</totfact>
</mgrwt>
</event>
<event>
 4    2  0.9070994E-007  0.8619516E+03  0.7818608E-02  0.9590101E-01
         -2   -1    0    0    0  501 -0.00000000000E+00  0.00000000000E+00  0.38069201080E+03  0.38069201081E+03  0.25500000000E-02 0.  1.
          2   -1    0    0  501    0  0.00000000000E+00 -0.00000000000E+00 -0.20452894233E+04  0.20452894233E+04  0.25500000000E-02 0. -1.
    8880023    1    1    2    0    0  0.54366268583E+03  0.11653825456E+03 -0.16353182571E+04  0.18485741232E+04  0.65864270000E+03 0.  0.
    8880022    1    1    2    0    0 -0.54366268583E+03 -0.11653825456E+03 -0.29279155416E+02  0.57740731091E+03  0.15294330000E+03 0. -1.
<mgrwt>
<rscale>  0 0.77954815E+03</rscale>
<asrwt>0</asrwt>
<pdfrwt beam="1">  1        2 0.31465990E+00 0.86195156E+03</pdfrwt>
<pdfrwt beam="2">  1       -2 0.58568003E-01 0.86195156E+03</pdfrwt>
<totfact> 0.17528196E+01</totfact>
</mgrwt>
</event>
<event>
 4    2  0.9070994E-007  0.7232100E+03  0.7818608E-02  0.9911870E-01
          2   -1    0    0  501    0  0.00000000000E+00  0.00000000000E+00  0.59579076000E+03  0.59579076000E+03  0.25500000000E-02 0. -1.
         -2   -1    0    0    0  501 -0.00000000000E+00 -0.00000000000E+00 -0.57151683052E+03  0.57151683053E+03  0.25500000000E-02 0.  1.
    8880023    1    1    2    0    0 -0.29631654875E+03 -0.37669649253E+02  0.24735887097E+03  0.76434227729E+03  0.65864270000E+03 0. -1.
    8880022    1    1    2    0    0  0.29631654875E+03  0.37669649253E+02 -0.22308494150E+03  0.40296531324E+03  0.15294330000E+03 0.  0.
<mgrwt>
<rscale>  0 0.59689431E+03</rscale>
<asrwt>0</asrwt>
<pdfrwt beam="1">  1        2 0.91660117E-01 0.72321000E+03</pdfrwt>
<pdfrwt beam="2">  1       -2 0.87925666E-01 0.72321000E+03</pdfrwt>
<totfact> 0.56562597E+01</totfact>
</mgrwt>
</event>
<event>
 4    2  0.9070994E-007  0.9196635E+03  0.7818608E-02  0.9495175E-01
         -2   -1    0    0    0  501 -0.00000000000E+00  0.00000000000E+00  0.39140226825E+03  0.39140226826E+03  0.25500000000E-02 0.  1.
          2   -1    0    0  501    0  0.00000000000E+00 -0.00000000000E+00 -0.24458209905E+04  0.24458209905E+04  0.25500000000E-02 0. -1.
    8880023    1    1    2    0    0 -0.19932552232E+03  0.61011476945E+03 -0.19673386648E+04  0.21716819113E+04  0.65864270000E+03 0.  0.
    8880022    1    1    2    0    0  0.19932552232E+03 -0.61011476945E+03 -0.87080057474E+02  0.66554134746E+03  0.15294330000E+03 0.  0.
<mgrwt>
<rscale>  0 0.84640469E+03</rscale>
<asrwt>0</asrwt>
<pdfrwt beam="1">  1        2 0.37628014E+00 0.91966347E+03</pdfrwt>
<pdfrwt beam="2">  1       -2 0.60215735E-01 0.91966347E+03</pdfrwt>
<totfact> 0.98199463E+00</totfact>
</mgrwt>
</event>
<event>
 4    2  0.9070994E-007  0.7231045E+03  0.7818608E-02  0.9912218E-01
          2   -1    0    0  501    0  0.00000000000E+00  0.00000000000E+00  0.19319418336E+04  0.19319418336E+04  0.25500000000E-02 0. -1.
         -2   -1    0    0    0  501 -0.00000000000E+00 -0.00000000000E+00 -0.22447808106E+03  0.22447808108E+03  0.25500000000E-02 0.  1.
    8880023    1    1    2    0    0 -0.29652802610E+03  0.33779817933E+02  0.16689455782E+04  0.18188621431E+04  0.65864270000E+03 0. -1.
    8880022    1    1    2    0    0  0.29652802610E+03 -0.33779817933E+02  0.38518174312E+02  0.33755777155E+03  0.15294330000E+03 0.  1.
<mgrwt>
<rscale>  0 0.59672790E+03</rscale>
<asrwt>0</asrwt>
<pdfrwt beam="1">  1        2 0.29722183E+00 0.72310452E+03</pdfrwt>
<pdfrwt beam="2">  1       -2 0.34535088E-01 0.72310452E+03</pdfrwt>
<totfact> 0.59060355E+01</totfact>
</mgrwt>
</event>
<event>
 4    2  0.9070994E-007  0.6631279E+03  0.7818608E-02  0.1021159E+00
          2   -1    0    0  501    0  0.00000000000E+00  0.00000000000E+00  0.14479631304E+04  0.14479631304E+04  0.25500000000E-02 0. -1.
         -2   -1    0    0    0  501 -0.00000000000E+00 -0.00000000000E+00 -0.13641940256E+03  0.13641940258E+03  0.25500000000E-02 0.  1.
    8880023    1    1    2    0    0 -0.65248162656E+02  0.40878311124E+02  0.12239540153E+04  0.13920495670E+04  0.65864270000E+03 0. -1.
    8880022    1    1    2    0    0  0.65248162656E+02 -0.40878311124E+02  0.87589712505E+02  0.19233296598E+03  0.15294330000E+03 0.  0.
<mgrwt>
<rscale>  0 0.47270857E+03</rscale>
<asrwt>0</asrwt>
<pdfrwt beam="1">  1        2 0.22276356E+00 0.66312786E+03</pdfrwt>
<pdfrwt beam="2">  1       -2 0.20987600E-01 0.66312786E+03</pdfrwt>
<totfact> 0.27142196E+02</totfact>
</mgrwt>
</event>
<event>
 4    2  0.1182955E-006  0.8822401E+03  0.7818608E-02  0.9555165E-01
          2   -1    0    0  501    0  0.00000000000E+00  0.00000000000E+00  0.23634098233E+04  0.23634098233E+04  0.25500000000E-02 0. -1.
         -2   -1    0    0    0  501 -0.00000000000E+00 -0.00000000000E+00 -0.10226593154E+04  0.10226593154E+04  0.25500000000E-02 0.  1.
    8880023    1    1    2    0    0  0.57726532270E+03 -0.10631180680E+03  0.21793155135E+04  0.23511196836E+04  0.65864270000E+03 0. -1.
    8880022    1    1    2    0    0 -0.57726532270E+03  0.10631180680E+03 -0.83856500561E+03  0.10349494551E+04  0.15294330000E+03 0.  0.
<mgrwt>
<rscale>  0 0.80336078E+03</rscale>
<asrwt>0</asrwt>
<pdfrwt beam="1">  1        2 0.36360151E+00 0.88224014E+03</pdfrwt>
<pdfrwt beam="2">  1       -2 0.15733220E+00 0.88224014E+03</pdfrwt>
<totfact> 0.11248985E+00</totfact>
</mgrwt>
</event>
<event>
 4    2  0.9070994E-007  0.7853334E+03  0.7818608E-02  0.9743455E-01
         -2   -1    0    0    0  501 -0.00000000000E+00  0.00000000000E+00  0.26210306813E+03  0.26210306814E+03  0.25500000000E-02 0.  1.
          2   -1    0    0  501    0  0.00000000000E+00 -0.00000000000E+00 -0.16853120817E+04  0.16853120817E+04  0.25500000000E-02 0. -1.
    8880023    1    1    2    0    0  0.18468652138E+03 -0.38578397607E+03 -0.12174046589E+04  0.14487314096E+04  0.65864270000E+03 0. -1.
    8880022    1    1    2    0    0 -0.18468652138E+03  0.38578397607E+03 -0.20580435468E+03  0.49868374025E+03  0.15294330000E+03 0.  0.
<mgrwt>
<rscale>  0 0.68487430E+03</rscale>
<asrwt>0</asrwt>
<pdfrwt beam="1">  1        2 0.25927878E+00 0.78533343E+03</pdfrwt>
<pdfrwt beam="2">  1       -2 0.40323550E-01 0.78533343E+03</pdfrwt>
<totfact> 0.59333710E+01</totfact>
</mgrwt>
</event>
<event>
 4    2  0.9070994E-007  0.7548492E+03  0.7818608E-02  0.9818630E-01
         -2   -1    0    0    0  501 -0.00000000000E+00  0.00000000000E+00  0.38753958201E+03  0.38753958202E+03  0.25500000000E-02 0.  1.
          2   -1    0    0  501    0  0.00000000000E+00 -0.00000000000E+00 -0.33379683345E+04  0.33379683345E+04  0.25500000000E-02 0. -1.
    8880023    1    1    2    0    0 -0.24714073936E+03  0.27369417085E+03 -0.31777010843E+04  0.32661263649E+04  0.65864270000E+03 0.  0.
    8880022    1    1    2    0    0  0.24714073936E+03 -0.27369417085E+03  0.22727233176E+03  0.45938155166E+03  0.15294330000E+03 0.  0.
<mgrwt>
<rscale>  0 0.64372283E+03</rscale>
<asrwt>0</asrwt>
<pdfrwt beam="1">  1        2 0.51353357E+00 0.75484916E+03</pdfrwt>
<pdfrwt beam="2">  1       -2 0.59621476E-01 0.75484916E+03</pdfrwt>
<totfact> 0.29742252E+00</totfact>
</mgrwt>
</event>
<event>
 4    2  0.9070994E-007  0.7577855E+03  0.7818608E-02  0.9810875E-01
          2   -1    0    0  501    0  0.00000000000E+00  0.00000000000E+00  0.35781154835E+04  0.35781154835E+04  0.25500000000E-02 0. -1.
         -2   -1    0    0    0  501 -0.00000000000E+00 -0.00000000000E+00 -0.25695655573E+03  0.25695655575E+03  0.25500000000E-02 0.  1.
    8880023    1    1    2    0    0  0.35032287972E+03  0.13305061337E+03  0.33448664094E+04  0.34296311885E+04  0.65864270000E+03 0.  0.
    8880022    1    1    2    0    0 -0.35032287972E+03 -0.13305061337E+03 -0.23707481664E+02  0.40544085077E+03  0.15294330000E+03 0.  1.
<mgrwt>
<rscale>  0 0.64782192E+03</rscale>
<asrwt>0</asrwt>
<pdfrwt beam="1">  1        2 0.55047935E+00 0.75778545E+03</pdfrwt>
<pdfrwt beam="2">  1       -2 0.39531774E-01 0.75778545E+03</pdfrwt>
<totfact> 0.47020117E+00</totfact>
</mgrwt>
</event>
<event>
 4    2  0.9070994E-007  0.7193900E+03  0.7818608E-02  0.9924655E-01
          2   -1    0    0  501    0  0.00000000000E+00  0.00000000000E+00  0.86541436461E+03  0.86541436462E+03  0.25500000000E-02 0. -1.
         -2   -1    0    0    0  501 -0.00000000000E+00 -0.00000000000E+00 -0.10111295900E+04  0.10111295900E+04  0.25500000000E-02 0.  1.
    8880023    1    1    2    0    0 -0.27278107420E+03 -0.96448435846E+02  0.67902755576E+03  0.98924235805E+03  0.65864270000E+03 0. -1.
    8880022    1    1    2    0    0  0.27278107420E+03  0.96448435846E+02 -0.82474278119E+03  0.88730159662E+03  0.15294330000E+03 0.  0.
<mgrwt>
<rscale>  0 0.59081125E+03</rscale>
<asrwt>0</asrwt>
<pdfrwt beam="1">  1        2 0.13314067E+00 0.71939003E+03</pdfrwt>
<pdfrwt beam="2">  1       -2 0.15555840E+00 0.71939003E+03</pdfrwt>
<totfact> 0.85958705E+00</totfact>
</mgrwt>
</event>
<event>
 4    2  0.9070994E-007  0.7774574E+03  0.7818608E-02  0.9761844E-01
         -2   -1    0    0    0  501 -0.00000000000E+00  0.00000000000E+00  0.33323795649E+03  0.33323795650E+03  0.25500000000E-02 0.  1.
          2   -1    0    0  501    0  0.00000000000E+00 -0.00000000000E+00 -0.15680707384E+04  0.15680707384E+04  0.25500000000E-02 0. -1.
    8880023    1    1    2    0    0 -0.97488592561E+01  0.41295854438E+03 -0.12367586971E+04  0.14608258215E+04  0.65864270000E+03 0.  0.
    8880022    1    1    2    0    0  0.97488592561E+01 -0.41295854438E+03  0.19259151495E+01  0.44048287345E+03  0.15294330000E+03 0.  0.
<mgrwt>
<rscale>  0 0.67451043E+03</rscale>
<asrwt>0</asrwt>
<pdfrwt beam="1">  1        2 0.24124165E+00 0.77745740E+03</pdfrwt>
<pdfrwt beam="2">  1       -2 0.51267379E-01 0.77745740E+03</pdfrwt>
<totfact> 0.42628636E+01</totfact>
</mgrwt>
</event>
<event>
 4    2  0.9070994E-007  0.1208580E+04  0.7818608E-02  0.9148827E-01
         -2   -1    0    0    0  501 -0.00000000000E+00  0.00000000000E+00  0.19889878970E+04  0.19889878970E+04  0.25500000000E-02 0.  1.
          2   -1    0    0  501    0  0.00000000000E+00 -0.00000000000E+00 -0.98348258938E+03  0.98348258938E+03  0.25500000000E-02 0. -1.
    8880023    1    1    2    0    0  0.54767963914E+03 -0.85258583273E+03  0.14220362248E+04  0.18662402901E+04  0.65864270000E+03 0.  0.
    8880022    1    1    2    0    0 -0.54767963914E+03  0.85258583273E+03 -0.41653091718E+03  0.11062301963E+04  0.15294330000E+03 0.  0.
<mgrwt>
<rscale>  0 0.11597597E+04</rscale>
<asrwt>0</asrwt>
<pdfrwt beam="1">  1        2 0.15130502E+00 0.12085801E+04</pdfrwt>
<pdfrwt beam="2">  1       -2 0.30599813E+00 0.12085801E+04</pdfrwt>
<totfact> 0.73721332E-01</totfact>
</mgrwt>
</event>
<event>
 4    2  0.9070994E-007  0.7288503E+03  0.7818608E-02  0.9893703E-01
         -2   -1    0    0    0  501 -0.00000000000E+00  0.00000000000E+00  0.17948301728E+03  0.17948301730E+03  0.25500000000E-02 0.  1.
          2   -1    0    0  501    0  0.00000000000E+00 -0.00000000000E+00 -0.31865394622E+04  0.31865394622E+04  0.25500000000E-02 0. -1.
    8880023    1    1    2    0    0  0.96505789657E+02 -0.29681512873E+03 -0.29174140753E+04  0.30070795934E+04  0.65864270000E+03 0. -1.
    8880022    1    1    2    0    0 -0.96505789657E+02  0.29681512873E+03 -0.89642369702E+02  0.35894288618E+03  0.15294330000E+03 0.  0.
<mgrwt>
<rscale>  0 0.60567415E+03</rscale>
<asrwt>0</asrwt>
<pdfrwt beam="1">  1        2 0.49023680E+00 0.72885032E+03</pdfrwt>
<pdfrwt beam="2">  1       -2 0.27612774E-01 0.72885032E+03</pdfrwt>
<totfact> 0.16925913E+01</totfact>
</mgrwt>
</event>
<event>
 4    2  0.9070994E-007  0.7538897E+03  0.7818608E-02  0.9821191E-01
         -2   -1    0    0    0  501 -0.00000000000E+00  0.00000000000E+00  0.25162539634E+03  0.25162539636E+03  0.25500000000E-02 0.  1.
          2   -1    0    0  501    0  0.00000000000E+00 -0.00000000000E+00 -0.17286718991E+04  0.17286718991E+04  0.25500000000E-02 0. -1.
    8880023    1    1    2    0    0 -0.18348732850E+03 -0.31760323268E+03 -0.13779873828E+04  0.15707319461E+04  0.65864270000E+03 0. -1.
    8880022    1    1    2    0    0  0.18348732850E+03  0.31760323268E+03 -0.99059119970E+02  0.40956534936E+03  0.15294330000E+03 0.  0.
<mgrwt>
<rscale>  0 0.64237597E+03</rscale>
<asrwt>0</asrwt>
<pdfrwt beam="1">  1        2 0.26594952E+00 0.75388966E+03</pdfrwt>
<pdfrwt beam="2">  1       -2 0.38711600E-01 0.75388966E+03</pdfrwt>
<totfact> 0.61019420E+01</totfact>
</mgrwt>
</event>
<event>
 4    2  0.9070994E-007  0.8266913E+03  0.7818608E-02  0.9655805E-01
         -2   -1    0    0    0  501 -0.00000000000E+00  0.00000000000E+00  0.31295458633E+03  0.31295458634E+03  0.25500000000E-02 0.  1.
          2   -1    0    0  501    0  0.00000000000E+00 -0.00000000000E+00 -0.31215421153E+04  0.31215421153E+04  0.25500000000E-02 0. -1.
    8880023    1    1    2    0    0  0.49367689120E+03  0.76755245769E+02 -0.27919156752E+04  0.29117368673E+04  0.65864270000E+03 0.  0.
    8880022    1    1    2    0    0 -0.49367689120E+03 -0.76755245769E+02 -0.16671853745E+02  0.52275983432E+03  0.15294330000E+03 0.  0.
<mgrwt>
<rscale>  0 0.73710239E+03</rscale>
<asrwt>0</asrwt>
<pdfrwt beam="1">  1        2 0.48023723E+00 0.82669126E+03</pdfrwt>
<pdfrwt beam="2">  1       -2 0.48146862E-01 0.82669126E+03</pdfrwt>
<totfact> 0.62817394E+00</totfact>
</mgrwt>
</event>
<event>
 4    2  0.9070994E-007  0.1026653E+04  0.7818608E-02  0.9347489E-01
          2   -1    0    0  501    0  0.00000000000E+00  0.00000000000E+00  0.17772233561E+04  0.17772233561E+04  0.25500000000E-02 0. -1.
         -2   -1    0    0    0  501 -0.00000000000E+00 -0.00000000000E+00 -0.77531118094E+03  0.77531118094E+03  0.25500000000E-02 0.  1.
    8880023    1    1    2    0    0  0.32335209340E+03 -0.71808707340E+03  0.13348086074E+04  0.16839625429E+04  0.65864270000E+03 0. -1.
    8880022    1    1    2    0    0 -0.32335209340E+03  0.71808707340E+03 -0.33289643227E+03  0.86857199409E+03  0.15294330000E+03 0.  0.
<mgrwt>
<rscale>  0 0.96526031E+03</rscale>
<asrwt>0</asrwt>
<pdfrwt beam="1">  1        2 0.27341898E+00 0.10266527E+04</pdfrwt>
<pdfrwt beam="2">  1       -2 0.11927864E+00 0.10266527E+04</pdfrwt>
<totfact> 0.47566958E+00</totfact>
</mgrwt>
</event>
<event>
 4    2  0.9070994E-007  0.1028440E+04  0.7818608E-02  0.9345260E-01
         -2   -1    0    0    0  501 -0.00000000000E+00  0.00000000000E+00  0.33590907491E+03  0.33590907492E+03  0.25500000000E-02 0.  1.
          2   -1    0    0  501    0  0.00000000000E+00 -0.00000000000E+00 -0.26460477279E+04  0.26460477279E+04  0.25500000000E-02 0. -1.
    8880023    1    1    2    0    0  0.10573640036E+03  0.78275036559E+03 -0.16356000841E+04  0.19320652583E+04  0.65864270000E+03 0.  0.
    8880022    1    1    2    0    0 -0.10573640036E+03 -0.78275036559E+03 -0.67453856890E+03  0.10498915445E+04  0.15294330000E+03 0.  0.
<mgrwt>
<rscale>  0 0.96720794E+03</rscale>
<asrwt>0</asrwt>
<pdfrwt beam="1">  1        2 0.40708425E+00 0.10284399E+04</pdfrwt>
<pdfrwt beam="2">  1       -2 0.51678321E-01 0.10284399E+04</pdfrwt>
<totfact> 0.10226430E+01</totfact>
</mgrwt>
</event>
<event>
 4    2  0.9070994E-007  0.1081733E+04  0.7818608E-02  0.9281672E-01
         -2   -1    0    0    0  501 -0.00000000000E+00  0.00000000000E+00  0.54011657943E+03  0.54011657943E+03  0.25500000000E-02 0.  1.
          2   -1    0    0  501    0  0.00000000000E+00 -0.00000000000E+00 -0.31516223567E+04  0.31516223567E+04  0.25500000000E-02 0. -1.
    8880023    1    1    2    0    0 -0.78981237316E+03 -0.33545918526E+03 -0.26043689751E+04  0.28200858878E+04  0.65864270000E+03 0. -1.
    8880022    1    1    2    0    0  0.78981237316E+03  0.33545918526E+03 -0.71368022006E+01  0.87165304838E+03  0.15294330000E+03 0.  0.
<mgrwt>
<rscale>  0 0.10248785E+04</rscale>
<asrwt>0</asrwt>
<pdfrwt beam="1">  1        2 0.48486497E+00 0.10817332E+04</pdfrwt>
<pdfrwt beam="2">  1       -2 0.83094860E-01 0.10817332E+04</pdfrwt>
<totfact> 0.17901047E+00</totfact>
</mgrwt>
</event>
<event>
 4    2  0.9070994E-007  0.8945339E+03  0.7818608E-02  0.9534864E-01
          2   -1    0    0  501    0  0.00000000000E+00  0.00000000000E+00  0.34564673174E+04  0.34564673174E+04  0.25500000000E-02 0. -1.
         -2   -1    0    0    0  501 -0.00000000000E+00 -0.00000000000E+00 -0.42571057452E+03  0.42571057453E+03  0.25500000000E-02 0.  1.
    8880023    1    1    2    0    0  0.45016235150E+03  0.40464124800E+03  0.31252495087E+04  0.32507499720E+04  0.65864270000E+03 0. -1.
    8880022    1    1    2    0    0 -0.45016235150E+03 -0.40464124800E+03 -0.94492765829E+02  0.63142791996E+03  0.15294330000E+03 0.  0.
<mgrwt>
<rscale>  0 0.81761524E+03</rscale>
<asrwt>0</asrwt>
<pdfrwt beam="1">  1        2 0.53176419E+00 0.89453389E+03</pdfrwt>
<pdfrwt beam="2">  1       -2 0.65493936E-01 0.89453389E+03</pdfrwt>
<totfact> 0.19738941E+00</totfact>
</mgrwt>
</event>
<event>
 4    2  0.9070994E-007  0.7120046E+03  0.7818608E-02  0.9950631E-01
         -2   -1    0    0    0  501 -0.00000000000E+00  0.00000000000E+00  0.72939042036E+02  0.72939042081E+02  0.25500000000E-02 0.  1.
          2   -1    0    0  501    0  0.00000000000E+00 -0.00000000000E+00 -0.41173968736E+04  0.41173968736E+04  0.25500000000E-02 0. -1.
    8880023    1    1    2    0    0 -0.13480993070E+03  0.23444950204E+03 -0.34142753619E+04  0.34877251525E+04  0.65864270000E+03 0.  0.
    8880022    1    1    2    0    0  0.13480993070E+03 -0.23444950204E+03 -0.63018246970E+03  0.70261076319E+03  0.15294330000E+03 0.  0.
<mgrwt>
<rscale>  0 0.57868998E+03</rscale>
<asrwt>0</asrwt>
<pdfrwt beam="1">  1        2 0.63344549E+00 0.71200456E+03</pdfrwt>
<pdfrwt beam="2">  1       -2 0.11221394E-01 0.71200456E+03</pdfrwt>
<totfact> 0.17356686E+01</totfact>
</mgrwt>
</event>
<event>
 4    2  0.9070994E-007  0.7047466E+03  0.7818608E-02  0.9978052E-01
          2   -1    0    0  501    0  0.00000000000E+00  0.00000000000E+00  0.25420777717E+04  0.25420777717E+04  0.25500000000E-02 0. -1.
         -2   -1    0    0    0  501 -0.00000000000E+00 -0.00000000000E+00 -0.18824428987E+03  0.18824428989E+03  0.25500000000E-02 0.  1.
    8880023    1    1    2    0    0 -0.16223361178E+03  0.19114850009E+03  0.23316217613E+04  0.24358012518E+04  0.65864270000E+03 0. -1.
    8880022    1    1    2    0    0  0.16223361178E+03 -0.19114850009E+03  0.22211720483E+02  0.29452080982E+03  0.15294330000E+03 0.  0.
<mgrwt>
<rscale>  0 0.56623156E+03</rscale>
<asrwt>0</asrwt>
<pdfrwt beam="1">  1        2 0.39108887E+00 0.70474655E+03</pdfrwt>
<pdfrwt beam="2">  1       -2 0.28960661E-01 0.70474655E+03</pdfrwt>
<totfact> 0.37822693E+01</totfact>
</mgrwt>
</event>
<event>
 4    2  0.9070994E-007  0.6763814E+03  0.7818608E-02  0.1011449E+00
         -2   -1    0    0    0  501 -0.00000000000E+00  0.00000000000E+00  0.55931655813E+03  0.55931655813E+03  0.25500000000E-02 0.  1.
          2   -1    0    0  501    0  0.00000000000E+00 -0.00000000000E+00 -0.18088064758E+04  0.18088064758E+04  0.25500000000E-02 0. -1.
    8880023    1    1    2    0    0  0.15087930556E+03  0.30281687153E+02 -0.17209709282E+04  0.18491167317E+04  0.65864270000E+03 0.  0.
    8880022    1    1    2    0    0 -0.15087930556E+03 -0.30281687153E+02  0.47148101055E+03  0.51900630223E+03  0.15294330000E+03 0.  1.
<mgrwt>
<rscale>  0 0.50902655E+03</rscale>
<asrwt>0</asrwt>
<pdfrwt beam="1">  1        2 0.27827792E+00 0.67638137E+03</pdfrwt>
<pdfrwt beam="2">  1       -2 0.86048702E-01 0.67638137E+03</pdfrwt>
<totfact> 0.10422864E+01</totfact>
</mgrwt>
</event>
<event>
 4    2  0.9070994E-007  0.6809450E+03  0.7818608E-02  0.1008794E+00
         -2   -1    0    0    0  501 -0.00000000000E+00  0.00000000000E+00  0.11206925452E+03  0.11206925455E+03  0.25500000000E-02 0.  1.
          2   -1    0    0  501    0  0.00000000000E+00 -0.00000000000E+00 -0.22923546934E+04  0.22923546934E+04  0.25500000000E-02 0. -1.
    8880023    1    1    2    0    0 -0.84811000004E+02  0.15060849029E+03 -0.19963763023E+04  0.21093137201E+04  0.65864270000E+03 0. -1.
    8880022    1    1    2    0    0  0.84811000004E+02 -0.15060849029E+03 -0.18390913661E+03  0.29511022790E+03  0.15294330000E+03 0.  0.
<mgrwt>
<rscale>  0 0.51956725E+03</rscale>
<asrwt>0</asrwt>
<pdfrwt beam="1">  1        2 0.35266992E+00 0.68094495E+03</pdfrwt>
<pdfrwt beam="2">  1       -2 0.17241425E-01 0.68094495E+03</pdfrwt>
<totfact> 0.13154471E+02</totfact>
</mgrwt>
</event>
<event>
 4    2  0.9070994E-007  0.9435756E+03  0.7818608E-02  0.9459418E-01
         -2   -1    0    0    0  501 -0.00000000000E+00  0.00000000000E+00  0.69944390586E+03  0.69944390586E+03  0.25500000000E-02 0.  1.
          2   -1    0    0  501    0  0.00000000000E+00 -0.00000000000E+00 -0.27109889591E+04  0.27109889591E+04  0.25500000000E-02 0. -1.
    8880023    1    1    2    0    0  0.65460362525E+03 -0.16738840415E+03 -0.24260839104E+04  0.26031170029E+04  0.65864270000E+03 0.  0.
    8880022    1    1    2    0    0 -0.65460362525E+03  0.16738840415E+03  0.41453885718E+03  0.80731586208E+03  0.15294330000E+03 0.  0.
<mgrwt>
<rscale>  0 0.87343028E+03</rscale>
<asrwt>0</asrwt>
<pdfrwt beam="1">  1        2 0.41707522E+00 0.94357564E+03</pdfrwt>
<pdfrwt beam="2">  1       -2 0.10760676E+00 0.94357564E+03</pdfrwt>
<totfact> 0.18509826E+00</totfact>
</mgrwt>
</event>
<event>
 4    2  0.9070994E-007  0.7980132E+03  0.7818608E-02  0.9715108E-01
          2   -1    0    0  501    0  0.00000000000E+00  0.00000000000E+00  0.16865449387E+04  0.16865449387E+04  0.25500000000E-02 0. -1.
         -2   -1    0    0    0  501 -0.00000000000E+00 -0.00000000000E+00 -0.25613460252E+03  0.25613460254E+03  0.25500000000E-02 0.  1.
    8880023    1    1    2    0    0 -0.20053042451E+03 -0.40348790462E+03  0.65263897324E+03  0.10309038636E+04  0.65864270000E+03 0.  0.
    8880022    1    1    2    0    0  0.20053042451E+03  0.40348790462E+03  0.77777136297E+03  0.91177567767E+03  0.15294330000E+03 0.  0.
<mgrwt>
<rscale>  0 0.70124328E+03</rscale>
<asrwt>0</asrwt>
<pdfrwt beam="1">  1        2 0.25946846E+00 0.79801325E+03</pdfrwt>
<pdfrwt beam="2">  1       -2 0.39405322E-01 0.79801325E+03</pdfrwt>
<totfact> 0.61884960E+01</totfact>
</mgrwt>
</event>
<event>
 4    2  0.9070994E-007  0.6656425E+03  0.7818608E-02  0.1019000E+00
         -2   -1    0    0    0  501 -0.00000000000E+00  0.00000000000E+00  0.52934247364E+02  0.52934247426E+02  0.25500000000E-02 0.  1.
          2   -1    0    0  501    0  0.00000000000E+00 -0.00000000000E+00 -0.44297485584E+04  0.44297485584E+04  0.25500000000E-02 0. -1.
    8880023    1    1    2    0    0 -0.96030508930E+02  0.69226472131E+01 -0.40890488278E+04  0.41428734356E+04  0.65864270000E+03 0.  0.
    8880022    1    1    2    0    0  0.96030508930E+02 -0.69226472131E+01 -0.28776548333E+03  0.33980937023E+03  0.15294330000E+03 0.  0.
<mgrwt>
<rscale>  0 0.48049095E+03</rscale>
<asrwt>0</asrwt>
<pdfrwt beam="1">  1        2 0.68149949E+00 0.66564254E+03</pdfrwt>
<pdfrwt beam="2">  1       -2 0.81437338E-02 0.66564254E+03</pdfrwt>
<totfact> 0.15786702E+01</totfact>
</mgrwt>
</event>
<event>
 4    2  0.9070994E-007  0.7822057E+03  0.7818608E-02  0.9750681E-01
         -2   -1    0    0    0  501 -0.00000000000E+00  0.00000000000E+00  0.49197332142E+03  0.49197332142E+03  0.25500000000E-02 0.  1.
          2   -1    0    0  501    0  0.00000000000E+00 -0.00000000000E+00 -0.14964471355E+04  0.14964471355E+04  0.25500000000E-02 0. -1.
    8880023    1    1    2    0    0 -0.11088160046E+03  0.40711281656E+03 -0.12517138165E+04  0.14760193967E+04  0.65864270000E+03 0. -1.
    8880022    1    1    2    0    0  0.11088160046E+03 -0.40711281656E+03  0.24724000241E+03  0.51240106024E+03  0.15294330000E+03 0.  1.
<mgrwt>
<rscale>  0 0.68077800E+03</rscale>
<asrwt>0</asrwt>
<pdfrwt beam="1">  1        2 0.23022264E+00 0.78220572E+03</pdfrwt>
<pdfrwt beam="2">  1       -2 0.75688204E-01 0.78220572E+03</pdfrwt>
<totfact> 0.20352903E+01</totfact>
</mgrwt>
</event>
<event>
 4    2  0.9070994E-007  0.7336677E+03  0.7818608E-02  0.9878792E-01
         -2   -1    0    0    0  501 -0.00000000000E+00  0.00000000000E+00  0.35881082249E+03  0.35881082249E+03  0.25500000000E-02 0.  1.
          2   -1    0    0  501    0  0.00000000000E+00 -0.00000000000E+00 -0.11028870922E+04  0.11028870922E+04  0.25500000000E-02 0. -1.
    8880023    1    1    2    0    0  0.18966926097E+03 -0.26169384480E+03 -0.81562676735E+03  0.10970484615E+04  0.65864270000E+03 0.  1.
    8880022    1    1    2    0    0 -0.18966926097E+03  0.26169384480E+03  0.71550497683E+02  0.36464945317E+03  0.15294330000E+03 0.  0.
<mgrwt>
<rscale>  0 0.61300221E+03</rscale>
<asrwt>0</asrwt>
<pdfrwt beam="1">  1        2 0.16967494E+00 0.73366771E+03</pdfrwt>
<pdfrwt beam="2">  1       -2 0.55201665E-01 0.73366771E+03</pdfrwt>
<totfact> 0.68093317E+01</totfact>
</mgrwt>
</event>
<event>
 4    2  0.9070994E-007  0.8584662E+03  0.7818608E-02  0.9596298E-01
          2   -1    0    0  501    0  0.00000000000E+00  0.00000000000E+00  0.76363777428E+03  0.76363777429E+03  0.25500000000E-02 0. -1.
         -2   -1    0    0    0  501 -0.00000000000E+00 -0.00000000000E+00 -0.13673923879E+04  0.13673923879E+04  0.25500000000E-02 0.  1.
    8880023    1    1    2    0    0 -0.36664069867E+03 -0.41076587481E+03  0.42219799209E+03  0.95666888557E+03  0.65864270000E+03 0. -1.
    8880022    1    1    2    0    0  0.36664069867E+03  0.41076587481E+03 -0.10259526057E+04  0.11743612766E+04  0.15294330000E+03 0.  0.
<mgrwt>
<rscale>  0 0.77541713E+03</rscale>
<asrwt>0</asrwt>
<pdfrwt beam="1">  1        2 0.11748273E+00 0.85846620E+03</pdfrwt>
<pdfrwt beam="2">  1       -2 0.21036806E+00 0.85846620E+03</pdfrwt>
<totfact> 0.42101146E+00</totfact>
</mgrwt>
</event>
<event>
 4    2  0.9070994E-007  0.2306921E+04  0.7818608E-02  0.8484299E-01
          2   -1    0    0  501    0  0.00000000000E+00  0.00000000000E+00  0.39655584287E+04  0.39655584287E+04  0.25500000000E-02 0. -1.
         -2   -1    0    0    0  501 -0.00000000000E+00 -0.00000000000E+00 -0.15362391180E+04  0.15362391180E+04  0.25500000000E-02 0.  1.
    8880023    1    1    2    0    0  0.17385046311E+04  0.13658975052E+04  0.23368146843E+04  0.32836850370E+04  0.65864270000E+03 0.  0.
    8880022    1    1    2    0    0 -0.17385046311E+04 -0.13658975052E+04  0.92504626375E+02  0.22181125098E+04  0.15294330000E+03 0.  0.
<mgrwt>
<rscale>  0 0.22838940E+04</rscale>
<asrwt>0</asrwt>
<pdfrwt beam="1">  1        2 0.61008591E+00 0.23069210E+04</pdfrwt>
<pdfrwt beam="2">  1       -2 0.23634448E+00 0.23069210E+04</pdfrwt>
<totfact> 0.24558863E-02</totfact>
</mgrwt>
</event>
<event>
 4    2  0.9070994E-007  0.6623593E+03  0.7818608E-02  0.1021860E+00
          2   -1    0    0  501    0  0.00000000000E+00  0.00000000000E+00  0.15901160206E+04  0.15901160206E+04  0.25500000000E-02 0. -1.
         -2   -1    0    0    0  501 -0.00000000000E+00 -0.00000000000E+00 -0.90155778721E+03  0.90155778721E+03  0.25500000000E-02 0.  1.
    8880023    1    1    2    0    0 -0.36361183702E+02  0.59895508683E+02  0.15122673470E+04  0.16509610361E+04  0.65864270000E+03 0. -1.
    8880022    1    1    2    0    0  0.36361183702E+02 -0.59895508683E+02 -0.82370911362E+03  0.84071277171E+03  0.15294330000E+03 0.  0.
<mgrwt>
<rscale>  0 0.47021442E+03</rscale>
<asrwt>0</asrwt>
<pdfrwt beam="1">  1        2 0.24463323E+00 0.66235928E+03</pdfrwt>
<pdfrwt beam="2">  1       -2 0.13870120E+00 0.66235928E+03</pdfrwt>
<totfact> 0.43344092E+00</totfact>
</mgrwt>
</event>
<event>
 4    2  0.9070994E-007  0.7934294E+03  0.7818608E-02  0.9725187E-01
          2   -1    0    0  501    0  0.00000000000E+00  0.00000000000E+00  0.78986573994E+03  0.78986573994E+03  0.25500000000E-02 0. -1.
         -2   -1    0    0    0  501 -0.00000000000E+00 -0.00000000000E+00 -0.94413722826E+03  0.94413722827E+03  0.25500000000E-02 0.  1.
    8880023    1    1    2    0    0  0.42987839701E+03 -0.10452072737E+03  0.49381381899E+03  0.93454925646E+03  0.65864270000E+03 0.  0.
    8880022    1    1    2    0    0 -0.42987839701E+03  0.10452072737E+03 -0.64808530731E+03  0.79945371175E+03  0.15294330000E+03 0.  0.
<mgrwt>
<rscale>  0 0.69536753E+03</rscale>
<asrwt>0</asrwt>
<pdfrwt beam="1">  1        2 0.12151781E+00 0.79342941E+03</pdfrwt>
<pdfrwt beam="2">  1       -2 0.14525188E+00 0.79342941E+03</pdfrwt>
<totfact> 0.11554691E+01</totfact>
</mgrwt>
</event>
<event>
 4    2  0.9070994E-007  0.1092945E+04  0.7818608E-02  0.9268952E-01
          2   -1    0    0  501    0  0.00000000000E+00  0.00000000000E+00  0.24086633280E+04  0.24086633280E+04  0.25500000000E-02 0. -1.
         -2   -1    0    0    0  501 -0.00000000000E+00 -0.00000000000E+00 -0.46672474573E+03  0.46672474574E+03  0.25500000000E-02 0.  1.
    8880023    1    1    2    0    0  0.31927924786E+03  0.81165182399E+03  0.15745504858E+04  0.19166996009E+04  0.65864270000E+03 0. -1.
    8880022    1    1    2    0    0 -0.31927924786E+03 -0.81165182399E+03  0.36738809647E+03  0.95868847283E+03  0.15294330000E+03 0.  0.
<mgrwt>
<rscale>  0 0.10369212E+04</rscale>
<asrwt>0</asrwt>
<pdfrwt beam="1">  1        2 0.37056359E+00 0.10929447E+04</pdfrwt>
<pdfrwt beam="2">  1       -2 0.71803807E-01 0.10929447E+04</pdfrwt>
<totfact> 0.68962580E+00</totfact>
</mgrwt>
</event>
<event>
 4    2  0.9070994E-007  0.1035916E+04  0.7818608E-02  0.9336007E-01
         -2   -1    0    0    0  501 -0.00000000000E+00  0.00000000000E+00  0.37426379858E+03  0.37426379859E+03  0.25500000000E-02 0.  1.
          2   -1    0    0  501    0  0.00000000000E+00 -0.00000000000E+00 -0.24563795243E+04  0.24563795243E+04  0.25500000000E-02 0. -1.
    8880023    1    1    2    0    0  0.27386924468E+03 -0.75120387520E+03 -0.15273741792E+04  0.18455334499E+04  0.65864270000E+03 0.  0.
    8880022    1    1    2    0    0 -0.27386924468E+03  0.75120387520E+03 -0.55474154648E+03  0.98510987291E+03  0.15294330000E+03 0. -1.
<mgrwt>
<rscale>  0 0.97534503E+03</rscale>
<asrwt>0</asrwt>
<pdfrwt beam="1">  1        2 0.37790453E+00 0.10359159E+04</pdfrwt>
<pdfrwt beam="2">  1       -2 0.57579047E-01 0.10359159E+04</pdfrwt>
<totfact> 0.10492351E+01</totfact>
</mgrwt>
</event>
<event>
 4    2  0.9070994E-007  0.8595915E+03  0.7818608E-02  0.9594291E-01
         -2   -1    0    0    0  501 -0.00000000000E+00  0.00000000000E+00  0.95148434509E+03  0.95148434509E+03  0.25500000000E-02 0.  1.
          2   -1    0    0  501    0  0.00000000000E+00 -0.00000000000E+00 -0.63416287674E+03  0.63416287674E+03  0.25500000000E-02 0. -1.
    8880023    1    1    2    0    0  0.52308487064E+03 -0.17739647817E+03 -0.11567572647E+03  0.86733982517E+03  0.65864270000E+03 0.  0.
    8880022    1    1    2    0    0 -0.52308487064E+03  0.17739647817E+03  0.43299719482E+03  0.71830739667E+03  0.15294330000E+03 0.  0.
<mgrwt>
<rscale>  0 0.77675224E+03</rscale>
<asrwt>0</asrwt>
<pdfrwt beam="1">  1        2 0.97563521E-01 0.85959147E+03</pdfrwt>
<pdfrwt beam="2">  1       -2 0.14638221E+00 0.85959147E+03</pdfrwt>
<totfact> 0.14878503E+01</totfact>
</mgrwt>
</event>
<event>
 4    2  0.9070994E-007  0.6600511E+03  0.7818608E-02  0.1024104E+00
          2   -1    0    0  501    0  0.00000000000E+00  0.00000000000E+00  0.34300142189E+04  0.34300142189E+04  0.25500000000E-02 0. -1.
         -2   -1    0    0    0  501 -0.00000000000E+00 -0.00000000000E+00 -0.16138939413E+03  0.16138939415E+03  0.25500000000E-02 0.  1.
    8880023    1    1    2    0    0  0.40915938349E+02 -0.13531617175E+02  0.33489361560E+04  0.34133620965E+04  0.65864270000E+03 0. -1.
    8880022    1    1    2    0    0 -0.40915938349E+02  0.13531617175E+02 -0.80311331221E+02  0.17804151654E+03  0.15294330000E+03 0.  0.
<mgrwt>
<rscale>  0 0.46234206E+03</rscale>
<asrwt>0</asrwt>
<pdfrwt beam="1">  1        2 0.52769447E+00 0.66005108E+03</pdfrwt>
<pdfrwt beam="2">  1       -2 0.24829139E-01 0.66005108E+03</pdfrwt>
<totfact> 0.14443560E+01</totfact>
</mgrwt>
</event>
<event>
 4    2  0.9070994E-007  0.8809039E+03  0.7818608E-02  0.9557410E-01
         -2   -1    0    0    0  501 -0.00000000000E+00  0.00000000000E+00  0.39736039349E+03  0.39736039350E+03  0.25500000000E-02 0.  1.
          2   -1    0    0  501    0  0.00000000000E+00 -0.00000000000E+00 -0.35134829071E+04  0.35134829071E+04  0.25500000000E-02 0. -1.
    8880023    1    1    2    0    0 -0.54597547095E+03  0.20998149647E+03 -0.31828900603E+04  0.33025415646E+04  0.65864270000E+03 0.  0.
    8880022    1    1    2    0    0  0.54597547095E+03 -0.20998149647E+03  0.66767546666E+02  0.60830173602E+03  0.15294330000E+03 0.  1.
<mgrwt>
<rscale>  0 0.80180391E+03</rscale>
<asrwt>0</asrwt>
<pdfrwt beam="1">  1        2 0.54053581E+00 0.88090388E+03</pdfrwt>
<pdfrwt beam="2">  1       -2 0.61132371E-01 0.88090388E+03</pdfrwt>
<totfact> 0.20968110E+00</totfact>
</mgrwt>
</event>
<event>
 4    2  0.9070994E-007  0.8946371E+03  0.7818608E-02  0.9534696E-01
          2   -1    0    0  501    0  0.00000000000E+00  0.00000000000E+00  0.35261010529E+04  0.35261010529E+04  0.25500000000E-02 0. -1.
         -2   -1    0    0    0  501 -0.00000000000E+00 -0.00000000000E+00 -0.16796427609E+03  0.16796427611E+03  0.25500000000E-02 0.  1.
    8880023    1    1    2    0    0  0.40154294562E+03  0.45313205763E+03  0.22626046011E+04  0.24330547026E+04  0.65864270000E+03 0.  0.
    8880022    1    1    2    0    0 -0.40154294562E+03 -0.45313205763E+03  0.10955321758E+04  0.12610106265E+04  0.15294330000E+03 0.  0.
<mgrwt>
<rscale>  0 0.81773444E+03</rscale>
<asrwt>0</asrwt>
<pdfrwt beam="1">  1        2 0.54247698E+00 0.89463714E+03</pdfrwt>
<pdfrwt beam="2">  1       -2 0.25840663E-01 0.89463714E+03</pdfrwt>
<totfact> 0.11082947E+01</totfact>
</mgrwt>
</event>
<event>
 4    2  0.9070994E-007  0.6856740E+03  0.7818608E-02  0.1006280E+00
         -2   -1    0    0    0  501 -0.00000000000E+00  0.00000000000E+00  0.15165442389E+03  0.15165442391E+03  0.25500000000E-02 0.  1.
          2   -1    0    0  501    0  0.00000000000E+00 -0.00000000000E+00 -0.24217078552E+04  0.24217078552E+04  0.25500000000E-02 0. -1.
    8880023    1    1    2    0    0  0.35979767334E+02  0.18720048549E+03 -0.22205476707E+04  0.23240010176E+04  0.65864270000E+03 0. -1.
    8880022    1    1    2    0    0 -0.35979767334E+02 -0.18720048549E+03 -0.49505760604E+02  0.24936126157E+03  0.15294330000E+03 0.  0.
<mgrwt>
<rscale>  0 0.52980067E+03</rscale>
<asrwt>0</asrwt>
<pdfrwt beam="1">  1        2 0.37257041E+00 0.68567395E+03</pdfrwt>
<pdfrwt beam="2">  1       -2 0.23331452E-01 0.68567395E+03</pdfrwt>
<totfact> 0.65627273E+01</totfact>
</mgrwt>
</event>
<event>
 4    2  0.9070994E-007  0.7317942E+03  0.7818608E-02  0.9884529E-01
         -2   -1    0    0    0  501 -0.00000000000E+00  0.00000000000E+00  0.26691774721E+03  0.26691774723E+03  0.25500000000E-02 0.  1.
          2   -1    0    0  501    0  0.00000000000E+00 -0.00000000000E+00 -0.16444210890E+04  0.16444210890E+04  0.25500000000E-02 0. -1.
    8880023    1    1    2    0    0  0.18328685870E+03 -0.26099525203E+03 -0.13750223208E+04  0.15576293472E+04  0.65864270000E+03 0. -1.
    8880022    1    1    2    0    0 -0.18328685870E+03  0.26099525203E+03 -0.24810209544E+01  0.35370948904E+03  0.15294330000E+03 0.  0.
<mgrwt>
<rscale>  0 0.61016985E+03</rscale>
<asrwt>0</asrwt>
<pdfrwt beam="1">  1        2 0.25298785E+00 0.73179423E+03</pdfrwt>
<pdfrwt beam="2">  1       -2 0.41064270E-01 0.73179423E+03</pdfrwt>
<totfact> 0.60631449E+01</totfact>
</mgrwt>
</event>
<event>
 4    2  0.9070994E-007  0.9306718E+03  0.7818608E-02  0.9478486E-01
          2   -1    0    0  501    0  0.00000000000E+00  0.00000000000E+00  0.19648360034E+04  0.19648360034E+04  0.25500000000E-02 0. -1.
         -2   -1    0    0    0  501 -0.00000000000E+00 -0.00000000000E+00 -0.55278441409E+03  0.55278441410E+03  0.25500000000E-02 0.  1.
    8880023    1    1    2    0    0  0.20147096655E+03  0.62589870455E+03  0.15692586101E+04  0.18244787010E+04  0.65864270000E+03 0.  0.
    8880022    1    1    2    0    0 -0.20147096655E+03 -0.62589870455E+03 -0.15720702082E+03  0.69314171648E+03  0.15294330000E+03 0.  0.
<mgrwt>
<rscale>  0 0.85888699E+03</rscale>
<asrwt>0</asrwt>
<pdfrwt beam="1">  1        2 0.30228247E+00 0.93067177E+03</pdfrwt>
<pdfrwt beam="2">  1       -2 0.85043755E-01 0.93067177E+03</pdfrwt>
<totfact> 0.84911025E+00</totfact>
</mgrwt>
</event>
<event>
 4    2  0.9070994E-007  0.6637390E+03  0.7818608E-02  0.1020616E+00
          2   -1    0    0  501    0  0.00000000000E+00  0.00000000000E+00  0.42212502072E+04  0.42212502072E+04  0.25500000000E-02 0. -1.
         -2   -1    0    0    0  501 -0.00000000000E+00 -0.00000000000E+00 -0.41784159100E+02  0.41784159178E+02  0.25500000000E-02 0.  1.
    8880023    1    1    2    0    0 -0.53351829364E+02  0.62393013462E+02  0.31684002325E+04  0.32371761684E+04  0.65864270000E+03 0. -1.
    8880022    1    1    2    0    0  0.53351829364E+02 -0.62393013462E+02  0.10110658156E+04  0.10258581980E+04  0.15294330000E+03 0.  0.
<mgrwt>
<rscale>  0 0.47465126E+03</rscale>
<asrwt>0</asrwt>
<pdfrwt beam="1">  1        2 0.64942319E+00 0.66373904E+03</pdfrwt>
<pdfrwt beam="2">  1       -2 0.64283314E-02 0.66373904E+03</pdfrwt>
<totfact> 0.35148968E+01</totfact>
</mgrwt>
</event>
<event>
 4    2  0.9070994E-007  0.7542013E+03  0.7818608E-02  0.9820358E-01
         -2   -1    0    0    0  501 -0.00000000000E+00  0.00000000000E+00  0.11678266778E+03  0.11678266781E+03  0.25500000000E-02 0.  1.
          2   -1    0    0  501    0  0.00000000000E+00 -0.00000000000E+00 -0.33423812272E+04  0.33423812272E+04  0.25500000000E-02 0. -1.
    8880023    1    1    2    0    0  0.27690944606E+03 -0.24151721246E+03 -0.26782272572E+04  0.27823948053E+04  0.65864270000E+03 0.  0.
    8880022    1    1    2    0    0 -0.27690944606E+03  0.24151721246E+03 -0.54737130221E+03  0.67676908966E+03  0.15294330000E+03 0.  0.
<mgrwt>
<rscale>  0 0.64281384E+03</rscale>
<asrwt>0</asrwt>
<pdfrwt beam="1">  1        2 0.51421242E+00 0.75420131E+03</pdfrwt>
<pdfrwt beam="2">  1       -2 0.17966567E-01 0.75420131E+03</pdfrwt>
<totfact> 0.28684217E+01</totfact>
</mgrwt>
</event>
<event>
 4    2  0.9070994E-007  0.6596566E+03  0.7818608E-02  0.1024511E+00
         -2   -1    0    0    0  501 -0.00000000000E+00  0.00000000000E+00  0.13694103052E+03  0.13694103054E+03  0.25500000000E-02 0.  1.
          2   -1    0    0  501    0  0.00000000000E+00 -0.00000000000E+00 -0.18538972155E+04  0.18538972155E+04  0.25500000000E-02 0. -1.
    8880023    1    1    2    0    0  0.94577939701E+01  0.35314428356E+02 -0.17106819410E+04  0.18334610626E+04  0.65864270000E+03 0. -1.
    8880022    1    1    2    0    0 -0.94577939701E+01 -0.35314428356E+02 -0.62742440345E+01  0.15737718345E+03  0.15294330000E+03 0.  0.
<mgrwt>
<rscale>  0 0.46093268E+03</rscale>
<asrwt>0</asrwt>
<pdfrwt beam="1">  1        2 0.28521494E+00 0.65965655E+03</pdfrwt>
<pdfrwt beam="2">  1       -2 0.21067852E-01 0.65965655E+03</pdfrwt>
<totfact> 0.16159982E+02</totfact>
</mgrwt>
</event>
<event>
 4    2  0.9070994E-007  0.8268208E+03  0.7818608E-02  0.9655550E-01
         -2   -1    0    0    0  501 -0.00000000000E+00  0.00000000000E+00  0.13126843158E+04  0.13126843159E+04  0.25500000000E-02 0.  1.
          2   -1    0    0  501    0  0.00000000000E+00 -0.00000000000E+00 -0.96369325346E+03  0.96369325346E+03  0.25500000000E-02 0. -1.
    8880023    1    1    2    0    0  0.22058236194E+03  0.44851521373E+03 -0.71360257540E+03  0.10921819067E+04  0.65864270000E+03 0.  0.
    8880022    1    1    2    0    0 -0.22058236194E+03 -0.44851521373E+03  0.10625936378E+04  0.11841956627E+04  0.15294330000E+03 0.  0.
<mgrwt>
<rscale>  0 0.73726132E+03</rscale>
<asrwt>0</asrwt>
<pdfrwt beam="1">  1        2 0.14826050E+00 0.82682083E+03</pdfrwt>
<pdfrwt beam="2">  1       -2 0.20195143E+00 0.82682083E+03</pdfrwt>
<totfact> 0.34793735E+00</totfact>
</mgrwt>
</event>
<event>
 4    2  0.9070994E-007  0.8230578E+03  0.7818608E-02  0.9662994E-01
          2   -1    0    0  501    0  0.00000000000E+00  0.00000000000E+00  0.14621377343E+04  0.14621377343E+04  0.25500000000E-02 0. -1.
         -2   -1    0    0    0  501 -0.00000000000E+00 -0.00000000000E+00 -0.59326274727E+03  0.59326274728E+03  0.25500000000E-02 0.  1.
    8880023    1    1    2    0    0  0.46695013208E+03  0.15991105300E+03  0.11900876444E+04  0.14469736619E+04  0.65864270000E+03 0. -1.
    8880022    1    1    2    0    0 -0.46695013208E+03 -0.15991105300E+03 -0.32121265730E+03  0.60842681971E+03  0.15294330000E+03 0.  1.
<mgrwt>
<rscale>  0 0.73263525E+03</rscale>
<asrwt>0</asrwt>
<pdfrwt beam="1">  1        2 0.22494427E+00 0.82305782E+03</pdfrwt>
<pdfrwt beam="2">  1       -2 0.91271192E-01 0.82305782E+03</pdfrwt>
<totfact> 0.13843518E+01</totfact>
</mgrwt>
</event>
<event>
 4    2  0.9070994E-007  0.7081548E+03  0.7818608E-02  0.9964918E-01
          2   -1    0    0  501    0  0.00000000000E+00  0.00000000000E+00  0.21606520624E+03  0.21606520625E+03  0.25500000000E-02 0. -1.
         -2   -1    0    0    0  501 -0.00000000000E+00 -0.00000000000E+00 -0.12356632119E+04  0.12356632119E+04  0.25500000000E-02 0.  1.
    8880023    1    1    2    0    0 -0.10353406850E+03  0.23864967740E+03 -0.56424702099E+03  0.90546003712E+03  0.65864270000E+03 0. -1.
    8880022    1    1    2    0    0  0.10353406850E+03 -0.23864967740E+03 -0.45535098471E+03  0.54626838107E+03  0.15294330000E+03 0.  0.
<mgrwt>
<rscale>  0 0.57215652E+03</rscale>
<asrwt>0</asrwt>
<pdfrwt beam="1">  1        2 0.33240802E-01 0.70815477E+03</pdfrwt>
<pdfrwt beam="2">  1       -2 0.19010203E+00 0.70815477E+03</pdfrwt>
<totfact> 0.24979727E+01</totfact>
</mgrwt>
</event>
<event>
 4    2  0.9070994E-007  0.6960158E+03  0.7818608E-02  0.1001415E+00
         -2   -1    0    0    0  501 -0.00000000000E+00  0.00000000000E+00  0.59102870523E+03  0.59102870523E+03  0.25500000000E-02 0.  1.
          2   -1    0    0  501    0  0.00000000000E+00 -0.00000000000E+00 -0.49026603488E+03  0.49026603488E+03  0.25500000000E-02 0. -1.
    8880023    1    1    2    0    0 -0.10282883749E+03  0.20013503228E+03 -0.14920781489E+03  0.71182931890E+03  0.65864270000E+03 0.  0.
    8880022    1    1    2    0    0  0.10282883749E+03 -0.20013503228E+03  0.24997048524E+03  0.36946542121E+03  0.15294330000E+03 0.  0.
<mgrwt>
<rscale>  0 0.55034188E+03</rscale>
<asrwt>0</asrwt>
<pdfrwt beam="1">  1        2 0.75425545E-01 0.69601581E+03</pdfrwt>
<pdfrwt beam="2">  1       -2 0.90927492E-01 0.69601581E+03</pdfrwt>
<totfact> 0.65990430E+01</totfact>
</mgrwt>
</event>
<event>
 4    2  0.9070994E-007  0.6962367E+03  0.7818608E-02  0.1001319E+00
         -2   -1    0    0    0  501 -0.00000000000E+00  0.00000000000E+00  0.40399494365E+03  0.40399494365E+03  0.25500000000E-02 0.  1.
          2   -1    0    0  501    0  0.00000000000E+00 -0.00000000000E+00 -0.93072398023E+03  0.93072398023E+03  0.25500000000E-02 0. -1.
    8880023    1    1    2    0    0 -0.75398854875E+02  0.21272136162E+03 -0.71919825754E+03  0.10009953571E+04  0.65864270000E+03 0.  0.
    8880022    1    1    2    0    0  0.75398854875E+02 -0.21272136162E+03  0.19246922096E+03  0.33372356680E+03  0.15294330000E+03 0.  0.
<mgrwt>
<rscale>  0 0.55075828E+03</rscale>
<asrwt>0</asrwt>
<pdfrwt beam="1">  1        2 0.14318830E+00 0.69623672E+03</pdfrwt>
<pdfrwt beam="2">  1       -2 0.62153068E-01 0.69623672E+03</pdfrwt>
<totfact> 0.68441479E+01</totfact>
</mgrwt>
</event>
<event>
 4    2  0.9070994E-007  0.7137811E+03  0.7818608E-02  0.9944219E-01
         -2   -1    0    0    0  501 -0.00000000000E+00  0.00000000000E+00  0.63892475553E+03  0.63892475554E+03  0.25500000000E-02 0.  1.
          2   -1    0    0  501    0  0.00000000000E+00 -0.00000000000E+00 -0.11451811503E+04  0.11451811503E+04  0.25500000000E-02 0. -1.
    8880023    1    1    2    0    0 -0.18717665357E+02  0.27445014661E+03 -0.98179639411E+03  0.12138400223E+04  0.65864270000E+03 0. -1.
    8880022    1    1    2    0    0  0.18717665357E+02 -0.27445014661E+03  0.47553999933E+03  0.57026588356E+03  0.15294330000E+03 0.  0.
<mgrwt>
<rscale>  0 0.58165270E+03</rscale>
<asrwt>0</asrwt>
<pdfrwt beam="1">  1        2 0.17618172E+00 0.71378109E+03</pdfrwt>
<pdfrwt beam="2">  1       -2 0.98296116E-01 0.71378109E+03</pdfrwt>
<totfact> 0.17982244E+01</totfact>
</mgrwt>
</event>
<event>
 4    2  0.9070994E-007  0.8757700E+03  0.7818608E-02  0.9566105E-01
         -2   -1    0    0    0  501 -0.00000000000E+00  0.00000000000E+00  0.18425123288E+04  0.18425123288E+04  0.25500000000E-02 0.  1.
          2   -1    0    0  501    0  0.00000000000E+00 -0.00000000000E+00 -0.40754791994E+03  0.40754791995E+03  0.25500000000E-02 0. -1.
    8880023    1    1    2    0    0  0.28798984505E+03 -0.50022462889E+03  0.23032819413E+03  0.90555182816E+03  0.65864270000E+03 0. -1.
    8880022    1    1    2    0    0 -0.28798984505E+03  0.50022462889E+03  0.12046362148E+04  0.13445084206E+04  0.15294330000E+03 0.  0.
<mgrwt>
<rscale>  0 0.79580795E+03</rscale>
<asrwt>0</asrwt>
<pdfrwt beam="1">  1        2 0.62699680E-01 0.87576997E+03</pdfrwt>
<pdfrwt beam="2">  1       -2 0.28346343E+00 0.87576997E+03</pdfrwt>
<totfact> 0.31846260E+00</totfact>
</mgrwt>
</event>
<event>
 4    2  0.9070994E-007  0.6659408E+03  0.7818608E-02  0.1018757E+00
          2   -1    0    0  501    0  0.00000000000E+00  0.00000000000E+00  0.15953275273E+04  0.15953275273E+04  0.25500000000E-02 0. -1.
         -2   -1    0    0    0  501 -0.00000000000E+00 -0.00000000000E+00 -0.31858308687E+03  0.31858308688E+03  0.25500000000E-02 0.  1.
    8880023    1    1    2    0    0 -0.88695178896E+01  0.97919951060E+02  0.14909672818E+04  0.16329300740E+04  0.65864270000E+03 0. -1.
    8880022    1    1    2    0    0  0.88695178896E+01 -0.97919951060E+02 -0.21422284134E+03  0.28098054013E+03  0.15294330000E+03 0.  0.
<mgrwt>
<rscale>  0 0.48137924E+03</rscale>
<asrwt>0</asrwt>
<pdfrwt beam="1">  1        2 0.24543500E+00 0.66594083E+03</pdfrwt>
<pdfrwt beam="2">  1       -2 0.49012783E-01 0.66594083E+03</pdfrwt>
<totfact> 0.45705469E+01</totfact>
</mgrwt>
</event>
<event>
 4    2  0.9070994E-007  0.1050247E+04  0.7818608E-02  0.9318585E-01
          2   -1    0    0  501    0  0.00000000000E+00  0.00000000000E+00  0.21368727589E+04  0.21368727589E+04  0.25500000000E-02 0. -1.
         -2   -1    0    0    0  501 -0.00000000000E+00 -0.00000000000E+00 -0.67451643663E+03  0.67451643664E+03  0.25500000000E-02 0.  1.
    8880023    1    1    2    0    0 -0.46879699820E+03 -0.67040100345E+03  0.16522331181E+04  0.19577774679E+04  0.65864270000E+03 0. -1.
    8880022    1    1    2    0    0  0.46879699820E+03  0.67040100345E+03 -0.18987679585E+03  0.85361172764E+03  0.15294330000E+03 0.  0.
<mgrwt>
<rscale>  0 0.99089770E+03</rscale>
<asrwt>0</asrwt>
<pdfrwt beam="1">  1        2 0.32874965E+00 0.10502468E+04</pdfrwt>
<pdfrwt beam="2">  1       -2 0.10377176E+00 0.10502468E+04</pdfrwt>
<totfact> 0.42192622E+00</totfact>
</mgrwt>
</event>
<event>
 4    2  0.9070994E-007  0.6885412E+03  0.7818608E-02  0.1004854E+00
          2   -1    0    0  501    0  0.00000000000E+00  0.00000000000E+00  0.16848615270E+04  0.16848615270E+04  0.25500000000E-02 0. -1.
         -2   -1    0    0    0  501 -0.00000000000E+00 -0.00000000000E+00 -0.14221002649E+03  0.14221002652E+03  0.25500000000E-02 0.  1.
    8880023    1    1    2    0    0  0.39898649351E+02  0.19668972748E+03  0.13276131614E+04  0.14955419298E+04  0.65864270000E+03 0.  0.
    8880022    1    1    2    0    0 -0.39898649351E+02 -0.19668972748E+03  0.21503833908E+03  0.33152962372E+03  0.15294330000E+03 0.  0.
<mgrwt>
<rscale>  0 0.53572220E+03</rscale>
<asrwt>0</asrwt>
<pdfrwt beam="1">  1        2 0.25920948E+00 0.68854118E+03</pdfrwt>
<pdfrwt beam="2">  1       -2 0.21878464E-01 0.68854118E+03</pdfrwt>
<totfact> 0.18632952E+02</totfact>
</mgrwt>
</event>
<event>
 4    2  0.9070994E-007  0.9292536E+03  0.7818608E-02  0.9480614E-01
          2   -1    0    0  501    0  0.00000000000E+00  0.00000000000E+00  0.11439837295E+04  0.11439837295E+04  0.25500000000E-02 0. -1.
         -2   -1    0    0    0  501 -0.00000000000E+00 -0.00000000000E+00 -0.77942948142E+03  0.77942948142E+03  0.25500000000E-02 0.  1.
    8880023    1    1    2    0    0 -0.17344322229E+03 -0.63215462359E+03  0.70752763632E+03  0.11679501624E+04  0.65864270000E+03 0. -1.
    8880022    1    1    2    0    0  0.17344322229E+03  0.63215462359E+03 -0.34297338829E+03  0.75546304845E+03  0.15294330000E+03 0.  0.
<mgrwt>
<rscale>  0 0.85728294E+03</rscale>
<asrwt>0</asrwt>
<pdfrwt beam="1">  1        2 0.17599750E+00 0.92925359E+03</pdfrwt>
<pdfrwt beam="2">  1       -2 0.11991223E+00 0.92925359E+03</pdfrwt>
<totfact> 0.10883263E+01</totfact>
</mgrwt>
</event>
<event>
 4    2  0.9070994E-007  0.6854608E+03  0.7818608E-02  0.1006389E+00
          2   -1    0    0  501    0  0.00000000000E+00  0.00000000000E+00  0.16261911556E+04  0.16261911556E+04  0.25500000000E-02 0. -1.
         -2   -1    0    0    0  501 -0.00000000000E+00 -0.00000000000E+00 -0.22472342479E+03  0.22472342481E+03  0.25500000000E-02 0.  1.
    8880023    1    1    2    0    0  0.18959721528E+03 -0.99598877274E+01  0.14486094022E+04  0.16025996723E+04  0.65864270000E+03 0. -1.
    8880022    1    1    2    0    0 -0.18959721528E+03  0.99598877274E+01 -0.47141671327E+02  0.24831490813E+03  0.15294330000E+03 0.  0.
<mgrwt>
<rscale>  0 0.52935248E+03</rscale>
<asrwt>0</asrwt>
<pdfrwt beam="1">  1        2 0.25018325E+00 0.68546080E+03</pdfrwt>
<pdfrwt beam="2">  1       -2 0.34572835E-01 0.68546080E+03</pdfrwt>
<totfact> 0.86880595E+01</totfact>
</mgrwt>
</event>
<event>
 4    2  0.9070994E-007  0.7293427E+03  0.7818608E-02  0.9892155E-01
          2   -1    0    0  501    0  0.00000000000E+00  0.00000000000E+00  0.45491160341E+03  0.45491160341E+03  0.25500000000E-02 0. -1.
         -2   -1    0    0    0  501 -0.00000000000E+00 -0.00000000000E+00 -0.18490441244E+04  0.18490441244E+04  0.25500000000E-02 0.  1.
    8880023    1    1    2    0    0  0.13652424488E+03  0.28194273998E+03  0.12967607057E+03  0.74078111991E+03  0.65864270000E+03 0. -1.
    8880022    1    1    2    0    0 -0.13652424488E+03 -0.28194273998E+03 -0.15238085915E+04  0.15631746079E+04  0.15294330000E+03 0.  0.
<mgrwt>
<rscale>  0 0.60643003E+03</rscale>
<asrwt>0</asrwt>
<pdfrwt beam="1">  1        2 0.69986401E-01 0.72934271E+03</pdfrwt>
<pdfrwt beam="2">  1       -2 0.28446832E+00 0.72934271E+03</pdfrwt>
<totfact> 0.28261709E+00</totfact>
</mgrwt>
</event>
<event>
 4    2  0.9070994E-007  0.6669557E+03  0.7818608E-02  0.1017946E+00
         -2   -1    0    0    0  501 -0.00000000000E+00  0.00000000000E+00  0.26948432373E+03  0.26948432374E+03  0.25500000000E-02 0.  1.
          2   -1    0    0  501    0  0.00000000000E+00 -0.00000000000E+00 -0.18368245224E+04  0.18368245224E+04  0.25500000000E-02 0. -1.
    8880023    1    1    2    0    0  0.56415607403E+02  0.88526812210E+02 -0.17334325340E+04  0.18573148019E+04  0.65864270000E+03 0. -1.
    8880022    1    1    2    0    0 -0.56415607403E+02 -0.88526812210E+02  0.16609233527E+03  0.24899404428E+03  0.15294330000E+03 0.  0.
<mgrwt>
<rscale>  0 0.48435133E+03</rscale>
<asrwt>0</asrwt>
<pdfrwt beam="1">  1        2 0.28258838E+00 0.66695571E+03</pdfrwt>
<pdfrwt beam="2">  1       -2 0.41459128E-01 0.66695571E+03</pdfrwt>
<totfact> 0.47097932E+01</totfact>
</mgrwt>
</event>
<event>
 4    2  0.9070994E-007  0.9306388E+03  0.7818608E-02  0.9478536E-01
          2   -1    0    0  501    0  0.00000000000E+00  0.00000000000E+00  0.19325656587E+04  0.19325656587E+04  0.25500000000E-02 0. -1.
         -2   -1    0    0    0  501 -0.00000000000E+00 -0.00000000000E+00 -0.10778131745E+04  0.10778131745E+04  0.25500000000E-02 0.  1.
    8880023    1    1    2    0    0 -0.58731286341E+03 -0.29553676786E+03  0.16943265148E+04  0.19330884422E+04  0.65864270000E+03 0. -1.
    8880022    1    1    2    0    0  0.58731286341E+03  0.29553676786E+03 -0.83957403050E+03  0.10772903909E+04  0.15294330000E+03 0.  0.
<mgrwt>
<rscale>  0 0.85884972E+03</rscale>
<asrwt>0</asrwt>
<pdfrwt beam="1">  1        2 0.29731779E+00 0.93063881E+03</pdfrwt>
<pdfrwt beam="2">  1       -2 0.16581741E+00 0.93063881E+03</pdfrwt>
<totfact> 0.16746960E+00</totfact>
</mgrwt>
</event>
<event>
 4    2  0.9070994E-007  0.8345549E+03  0.7818608E-02  0.9640534E-01
         -2   -1    0    0    0  501 -0.00000000000E+00  0.00000000000E+00  0.62743572420E+03  0.62743572420E+03  0.25500000000E-02 0.  1.
          2   -1    0    0  501    0  0.00000000000E+00 -0.00000000000E+00 -0.11265875885E+04  0.11265875885E+04  0.25500000000E-02 0. -1.
    8880023    1    1    2    0    0  0.52399967845E+02  0.50982932971E+03 -0.78659478071E+03  0.11468274750E+04  0.65864270000E+03 0.  0.
    8880022    1    1    2    0    0 -0.52399967845E+02 -0.50982932971E+03  0.28744291646E+03  0.60719583768E+03  0.15294330000E+03 0.  0.
<mgrwt>
<rscale>  0 0.74670484E+03</rscale>
<asrwt>0</asrwt>
<pdfrwt beam="1">  1        2 0.17332117E+00 0.83455492E+03</pdfrwt>
<pdfrwt beam="2">  1       -2 0.96528573E-01 0.83455492E+03</pdfrwt>
<totfact> 0.19009723E+01</totfact>
</mgrwt>
</event>
<event>
 4    2  0.9070994E-007  0.6749555E+03  0.7818608E-02  0.1012334E+00
         -2   -1    0    0    0  501 -0.00000000000E+00  0.00000000000E+00  0.21085861719E+03  0.21085861720E+03  0.25500000000E-02 0.  1.
          2   -1    0    0  501    0  0.00000000000E+00 -0.00000000000E+00 -0.10351242407E+04  0.10351242407E+04  0.25500000000E-02 0. -1.
    8880023    1    1    2    0    0 -0.62843174193E+02 -0.13343695488E+03 -0.77529964544E+03  0.10279369786E+04  0.65864270000E+03 0.  0.
    8880022    1    1    2    0    0  0.62843174193E+02  0.13343695488E+03 -0.48965978089E+02  0.21804587933E+03  0.15294330000E+03 0.  0.
<mgrwt>
<rscale>  0 0.50557333E+03</rscale>
<asrwt>0</asrwt>
<pdfrwt beam="1">  1        2 0.15924988E+00 0.67495547E+03</pdfrwt>
<pdfrwt beam="2">  1       -2 0.32439788E-01 0.67495547E+03</pdfrwt>
<totfact> 0.21482126E+02</totfact>
</mgrwt>
</event>
<event>
 4    2  0.9070994E-007  0.9353077E+03  0.7818608E-02  0.9471576E-01
          2   -1    0    0  501    0  0.00000000000E+00  0.00000000000E+00  0.44773698587E+04  0.44773698587E+04  0.25500000000E-02 0. -1.
         -2   -1    0    0    0  501 -0.00000000000E+00 -0.00000000000E+00 -0.67064030346E+03  0.67064030346E+03  0.25500000000E-02 0.  1.
    8880023    1    1    2    0    0 -0.46034120892E+03 -0.47861902141E+03  0.42390379672E+04  0.43409956565E+04  0.65864270000E+03 0.  0.
    8880022    1    1    2    0    0  0.46034120892E+03  0.47861902141E+03 -0.43230841194E+03  0.80701450566E+03  0.15294330000E+03 0.  0.
<mgrwt>
<rscale>  0 0.86412241E+03</rscale>
<asrwt>0</asrwt>
<pdfrwt beam="1">  1        2 0.68882614E+00 0.93530765E+03</pdfrwt>
<pdfrwt beam="2">  1       -2 0.10317543E+00 0.93530765E+03</pdfrwt>
<totfact> 0.10797231E-01</totfact>
</mgrwt>
</event>
<event>
 4    2  0.9070994E-007  0.6622468E+03  0.7818608E-02  0.1021964E+00
          2   -1    0    0  501    0  0.00000000000E+00  0.00000000000E+00  0.28755297808E+04  0.28755297808E+04  0.25500000000E-02 0. -1.
         -2   -1    0    0    0  501 -0.00000000000E+00 -0.00000000000E+00 -0.10828620878E+03  0.10828620881E+03  0.25500000000E-02 0.  1.
    8880023    1    1    2    0    0 -0.68896500262E+02  0.37349757152E+01  0.27336190938E+04  0.28126934127E+04  0.65864270000E+03 0. -1.
    8880022    1    1    2    0    0  0.68896500262E+02 -0.37349757152E+01  0.33624478309E+02  0.17112257697E+03  0.15294330000E+03 0.  0.
<mgrwt>
<rscale>  0 0.46984458E+03</rscale>
<asrwt>0</asrwt>
<pdfrwt beam="1">  1        2 0.44238920E+00 0.66224685E+03</pdfrwt>
<pdfrwt beam="2">  1       -2 0.16659417E-01 0.66224685E+03</pdfrwt>
<totfact> 0.64860680E+01</totfact>
</mgrwt>
</event>
<event>
 4    2  0.9070994E-007  0.8553219E+03  0.7818608E-02  0.9601940E-01
         -2   -1    0    0    0  501 -0.00000000000E+00  0.00000000000E+00  0.77546686207E+03  0.77546686208E+03  0.25500000000E-02 0.  1.
          2   -1    0    0  501    0  0.00000000000E+00 -0.00000000000E+00 -0.82007653699E+03  0.82007653700E+03  0.25500000000E-02 0. -1.
    8880023    1    1    2    0    0 -0.29206112732E+03 -0.46093990427E+03  0.32938383897E+03  0.91655289923E+03  0.65864270000E+03 0.  0.
    8880022    1    1    2    0    0  0.29206112732E+03  0.46093990427E+03 -0.37399351389E+03  0.67899049985E+03  0.15294330000E+03 0.  0.
<mgrwt>
<rscale>  0 0.77167930E+03</rscale>
<asrwt>0</asrwt>
<pdfrwt beam="1">  1        2 0.12616562E+00 0.85532187E+03</pdfrwt>
<pdfrwt beam="2">  1       -2 0.11930259E+00 0.85532187E+03</pdfrwt>
<totfact> 0.18039490E+01</totfact>
</mgrwt>
</event>
<event>
 4    2  0.9070994E-007  0.1021893E+04  0.7818608E-02  0.9353459E-01
          2   -1    0    0  501    0  0.00000000000E+00  0.00000000000E+00  0.20763303333E+04  0.20763303333E+04  0.25500000000E-02 0. -1.
         -2   -1    0    0    0  501 -0.00000000000E+00 -0.00000000000E+00 -0.64881914333E+03  0.64881914334E+03  0.25500000000E-02 0.  1.
    8880023    1    1    2    0    0 -0.50253085305E+03 -0.59826303922E+03  0.16113394226E+04  0.19080568292E+04  0.65864270000E+03 0.  0.
    8880022    1    1    2    0    0  0.50253085305E+03  0.59826303922E+03 -0.18382823263E+03  0.81709264744E+03  0.15294330000E+03 0.  0.
<mgrwt>
<rscale>  0 0.96006868E+03</rscale>
<asrwt>0</asrwt>
<pdfrwt beam="1">  1        2 0.31943543E+00 0.10218934E+04</pdfrwt>
<pdfrwt beam="2">  1       -2 0.99818332E-01 0.10218934E+04</pdfrwt>
<totfact> 0.50196290E+00</totfact>
</mgrwt>
</event>
<event>
 4    2  0.9070994E-007  0.8034975E+03  0.7818608E-02  0.9703284E-01
          2   -1    0    0  501    0  0.00000000000E+00  0.00000000000E+00  0.31424311065E+04  0.31424311065E+04  0.25500000000E-02 0. -1.
         -2   -1    0    0    0  501 -0.00000000000E+00 -0.00000000000E+00 -0.55430354706E+03  0.55430354706E+03  0.25500000000E-02 0.  1.
    8880023    1    1    2    0    0 -0.41313643636E+02  0.45835699399E+03  0.29717039631E+04  0.30784139750E+04  0.65864270000E+03 0. -1.
    8880022    1    1    2    0    0  0.41313643636E+02 -0.45835699399E+03 -0.38357640363E+03  0.61832067855E+03  0.15294330000E+03 0.  0.
<mgrwt>
<rscale>  0 0.70821585E+03</rscale>
<asrwt>0</asrwt>
<pdfrwt beam="1">  1        2 0.48345094E+00 0.80349745E+03</pdfrwt>
<pdfrwt beam="2">  1       -2 0.85277469E-01 0.80349745E+03</pdfrwt>
<totfact> 0.17936047E+00</totfact>
</mgrwt>
</event>
<event>
 4    2  0.9070994E-007  0.7005588E+03  0.7818608E-02  0.9994891E-01
          2   -1    0    0  501    0  0.00000000000E+00  0.00000000000E+00  0.73986271130E+03  0.73986271131E+03  0.25500000000E-02 0. -1.
         -2   -1    0    0    0  501 -0.00000000000E+00 -0.00000000000E+00 -0.77147858406E+03  0.77147858406E+03  0.25500000000E-02 0.  1.
    8880023    1    1    2    0    0  0.19686366057E+03 -0.13497102651E+03  0.53252367027E+03  0.87997962733E+03  0.65864270000E+03 0. -1.
    8880022    1    1    2    0    0 -0.19686366057E+03  0.13497102651E+03 -0.56413954303E+03  0.63136166804E+03  0.15294330000E+03 0.  0.
<mgrwt>
<rscale>  0 0.55874834E+03</rscale>
<asrwt>0</asrwt>
<pdfrwt beam="1">  1        2 0.11382503E+00 0.70055884E+03</pdfrwt>
<pdfrwt beam="2">  1       -2 0.11868901E+00 0.70055884E+03</pdfrwt>
<totfact> 0.21222198E+01</totfact>
</mgrwt>
</event>
<event>
 4    2  0.9070994E-007  0.8827659E+03  0.7818608E-02  0.9554284E-01
          2   -1    0    0  501    0  0.00000000000E+00  0.00000000000E+00  0.22469400389E+04  0.22469400389E+04  0.25500000000E-02 0. -1.
         -2   -1    0    0    0  501 -0.00000000000E+00 -0.00000000000E+00 -0.43138071064E+03  0.43138071065E+03  0.25500000000E-02 0.  1.
    8880023    1    1    2    0    0  0.46714432579E+03  0.35670935729E+03  0.18706619134E+04  0.20684901710E+04  0.65864270000E+03 0. -1.
    8880022    1    1    2    0    0 -0.46714432579E+03 -0.35670935729E+03 -0.55102585169E+02  0.60983057860E+03  0.15294330000E+03 0.  0.
<mgrwt>
<rscale>  0 0.80397290E+03</rscale>
<asrwt>0</asrwt>
<pdfrwt beam="1">  1        2 0.34568308E+00 0.88276588E+03</pdfrwt>
<pdfrwt beam="2">  1       -2 0.66366263E-01 0.88276588E+03</pdfrwt>
<totfact> 0.10360925E+01</totfact>
</mgrwt>
</event>
<event>
 4    2  0.9070994E-007  0.8184454E+03  0.7818608E-02  0.9672247E-01
          2   -1    0    0  501    0  0.00000000000E+00  0.00000000000E+00  0.38980417194E+04  0.38980417194E+04  0.25500000000E-02 0. -1.
         -2   -1    0    0    0  501 -0.00000000000E+00 -0.00000000000E+00 -0.11452767127E+03  0.11452767130E+03  0.25500000000E-02 0.  1.
    8880023    1    1    2    0    0  0.38395036304E+03  0.29769901564E+03  0.25466223010E+04  0.26749089583E+04  0.65864270000E+03 0.  0.
    8880022    1    1    2    0    0 -0.38395036304E+03 -0.29769901564E+03  0.12368917472E+04  0.13376604324E+04  0.15294330000E+03 0.  1.
<mgrwt>
<rscale>  0 0.72693516E+03</rscale>
<asrwt>0</asrwt>
<pdfrwt beam="1">  1        2 0.59969867E+00 0.81844535E+03</pdfrwt>
<pdfrwt beam="2">  1       -2 0.17619643E-01 0.81844535E+03</pdfrwt>
<totfact> 0.11877938E+01</totfact>
</mgrwt>
</event>
<event>
 4    2  0.9070994E-007  0.6894250E+03  0.7818608E-02  0.1004427E+00
         -2   -1    0    0    0  501 -0.00000000000E+00  0.00000000000E+00  0.21968849432E+03  0.21968849434E+03  0.25500000000E-02 0.  1.
          2   -1    0    0  501    0  0.00000000000E+00 -0.00000000000E+00 -0.14073730297E+04  0.14073730297E+04  0.25500000000E-02 0. -1.
    8880023    1    1    2    0    0 -0.89675747320E+02  0.18290682278E+03 -0.11865813996E+04  0.13723273187E+04  0.65864270000E+03 0. -1.
    8880022    1    1    2    0    0  0.89675747320E+02 -0.18290682278E+03 -0.11031358260E+01  0.25473420540E+03  0.15294330000E+03 0.  0.
<mgrwt>
<rscale>  0 0.53750942E+03</rscale>
<asrwt>0</asrwt>
<pdfrwt beam="1">  1        2 0.21651892E+00 0.68942502E+03</pdfrwt>
<pdfrwt beam="2">  1       -2 0.33798231E-01 0.68942502E+03</pdfrwt>
<totfact> 0.11988349E+02</totfact>
</mgrwt>
</event>
<event>
 4    2  0.9070994E-007  0.7157088E+03  0.7818608E-02  0.9937383E-01
         -2   -1    0    0    0  501 -0.00000000000E+00  0.00000000000E+00  0.41819407981E+03  0.41819407981E+03  0.25500000000E-02 0.  1.
          2   -1    0    0  501    0  0.00000000000E+00 -0.00000000000E+00 -0.81672793599E+03  0.81672793599E+03  0.25500000000E-02 0. -1.
    8880023    1    1    2    0    0  0.19669379111E+03  0.19934996622E+03 -0.52920412231E+03  0.89011014252E+03  0.65864270000E+03 0. -1.
    8880022    1    1    2    0    0 -0.19669379111E+03 -0.19934996622E+03  0.13067026612E+03  0.34481187328E+03  0.15294330000E+03 0.  0.
<mgrwt>
<rscale>  0 0.58483273E+03</rscale>
<asrwt>0</asrwt>
<pdfrwt beam="1">  1        2 0.12565045E+00 0.71570878E+03</pdfrwt>
<pdfrwt beam="2">  1       -2 0.64337551E-01 0.71570878E+03</pdfrwt>
<totfact> 0.75947022E+01</totfact>
</mgrwt>
</event>
<event>
 4    2  0.9070994E-007  0.1033058E+04  0.7818608E-02  0.9339531E-01
         -2   -1    0    0    0  501 -0.00000000000E+00  0.00000000000E+00  0.17660628054E+04  0.17660628054E+04  0.25500000000E-02 0.  1.
          2   -1    0    0  501    0  0.00000000000E+00 -0.00000000000E+00 -0.10488821460E+04  0.10488821460E+04  0.25500000000E-02 0. -1.
    8880023    1    1    2    0    0 -0.49618516576E+03  0.62225334670E+03 -0.65364193099E+03  0.12224798266E+04  0.65864270000E+03 0.  0.
    8880022    1    1    2    0    0  0.49618516576E+03 -0.62225334670E+03  0.13708225904E+04  0.15924651248E+04  0.15294330000E+03 0.  0.
<mgrwt>
<rscale>  0 0.97223655E+03</rscale>
<asrwt>0</asrwt>
<pdfrwt beam="1">  1        2 0.16136649E+00 0.10330582E+04</pdfrwt>
<pdfrwt beam="2">  1       -2 0.27170196E+00 0.10330582E+04</pdfrwt>
<totfact> 0.11041844E+00</totfact>
</mgrwt>
</event>
<event>
 4    2  0.9070994E-007  0.1452112E+04  0.7818608E-02  0.8944213E-01
         -2   -1    0    0    0  501 -0.00000000000E+00  0.00000000000E+00  0.10465912573E+04  0.10465912573E+04  0.25500000000E-02 0.  1.
          2   -1    0    0  501    0  0.00000000000E+00 -0.00000000000E+00 -0.23175879336E+04  0.23175879336E+04  0.25500000000E-02 0. -1.
    8880023    1    1    2    0    0  0.12395568735E+04  0.37191218022E+03 -0.14460560795E+04  0.20493189854E+04  0.65864270000E+03 0.  0.
    8880022    1    1    2    0    0 -0.12395568735E+04 -0.37191218022E+03  0.17505940331E+03  0.13148602055E+04  0.15294330000E+03 0.  0.
<mgrwt>
<rscale>  0 0.14133481E+04</rscale>
<asrwt>0</asrwt>
<pdfrwt beam="1">  1        2 0.35655199E+00 0.14521123E+04</pdfrwt>
<pdfrwt beam="2">  1       -2 0.16101404E+00 0.14521123E+04</pdfrwt>
<totfact> 0.10394277E+00</totfact>
</mgrwt>
</event>
<event>
 4    2  0.9070994E-007  0.9396977E+03  0.7818608E-02  0.9465094E-01
         -2   -1    0    0    0  501 -0.00000000000E+00  0.00000000000E+00  0.13759768046E+04  0.13759768046E+04  0.25500000000E-02 0.  1.
          2   -1    0    0  501    0  0.00000000000E+00 -0.00000000000E+00 -0.15758508309E+04  0.15758508309E+04  0.25500000000E-02 0. -1.
    8880023    1    1    2    0    0 -0.66503977306E+03 -0.83329157923E+02 -0.13303309195E+04  0.16287455940E+04  0.65864270000E+03 0. -1.
    8880022    1    1    2    0    0  0.66503977306E+03  0.83329157923E+02  0.11304568932E+04  0.13230820415E+04  0.15294330000E+03 0.  0.
<mgrwt>
<rscale>  0 0.86906925E+03</rscale>
<asrwt>0</asrwt>
<pdfrwt beam="1">  1        2 0.24243859E+00 0.93969775E+03</pdfrwt>
<pdfrwt beam="2">  1       -2 0.21168874E+00 0.93969775E+03</pdfrwt>
<totfact> 0.12895022E+00</totfact>
</mgrwt>
</event>
<event>
 4    2  0.9070994E-007  0.7398752E+03  0.7818608E-02  0.9860311E-01
          2   -1    0    0  501    0  0.00000000000E+00  0.00000000000E+00  0.24309759841E+04  0.24309759841E+04  0.25500000000E-02 0. -1.
         -2   -1    0    0    0  501 -0.00000000000E+00 -0.00000000000E+00 -0.17426721934E+03  0.17426721936E+03  0.25500000000E-02 0.  1.
    8880023    1    1    2    0    0  0.87982264951E+02  0.32536788677E+03  0.20540998098E+04  0.21832868286E+04  0.65864270000E+03 0.  0.
    8880022    1    1    2    0    0 -0.87982264951E+02 -0.32536788677E+03  0.20260895490E+03  0.42195637489E+03  0.15294330000E+03 0.  0.
<mgrwt>
<rscale>  0 0.62223962E+03</rscale>
<asrwt>0</asrwt>
<pdfrwt beam="1">  1        2 0.37399630E+00 0.73987522E+03</pdfrwt>
<pdfrwt beam="2">  1       -2 0.26810342E-01 0.73987522E+03</pdfrwt>
<totfact> 0.50102478E+01</totfact>
</mgrwt>
</event>
<event>
 4    2  0.9070994E-007  0.6739935E+03  0.7818608E-02  0.1012948E+00
         -2   -1    0    0    0  501 -0.00000000000E+00  0.00000000000E+00  0.32410457300E+03  0.32410457301E+03  0.25500000000E-02 0.  1.
          2   -1    0    0  501    0  0.00000000000E+00 -0.00000000000E+00 -0.65774469656E+03  0.65774469657E+03  0.25500000000E-02 0. -1.
    8880023    1    1    2    0    0 -0.12546356182E+03 -0.68672712606E+02 -0.37067437517E+03  0.76919876851E+03  0.65864270000E+03 0.  0.
    8880022    1    1    2    0    0  0.12546356182E+03  0.68672712606E+02  0.37034251612E+02  0.21265050108E+03  0.15294330000E+03 0.  0.
<mgrwt>
<rscale>  0 0.50319507E+03</rscale>
<asrwt>0</asrwt>
<pdfrwt beam="1">  1        2 0.10119149E+00 0.67399351E+03</pdfrwt>
<pdfrwt beam="2">  1       -2 0.49862242E-01 0.67399351E+03</pdfrwt>
<totfact> 0.17099235E+02</totfact>
</mgrwt>
</event>
<event>
 4    2  0.9070994E-007  0.7032701E+03  0.7818608E-02  0.9983897E-01
         -2   -1    0    0    0  501 -0.00000000000E+00  0.00000000000E+00  0.12483039943E+04  0.12483039943E+04  0.25500000000E-02 0.  1.
          2   -1    0    0  501    0  0.00000000000E+00 -0.00000000000E+00 -0.12342981438E+04  0.12342981438E+04  0.25500000000E-02 0. -1.
    8880023    1    1    2    0    0 -0.11785096904E+03 -0.21654047795E+03 -0.11142581983E+04  0.13176343074E+04  0.65864270000E+03 0. -1.
    8880022    1    1    2    0    0  0.11785096904E+03  0.21654047795E+03  0.11282640488E+04  0.11649678306E+04  0.15294330000E+03 0.  0.
<mgrwt>
<rscale>  0 0.56362009E+03</rscale>
<asrwt>0</asrwt>
<pdfrwt beam="1">  1        2 0.18989202E+00 0.70327010E+03</pdfrwt>
<pdfrwt beam="2">  1       -2 0.19204677E+00 0.70327010E+03</pdfrwt>
<totfact> 0.28069577E+00</totfact>
</mgrwt>
</event>
<event>
 4    2  0.9070994E-007  0.7821206E+03  0.7818608E-02  0.9750879E-01
         -2   -1    0    0    0  501 -0.00000000000E+00  0.00000000000E+00  0.28583300491E+03  0.28583300492E+03  0.25500000000E-02 0.  1.
          2   -1    0    0  501    0  0.00000000000E+00 -0.00000000000E+00 -0.16475349290E+04  0.16475349290E+04  0.25500000000E-02 0. -1.
    8880023    1    1    2    0    0 -0.29724009623E+03  0.29925040952E+03 -0.12441506815E+04  0.14695657886E+04  0.65864270000E+03 0.  0.
    8880022    1    1    2    0    0  0.29724009623E+03 -0.29925040952E+03 -0.11755124263E+03  0.46380214538E+03  0.15294330000E+03 0.  0.
<mgrwt>
<rscale>  0 0.68066622E+03</rscale>
<asrwt>0</asrwt>
<pdfrwt beam="1">  1        2 0.25346691E+00 0.78212064E+03</pdfrwt>
<pdfrwt beam="2">  1       -2 0.43974310E-01 0.78212064E+03</pdfrwt>
<totfact> 0.52484001E+01</totfact>
</mgrwt>
</event>
<event>
 4    2  0.9070994E-007  0.7272078E+03  0.7818608E-02  0.9898911E-01
         -2   -1    0    0    0  501 -0.00000000000E+00  0.00000000000E+00  0.77235020747E+03  0.77235020747E+03  0.25500000000E-02 0.  1.
          2   -1    0    0  501    0  0.00000000000E+00 -0.00000000000E+00 -0.73353528770E+03  0.73353528770E+03  0.25500000000E-02 0. -1.
    8880023    1    1    2    0    0  0.30550668525E+03  0.41068590682E+02 -0.48862476763E+03  0.87611947455E+03  0.65864270000E+03 0. -1.
    8880022    1    1    2    0    0 -0.30550668525E+03 -0.41068590682E+02  0.52743968740E+03  0.62976602063E+03  0.15294330000E+03 0.  0.
<mgrwt>
<rscale>  0 0.60314071E+03</rscale>
<asrwt>0</asrwt>
<pdfrwt beam="1">  1        2 0.11285158E+00 0.72720779E+03</pdfrwt>
<pdfrwt beam="2">  1       -2 0.11882311E+00 0.72720779E+03</pdfrwt>
<totfact> 0.21341196E+01</totfact>
</mgrwt>
</event>
<event>
 4    2  0.9070994E-007  0.8766122E+03  0.7818608E-02  0.9564670E-01
          2   -1    0    0  501    0  0.00000000000E+00  0.00000000000E+00  0.17596821573E+04  0.17596821573E+04  0.25500000000E-02 0. -1.
         -2   -1    0    0    0  501 -0.00000000000E+00 -0.00000000000E+00 -0.88211927561E+03  0.88211927561E+03  0.25500000000E-02 0.  1.
    8880023    1    1    2    0    0  0.11096613205E+03 -0.56773696260E+03  0.15257561145E+04  0.17596535648E+04  0.65864270000E+03 0. -1.
    8880022    1    1    2    0    0 -0.11096613205E+03  0.56773696260E+03 -0.64819323276E+03  0.88214786809E+03  0.15294330000E+03 0.  0.
<mgrwt>
<rscale>  0 0.79679320E+03</rscale>
<asrwt>0</asrwt>
<pdfrwt beam="1">  1        2 0.27072033E+00 0.87661220E+03</pdfrwt>
<pdfrwt beam="2">  1       -2 0.13571066E+00 0.87661220E+03</pdfrwt>
<totfact> 0.35772476E+00</totfact>
</mgrwt>
</event>
<event>
 4    2  0.9070994E-007  0.7671331E+03  0.7818608E-02  0.9786979E-01
         -2   -1    0    0    0  501 -0.00000000000E+00  0.00000000000E+00  0.25077484689E+04  0.25077484689E+04  0.25500000000E-02 0.  1.
          2   -1    0    0  501    0  0.00000000000E+00 -0.00000000000E+00 -0.95931565761E+03  0.95931565761E+03  0.25500000000E-02 0. -1.
    8880023    1    1    2    0    0  0.26810506827E+03 -0.28775462864E+03 -0.78393141009E+03  0.10968325834E+04  0.65864270000E+03 0. -1.
    8880022    1    1    2    0    0 -0.26810506827E+03  0.28775462864E+03  0.23323642214E+04  0.23702315432E+04  0.15294330000E+03 0.  0.
<mgrwt>
<rscale>  0 0.66066050E+03</rscale>
<asrwt>0</asrwt>
<pdfrwt beam="1">  1        2 0.14758702E+00 0.76713314E+03</pdfrwt>
<pdfrwt beam="2">  1       -2 0.38580746E+00 0.76713314E+03</pdfrwt>
<totfact> 0.26104412E-01</totfact>
</mgrwt>
</event>
<event>
 4    2  0.9070994E-007  0.7464211E+03  0.7818608E-02  0.9841623E-01
         -2   -1    0    0    0  501 -0.00000000000E+00  0.00000000000E+00  0.66843870273E+03  0.66843870273E+03  0.25500000000E-02 0.  1.
          2   -1    0    0  501    0  0.00000000000E+00 -0.00000000000E+00 -0.11208420189E+04  0.11208420189E+04  0.25500000000E-02 0. -1.
    8880023    1    1    2    0    0 -0.34230155361E+03 -0.78510437058E+02 -0.92006925749E+03  0.11847665961E+04  0.65864270000E+03 0. -1.
    8880022    1    1    2    0    0  0.34230155361E+03  0.78510437058E+02  0.46766594131E+03  0.60451412557E+03  0.15294330000E+03 0.  0.
<mgrwt>
<rscale>  0 0.63175876E+03</rscale>
<asrwt>0</asrwt>
<pdfrwt beam="1">  1        2 0.17243723E+00 0.74642109E+03</pdfrwt>
<pdfrwt beam="2">  1       -2 0.10283672E+00 0.74642109E+03</pdfrwt>
<totfact> 0.16648131E+01</totfact>
</mgrwt>
</event>
<event>
 4    2  0.9070994E-007  0.7213958E+03  0.7818608E-02  0.9917891E-01
          2   -1    0    0  501    0  0.00000000000E+00  0.00000000000E+00  0.93510426005E+03  0.93510426005E+03  0.25500000000E-02 0. -1.
         -2   -1    0    0    0  501 -0.00000000000E+00 -0.00000000000E+00 -0.32898924872E+03  0.32898924873E+03  0.25500000000E-02 0.  1.
    8880023    1    1    2    0    0  0.28111290145E+03  0.87047279102E+02  0.59018793166E+03  0.93205884637E+03  0.65864270000E+03 0. -1.
    8880022    1    1    2    0    0 -0.28111290145E+03 -0.87047279102E+02  0.15927079666E+02  0.33203466241E+03  0.15294330000E+03 0.  1.
<mgrwt>
<rscale>  0 0.59401992E+03</rscale>
<asrwt>0</asrwt>
<pdfrwt beam="1">  1        2 0.14386219E+00 0.72139580E+03</pdfrwt>
<pdfrwt beam="2">  1       -2 0.50613731E-01 0.72139580E+03</pdfrwt>
<totfact> 0.10405273E+02</totfact>
</mgrwt>
</event>
<event>
 4    2  0.9070994E-007  0.8484170E+03  0.7818608E-02  0.9614509E-01
         -2   -1    0    0    0  501 -0.00000000000E+00  0.00000000000E+00  0.88058706930E+03  0.88058706930E+03  0.25500000000E-02 0.  1.
          2   -1    0    0  501    0  0.00000000000E+00 -0.00000000000E+00 -0.20205339447E+04  0.20205339447E+04  0.25500000000E-02 0. -1.
    8880023    1    1    2    0    0  0.42775825802E+03 -0.32097365652E+03 -0.18286321548E+04  0.20158638296E+04  0.65864270000E+03 0.  0.
    8880022    1    1    2    0    0 -0.42775825802E+03  0.32097365652E+03  0.68868527941E+03  0.88525718443E+03  0.15294330000E+03 0.  0.
<mgrwt>
<rscale>  0 0.76343280E+03</rscale>
<asrwt>0</asrwt>
<pdfrwt beam="1">  1        2 0.31085138E+00 0.84841701E+03</pdfrwt>
<pdfrwt beam="2">  1       -2 0.13547493E+00 0.84841701E+03</pdfrwt>
<totfact> 0.25966643E+00</totfact>
</mgrwt>
</event>
<event>
 4    2  0.9070994E-007  0.7141727E+03  0.7818608E-02  0.9942820E-01
          2   -1    0    0  501    0  0.00000000000E+00  0.00000000000E+00  0.12033976041E+04  0.12033976041E+04  0.25500000000E-02 0. -1.
         -2   -1    0    0    0  501 -0.00000000000E+00 -0.00000000000E+00 -0.25714298592E+03  0.25714298593E+03  0.25500000000E-02 0.  1.
    8880023    1    1    2    0    0 -0.13775250616E+03 -0.23928369493E+03  0.88803585703E+03  0.11395834016E+04  0.65864270000E+03 0. -1.
    8880022    1    1    2    0    0  0.13775250616E+03  0.23928369493E+03  0.58218761108E+02  0.32095718838E+03  0.15294330000E+03 0.  0.
<mgrwt>
<rscale>  0 0.58230160E+03</rscale>
<asrwt>0</asrwt>
<pdfrwt beam="1">  1        2 0.18513809E+00 0.71417270E+03</pdfrwt>
<pdfrwt beam="2">  1       -2 0.39560460E-01 0.71417270E+03</pdfrwt>
<totfact> 0.11590815E+02</totfact>
</mgrwt>
</event>
<event>
 4    2  0.9070994E-007  0.8731460E+03  0.7818608E-02  0.9570594E-01
         -2   -1    0    0    0  501 -0.00000000000E+00  0.00000000000E+00  0.10157699738E+04  0.10157699738E+04  0.25500000000E-02 0.  1.
          2   -1    0    0  501    0  0.00000000000E+00 -0.00000000000E+00 -0.11256112863E+04  0.11256112863E+04  0.25500000000E-02 0. -1.
    8880023    1    1    2    0    0 -0.42780335501E+03  0.38152071706E+03 -0.83248483982E+03  0.12064058119E+04  0.65864270000E+03 0. -1.
    8880022    1    1    2    0    0  0.42780335501E+03 -0.38152071706E+03  0.72264352734E+03  0.93497544819E+03  0.15294330000E+03 0.  0.
<mgrwt>
<rscale>  0 0.79273432E+03</rscale>
<asrwt>0</asrwt>
<pdfrwt beam="1">  1        2 0.17317097E+00 0.87314602E+03</pdfrwt>
<pdfrwt beam="2">  1       -2 0.15627230E+00 0.87314602E+03</pdfrwt>
<totfact> 0.56695522E+00</totfact>
</mgrwt>
</event>
<event>
 4    2  0.9070994E-007  0.7163876E+03  0.7818608E-02  0.9935004E-01
         -2   -1    0    0    0  501 -0.00000000000E+00  0.00000000000E+00  0.17137418073E+03  0.17137418075E+03  0.25500000000E-02 0.  1.
          2   -1    0    0  501    0  0.00000000000E+00 -0.00000000000E+00 -0.27676115976E+04  0.27676115976E+04  0.25500000000E-02 0. -1.
    8880023    1    1    2    0    0 -0.18570782112E+01  0.28177574305E+03 -0.25053186891E+04  0.26057307916E+04  0.65864270000E+03 0. -1.
    8880022    1    1    2    0    0  0.18570782112E+01 -0.28177574305E+03 -0.90918727748E+02  0.33325498673E+03  0.15294330000E+03 0.  0.
<mgrwt>
<rscale>  0 0.58594429E+03</rscale>
<asrwt>0</asrwt>
<pdfrwt beam="1">  1        2 0.42578637E+00 0.71638762E+03</pdfrwt>
<pdfrwt beam="2">  1       -2 0.26365261E-01 0.71638762E+03</pdfrwt>
<totfact> 0.33214832E+01</totfact>
</mgrwt>
</event>
<event>
 4    2  0.9070994E-007  0.8475630E+03  0.7818608E-02  0.9616081E-01
         -2   -1    0    0    0  501 -0.00000000000E+00  0.00000000000E+00  0.54470834606E+03  0.54470834606E+03  0.25500000000E-02 0.  1.
          2   -1    0    0  501    0  0.00000000000E+00 -0.00000000000E+00 -0.20462220335E+04  0.20462220335E+04  0.25500000000E-02 0. -1.
    8880023    1    1    2    0    0 -0.27604890442E+03 -0.45645360806E+03 -0.17789316720E+04  0.19705230254E+04  0.65864270000E+03 0.  0.
    8880022    1    1    2    0    0  0.27604890442E+03  0.45645360806E+03  0.27741798451E+03  0.62040735415E+03  0.15294330000E+03 0.  0.
<mgrwt>
<rscale>  0 0.76240910E+03</rscale>
<asrwt>0</asrwt>
<pdfrwt beam="1">  1        2 0.31480339E+00 0.84756304E+03</pdfrwt>
<pdfrwt beam="2">  1       -2 0.83801285E-01 0.84756304E+03</pdfrwt>
<totfact> 0.80081484E+00</totfact>
</mgrwt>
</event>
<event>
 4    2  0.9070994E-007  0.7675516E+03  0.7818608E-02  0.9785935E-01
          2   -1    0    0  501    0  0.00000000000E+00  0.00000000000E+00  0.10385849191E+04  0.10385849191E+04  0.25500000000E-02 0. -1.
         -2   -1    0    0    0  501 -0.00000000000E+00 -0.00000000000E+00 -0.54847921242E+03  0.54847921242E+03  0.25500000000E-02 0.  1.
    8880023    1    1    2    0    0 -0.28366524593E+03 -0.27360424186E+03  0.76429576600E+03  0.10831821071E+04  0.65864270000E+03 0. -1.
    8880022    1    1    2    0    0  0.28366524593E+03  0.27360424186E+03 -0.27419005932E+03  0.50388202444E+03  0.15294330000E+03 0.  0.
<mgrwt>
<rscale>  0 0.66122824E+03</rscale>
<asrwt>0</asrwt>
<pdfrwt beam="1">  1        2 0.15978229E+00 0.76755160E+03</pdfrwt>
<pdfrwt beam="2">  1       -2 0.84381418E-01 0.76755160E+03</pdfrwt>
<totfact> 0.29591555E+01</totfact>
</mgrwt>
</event>
<event>
 4    2  0.9070994E-007  0.7381876E+03  0.7818608E-02  0.9865258E-01
         -2   -1    0    0    0  501 -0.00000000000E+00  0.00000000000E+00  0.39777375531E+03  0.39777375531E+03  0.25500000000E-02 0.  1.
          2   -1    0    0  501    0  0.00000000000E+00 -0.00000000000E+00 -0.23124825585E+04  0.23124825585E+04  0.25500000000E-02 0. -1.
    8880023    1    1    2    0    0  0.17220348644E+03  0.28540619229E+03 -0.21508919181E+04  0.22740397941E+04  0.65864270000E+03 0. -1.
    8880022    1    1    2    0    0 -0.17220348644E+03 -0.28540619229E+03  0.23618311490E+03  0.43621651977E+03  0.15294330000E+03 0.  0.
<mgrwt>
<rscale>  0 0.61974968E+03</rscale>
<asrwt>0</asrwt>
<pdfrwt beam="1">  1        2 0.35576654E+00 0.73818761E+03</pdfrwt>
<pdfrwt beam="2">  1       -2 0.61195963E-01 0.73818761E+03</pdfrwt>
<totfact> 0.11576534E+01</totfact>
</mgrwt>
</event>
<event>
 4    2  0.9070994E-007  0.7778653E+03  0.7818608E-02  0.9760876E-01
          2   -1    0    0  501    0  0.00000000000E+00  0.00000000000E+00  0.26882304730E+04  0.26882304730E+04  0.25500000000E-02 0. -1.
         -2   -1    0    0    0  501 -0.00000000000E+00 -0.00000000000E+00 -0.15379652033E+03  0.15379652035E+03  0.25500000000E-02 0.  1.
    8880023    1    1    2    0    0 -0.14278126547E+03  0.38842977632E+03  0.11450477174E+04  0.13842718889E+04  0.65864270000E+03 0.  1.
    8880022    1    1    2    0    0  0.14278126547E+03 -0.38842977632E+03  0.13893862353E+04  0.14577551045E+04  0.15294330000E+03 0. -1.
<mgrwt>
<rscale>  0 0.67505120E+03</rscale>
<asrwt>0</asrwt>
<pdfrwt beam="1">  1        2 0.41357389E+00 0.77786528E+03</pdfrwt>
<pdfrwt beam="2">  1       -2 0.23661005E-01 0.77786528E+03</pdfrwt>
<totfact> 0.44532092E+01</totfact>
</mgrwt>
</event>
<event>
 4    2  0.9070994E-007  0.8411550E+03  0.7818608E-02  0.9628006E-01
         -2   -1    0    0    0  501 -0.00000000000E+00  0.00000000000E+00  0.22072971549E+03  0.22072971551E+03  0.25500000000E-02 0.  1.
          2   -1    0    0  501    0  0.00000000000E+00 -0.00000000000E+00 -0.24657406012E+04  0.24657406012E+04  0.25500000000E-02 0. -1.
    8880023    1    1    2    0    0 -0.29174638320E+03  0.43429889592E+03 -0.17848152360E+04  0.19730958203E+04  0.65864270000E+03 0. -1.
    8880022    1    1    2    0    0  0.29174638320E+03 -0.43429889592E+03 -0.46019564965E+03  0.71337449637E+03  0.15294330000E+03 0.  0.
<mgrwt>
<rscale>  0 0.75469952E+03</rscale>
<asrwt>0</asrwt>
<pdfrwt beam="1">  1        2 0.37934469E+00 0.84115497E+03</pdfrwt>
<pdfrwt beam="2">  1       -2 0.33958420E-01 0.84115497E+03</pdfrwt>
<totfact> 0.30452238E+01</totfact>
</mgrwt>
</event>
<event>
 4    2  0.9070994E-007  0.7507879E+03  0.7818608E-02  0.9829568E-01
          2   -1    0    0  501    0  0.00000000000E+00  0.00000000000E+00  0.34886108529E+04  0.34886108529E+04  0.25500000000E-02 0. -1.
         -2   -1    0    0    0  501 -0.00000000000E+00 -0.00000000000E+00 -0.11963614087E+03  0.11963614090E+03  0.25500000000E-02 0.  1.
    8880023    1    1    2    0    0 -0.77199398072E+02 -0.35201206781E+03  0.29085279244E+04  0.30038670304E+04  0.65864270000E+03 0. -1.
    8880022    1    1    2    0    0  0.77199398072E+02  0.35201206781E+03  0.46044678770E+03  0.60437996349E+03  0.15294330000E+03 0.  0.
<mgrwt>
<rscale>  0 0.63799595E+03</rscale>
<asrwt>0</asrwt>
<pdfrwt beam="1">  1        2 0.53670937E+00 0.75078789E+03</pdfrwt>
<pdfrwt beam="2">  1       -2 0.18405560E-01 0.75078789E+03</pdfrwt>
<totfact> 0.21979670E+01</totfact>
</mgrwt>
</event>
<event>
 4    2  0.9070994E-007  0.6705345E+03  0.7818608E-02  0.1015283E+00
         -2   -1    0    0    0  501 -0.00000000000E+00  0.00000000000E+00  0.10875352123E+04  0.10875352123E+04  0.25500000000E-02 0.  1.
          2   -1    0    0  501    0  0.00000000000E+00 -0.00000000000E+00 -0.36568110942E+03  0.36568110943E+03  0.25500000000E-02 0. -1.
    8880023    1    1    2    0    0 -0.73270246853E+02 -0.10216566068E+03 -0.34458339810E+02  0.67141934344E+03  0.65864270000E+03 0.  0.
    8880022    1    1    2    0    0  0.73270246853E+02  0.10216566068E+03  0.75631244273E+03  0.78179697834E+03  0.15294330000E+03 0.  0.
<mgrwt>
<rscale>  0 0.49428093E+03</rscale>
<asrwt>0</asrwt>
<pdfrwt beam="1">  1        2 0.56258633E-01 0.67053453E+03</pdfrwt>
<pdfrwt beam="2">  1       -2 0.16731311E+00 0.67053453E+03</pdfrwt>
<totfact> 0.20012914E+01</totfact>
</mgrwt>
</event>
<event>
 4    2  0.9070994E-007  0.6875907E+03  0.7818608E-02  0.1005319E+00
         -2   -1    0    0    0  501 -0.00000000000E+00  0.00000000000E+00  0.79265023143E+03  0.79265023143E+03  0.25500000000E-02 0.  1.
          2   -1    0    0  501    0  0.00000000000E+00 -0.00000000000E+00 -0.29135605115E+03  0.29135605116E+03  0.25500000000E-02 0. -1.
    8880023    1    1    2    0    0  0.19083650645E+03  0.50519042735E+02  0.25526239754E+03  0.73344382453E+03  0.65864270000E+03 0.  0.
    8880022    1    1    2    0    0 -0.19083650645E+03 -0.50519042735E+02  0.24603178273E+03  0.35056245807E+03  0.15294330000E+03 0.  0.
<mgrwt>
<rscale>  0 0.53378067E+03</rscale>
<asrwt>0</asrwt>
<pdfrwt beam="1">  1        2 0.44824009E-01 0.68759069E+03</pdfrwt>
<pdfrwt beam="2">  1       -2 0.12194619E+00 0.68759069E+03</pdfrwt>
<totfact> 0.58665191E+01</totfact>
</mgrwt>
</event>
<event>
 4    2  0.9070994E-007  0.8948427E+03  0.7818608E-02  0.9534362E-01
          2   -1    0    0  501    0  0.00000000000E+00  0.00000000000E+00  0.21167127328E+04  0.21167127328E+04  0.25500000000E-02 0. -1.
         -2   -1    0    0    0  501 -0.00000000000E+00 -0.00000000000E+00 -0.56646637875E+03  0.56646637875E+03  0.25500000000E-02 0.  1.
    8880023    1    1    2    0    0 -0.16557273710E+02  0.60552390058E+03  0.18001482493E+04  0.20102928302E+04  0.65864270000E+03 0. -1.
    8880022    1    1    2    0    0  0.16557273710E+02 -0.60552390058E+03 -0.24990189517E+03  0.67288628141E+03  0.15294330000E+03 0.  0.
<mgrwt>
<rscale>  0 0.81797181E+03</rscale>
<asrwt>0</asrwt>
<pdfrwt beam="1">  1        2 0.32564811E+00 0.89484275E+03</pdfrwt>
<pdfrwt beam="2">  1       -2 0.87148673E-01 0.89484275E+03</pdfrwt>
<totfact> 0.66539850E+00</totfact>
</mgrwt>
</event>
<event>
 4    2  0.9070994E-007  0.9550055E+03  0.7818608E-02  0.9442949E-01
         -2   -1    0    0    0  501 -0.00000000000E+00  0.00000000000E+00  0.60712374610E+03  0.60712374610E+03  0.25500000000E-02 0.  1.
          2   -1    0    0  501    0  0.00000000000E+00 -0.00000000000E+00 -0.22256542740E+04  0.22256542740E+04  0.25500000000E-02 0. -1.
    8880023    1    1    2    0    0  0.91593713593E+02  0.68544578445E+03 -0.18547483064E+04  0.20861751647E+04  0.65864270000E+03 0.  0.
    8880022    1    1    2    0    0 -0.91593713593E+02 -0.68544578445E+03  0.23621777844E+03  0.74660285538E+03  0.15294330000E+03 0.  0.
<mgrwt>
<rscale>  0 0.88623917E+03</rscale>
<asrwt>0</asrwt>
<pdfrwt beam="1">  1        2 0.34240835E+00 0.95500552E+03</pdfrwt>
<pdfrwt beam="2">  1       -2 0.93403654E-01 0.95500552E+03</pdfrwt>
<totfact> 0.48925788E+00</totfact>
</mgrwt>
</event>
<event>
 4    2  0.9070994E-007  0.8563138E+03  0.7818608E-02  0.9600154E-01
         -2   -1    0    0    0  501 -0.00000000000E+00  0.00000000000E+00  0.33888439966E+03  0.33888439966E+03  0.25500000000E-02 0.  1.
          2   -1    0    0  501    0  0.00000000000E+00 -0.00000000000E+00 -0.25429224127E+04  0.25429224127E+04  0.25500000000E-02 0. -1.
    8880023    1    1    2    0    0  0.49838485175E+03 -0.22599936600E+03 -0.21461311422E+04  0.23106605678E+04  0.65864270000E+03 0.  0.
    8880022    1    1    2    0    0 -0.49838485175E+03  0.22599936600E+03 -0.57906870774E+02  0.57114624448E+03  0.15294330000E+03 0.  0.
<mgrwt>
<rscale>  0 0.77285964E+03</rscale>
<asrwt>0</asrwt>
<pdfrwt beam="1">  1        2 0.39121882E+00 0.85631383E+03</pdfrwt>
<pdfrwt beam="2">  1       -2 0.52136063E-01 0.85631383E+03</pdfrwt>
<totfact> 0.11782157E+01</totfact>
</mgrwt>
</event>
<event>
 4    2  0.9070994E-007  0.1109999E+04  0.7818608E-02  0.9250005E-01
          2   -1    0    0  501    0  0.00000000000E+00  0.00000000000E+00  0.13799160279E+04  0.13799160279E+04  0.25500000000E-02 0. -1.
         -2   -1    0    0    0  501 -0.00000000000E+00 -0.00000000000E+00 -0.10748993109E+04  0.10748993109E+04  0.25500000000E-02 0.  1.
    8880023    1    1    2    0    0  0.58088434853E+03 -0.67886666719E+03 -0.52305318504E+03  0.12270621088E+04  0.65864270000E+03 0.  1.
    8880022    1    1    2    0    0 -0.58088434853E+03  0.67886666719E+03  0.82806990197E+03  0.12277532300E+04  0.15294330000E+03 0.  0.
<mgrwt>
<rscale>  0 0.10551872E+04</rscale>
<asrwt>0</asrwt>
<pdfrwt beam="1">  1        2 0.21229477E+00 0.11099986E+04</pdfrwt>
<pdfrwt beam="2">  1       -2 0.16536913E+00 0.11099986E+04</pdfrwt>
<totfact> 0.33508205E+00</totfact>
</mgrwt>
</event>
<event>
 4    2  0.9070994E-007  0.9100489E+03  0.7818608E-02  0.9510089E-01
         -2   -1    0    0    0  501 -0.00000000000E+00  0.00000000000E+00  0.35423935200E+03  0.35423935201E+03  0.25500000000E-02 0.  1.
          2   -1    0    0  501    0  0.00000000000E+00 -0.00000000000E+00 -0.26823147509E+04  0.26823147509E+04  0.25500000000E-02 0. -1.
    8880023    1    1    2    0    0 -0.68106690153E+02 -0.62429175415E+03 -0.21956492306E+04  0.23767760655E+04  0.65864270000E+03 0. -1.
    8880022    1    1    2    0    0  0.68106690153E+02  0.62429175415E+03 -0.13242616829E+03  0.65977803738E+03  0.15294330000E+03 0.  0.
<mgrwt>
<rscale>  0 0.83544091E+03</rscale>
<asrwt>0</asrwt>
<pdfrwt beam="1">  1        2 0.41266380E+00 0.91004886E+03</pdfrwt>
<pdfrwt beam="2">  1       -2 0.54498364E-01 0.91004886E+03</pdfrwt>
<totfact> 0.88631446E+00</totfact>
</mgrwt>
</event>
<event>
 4    2  0.9070994E-007  0.1060041E+04  0.7818608E-02  0.9306908E-01
         -2   -1    0    0    0  501 -0.00000000000E+00  0.00000000000E+00  0.62392145413E+03  0.62392145413E+03  0.25500000000E-02 0.  1.
          2   -1    0    0  501    0  0.00000000000E+00 -0.00000000000E+00 -0.15916382561E+04  0.15916382561E+04  0.25500000000E-02 0. -1.
    8880023    1    1    2    0    0  0.72111933022E+03 -0.41214408306E+03 -0.20940761209E+03  0.10805265327E+04  0.65864270000E+03 0.  0.
    8880022    1    1    2    0    0 -0.72111933022E+03  0.41214408306E+03 -0.75830918988E+03  0.11350331775E+04  0.15294330000E+03 0.  0.
<mgrwt>
<rscale>  0 0.10014942E+04</rscale>
<asrwt>0</asrwt>
<pdfrwt beam="1">  1        2 0.24486742E+00 0.10600406E+04</pdfrwt>
<pdfrwt beam="2">  1       -2 0.95987917E-01 0.10600406E+04</pdfrwt>
<totfact> 0.10157853E+01</totfact>
</mgrwt>
</event>
<event>
 4    2  0.9070994E-007  0.7121413E+03  0.7818608E-02  0.9950134E-01
          2   -1    0    0  501    0  0.00000000000E+00  0.00000000000E+00  0.15157770133E+03  0.15157770135E+03  0.25500000000E-02 0. -1.
         -2   -1    0    0    0  501 -0.00000000000E+00 -0.00000000000E+00 -0.19863909509E+04  0.19863909509E+04  0.25500000000E-02 0.  1.
    8880023    1    1    2    0    0 -0.23914964949E+03  0.12705274617E+03 -0.15898979699E+04  0.17421023840E+04  0.65864270000E+03 0.  0.
    8880022    1    1    2    0    0  0.23914964949E+03 -0.12705274617E+03 -0.24491527966E+03  0.39586626831E+03  0.15294330000E+03 0.  0.
<mgrwt>
<rscale>  0 0.57891907E+03</rscale>
<asrwt>0</asrwt>
<pdfrwt beam="1">  1        2 0.23319648E-01 0.71214125E+03</pdfrwt>
<pdfrwt beam="2">  1       -2 0.30559859E+00 0.71214125E+03</pdfrwt>
<totfact> 0.72863477E+00</totfact>
</mgrwt>
</event>
<event>
 4    2  0.9070994E-007  0.6972428E+03  0.7818608E-02  0.1000884E+00
          2   -1    0    0  501    0  0.00000000000E+00  0.00000000000E+00  0.56766536418E+03  0.56766536419E+03  0.25500000000E-02 0. -1.
         -2   -1    0    0    0  501 -0.00000000000E+00 -0.00000000000E+00 -0.46621158380E+03  0.46621158380E+03  0.25500000000E-02 0.  1.
    8880023    1    1    2    0    0  0.80109708140E+02  0.21428886428E+03  0.22441237633E+03  0.73246733962E+03  0.65864270000E+03 0. -1.
    8880022    1    1    2    0    0 -0.80109708140E+02 -0.21428886428E+03 -0.12295859594E+03  0.30140960838E+03  0.15294330000E+03 0.  0.
<mgrwt>
<rscale>  0 0.55264437E+03</rscale>
<asrwt>0</asrwt>
<pdfrwt beam="1">  1        2 0.87333133E-01 0.69724278E+03</pdfrwt>
<pdfrwt beam="2">  1       -2 0.71724859E-01 0.69724278E+03</pdfrwt>
<totfact> 0.94791949E+01</totfact>
</mgrwt>
</event>
<event>
 4    2  0.9070994E-007  0.6682443E+03  0.7818608E-02  0.1016954E+00
          2   -1    0    0  501    0  0.00000000000E+00  0.00000000000E+00  0.21077539662E+04  0.21077539662E+04  0.25500000000E-02 0. -1.
         -2   -1    0    0    0  501 -0.00000000000E+00 -0.00000000000E+00 -0.88203655597E+02  0.88203655634E+02  0.25500000000E-02 0.  1.
    8880023    1    1    2    0    0 -0.58223610279E+02  0.96696404763E+02  0.16552095674E+04  0.17850123534E+04  0.65864270000E+03 0.  1.
    8880022    1    1    2    0    0  0.58223610279E+02 -0.96696404763E+02  0.36434074327E+03  0.41094526851E+03  0.15294330000E+03 0.  0.
<mgrwt>
<rscale>  0 0.48802007E+03</rscale>
<asrwt>0</asrwt>
<pdfrwt beam="1">  1        2 0.32426984E+00 0.66824426E+03</pdfrwt>
<pdfrwt beam="2">  1       -2 0.13569793E-01 0.66824426E+03</pdfrwt>
<totfact> 0.24952457E+02</totfact>
</mgrwt>
</event>
<event>
 4    2  0.9070994E-007  0.9609423E+03  0.7818608E-02  0.9434542E-01
         -2   -1    0    0    0  501 -0.00000000000E+00  0.00000000000E+00  0.71425205647E+03  0.71425205647E+03  0.25500000000E-02 0.  1.
          2   -1    0    0  501    0  0.00000000000E+00 -0.00000000000E+00 -0.19856952302E+04  0.19856952302E+04  0.25500000000E-02 0. -1.
    8880023    1    1    2    0    0  0.51748115299E+03 -0.47097048939E+03 -0.16351869964E+04  0.18966408899E+04  0.65864270000E+03 0.  0.
    8880022    1    1    2    0    0 -0.51748115299E+03  0.47097048939E+03  0.36374382270E+03  0.80330639680E+03  0.15294330000E+03 0.  0.
<mgrwt>
<rscale>  0 0.89286700E+03</rscale>
<asrwt>0</asrwt>
<pdfrwt beam="1">  1        2 0.30549157E+00 0.96094232E+03</pdfrwt>
<pdfrwt beam="2">  1       -2 0.10988493E+00 0.96094232E+03</pdfrwt>
<totfact> 0.45024275E+00</totfact>
</mgrwt>
</event>
<event>
 4    2  0.9070994E-007  0.1261270E+04  0.7818608E-02  0.9099749E-01
          2   -1    0    0  501    0  0.00000000000E+00  0.00000000000E+00  0.22223533005E+04  0.22223533005E+04  0.25500000000E-02 0. -1.
         -2   -1    0    0    0  501 -0.00000000000E+00 -0.00000000000E+00 -0.72452582885E+03  0.72452582886E+03  0.25500000000E-02 0.  1.
    8880023    1    1    2    0    0 -0.76387271467E+03  0.75729092432E+03  0.13548471589E+04  0.18510570219E+04  0.65864270000E+03 0. -1.
    8880022    1    1    2    0    0  0.76387271467E+03 -0.75729092432E+03  0.14298031278E+03  0.10958221074E+04  0.15294330000E+03 0.  0.
<mgrwt>
<rscale>  0 0.12150911E+04</rscale>
<asrwt>0</asrwt>
<pdfrwt beam="1">  1        2 0.34190050E+00 0.12612697E+04</pdfrwt>
<pdfrwt beam="2">  1       -2 0.11146551E+00 0.12612697E+04</pdfrwt>
<totfact> 0.31040208E+00</totfact>
</mgrwt>
</event>
<event>
 4    2  0.9070994E-007  0.6907093E+03  0.7818608E-02  0.1003817E+00
          2   -1    0    0  501    0  0.00000000000E+00  0.00000000000E+00  0.15643437674E+04  0.15643437674E+04  0.25500000000E-02 0. -1.
         -2   -1    0    0    0  501 -0.00000000000E+00 -0.00000000000E+00 -0.24414366325E+03  0.24414366326E+03  0.25500000000E-02 0.  1.
    8880023    1    1    2    0    0  0.20533985964E+03  0.33236267836E+02  0.13802329290E+04  0.15434125346E+04  0.65864270000E+03 0. -1.
    8880022    1    1    2    0    0 -0.20533985964E+03 -0.33236267836E+02 -0.60032824821E+02  0.26507489607E+03  0.15294330000E+03 0.  0.
<mgrwt>
<rscale>  0 0.54007647E+03</rscale>
<asrwt>0</asrwt>
<pdfrwt beam="1">  1        2 0.24066828E+00 0.69070928E+03</pdfrwt>
<pdfrwt beam="2">  1       -2 0.37560563E-01 0.69070928E+03</pdfrwt>
<totfact> 0.80144411E+01</totfact>
</mgrwt>
</event>
<event>
 4    2  0.9070994E-007  0.6745789E+03  0.7818608E-02  0.1012573E+00
          2   -1    0    0  501    0  0.00000000000E+00  0.00000000000E+00  0.13892702273E+04  0.13892702273E+04  0.25500000000E-02 0. -1.
         -2   -1    0    0    0  501 -0.00000000000E+00 -0.00000000000E+00 -0.45397977366E+03  0.45397977366E+03  0.25500000000E-02 0.  1.
    8880023    1    1    2    0    0 -0.69178776821E+02 -0.12829972632E+03  0.12754282267E+04  0.14428353650E+04  0.65864270000E+03 0. -1.
    8880022    1    1    2    0    0  0.69178776821E+02  0.12829972632E+03 -0.34013777308E+03  0.40041463588E+03  0.15294330000E+03 0.  0.
<mgrwt>
<rscale>  0 0.50464722E+03</rscale>
<asrwt>0</asrwt>
<pdfrwt beam="1">  1        2 0.21373388E+00 0.67457893E+03</pdfrwt>
<pdfrwt beam="2">  1       -2 0.69843043E-01 0.67457893E+03</pdfrwt>
<totfact> 0.28261036E+01</totfact>
</mgrwt>
</event>
<event>
 4    2  0.9070994E-007  0.8285218E+03  0.7818608E-02  0.9652215E-01
         -2   -1    0    0    0  501 -0.00000000000E+00  0.00000000000E+00  0.33415591340E+03  0.33415591341E+03  0.25500000000E-02 0.  1.
          2   -1    0    0  501    0  0.00000000000E+00 -0.00000000000E+00 -0.34187818685E+04  0.34187818685E+04  0.25500000000E-02 0. -1.
    8880023    1    1    2    0    0 -0.43528942367E+03 -0.25131919237E+03 -0.31182839078E+04  0.32264753144E+04  0.65864270000E+03 0. -1.
    8880022    1    1    2    0    0  0.43528942367E+03  0.25131919237E+03  0.33657952737E+02  0.52646246743E+03  0.15294330000E+03 0.  0.
<mgrwt>
<rscale>  0 0.73934557E+03</rscale>
<asrwt>0</asrwt>
<pdfrwt beam="1">  1        2 0.52596642E+00 0.82852183E+03</pdfrwt>
<pdfrwt beam="2">  1       -2 0.51408604E-01 0.82852183E+03</pdfrwt>
<totfact> 0.35254531E+00</totfact>
</mgrwt>
</event>
<event>
 4    2  0.9070994E-007  0.7953377E+03  0.7818608E-02  0.9720969E-01
         -2   -1    0    0    0  501 -0.00000000000E+00  0.00000000000E+00  0.38998138200E+03  0.38998138201E+03  0.25500000000E-02 0.  1.
          2   -1    0    0  501    0  0.00000000000E+00 -0.00000000000E+00 -0.13792065097E+04  0.13792065097E+04  0.25500000000E-02 0. -1.
    8880023    1    1    2    0    0  0.59803083459E+02  0.44178660483E+03 -0.10239985085E+04  0.12965858879E+04  0.65864270000E+03 0. -1.
    8880022    1    1    2    0    0 -0.59803083459E+02 -0.44178660483E+03  0.34773380792E+02  0.47260200384E+03  0.15294330000E+03 0.  1.
<mgrwt>
<rscale>  0 0.69781911E+03</rscale>
<asrwt>0</asrwt>
<pdfrwt beam="1">  1        2 0.21218561E+00 0.79533768E+03</pdfrwt>
<pdfrwt beam="2">  1       -2 0.59997137E-01 0.79533768E+03</pdfrwt>
<totfact> 0.39143528E+01</totfact>
</mgrwt>
</event>
<event>
 4    2  0.9070994E-007  0.7527552E+03  0.7818608E-02  0.9824238E-01
          2   -1    0    0  501    0  0.00000000000E+00  0.00000000000E+00  0.21812210420E+04  0.21812210420E+04  0.25500000000E-02 0. -1.
         -2   -1    0    0    0  501 -0.00000000000E+00 -0.00000000000E+00 -0.19000062441E+03  0.19000062442E+03  0.25500000000E-02 0.  1.
    8880023    1    1    2    0    0 -0.36322985752E+03 -0.29904647997E+02  0.17577887217E+04  0.19121876513E+04  0.65864270000E+03 0.  0.
    8880022    1    1    2    0    0  0.36322985752E+03  0.29904647997E+02  0.23343169584E+03  0.45903401508E+03  0.15294330000E+03 0.  0.
<mgrwt>
<rscale>  0 0.64077869E+03</rscale>
<asrwt>0</asrwt>
<pdfrwt beam="1">  1        2 0.33557248E+00 0.75275522E+03</pdfrwt>
<pdfrwt beam="2">  1       -2 0.29230864E-01 0.75275522E+03</pdfrwt>
<totfact> 0.58761903E+01</totfact>
</mgrwt>
</event>
<event>
 4    2  0.9070994E-007  0.9112573E+03  0.7818608E-02  0.9508196E-01
         -2   -1    0    0    0  501 -0.00000000000E+00  0.00000000000E+00  0.79240271452E+03  0.79240271453E+03  0.25500000000E-02 0.  1.
          2   -1    0    0  501    0  0.00000000000E+00 -0.00000000000E+00 -0.81468133710E+03  0.81468133711E+03  0.25500000000E-02 0. -1.
    8880023    1    1    2    0    0  0.31634308236E+03 -0.54452430814E+03 -0.20445649817E+03  0.93391238016E+03  0.65864270000E+03 0.  0.
    8880022    1    1    2    0    0 -0.31634308236E+03  0.54452430814E+03  0.18217787559E+03  0.67317167148E+03  0.15294330000E+03 0. -1.
<mgrwt>
<rscale>  0 0.83682225E+03</rscale>
<asrwt>0</asrwt>
<pdfrwt beam="1">  1        2 0.12533559E+00 0.91125730E+03</pdfrwt>
<pdfrwt beam="2">  1       -2 0.12190811E+00 0.91125730E+03</pdfrwt>
<totfact> 0.17163957E+01</totfact>
</mgrwt>
</event>
<event>
 4    2  0.9070994E-007  0.7046446E+03  0.7818608E-02  0.9978453E-01
         -2   -1    0    0    0  501 -0.00000000000E+00  0.00000000000E+00  0.48652538094E+03  0.48652538094E+03  0.25500000000E-02 0.  1.
          2   -1    0    0  501    0  0.00000000000E+00 -0.00000000000E+00 -0.16739627810E+04  0.16739627810E+04  0.25500000000E-02 0. -1.
    8880023    1    1    2    0    0  0.98191235422E+01 -0.25023474020E+03 -0.15449003055E+04  0.16980108953E+04  0.65864270000E+03 0. -1.
    8880022    1    1    2    0    0 -0.98191235422E+01  0.25023474020E+03  0.35746290542E+03  0.46247726664E+03  0.15294330000E+03 0.  0.
<mgrwt>
<rscale>  0 0.56605218E+03</rscale>
<asrwt>0</asrwt>
<pdfrwt beam="1">  1        2 0.25753273E+00 0.70464462E+03</pdfrwt>
<pdfrwt beam="2">  1       -2 0.74850060E-01 0.70464462E+03</pdfrwt>
<totfact> 0.16814134E+01</totfact>
</mgrwt>
</event>
<event>
 4    2  0.9070994E-007  0.9957915E+03  0.7818608E-02  0.9387085E-01
          2   -1    0    0  501    0  0.00000000000E+00  0.00000000000E+00  0.33365135767E+04  0.33365135767E+04  0.25500000000E-02 0. -1.
         -2   -1    0    0    0  501 -0.00000000000E+00 -0.00000000000E+00 -0.60590627150E+03  0.60590627150E+03  0.25500000000E-02 0.  1.
    8880023    1    1    2    0    0 -0.47217340514E+03  0.57865597908E+03  0.29786785730E+04  0.31407207316E+04  0.65864270000E+03 0.  0.
    8880022    1    1    2    0    0  0.47217340514E+03 -0.57865597908E+03 -0.24807126776E+03  0.80169911660E+03  0.15294330000E+03 0.  0.
<mgrwt>
<rscale>  0 0.93146241E+03</rscale>
<asrwt>0</asrwt>
<pdfrwt beam="1">  1        2 0.51330978E+00 0.99579148E+03</pdfrwt>
<pdfrwt beam="2">  1       -2 0.93216349E-01 0.99579148E+03</pdfrwt>
<totfact> 0.10562609E+00</totfact>
</mgrwt>
</event>
<event>
 4    2  0.9070994E-007  0.7325225E+03  0.7818608E-02  0.9882289E-01
          2   -1    0    0  501    0  0.00000000000E+00  0.00000000000E+00  0.25149317389E+04  0.25149317389E+04  0.25500000000E-02 0. -1.
         -2   -1    0    0    0  501 -0.00000000000E+00 -0.00000000000E+00 -0.11821554485E+03  0.11821554488E+03  0.25500000000E-02 0.  1.
    8880023    1    1    2    0    0  0.27473240695E+03  0.16523043480E+03  0.15237179939E+04  0.16906524549E+04  0.65864270000E+03 0.  0.
    8880022    1    1    2    0    0 -0.27473240695E+03 -0.16523043480E+03  0.87299820016E+03  0.94249482890E+03  0.15294330000E+03 0. -1.
<mgrwt>
<rscale>  0 0.61127342E+03</rscale>
<asrwt>0</asrwt>
<pdfrwt beam="1">  1        2 0.38691259E+00 0.73252249E+03</pdfrwt>
<pdfrwt beam="2">  1       -2 0.18187006E-01 0.73252249E+03</pdfrwt>
<totfact> 0.89489300E+01</totfact>
</mgrwt>
</event>
<event>
 4    2  0.9070994E-007  0.1311823E+04  0.7818608E-02  0.9055416E-01
          2   -1    0    0  501    0  0.00000000000E+00  0.00000000000E+00  0.33687751226E+04  0.33687751226E+04  0.25500000000E-02 0. -1.
         -2   -1    0    0    0  501 -0.00000000000E+00 -0.00000000000E+00 -0.68282797254E+03  0.68282797255E+03  0.25500000000E-02 0.  1.
    8880023    1    1    2    0    0  0.10806281176E+04  0.34541793721E+03  0.21629292939E+03  0.13295350757E+04  0.65864270000E+03 0.  1.
    8880022    1    1    2    0    0 -0.10806281176E+04 -0.34541793721E+03  0.24696542207E+04  0.27220680195E+04  0.15294330000E+03 0.  0.
<mgrwt>
<rscale>  0 0.12678989E+04</rscale>
<asrwt>0</asrwt>
<pdfrwt beam="1">  1        2 0.51827310E+00 0.13118235E+04</pdfrwt>
<pdfrwt beam="2">  1       -2 0.10505046E+00 0.13118235E+04</pdfrwt>
<totfact> 0.72164682E-01</totfact>
</mgrwt>
</event>
<event>
 4    2  0.9070994E-007  0.8665852E+03  0.7818608E-02  0.9581955E-01
         -2   -1    0    0    0  501 -0.00000000000E+00  0.00000000000E+00  0.43064248241E+03  0.43064248242E+03  0.25500000000E-02 0.  1.
          2   -1    0    0  501    0  0.00000000000E+00 -0.00000000000E+00 -0.17617619361E+04  0.17617619361E+04  0.25500000000E-02 0. -1.
    8880023    1    1    2    0    0  0.54845711179E+03 -0.12788450679E+03 -0.13549258432E+04  0.16083512978E+04  0.65864270000E+03 0.  0.
    8880022    1    1    2    0    0 -0.54845711179E+03  0.12788450679E+03  0.23806389485E+02  0.58405312066E+03  0.15294330000E+03 0.  0.
<mgrwt>
<rscale>  0 0.78502097E+03</rscale>
<asrwt>0</asrwt>
<pdfrwt beam="1">  1        2 0.27104029E+00 0.86658517E+03</pdfrwt>
<pdfrwt beam="2">  1       -2 0.66252691E-01 0.86658517E+03</pdfrwt>
<totfact> 0.19259227E+01</totfact>
</mgrwt>
</event>
<event>
 4    2  0.9070994E-007  0.7134615E+03  0.7818608E-02  0.9945365E-01
          2   -1    0    0  501    0  0.00000000000E+00  0.00000000000E+00  0.49974391312E+04  0.49974391312E+04  0.25500000000E-02 0. -1.
         -2   -1    0    0    0  501 -0.00000000000E+00 -0.00000000000E+00 -0.19667541209E+03  0.19667541210E+03  0.25500000000E-02 0.  1.
    8880023    1    1    2    0    0 -0.21498527116E+03  0.17028909489E+03  0.48265876436E+04  0.48790342825E+04  0.65864270000E+03 0. -1.
    8880022    1    1    2    0    0  0.21498527116E+03 -0.17028909489E+03 -0.25823924446E+02  0.31508026080E+03  0.15294330000E+03 0.  0.
<mgrwt>
<rscale>  0 0.58112196E+03</rscale>
<asrwt>0</asrwt>
<pdfrwt beam="1">  1        2 0.76883676E+00 0.71346146E+03</pdfrwt>
<pdfrwt beam="2">  1       -2 0.30257757E-01 0.71346146E+03</pdfrwt>
<totfact> 0.41502963E-01</totfact>
</mgrwt>
</event>
<event>
 4    2  0.9070994E-007  0.9299590E+03  0.7818608E-02  0.9479555E-01
          2   -1    0    0  501    0  0.00000000000E+00  0.00000000000E+00  0.24004315379E+03  0.24004315380E+03  0.25500000000E-02 0. -1.
         -2   -1    0    0    0  501 -0.00000000000E+00 -0.00000000000E+00 -0.32479969068E+04  0.32479969068E+04  0.25500000000E-02 0.  1.
    8880023    1    1    2    0    0 -0.53927718091E+03 -0.37442452489E+03 -0.24237040065E+04  0.25959901618E+04  0.65864270000E+03 0.  0.
    8880022    1    1    2    0    0  0.53927718091E+03  0.37442452489E+03 -0.58424974653E+03  0.89204989884E+03  0.15294330000E+03 0.  1.
<mgrwt>
<rscale>  0 0.85808099E+03</rscale>
<asrwt>0</asrwt>
<pdfrwt beam="1">  1        2 0.36929718E-01 0.92995904E+03</pdfrwt>
<pdfrwt beam="2">  1       -2 0.49969180E+00 0.92995904E+03</pdfrwt>
<totfact> 0.23941218E-01</totfact>
</mgrwt>
</event>
<event>
 4    2  0.9070994E-007  0.9608354E+03  0.7818608E-02  0.9434693E-01
         -2   -1    0    0    0  501 -0.00000000000E+00  0.00000000000E+00  0.11221563114E+04  0.11221563114E+04  0.25500000000E-02 0.  1.
          2   -1    0    0  501    0  0.00000000000E+00 -0.00000000000E+00 -0.10074352958E+04  0.10074352958E+04  0.25500000000E-02 0. -1.
    8880023    1    1    2    0    0  0.68659673157E+03 -0.13408720984E+03 -0.58785221501E+03  0.11263990787E+04  0.65864270000E+03 0. -1.
    8880022    1    1    2    0    0 -0.68659673157E+03  0.13408720984E+03  0.70257323062E+03  0.10031925284E+04  0.15294330000E+03 0.  0.
<mgrwt>
<rscale>  0 0.89274777E+03</rscale>
<asrwt>0</asrwt>
<pdfrwt beam="1">  1        2 0.15499005E+00 0.96083540E+03</pdfrwt>
<pdfrwt beam="2">  1       -2 0.17263943E+00 0.96083540E+03</pdfrwt>
<totfact> 0.50615821E+00</totfact>
</mgrwt>
</event>
<event>
 4    2  0.9070994E-007  0.8385794E+03  0.7818608E-02  0.9632865E-01
         -2   -1    0    0    0  501 -0.00000000000E+00  0.00000000000E+00  0.33620040983E+03  0.33620040984E+03  0.25500000000E-02 0.  1.
          2   -1    0    0  501    0  0.00000000000E+00 -0.00000000000E+00 -0.21078950277E+04  0.21078950277E+04  0.25500000000E-02 0. -1.
    8880023    1    1    2    0    0 -0.22510358293E+03 -0.46768953176E+03 -0.17034881001E+04  0.18987066742E+04  0.65864270000E+03 0. -1.
    8880022    1    1    2    0    0  0.22510358293E+03  0.46768953176E+03 -0.68206517824E+02  0.54538876341E+03  0.15294330000E+03 0.  0.
<mgrwt>
<rscale>  0 0.75158639E+03</rscale>
<asrwt>0</asrwt>
<pdfrwt beam="1">  1        2 0.32429153E+00 0.83857935E+03</pdfrwt>
<pdfrwt beam="2">  1       -2 0.51723141E-01 0.83857935E+03</pdfrwt>
<totfact> 0.21029344E+01</totfact>
</mgrwt>
</event>
<event>
 4    2  0.9070994E-007  0.7310701E+03  0.7818608E-02  0.9886767E-01
         -2   -1    0    0    0  501 -0.00000000000E+00  0.00000000000E+00  0.59393333716E+03  0.59393333716E+03  0.25500000000E-02 0.  1.
          2   -1    0    0  501    0  0.00000000000E+00 -0.00000000000E+00 -0.12920403446E+04  0.12920403446E+04  0.25500000000E-02 0. -1.
    8880023    1    1    2    0    0 -0.12046187702E+03 -0.29349983905E+03 -0.11193203413E+04  0.13369149008E+04  0.65864270000E+03 0.  0.
    8880022    1    1    2    0    0  0.12046187702E+03  0.29349983905E+03  0.42121333383E+03  0.54905878096E+03  0.15294330000E+03 0.  0.
<mgrwt>
<rscale>  0 0.60906914E+03</rscale>
<asrwt>0</asrwt>
<pdfrwt beam="1">  1        2 0.19877544E+00 0.73107006E+03</pdfrwt>
<pdfrwt beam="2">  1       -2 0.91374360E-01 0.73107006E+03</pdfrwt>
<totfact> 0.17440993E+01</totfact>
</mgrwt>
</event>
<event>
 4    2  0.2013532E-006  0.7171538E+03  0.7818608E-02  0.9932337E-01
          2   -1    0    0  501    0  0.00000000000E+00  0.00000000000E+00  0.26385720659E+04  0.26385720659E+04  0.25500000000E-02 0. -1.
         -2   -1    0    0    0  501 -0.00000000000E+00 -0.00000000000E+00 -0.19966174092E+04  0.19966174092E+04  0.25500000000E-02 0.  1.
    8880023    1    1    2    0    0  0.10884169890E+03 -0.26201694630E+03  0.25762591080E+04  0.26742140141E+04  0.65864270000E+03 0. -1.
    8880022    1    1    2    0    0 -0.10884169890E+03  0.26201694630E+03 -0.19343044513E+04  0.19609754610E+04  0.15294330000E+03 0.  0.
<mgrwt>
<rscale>  0 0.58719386E+03</rscale>
<asrwt>0</asrwt>
<pdfrwt beam="1">  1        2 0.40593416E+00 0.71715382E+03</pdfrwt>
<pdfrwt beam="2">  1       -2 0.30717191E+00 0.71715382E+03</pdfrwt>
<totfact> 0.91117886E-02</totfact>
</mgrwt>
</event>
<event>
 4    2  0.9070994E-007  0.6695182E+03  0.7818608E-02  0.1016011E+00
         -2   -1    0    0    0  501 -0.00000000000E+00  0.00000000000E+00  0.74607947916E+03  0.74607947917E+03  0.25500000000E-02 0.  1.
          2   -1    0    0  501    0  0.00000000000E+00 -0.00000000000E+00 -0.32049642312E+03  0.32049642313E+03  0.25500000000E-02 0. -1.
    8880023    1    1    2    0    0 -0.12018148362E+03  0.88912243543E+00  0.85716883582E+02  0.67498294048E+03  0.65864270000E+03 0.  0.
    8880022    1    1    2    0    0  0.12018148362E+03 -0.88912243543E+00  0.33986617246E+03  0.39159296182E+03  0.15294330000E+03 0.  0.
<mgrwt>
<rscale>  0 0.49154126E+03</rscale>
<asrwt>0</asrwt>
<pdfrwt beam="1">  1        2 0.49307142E-01 0.66951817E+03</pdfrwt>
<pdfrwt beam="2">  1       -2 0.11478146E+00 0.66951817E+03</pdfrwt>
<totfact> 0.61327237E+01</totfact>
</mgrwt>
</event>
<event>
 4    2  0.9070994E-007  0.8221020E+03  0.7818608E-02  0.9664899E-01
          2   -1    0    0  501    0  0.00000000000E+00  0.00000000000E+00  0.12594312912E+04  0.12594312912E+04  0.25500000000E-02 0. -1.
         -2   -1    0    0    0  501 -0.00000000000E+00 -0.00000000000E+00 -0.51149847542E+03  0.51149847542E+03  0.25500000000E-02 0.  1.
    8880023    1    1    2    0    0 -0.48574465799E+03 -0.78061433718E+02  0.91428206978E+03  0.12295378683E+04  0.65864270000E+03 0.  0.
    8880022    1    1    2    0    0  0.48574465799E+03  0.78061433718E+02 -0.16634925404E+03  0.54139189829E+03  0.15294330000E+03 0. -1.
<mgrwt>
<rscale>  0 0.73145676E+03</rscale>
<asrwt>0</asrwt>
<pdfrwt beam="1">  1        2 0.19375866E+00 0.82210198E+03</pdfrwt>
<pdfrwt beam="2">  1       -2 0.78692074E-01 0.82210198E+03</pdfrwt>
<totfact> 0.25352200E+01</totfact>
</mgrwt>
</event>
<event>
 4    2  0.9070994E-007  0.1128085E+04  0.7818608E-02  0.9230413E-01
          2   -1    0    0  501    0  0.00000000000E+00  0.00000000000E+00  0.19510752651E+04  0.19510752651E+04  0.25500000000E-02 0. -1.
         -2   -1    0    0    0  501 -0.00000000000E+00 -0.00000000000E+00 -0.96855836063E+03  0.96855836064E+03  0.25500000000E-02 0.  1.
    8880023    1    1    2    0    0 -0.37101495766E+03  0.83732545168E+03  0.14841971138E+04  0.18642471107E+04  0.65864270000E+03 0. -1.
    8880022    1    1    2    0    0  0.37101495766E+03 -0.83732545168E+03 -0.50168020928E+03  0.10553865151E+04  0.15294330000E+03 0.  0.
<mgrwt>
<rscale>  0 0.10744959E+04</rscale>
<asrwt>0</asrwt>
<pdfrwt beam="1">  1        2 0.30016542E+00 0.11280852E+04</pdfrwt>
<pdfrwt beam="2">  1       -2 0.14900898E+00 0.11280852E+04</pdfrwt>
<totfact> 0.21282540E+00</totfact>
</mgrwt>
</event>
<event>
 4    2  0.9070994E-007  0.1334803E+04  0.7818608E-02  0.9036073E-01
         -2   -1    0    0    0  501 -0.00000000000E+00  0.00000000000E+00  0.20997471885E+04  0.20997471885E+04  0.25500000000E-02 0.  1.
          2   -1    0    0  501    0  0.00000000000E+00 -0.00000000000E+00 -0.84466274246E+03  0.84466274246E+03  0.25500000000E-02 0. -1.
    8880023    1    1    2    0    0 -0.41646936867E+02  0.11602392989E+04  0.16574703416E+03  0.13450546396E+04  0.65864270000E+03 0.  0.
    8880022    1    1    2    0    0  0.41646936867E+02 -0.11602392989E+04  0.10893374119E+04  0.15993552914E+04  0.15294330000E+03 0.  0.
<mgrwt>
<rscale>  0 0.12918253E+04</rscale>
<asrwt>0</asrwt>
<pdfrwt beam="1">  1        2 0.12994811E+00 0.13348033E+04</pdfrwt>
<pdfrwt beam="2">  1       -2 0.32303803E+00 0.13348033E+04</pdfrwt>
<totfact> 0.71023334E-01</totfact>
</mgrwt>
</event>
<event>
 4    2  0.9070994E-007  0.9893949E+03  0.7818608E-02  0.9395566E-01
         -2   -1    0    0    0  501 -0.00000000000E+00  0.00000000000E+00  0.45011871728E+03  0.45011871729E+03  0.25500000000E-02 0.  1.
          2   -1    0    0  501    0  0.00000000000E+00 -0.00000000000E+00 -0.25036859116E+04  0.25036859116E+04  0.25500000000E-02 0. -1.
    8880023    1    1    2    0    0  0.37088299465E+03 -0.63838697237E+03 -0.19580189465E+04  0.21937959165E+04  0.65864270000E+03 0.  0.
    8880022    1    1    2    0    0 -0.37088299465E+03  0.63838697237E+03 -0.95548247821E+02  0.76000871238E+03  0.15294330000E+03 0.  0.
<mgrwt>
<rscale>  0 0.92441508E+03</rscale>
<asrwt>0</asrwt>
<pdfrwt beam="1">  1        2 0.38518244E+00 0.98939493E+03</pdfrwt>
<pdfrwt beam="2">  1       -2 0.69249035E-01 0.98939493E+03</pdfrwt>
<totfact> 0.66759198E+00</totfact>
</mgrwt>
</event>
<event>
 4    2  0.9070994E-007  0.9631076E+03  0.7818608E-02  0.9431501E-01
         -2   -1    0    0    0  501 -0.00000000000E+00  0.00000000000E+00  0.72616041228E+03  0.72616041228E+03  0.25500000000E-02 0.  1.
          2   -1    0    0  501    0  0.00000000000E+00 -0.00000000000E+00 -0.10179012049E+04  0.10179012049E+04  0.25500000000E-02 0. -1.
    8880023    1    1    2    0    0 -0.52981362032E+03 -0.46158814508E+03 -0.34480527094E+03  0.10229696814E+04  0.65864270000E+03 0.  0.
    8880022    1    1    2    0    0  0.52981362032E+03  0.46158814508E+03  0.53064478328E+02  0.72109193577E+03  0.15294330000E+03 0.  0.
<mgrwt>
<rscale>  0 0.89528023E+03</rscale>
<asrwt>0</asrwt>
<pdfrwt beam="1">  1        2 0.15660018E+00 0.96310762E+03</pdfrwt>
<pdfrwt beam="2">  1       -2 0.11171699E+00 0.96310762E+03</pdfrwt>
<totfact> 0.15464634E+01</totfact>
</mgrwt>
</event>
<event>
 4    2  0.9070994E-007  0.6752158E+03  0.7818608E-02  0.1012171E+00
          2   -1    0    0  501    0  0.00000000000E+00  0.00000000000E+00  0.20648992865E+04  0.20648992865E+04  0.25500000000E-02 0. -1.
         -2   -1    0    0    0  501 -0.00000000000E+00 -0.00000000000E+00 -0.29820722618E+03  0.29820722619E+03  0.25500000000E-02 0.  1.
    8880023    1    1    2    0    0  0.36859958022E+02  0.14404019766E+03  0.19613575917E+04  0.20743288177E+04  0.65864270000E+03 0. -1.
    8880022    1    1    2    0    0 -0.36859958022E+02 -0.14404019766E+03 -0.19466553134E+03  0.28877769505E+03  0.15294330000E+03 0.  0.
<mgrwt>
<rscale>  0 0.50621018E+03</rscale>
<asrwt>0</asrwt>
<pdfrwt beam="1">  1        2 0.31767682E+00 0.67521585E+03</pdfrwt>
<pdfrwt beam="2">  1       -2 0.45878034E-01 0.67521585E+03</pdfrwt>
<totfact> 0.28940395E+01</totfact>
</mgrwt>
</event>
<event>
 4    2  0.9070994E-007  0.6784225E+03  0.7818608E-02  0.1010230E+00
         -2   -1    0    0    0  501 -0.00000000000E+00  0.00000000000E+00  0.67250725920E+03  0.67250725921E+03  0.25500000000E-02 0.  1.
          2   -1    0    0  501    0  0.00000000000E+00 -0.00000000000E+00 -0.60870870391E+03  0.60870870392E+03  0.25500000000E-02 0. -1.
    8880023    1    1    2    0    0  0.11496111874E+03 -0.11502550998E+03 -0.38493244291E+03  0.78001930658E+03  0.65864270000E+03 0. -1.
    8880022    1    1    2    0    0 -0.11496111874E+03  0.11502550998E+03  0.44873099820E+03  0.50119665654E+03  0.15294330000E+03 0.  0.
<mgrwt>
<rscale>  0 0.51383171E+03</rscale>
<asrwt>0</asrwt>
<pdfrwt beam="1">  1        2 0.93647493E-01 0.67842253E+03</pdfrwt>
<pdfrwt beam="2">  1       -2 0.10346266E+00 0.67842253E+03</pdfrwt>
<totfact> 0.37801469E+01</totfact>
</mgrwt>
</event>
<event>
 4    2  0.9070994E-007  0.8066399E+03  0.7818608E-02  0.9696619E-01
          2   -1    0    0  501    0  0.00000000000E+00  0.00000000000E+00  0.97772171004E+03  0.97772171005E+03  0.25500000000E-02 0. -1.
         -2   -1    0    0    0  501 -0.00000000000E+00 -0.00000000000E+00 -0.11593313303E+04  0.11593313303E+04  0.25500000000E-02 0.  1.
    8880023    1    1    2    0    0 -0.46454865002E+03 -0.32437737478E+02  0.73907174489E+03  0.10940269217E+04  0.65864270000E+03 0. -1.
    8880022    1    1    2    0    0  0.46454865002E+03  0.32437737478E+02 -0.92068136512E+03  0.10430261186E+04  0.15294330000E+03 0.  0.
<mgrwt>
<rscale>  0 0.71218452E+03</rscale>
<asrwt>0</asrwt>
<pdfrwt beam="1">  1        2 0.15041873E+00 0.80663986E+03</pdfrwt>
<pdfrwt beam="2">  1       -2 0.17835867E+00 0.80663986E+03</pdfrwt>
<totfact> 0.49113599E+00</totfact>
</mgrwt>
</event>
<event>
 4    2  0.9070994E-007  0.6595722E+03  0.7818608E-02  0.1024599E+00
          2   -1    0    0  501    0  0.00000000000E+00  0.00000000000E+00  0.34148493285E+03  0.34148493286E+03  0.25500000000E-02 0. -1.
         -2   -1    0    0    0  501 -0.00000000000E+00 -0.00000000000E+00 -0.16832850001E+04  0.16832850001E+04  0.25500000000E-02 0.  1.
    8880023    1    1    2    0    0  0.28567509923E+02 -0.20227173266E+02  0.14198039527E+02  0.65972496675E+03  0.65864270000E+03 0.  0.
    8880022    1    1    2    0    0 -0.28567509923E+02  0.20227173266E+02 -0.13559981067E+04  0.13650449662E+04  0.15294330000E+03 0.  1.
<mgrwt>
<rscale>  0 0.46062860E+03</rscale>
<asrwt>0</asrwt>
<pdfrwt beam="1">  1        2 0.52536144E-01 0.65957217E+03</pdfrwt>
<pdfrwt beam="2">  1       -2 0.25896692E+00 0.65957217E+03</pdfrwt>
<totfact> 0.56042619E+00</totfact>
</mgrwt>
</event>
<event>
 4    2  0.9070994E-007  0.6702028E+03  0.7818608E-02  0.1015518E+00
          2   -1    0    0  501    0  0.00000000000E+00  0.00000000000E+00  0.13732744517E+04  0.13732744517E+04  0.25500000000E-02 0. -1.
         -2   -1    0    0    0  501 -0.00000000000E+00 -0.00000000000E+00 -0.16190307562E+03  0.16190307564E+03  0.25500000000E-02 0.  1.
    8880023    1    1    2    0    0 -0.49530586291E+02 -0.11361499011E+03  0.11462942750E+04  0.13278412617E+04  0.65864270000E+03 0.  0.
    8880022    1    1    2    0    0  0.49530586291E+02  0.11361499011E+03  0.65077101005E+02  0.20733626563E+03  0.15294330000E+03 0.  0.
<mgrwt>
<rscale>  0 0.49339334E+03</rscale>
<asrwt>0</asrwt>
<pdfrwt beam="1">  1        2 0.21127299E+00 0.67020284E+03</pdfrwt>
<pdfrwt beam="2">  1       -2 0.24908165E-01 0.67020284E+03</pdfrwt>
<totfact> 0.22035341E+02</totfact>
</mgrwt>
</event>
<event>
 4    2  0.9070994E-007  0.1262480E+04  0.7818608E-02  0.9098658E-01
          2   -1    0    0  501    0  0.00000000000E+00  0.00000000000E+00  0.21118915160E+04  0.21118915160E+04  0.25500000000E-02 0. -1.
         -2   -1    0    0    0  501 -0.00000000000E+00 -0.00000000000E+00 -0.15659636518E+04  0.15659636518E+04  0.25500000000E-02 0.  1.
    8880023    1    1    2    0    0 -0.55101801770E+03 -0.92543191696E+03  0.16832093240E+04  0.21040553518E+04  0.65864270000E+03 0. -1.
    8880022    1    1    2    0    0  0.55101801770E+03  0.92543191696E+03 -0.11372814599E+04  0.15737998160E+04  0.15294330000E+03 0.  0.
<mgrwt>
<rscale>  0 0.12163581E+04</rscale>
<asrwt>0</asrwt>
<pdfrwt beam="1">  1        2 0.32490639E+00 0.12624798E+04</pdfrwt>
<pdfrwt beam="2">  1       -2 0.24091749E+00 0.12624798E+04</pdfrwt>
<totfact> 0.40819876E-01</totfact>
</mgrwt>
</event>
<event>
 4    2  0.9070994E-007  0.6923063E+03  0.7818608E-02  0.1003075E+00
         -2   -1    0    0    0  501 -0.00000000000E+00  0.00000000000E+00  0.28885304483E+03  0.28885304485E+03  0.25500000000E-02 0.  1.
          2   -1    0    0  501    0  0.00000000000E+00 -0.00000000000E+00 -0.99604060389E+03  0.99604060389E+03  0.25500000000E-02 0. -1.
    8880023    1    1    2    0    0 -0.19596853026E+03  0.84107952578E+02 -0.74811003677E+03  0.10192922279E+04  0.65864270000E+03 0. -1.
    8880022    1    1    2    0    0  0.19596853026E+03 -0.84107952578E+02  0.40922477716E+02  0.26560142081E+03  0.15294330000E+03 0.  0.
<mgrwt>
<rscale>  0 0.54322163E+03</rscale>
<asrwt>0</asrwt>
<pdfrwt beam="1">  1        2 0.15323701E+00 0.69230630E+03</pdfrwt>
<pdfrwt beam="2">  1       -2 0.44438930E-01 0.69230630E+03</pdfrwt>
<totfact> 0.12371865E+02</totfact>
</mgrwt>
</event>
<event>
 4    2  0.9070994E-007  0.8488058E+03  0.7818608E-02  0.9613795E-01
          2   -1    0    0  501    0  0.00000000000E+00  0.00000000000E+00  0.22650722254E+04  0.22650722254E+04  0.25500000000E-02 0. -1.
         -2   -1    0    0    0  501 -0.00000000000E+00 -0.00000000000E+00 -0.42225280531E+03  0.42225280531E+03  0.25500000000E-02 0.  1.
    8880023    1    1    2    0    0  0.53167856228E+03 -0.63079255435E+02  0.19441418149E+04  0.21213577465E+04  0.65864270000E+03 0.  0.
    8880022    1    1    2    0    0 -0.53167856228E+03  0.63079255435E+02 -0.10132239482E+03  0.56596728417E+03  0.15294330000E+03 0.  1.
<mgrwt>
<rscale>  0 0.76389858E+03</rscale>
<asrwt>0</asrwt>
<pdfrwt beam="1">  1        2 0.34847265E+00 0.84880580E+03</pdfrwt>
<pdfrwt beam="2">  1       -2 0.64961971E-01 0.84880580E+03</pdfrwt>
<totfact> 0.10650336E+01</totfact>
</mgrwt>
</event>
<event>
 4    2  0.9070994E-007  0.1005708E+04  0.7818608E-02  0.9374128E-01
         -2   -1    0    0    0  501 -0.00000000000E+00  0.00000000000E+00  0.74811302680E+03  0.74811302681E+03  0.25500000000E-02 0.  1.
          2   -1    0    0  501    0  0.00000000000E+00 -0.00000000000E+00 -0.16854121254E+04  0.16854121254E+04  0.25500000000E-02 0. -1.
    8880023    1    1    2    0    0  0.76002472265E+03  0.39818681232E+00 -0.12441040737E+04  0.15997633856E+04  0.65864270000E+03 0. -1.
    8880022    1    1    2    0    0 -0.76002472265E+03 -0.39818681232E+00  0.30680497511E+03  0.83376176655E+03  0.15294330000E+03 0.  0.
<mgrwt>
<rscale>  0 0.94235771E+03</rscale>
<asrwt>0</asrwt>
<pdfrwt beam="1">  1        2 0.25929417E+00 0.10057077E+04</pdfrwt>
<pdfrwt beam="2">  1       -2 0.11509431E+00 0.10057077E+04</pdfrwt>
<totfact> 0.58517601E+00</totfact>
</mgrwt>
</event>
<event>
 4    2  0.9070994E-007  0.9602201E+03  0.7818608E-02  0.9435560E-01
         -2   -1    0    0    0  501 -0.00000000000E+00  0.00000000000E+00  0.66674535414E+03  0.66674535415E+03  0.25500000000E-02 0.  1.
          2   -1    0    0  501    0  0.00000000000E+00 -0.00000000000E+00 -0.16378388556E+04  0.16378388556E+04  0.25500000000E-02 0. -1.
    8880023    1    1    2    0    0 -0.64063947760E+03 -0.27891493175E+03 -0.12152244531E+04  0.15488037826E+04  0.65864270000E+03 0.  0.
    8880022    1    1    2    0    0  0.64063947760E+03  0.27891493175E+03  0.24413095167E+03  0.75578042710E+03  0.15294330000E+03 0.  0.
<mgrwt>
<rscale>  0 0.89206163E+03</rscale>
<asrwt>0</asrwt>
<pdfrwt beam="1">  1        2 0.25197521E+00 0.96022012E+03</pdfrwt>
<pdfrwt beam="2">  1       -2 0.10257621E+00 0.96022012E+03</pdfrwt>
<totfact> 0.82627969E+00</totfact>
</mgrwt>
</event>
<event>
 4    2  0.9070994E-007  0.7959785E+03  0.7818608E-02  0.9719560E-01
         -2   -1    0    0    0  501 -0.00000000000E+00  0.00000000000E+00  0.46290507981E+03  0.46290507982E+03  0.25500000000E-02 0.  1.
          2   -1    0    0  501    0  0.00000000000E+00 -0.00000000000E+00 -0.91357571145E+03  0.91357571145E+03  0.25500000000E-02 0. -1.
    8880023    1    1    2    0    0 -0.38556205282E+03 -0.22608278349E+03 -0.42749329046E+03  0.90351106314E+03  0.65864270000E+03 0.  0.
    8880022    1    1    2    0    0  0.38556205282E+03  0.22608278349E+03 -0.23177341173E+02  0.47296972813E+03  0.15294330000E+03 0.  0.
<mgrwt>
<rscale>  0 0.69864058E+03</rscale>
<asrwt>0</asrwt>
<pdfrwt beam="1">  1        2 0.14055011E+00 0.79597847E+03</pdfrwt>
<pdfrwt beam="2">  1       -2 0.71216166E-01 0.79597847E+03</pdfrwt>
<totfact> 0.51948565E+01</totfact>
</mgrwt>
</event>
<event>
 4    2  0.9070994E-007  0.6862658E+03  0.7818608E-02  0.1005980E+00
          2   -1    0    0  501    0  0.00000000000E+00  0.00000000000E+00  0.78997988514E+03  0.78997988514E+03  0.25500000000E-02 0. -1.
         -2   -1    0    0    0  501 -0.00000000000E+00 -0.00000000000E+00 -0.10551552939E+04  0.10551552939E+04  0.25500000000E-02 0.  1.
    8880023    1    1    2    0    0  0.18614556602E+03 -0.50003396820E+02  0.62094302147E+03  0.92548957510E+03  0.65864270000E+03 0. -1.
    8880022    1    1    2    0    0 -0.18614556602E+03  0.50003396820E+02 -0.88611843021E+03  0.91964560392E+03  0.15294330000E+03 0.  0.
<mgrwt>
<rscale>  0 0.53103910E+03</rscale>
<asrwt>0</asrwt>
<pdfrwt beam="1">  1        2 0.12153537E+00 0.68626578E+03</pdfrwt>
<pdfrwt beam="2">  1       -2 0.16233158E+00 0.68626578E+03</pdfrwt>
<totfact> 0.86937381E+00</totfact>
</mgrwt>
</event>
<event>
 4    2  0.9070994E-007  0.8230396E+03  0.7818608E-02  0.9663030E-01
         -2   -1    0    0    0  501 -0.00000000000E+00  0.00000000000E+00  0.13907824167E+04  0.13907824167E+04  0.25500000000E-02 0.  1.
          2   -1    0    0  501    0  0.00000000000E+00 -0.00000000000E+00 -0.12741927911E+04  0.12741927911E+04  0.25500000000E-02 0. -1.
    8880023    1    1    2    0    0 -0.45434885099E+03  0.19274638422E+03 -0.10821764917E+04  0.13595956062E+04  0.65864270000E+03 0. -1.
    8880022    1    1    2    0    0  0.45434885099E+03 -0.19274638422E+03  0.11987661173E+04  0.13053796015E+04  0.15294330000E+03 0.  0.
<mgrwt>
<rscale>  0 0.73261285E+03</rscale>
<asrwt>0</asrwt>
<pdfrwt beam="1">  1        2 0.19602966E+00 0.82303964E+03</pdfrwt>
<pdfrwt beam="2">  1       -2 0.21396653E+00 0.82303964E+03</pdfrwt>
<totfact> 0.18823696E+00</totfact>
</mgrwt>
</event>
<event>
 4    2  0.9070994E-007  0.6827304E+03  0.7818608E-02  0.1007820E+00
         -2   -1    0    0    0  501 -0.00000000000E+00  0.00000000000E+00  0.66827226894E+03  0.66827226894E+03  0.25500000000E-02 0.  1.
          2   -1    0    0  501    0  0.00000000000E+00 -0.00000000000E+00 -0.32954858484E+03  0.32954858485E+03  0.25500000000E-02 0. -1.
    8880023    1    1    2    0    0 -0.12461606191E+03 -0.12954312791E+03  0.15855880120E+03  0.70090062390E+03  0.65864270000E+03 0.  0.
    8880022    1    1    2    0    0  0.12461606191E+03  0.12954312791E+03  0.18016488289E+03  0.29692022989E+03  0.15294330000E+03 0. -1.
<mgrwt>
<rscale>  0 0.52350521E+03</rscale>
<asrwt>0</asrwt>
<pdfrwt beam="1">  1        2 0.50699782E-01 0.68273039E+03</pdfrwt>
<pdfrwt beam="2">  1       -2 0.10281112E+00 0.68273039E+03</pdfrwt>
<totfact> 0.77488517E+01</totfact>
</mgrwt>
</event>
<event>
 4    2  0.9070994E-007  0.9909679E+03  0.7818608E-02  0.9393471E-01
         -2   -1    0    0    0  501 -0.00000000000E+00  0.00000000000E+00  0.43472505497E+03  0.43472505498E+03  0.25500000000E-02 0.  1.
          2   -1    0    0  501    0  0.00000000000E+00 -0.00000000000E+00 -0.23555030225E+04  0.23555030225E+04  0.25500000000E-02 0. -1.
    8880023    1    1    2    0    0 -0.63936182359E+03 -0.37339465541E+03 -0.17561772184E+04  0.20164760695E+04  0.65864270000E+03 0. -1.
    8880022    1    1    2    0    0  0.63936182359E+03  0.37339465541E+03 -0.16460074907E+03  0.77375200792E+03  0.15294330000E+03 0.  0.
<mgrwt>
<rscale>  0 0.92614949E+03</rscale>
<asrwt>0</asrwt>
<pdfrwt beam="1">  1        2 0.36238507E+00 0.99096787E+03</pdfrwt>
<pdfrwt beam="2">  1       -2 0.66880779E-01 0.99096787E+03</pdfrwt>
<totfact> 0.87380622E+00</totfact>
</mgrwt>
</event>
<event>
 4    2  0.9070994E-007  0.1033995E+04  0.7818608E-02  0.9338374E-01
          2   -1    0    0  501    0  0.00000000000E+00  0.00000000000E+00  0.77253218946E+03  0.77253218946E+03  0.25500000000E-02 0. -1.
         -2   -1    0    0    0  501 -0.00000000000E+00 -0.00000000000E+00 -0.17475289567E+04  0.17475289568E+04  0.25500000000E-02 0.  1.
    8880023    1    1    2    0    0 -0.79706748040E+03 -0.42364709797E+01 -0.12866696800E+04  0.16506555024E+04  0.65864270000E+03 0.  0.
    8880022    1    1    2    0    0  0.79706748040E+03  0.42364709797E+01  0.31167291267E+03  0.86940564382E+03  0.15294330000E+03 0.  0.
<mgrwt>
<rscale>  0 0.97325535E+03</rscale>
<asrwt>0</asrwt>
<pdfrwt beam="1">  1        2 0.11885111E+00 0.10339945E+04</pdfrwt>
<pdfrwt beam="2">  1       -2 0.26885061E+00 0.10339945E+04</pdfrwt>
<totfact> 0.17700368E+00</totfact>
</mgrwt>
</event>
<event>
 4    2  0.9070994E-007  0.8264141E+03  0.7818608E-02  0.9656350E-01
          2   -1    0    0  501    0  0.00000000000E+00  0.00000000000E+00  0.25756020849E+03  0.25756020850E+03  0.25500000000E-02 0. -1.
         -2   -1    0    0    0  501 -0.00000000000E+00 -0.00000000000E+00 -0.17936445963E+04  0.17936445963E+04  0.25500000000E-02 0.  1.
    8880023    1    1    2    0    0 -0.37984136446E+03  0.32383734479E+03 -0.81229660656E+03  0.11587864649E+04  0.65864270000E+03 0. -1.
    8880022    1    1    2    0    0  0.37984136446E+03 -0.32383734479E+03 -0.72378778127E+03  0.89241833989E+03  0.15294330000E+03 0.  1.
<mgrwt>
<rscale>  0 0.73676235E+03</rscale>
<asrwt>0</asrwt>
<pdfrwt beam="1">  1        2 0.39624649E-01 0.82641412E+03</pdfrwt>
<pdfrwt beam="2">  1       -2 0.27594532E+00 0.82641412E+03</pdfrwt>
<totfact> 0.59417584E+00</totfact>
</mgrwt>
</event>
<event>
 4    2  0.9070994E-007  0.8525564E+03  0.7818608E-02  0.9606944E-01
          2   -1    0    0  501    0  0.00000000000E+00  0.00000000000E+00  0.19429083826E+04  0.19429083826E+04  0.25500000000E-02 0. -1.
         -2   -1    0    0    0  501 -0.00000000000E+00 -0.00000000000E+00 -0.76527840019E+03  0.76527840020E+03  0.25500000000E-02 0.  1.
    8880023    1    1    2    0    0  0.10356232087E+03 -0.53133522586E+03  0.17244461346E+04  0.19236857732E+04  0.65864270000E+03 0.  0.
    8880022    1    1    2    0    0 -0.10356232087E+03  0.53133522586E+03 -0.54681615228E+03  0.78450100953E+03  0.15294330000E+03 0.  0.
<mgrwt>
<rscale>  0 0.76838298E+03</rscale>
<asrwt>0</asrwt>
<pdfrwt beam="1">  1        2 0.29890898E+00 0.85255644E+03</pdfrwt>
<pdfrwt beam="2">  1       -2 0.11773514E+00 0.85255644E+03</pdfrwt>
<totfact> 0.40749187E+00</totfact>
</mgrwt>
</event>
<event>
 4    2  0.9070994E-007  0.7486811E+03  0.7818608E-02  0.9835345E-01
         -2   -1    0    0    0  501 -0.00000000000E+00  0.00000000000E+00  0.65550512584E+03  0.65550512584E+03  0.25500000000E-02 0.  1.
          2   -1    0    0  501    0  0.00000000000E+00 -0.00000000000E+00 -0.67756443467E+03  0.67756443467E+03  0.25500000000E-02 0. -1.
    8880023    1    1    2    0    0 -0.88878702459E+02 -0.34469368387E+03 -0.34908759903E+03  0.82606629123E+03  0.65864270000E+03 0. -1.
    8880022    1    1    2    0    0  0.88878702459E+02  0.34469368387E+03  0.32702829020E+03  0.50700326928E+03  0.15294330000E+03 0.  0.
<mgrwt>
<rscale>  0 0.63499744E+03</rscale>
<asrwt>0</asrwt>
<pdfrwt beam="1">  1        2 0.10424068E+00 0.74868108E+03</pdfrwt>
<pdfrwt beam="2">  1       -2 0.10084694E+00 0.74868108E+03</pdfrwt>
<totfact> 0.35020532E+01</totfact>
</mgrwt>
</event>
<event>
 4    2  0.9070994E-007  0.7081411E+03  0.7818608E-02  0.9964969E-01
         -2   -1    0    0    0  501 -0.00000000000E+00  0.00000000000E+00  0.29914648105E+03  0.29914648106E+03  0.25500000000E-02 0.  1.
          2   -1    0    0  501    0  0.00000000000E+00 -0.00000000000E+00 -0.18386614829E+04  0.18386614829E+04  0.25500000000E-02 0. -1.
    8880023    1    1    2    0    0 -0.63823127215E+02 -0.25215130119E+03 -0.16662894656E+04  0.18105204941E+04  0.65864270000E+03 0. -1.
    8880022    1    1    2    0    0  0.63823127215E+02  0.25215130119E+03  0.12677446372E+03  0.32728746986E+03  0.15294330000E+03 0.  0.
<mgrwt>
<rscale>  0 0.57213310E+03</rscale>
<asrwt>0</asrwt>
<pdfrwt beam="1">  1        2 0.28287099E+00 0.70814114E+03</pdfrwt>
<pdfrwt beam="2">  1       -2 0.46022536E-01 0.70814114E+03</pdfrwt>
<totfact> 0.38007659E+01</totfact>
</mgrwt>
</event>
<event>
 4    2  0.9070994E-007  0.6684240E+03  0.7818608E-02  0.1016819E+00
         -2   -1    0    0    0  501 -0.00000000000E+00  0.00000000000E+00  0.39568283576E+03  0.39568283577E+03  0.25500000000E-02 0.  1.
          2   -1    0    0  501    0  0.00000000000E+00 -0.00000000000E+00 -0.13545631039E+04  0.13545631039E+04  0.25500000000E-02 0. -1.
    8880023    1    1    2    0    0 -0.11337984204E+03 -0.11198452321E+02 -0.12410862170E+04  0.14096402372E+04  0.65864270000E+03 0.  0.
    8880022    1    1    2    0    0  0.11337984204E+03  0.11198452321E+02  0.28220594893E+03  0.34060570245E+03  0.15294330000E+03 0.  1.
<mgrwt>
<rscale>  0 0.48852296E+03</rscale>
<asrwt>0</asrwt>
<pdfrwt beam="1">  1        2 0.20839432E+00 0.66842397E+03</pdfrwt>
<pdfrwt beam="2">  1       -2 0.60874283E-01 0.66842397E+03</pdfrwt>
<totfact> 0.39743715E+01</totfact>
</mgrwt>
</event>
<event>
 4    2  0.9070994E-007  0.1263703E+04  0.7818608E-02  0.9097556E-01
          2   -1    0    0  501    0  0.00000000000E+00  0.00000000000E+00  0.26726162083E+04  0.26726162083E+04  0.25500000000E-02 0. -1.
         -2   -1    0    0    0  501 -0.00000000000E+00 -0.00000000000E+00 -0.70985379733E+03  0.70985379733E+03  0.25500000000E-02 0.  1.
    8880023    1    1    2    0    0  0.32807437501E+03 -0.10273760402E+04  0.15674247981E+03  0.12733863258E+04  0.65864270000E+03 0.  0.
    8880022    1    1    2    0    0 -0.32807437501E+03  0.10273760402E+04  0.18060199312E+04  0.21090836798E+04  0.15294330000E+03 0.  0.
<mgrwt>
<rscale>  0 0.12176384E+04</rscale>
<asrwt>0</asrwt>
<pdfrwt beam="1">  1        2 0.41117172E+00 0.12637027E+04</pdfrwt>
<pdfrwt beam="2">  1       -2 0.10920828E+00 0.12637027E+04</pdfrwt>
<totfact> 0.18005138E+00</totfact>
</mgrwt>
</event>
<event>
 4    2  0.9070994E-007  0.1002027E+04  0.7818608E-02  0.9378911E-01
          2   -1    0    0  501    0  0.00000000000E+00  0.00000000000E+00  0.17099079255E+04  0.17099079255E+04  0.25500000000E-02 0. -1.
         -2   -1    0    0    0  501 -0.00000000000E+00 -0.00000000000E+00 -0.51966886159E+03  0.51966886160E+03  0.25500000000E-02 0.  1.
    8880023    1    1    2    0    0 -0.70453938937E+03  0.27179291496E+03  0.28690947543E+03  0.10422928538E+04  0.65864270000E+03 0.  0.
    8880022    1    1    2    0    0  0.70453938937E+03 -0.27179291496E+03  0.90332958851E+03  0.11872839333E+04  0.15294330000E+03 0.  0.
<mgrwt>
<rscale>  0 0.93831731E+03</rscale>
<asrwt>0</asrwt>
<pdfrwt beam="1">  1        2 0.26306275E+00 0.10020266E+04</pdfrwt>
<pdfrwt beam="2">  1       -2 0.79949057E-01 0.10020266E+04</pdfrwt>
<totfact> 0.13385912E+01</totfact>
</mgrwt>
</event>
<event>
 4    2  0.9070994E-007  0.6762352E+03  0.7818608E-02  0.1011539E+00
         -2   -1    0    0    0  501 -0.00000000000E+00  0.00000000000E+00  0.88380152038E+03  0.88380152038E+03  0.25500000000E-02 0.  1.
          2   -1    0    0  501    0  0.00000000000E+00 -0.00000000000E+00 -0.16416899816E+04  0.16416899816E+04  0.25500000000E-02 0. -1.
    8880023    1    1    2    0    0  0.12777173765E+03 -0.84606522200E+02 -0.15570311745E+04  0.16975394444E+04  0.65864270000E+03 0. -1.
    8880022    1    1    2    0    0 -0.12777173765E+03  0.84606522200E+02  0.79914271327E+03  0.82795205763E+03  0.15294330000E+03 0.  0.
<mgrwt>
<rscale>  0 0.50867644E+03</rscale>
<asrwt>0</asrwt>
<pdfrwt beam="1">  1        2 0.25256769E+00 0.67623523E+03</pdfrwt>
<pdfrwt beam="2">  1       -2 0.13596946E+00 0.67623523E+03</pdfrwt>
<totfact> 0.42635970E+00</totfact>
</mgrwt>
</event>
<event>
 4    2  0.9070994E-007  0.7539817E+03  0.7818608E-02  0.9820945E-01
          2   -1    0    0  501    0  0.00000000000E+00  0.00000000000E+00  0.29001713993E+04  0.29001713993E+04  0.25500000000E-02 0. -1.
         -2   -1    0    0    0  501 -0.00000000000E+00 -0.00000000000E+00 -0.12313042575E+03  0.12313042578E+03  0.25500000000E-02 0.  1.
    8880023    1    1    2    0    0 -0.30532421843E+03 -0.20360567989E+03  0.21736245081E+04  0.23006807383E+04  0.65864270000E+03 0. -1.
    8880022    1    1    2    0    0  0.30532421843E+03  0.20360567989E+03  0.60341646550E+03  0.72262108681E+03  0.15294330000E+03 0.  1.
<mgrwt>
<rscale>  0 0.64250529E+03</rscale>
<asrwt>0</asrwt>
<pdfrwt beam="1">  1        2 0.44618024E+00 0.75398167E+03</pdfrwt>
<pdfrwt beam="2">  1       -2 0.18943141E-01 0.75398167E+03</pdfrwt>
<totfact> 0.49570322E+01</totfact>
</mgrwt>
</event>
<event>
 4    2  0.9070994E-007  0.6925607E+03  0.7818608E-02  0.1002959E+00
          2   -1    0    0  501    0  0.00000000000E+00  0.00000000000E+00  0.18479688443E+04  0.18479688443E+04  0.25500000000E-02 0. -1.
         -2   -1    0    0    0  501 -0.00000000000E+00 -0.00000000000E+00 -0.25269661425E+03  0.25269661427E+03  0.25500000000E-02 0.  1.
    8880023    1    1    2    0    0 -0.11302191803E+03 -0.18181348556E+03  0.16857288319E+04  0.18224494502E+04  0.65864270000E+03 0. -1.
    8880022    1    1    2    0    0  0.11302191803E+03  0.18181348556E+03 -0.90456601865E+02  0.27821600838E+03  0.15294330000E+03 0.  0.
<mgrwt>
<rscale>  0 0.54371798E+03</rscale>
<asrwt>0</asrwt>
<pdfrwt beam="1">  1        2 0.28430290E+00 0.69256069E+03</pdfrwt>
<pdfrwt beam="2">  1       -2 0.38876402E-01 0.69256069E+03</pdfrwt>
<totfact> 0.52475354E+01</totfact>
</mgrwt>
</event>
<event>
 4    2  0.9070994E-007  0.9482321E+03  0.7818608E-02  0.9452662E-01
         -2   -1    0    0    0  501 -0.00000000000E+00  0.00000000000E+00  0.46676595446E+03  0.46676595447E+03  0.25500000000E-02 0.  1.
          2   -1    0    0  501    0  0.00000000000E+00 -0.00000000000E+00 -0.26031029655E+04  0.26031029655E+04  0.25500000000E-02 0. -1.
    8880023    1    1    2    0    0  0.39726690713E+03 -0.55453839401E+03 -0.21719039735E+04  0.23698757145E+04  0.65864270000E+03 0. -1.
    8880022    1    1    2    0    0 -0.39726690713E+03  0.55453839401E+03  0.35566962398E+02  0.69999320551E+03  0.15294330000E+03 0.  0.
<mgrwt>
<rscale>  0 0.87865644E+03</rscale>
<asrwt>0</asrwt>
<pdfrwt beam="1">  1        2 0.40047737E+00 0.94823206E+03</pdfrwt>
<pdfrwt beam="2">  1       -2 0.71810148E-01 0.94823206E+03</pdfrwt>
<totfact> 0.54343342E+00</totfact>
</mgrwt>
</event>
<event>
 4    2  0.9070994E-007  0.7270294E+03  0.7818608E-02  0.9899481E-01
          2   -1    0    0  501    0  0.00000000000E+00  0.00000000000E+00  0.21034824879E+04  0.21034824879E+04  0.25500000000E-02 0. -1.
         -2   -1    0    0    0  501 -0.00000000000E+00 -0.00000000000E+00 -0.22214784032E+03  0.22214784033E+03  0.25500000000E-02 0.  1.
    8880023    1    1    2    0    0 -0.15561094408E+03  0.26560638774E+03  0.18412225506E+04  0.19795636403E+04  0.65864270000E+03 0. -1.
    8880022    1    1    2    0    0  0.15561094408E+03 -0.26560638774E+03  0.40112097006E+02  0.34606668789E+03  0.15294330000E+03 0.  0.
<mgrwt>
<rscale>  0 0.60286441E+03</rscale>
<asrwt>0</asrwt>
<pdfrwt beam="1">  1        2 0.32361270E+00 0.72702938E+03</pdfrwt>
<pdfrwt beam="2">  1       -2 0.34176590E-01 0.72702938E+03</pdfrwt>
<totfact> 0.48537646E+01</totfact>
</mgrwt>
</event>
<event>
 4    2  0.9070994E-007  0.8397309E+03  0.7818608E-02  0.9630688E-01
         -2   -1    0    0    0  501 -0.00000000000E+00  0.00000000000E+00  0.10800604149E+04  0.10800604149E+04  0.25500000000E-02 0.  1.
          2   -1    0    0  501    0  0.00000000000E+00 -0.00000000000E+00 -0.65847176509E+03  0.65847176509E+03  0.25500000000E-02 0. -1.
    8880023    1    1    2    0    0 -0.13041437843E+02  0.52073759876E+03 -0.24887269851E+03  0.87583420360E+03  0.65864270000E+03 0. -1.
    8880022    1    1    2    0    0  0.13041437843E+02 -0.52073759876E+03  0.67046134830E+03  0.86269797637E+03  0.15294330000E+03 0.  0.
<mgrwt>
<rscale>  0 0.75297927E+03</rscale>
<asrwt>0</asrwt>
<pdfrwt beam="1">  1        2 0.10130335E+00 0.83973087E+03</pdfrwt>
<pdfrwt beam="2">  1       -2 0.16616314E+00 0.83973087E+03</pdfrwt>
<totfact> 0.10116935E+01</totfact>
</mgrwt>
</event>
<event>
 4    2  0.9070994E-007  0.7939068E+03  0.7818608E-02  0.9724129E-01
         -2   -1    0    0    0  501 -0.00000000000E+00  0.00000000000E+00  0.26686354890E+03  0.26686354891E+03  0.25500000000E-02 0.  1.
          2   -1    0    0  501    0  0.00000000000E+00 -0.00000000000E+00 -0.20458329194E+04  0.20458329194E+04  0.25500000000E-02 0. -1.
    8880023    1    1    2    0    0 -0.19822431239E+03 -0.39646548226E+03 -0.16425518714E+04  0.18243532041E+04  0.65864270000E+03 0. -1.
    8880022    1    1    2    0    0  0.19822431239E+03  0.39646548226E+03 -0.13641749906E+03  0.48834326422E+03  0.15294330000E+03 0.  0.
<mgrwt>
<rscale>  0 0.69598156E+03</rscale>
<asrwt>0</asrwt>
<pdfrwt beam="1">  1        2 0.31474351E+00 0.79390677E+03</pdfrwt>
<pdfrwt beam="2">  1       -2 0.41055932E-01 0.79390677E+03</pdfrwt>
<totfact> 0.36350936E+01</totfact>
</mgrwt>
</event>
<event>
 4    2  0.9070994E-007  0.6652926E+03  0.7818608E-02  0.1019289E+00
         -2   -1    0    0    0  501 -0.00000000000E+00  0.00000000000E+00  0.37707865022E+03  0.37707865023E+03  0.25500000000E-02 0.  1.
          2   -1    0    0  501    0  0.00000000000E+00 -0.00000000000E+00 -0.85470705474E+03  0.85470705474E+03  0.25500000000E-02 0. -1.
    8880023    1    1    2    0    0 -0.93790968524E+02  0.27071156960E+01 -0.68680227953E+03  0.95619645036E+03  0.65864270000E+03 0.  0.
    8880022    1    1    2    0    0  0.93790968524E+02 -0.27071156960E+01  0.20917387502E+03  0.27558925461E+03  0.15294330000E+03 0.  1.
<mgrwt>
<rscale>  0 0.47944005E+03</rscale>
<asrwt>0</asrwt>
<pdfrwt beam="1">  1        2 0.13149339E+00 0.66529263E+03</pdfrwt>
<pdfrwt beam="2">  1       -2 0.58012100E-01 0.66529263E+03</pdfrwt>
<totfact> 0.89290591E+01</totfact>
</mgrwt>
</event>
<event>
 4    2  0.9070994E-007  0.6705399E+03  0.7818608E-02  0.1015279E+00
          2   -1    0    0  501    0  0.00000000000E+00  0.00000000000E+00  0.87508357653E+03  0.87508357653E+03  0.25500000000E-02 0. -1.
         -2   -1    0    0    0  501 -0.00000000000E+00 -0.00000000000E+00 -0.24124108922E+03  0.24124108923E+03  0.25500000000E-02 0.  1.
    8880023    1    1    2    0    0  0.27669102250E+02 -0.12267024698E+03  0.62728911485E+03  0.91821316075E+03  0.65864270000E+03 0. -1.
    8880022    1    1    2    0    0 -0.27669102250E+02  0.12267024698E+03  0.65533724642E+01  0.19811150501E+03  0.15294330000E+03 0.  1.
<mgrwt>
<rscale>  0 0.49429528E+03</rscale>
<asrwt>0</asrwt>
<pdfrwt beam="1">  1        2 0.13462824E+00 0.67053991E+03</pdfrwt>
<pdfrwt beam="2">  1       -2 0.37114014E-01 0.67053991E+03</pdfrwt>
<totfact> 0.21155780E+02</totfact>
</mgrwt>
</event>
<event>
 4    2  0.9070994E-007  0.6962732E+03  0.7818608E-02  0.1001303E+00
          2   -1    0    0  501    0  0.00000000000E+00  0.00000000000E+00  0.17292768734E+04  0.17292768734E+04  0.25500000000E-02 0. -1.
         -2   -1    0    0    0  501 -0.00000000000E+00 -0.00000000000E+00 -0.54147298807E+03  0.54147298808E+03  0.25500000000E-02 0.  1.
    8880023    1    1    2    0    0  0.23717819924E+02 -0.22455191890E+03  0.16179642504E+04  0.17614211936E+04  0.65864270000E+03 0. -1.
    8880022    1    1    2    0    0 -0.23717819924E+02  0.22455191890E+03 -0.43016036508E+03  0.50932866792E+03  0.15294330000E+03 0.  0.
<mgrwt>
<rscale>  0 0.55082687E+03</rscale>
<asrwt>0</asrwt>
<pdfrwt beam="1">  1        2 0.26604259E+00 0.69627315E+03</pdfrwt>
<pdfrwt beam="2">  1       -2 0.83303537E-01 0.69627315E+03</pdfrwt>
<totfact> 0.12356866E+01</totfact>
</mgrwt>
</event>
<event>
 4    2  0.9070994E-007  0.7744652E+03  0.7818608E-02  0.9769003E-01
          2   -1    0    0  501    0  0.00000000000E+00  0.00000000000E+00  0.23850829757E+04  0.23850829757E+04  0.25500000000E-02 0. -1.
         -2   -1    0    0    0  501 -0.00000000000E+00 -0.00000000000E+00 -0.19338960134E+03  0.19338960135E+03  0.25500000000E-02 0.  1.
    8880023    1    1    2    0    0 -0.40613856564E+03  0.32211533759E+02  0.19074820206E+04  0.20587093002E+04  0.65864270000E+03 0.  0.
    8880022    1    1    2    0    0  0.40613856564E+03 -0.32211533759E+02  0.28421135382E+03  0.51976327695E+03  0.15294330000E+03 0.  0.
<mgrwt>
<rscale>  0 0.67052898E+03</rscale>
<asrwt>0</asrwt>
<pdfrwt beam="1">  1        2 0.36693584E+00 0.77446519E+03</pdfrwt>
<pdfrwt beam="2">  1       -2 0.29752246E-01 0.77446519E+03</pdfrwt>
<totfact> 0.43704204E+01</totfact>
</mgrwt>
</event>
<event>
 4    2  0.9070994E-007  0.7729940E+03  0.7818608E-02  0.9772559E-01
         -2   -1    0    0    0  501 -0.00000000000E+00  0.00000000000E+00  0.54824376100E+03  0.54824376101E+03  0.25500000000E-02 0.  1.
          2   -1    0    0  501    0  0.00000000000E+00 -0.00000000000E+00 -0.80411710364E+03  0.80411710364E+03  0.25500000000E-02 0. -1.
    8880023    1    1    2    0    0  0.34393826684E+03  0.21311027664E+03 -0.43177664539E+03  0.88540996108E+03  0.65864270000E+03 0.  0.
    8880022    1    1    2    0    0 -0.34393826684E+03 -0.21311027664E+03  0.17590330276E+03  0.46695090357E+03  0.15294330000E+03 0.  0.
<mgrwt>
<rscale>  0 0.66856195E+03</rscale>
<asrwt>0</asrwt>
<pdfrwt beam="1">  1        2 0.12371032E+00 0.77299400E+03</pdfrwt>
<pdfrwt beam="2">  1       -2 0.84345194E-01 0.77299400E+03</pdfrwt>
<totfact> 0.42456130E+01</totfact>
</mgrwt>
</event>
<event>
 4    2  0.9070994E-007  0.6702570E+03  0.7818608E-02  0.1015479E+00
          2   -1    0    0  501    0  0.00000000000E+00  0.00000000000E+00  0.11918101846E+04  0.11918101846E+04  0.25500000000E-02 0. -1.
         -2   -1    0    0    0  501 -0.00000000000E+00 -0.00000000000E+00 -0.48002553756E+03  0.48002553757E+03  0.25500000000E-02 0.  1.
    8880023    1    1    2    0    0 -0.11409736371E+03  0.49152709119E+02  0.10702371661E+04  0.12627953101E+04  0.65864270000E+03 0. -1.
    8880022    1    1    2    0    0  0.11409736371E+03 -0.49152709119E+02 -0.35845251911E+03  0.40904041205E+03  0.15294330000E+03 0.  0.
<mgrwt>
<rscale>  0 0.49353860E+03</rscale>
<asrwt>0</asrwt>
<pdfrwt beam="1">  1        2 0.18335541E+00 0.67025697E+03</pdfrwt>
<pdfrwt beam="2">  1       -2 0.73850082E-01 0.67025697E+03</pdfrwt>
<totfact> 0.32518206E+01</totfact>
</mgrwt>
</event>
<event>
 4    2  0.9070994E-007  0.7386891E+03  0.7818608E-02  0.9863782E-01
         -2   -1    0    0    0  501 -0.00000000000E+00  0.00000000000E+00  0.17456670962E+03  0.17456670964E+03  0.25500000000E-02 0.  1.
          2   -1    0    0  501    0  0.00000000000E+00 -0.00000000000E+00 -0.28714958871E+04  0.28714958871E+04  0.25500000000E-02 0. -1.
    8880023    1    1    2    0    0 -0.32062560028E+03 -0.95134507872E+02 -0.25417409846E+04  0.26469055119E+04  0.65864270000E+03 0.  0.
    8880022    1    1    2    0    0  0.32062560028E+03  0.95134507872E+02 -0.15518819293E+03  0.39915708484E+03  0.15294330000E+03 0.  0.
<mgrwt>
<rscale>  0 0.62049118E+03</rscale>
<asrwt>0</asrwt>
<pdfrwt beam="1">  1        2 0.44176856E+00 0.73868908E+03</pdfrwt>
<pdfrwt beam="2">  1       -2 0.26856419E-01 0.73868908E+03</pdfrwt>
<totfact> 0.27777478E+01</totfact>
</mgrwt>
</event>
<event>
 4    2  0.9070994E-007  0.8263607E+03  0.7818608E-02  0.9656455E-01
         -2   -1    0    0    0  501 -0.00000000000E+00  0.00000000000E+00  0.27275606599E+03  0.27275606600E+03  0.25500000000E-02 0.  1.
          2   -1    0    0  501    0  0.00000000000E+00 -0.00000000000E+00 -0.33876641925E+04  0.33876641925E+04  0.25500000000E-02 0. -1.
    8880023    1    1    2    0    0 -0.48248408852E+03  0.12755744197E+03 -0.30185637928E+04  0.31296324663E+04  0.65864270000E+03 0. -1.
    8880022    1    1    2    0    0  0.48248408852E+03 -0.12755744197E+03 -0.96344333695E+02  0.53078779218E+03  0.15294330000E+03 0.  0.
<mgrwt>
<rscale>  0 0.73669679E+03</rscale>
<asrwt>0</asrwt>
<pdfrwt beam="1">  1        2 0.52117908E+00 0.82636070E+03</pdfrwt>
<pdfrwt beam="2">  1       -2 0.41962474E-01 0.82636070E+03</pdfrwt>
<totfact> 0.55637551E+00</totfact>
</mgrwt>
</event>
<event>
 4    2  0.1205160E-006  0.6932719E+03  0.7818608E-02  0.1002635E+00
         -2   -1    0    0    0  501 -0.00000000000E+00  0.00000000000E+00  0.74955565834E+03  0.74955565834E+03  0.25500000000E-02 0.  1.
          2   -1    0    0  501    0  0.00000000000E+00 -0.00000000000E+00 -0.33028334402E+04  0.33028334402E+04  0.25500000000E-02 0. -1.
    8880023    1    1    2    0    0  0.15966832896E+03 -0.14601990636E+03 -0.32415601162E+04  0.33148662087E+04  0.65864270000E+03 0. -1.
    8880022    1    1    2    0    0 -0.15966832896E+03  0.14601990636E+03  0.68828233432E+03  0.73752288987E+03  0.15294330000E+03 0.  0.
<mgrwt>
<rscale>  0 0.54509929E+03</rscale>
<asrwt>0</asrwt>
<pdfrwt beam="1">  1        2 0.50812821E+00 0.69327195E+03</pdfrwt>
<pdfrwt beam="2">  1       -2 0.11531626E+00 0.69327195E+03</pdfrwt>
<totfact> 0.71180626E-01</totfact>
</mgrwt>
</event>
<event>
 4    2  0.9070994E-007  0.7442343E+03  0.7818608E-02  0.9847780E-01
          2   -1    0    0  501    0  0.00000000000E+00  0.00000000000E+00  0.46370556406E+03  0.46370556407E+03  0.25500000000E-02 0. -1.
         -2   -1    0    0    0  501 -0.00000000000E+00 -0.00000000000E+00 -0.13046063862E+04  0.13046063862E+04  0.25500000000E-02 0.  1.
    8880023    1    1    2    0    0 -0.39688862599E+02 -0.34423724818E+03  0.10292685980E+03  0.75131793109E+03  0.65864270000E+03 0.  0.
    8880022    1    1    2    0    0  0.39688862599E+02  0.34423724818E+03 -0.94382768190E+03  0.10169940191E+04  0.15294330000E+03 0.  1.
<mgrwt>
<rscale>  0 0.62860226E+03</rscale>
<asrwt>0</asrwt>
<pdfrwt beam="1">  1        2 0.71339318E-01 0.74423430E+03</pdfrwt>
<pdfrwt beam="2">  1       -2 0.20070867E+00 0.74423430E+03</pdfrwt>
<totfact> 0.90169267E+00</totfact>
</mgrwt>
</event>
<event>
 4    2  0.9070994E-007  0.8532508E+03  0.7818608E-02  0.9605684E-01
         -2   -1    0    0    0  501 -0.00000000000E+00  0.00000000000E+00  0.73039126966E+03  0.73039126967E+03  0.25500000000E-02 0.  1.
          2   -1    0    0  501    0  0.00000000000E+00 -0.00000000000E+00 -0.15654839222E+04  0.15654839222E+04  0.25500000000E-02 0. -1.
    8880023    1    1    2    0    0 -0.24760038602E+03  0.48261860293E+03 -0.13069685283E+04  0.15608342664E+04  0.65864270000E+03 0. -1.
    8880022    1    1    2    0    0  0.24760038602E+03 -0.48261860293E+03  0.47187587571E+03  0.73504092548E+03  0.15294330000E+03 0.  0.
<mgrwt>
<rscale>  0 0.76921139E+03</rscale>
<asrwt>0</asrwt>
<pdfrwt beam="1">  1        2 0.24084368E+00 0.85325077E+03</pdfrwt>
<pdfrwt beam="2">  1       -2 0.11236789E+00 0.85325077E+03</pdfrwt>
<totfact> 0.73623577E+00</totfact>
</mgrwt>
</event>
<event>
 4    2  0.9070994E-007  0.7534313E+03  0.7818608E-02  0.9822420E-01
         -2   -1    0    0    0  501 -0.00000000000E+00  0.00000000000E+00  0.69011867694E+03  0.69011867695E+03  0.25500000000E-02 0.  1.
          2   -1    0    0  501    0  0.00000000000E+00 -0.00000000000E+00 -0.57495741124E+03  0.57495741125E+03  0.25500000000E-02 0. -1.
    8880023    1    1    2    0    0 -0.36345498271E+03  0.41821510080E+02 -0.17528015389E+03  0.77355148618E+03  0.65864270000E+03 0.  0.
    8880022    1    1    2    0    0  0.36345498271E+03 -0.41821510080E+02  0.29044141959E+03  0.49152460202E+03  0.15294330000E+03 0.  0.
<mgrwt>
<rscale>  0 0.64173128E+03</rscale>
<asrwt>0</asrwt>
<pdfrwt beam="1">  1        2 0.88454987E-01 0.75343133E+03</pdfrwt>
<pdfrwt beam="2">  1       -2 0.10617210E+00 0.75343133E+03</pdfrwt>
<totfact> 0.37823177E+01</totfact>
</mgrwt>
</event>
<event>
 4    2  0.9070994E-007  0.8655299E+03  0.7818608E-02  0.9583801E-01
          2   -1    0    0  501    0  0.00000000000E+00  0.00000000000E+00  0.92575518214E+03  0.92575518214E+03  0.25500000000E-02 0. -1.
         -2   -1    0    0    0  501 -0.00000000000E+00 -0.00000000000E+00 -0.84059504754E+03  0.84059504754E+03  0.25500000000E-02 0.  1.
    8880023    1    1    2    0    0  0.20784019825E+03 -0.52166492078E+03  0.54654988670E+03  0.10236497558E+04  0.65864270000E+03 0.  0.
    8880022    1    1    2    0    0 -0.20784019825E+03  0.52166492078E+03 -0.46138975210E+03  0.74270047391E+03  0.15294330000E+03 0.  0.
<mgrwt>
<rscale>  0 0.78377648E+03</rscale>
<asrwt>0</asrwt>
<pdfrwt beam="1">  1        2 0.14242388E+00 0.86552992E+03</pdfrwt>
<pdfrwt beam="2">  1       -2 0.12932231E+00 0.86552992E+03</pdfrwt>
<totfact> 0.12452032E+01</totfact>
</mgrwt>
</event>
<event>
 4    2  0.9070994E-007  0.8086142E+03  0.7818608E-02  0.9692471E-01
          2   -1    0    0  501    0  0.00000000000E+00  0.00000000000E+00  0.90542518600E+03  0.90542518601E+03  0.25500000000E-02 0. -1.
         -2   -1    0    0    0  501 -0.00000000000E+00 -0.00000000000E+00 -0.10131694704E+04  0.10131694704E+04  0.25500000000E-02 0.  1.
    8880023    1    1    2    0    0  0.45793912903E+03  0.10167805824E+03  0.63414619752E+03  0.10276177692E+04  0.65864270000E+03 0.  0.
    8880022    1    1    2    0    0 -0.45793912903E+03 -0.10167805824E+03 -0.74189048194E+03  0.89097688726E+03  0.15294330000E+03 0.  1.
<mgrwt>
<rscale>  0 0.71466848E+03</rscale>
<asrwt>0</asrwt>
<pdfrwt beam="1">  1        2 0.13929618E+00 0.80861417E+03</pdfrwt>
<pdfrwt beam="2">  1       -2 0.15587223E+00 0.80861417E+03</pdfrwt>
<totfact> 0.79466008E+00</totfact>
</mgrwt>
</event>
<event>
 4    2  0.9070994E-007  0.6721296E+03  0.7818608E-02  0.1014180E+00
          2   -1    0    0  501    0  0.00000000000E+00  0.00000000000E+00  0.14461454672E+04  0.14461454672E+04  0.25500000000E-02 0. -1.
         -2   -1    0    0    0  501 -0.00000000000E+00 -0.00000000000E+00 -0.19880807012E+03  0.19880807014E+03  0.25500000000E-02 0.  1.
    8880023    1    1    2    0    0 -0.73671197463E+02 -0.11189535194E+03  0.12734696975E+04  0.14399594758E+04  0.65864270000E+03 0. -1.
    8880022    1    1    2    0    0  0.73671197463E+02  0.11189535194E+03 -0.26132300463E+02  0.20499406153E+03  0.15294330000E+03 0.  0.
<mgrwt>
<rscale>  0 0.49846612E+03</rscale>
<asrwt>0</asrwt>
<pdfrwt beam="1">  1        2 0.22248392E+00 0.67212962E+03</pdfrwt>
<pdfrwt beam="2">  1       -2 0.30585856E-01 0.67212962E+03</pdfrwt>
<totfact> 0.13772001E+02</totfact>
</mgrwt>
</event>
<event>
 4    2  0.9070994E-007  0.6981802E+03  0.7818608E-02  0.1000484E+00
         -2   -1    0    0    0  501 -0.00000000000E+00  0.00000000000E+00  0.61892163291E+03  0.61892163292E+03  0.25500000000E-02 0.  1.
          2   -1    0    0  501    0  0.00000000000E+00 -0.00000000000E+00 -0.39495227015E+03  0.39495227016E+03  0.25500000000E-02 0. -1.
    8880023    1    1    2    0    0 -0.23149740947E+03 -0.73671706374E+01  0.84583397603E+02  0.70328506539E+03  0.65864270000E+03 0. -1.
    8880022    1    1    2    0    0  0.23149740947E+03  0.73671706374E+01  0.13938596516E+03  0.31058883768E+03  0.15294330000E+03 0.  1.
<mgrwt>
<rscale>  0 0.55438699E+03</rscale>
<asrwt>0</asrwt>
<pdfrwt beam="1">  1        2 0.60761888E-01 0.69818016E+03</pdfrwt>
<pdfrwt beam="2">  1       -2 0.95218713E-01 0.69818016E+03</pdfrwt>
<totfact> 0.75802244E+01</totfact>
</mgrwt>
</event>
<event>
 4    2  0.9070994E-007  0.8808713E+03  0.7818608E-02  0.9557465E-01
          2   -1    0    0  501    0  0.00000000000E+00  0.00000000000E+00  0.26904281316E+04  0.26904281316E+04  0.25500000000E-02 0. -1.
         -2   -1    0    0    0  501 -0.00000000000E+00 -0.00000000000E+00 -0.76112692167E+03  0.76112692168E+03  0.25500000000E-02 0.  1.
    8880023    1    1    2    0    0 -0.33546656562E+03  0.47915151361E+03  0.24812186053E+04  0.26329413141E+04  0.65864270000E+03 0. -1.
    8880022    1    1    2    0    0  0.33546656562E+03 -0.47915151361E+03 -0.55191739541E+03  0.81861373920E+03  0.15294330000E+03 0.  0.
<mgrwt>
<rscale>  0 0.80176590E+03</rscale>
<asrwt>0</asrwt>
<pdfrwt beam="1">  1        2 0.41391203E+00 0.88087127E+03</pdfrwt>
<pdfrwt beam="2">  1       -2 0.11709645E+00 0.88087127E+03</pdfrwt>
<totfact> 0.15648898E+00</totfact>
</mgrwt>
</event>
<event>
 4    2  0.9070994E-007  0.9046585E+03  0.7818608E-02  0.9518594E-01
         -2   -1    0    0    0  501 -0.00000000000E+00  0.00000000000E+00  0.88576927800E+03  0.88576927800E+03  0.25500000000E-02 0.  1.
          2   -1    0    0  501    0  0.00000000000E+00 -0.00000000000E+00 -0.13422630065E+04  0.13422630065E+04  0.25500000000E-02 0. -1.
    8880023    1    1    2    0    0 -0.37082722531E+03 -0.49707541656E+03 -0.10291025539E+04  0.13702040262E+04  0.65864270000E+03 0.  0.
    8880022    1    1    2    0    0  0.37082722531E+03  0.49707541656E+03  0.57260882540E+03  0.85782825829E+03  0.15294330000E+03 0.  0.
<mgrwt>
<rscale>  0 0.82926720E+03</rscale>
<asrwt>0</asrwt>
<pdfrwt beam="1">  1        2 0.20650200E+00 0.90465850E+03</pdfrwt>
<pdfrwt beam="2">  1       -2 0.13627220E+00 0.90465850E+03</pdfrwt>
<totfact> 0.60334855E+00</totfact>
</mgrwt>
</event>
<event>
 4    2  0.9070994E-007  0.7232115E+03  0.7818608E-02  0.9911865E-01
         -2   -1    0    0    0  501 -0.00000000000E+00  0.00000000000E+00  0.69189710052E+02  0.69189710099E+02  0.25500000000E-02 0.  1.
          2   -1    0    0  501    0  0.00000000000E+00 -0.00000000000E+00 -0.42015787319E+04  0.42015787319E+04  0.25500000000E-02 0. -1.
    8880023    1    1    2    0    0 -0.13605445125E+03  0.26592076975E+03 -0.24177606949E+04  0.25236088551E+04  0.65864270000E+03 0.  0.
    8880022    1    1    2    0    0  0.13605445125E+03 -0.26592076975E+03 -0.17146283269E+04  0.17471595869E+04  0.15294330000E+03 0.  1.
<mgrwt>
<rscale>  0 0.59689668E+03</rscale>
<asrwt>0</asrwt>
<pdfrwt beam="1">  1        2 0.64639653E+00 0.72321150E+03</pdfrwt>
<pdfrwt beam="2">  1       -2 0.10644574E-01 0.72321150E+03</pdfrwt>
<totfact> 0.16069297E+01</totfact>
</mgrwt>
</event>
<event>
 4    2  0.9070994E-007  0.6899517E+03  0.7818608E-02  0.1004176E+00
         -2   -1    0    0    0  501 -0.00000000000E+00  0.00000000000E+00  0.34705059283E+03  0.34705059284E+03  0.25500000000E-02 0.  1.
          2   -1    0    0  501    0  0.00000000000E+00 -0.00000000000E+00 -0.18584949228E+04  0.18584949228E+04  0.25500000000E-02 0. -1.
    8880023    1    1    2    0    0 -0.19457760329E+03 -0.66050405804E+02 -0.17339942408E+04  0.18662179222E+04  0.65864270000E+03 0. -1.
    8880022    1    1    2    0    0  0.19457760329E+03  0.66050405804E+02  0.22254991086E+03  0.33932759340E+03  0.15294330000E+03 0.  1.
<mgrwt>
<rscale>  0 0.53856632E+03</rscale>
<asrwt>0</asrwt>
<pdfrwt beam="1">  1        2 0.28592229E+00 0.68995167E+03</pdfrwt>
<pdfrwt beam="2">  1       -2 0.53392400E-01 0.68995167E+03</pdfrwt>
<totfact> 0.27491152E+01</totfact>
</mgrwt>
</event>
<event>
 4    2  0.9070994E-007  0.7124925E+03  0.7818608E-02  0.9948859E-01
          2   -1    0    0  501    0  0.00000000000E+00  0.00000000000E+00  0.37509290249E+03  0.37509290250E+03  0.25500000000E-02 0. -1.
         -2   -1    0    0    0  501 -0.00000000000E+00 -0.00000000000E+00 -0.12297836776E+04  0.12297836776E+04  0.25500000000E-02 0.  1.
    8880023    1    1    2    0    0 -0.24857213778E+03  0.10975994899E+03 -0.18820671604E+02  0.71274103153E+03  0.65864270000E+03 0. -1.
    8880022    1    1    2    0    0  0.24857213778E+03 -0.10975994899E+03 -0.83587010350E+03  0.89213554857E+03  0.15294330000E+03 0.  0.
<mgrwt>
<rscale>  0 0.57950687E+03</rscale>
<asrwt>0</asrwt>
<pdfrwt beam="1">  1        2 0.57706601E-01 0.71249250E+03</pdfrwt>
<pdfrwt beam="2">  1       -2 0.18919749E+00 0.71249250E+03</pdfrwt>
<totfact> 0.13691277E+01</totfact>
</mgrwt>
</event>
<event>
 4    2  0.9070994E-007  0.6711339E+03  0.7818608E-02  0.1014863E+00
         -2   -1    0    0    0  501 -0.00000000000E+00  0.00000000000E+00  0.71468421909E+03  0.71468421910E+03  0.25500000000E-02 0.  1.
          2   -1    0    0  501    0  0.00000000000E+00 -0.00000000000E+00 -0.10712082616E+04  0.10712082617E+04  0.25500000000E-02 0. -1.
    8880023    1    1    2    0    0 -0.11010726692E+03  0.66984644020E+02 -0.94799868526E+03  0.11615172260E+04  0.65864270000E+03 0. -1.
    8880022    1    1    2    0    0  0.11010726692E+03 -0.66984644020E+02  0.59147464271E+03  0.62437525475E+03  0.15294330000E+03 0.  0.
<mgrwt>
<rscale>  0 0.49586949E+03</rscale>
<asrwt>0</asrwt>
<pdfrwt beam="1">  1        2 0.16480127E+00 0.67113394E+03</pdfrwt>
<pdfrwt beam="2">  1       -2 0.10995142E+00 0.67113394E+03</pdfrwt>
<totfact> 0.15339213E+01</totfact>
</mgrwt>
</event>
<event>
 4    2  0.9070994E-007  0.8826102E+03  0.7818608E-02  0.9554545E-01
         -2   -1    0    0    0  501 -0.00000000000E+00  0.00000000000E+00  0.55599946312E+03  0.55599946313E+03  0.25500000000E-02 0.  1.
          2   -1    0    0  501    0  0.00000000000E+00 -0.00000000000E+00 -0.14744317127E+04  0.14744317127E+04  0.25500000000E-02 0. -1.
    8880023    1    1    2    0    0  0.58118195951E+03  0.86128329457E+02 -0.10871441473E+04  0.14003153796E+04  0.65864270000E+03 0.  0.
    8880022    1    1    2    0    0 -0.58118195951E+03 -0.86128329457E+02  0.16871189769E+03  0.63011579621E+03  0.15294330000E+03 0.  0.
<mgrwt>
<rscale>  0 0.80379167E+03</rscale>
<asrwt>0</asrwt>
<pdfrwt beam="1">  1        2 0.22683565E+00 0.88261020E+03</pdfrwt>
<pdfrwt beam="2">  1       -2 0.85538379E-01 0.88261020E+03</pdfrwt>
<totfact> 0.15714820E+01</totfact>
</mgrwt>
</event>
<event>
 4    2  0.9070994E-007  0.7904773E+03  0.7818608E-02  0.9731777E-01
         -2   -1    0    0    0  501 -0.00000000000E+00  0.00000000000E+00  0.15314668969E+04  0.15314668969E+04  0.25500000000E-02 0.  1.
          2   -1    0    0  501    0  0.00000000000E+00 -0.00000000000E+00 -0.38456585327E+03  0.38456585328E+03  0.25500000000E-02 0. -1.
    8880023    1    1    2    0    0 -0.36171849746E+03  0.24536484871E+03  0.12134418566E+04  0.14482042418E+04  0.65864270000E+03 0.  0.
    8880022    1    1    2    0    0  0.36171849746E+03 -0.24536484871E+03 -0.66540813031E+02  0.46782850832E+03  0.15294330000E+03 0.  0.
<mgrwt>
<rscale>  0 0.69155899E+03</rscale>
<asrwt>0</asrwt>
<pdfrwt beam="1">  1        2 0.59163977E-01 0.79047732E+03</pdfrwt>
<pdfrwt beam="2">  1       -2 0.23561029E+00 0.79047732E+03</pdfrwt>
<totfact> 0.66903477E+00</totfact>
</mgrwt>
</event>
<event>
 4    2  0.9070994E-007  0.6623782E+03  0.7818608E-02  0.1021842E+00
         -2   -1    0    0    0  501 -0.00000000000E+00  0.00000000000E+00  0.11462653909E+04  0.11462653909E+04  0.25500000000E-02 0.  1.
          2   -1    0    0  501    0  0.00000000000E+00 -0.00000000000E+00 -0.33619370261E+03  0.33619370262E+03  0.25500000000E-02 0. -1.
    8880023    1    1    2    0    0  0.36331994238E+02  0.60122157427E+02  0.74903184179E+01  0.66242056033E+03  0.65864270000E+03 0.  0.
    8880022    1    1    2    0    0 -0.36331994238E+02 -0.60122157427E+02  0.80258136985E+03  0.82003853316E+03  0.15294330000E+03 0.  1.
<mgrwt>
<rscale>  0 0.47027657E+03</rscale>
<asrwt>0</asrwt>
<pdfrwt beam="1">  1        2 0.51722108E-01 0.66237821E+03</pdfrwt>
<pdfrwt beam="2">  1       -2 0.17634852E+00 0.66237821E+03</pdfrwt>
<totfact> 0.19005665E+01</totfact>
</mgrwt>
</event>
<event>
 4    2  0.9070994E-007  0.1013459E+04  0.7818608E-02  0.9364157E-01
         -2   -1    0    0    0  501 -0.00000000000E+00  0.00000000000E+00  0.53221147287E+03  0.53221147287E+03  0.25500000000E-02 0.  1.
          2   -1    0    0  501    0  0.00000000000E+00 -0.00000000000E+00 -0.23790164826E+04  0.23790164826E+04  0.25500000000E-02 0. -1.
    8880023    1    1    2    0    0  0.56157979278E+03  0.52717806266E+03 -0.18684864348E+04  0.21256388067E+04  0.65864270000E+03 0. -1.
    8880022    1    1    2    0    0 -0.56157979278E+03 -0.52717806266E+03  0.21681425061E+02  0.78558914874E+03  0.15294330000E+03 0.  0.
<mgrwt>
<rscale>  0 0.95085016E+03</rscale>
<asrwt>0</asrwt>
<pdfrwt beam="1">  1        2 0.36600253E+00 0.10134588E+04</pdfrwt>
<pdfrwt beam="2">  1       -2 0.81878690E-01 0.10134588E+04</pdfrwt>
<totfact> 0.53940983E+00</totfact>
</mgrwt>
</event>
<event>
 4    2  0.9070994E-007  0.7093909E+03  0.7818608E-02  0.9960270E-01
         -2   -1    0    0    0  501 -0.00000000000E+00  0.00000000000E+00  0.20836556448E+03  0.20836556450E+03  0.25500000000E-02 0.  1.
          2   -1    0    0  501    0  0.00000000000E+00 -0.00000000000E+00 -0.13366779699E+04  0.13366779699E+04  0.25500000000E-02 0. -1.
    8880023    1    1    2    0    0  0.58577199009E+02 -0.25689287400E+03 -0.57401939467E+03  0.91254244213E+03  0.65864270000E+03 0.  1.
    8880022    1    1    2    0    0 -0.58577199009E+02  0.25689287400E+03 -0.55429301077E+03  0.63250109230E+03  0.15294330000E+03 0. -1.
<mgrwt>
<rscale>  0 0.57427192E+03</rscale>
<asrwt>0</asrwt>
<pdfrwt beam="1">  1        2 0.20564276E+00 0.70939090E+03</pdfrwt>
<pdfrwt beam="2">  1       -2 0.32056242E-01 0.70939090E+03</pdfrwt>
<totfact> 0.14499324E+02</totfact>
</mgrwt>
</event>
<event>
 4    2  0.9070994E-007  0.8472784E+03  0.7818608E-02  0.9616606E-01
          2   -1    0    0  501    0  0.00000000000E+00  0.00000000000E+00  0.16654792127E+04  0.16654792127E+04  0.25500000000E-02 0. -1.
         -2   -1    0    0    0  501 -0.00000000000E+00 -0.00000000000E+00 -0.33235343236E+03  0.33235343237E+03  0.25500000000E-02 0.  1.
    8880023    1    1    2    0    0 -0.19381113058E+03  0.49649551164E+03  0.11186572244E+04  0.14033084976E+04  0.65864270000E+03 0.  0.
    8880022    1    1    2    0    0  0.19381113058E+03 -0.49649551164E+03  0.21446855586E+03  0.59452414743E+03  0.15294330000E+03 0. -1.
<mgrwt>
<rscale>  0 0.76206775E+03</rscale>
<asrwt>0</asrwt>
<pdfrwt beam="1">  1        2 0.25622757E+00 0.84727844E+03</pdfrwt>
<pdfrwt beam="2">  1       -2 0.51131297E-01 0.84727844E+03</pdfrwt>
<totfact> 0.37596685E+01</totfact>
</mgrwt>
</event>
<event>
 4    2  0.9070994E-007  0.8891738E+03  0.7818608E-02  0.9543639E-01
         -2   -1    0    0    0  501 -0.00000000000E+00  0.00000000000E+00  0.15127936190E+04  0.15127936190E+04  0.25500000000E-02 0.  1.
          2   -1    0    0  501    0  0.00000000000E+00 -0.00000000000E+00 -0.12590606651E+04  0.12590606651E+04  0.25500000000E-02 0. -1.
    8880023    1    1    2    0    0  0.35267483092E+03 -0.48212066945E+03 -0.10221540944E+04  0.13547800837E+04  0.65864270000E+03 0. -1.
    8880022    1    1    2    0    0 -0.35267483092E+03  0.48212066945E+03  0.12758870483E+04  0.14170742003E+04  0.15294330000E+03 0.  0.
<mgrwt>
<rscale>  0 0.81141524E+03</rscale>
<asrwt>0</asrwt>
<pdfrwt beam="1">  1        2 0.19370164E+00 0.88917382E+03</pdfrwt>
<pdfrwt beam="2">  1       -2 0.23273748E+00 0.88917382E+03</pdfrwt>
<totfact> 0.14514785E+00</totfact>
</mgrwt>
</event>
<event>
 4    2  0.9070994E-007  0.8750355E+03  0.7818608E-02  0.9567358E-01
          2   -1    0    0  501    0  0.00000000000E+00  0.00000000000E+00  0.15309113724E+04  0.15309113724E+04  0.25500000000E-02 0. -1.
         -2   -1    0    0    0  501 -0.00000000000E+00 -0.00000000000E+00 -0.94187589351E+03  0.94187589351E+03  0.25500000000E-02 0.  1.
    8880023    1    1    2    0    0  0.44346214387E+03 -0.36772025986E+03  0.12861529398E+04  0.15555952087E+04  0.65864270000E+03 0.  0.
    8880022    1    1    2    0    0 -0.44346214387E+03  0.36772025986E+03 -0.69711746088E+03  0.91719205722E+03  0.15294330000E+03 0.  0.
<mgrwt>
<rscale>  0 0.79494820E+03</rscale>
<asrwt>0</asrwt>
<pdfrwt beam="1">  1        2 0.23552482E+00 0.87503547E+03</pdfrwt>
<pdfrwt beam="2">  1       -2 0.14490398E+00 0.87503547E+03</pdfrwt>
<totfact> 0.40367829E+00</totfact>
</mgrwt>
</event>
<event>
 4    2  0.9070994E-007  0.7130450E+03  0.7818608E-02  0.9946863E-01
          2   -1    0    0  501    0  0.00000000000E+00  0.00000000000E+00  0.23522558462E+04  0.23522558462E+04  0.25500000000E-02 0. -1.
         -2   -1    0    0    0  501 -0.00000000000E+00 -0.00000000000E+00 -0.41703137843E+03  0.41703137843E+03  0.25500000000E-02 0.  1.
    8880023    1    1    2    0    0 -0.20325747679E+03 -0.18250843787E+03  0.22288115075E+04  0.23400927063E+04  0.65864270000E+03 0. -1.
    8880022    1    1    2    0    0  0.20325747679E+03  0.18250843787E+03 -0.29358703966E+03  0.42919451842E+03  0.15294330000E+03 0.  0.
<mgrwt>
<rscale>  0 0.58042890E+03</rscale>
<asrwt>0</asrwt>
<pdfrwt beam="1">  1        2 0.36188552E+00 0.71304498E+03</pdfrwt>
<pdfrwt beam="2">  1       -2 0.64158673E-01 0.71304498E+03</pdfrwt>
<totfact> 0.99886280E+00</totfact>
</mgrwt>
</event>
<event>
 4    2  0.9070994E-007  0.8767013E+03  0.7818608E-02  0.9564519E-01
         -2   -1    0    0    0  501 -0.00000000000E+00  0.00000000000E+00  0.64585388951E+03  0.64585388952E+03  0.25500000000E-02 0.  1.
          2   -1    0    0  501    0  0.00000000000E+00 -0.00000000000E+00 -0.24578953079E+04  0.24578953079E+04  0.25500000000E-02 0. -1.
    8880023    1    1    2    0    0 -0.43588362579E+03  0.38052656203E+03 -0.22150396219E+04  0.23822270531E+04  0.65864270000E+03 0.  0.
    8880022    1    1    2    0    0  0.43588362579E+03 -0.38052656203E+03  0.40299820354E+03  0.72152214430E+03  0.15294330000E+03 0.  0.
<mgrwt>
<rscale>  0 0.79689742E+03</rscale>
<asrwt>0</asrwt>
<pdfrwt beam="1">  1        2 0.37813773E+00 0.87670132E+03</pdfrwt>
<pdfrwt beam="2">  1       -2 0.99362138E-01 0.87670132E+03</pdfrwt>
<totfact> 0.31691304E+00</totfact>
</mgrwt>
</event>
<event>
 4    2  0.9070994E-007  0.7313865E+03  0.7818608E-02  0.9885787E-01
         -2   -1    0    0    0  501 -0.00000000000E+00  0.00000000000E+00  0.19725611202E+03  0.19725611204E+03  0.25500000000E-02 0.  1.
          2   -1    0    0  501    0  0.00000000000E+00 -0.00000000000E+00 -0.15084629970E+04  0.15084629970E+04  0.25500000000E-02 0. -1.
    8880023    1    1    2    0    0 -0.77222180173E+02  0.30846847489E+03 -0.97035865891E+03  0.12151222977E+04  0.65864270000E+03 0.  0.
    8880022    1    1    2    0    0  0.77222180173E+02 -0.30846847489E+03 -0.34084822609E+03  0.49059681139E+03  0.15294330000E+03 0.  1.
<mgrwt>
<rscale>  0 0.60955059E+03</rscale>
<asrwt>0</asrwt>
<pdfrwt beam="1">  1        2 0.23207122E+00 0.73138654E+03</pdfrwt>
<pdfrwt beam="2">  1       -2 0.30347095E-01 0.73138654E+03</pdfrwt>
<totfact> 0.12831705E+02</totfact>
</mgrwt>
</event>
<event>
 4    2  0.9070994E-007  0.1120134E+04  0.7818608E-02  0.9238964E-01
          2   -1    0    0  501    0  0.00000000000E+00  0.00000000000E+00  0.11678834132E+04  0.11678834132E+04  0.25500000000E-02 0. -1.
         -2   -1    0    0    0  501 -0.00000000000E+00 -0.00000000000E+00 -0.16951895793E+04  0.16951895793E+04  0.25500000000E-02 0.  1.
    8880023    1    1    2    0    0 -0.34342310912E+03 -0.83842119406E+03  0.70678721587E+03  0.13244802397E+04  0.65864270000E+03 0.  0.
    8880022    1    1    2    0    0  0.34342310912E+03  0.83842119406E+03 -0.12340933820E+04  0.15385927528E+04  0.15294330000E+03 0.  0.
<mgrwt>
<rscale>  0 0.10660150E+04</rscale>
<asrwt>0</asrwt>
<pdfrwt beam="1">  1        2 0.17967437E+00 0.11201338E+04</pdfrwt>
<pdfrwt beam="2">  1       -2 0.26079840E+00 0.11201338E+04</pdfrwt>
<totfact> 0.10736761E+00</totfact>
</mgrwt>
</event>
<event>
 4    2  0.9070994E-007  0.6680014E+03  0.7818608E-02  0.1017138E+00
          2   -1    0    0  501    0  0.00000000000E+00  0.00000000000E+00  0.21918543029E+04  0.21918543029E+04  0.25500000000E-02 0. -1.
         -2   -1    0    0    0  501 -0.00000000000E+00 -0.00000000000E+00 -0.26826291479E+03  0.26826291480E+03  0.25500000000E-02 0.  1.
    8880023    1    1    2    0    0  0.17403913099E+02  0.11005813259E+03  0.20986098775E+04  0.22023599417E+04  0.65864270000E+03 0. -1.
    8880022    1    1    2    0    0 -0.17403913099E+02 -0.11005813259E+03 -0.17501848931E+03  0.25775727605E+03  0.15294330000E+03 0.  0.
<mgrwt>
<rscale>  0 0.48733718E+03</rscale>
<asrwt>0</asrwt>
<pdfrwt beam="1">  1        2 0.33720833E+00 0.66800142E+03</pdfrwt>
<pdfrwt beam="2">  1       -2 0.41271220E-01 0.66800142E+03</pdfrwt>
<totfact> 0.30440358E+01</totfact>
</mgrwt>
</event>
<event>
 4    2  0.9070994E-007  0.8531419E+03  0.7818608E-02  0.9605881E-01
          2   -1    0    0  501    0  0.00000000000E+00  0.00000000000E+00  0.14170090661E+04  0.14170090661E+04  0.25500000000E-02 0. -1.
         -2   -1    0    0    0  501 -0.00000000000E+00 -0.00000000000E+00 -0.51107734829E+03  0.51107734830E+03  0.25500000000E-02 0.  1.
    8880023    1    1    2    0    0  0.51478302853E+03  0.17040927732E+03  0.10437538185E+04  0.13480627315E+04  0.65864270000E+03 0.  0.
    8880022    1    1    2    0    0 -0.51478302853E+03 -0.17040927732E+03 -0.13782210068E+03  0.58002368288E+03  0.15294330000E+03 0.  0.
<mgrwt>
<rscale>  0 0.76908153E+03</rscale>
<asrwt>0</asrwt>
<pdfrwt beam="1">  1        2 0.21800139E+00 0.85314190E+03</pdfrwt>
<pdfrwt beam="2">  1       -2 0.78627285E-01 0.85314190E+03</pdfrwt>
<totfact> 0.20555008E+01</totfact>
</mgrwt>
</event>
<event>
 4    2  0.9070994E-007  0.7595458E+03  0.7818608E-02  0.9806285E-01
          2   -1    0    0  501    0  0.00000000000E+00  0.00000000000E+00  0.10304065555E+04  0.10304065555E+04  0.25500000000E-02 0. -1.
         -2   -1    0    0    0  501 -0.00000000000E+00 -0.00000000000E+00 -0.81569768810E+03  0.81569768810E+03  0.25500000000E-02 0.  1.
    8880023    1    1    2    0    0  0.37244307223E+03  0.66224833112E+02  0.81897624704E+03  0.11169744268E+04  0.65864270000E+03 0. -1.
    8880022    1    1    2    0    0 -0.37244307223E+03 -0.66224833112E+02 -0.60426737968E+03  0.72912981679E+03  0.15294330000E+03 0.  0.
<mgrwt>
<rscale>  0 0.65026350E+03</rscale>
<asrwt>0</asrwt>
<pdfrwt beam="1">  1        2 0.15852409E+00 0.75954577E+03</pdfrwt>
<pdfrwt beam="2">  1       -2 0.12549195E+00 0.75954577E+03</pdfrwt>
<totfact> 0.11622968E+01</totfact>
</mgrwt>
</event>
<event>
 4    2  0.9070994E-007  0.6794516E+03  0.7818608E-02  0.1009636E+00
         -2   -1    0    0    0  501 -0.00000000000E+00  0.00000000000E+00  0.47380401315E+03  0.47380401316E+03  0.25500000000E-02 0.  1.
          2   -1    0    0  501    0  0.00000000000E+00 -0.00000000000E+00 -0.43365761150E+03  0.43365761151E+03  0.25500000000E-02 0. -1.
    8880023    1    1    2    0    0 -0.31804412161E+01  0.16683586302E+03  0.13925563011E+02  0.67959432602E+03  0.65864270000E+03 0.  0.
    8880022    1    1    2    0    0  0.31804412161E+01 -0.16683586302E+03  0.26220838639E+02  0.22786729864E+03  0.15294330000E+03 0. -1.
<mgrwt>
<rscale>  0 0.51619737E+03</rscale>
<asrwt>0</asrwt>
<pdfrwt beam="1">  1        2 0.66716556E-01 0.67945164E+03</pdfrwt>
<pdfrwt beam="2">  1       -2 0.72892925E-01 0.67945164E+03</pdfrwt>
<totfact> 0.12510076E+02</totfact>
</mgrwt>
</event>
<event>
 4    2  0.9070994E-007  0.1157618E+04  0.7818608E-02  0.9199464E-01
          2   -1    0    0  501    0  0.00000000000E+00  0.00000000000E+00  0.97414508820E+03  0.97414508821E+03  0.25500000000E-02 0. -1.
         -2   -1    0    0    0  501 -0.00000000000E+00 -0.00000000000E+00 -0.17697491292E+04  0.17697491292E+04  0.25500000000E-02 0.  1.
    8880023    1    1    2    0    0 -0.26818250086E+03 -0.91342630921E+03  0.38466458419E+03  0.12198551245E+04  0.65864270000E+03 0.  0.
    8880022    1    1    2    0    0  0.26818250086E+03  0.91342630921E+03 -0.11802686252E+04  0.15240390929E+04  0.15294330000E+03 0.  0.
<mgrwt>
<rscale>  0 0.11058967E+04</rscale>
<asrwt>0</asrwt>
<pdfrwt beam="1">  1        2 0.14986848E+00 0.11576181E+04</pdfrwt>
<pdfrwt beam="2">  1       -2 0.27226910E+00 0.11576181E+04</pdfrwt>
<totfact> 0.12052176E+00</totfact>
</mgrwt>
</event>
<event>
 4    2  0.9070994E-007  0.1041996E+04  0.7818608E-02  0.9328566E-01
          2   -1    0    0  501    0  0.00000000000E+00  0.00000000000E+00  0.18282336133E+04  0.18282336133E+04  0.25500000000E-02 0. -1.
         -2   -1    0    0    0  501 -0.00000000000E+00 -0.00000000000E+00 -0.12174694193E+04  0.12174694193E+04  0.25500000000E-02 0.  1.
    8880023    1    1    2    0    0  0.76286217086E+03 -0.26454922374E+03  0.15054465240E+04  0.18308807789E+04  0.65864270000E+03 0. -1.
    8880022    1    1    2    0    0 -0.76286217086E+03  0.26454922374E+03 -0.89468232998E+03  0.12148222537E+04  0.15294330000E+03 0.  0.
<mgrwt>
<rscale>  0 0.98195030E+03</rscale>
<asrwt>0</asrwt>
<pdfrwt beam="1">  1        2 0.28126671E+00 0.10419958E+04</pdfrwt>
<pdfrwt beam="2">  1       -2 0.18730299E+00 0.10419958E+04</pdfrwt>
<totfact> 0.13319065E+00</totfact>
</mgrwt>
</event>
<event>
 4    2  0.9070994E-007  0.8177033E+03  0.7818608E-02  0.9673749E-01
         -2   -1    0    0    0  501 -0.00000000000E+00  0.00000000000E+00  0.41484299154E+03  0.41484299155E+03  0.25500000000E-02 0.  1.
          2   -1    0    0  501    0  0.00000000000E+00 -0.00000000000E+00 -0.13241830983E+04  0.13241830983E+04  0.25500000000E-02 0. -1.
    8880023    1    1    2    0    0  0.22617426935E+03  0.42857158715E+03 -0.91985898731E+03  0.12307636525E+04  0.65864270000E+03 0.  0.
    8880022    1    1    2    0    0 -0.22617426935E+03 -0.42857158715E+03  0.10518880528E+02  0.50826243742E+03  0.15294330000E+03 0.  0.
<mgrwt>
<rscale>  0 0.72601491E+03</rscale>
<asrwt>0</asrwt>
<pdfrwt beam="1">  1        2 0.20372047E+00 0.81770325E+03</pdfrwt>
<pdfrwt beam="2">  1       -2 0.63822000E-01 0.81770325E+03</pdfrwt>
<totfact> 0.36818513E+01</totfact>
</mgrwt>
</event>
<event>
 4    2  0.1152962E-006  0.1010034E+04  0.7818608E-02  0.9368547E-01
          2   -1    0    0  501    0  0.00000000000E+00  0.00000000000E+00  0.22913237975E+04  0.22913237976E+04  0.25500000000E-02 0. -1.
         -2   -1    0    0    0  501 -0.00000000000E+00 -0.00000000000E+00 -0.15344152103E+04  0.15344152103E+04  0.25500000000E-02 0.  1.
    8880023    1    1    2    0    0 -0.56634631926E+03  0.51537323352E+03  0.20670053491E+04  0.23005823269E+04  0.65864270000E+03 0. -1.
    8880022    1    1    2    0    0  0.56634631926E+03 -0.51537323352E+03 -0.13100967619E+04  0.15251566810E+04  0.15294330000E+03 0.  0.
<mgrwt>
<rscale>  0 0.94709991E+03</rscale>
<asrwt>0</asrwt>
<pdfrwt beam="1">  1        2 0.35251135E+00 0.10100336E+04</pdfrwt>
<pdfrwt beam="2">  1       -2 0.23606388E+00 0.10100336E+04</pdfrwt>
<totfact> 0.36085027E-01</totfact>
</mgrwt>
</event>
<event>
 4    2  0.9070994E-007  0.7168753E+03  0.7818608E-02  0.9933304E-01
         -2   -1    0    0    0  501 -0.00000000000E+00  0.00000000000E+00  0.41246491559E+03  0.41246491560E+03  0.25500000000E-02 0.  1.
          2   -1    0    0  501    0  0.00000000000E+00 -0.00000000000E+00 -0.10047837585E+04  0.10047837585E+04  0.25500000000E-02 0. -1.
    8880023    1    1    2    0    0  0.52203332766E+02 -0.27816338948E+03  0.29133144311E+02  0.71746707629E+03  0.65864270000E+03 0.  1.
    8880022    1    1    2    0    0 -0.52203332766E+02  0.27816338948E+03 -0.62145198719E+03  0.69978159778E+03  0.15294330000E+03 0.  0.
<mgrwt>
<rscale>  0 0.58674032E+03</rscale>
<asrwt>0</asrwt>
<pdfrwt beam="1">  1        2 0.15458212E+00 0.71687535E+03</pdfrwt>
<pdfrwt beam="2">  1       -2 0.63456141E-01 0.71687535E+03</pdfrwt>
<totfact> 0.58534969E+01</totfact>
</mgrwt>
</event>
<event>
 4    2  0.9070994E-007  0.1211030E+04  0.7818608E-02  0.9146474E-01
          2   -1    0    0  501    0  0.00000000000E+00  0.00000000000E+00  0.23130737910E+04  0.23130737910E+04  0.25500000000E-02 0. -1.
         -2   -1    0    0    0  501 -0.00000000000E+00 -0.00000000000E+00 -0.63309572409E+03  0.63309572410E+03  0.25500000000E-02 0.  1.
    8880023    1    1    2    0    0 -0.97366021674E+03 -0.29115073474E+03  0.14569503048E+04  0.18945441048E+04  0.65864270000E+03 0.  1.
    8880022    1    1    2    0    0  0.97366021674E+03  0.29115073474E+03  0.22302776212E+03  0.10516254103E+04  0.15294330000E+03 0.  0.
<mgrwt>
<rscale>  0 0.11623397E+04</rscale>
<asrwt>0</asrwt>
<pdfrwt beam="1">  1        2 0.35585751E+00 0.12110298E+04</pdfrwt>
<pdfrwt beam="2">  1       -2 0.97399342E-01 0.12110298E+04</pdfrwt>
<totfact> 0.38414448E+00</totfact>
</mgrwt>
</event>
<event>
 4    2  0.9070994E-007  0.1180356E+04  0.7818608E-02  0.9176458E-01
          2   -1    0    0  501    0  0.00000000000E+00  0.00000000000E+00  0.15322590612E+04  0.15322590612E+04  0.25500000000E-02 0. -1.
         -2   -1    0    0    0  501 -0.00000000000E+00 -0.00000000000E+00 -0.94051535111E+03  0.94051535111E+03  0.25500000000E-02 0.  1.
    8880023    1    1    2    0    0  0.57743198899E+03 -0.79120296058E+03 -0.20861458112E+03  0.11986492717E+04  0.65864270000E+03 0.  1.
    8880022    1    1    2    0    0 -0.57743198899E+03  0.79120296058E+03  0.80035829126E+03  0.12741251407E+04  0.15294330000E+03 0.  0.
<mgrwt>
<rscale>  0 0.11299756E+04</rscale>
<asrwt>0</asrwt>
<pdfrwt beam="1">  1        2 0.23573216E+00 0.11803559E+04</pdfrwt>
<pdfrwt beam="2">  1       -2 0.14469467E+00 0.11803559E+04</pdfrwt>
<totfact> 0.39078180E+00</totfact>
</mgrwt>
</event>
<event>
 4    2  0.9070994E-007  0.6680020E+03  0.7818608E-02  0.1017138E+00
         -2   -1    0    0    0  501 -0.00000000000E+00  0.00000000000E+00  0.60476732484E+03  0.60476732484E+03  0.25500000000E-02 0.  1.
          2   -1    0    0  501    0  0.00000000000E+00 -0.00000000000E+00 -0.61700567473E+03  0.61700567474E+03  0.25500000000E-02 0. -1.
    8880023    1    1    2    0    0  0.94501773345E+02 -0.59041615136E+02 -0.40824778778E+03  0.78287480479E+03  0.65864270000E+03 0. -1.
    8880022    1    1    2    0    0 -0.94501773345E+02  0.59041615136E+02  0.39600943788E+03  0.43889819479E+03  0.15294330000E+03 0.  0.
<mgrwt>
<rscale>  0 0.48733889E+03</rscale>
<asrwt>0</asrwt>
<pdfrwt beam="1">  1        2 0.94923950E-01 0.66800202E+03</pdfrwt>
<pdfrwt beam="2">  1       -2 0.93041127E-01 0.66800202E+03</pdfrwt>
<totfact> 0.47788160E+01</totfact>
</mgrwt>
</event>
<event>
 4    2  0.9070994E-007  0.7203632E+03  0.7818608E-02  0.9921359E-01
          2   -1    0    0  501    0  0.00000000000E+00  0.00000000000E+00  0.11556764935E+04  0.11556764935E+04  0.25500000000E-02 0. -1.
         -2   -1    0    0    0  501 -0.00000000000E+00 -0.00000000000E+00 -0.32215378259E+03  0.32215378260E+03  0.25500000000E-02 0.  1.
    8880023    1    1    2    0    0 -0.27026094396E+03 -0.10987258978E+03  0.88854234158E+03  0.11438665407E+04  0.65864270000E+03 0. -1.
    8880022    1    1    2    0    0  0.27026094396E+03  0.10987258978E+03 -0.55019630668E+02  0.33396373544E+03  0.15294330000E+03 0.  0.
<mgrwt>
<rscale>  0 0.59237221E+03</rscale>
<asrwt>0</asrwt>
<pdfrwt beam="1">  1        2 0.17779638E+00 0.72036322E+03</pdfrwt>
<pdfrwt beam="2">  1       -2 0.49562120E-01 0.72036322E+03</pdfrwt>
<totfact> 0.79025816E+01</totfact>
</mgrwt>
</event>
<event>
 4    2  0.9070994E-007  0.6763919E+03  0.7818608E-02  0.1011443E+00
         -2   -1    0    0    0  501 -0.00000000000E+00  0.00000000000E+00  0.10548302260E+03  0.10548302263E+03  0.25500000000E-02 0.  1.
          2   -1    0    0  501    0  0.00000000000E+00 -0.00000000000E+00 -0.22784154471E+04  0.22784154471E+04  0.25500000000E-02 0. -1.
    8880023    1    1    2    0    0 -0.11775721205E+03 -0.99141314854E+02 -0.19841658492E+04  0.20962872143E+04  0.65864270000E+03 0. -1.
    8880022    1    1    2    0    0  0.11775721205E+03  0.99141314854E+02 -0.18876657528E+03  0.28761125545E+03  0.15294330000E+03 0.  1.
<mgrwt>
<rscale>  0 0.50905170E+03</rscale>
<asrwt>0</asrwt>
<pdfrwt beam="1">  1        2 0.35052542E+00 0.67639187E+03</pdfrwt>
<pdfrwt beam="2">  1       -2 0.16228159E-01 0.67639187E+03</pdfrwt>
<totfact> 0.14858267E+02</totfact>
</mgrwt>
</event>
<event>
 4    2  0.9070994E-007  0.7188314E+03  0.7818608E-02  0.9926560E-01
         -2   -1    0    0    0  501 -0.00000000000E+00  0.00000000000E+00  0.40177740732E+03  0.40177740733E+03  0.25500000000E-02 0.  1.
          2   -1    0    0  501    0  0.00000000000E+00 -0.00000000000E+00 -0.93774500146E+03  0.93774500146E+03  0.25500000000E-02 0. -1.
    8880023    1    1    2    0    0 -0.17628332626E+03 -0.22766780958E+03 -0.67407401352E+03  0.98544123346E+03  0.65864270000E+03 0.  0.
    8880022    1    1    2    0    0  0.17628332626E+03  0.22766780958E+03  0.13810641938E+03  0.35408117533E+03  0.15294330000E+03 0.  0.
<mgrwt>
<rscale>  0 0.58991170E+03</rscale>
<asrwt>0</asrwt>
<pdfrwt beam="1">  1        2 0.14426846E+00 0.71883145E+03</pdfrwt>
<pdfrwt beam="2">  1       -2 0.61811909E-01 0.71883145E+03</pdfrwt>
<totfact> 0.68384507E+01</totfact>
</mgrwt>
</event>
<event>
 4    2  0.9070994E-007  0.6723080E+03  0.7818608E-02  0.1014060E+00
          2   -1    0    0  501    0  0.00000000000E+00  0.00000000000E+00  0.14925732217E+04  0.14925732217E+04  0.25500000000E-02 0. -1.
         -2   -1    0    0    0  501 -0.00000000000E+00 -0.00000000000E+00 -0.11989365722E+04  0.11989365722E+04  0.25500000000E-02 0.  1.
    8880023    1    1    2    0    0  0.11102374855E+03 -0.76561086009E+02  0.14071344610E+04  0.15594952614E+04  0.65864270000E+03 0. -1.
    8880022    1    1    2    0    0 -0.11102374855E+03  0.76561086009E+02 -0.11134978115E+04  0.11320145325E+04  0.15294330000E+03 0.  0.
<mgrwt>
<rscale>  0 0.49892603E+03</rscale>
<asrwt>0</asrwt>
<pdfrwt beam="1">  1        2 0.22962665E+00 0.67230802E+03</pdfrwt>
<pdfrwt beam="2">  1       -2 0.18445178E+00 0.67230802E+03</pdfrwt>
<totfact> 0.22627400E+00</totfact>
</mgrwt>
</event>
<event>
 4    2  0.9070994E-007  0.6662121E+03  0.7818608E-02  0.1018537E+00
         -2   -1    0    0    0  501 -0.00000000000E+00  0.00000000000E+00  0.21338258812E+03  0.21338258813E+03  0.25500000000E-02 0.  1.
          2   -1    0    0  501    0  0.00000000000E+00 -0.00000000000E+00 -0.14307245987E+04  0.14307245987E+04  0.25500000000E-02 0. -1.
    8880023    1    1    2    0    0  0.95977656330E+02 -0.28577710759E+02 -0.12864084578E+04  0.14486839968E+04  0.65864270000E+03 0. -1.
    8880022    1    1    2    0    0 -0.95977656330E+02  0.28577710759E+02  0.69066447184E+02  0.19542319005E+03  0.15294330000E+03 0.  0.
<mgrwt>
<rscale>  0 0.48218122E+03</rscale>
<asrwt>0</asrwt>
<pdfrwt beam="1">  1        2 0.22011147E+00 0.66621213E+03</pdfrwt>
<pdfrwt beam="2">  1       -2 0.32828091E-01 0.66621213E+03</pdfrwt>
<totfact> 0.12314836E+02</totfact>
</mgrwt>
</event>
<event>
 4    2  0.9070994E-007  0.1060790E+04  0.7818608E-02  0.9306022E-01
          2   -1    0    0  501    0  0.00000000000E+00  0.00000000000E+00  0.24885925388E+04  0.24885925388E+04  0.25500000000E-02 0. -1.
         -2   -1    0    0    0  501 -0.00000000000E+00 -0.00000000000E+00 -0.48358283575E+03  0.48358283576E+03  0.25500000000E-02 0.  1.
    8880023    1    1    2    0    0  0.83153903279E+03 -0.28038721989E+01  0.18201525739E+04  0.21067108542E+04  0.65864270000E+03 0.  0.
    8880022    1    1    2    0    0 -0.83153903279E+03  0.28038721989E+01  0.18485712913E+03  0.86546452033E+03  0.15294330000E+03 0.  0.
<mgrwt>
<rscale>  0 0.10023039E+04</rscale>
<asrwt>0</asrwt>
<pdfrwt beam="1">  1        2 0.38286038E+00 0.10607899E+04</pdfrwt>
<pdfrwt beam="2">  1       -2 0.74397361E-01 0.10607899E+04</pdfrwt>
<totfact> 0.57618349E+00</totfact>
</mgrwt>
</event>
<event>
 4    2  0.9070994E-007  0.7185584E+03  0.7818608E-02  0.9927494E-01
          2   -1    0    0  501    0  0.00000000000E+00  0.00000000000E+00  0.68247343890E+03  0.68247343891E+03  0.25500000000E-02 0. -1.
         -2   -1    0    0    0  501 -0.00000000000E+00 -0.00000000000E+00 -0.57129249936E+03  0.57129249936E+03  0.25500000000E-02 0.  1.
    8880023    1    1    2    0    0  0.28713011220E+03  0.84986637559E+01  0.39673943488E+03  0.82080954799E+03  0.65864270000E+03 0.  0.
    8880022    1    1    2    0    0 -0.28713011220E+03 -0.84986637559E+01 -0.28555849533E+03  0.43295639028E+03  0.15294330000E+03 0.  0.
<mgrwt>
<rscale>  0 0.58947097E+03</rscale>
<asrwt>0</asrwt>
<pdfrwt beam="1">  1        2 0.10499591E+00 0.71855837E+03</pdfrwt>
<pdfrwt beam="2">  1       -2 0.87891154E-01 0.71855837E+03</pdfrwt>
<totfact> 0.47942340E+01</totfact>
</mgrwt>
</event>
<event>
 4    2  0.9070994E-007  0.7424425E+03  0.7818608E-02  0.9852888E-01
          2   -1    0    0  501    0  0.00000000000E+00  0.00000000000E+00  0.10746501303E+04  0.10746501303E+04  0.25500000000E-02 0. -1.
         -2   -1    0    0    0  501 -0.00000000000E+00 -0.00000000000E+00 -0.80566350100E+03  0.80566350101E+03  0.25500000000E-02 0.  1.
    8880023    1    1    2    0    0  0.30733499025E+03 -0.15151213682E+03  0.88736311047E+03  0.11569936127E+04  0.65864270000E+03 0. -1.
    8880022    1    1    2    0    0 -0.30733499025E+03  0.15151213682E+03 -0.61837648115E+03  0.72332001859E+03  0.15294330000E+03 0.  0.
<mgrwt>
<rscale>  0 0.62599863E+03</rscale>
<asrwt>0</asrwt>
<pdfrwt beam="1">  1        2 0.16533079E+00 0.74244254E+03</pdfrwt>
<pdfrwt beam="2">  1       -2 0.12394823E+00 0.74244254E+03</pdfrwt>
<totfact> 0.11273913E+01</totfact>
</mgrwt>
</event>
<event>
 4    2  0.9070994E-007  0.6918692E+03  0.7818608E-02  0.1003277E+00
         -2   -1    0    0    0  501 -0.00000000000E+00  0.00000000000E+00  0.25814321607E+03  0.25814321608E+03  0.25500000000E-02 0.  1.
          2   -1    0    0  501    0  0.00000000000E+00 -0.00000000000E+00 -0.92137237247E+03  0.92137237247E+03  0.25500000000E-02 0. -1.
    8880023    1    1    2    0    0  0.16885138545E+03 -0.12791417784E+03 -0.58704174549E+03  0.90735938000E+03  0.65864270000E+03 0. -1.
    8880022    1    1    2    0    0 -0.16885138545E+03  0.12791417784E+03 -0.76187410906E+02  0.27215620855E+03  0.15294330000E+03 0.  1.
<mgrwt>
<rscale>  0 0.54236588E+03</rscale>
<asrwt>0</asrwt>
<pdfrwt beam="1">  1        2 0.14174959E+00 0.69186923E+03</pdfrwt>
<pdfrwt beam="2">  1       -2 0.39714341E-01 0.69186923E+03</pdfrwt>
<totfact> 0.17255589E+02</totfact>
</mgrwt>
</event>
<event>
 4    2  0.9070994E-007  0.8930363E+03  0.7818608E-02  0.9537304E-01
          2   -1    0    0  501    0  0.00000000000E+00  0.00000000000E+00  0.20958343708E+04  0.20958343708E+04  0.25500000000E-02 0. -1.
         -2   -1    0    0    0  501 -0.00000000000E+00 -0.00000000000E+00 -0.40286281738E+03  0.40286281739E+03  0.25500000000E-02 0.  1.
    8880023    1    1    2    0    0 -0.50674572769E+03  0.32697450625E+03  0.16486103203E+04  0.18749479339E+04  0.65864270000E+03 0.  0.
    8880022    1    1    2    0    0  0.50674572769E+03 -0.32697450625E+03  0.44361233148E+02  0.62374925434E+03  0.15294330000E+03 0.  0.
<mgrwt>
<rscale>  0 0.81588518E+03</rscale>
<asrwt>0</asrwt>
<pdfrwt beam="1">  1        2 0.32243606E+00 0.89303626E+03</pdfrwt>
<pdfrwt beam="2">  1       -2 0.61978895E-01 0.89303626E+03</pdfrwt>
<totfact> 0.14528121E+01</totfact>
</mgrwt>
</event>
<event>
 4    2  0.9070994E-007  0.7267197E+03  0.7818608E-02  0.9900472E-01
          2   -1    0    0  501    0  0.00000000000E+00  0.00000000000E+00  0.20508061644E+04  0.20508061644E+04  0.25500000000E-02 0. -1.
         -2   -1    0    0    0  501 -0.00000000000E+00 -0.00000000000E+00 -0.58668044078E+03  0.58668044078E+03  0.25500000000E-02 0.  1.
    8880023    1    1    2    0    0 -0.29014298253E+02 -0.30572781829E+03  0.19280650259E+04  0.20604747703E+04  0.65864270000E+03 0. -1.
    8880022    1    1    2    0    0  0.29014298253E+02  0.30572781829E+03 -0.46393930232E+03  0.57701183492E+03  0.15294330000E+03 0.  0.
<mgrwt>
<rscale>  0 0.60238429E+03</rscale>
<asrwt>0</asrwt>
<pdfrwt beam="1">  1        2 0.31550864E+00 0.72671971E+03</pdfrwt>
<pdfrwt beam="2">  1       -2 0.90258530E-01 0.72671971E+03</pdfrwt>
<totfact> 0.68407993E+00</totfact>
</mgrwt>
</event>
<event>
 4    2  0.9070994E-007  0.6743729E+03  0.7818608E-02  0.1012704E+00
         -2   -1    0    0    0  501 -0.00000000000E+00  0.00000000000E+00  0.13726537379E+03  0.13726537381E+03  0.25500000000E-02 0.  1.
          2   -1    0    0  501    0  0.00000000000E+00 -0.00000000000E+00 -0.30289159276E+04  0.30289159276E+04  0.25500000000E-02 0. -1.
    8880023    1    1    2    0    0 -0.10571793268E+03  0.98956137604E+02 -0.28770812332E+04  0.29550592595E+04  0.65864270000E+03 0. -1.
    8880022    1    1    2    0    0  0.10571793268E+03 -0.98956137604E+02 -0.14569320596E+02  0.21112204190E+03  0.15294330000E+03 0.  0.
<mgrwt>
<rscale>  0 0.50413788E+03</rscale>
<asrwt>0</asrwt>
<pdfrwt beam="1">  1        2 0.46598702E+00 0.67437290E+03</pdfrwt>
<pdfrwt beam="2">  1       -2 0.21117752E-01 0.67437290E+03</pdfrwt>
<totfact> 0.34668562E+01</totfact>
</mgrwt>
</event>
<event>
 4    2  0.9070994E-007  0.9993156E+03  0.7818608E-02  0.9382454E-01
         -2   -1    0    0    0  501 -0.00000000000E+00  0.00000000000E+00  0.32454558894E+03  0.32454558895E+03  0.25500000000E-02 0.  1.
          2   -1    0    0  501    0  0.00000000000E+00 -0.00000000000E+00 -0.24083123631E+04  0.24083123631E+04  0.25500000000E-02 0. -1.
    8880023    1    1    2    0    0 -0.74691833562E+03 -0.83272841760E+02 -0.12415167722E+04  0.15937363233E+04  0.65864270000E+03 0. -1.
    8880022    1    1    2    0    0  0.74691833562E+03  0.83272841760E+02 -0.84225000190E+03  0.11391216287E+04  0.15294330000E+03 0.  1.
<mgrwt>
<rscale>  0 0.93533851E+03</rscale>
<asrwt>0</asrwt>
<pdfrwt beam="1">  1        2 0.37050958E+00 0.99931555E+03</pdfrwt>
<pdfrwt beam="2">  1       -2 0.49930092E-01 0.99931555E+03</pdfrwt>
<totfact> 0.15079710E+01</totfact>
</mgrwt>
</event>
<event>
 4    2  0.9070994E-007  0.6872755E+03  0.7818608E-02  0.1005475E+00
          2   -1    0    0  501    0  0.00000000000E+00  0.00000000000E+00  0.71084384316E+03  0.71084384317E+03  0.25500000000E-02 0. -1.
         -2   -1    0    0    0  501 -0.00000000000E+00 -0.00000000000E+00 -0.13629009569E+04  0.13629009569E+04  0.25500000000E-02 0.  1.
    8880023    1    1    2    0    0 -0.19428108227E+03 -0.28147456952E+02  0.52866421759E+03  0.86708331750E+03  0.65864270000E+03 0. -1.
    8880022    1    1    2    0    0  0.19428108227E+03  0.28147456952E+02 -0.11807213313E+04  0.12066614826E+04  0.15294330000E+03 0.  0.
<mgrwt>
<rscale>  0 0.53313227E+03</rscale>
<asrwt>0</asrwt>
<pdfrwt beam="1">  1        2 0.10936059E+00 0.68727551E+03</pdfrwt>
<pdfrwt beam="2">  1       -2 0.20967707E+00 0.68727551E+03</pdfrwt>
<totfact> 0.47690086E+00</totfact>
</mgrwt>
</event>
<event>
 4    2  0.9070994E-007  0.1208238E+04  0.7818608E-02  0.9149156E-01
          2   -1    0    0  501    0  0.00000000000E+00  0.00000000000E+00  0.17818661301E+04  0.17818661301E+04  0.25500000000E-02 0. -1.
         -2   -1    0    0    0  501 -0.00000000000E+00 -0.00000000000E+00 -0.85058987227E+03  0.85058987227E+03  0.25500000000E-02 0.  1.
    8880023    1    1    2    0    0 -0.33011214858E+03 -0.95762930352E+03 -0.56271080666E+02  0.12095472518E+04  0.65864270000E+03 0.  0.
    8880022    1    1    2    0    0  0.33011214858E+03  0.95762930352E+03  0.98754733850E+03  0.14229087506E+04  0.15294330000E+03 0.  0.
<mgrwt>
<rscale>  0 0.11593990E+04</rscale>
<asrwt>0</asrwt>
<pdfrwt beam="1">  1        2 0.27413325E+00 0.12082376E+04</pdfrwt>
<pdfrwt beam="2">  1       -2 0.13085998E+00 0.12082376E+04</pdfrwt>
<totfact> 0.36711314E+00</totfact>
</mgrwt>
</event>
<event>
 4    2  0.9070994E-007  0.1001903E+04  0.7818608E-02  0.9379072E-01
         -2   -1    0    0    0  501 -0.00000000000E+00  0.00000000000E+00  0.14968427035E+04  0.14968427035E+04  0.25500000000E-02 0.  1.
          2   -1    0    0  501    0  0.00000000000E+00 -0.00000000000E+00 -0.11431879712E+04  0.11431879712E+04  0.25500000000E-02 0. -1.
    8880023    1    1    2    0    0 -0.47771444456E+03  0.58462669097E+03 -0.77978857628E+03  0.12695983177E+04  0.65864270000E+03 0. -1.
    8880022    1    1    2    0    0  0.47771444456E+03 -0.58462669097E+03  0.11334433086E+04  0.13704323570E+04  0.15294330000E+03 0.  0.
<mgrwt>
<rscale>  0 0.93818156E+03</rscale>
<asrwt>0</asrwt>
<pdfrwt beam="1">  1        2 0.17587507E+00 0.10019030E+04</pdfrwt>
<pdfrwt beam="2">  1       -2 0.23028349E+00 0.10019030E+04</pdfrwt>
<totfact> 0.17354949E+00</totfact>
</mgrwt>
</event>
<event>
 4    2  0.9070994E-007  0.6768716E+03  0.7818608E-02  0.1011152E+00
          2   -1    0    0  501    0  0.00000000000E+00  0.00000000000E+00  0.12528472385E+04  0.12528472385E+04  0.25500000000E-02 0. -1.
         -2   -1    0    0    0  501 -0.00000000000E+00 -0.00000000000E+00 -0.23003197892E+03  0.23003197894E+03  0.25500000000E-02 0.  1.
    8880023    1    1    2    0    0  0.73463572820E+01 -0.15585584369E+03  0.10635063405E+04  0.12606351398E+04  0.65864270000E+03 0.  0.
    8880022    1    1    2    0    0 -0.73463572820E+01  0.15585584369E+03 -0.40691080962E+02  0.22224407767E+03  0.15294330000E+03 0.  0.
<mgrwt>
<rscale>  0 0.51019506E+03</rscale>
<asrwt>0</asrwt>
<pdfrwt beam="1">  1        2 0.19274573E+00 0.67687164E+03</pdfrwt>
<pdfrwt beam="2">  1       -2 0.35389535E-01 0.67687164E+03</pdfrwt>
<totfact> 0.13477810E+02</totfact>
</mgrwt>
</event>
<event>
 4    2  0.9070994E-007  0.6999851E+03  0.7818608E-02  0.9997263E-01
          2   -1    0    0  501    0  0.00000000000E+00  0.00000000000E+00  0.71409002689E+03  0.71409002690E+03  0.25500000000E-02 0. -1.
         -2   -1    0    0    0  501 -0.00000000000E+00 -0.00000000000E+00 -0.55682283651E+03  0.55682283651E+03  0.25500000000E-02 0.  1.
    8880023    1    1    2    0    0  0.91292041313E+02  0.21871158167E+03  0.47508295864E+03  0.84598050605E+03  0.65864270000E+03 0. -1.
    8880022    1    1    2    0    0 -0.91292041313E+02 -0.21871158167E+03 -0.31781576826E+03  0.42493235736E+03  0.15294330000E+03 0.  0.
<mgrwt>
<rscale>  0 0.55770419E+03</rscale>
<asrwt>0</asrwt>
<pdfrwt beam="1">  1        2 0.10986000E+00 0.69998514E+03</pdfrwt>
<pdfrwt beam="2">  1       -2 0.85665052E-01 0.69998514E+03</pdfrwt>
<totfact> 0.48091437E+01</totfact>
</mgrwt>
</event>
<event>
 4    2  0.9070994E-007  0.8314315E+03  0.7818608E-02  0.9646553E-01
          2   -1    0    0  501    0  0.00000000000E+00  0.00000000000E+00  0.74217817139E+03  0.74217817139E+03  0.25500000000E-02 0. -1.
         -2   -1    0    0    0  501 -0.00000000000E+00 -0.00000000000E+00 -0.86390833788E+03  0.86390833788E+03  0.25500000000E-02 0.  1.
    8880023    1    1    2    0    0  0.41338701989E+03  0.29424370857E+03  0.34474446323E+03  0.90007063025E+03  0.65864270000E+03 0. -1.
    8880022    1    1    2    0    0 -0.41338701989E+03 -0.29424370857E+03 -0.46647462972E+03  0.70601587902E+03  0.15294330000E+03 0.  0.
<mgrwt>
<rscale>  0 0.74290123E+03</rscale>
<asrwt>0</asrwt>
<pdfrwt beam="1">  1        2 0.11418126E+00 0.83143153E+03</pdfrwt>
<pdfrwt beam="2">  1       -2 0.13290897E+00 0.83143153E+03</pdfrwt>
<totfact> 0.15712331E+01</totfact>
</mgrwt>
</event>
<event>
 4    2  0.9070994E-007  0.7743995E+03  0.7818608E-02  0.9769161E-01
          2   -1    0    0  501    0  0.00000000000E+00  0.00000000000E+00  0.19391940072E+04  0.19391940072E+04  0.25500000000E-02 0. -1.
         -2   -1    0    0    0  501 -0.00000000000E+00 -0.00000000000E+00 -0.20960011123E+03  0.20960011124E+03  0.25500000000E-02 0.  1.
    8880023    1    1    2    0    0 -0.39786135295E+03 -0.87124976080E+02  0.75515023360E+03  0.10816406516E+04  0.65864270000E+03 0.  1.
    8880022    1    1    2    0    0  0.39786135295E+03  0.87124976080E+02  0.97444366234E+03  0.10671534668E+04  0.15294330000E+03 0. -1.
<mgrwt>
<rscale>  0 0.67044132E+03</rscale>
<asrwt>0</asrwt>
<pdfrwt beam="1">  1        2 0.29833753E+00 0.77439952E+03</pdfrwt>
<pdfrwt beam="2">  1       -2 0.32246171E-01 0.77439952E+03</pdfrwt>
<totfact> 0.66235143E+01</totfact>
</mgrwt>
</event>
<event>
 4    2  0.9070994E-007  0.8408669E+03  0.7818608E-02  0.9628548E-01
          2   -1    0    0  501    0  0.00000000000E+00  0.00000000000E+00  0.18778495016E+04  0.18778495016E+04  0.25500000000E-02 0. -1.
         -2   -1    0    0    0  501 -0.00000000000E+00 -0.00000000000E+00 -0.86924969002E+03  0.86924969002E+03  0.25500000000E-02 0.  1.
    8880023    1    1    2    0    0  0.11426253430E+03 -0.51008921462E+03  0.16823221834E+04  0.18807618320E+04  0.65864270000E+03 0.  0.
    8880022    1    1    2    0    0 -0.11426253430E+03  0.51008921462E+03 -0.67372237175E+03  0.86633735971E+03  0.15294330000E+03 0.  0.
<mgrwt>
<rscale>  0 0.75435174E+03</rscale>
<asrwt>0</asrwt>
<pdfrwt beam="1">  1        2 0.28889992E+00 0.84086690E+03</pdfrwt>
<pdfrwt beam="2">  1       -2 0.13373072E+00 0.84086690E+03</pdfrwt>
<totfact> 0.32167607E+00</totfact>
</mgrwt>
</event>
<event>
 4    2  0.9070994E-007  0.6938672E+03  0.7818608E-02  0.1002366E+00
          2   -1    0    0  501    0  0.00000000000E+00  0.00000000000E+00  0.21015034422E+04  0.21015034422E+04  0.25500000000E-02 0. -1.
         -2   -1    0    0    0  501 -0.00000000000E+00 -0.00000000000E+00 -0.43521005357E+03  0.43521005358E+03  0.25500000000E-02 0.  1.
    8880023    1    1    2    0    0 -0.17797449322E+03 -0.12635887605E+03  0.19957625673E+04  0.21129410586E+04  0.65864270000E+03 0. -1.
    8880022    1    1    2    0    0  0.17797449322E+03  0.12635887605E+03 -0.32946917868E+03  0.42377243718E+03  0.15294330000E+03 0.  0.
<mgrwt>
<rscale>  0 0.54624804E+03</rscale>
<asrwt>0</asrwt>
<pdfrwt beam="1">  1        2 0.32330822E+00 0.69386720E+03</pdfrwt>
<pdfrwt beam="2">  1       -2 0.66955392E-01 0.69386720E+03</pdfrwt>
<totfact> 0.12570226E+01</totfact>
</mgrwt>
</event>
<event>
 4    2  0.9070994E-007  0.7043292E+03  0.7818608E-02  0.9979695E-01
         -2   -1    0    0    0  501 -0.00000000000E+00  0.00000000000E+00  0.58723414960E+03  0.58723414960E+03  0.25500000000E-02 0.  1.
          2   -1    0    0  501    0  0.00000000000E+00 -0.00000000000E+00 -0.10748169945E+04  0.10748169945E+04  0.25500000000E-02 0. -1.
    8880023    1    1    2    0    0 -0.22915413294E+03  0.98781503926E+02 -0.90839773064E+03  0.11494633728E+04  0.65864270000E+03 0. -1.
    8880022    1    1    2    0    0  0.22915413294E+03 -0.98781503926E+02  0.42081488576E+03  0.51258777127E+03  0.15294330000E+03 0.  0.
<mgrwt>
<rscale>  0 0.56549620E+03</rscale>
<asrwt>0</asrwt>
<pdfrwt beam="1">  1        2 0.16535646E+00 0.70432919E+03</pdfrwt>
<pdfrwt beam="2">  1       -2 0.90343716E-01 0.70432919E+03</pdfrwt>
<totfact> 0.24184481E+01</totfact>
</mgrwt>
</event>
<event>
 4    2  0.9070994E-007  0.6613702E+03  0.7818608E-02  0.1022795E+00
         -2   -1    0    0    0  501 -0.00000000000E+00  0.00000000000E+00  0.11024922473E+04  0.11024922473E+04  0.25500000000E-02 0.  1.
          2   -1    0    0  501    0  0.00000000000E+00 -0.00000000000E+00 -0.85957262516E+03  0.85957262516E+03  0.25500000000E-02 0. -1.
    8880023    1    1    2    0    0 -0.25522030539E+02  0.54304828186E+02 -0.72439529206E+03  0.98089710665E+03  0.65864270000E+03 0. -1.
    8880022    1    1    2    0    0  0.25522030539E+02 -0.54304828186E+02  0.96731491421E+03  0.98116776581E+03  0.15294330000E+03 0.  0.
<mgrwt>
<rscale>  0 0.46691514E+03</rscale>
<asrwt>0</asrwt>
<pdfrwt beam="1">  1        2 0.13224194E+00 0.66137024E+03</pdfrwt>
<pdfrwt beam="2">  1       -2 0.16961419E+00 0.66137024E+03</pdfrwt>
<totfact> 0.69091024E+00</totfact>
</mgrwt>
</event>
<event>
 4    2  0.9070994E-007  0.6961544E+03  0.7818608E-02  0.1001354E+00
         -2   -1    0    0    0  501 -0.00000000000E+00  0.00000000000E+00  0.69974418046E+03  0.69974418047E+03  0.25500000000E-02 0.  1.
          2   -1    0    0  501    0  0.00000000000E+00 -0.00000000000E+00 -0.60054376169E+03  0.60054376169E+03  0.25500000000E-02 0. -1.
    8880023    1    1    2    0    0  0.10395263925E+03  0.20003641373E+03 -0.34673597286E+03  0.77772537516E+03  0.65864270000E+03 0. -1.
    8880022    1    1    2    0    0 -0.10395263925E+03 -0.20003641373E+03  0.44593639164E+03  0.52256256700E+03  0.15294330000E+03 0.  0.
<mgrwt>
<rscale>  0 0.55060317E+03</rscale>
<asrwt>0</asrwt>
<pdfrwt beam="1">  1        2 0.92391348E-01 0.69615438E+03</pdfrwt>
<pdfrwt beam="2">  1       -2 0.10765295E+00 0.69615438E+03</pdfrwt>
<totfact> 0.34879086E+01</totfact>
</mgrwt>
</event>
<event>
 4    2  0.9070994E-007  0.1047448E+04  0.7818608E-02  0.9321956E-01
          2   -1    0    0  501    0  0.00000000000E+00  0.00000000000E+00  0.15637258482E+04  0.15637258482E+04  0.25500000000E-02 0. -1.
         -2   -1    0    0    0  501 -0.00000000000E+00 -0.00000000000E+00 -0.75466327450E+03  0.75466327450E+03  0.25500000000E-02 0.  1.
    8880023    1    1    2    0    0 -0.78628215768E+03 -0.21236056409E+03  0.10213099049E+04  0.14629493391E+04  0.65864270000E+03 0.  0.
    8880022    1    1    2    0    0  0.78628215768E+03  0.21236056409E+03 -0.21224733125E+03  0.85543978356E+03  0.15294330000E+03 0.  0.
<mgrwt>
<rscale>  0 0.98786455E+03</rscale>
<asrwt>0</asrwt>
<pdfrwt beam="1">  1        2 0.24057320E+00 0.10474478E+04</pdfrwt>
<pdfrwt beam="2">  1       -2 0.11610204E+00 0.10474478E+04</pdfrwt>
<totfact> 0.66631100E+00</totfact>
</mgrwt>
</event>
<event>
 4    2  0.9070994E-007  0.6712410E+03  0.7818608E-02  0.1014788E+00
          2   -1    0    0  501    0  0.00000000000E+00  0.00000000000E+00  0.52961495383E+03  0.52961495383E+03  0.25500000000E-02 0. -1.
         -2   -1    0    0    0  501 -0.00000000000E+00 -0.00000000000E+00 -0.76061689456E+03  0.76061689457E+03  0.25500000000E-02 0.  1.
    8880023    1    1    2    0    0  0.55993235340E+02 -0.11670067710E+03  0.29061842174E+03  0.73145304959E+03  0.65864270000E+03 0. -1.
    8880022    1    1    2    0    0 -0.55993235340E+02  0.11670067710E+03 -0.52162036247E+03  0.55877879881E+03  0.15294330000E+03 0.  0.
<mgrwt>
<rscale>  0 0.49615123E+03</rscale>
<asrwt>0</asrwt>
<pdfrwt beam="1">  1        2 0.81479224E-01 0.67124101E+03</pdfrwt>
<pdfrwt beam="2">  1       -2 0.11701798E+00 0.67124101E+03</pdfrwt>
<totfact> 0.33138840E+01</totfact>
</mgrwt>
</event>
<event>
 4    2  0.9070994E-007  0.9391441E+03  0.7818608E-02  0.9465908E-01
         -2   -1    0    0    0  501 -0.00000000000E+00  0.00000000000E+00  0.40761601774E+03  0.40761601774E+03  0.25500000000E-02 0.  1.
          2   -1    0    0  501    0  0.00000000000E+00 -0.00000000000E+00 -0.21828194339E+04  0.21828194339E+04  0.25500000000E-02 0. -1.
    8880023    1    1    2    0    0  0.48734156586E+03  0.45899851828E+03 -0.16409993259E+04  0.18907327773E+04  0.65864270000E+03 0. -1.
    8880022    1    1    2    0    0 -0.48734156586E+03 -0.45899851828E+03 -0.13420409034E+03  0.69970267434E+03  0.15294330000E+03 0.  0.
<mgrwt>
<rscale>  0 0.86844597E+03</rscale>
<asrwt>0</asrwt>
<pdfrwt beam="1">  1        2 0.33581837E+00 0.93914410E+03</pdfrwt>
<pdfrwt beam="2">  1       -2 0.62710158E-01 0.93914410E+03</pdfrwt>
<totfact> 0.12613716E+01</totfact>
</mgrwt>
</event>
<event>
 4    2  0.9070994E-007  0.7013768E+03  0.7818608E-02  0.9991537E-01
          2   -1    0    0  501    0  0.00000000000E+00  0.00000000000E+00  0.19844643202E+04  0.19844643202E+04  0.25500000000E-02 0. -1.
         -2   -1    0    0    0  501 -0.00000000000E+00 -0.00000000000E+00 -0.19575324574E+03  0.19575324575E+03  0.25500000000E-02 0.  1.
    8880023    1    1    2    0    0 -0.18123148217E+03 -0.15897906179E+03  0.17583913645E+04  0.18931110874E+04  0.65864270000E+03 0.  0.
    8880022    1    1    2    0    0  0.18123148217E+03  0.15897906179E+03  0.30319709998E+02  0.28710647859E+03  0.15294330000E+03 0.  0.
<mgrwt>
<rscale>  0 0.56022885E+03</rscale>
<asrwt>0</asrwt>
<pdfrwt beam="1">  1        2 0.30530221E+00 0.70137679E+03</pdfrwt>
<pdfrwt beam="2">  1       -2 0.30115884E-01 0.70137679E+03</pdfrwt>
<totfact> 0.71687227E+01</totfact>
</mgrwt>
</event>
<event>
 4    2  0.9070994E-007  0.9005905E+03  0.7818608E-02  0.9525084E-01
          2   -1    0    0  501    0  0.00000000000E+00  0.00000000000E+00  0.47404300464E+03  0.47404300464E+03  0.25500000000E-02 0. -1.
         -2   -1    0    0    0  501 -0.00000000000E+00 -0.00000000000E+00 -0.17171113746E+04  0.17171113746E+04  0.25500000000E-02 0.  1.
    8880023    1    1    2    0    0  0.85585760400E+02 -0.60821716441E+03 -0.12893522782E+03  0.90977334578E+03  0.65864270000E+03 0. -1.
    8880022    1    1    2    0    0 -0.85585760400E+02  0.60821716441E+03 -0.11141331421E+04  0.12813810334E+04  0.15294330000E+03 0.  0.
<mgrwt>
<rscale>  0 0.82459452E+03</rscale>
<asrwt>0</asrwt>
<pdfrwt beam="1">  1        2 0.72929694E-01 0.90059050E+03</pdfrwt>
<pdfrwt beam="2">  1       -2 0.26417098E+00 0.90059050E+03</pdfrwt>
<totfact> 0.34911376E+00</totfact>
</mgrwt>
</event>
<event>
 4    2  0.9070994E-007  0.6881211E+03  0.7818608E-02  0.1005059E+00
         -2   -1    0    0    0  501 -0.00000000000E+00  0.00000000000E+00  0.50176203193E+03  0.50176203193E+03  0.25500000000E-02 0.  1.
          2   -1    0    0  501    0  0.00000000000E+00 -0.00000000000E+00 -0.51465731116E+03  0.51465731116E+03  0.25500000000E-02 0. -1.
    8880023    1    1    2    0    0  0.35498603105E+02 -0.19606195392E+03 -0.18424344430E+03  0.71235966592E+03  0.65864270000E+03 0.  0.
    8880022    1    1    2    0    0 -0.35498603105E+02  0.19606195392E+03  0.17134816507E+03  0.30405967718E+03  0.15294330000E+03 0.  0.
<mgrwt>
<rscale>  0 0.53486665E+03</rscale>
<asrwt>0</asrwt>
<pdfrwt beam="1">  1        2 0.79178048E-01 0.68812110E+03</pdfrwt>
<pdfrwt beam="2">  1       -2 0.77194158E-01 0.68812110E+03</pdfrwt>
<totfact> 0.90480384E+01</totfact>
</mgrwt>
</event>
<event>
 4    2  0.9070994E-007  0.7150583E+03  0.7818608E-02  0.9939676E-01
         -2   -1    0    0    0  501 -0.00000000000E+00  0.00000000000E+00  0.35240017398E+03  0.35240017398E+03  0.25500000000E-02 0.  1.
          2   -1    0    0  501    0  0.00000000000E+00 -0.00000000000E+00 -0.78956149373E+03  0.78956149374E+03  0.25500000000E-02 0. -1.
    8880023    1    1    2    0    0  0.27130674441E+03  0.62376950415E+02 -0.19105257625E+03  0.74014155853E+03  0.65864270000E+03 0.  0.
    8880022    1    1    2    0    0 -0.27130674441E+03 -0.62376950415E+02 -0.24610874351E+03  0.40182010920E+03  0.15294330000E+03 0.  1.
<mgrwt>
<rscale>  0 0.58376367E+03</rscale>
<asrwt>0</asrwt>
<pdfrwt beam="1">  1        2 0.12147100E+00 0.71505835E+03</pdfrwt>
<pdfrwt beam="2">  1       -2 0.54215412E-01 0.71505835E+03</pdfrwt>
<totfact> 0.11387361E+02</totfact>
</mgrwt>
</event>
<event>
 4    2  0.9070994E-007  0.8191633E+03  0.7818608E-02  0.9670797E-01
         -2   -1    0    0    0  501 -0.00000000000E+00  0.00000000000E+00  0.23049762238E+04  0.23049762239E+04  0.25500000000E-02 0.  1.
          2   -1    0    0  501    0  0.00000000000E+00 -0.00000000000E+00 -0.24955574710E+03  0.24955574711E+03  0.25500000000E-02 0. -1.
    8880023    1    1    2    0    0 -0.29791621174E+03 -0.38531049911E+03  0.60921015646E+03  0.10208650601E+04  0.65864270000E+03 0.  0.
    8880022    1    1    2    0    0  0.29791621174E+03  0.38531049911E+03  0.14462103203E+04  0.15336669109E+04  0.15294330000E+03 0.  0.
<mgrwt>
<rscale>  0 0.72782458E+03</rscale>
<asrwt>0</asrwt>
<pdfrwt beam="1">  1        2 0.38393191E-01 0.81916327E+03</pdfrwt>
<pdfrwt beam="2">  1       -2 0.35461174E+00 0.81916327E+03</pdfrwt>
<totfact> 0.20440285E+00</totfact>
</mgrwt>
</event>
<event>
 4    2  0.9070994E-007  0.6788595E+03  0.7818608E-02  0.1009976E+00
          2   -1    0    0  501    0  0.00000000000E+00  0.00000000000E+00  0.22176816027E+04  0.22176816027E+04  0.25500000000E-02 0. -1.
         -2   -1    0    0    0  501 -0.00000000000E+00 -0.00000000000E+00 -0.13708368988E+03  0.13708368990E+03  0.25500000000E-02 0.  1.
    8880023    1    1    2    0    0 -0.16387749415E+03  0.13571804500E+02  0.20065914104E+04  0.21183152083E+04  0.65864270000E+03 0. -1.
    8880022    1    1    2    0    0  0.16387749415E+03 -0.13571804500E+02  0.74006502392E+02  0.23645008433E+03  0.15294330000E+03 0.  0.
<mgrwt>
<rscale>  0 0.51484068E+03</rscale>
<asrwt>0</asrwt>
<pdfrwt beam="1">  1        2 0.34118176E+00 0.67885951E+03</pdfrwt>
<pdfrwt beam="2">  1       -2 0.21089800E-01 0.67885951E+03</pdfrwt>
<totfact> 0.10195674E+02</totfact>
</mgrwt>
</event>
<event>
 4    2  0.9070994E-007  0.6602572E+03  0.7818608E-02  0.1023894E+00
          2   -1    0    0  501    0  0.00000000000E+00  0.00000000000E+00  0.13668717641E+04  0.13668717641E+04  0.25500000000E-02 0. -1.
         -2   -1    0    0    0  501 -0.00000000000E+00 -0.00000000000E+00 -0.25595787456E+03  0.25595787457E+03  0.25500000000E-02 0.  1.
    8880023    1    1    2    0    0  0.29631082821E+02  0.35374589973E+02  0.12482787488E+04  0.14121400085E+04  0.65864270000E+03 0. -1.
    8880022    1    1    2    0    0 -0.29631082821E+02 -0.35374589973E+02 -0.13736485926E+03  0.21068963016E+03  0.15294330000E+03 0.  0.
<mgrwt>
<rscale>  0 0.46307049E+03</rscale>
<asrwt>0</asrwt>
<pdfrwt beam="1">  1        2 0.21028796E+00 0.66025720E+03</pdfrwt>
<pdfrwt beam="2">  1       -2 0.39378135E-01 0.66025720E+03</pdfrwt>
<totfact> 0.94566183E+01</totfact>
</mgrwt>
</event>
<event>
 4    2  0.9070994E-007  0.6597905E+03  0.7818608E-02  0.1024372E+00
          2   -1    0    0  501    0  0.00000000000E+00  0.00000000000E+00  0.16799949955E+04  0.16799949955E+04  0.25500000000E-02 0. -1.
         -2   -1    0    0    0  501 -0.00000000000E+00 -0.00000000000E+00 -0.14993399242E+03  0.14993399244E+03  0.25500000000E-02 0.  1.
    8880023    1    1    2    0    0  0.38841043676E+02  0.21584767893E+01  0.15363057676E+04  0.16719924950E+04  0.65864270000E+03 0. -1.
    8880022    1    1    2    0    0 -0.38841043676E+02 -0.21584767893E+01 -0.62447644870E+01  0.15793649291E+03  0.15294330000E+03 0.  0.
<mgrwt>
<rscale>  0 0.46141342E+03</rscale>
<asrwt>0</asrwt>
<pdfrwt beam="1">  1        2 0.25846075E+00 0.65979049E+03</pdfrwt>
<pdfrwt beam="2">  1       -2 0.23066770E-01 0.65979049E+03</pdfrwt>
<totfact> 0.17113694E+02</totfact>
</mgrwt>
</event>
<event>
 4    2  0.9070994E-007  0.7114657E+03  0.7818608E-02  0.9952598E-01
          2   -1    0    0  501    0  0.00000000000E+00  0.00000000000E+00  0.32086022675E+04  0.32086022675E+04  0.25500000000E-02 0. -1.
         -2   -1    0    0    0  501 -0.00000000000E+00 -0.00000000000E+00 -0.52220574553E+03  0.52220574554E+03  0.25500000000E-02 0.  1.
    8880023    1    1    2    0    0  0.20336944922E+03  0.17610830843E+03  0.31188872162E+04  0.31990062430E+04  0.65864270000E+03 0. -1.
    8880022    1    1    2    0    0 -0.20336944922E+03 -0.17610830843E+03 -0.43249069414E+03  0.53180177012E+03  0.15294330000E+03 0.  0.
<mgrwt>
<rscale>  0 0.57778504E+03</rscale>
<asrwt>0</asrwt>
<pdfrwt beam="1">  1        2 0.49363112E+00 0.71146572E+03</pdfrwt>
<pdfrwt beam="2">  1       -2 0.80339345E-01 0.71146572E+03</pdfrwt>
<totfact> 0.19013148E+00</totfact>
</mgrwt>
</event>
<event>
 4    2  0.9070994E-007  0.6967465E+03  0.7818608E-02  0.1001098E+00
         -2   -1    0    0    0  501 -0.00000000000E+00  0.00000000000E+00  0.17837041867E+03  0.17837041869E+03  0.25500000000E-02 0.  1.
          2   -1    0    0  501    0  0.00000000000E+00 -0.00000000000E+00 -0.13291253829E+04  0.13291253829E+04  0.25500000000E-02 0. -1.
    8880023    1    1    2    0    0  0.19969666577E+03  0.10847455571E+03 -0.76995847255E+03  0.10384082739E+04  0.65864270000E+03 0. -1.
    8880022    1    1    2    0    0 -0.19969666577E+03 -0.10847455571E+03 -0.38079649167E+03  0.46908752770E+03  0.15294330000E+03 0.  0.
<mgrwt>
<rscale>  0 0.55171607E+03</rscale>
<asrwt>0</asrwt>
<pdfrwt beam="1">  1        2 0.20448082E+00 0.69674651E+03</pdfrwt>
<pdfrwt beam="2">  1       -2 0.27441604E-01 0.69674651E+03</pdfrwt>
<totfact> 0.19545662E+02</totfact>
</mgrwt>
</event>
<event>
 4    2  0.9070994E-007  0.9529035E+03  0.7818608E-02  0.9445949E-01
          2   -1    0    0  501    0  0.00000000000E+00  0.00000000000E+00  0.68605529850E+03  0.68605529850E+03  0.25500000000E-02 0. -1.
         -2   -1    0    0    0  501 -0.00000000000E+00 -0.00000000000E+00 -0.17783669847E+04  0.17783669847E+04  0.25500000000E-02 0.  1.
    8880023    1    1    2    0    0 -0.64331287677E+03  0.24568968787E+03  0.21688742435E+03  0.97727439404E+03  0.65864270000E+03 0.  0.
    8880022    1    1    2    0    0  0.64331287677E+03 -0.24568968787E+03 -0.13091991106E+04  0.14871478892E+04  0.15294330000E+03 0.  0.
<mgrwt>
<rscale>  0 0.88388844E+03</rscale>
<asrwt>0</asrwt>
<pdfrwt beam="1">  1        2 0.10554697E+00 0.95290350E+03</pdfrwt>
<pdfrwt beam="2">  1       -2 0.27359492E+00 0.95290350E+03</pdfrwt>
<totfact> 0.19504629E+00</totfact>
</mgrwt>
</event>
<event>
 4    2  0.9070994E-007  0.6891068E+03  0.7818608E-02  0.1004580E+00
         -2   -1    0    0    0  501 -0.00000000000E+00  0.00000000000E+00  0.11998815468E+03  0.11998815471E+03  0.25500000000E-02 0.  1.
          2   -1    0    0  501    0  0.00000000000E+00 -0.00000000000E+00 -0.18597604560E+04  0.18597604560E+04  0.25500000000E-02 0. -1.
    8880023    1    1    2    0    0  0.37959348704E+02 -0.19904037393E+03 -0.13240298613E+04  0.14926229472E+04  0.65864270000E+03 0.  0.
    8880022    1    1    2    0    0 -0.37959348704E+02  0.19904037393E+03 -0.41574244002E+03  0.48712566352E+03  0.15294330000E+03 0.  1.
<mgrwt>
<rscale>  0 0.53686793E+03</rscale>
<asrwt>0</asrwt>
<pdfrwt beam="1">  1        2 0.28611697E+00 0.68910681E+03</pdfrwt>
<pdfrwt beam="2">  1       -2 0.18459717E-01 0.68910681E+03</pdfrwt>
<totfact> 0.20141952E+02</totfact>
</mgrwt>
</event>
<event>
 4    2  0.9070994E-007  0.7075644E+03  0.7818608E-02  0.9967159E-01
         -2   -1    0    0    0  501 -0.00000000000E+00  0.00000000000E+00  0.79281139262E+03  0.79281139263E+03  0.25500000000E-02 0.  1.
          2   -1    0    0  501    0  0.00000000000E+00 -0.00000000000E+00 -0.16413473297E+04  0.16413473297E+04  0.25500000000E-02 0. -1.
    8880023    1    1    2    0    0 -0.18935152078E+03 -0.17602025037E+03 -0.15320516663E+04  0.16875513744E+04  0.65864270000E+03 0. -1.
    8880022    1    1    2    0    0  0.18935152078E+03  0.17602025037E+03  0.68351572916E+03  0.74660734793E+03  0.15294330000E+03 0.  0.
<mgrwt>
<rscale>  0 0.57114003E+03</rscale>
<asrwt>0</asrwt>
<pdfrwt beam="1">  1        2 0.25251497E+00 0.70756437E+03</pdfrwt>
<pdfrwt beam="2">  1       -2 0.12197098E+00 0.70756437E+03</pdfrwt>
<totfact> 0.55794606E+00</totfact>
</mgrwt>
</event>
<event>
 4    2  0.9070994E-007  0.8246868E+03  0.7818608E-02  0.9659760E-01
         -2   -1    0    0    0  501 -0.00000000000E+00  0.00000000000E+00  0.34757540003E+03  0.34757540004E+03  0.25500000000E-02 0.  1.
          2   -1    0    0  501    0  0.00000000000E+00 -0.00000000000E+00 -0.16561916257E+04  0.16561916257E+04  0.25500000000E-02 0. -1.
    8880023    1    1    2    0    0  0.30649293941E+03 -0.39033339182E+03 -0.12265342916E+04  0.14780036040E+04  0.65864270000E+03 0. -1.
    8880022    1    1    2    0    0 -0.30649293941E+03  0.39033339182E+03 -0.82081934009E+02  0.52576342169E+03  0.15294330000E+03 0.  0.
<mgrwt>
<rscale>  0 0.73464043E+03</rscale>
<asrwt>0</asrwt>
<pdfrwt beam="1">  1        2 0.25479871E+00 0.82468678E+03</pdfrwt>
<pdfrwt beam="2">  1       -2 0.53473140E-01 0.82468678E+03</pdfrwt>
<totfact> 0.34775692E+01</totfact>
</mgrwt>
</event>
<event>
 4    2  0.9070994E-007  0.9593613E+03  0.7818608E-02  0.9436771E-01
         -2   -1    0    0    0  501 -0.00000000000E+00  0.00000000000E+00  0.58872291468E+03  0.58872291468E+03  0.25500000000E-02 0.  1.
          2   -1    0    0  501    0  0.00000000000E+00 -0.00000000000E+00 -0.24468169742E+04  0.24468169742E+04  0.25500000000E-02 0. -1.
    8880023    1    1    2    0    0  0.27805843503E+03 -0.63972451355E+03 -0.20776404227E+04  0.22884413645E+04  0.65864270000E+03 0. -1.
    8880022    1    1    2    0    0 -0.27805843503E+03  0.63972451355E+03  0.21954636317E+03  0.74709852438E+03  0.15294330000E+03 0.  0.
<mgrwt>
<rscale>  0 0.89110361E+03</rscale>
<asrwt>0</asrwt>
<pdfrwt beam="1">  1        2 0.37643338E+00 0.95936133E+03</pdfrwt>
<pdfrwt beam="2">  1       -2 0.90572757E-01 0.95936133E+03</pdfrwt>
<totfact> 0.39460343E+00</totfact>
</mgrwt>
</event>
<event>
 4    2  0.9070994E-007  0.7757528E+03  0.7818608E-02  0.9765910E-01
         -2   -1    0    0    0  501 -0.00000000000E+00  0.00000000000E+00  0.30616566444E+03  0.30616566445E+03  0.25500000000E-02 0.  1.
          2   -1    0    0  501    0  0.00000000000E+00 -0.00000000000E+00 -0.20717724186E+04  0.20717724186E+04  0.25500000000E-02 0. -1.
    8880023    1    1    2    0    0 -0.35167023624E+03 -0.21049994081E+03 -0.27274987987E+03  0.82230461714E+03  0.65864270000E+03 0.  0.
    8880022    1    1    2    0    0  0.35167023624E+03  0.21049994081E+03 -0.14928568742E+04  0.15556334659E+04  0.15294330000E+03 0.  0.
<mgrwt>
<rscale>  0 0.67224538E+03</rscale>
<asrwt>0</asrwt>
<pdfrwt beam="1">  1        2 0.31873421E+00 0.77575279E+03</pdfrwt>
<pdfrwt beam="2">  1       -2 0.47102411E-01 0.77575279E+03</pdfrwt>
<totfact> 0.26837952E+01</totfact>
</mgrwt>
</event>
<event>
 4    2  0.9070994E-007  0.6657219E+03  0.7818608E-02  0.1018935E+00
         -2   -1    0    0    0  501 -0.00000000000E+00  0.00000000000E+00  0.14742549527E+04  0.14742549527E+04  0.25500000000E-02 0.  1.
          2   -1    0    0  501    0  0.00000000000E+00 -0.00000000000E+00 -0.20919277003E+03  0.20919277004E+03  0.25500000000E-02 0. -1.
    8880023    1    1    2    0    0 -0.31872031733E+02 -0.91431253193E+02  0.35285507006E+03  0.75345365298E+03  0.65864270000E+03 0. -1.
    8880022    1    1    2    0    0  0.31872031733E+02  0.91431253193E+02  0.91220711264E+03  0.92999406979E+03  0.15294330000E+03 0.  0.
<mgrwt>
<rscale>  0 0.48072808E+03</rscale>
<asrwt>0</asrwt>
<pdfrwt beam="1">  1        2 0.32183503E-01 0.66572194E+03</pdfrwt>
<pdfrwt beam="2">  1       -2 0.22680846E+00 0.66572194E+03</pdfrwt>
<totfact> 0.15152778E+01</totfact>
</mgrwt>
</event>
<event>
 4    2  0.9070994E-007  0.7427473E+03  0.7818608E-02  0.9852015E-01
          2   -1    0    0  501    0  0.00000000000E+00  0.00000000000E+00  0.14566056262E+04  0.14566056262E+04  0.25500000000E-02 0. -1.
         -2   -1    0    0    0  501 -0.00000000000E+00 -0.00000000000E+00 -0.39790960067E+03  0.39790960068E+03  0.25500000000E-02 0.  1.
    8880023    1    1    2    0    0  0.33996295653E+03  0.47838574758E+02  0.12336205806E+04  0.14399629454E+04  0.65864270000E+03 0. -1.
    8880022    1    1    2    0    0 -0.33996295653E+03 -0.47838574758E+02 -0.17492455510E+03  0.41455228143E+03  0.15294330000E+03 0.  0.
<mgrwt>
<rscale>  0 0.62644260E+03</rscale>
<asrwt>0</asrwt>
<pdfrwt beam="1">  1        2 0.22409318E+00 0.74274730E+03</pdfrwt>
<pdfrwt beam="2">  1       -2 0.61216861E-01 0.74274730E+03</pdfrwt>
<totfact> 0.34110525E+01</totfact>
</mgrwt>
</event>
<event>
 4    2  0.9070994E-007  0.8244669E+03  0.7818608E-02  0.9660195E-01
          2   -1    0    0  501    0  0.00000000000E+00  0.00000000000E+00  0.23085256082E+04  0.23085256082E+04  0.25500000000E-02 0. -1.
         -2   -1    0    0    0  501 -0.00000000000E+00 -0.00000000000E+00 -0.24300892129E+03  0.24300892131E+03  0.25500000000E-02 0.  1.
    8880023    1    1    2    0    0  0.16156864468E+03 -0.46886147444E+03  0.17741663576E+04  0.19563772591E+04  0.65864270000E+03 0. -1.
    8880022    1    1    2    0    0 -0.16156864468E+03  0.46886147444E+03  0.29135032933E+03  0.59515727045E+03  0.15294330000E+03 0.  0.
<mgrwt>
<rscale>  0 0.73437004E+03</rscale>
<asrwt>0</asrwt>
<pdfrwt beam="1">  1        2 0.35515779E+00 0.82446693E+03</pdfrwt>
<pdfrwt beam="2">  1       -2 0.37385987E-01 0.82446693E+03</pdfrwt>
<totfact> 0.31115407E+01</totfact>
</mgrwt>
</event>
<event>
 4    2  0.9070994E-007  0.1599635E+04  0.7818608E-02  0.8842307E-01
         -2   -1    0    0    0  501 -0.00000000000E+00  0.00000000000E+00  0.39029988463E+04  0.39029988463E+04  0.25500000000E-02 0.  1.
          2   -1    0    0  501    0  0.00000000000E+00 -0.00000000000E+00 -0.97285462874E+03  0.97285462875E+03  0.25500000000E-02 0. -1.
    8880023    1    1    2    0    0  0.45172115005E+03  0.13859904653E+04  0.93877560782E-01  0.15996348903E+04  0.65864270000E+03 0.  0.
    8880022    1    1    2    0    0 -0.45172115005E+03 -0.13859904653E+04  0.29300503400E+04  0.32762185848E+04  0.15294330000E+03 0.  0.
<mgrwt>
<rscale>  0 0.15650578E+04</rscale>
<asrwt>0</asrwt>
<pdfrwt beam="1">  1        2 0.14966994E+00 0.15996349E+04</pdfrwt>
<pdfrwt beam="2">  1       -2 0.60046137E+00 0.15996349E+04</pdfrwt>
<totfact> 0.12048183E-02</totfact>
</mgrwt>
</event>
<event>
 4    2  0.9070994E-007  0.8308153E+03  0.7818608E-02  0.9647748E-01
         -2   -1    0    0    0  501 -0.00000000000E+00  0.00000000000E+00  0.48410419333E+03  0.48410419334E+03  0.25500000000E-02 0.  1.
          2   -1    0    0  501    0  0.00000000000E+00 -0.00000000000E+00 -0.17023398704E+04  0.17023398704E+04  0.25500000000E-02 0. -1.
    8880023    1    1    2    0    0 -0.43923437790E+03 -0.25202593916E+03 -0.13992676511E+04  0.16273303532E+04  0.65864270000E+03 0. -1.
    8880022    1    1    2    0    0  0.43923437790E+03  0.25202593916E+03  0.18103197399E+03  0.55911371058E+03  0.15294330000E+03 0.  0.
<mgrwt>
<rscale>  0 0.74214923E+03</rscale>
<asrwt>0</asrwt>
<pdfrwt beam="1">  1        2 0.26189844E+00 0.83081533E+03</pdfrwt>
<pdfrwt beam="2">  1       -2 0.74477569E-01 0.83081533E+03</pdfrwt>
<totfact> 0.16137566E+01</totfact>
</mgrwt>
</event>
<event>
 4    2  0.9070994E-007  0.6723986E+03  0.7818608E-02  0.1013999E+00
         -2   -1    0    0    0  501 -0.00000000000E+00  0.00000000000E+00  0.63199775144E+03  0.63199775145E+03  0.25500000000E-02 0.  1.
          2   -1    0    0  501    0  0.00000000000E+00 -0.00000000000E+00 -0.45698966207E+03  0.45698966208E+03  0.25500000000E-02 0. -1.
    8880023    1    1    2    0    0 -0.58172222997E+02  0.12217052722E+03 -0.16501903325E+03  0.69235188513E+03  0.65864270000E+03 0. -1.
    8880022    1    1    2    0    0  0.58172222997E+02 -0.12217052722E+03  0.34002712262E+03  0.39663552839E+03  0.15294330000E+03 0.  0.
<mgrwt>
<rscale>  0 0.49915886E+03</rscale>
<asrwt>0</asrwt>
<pdfrwt beam="1">  1        2 0.70306102E-01 0.67239858E+03</pdfrwt>
<pdfrwt beam="2">  1       -2 0.97230423E-01 0.67239858E+03</pdfrwt>
<totfact> 0.61296059E+01</totfact>
</mgrwt>
</event>
<event>
 4    2  0.9070994E-007  0.9391668E+03  0.7818608E-02  0.9465875E-01
          2   -1    0    0  501    0  0.00000000000E+00  0.00000000000E+00  0.14700802766E+04  0.14700802766E+04  0.25500000000E-02 0. -1.
         -2   -1    0    0    0  501 -0.00000000000E+00 -0.00000000000E+00 -0.77222435435E+03  0.77222435435E+03  0.25500000000E-02 0.  1.
    8880023    1    1    2    0    0  0.66015454639E+02  0.66623268832E+03  0.11000744135E+04  0.14464432089E+04  0.65864270000E+03 0.  0.
    8880022    1    1    2    0    0 -0.66015454639E+02 -0.66623268832E+03 -0.40221849127E+03  0.79586142197E+03  0.15294330000E+03 0.  0.
<mgrwt>
<rscale>  0 0.86847150E+03</rscale>
<asrwt>0</asrwt>
<pdfrwt beam="1">  1        2 0.22616619E+00 0.93916678E+03</pdfrwt>
<pdfrwt beam="2">  1       -2 0.11880375E+00 0.93916678E+03</pdfrwt>
<totfact> 0.71886162E+00</totfact>
</mgrwt>
</event>
<event>
 4    2  0.9070994E-007  0.6810624E+03  0.7818608E-02  0.1008729E+00
         -2   -1    0    0    0  501 -0.00000000000E+00  0.00000000000E+00  0.10439811659E+04  0.10439811659E+04  0.25500000000E-02 0.  1.
          2   -1    0    0  501    0  0.00000000000E+00 -0.00000000000E+00 -0.24563079293E+03  0.24563079294E+03  0.25500000000E-02 0. -1.
    8880023    1    1    2    0    0 -0.16910421748E+03 -0.37941896357E+02  0.30791024554E+03  0.74743210357E+03  0.65864270000E+03 0. -1.
    8880022    1    1    2    0    0  0.16910421748E+03  0.37941896357E+02  0.49044012748E+03  0.54217985533E+03  0.15294330000E+03 0.  0.
<mgrwt>
<rscale>  0 0.51982932E+03</rscale>
<asrwt>0</asrwt>
<pdfrwt beam="1">  1        2 0.37789354E-01 0.68106243E+03</pdfrwt>
<pdfrwt beam="2">  1       -2 0.16061248E+00 0.68106243E+03</pdfrwt>
<totfact> 0.34789185E+01</totfact>
</mgrwt>
</event>
<event>
 4    2  0.9070994E-007  0.6593316E+03  0.7818608E-02  0.1024852E+00
         -2   -1    0    0    0  501 -0.00000000000E+00  0.00000000000E+00  0.95661222112E+02  0.95661222146E+02  0.25500000000E-02 0.  1.
          2   -1    0    0  501    0  0.00000000000E+00 -0.00000000000E+00 -0.17479607259E+04  0.17479607259E+04  0.25500000000E-02 0. -1.
    8880023    1    1    2    0    0 -0.19918342994E+02  0.22609477172E+02 -0.13911560423E+04  0.15394912371E+04  0.65864270000E+03 0. -1.
    8880022    1    1    2    0    0  0.19918342994E+02 -0.22609477172E+02 -0.26114346153E+03  0.30413071098E+03  0.15294330000E+03 0. -1.
<mgrwt>
<rscale>  0 0.45975637E+03</rscale>
<asrwt>0</asrwt>
<pdfrwt beam="1">  1        2 0.26891701E+00 0.65933158E+03</pdfrwt>
<pdfrwt beam="2">  1       -2 0.14717112E-01 0.65933158E+03</pdfrwt>
<totfact> 0.34188792E+02</totfact>
</mgrwt>
</event>
<event>
 4    2  0.9070994E-007  0.7364580E+03  0.7818608E-02  0.9870387E-01
          2   -1    0    0  501    0  0.00000000000E+00  0.00000000000E+00  0.47959420778E+03  0.47959420778E+03  0.25500000000E-02 0. -1.
         -2   -1    0    0    0  501 -0.00000000000E+00 -0.00000000000E+00 -0.63401808764E+03  0.63401808764E+03  0.25500000000E-02 0.  1.
    8880023    1    1    2    0    0 -0.22329868263E+03  0.24227654822E+03 -0.63733819222E+02  0.73921068273E+03  0.65864270000E+03 0.  0.
    8880022    1    1    2    0    0  0.22329868263E+03 -0.24227654822E+03 -0.90690060639E+02  0.37440161270E+03  0.15294330000E+03 0.  0.
<mgrwt>
<rscale>  0 0.61718157E+03</rscale>
<asrwt>0</asrwt>
<pdfrwt beam="1">  1        2 0.73783724E-01 0.73645803E+03</pdfrwt>
<pdfrwt beam="2">  1       -2 0.97541244E-01 0.73645803E+03</pdfrwt>
<totfact> 0.57318789E+01</totfact>
</mgrwt>
</event>
<event>
 4    2  0.9070994E-007  0.7552024E+03  0.7818608E-02  0.9817690E-01
         -2   -1    0    0    0  501 -0.00000000000E+00  0.00000000000E+00  0.71135176676E+03  0.71135176677E+03  0.25500000000E-02 0.  1.
          2   -1    0    0  501    0  0.00000000000E+00 -0.00000000000E+00 -0.11237750822E+04  0.11237750822E+04  0.25500000000E-02 0. -1.
    8880023    1    1    2    0    0 -0.35215348210E+03 -0.11184108267E+03 -0.91915515504E+03  0.11896120830E+04  0.65864270000E+03 0.  0.
    8880022    1    1    2    0    0  0.35215348210E+03  0.11184108267E+03  0.50673183963E+03  0.64551476593E+03  0.15294330000E+03 0.  1.
<mgrwt>
<rscale>  0 0.64421780E+03</rscale>
<asrwt>0</asrwt>
<pdfrwt beam="1">  1        2 0.17288847E+00 0.75520243E+03</pdfrwt>
<pdfrwt beam="2">  1       -2 0.10943873E+00 0.75520243E+03</pdfrwt>
<totfact> 0.14261476E+01</totfact>
</mgrwt>
</event>
<event>
 4    2  0.9070994E-007  0.6777231E+03  0.7818608E-02  0.1010642E+00
         -2   -1    0    0    0  501 -0.00000000000E+00  0.00000000000E+00  0.16698060037E+04  0.16698060037E+04  0.25500000000E-02 0.  1.
          2   -1    0    0  501    0  0.00000000000E+00 -0.00000000000E+00 -0.52656673294E+03  0.52656673294E+03  0.25500000000E-02 0. -1.
    8880023    1    1    2    0    0 -0.15967921435E+03 -0.98506582632E+00 -0.29650707633E+03  0.73974662853E+03  0.65864270000E+03 0. -1.
    8880022    1    1    2    0    0  0.15967921435E+03  0.98506582632E+00  0.14397463470E+04  0.14566261081E+04  0.15294330000E+03 0.  0.
<mgrwt>
<rscale>  0 0.51220264E+03</rscale>
<asrwt>0</asrwt>
<pdfrwt beam="1">  1        2 0.81010267E-01 0.67772312E+03</pdfrwt>
<pdfrwt beam="2">  1       -2 0.25689323E+00 0.67772312E+03</pdfrwt>
<totfact> 0.35203382E+00</totfact>
</mgrwt>
</event>
<event>
 4    2  0.9070994E-007  0.1363409E+04  0.7818608E-02  0.9012649E-01
          2   -1    0    0  501    0  0.00000000000E+00  0.00000000000E+00  0.29058346235E+04  0.29058346235E+04  0.25500000000E-02 0. -1.
         -2   -1    0    0    0  501 -0.00000000000E+00 -0.00000000000E+00 -0.71033738607E+03  0.71033738608E+03  0.25500000000E-02 0.  1.
    8880023    1    1    2    0    0 -0.11731714707E+04 -0.22077740689E+03  0.34105232255E+03  0.14054183918E+04  0.65864270000E+03 0.  0.
    8880022    1    1    2    0    0  0.11731714707E+04  0.22077740689E+03  0.18544449148E+04  0.22107536177E+04  0.15294330000E+03 0.  0.
<mgrwt>
<rscale>  0 0.13215486E+04</rscale>
<asrwt>0</asrwt>
<pdfrwt beam="1">  1        2 0.44705147E+00 0.13634090E+04</pdfrwt>
<pdfrwt beam="2">  1       -2 0.10928268E+00 0.13634090E+04</pdfrwt>
<totfact> 0.12877994E+00</totfact>
</mgrwt>
</event>
<event>
 4    2  0.9070994E-007  0.7518331E+03  0.7818608E-02  0.9826729E-01
         -2   -1    0    0    0  501 -0.00000000000E+00  0.00000000000E+00  0.35661795402E+03  0.35661795403E+03  0.25500000000E-02 0.  1.
          2   -1    0    0  501    0  0.00000000000E+00 -0.00000000000E+00 -0.47957728741E+04  0.47957728741E+04  0.25500000000E-02 0. -1.
    8880023    1    1    2    0    0  0.10258134369E+03 -0.34773531622E+03 -0.46469686715E+04  0.47073953332E+04  0.65864270000E+03 0. -1.
    8880022    1    1    2    0    0 -0.10258134369E+03  0.34773531622E+03  0.20781375147E+03  0.44499549495E+03  0.15294330000E+03 0.  0.
<mgrwt>
<rscale>  0 0.63947640E+03</rscale>
<asrwt>0</asrwt>
<pdfrwt beam="1">  1        2 0.73781116E+00 0.75183309E+03</pdfrwt>
<pdfrwt beam="2">  1       -2 0.54864304E-01 0.75183309E+03</pdfrwt>
<totfact> 0.21902596E-01</totfact>
</mgrwt>
</event>
<event>
 4    2  0.9070994E-007  0.6603359E+03  0.7818608E-02  0.1023815E+00
         -2   -1    0    0    0  501 -0.00000000000E+00  0.00000000000E+00  0.29790711795E+03  0.29790711796E+03  0.25500000000E-02 0.  1.
          2   -1    0    0  501    0  0.00000000000E+00 -0.00000000000E+00 -0.11026214629E+04  0.11026214629E+04  0.25500000000E-02 0. -1.
    8880023    1    1    2    0    0 -0.30337004620E+02 -0.36234153763E+02 -0.96805533606E+03  0.11718253230E+04  0.65864270000E+03 0. -1.
    8880022    1    1    2    0    0  0.30337004620E+02  0.36234153763E+02  0.16334099112E+03  0.22870325783E+03  0.15294330000E+03 0.  0.
<mgrwt>
<rscale>  0 0.46334709E+03</rscale>
<asrwt>0</asrwt>
<pdfrwt beam="1">  1        2 0.16963407E+00 0.66033586E+03</pdfrwt>
<pdfrwt beam="2">  1       -2 0.45831865E-01 0.66033586E+03</pdfrwt>
<totfact> 0.10011993E+02</totfact>
</mgrwt>
</event>
<event>
 4    2  0.9070994E-007  0.9792502E+03  0.7818608E-02  0.9409223E-01
          2   -1    0    0  501    0  0.00000000000E+00  0.00000000000E+00  0.21061639444E+04  0.21061639444E+04  0.25500000000E-02 0. -1.
         -2   -1    0    0    0  501 -0.00000000000E+00 -0.00000000000E+00 -0.37548658168E+03  0.37548658169E+03  0.25500000000E-02 0.  1.
    8880023    1    1    2    0    0  0.60597476429E+03  0.39738572982E+03  0.12909361295E+04  0.16203231560E+04  0.65864270000E+03 0.  0.
    8880022    1    1    2    0    0 -0.60597476429E+03 -0.39738572982E+03  0.43974123321E+03  0.86132737007E+03  0.15294330000E+03 0.  0.
<mgrwt>
<rscale>  0 0.91320563E+03</rscale>
<asrwt>0</asrwt>
<pdfrwt beam="1">  1        2 0.32402522E+00 0.97925024E+03</pdfrwt>
<pdfrwt beam="2">  1       -2 0.57767167E-01 0.97925024E+03</pdfrwt>
<totfact> 0.16477708E+01</totfact>
</mgrwt>
</event>
<event>
 4    2  0.9070994E-007  0.1005234E+04  0.7818608E-02  0.9374742E-01
         -2   -1    0    0    0  501 -0.00000000000E+00  0.00000000000E+00  0.59662441637E+03  0.59662441637E+03  0.25500000000E-02 0.  1.
          2   -1    0    0  501    0  0.00000000000E+00 -0.00000000000E+00 -0.13492302206E+04  0.13492302206E+04  0.25500000000E-02 0. -1.
    8880023    1    1    2    0    0  0.57662769113E+03  0.49415049393E+03 -0.54684065051E+03  0.11443465857E+04  0.65864270000E+03 0.  0.
    8880022    1    1    2    0    0 -0.57662769113E+03 -0.49415049393E+03 -0.20576515375E+03  0.80150805133E+03  0.15294330000E+03 0.  0.
<mgrwt>
<rscale>  0 0.94183752E+03</rscale>
<asrwt>0</asrwt>
<pdfrwt beam="1">  1        2 0.20757388E+00 0.10052335E+04</pdfrwt>
<pdfrwt beam="2">  1       -2 0.91788372E-01 0.10052335E+04</pdfrwt>
<totfact> 0.15547942E+01</totfact>
</mgrwt>
</event>
<event>
 4    2  0.9070994E-007  0.1002332E+04  0.7818608E-02  0.9378514E-01
          2   -1    0    0  501    0  0.00000000000E+00  0.00000000000E+00  0.29355522303E+04  0.29355522303E+04  0.25500000000E-02 0. -1.
         -2   -1    0    0    0  501 -0.00000000000E+00 -0.00000000000E+00 -0.37863221062E+03  0.37863221063E+03  0.25500000000E-02 0.  1.
    8880023    1    1    2    0    0 -0.13536635847E+03 -0.74332657028E+03  0.22877042567E+04  0.24976507790E+04  0.65864270000E+03 0.  0.
    8880022    1    1    2    0    0  0.13536635847E+03  0.74332657028E+03  0.26921576293E+03  0.81653366196E+03  0.15294330000E+03 0.  0.
<mgrwt>
<rscale>  0 0.93865225E+03</rscale>
<asrwt>0</asrwt>
<pdfrwt beam="1">  1        2 0.45162340E+00 0.10023316E+04</pdfrwt>
<pdfrwt beam="2">  1       -2 0.58251112E-01 0.10023316E+04</pdfrwt>
<totfact> 0.53756033E+00</totfact>
</mgrwt>
</event>
<event>
 4    2  0.9070994E-007  0.6858464E+03  0.7818608E-02  0.1006193E+00
          2   -1    0    0  501    0  0.00000000000E+00  0.00000000000E+00  0.63151243975E+03  0.63151243976E+03  0.25500000000E-02 0. -1.
         -2   -1    0    0    0  501 -0.00000000000E+00 -0.00000000000E+00 -0.14182889943E+04  0.14182889944E+04  0.25500000000E-02 0.  1.
    8880023    1    1    2    0    0 -0.10996709055E+03 -0.15646812014E+03  0.42942495042E+03  0.80919158914E+03  0.65864270000E+03 0. -1.
    8880022    1    1    2    0    0  0.10996709055E+03  0.15646812014E+03 -0.12162015050E+04  0.12406098450E+04  0.15294330000E+03 0.  0.
<mgrwt>
<rscale>  0 0.53016236E+03</rscale>
<asrwt>0</asrwt>
<pdfrwt beam="1">  1        2 0.97155760E-01 0.68584637E+03</pdfrwt>
<pdfrwt beam="2">  1       -2 0.21819831E+00 0.68584637E+03</pdfrwt>
<totfact> 0.48816497E+00</totfact>
</mgrwt>
</event>
<event>
 4    2  0.9070994E-007  0.7211510E+03  0.7818608E-02  0.9918710E-01
         -2   -1    0    0    0  501 -0.00000000000E+00  0.00000000000E+00  0.28692695217E+03  0.28692695218E+03  0.25500000000E-02 0.  1.
          2   -1    0    0  501    0  0.00000000000E+00 -0.00000000000E+00 -0.98471075986E+03  0.98471075986E+03  0.25500000000E-02 0. -1.
    8880023    1    1    2    0    0 -0.27410782588E+02  0.29239914514E+03 -0.55976286951E+03  0.91290376680E+03  0.65864270000E+03 0.  0.
    8880022    1    1    2    0    0  0.27410782588E+02 -0.29239914514E+03 -0.13802093817E+03  0.35873394524E+03  0.15294330000E+03 0.  0.
<mgrwt>
<rscale>  0 0.59363013E+03</rscale>
<asrwt>0</asrwt>
<pdfrwt beam="1">  1        2 0.15149396E+00 0.72115104E+03</pdfrwt>
<pdfrwt beam="2">  1       -2 0.44142608E-01 0.72115104E+03</pdfrwt>
<totfact> 0.12721706E+02</totfact>
</mgrwt>
</event>
<event>
 4    2  0.9070994E-007  0.8797594E+03  0.7818608E-02  0.9559338E-01
         -2   -1    0    0    0  501 -0.00000000000E+00  0.00000000000E+00  0.41389161821E+03  0.41389161822E+03  0.25500000000E-02 0.  1.
          2   -1    0    0  501    0  0.00000000000E+00 -0.00000000000E+00 -0.14956574682E+04  0.14956574682E+04  0.25500000000E-02 0. -1.
    8880023    1    1    2    0    0  0.47782963641E+03 -0.33443278063E+03 -0.94529490783E+03  0.12913400463E+04  0.65864270000E+03 0. -1.
    8880022    1    1    2    0    0 -0.47782963641E+03  0.33443278063E+03 -0.13647094216E+03  0.61820904010E+03  0.15294330000E+03 0.  0.
<mgrwt>
<rscale>  0 0.80046929E+03</rscale>
<asrwt>0</asrwt>
<pdfrwt beam="1">  1        2 0.23010115E+00 0.87975943E+03</pdfrwt>
<pdfrwt beam="2">  1       -2 0.63675634E-01 0.87975943E+03</pdfrwt>
<totfact> 0.29400370E+01</totfact>
</mgrwt>
</event>
<event>
 4    2  0.9070994E-007  0.7111036E+03  0.7818608E-02  0.9953925E-01
          2   -1    0    0  501    0  0.00000000000E+00  0.00000000000E+00  0.19532681827E+04  0.19532681827E+04  0.25500000000E-02 0. -1.
         -2   -1    0    0    0  501 -0.00000000000E+00 -0.00000000000E+00 -0.19387789339E+03  0.19387789340E+03  0.25500000000E-02 0.  1.
    8880023    1    1    2    0    0 -0.23833260069E+03 -0.12270185929E+03  0.16861275388E+04  0.18299438402E+04  0.65864270000E+03 0. -1.
    8880022    1    1    2    0    0  0.23833260069E+03  0.12270185929E+03  0.73262750449E+02  0.31720223587E+03  0.15294330000E+03 0.  0.
<mgrwt>
<rscale>  0 0.57717525E+03</rscale>
<asrwt>0</asrwt>
<pdfrwt beam="1">  1        2 0.30050279E+00 0.71110364E+03</pdfrwt>
<pdfrwt beam="2">  1       -2 0.29827369E-01 0.71110364E+03</pdfrwt>
<totfact> 0.75800634E+01</totfact>
</mgrwt>
</event>
<event>
 4    2  0.9070994E-007  0.6785765E+03  0.7818608E-02  0.1010141E+00
          2   -1    0    0  501    0  0.00000000000E+00  0.00000000000E+00  0.27399975852E+04  0.27399975852E+04  0.25500000000E-02 0. -1.
         -2   -1    0    0    0  501 -0.00000000000E+00 -0.00000000000E+00 -0.58414254139E+03  0.58414254139E+03  0.25500000000E-02 0.  1.
    8880023    1    1    2    0    0 -0.16060212435E+03 -0.29373063843E+02  0.26745327609E+04  0.27592737296E+04  0.65864270000E+03 0. -1.
    8880022    1    1    2    0    0  0.16060212435E+03  0.29373063843E+02 -0.51867771712E+03  0.56486639701E+03  0.15294330000E+03 0.  0.
<mgrwt>
<rscale>  0 0.51418792E+03</rscale>
<asrwt>0</asrwt>
<pdfrwt beam="1">  1        2 0.42153808E+00 0.67857647E+03</pdfrwt>
<pdfrwt beam="2">  1       -2 0.89868085E-01 0.67857647E+03</pdfrwt>
<totfact> 0.28621066E+00</totfact>
</mgrwt>
</event>
<event>
 4    2  0.9070994E-007  0.8276169E+03  0.7818608E-02  0.9653987E-01
         -2   -1    0    0    0  501 -0.00000000000E+00  0.00000000000E+00  0.17903252967E+03  0.17903252968E+03  0.25500000000E-02 0.  1.
          2   -1    0    0  501    0  0.00000000000E+00 -0.00000000000E+00 -0.30906426124E+04  0.30906426124E+04  0.25500000000E-02 0. -1.
    8880023    1    1    2    0    0  0.33300035382E+03  0.37449997239E+03 -0.23945900547E+04  0.25335767605E+04  0.65864270000E+03 0. -1.
    8880022    1    1    2    0    0 -0.33300035382E+03 -0.37449997239E+03 -0.51702002797E+03  0.73609838154E+03  0.15294330000E+03 0.  1.
<mgrwt>
<rscale>  0 0.73823723E+03</rscale>
<asrwt>0</asrwt>
<pdfrwt beam="1">  1        2 0.47548344E+00 0.82761686E+03</pdfrwt>
<pdfrwt beam="2">  1       -2 0.27543468E-01 0.82761686E+03</pdfrwt>
<totfact> 0.19225164E+01</totfact>
</mgrwt>
</event>
<event>
 4    2  0.9070994E-007  0.2075300E+04  0.7818608E-02  0.8583829E-01
         -2   -1    0    0    0  501 -0.00000000000E+00  0.00000000000E+00  0.14982434915E+04  0.14982434915E+04  0.25500000000E-02 0.  1.
          2   -1    0    0  501    0  0.00000000000E+00 -0.00000000000E+00 -0.33224025074E+04  0.33224025074E+04  0.25500000000E-02 0. -1.
    8880023    1    1    2    0    0 -0.85907907766E+03  0.17706047830E+04 -0.19432993649E+04  0.28431111106E+04  0.65864270000E+03 0. -1.
    8880022    1    1    2    0    0  0.85907907766E+03 -0.17706047830E+04  0.11914034902E+03  0.19775348884E+04  0.15294330000E+03 0.  0.
<mgrwt>
<rscale>  0 0.20494826E+04</rscale>
<asrwt>0</asrwt>
<pdfrwt beam="1">  1        2 0.51113885E+00 0.20752996E+04</pdfrwt>
<pdfrwt beam="2">  1       -2 0.23049900E+00 0.20752996E+04</pdfrwt>
<totfact> 0.80678921E-02</totfact>
</mgrwt>
</event>
<event>
 4    2  0.9070994E-007  0.9080917E+03  0.7818608E-02  0.9513165E-01
          2   -1    0    0  501    0  0.00000000000E+00  0.00000000000E+00  0.21781619488E+04  0.21781619488E+04  0.25500000000E-02 0. -1.
         -2   -1    0    0    0  501 -0.00000000000E+00 -0.00000000000E+00 -0.46736007443E+03  0.46736007444E+03  0.25500000000E-02 0.  1.
    8880023    1    1    2    0    0 -0.56709931475E+03 -0.26309430379E+03  0.17799627735E+04  0.19982236929E+04  0.65864270000E+03 0.  0.
    8880022    1    1    2    0    0  0.56709931475E+03  0.26309430379E+03 -0.69160899141E+02  0.64729833034E+03  0.15294330000E+03 0.  0.
<mgrwt>
<rscale>  0 0.83320158E+03</rscale>
<asrwt>0</asrwt>
<pdfrwt beam="1">  1        2 0.33510184E+00 0.90809165E+03</pdfrwt>
<pdfrwt beam="2">  1       -2 0.71901550E-01 0.90809165E+03</pdfrwt>
<totfact> 0.94668564E+00</totfact>
</mgrwt>
</event>
<event>
 4    2  0.9070994E-007  0.8878763E+03  0.7818608E-02  0.9545781E-01
         -2   -1    0    0    0  501 -0.00000000000E+00  0.00000000000E+00  0.92142647091E+03  0.92142647092E+03  0.25500000000E-02 0.  1.
          2   -1    0    0  501    0  0.00000000000E+00 -0.00000000000E+00 -0.14032081850E+04  0.14032081850E+04  0.25500000000E-02 0. -1.
    8880023    1    1    2    0    0  0.57059716620E+03 -0.17009711134E+03 -0.11261502427E+04  0.14340637116E+04  0.65864270000E+03 0. -1.
    8880022    1    1    2    0    0 -0.57059716620E+03  0.17009711134E+03  0.64436852859E+03  0.89057094440E+03  0.15294330000E+03 0.  0.
<mgrwt>
<rscale>  0 0.80991101E+03</rscale>
<asrwt>0</asrwt>
<pdfrwt beam="1">  1        2 0.21587818E+00 0.88787632E+03</pdfrwt>
<pdfrwt beam="2">  1       -2 0.14175792E+00 0.88787632E+03</pdfrwt>
<totfact> 0.50365524E+00</totfact>
</mgrwt>
</event>
<event>
 4    2  0.9070994E-007  0.7676959E+03  0.7818608E-02  0.9785576E-01
          2   -1    0    0  501    0  0.00000000000E+00  0.00000000000E+00  0.10541069595E+04  0.10541069595E+04  0.25500000000E-02 0. -1.
         -2   -1    0    0    0  501 -0.00000000000E+00 -0.00000000000E+00 -0.16778872317E+04  0.16778872317E+04  0.25500000000E-02 0.  1.
    8880023    1    1    2    0    0 -0.38872546109E+03 -0.66628363146E+02  0.88119445054E+03  0.11687004273E+04  0.65864270000E+03 0. -1.
    8880022    1    1    2    0    0  0.38872546109E+03  0.66628363146E+02 -0.15049747228E+04  0.15632937639E+04  0.15294330000E+03 0.  0.
<mgrwt>
<rscale>  0 0.66142391E+03</rscale>
<asrwt>0</asrwt>
<pdfrwt beam="1">  1        2 0.16217030E+00 0.76769592E+03</pdfrwt>
<pdfrwt beam="2">  1       -2 0.25813650E+00 0.76769592E+03</pdfrwt>
<totfact> 0.13774173E+00</totfact>
</mgrwt>
</event>
<event>
 4    2  0.9070994E-007  0.1227540E+04  0.7818608E-02  0.9130805E-01
          2   -1    0    0  501    0  0.00000000000E+00  0.00000000000E+00  0.30265275260E+04  0.30265275260E+04  0.25500000000E-02 0. -1.
         -2   -1    0    0    0  501 -0.00000000000E+00 -0.00000000000E+00 -0.12913312144E+04  0.12913312144E+04  0.25500000000E-02 0.  1.
    8880023    1    1    2    0    0 -0.71381569632E+03  0.75067453606E+03  0.26544180997E+04  0.29245154747E+04  0.65864270000E+03 0.  0.
    8880022    1    1    2    0    0  0.71381569632E+03 -0.75067453606E+03 -0.91922178815E+03  0.13933432658E+04  0.15294330000E+03 0.  0.
<mgrwt>
<rscale>  0 0.11797087E+04</rscale>
<asrwt>0</asrwt>
<pdfrwt beam="1">  1        2 0.46561961E+00 0.12275404E+04</pdfrwt>
<pdfrwt beam="2">  1       -2 0.19866634E+00 0.12275404E+04</pdfrwt>
<totfact> 0.22264840E-01</totfact>
</mgrwt>
</event>
<event>
 4    2  0.9070994E-007  0.6872320E+03  0.7818608E-02  0.1005497E+00
          2   -1    0    0  501    0  0.00000000000E+00  0.00000000000E+00  0.10998507405E+04  0.10998507405E+04  0.25500000000E-02 0. -1.
         -2   -1    0    0    0  501 -0.00000000000E+00 -0.00000000000E+00 -0.24139373903E+03  0.24139373904E+03  0.25500000000E-02 0.  1.
    8880023    1    1    2    0    0  0.19608957564E+03 -0.51470236379E+01  0.84905866723E+03  0.10923316530E+04  0.65864270000E+03 0. -1.
    8880022    1    1    2    0    0 -0.19608957564E+03  0.51470236379E+01  0.93983342746E+01  0.24891282656E+03  0.15294330000E+03 0.  1.
<mgrwt>
<rscale>  0 0.53304258E+03</rscale>
<asrwt>0</asrwt>
<pdfrwt beam="1">  1        2 0.16920781E+00 0.68723200E+03</pdfrwt>
<pdfrwt beam="2">  1       -2 0.37137498E-01 0.68723200E+03</pdfrwt>
<totfact> 0.15142219E+02</totfact>
</mgrwt>
</event>
<event>
 4    2  0.9070994E-007  0.1005840E+04  0.7818608E-02  0.9373956E-01
         -2   -1    0    0    0  501 -0.00000000000E+00  0.00000000000E+00  0.48404118408E+03  0.48404118408E+03  0.25500000000E-02 0.  1.
          2   -1    0    0  501    0  0.00000000000E+00 -0.00000000000E+00 -0.26306695761E+04  0.26306695761E+04  0.25500000000E-02 0. -1.
    8880023    1    1    2    0    0  0.36265429310E+03 -0.66812137260E+03 -0.21110896691E+04  0.23384640477E+04  0.65864270000E+03 0.  0.
    8880022    1    1    2    0    0 -0.36265429310E+03  0.66812137260E+03 -0.35538722865E+02  0.77624671250E+03  0.15294330000E+03 0.  0.
<mgrwt>
<rscale>  0 0.94250308E+03</rscale>
<asrwt>0</asrwt>
<pdfrwt beam="1">  1        2 0.40471839E+00 0.10058402E+04</pdfrwt>
<pdfrwt beam="2">  1       -2 0.74467876E-01 0.10058402E+04</pdfrwt>
<totfact> 0.47949916E+00</totfact>
</mgrwt>
</event>
<event>
 4    2  0.9070994E-007  0.7371159E+03  0.7818608E-02  0.9868429E-01
         -2   -1    0    0    0  501 -0.00000000000E+00  0.00000000000E+00  0.32304517863E+03  0.32304517864E+03  0.25500000000E-02 0.  1.
          2   -1    0    0  501    0  0.00000000000E+00 -0.00000000000E+00 -0.21187020929E+04  0.21187020929E+04  0.25500000000E-02 0. -1.
    8880023    1    1    2    0    0 -0.28644059088E+03 -0.16577508423E+03 -0.19199281433E+04  0.20565660389E+04  0.65864270000E+03 0.  0.
    8880022    1    1    2    0    0  0.28644059088E+03  0.16577508423E+03  0.12427122897E+03  0.38518123270E+03  0.15294330000E+03 0.  0.
<mgrwt>
<rscale>  0 0.61816031E+03</rscale>
<asrwt>0</asrwt>
<pdfrwt beam="1">  1        2 0.32595416E+00 0.73711586E+03</pdfrwt>
<pdfrwt beam="2">  1       -2 0.49699260E-01 0.73711586E+03</pdfrwt>
<totfact> 0.22811720E+01</totfact>
</mgrwt>
</event>
<event>
 4    2  0.9070994E-007  0.6925198E+03  0.7818608E-02  0.1002977E+00
         -2   -1    0    0    0  501 -0.00000000000E+00  0.00000000000E+00  0.75240313445E+03  0.75240313445E+03  0.25500000000E-02 0.  1.
          2   -1    0    0  501    0  0.00000000000E+00 -0.00000000000E+00 -0.88954857088E+03  0.88954857088E+03  0.25500000000E-02 0. -1.
    8880023    1    1    2    0    0  0.63819797599E+02  0.20420702142E+03 -0.72215521860E+03  0.10005457712E+04  0.65864270000E+03 0. -1.
    8880022    1    1    2    0    0 -0.63819797599E+02 -0.20420702142E+03  0.58500978216E+03  0.64140593418E+03  0.15294330000E+03 0.  0.
<mgrwt>
<rscale>  0 0.54363830E+03</rscale>
<asrwt>0</asrwt>
<pdfrwt beam="1">  1        2 0.13685363E+00 0.69251981E+03</pdfrwt>
<pdfrwt beam="2">  1       -2 0.11575433E+00 0.69251981E+03</pdfrwt>
<totfact> 0.17672931E+01</totfact>
</mgrwt>
</event>
<event>
 4    2  0.9070994E-007  0.7504579E+03  0.7818608E-02  0.9830468E-01
          2   -1    0    0  501    0  0.00000000000E+00  0.00000000000E+00  0.71931877603E+03  0.71931877604E+03  0.25500000000E-02 0. -1.
         -2   -1    0    0    0  501 -0.00000000000E+00 -0.00000000000E+00 -0.51690837529E+03  0.51690837530E+03  0.25500000000E-02 0.  1.
    8880023    1    1    2    0    0 -0.20688288868E+03 -0.29423844772E+03 -0.79000130891E+02  0.75460454590E+03  0.65864270000E+03 0.  1.
    8880022    1    1    2    0    0  0.20688288868E+03  0.29423844772E+03  0.28141053163E+03  0.48162260544E+03  0.15294330000E+03 0.  0.
<mgrwt>
<rscale>  0 0.63752753E+03</rscale>
<asrwt>0</asrwt>
<pdfrwt beam="1">  1        2 0.11066443E+00 0.75045786E+03</pdfrwt>
<pdfrwt beam="2">  1       -2 0.79524365E-01 0.75045786E+03</pdfrwt>
<totfact> 0.56159274E+01</totfact>
</mgrwt>
</event>
<event>
 4    2  0.9070994E-007  0.6761480E+03  0.7818608E-02  0.1011592E+00
         -2   -1    0    0    0  501 -0.00000000000E+00  0.00000000000E+00  0.14519925473E+04  0.14519925473E+04  0.25500000000E-02 0.  1.
          2   -1    0    0  501    0  0.00000000000E+00 -0.00000000000E+00 -0.16781422706E+03  0.16781422707E+03  0.25500000000E-02 0. -1.
    8880023    1    1    2    0    0 -0.47689007035E+02 -0.14522977878E+03  0.60593568734E+03  0.90792851783E+03  0.65864270000E+03 0. -1.
    8880022    1    1    2    0    0  0.47689007035E+02  0.14522977878E+03  0.67824263292E+03  0.71187825655E+03  0.15294330000E+03 0.  1.
<mgrwt>
<rscale>  0 0.50846708E+03</rscale>
<asrwt>0</asrwt>
<pdfrwt beam="1">  1        2 0.25817574E-01 0.67614801E+03</pdfrwt>
<pdfrwt beam="2">  1       -2 0.22338347E+00 0.67614801E+03</pdfrwt>
<totfact> 0.20406865E+01</totfact>
</mgrwt>
</event>
<event>
 4    2  0.9070994E-007  0.1023549E+04  0.7818608E-02  0.9351376E-01
          2   -1    0    0  501    0  0.00000000000E+00  0.00000000000E+00  0.32819632856E+04  0.32819632856E+04  0.25500000000E-02 0. -1.
         -2   -1    0    0    0  501 -0.00000000000E+00 -0.00000000000E+00 -0.26413060872E+03  0.26413060873E+03  0.25500000000E-02 0.  1.
    8880023    1    1    2    0    0  0.77677631800E+03  0.10228172665E+03  0.20516755377E+04  0.22928204722E+04  0.65864270000E+03 0.  0.
    8880022    1    1    2    0    0 -0.77677631800E+03 -0.10228172665E+03  0.96615713918E+03  0.12532734221E+04  0.15294330000E+03 0.  0.
<mgrwt>
<rscale>  0 0.96187581E+03</rscale>
<asrwt>0</asrwt>
<pdfrwt beam="1">  1        2 0.50491744E+00 0.10235493E+04</pdfrwt>
<pdfrwt beam="2">  1       -2 0.40635477E-01 0.10235493E+04</pdfrwt>
<totfact> 0.67440903E+00</totfact>
</mgrwt>
</event>
<event>
 4    2  0.9070994E-007  0.9682938E+03  0.7818608E-02  0.9424268E-01
         -2   -1    0    0    0  501 -0.00000000000E+00  0.00000000000E+00  0.64780310980E+03  0.64780310981E+03  0.25500000000E-02 0.  1.
          2   -1    0    0  501    0  0.00000000000E+00 -0.00000000000E+00 -0.36947094757E+04  0.36947094757E+04  0.25500000000E-02 0. -1.
    8880023    1    1    2    0    0 -0.49056141824E+03 -0.51296407836E+03  0.22243796796E+03  0.99351472390E+03  0.65864270000E+03 0.  0.
    8880022    1    1    2    0    0  0.49056141824E+03  0.51296407836E+03 -0.32693443339E+04  0.33489978616E+04  0.15294330000E+03 0.  0.
<mgrwt>
<rscale>  0 0.90105155E+03</rscale>
<asrwt>0</asrwt>
<pdfrwt beam="1">  1        2 0.56841683E+00 0.96829379E+03</pdfrwt>
<pdfrwt beam="2">  1       -2 0.99662020E-01 0.96829379E+03</pdfrwt>
<totfact> 0.51310697E-01</totfact>
</mgrwt>
</event>
<event>
 4    2  0.9070994E-007  0.6798443E+03  0.7818608E-02  0.1009412E+00
          2   -1    0    0  501    0  0.00000000000E+00  0.00000000000E+00  0.14289986058E+04  0.14289986058E+04  0.25500000000E-02 0. -1.
         -2   -1    0    0    0  501 -0.00000000000E+00 -0.00000000000E+00 -0.18004292367E+03  0.18004292369E+03  0.25500000000E-02 0.  1.
    8880023    1    1    2    0    0  0.16118106065E+03  0.48976908400E+02  0.11955498556E+04  0.13753282283E+04  0.65864270000E+03 0. -1.
    8880022    1    1    2    0    0 -0.16118106065E+03 -0.48976908400E+02  0.53405826526E+02  0.23371330127E+03  0.15294330000E+03 0.  1.
<mgrwt>
<rscale>  0 0.51709052E+03</rscale>
<asrwt>0</asrwt>
<pdfrwt beam="1">  1        2 0.21984595E+00 0.67984430E+03</pdfrwt>
<pdfrwt beam="2">  1       -2 0.27698911E-01 0.67984430E+03</pdfrwt>
<totfact> 0.16893153E+02</totfact>
</mgrwt>
</event>
<event>
 4    2  0.9070994E-007  0.6965552E+03  0.7818608E-02  0.1001180E+00
          2   -1    0    0  501    0  0.00000000000E+00  0.00000000000E+00  0.71348653163E+03  0.71348653164E+03  0.25500000000E-02 0. -1.
         -2   -1    0    0    0  501 -0.00000000000E+00 -0.00000000000E+00 -0.18408414682E+04  0.18408414682E+04  0.25500000000E-02 0.  1.
    8880023    1    1    2    0    0  0.15177606565E+03  0.16835364232E+03  0.52956165239E+03  0.87499981311E+03  0.65864270000E+03 0.  0.
    8880022    1    1    2    0    0 -0.15177606565E+03 -0.16835364232E+03 -0.16569165890E+04  0.16793281867E+04  0.15294330000E+03 0.  0.
<mgrwt>
<rscale>  0 0.55135712E+03</rscale>
<asrwt>0</asrwt>
<pdfrwt beam="1">  1        2 0.10976716E+00 0.69655519E+03</pdfrwt>
<pdfrwt beam="2">  1       -2 0.28320638E+00 0.69655519E+03</pdfrwt>
<totfact> 0.16881498E+00</totfact>
</mgrwt>
</event>
<event>
 4    2  0.9070994E-007  0.6761620E+03  0.7818608E-02  0.1011584E+00
         -2   -1    0    0    0  501 -0.00000000000E+00  0.00000000000E+00  0.16996451098E+03  0.16996451100E+03  0.25500000000E-02 0.  1.
          2   -1    0    0  501    0  0.00000000000E+00 -0.00000000000E+00 -0.22591537495E+04  0.22591537495E+04  0.25500000000E-02 0. -1.
    8880023    1    1    2    0    0 -0.10491780216E+02  0.15256053424E+03 -0.21062943257E+04  0.22121642767E+04  0.65864270000E+03 0.  0.
    8880022    1    1    2    0    0  0.10491780216E+02 -0.15256053424E+03  0.17105087253E+02  0.21695398380E+03  0.15294330000E+03 0.  1.
<mgrwt>
<rscale>  0 0.50850058E+03</rscale>
<asrwt>0</asrwt>
<pdfrwt beam="1">  1        2 0.34756209E+00 0.67616196E+03</pdfrwt>
<pdfrwt beam="2">  1       -2 0.26148388E-01 0.67616196E+03</pdfrwt>
<totfact> 0.65916778E+01</totfact>
</mgrwt>
</event>
<event>
 4    2  0.9070994E-007  0.7555431E+03  0.7818608E-02  0.9816786E-01
         -2   -1    0    0    0  501 -0.00000000000E+00  0.00000000000E+00  0.56645244538E+03  0.56645244538E+03  0.25500000000E-02 0.  1.
          2   -1    0    0  501    0  0.00000000000E+00 -0.00000000000E+00 -0.20456187151E+04  0.20456187151E+04  0.25500000000E-02 0. -1.
    8880023    1    1    2    0    0  0.32985917062E+03 -0.16801215507E+03 -0.18917498994E+04  0.20370476295E+04  0.65864270000E+03 0. -1.
    8880022    1    1    2    0    0 -0.32985917062E+03  0.16801215507E+03  0.41258362968E+03  0.57502353098E+03  0.15294330000E+03 0.  0.
<mgrwt>
<rscale>  0 0.64469462E+03</rscale>
<asrwt>0</asrwt>
<pdfrwt beam="1">  1        2 0.31471057E+00 0.75554309E+03</pdfrwt>
<pdfrwt beam="2">  1       -2 0.87146531E-01 0.75554309E+03</pdfrwt>
<totfact> 0.74296701E+00</totfact>
</mgrwt>
</event>
<event>
 4    2  0.9070994E-007  0.9755501E+03  0.7818608E-02  0.9414269E-01
         -2   -1    0    0    0  501 -0.00000000000E+00  0.00000000000E+00  0.15318624348E+04  0.15318624349E+04  0.25500000000E-02 0.  1.
          2   -1    0    0  501    0  0.00000000000E+00 -0.00000000000E+00 -0.12026698332E+04  0.12026698332E+04  0.25500000000E-02 0. -1.
    8880023    1    1    2    0    0 -0.66743140905E+03  0.26911547869E+03 -0.88347331402E+03  0.13161394795E+04  0.65864270000E+03 0. -1.
    8880022    1    1    2    0    0  0.66743140905E+03 -0.26911547869E+03  0.12126659157E+04  0.14183927886E+04  0.15294330000E+03 0.  0.
<mgrwt>
<rscale>  0 0.90910675E+03</rscale>
<asrwt>0</asrwt>
<pdfrwt beam="1">  1        2 0.18502613E+00 0.97555012E+03</pdfrwt>
<pdfrwt beam="2">  1       -2 0.23567114E+00 0.97555012E+03</pdfrwt>
<totfact> 0.14849565E+00</totfact>
</mgrwt>
</event>
<event>
 4    2  0.9070994E-007  0.7532329E+03  0.7818608E-02  0.9822953E-01
          2   -1    0    0  501    0  0.00000000000E+00  0.00000000000E+00  0.42573026384E+03  0.42573026385E+03  0.25500000000E-02 0. -1.
         -2   -1    0    0    0  501 -0.00000000000E+00 -0.00000000000E+00 -0.81608207956E+03  0.81608207957E+03  0.25500000000E-02 0.  1.
    8880023    1    1    2    0    0  0.35295156739E+03 -0.94735316376E+02 -0.38430893471E+03  0.84560815551E+03  0.65864270000E+03 0.  0.
    8880022    1    1    2    0    0 -0.35295156739E+03  0.94735316376E+02 -0.60428810075E+01  0.39620418791E+03  0.15294330000E+03 0.  1.
<mgrwt>
<rscale>  0 0.64145190E+03</rscale>
<asrwt>0</asrwt>
<pdfrwt beam="1">  1        2 0.65496964E-01 0.75323290E+03</pdfrwt>
<pdfrwt beam="2">  1       -2 0.12555109E+00 0.75323290E+03</pdfrwt>
<totfact> 0.35541334E+01</totfact>
</mgrwt>
</event>
<event>
 4    2  0.9070994E-007  0.9242948E+03  0.7818608E-02  0.9488105E-01
          2   -1    0    0  501    0  0.00000000000E+00  0.00000000000E+00  0.17735551120E+04  0.17735551120E+04  0.25500000000E-02 0. -1.
         -2   -1    0    0    0  501 -0.00000000000E+00 -0.00000000000E+00 -0.54325029498E+03  0.54325029499E+03  0.25500000000E-02 0.  1.
    8880023    1    1    2    0    0 -0.62700190029E+03 -0.16546670595E+03  0.13537610055E+04  0.16392039776E+04  0.65864270000E+03 0.  1.
    8880022    1    1    2    0    0  0.62700190029E+03  0.16546670595E+03 -0.12345618844E+03  0.67760142947E+03  0.15294330000E+03 0.  0.
<mgrwt>
<rscale>  0 0.85166498E+03</rscale>
<asrwt>0</asrwt>
<pdfrwt beam="1">  1        2 0.27285463E+00 0.92429477E+03</pdfrwt>
<pdfrwt beam="2">  1       -2 0.83576969E-01 0.92429477E+03</pdfrwt>
<totfact> 0.11259407E+01</totfact>
</mgrwt>
</event>
<event>
 4    2  0.9070994E-007  0.8759337E+03  0.7818608E-02  0.9565826E-01
         -2   -1    0    0    0  501 -0.00000000000E+00  0.00000000000E+00  0.12038928295E+04  0.12038928295E+04  0.25500000000E-02 0.  1.
          2   -1    0    0  501    0  0.00000000000E+00 -0.00000000000E+00 -0.10097691975E+04  0.10097691975E+04  0.25500000000E-02 0. -1.
    8880023    1    1    2    0    0  0.10437743856E+03 -0.56793920851E+03 -0.71168888925E+03  0.11286101522E+04  0.65864270000E+03 0.  0.
    8880022    1    1    2    0    0 -0.10437743856E+03  0.56793920851E+03  0.90581252128E+03  0.10850518748E+04  0.15294330000E+03 0.  0.
<mgrwt>
<rscale>  0 0.79599951E+03</rscale>
<asrwt>0</asrwt>
<pdfrwt beam="1">  1        2 0.15534911E+00 0.87593367E+03</pdfrwt>
<pdfrwt beam="2">  1       -2 0.18521428E+00 0.87593367E+03</pdfrwt>
<totfact> 0.41684387E+00</totfact>
</mgrwt>
</event>
<event>
 4    2  0.9070994E-007  0.1043307E+04  0.7818608E-02  0.9326970E-01
          2   -1    0    0  501    0  0.00000000000E+00  0.00000000000E+00  0.22384384841E+04  0.22384384841E+04  0.25500000000E-02 0. -1.
         -2   -1    0    0    0  501 -0.00000000000E+00 -0.00000000000E+00 -0.40254525601E+03  0.40254525602E+03  0.25500000000E-02 0.  1.
    8880023    1    1    2    0    0 -0.76774631111E+03  0.25543228843E+03  0.12613006513E+04  0.16368780014E+04  0.65864270000E+03 0.  0.
    8880022    1    1    2    0    0  0.76774631111E+03 -0.25543228843E+03  0.57459257674E+03  0.10041057387E+04  0.15294330000E+03 0.  0.
<mgrwt>
<rscale>  0 0.98337386E+03</rscale>
<asrwt>0</asrwt>
<pdfrwt beam="1">  1        2 0.34437515E+00 0.10433074E+04</pdfrwt>
<pdfrwt beam="2">  1       -2 0.61930039E-01 0.10433074E+04</pdfrwt>
<totfact> 0.11920635E+01</totfact>
</mgrwt>
</event>
<event>
 4    2  0.9070994E-007  0.9228867E+03  0.7818608E-02  0.9490247E-01
         -2   -1    0    0    0  501 -0.00000000000E+00  0.00000000000E+00  0.28071269599E+03  0.28071269600E+03  0.25500000000E-02 0.  1.
          2   -1    0    0  501    0  0.00000000000E+00 -0.00000000000E+00 -0.24069676923E+04  0.24069676923E+04  0.25500000000E-02 0. -1.
    8880023    1    1    2    0    0 -0.39130191499E+03 -0.51457994634E+03 -0.87877891874E+03  0.12743517192E+04  0.65864270000E+03 0. -1.
    8880022    1    1    2    0    0  0.39130191499E+03  0.51457994634E+03 -0.12474760775E+04  0.14133286691E+04  0.15294330000E+03 0.  0.
<mgrwt>
<rscale>  0 0.85006710E+03</rscale>
<asrwt>0</asrwt>
<pdfrwt beam="1">  1        2 0.37030271E+00 0.92288673E+03</pdfrwt>
<pdfrwt beam="2">  1       -2 0.43186570E-01 0.92288673E+03</pdfrwt>
<totfact> 0.20414630E+01</totfact>
</mgrwt>
</event>
<event>
 4    2  0.9070994E-007  0.1055138E+04  0.7818608E-02  0.9312730E-01
         -2   -1    0    0    0  501 -0.00000000000E+00  0.00000000000E+00  0.12821399214E+04  0.12821399215E+04  0.25500000000E-02 0.  1.
          2   -1    0    0  501    0  0.00000000000E+00 -0.00000000000E+00 -0.12305441492E+04  0.12305441492E+04  0.25500000000E-02 0. -1.
    8880023    1    1    2    0    0 -0.61163544005E+03  0.55263805470E+03 -0.79506928691E+03  0.13211555958E+04  0.65864270000E+03 0.  0.
    8880022    1    1    2    0    0  0.61163544005E+03 -0.55263805470E+03  0.84666505915E+03  0.11915284749E+04  0.15294330000E+03 0.  0.
<mgrwt>
<rscale>  0 0.99619332E+03</rscale>
<asrwt>0</asrwt>
<pdfrwt beam="1">  1        2 0.18931449E+00 0.10551383E+04</pdfrwt>
<pdfrwt beam="2">  1       -2 0.19725229E+00 0.10551383E+04</pdfrwt>
<totfact> 0.24829169E+00</totfact>
</mgrwt>
</event>
<event>
 4    2  0.9070994E-007  0.7011921E+03  0.7818608E-02  0.9992291E-01
          2   -1    0    0  501    0  0.00000000000E+00  0.00000000000E+00  0.21320311586E+04  0.21320311586E+04  0.25500000000E-02 0. -1.
         -2   -1    0    0    0  501 -0.00000000000E+00 -0.00000000000E+00 -0.49758521141E+03  0.49758521142E+03  0.25500000000E-02 0.  1.
    8880023    1    1    2    0    0 -0.24048382347E+03 -0.52616483583E+01  0.20267906995E+04  0.21446563594E+04  0.65864270000E+03 0. -1.
    8880022    1    1    2    0    0  0.24048382347E+03  0.52616483583E+01 -0.39234475224E+03  0.48496001064E+03  0.15294330000E+03 0.  0.
<mgrwt>
<rscale>  0 0.55989539E+03</rscale>
<asrwt>0</asrwt>
<pdfrwt beam="1">  1        2 0.32800480E+00 0.70119210E+03</pdfrwt>
<pdfrwt beam="2">  1       -2 0.76551570E-01 0.70119210E+03</pdfrwt>
<totfact> 0.90077666E+00</totfact>
</mgrwt>
</event>
<event>
 4    2  0.9070994E-007  0.6914728E+03  0.7818608E-02  0.1003460E+00
          2   -1    0    0  501    0  0.00000000000E+00  0.00000000000E+00  0.37286065183E+03  0.37286065184E+03  0.25500000000E-02 0. -1.
         -2   -1    0    0    0  501 -0.00000000000E+00 -0.00000000000E+00 -0.90454803051E+03  0.90454803051E+03  0.25500000000E-02 0.  1.
    8880023    1    1    2    0    0  0.17223891343E+03 -0.12107121934E+03 -0.67434365225E+01  0.69150572207E+03  0.65864270000E+03 0.  0.
    8880022    1    1    2    0    0 -0.17223891343E+03  0.12107121934E+03 -0.52494394215E+03  0.58590296028E+03  0.15294330000E+03 0.  0.
<mgrwt>
<rscale>  0 0.54158655E+03</rscale>
<asrwt>0</asrwt>
<pdfrwt beam="1">  1        2 0.57363178E-01 0.69147284E+03</pdfrwt>
<pdfrwt beam="2">  1       -2 0.13916123E+00 0.69147284E+03</pdfrwt>
<totfact> 0.31912573E+01</totfact>
</mgrwt>
</event>
<event>
 4    2  0.9070994E-007  0.6764285E+03  0.7818608E-02  0.1011421E+00
          2   -1    0    0  501    0  0.00000000000E+00  0.00000000000E+00  0.41267120233E+04  0.41267120233E+04  0.25500000000E-02 0. -1.
         -2   -1    0    0    0  501 -0.00000000000E+00 -0.00000000000E+00 -0.22948872958E+03  0.22948872959E+03  0.25500000000E-02 0.  1.
    8880023    1    1    2    0    0  0.15408260072E+03  0.19503537652E+01  0.40400741454E+04  0.40963098709E+04  0.65864270000E+03 0. -1.
    8880022    1    1    2    0    0 -0.15408260072E+03 -0.19503537652E+01 -0.14285085166E+03  0.25989088202E+03  0.15294330000E+03 0.  0.
<mgrwt>
<rscale>  0 0.50913920E+03</rscale>
<asrwt>0</asrwt>
<pdfrwt beam="1">  1        2 0.63487874E+00 0.67642846E+03</pdfrwt>
<pdfrwt beam="2">  1       -2 0.35305960E-01 0.67642846E+03</pdfrwt>
<totfact> 0.22990386E+00</totfact>
</mgrwt>
</event>
<event>
 4    2  0.9070994E-007  0.7197030E+03  0.7818608E-02  0.9923592E-01
         -2   -1    0    0    0  501 -0.00000000000E+00  0.00000000000E+00  0.69268349413E+03  0.69268349414E+03  0.25500000000E-02 0.  1.
          2   -1    0    0  501    0  0.00000000000E+00 -0.00000000000E+00 -0.16166879068E+04  0.16166879068E+04  0.25500000000E-02 0. -1.
    8880023    1    1    2    0    0  0.27426737135E+03 -0.94549313231E+02 -0.14902915921E+04  0.16549747428E+04  0.65864270000E+03 0. -1.
    8880022    1    1    2    0    0 -0.27426737135E+03  0.94549313231E+02  0.56628717941E+03  0.65439665815E+03  0.15294330000E+03 0.  0.
<mgrwt>
<rscale>  0 0.59131405E+03</rscale>
<asrwt>0</asrwt>
<pdfrwt beam="1">  1        2 0.24872122E+00 0.71970297E+03</pdfrwt>
<pdfrwt beam="2">  1       -2 0.10656669E+00 0.71970297E+03</pdfrwt>
<totfact> 0.79877479E+00</totfact>
</mgrwt>
</event>
<event>
 4    2  0.9070994E-007  0.7742185E+03  0.7818608E-02  0.9769597E-01
          2   -1    0    0  501    0  0.00000000000E+00  0.00000000000E+00  0.10023370759E+04  0.10023370759E+04  0.25500000000E-02 0. -1.
         -2   -1    0    0    0  501 -0.00000000000E+00 -0.00000000000E+00 -0.62069687258E+03  0.62069687258E+03  0.25500000000E-02 0.  1.
    8880023    1    1    2    0    0 -0.39306690235E+03  0.10536821194E+03  0.73140233693E+03  0.10650650847E+04  0.65864270000E+03 0.  0.
    8880022    1    1    2    0    0  0.39306690235E+03 -0.10536821194E+03 -0.34976213365E+03  0.55796886379E+03  0.15294330000E+03 0.  0.
<mgrwt>
<rscale>  0 0.67019956E+03</rscale>
<asrwt>0</asrwt>
<pdfrwt beam="1">  1        2 0.15420570E+00 0.77421848E+03</pdfrwt>
<pdfrwt beam="2">  1       -2 0.95491828E-01 0.77421848E+03</pdfrwt>
<totfact> 0.23435957E+01</totfact>
</mgrwt>
</event>
<event>
 4    2  0.2055180E-006  0.8535463E+03  0.7818608E-02  0.9605148E-01
          2   -1    0    0  501    0  0.00000000000E+00  0.00000000000E+00  0.22415804719E+04  0.22415804719E+04  0.25500000000E-02 0. -1.
         -2   -1    0    0    0  501 -0.00000000000E+00 -0.00000000000E+00 -0.13680562152E+04  0.13680562152E+04  0.25500000000E-02 0.  1.
    8880023    1    1    2    0    0 -0.54195723501E+03 -0.31834711575E+02  0.20961033843E+04  0.22632257284E+04  0.65864270000E+03 0. -1.
    8880022    1    1    2    0    0  0.54195723501E+03  0.31834711575E+02 -0.12225791276E+04  0.13464109587E+04  0.15294330000E+03 0.  0.
<mgrwt>
<rscale>  0 0.76956385E+03</rscale>
<asrwt>0</asrwt>
<pdfrwt beam="1">  1        2 0.34485853E+00 0.85354631E+03</pdfrwt>
<pdfrwt beam="2">  1       -2 0.21047019E+00 0.85354631E+03</pdfrwt>
<totfact> 0.57279763E-01</totfact>
</mgrwt>
</event>
<event>
 4    2  0.9070994E-007  0.1109449E+04  0.7818608E-02  0.9250608E-01
          2   -1    0    0  501    0  0.00000000000E+00  0.00000000000E+00  0.25257860897E+04  0.25257860897E+04  0.25500000000E-02 0. -1.
         -2   -1    0    0    0  501 -0.00000000000E+00 -0.00000000000E+00 -0.54480005581E+03  0.54480005582E+03  0.25500000000E-02 0.  1.
    8880023    1    1    2    0    0 -0.25518712961E+03  0.85553931186E+03  0.28121813423E+03  0.11445356397E+04  0.65864270000E+03 0.  0.
    8880022    1    1    2    0    0  0.25518712961E+03 -0.85553931186E+03  0.16997678997E+04  0.19260505059E+04  0.15294330000E+03 0.  0.
<mgrwt>
<rscale>  0 0.10546001E+04</rscale>
<asrwt>0</asrwt>
<pdfrwt beam="1">  1        2 0.38858248E+00 0.11094495E+04</pdfrwt>
<pdfrwt beam="2">  1       -2 0.83815393E-01 0.11094495E+04</pdfrwt>
<totfact> 0.41688077E+00</totfact>
</mgrwt>
</event>
<event>
 4    2  0.9070994E-007  0.8147771E+03  0.7818608E-02  0.9679711E-01
          2   -1    0    0  501    0  0.00000000000E+00  0.00000000000E+00  0.32329404829E+04  0.32329404829E+04  0.25500000000E-02 0. -1.
         -2   -1    0    0    0  501 -0.00000000000E+00 -0.00000000000E+00 -0.41084930450E+03  0.41084930451E+03  0.25500000000E-02 0.  1.
    8880023    1    1    2    0    0 -0.43188844053E+03 -0.20862368462E+03  0.30009022236E+04  0.31095459201E+04  0.65864270000E+03 0. -1.
    8880022    1    1    2    0    0  0.43188844053E+03  0.20862368462E+03 -0.17881104526E+03  0.53424386732E+03  0.15294330000E+03 0.  0.
<mgrwt>
<rscale>  0 0.72237742E+03</rscale>
<asrwt>0</asrwt>
<pdfrwt beam="1">  1        2 0.49737547E+00 0.81477707E+03</pdfrwt>
<pdfrwt beam="2">  1       -2 0.63207584E-01 0.81477707E+03</pdfrwt>
<totfact> 0.30372618E+00</totfact>
</mgrwt>
</event>
<event>
 4    2  0.9070994E-007  0.1429033E+04  0.7818608E-02  0.8961445E-01
         -2   -1    0    0    0  501 -0.00000000000E+00  0.00000000000E+00  0.21420292237E+04  0.21420292237E+04  0.25500000000E-02 0.  1.
          2   -1    0    0  501    0  0.00000000000E+00 -0.00000000000E+00 -0.13391541280E+04  0.13391541280E+04  0.25500000000E-02 0. -1.
    8880023    1    1    2    0    0  0.11926699645E+04  0.43111895107E+03  0.14614598662E+04  0.20440157389E+04  0.65864270000E+03 0.  0.
    8880022    1    1    2    0    0 -0.11926699645E+04 -0.43111895107E+03 -0.65858477048E+03  0.14371676127E+04  0.15294330000E+03 0.  0.
<mgrwt>
<rscale>  0 0.13895120E+04</rscale>
<asrwt>0</asrwt>
<pdfrwt beam="1">  1        2 0.20602371E+00 0.14290330E+04</pdfrwt>
<pdfrwt beam="2">  1       -2 0.32954295E+00 0.14290330E+04</pdfrwt>
<totfact> 0.31171117E-01</totfact>
</mgrwt>
</event>
<event>
 4    2  0.9070994E-007  0.7997487E+03  0.7818608E-02  0.9711340E-01
         -2   -1    0    0    0  501 -0.00000000000E+00  0.00000000000E+00  0.21726747350E+03  0.21726747351E+03  0.25500000000E-02 0.  1.
          2   -1    0    0  501    0  0.00000000000E+00 -0.00000000000E+00 -0.18889879771E+04  0.18889879771E+04  0.25500000000E-02 0. -1.
    8880023    1    1    2    0    0 -0.25278354721E+02  0.45293348234E+03 -0.11121720154E+04  0.13698629613E+04  0.65864270000E+03 0.  1.
    8880022    1    1    2    0    0  0.25278354721E+02 -0.45293348234E+03 -0.55954848823E+03  0.73639248933E+03  0.15294330000E+03 0. -1.
<mgrwt>
<rscale>  0 0.70345625E+03</rscale>
<asrwt>0</asrwt>
<pdfrwt beam="1">  1        2 0.29061352E+00 0.79974867E+03</pdfrwt>
<pdfrwt beam="2">  1       -2 0.33425766E-01 0.79974867E+03</pdfrwt>
<totfact> 0.65752196E+01</totfact>
</mgrwt>
</event>
<event>
 4    2  0.9070994E-007  0.7277085E+03  0.7818608E-02  0.9897317E-01
         -2   -1    0    0    0  501 -0.00000000000E+00  0.00000000000E+00  0.17275091772E+03  0.17275091774E+03  0.25500000000E-02 0.  1.
          2   -1    0    0  501    0  0.00000000000E+00 -0.00000000000E+00 -0.16987823884E+04  0.16987823884E+04  0.25500000000E-02 0. -1.
    8880023    1    1    2    0    0  0.11618176605E+03 -0.28679466983E+03 -0.90777203538E+03  0.11634473172E+04  0.65864270000E+03 0.  0.
    8880022    1    1    2    0    0 -0.11618176605E+03  0.28679466983E+03 -0.61825943532E+03  0.70808598898E+03  0.15294330000E+03 0. -1.
<mgrwt>
<rscale>  0 0.60391489E+03</rscale>
<asrwt>0</asrwt>
<pdfrwt beam="1">  1        2 0.26135113E+00 0.72770845E+03</pdfrwt>
<pdfrwt beam="2">  1       -2 0.26577065E-01 0.72770845E+03</pdfrwt>
<totfact> 0.12869831E+02</totfact>
</mgrwt>
</event>
<event>
 4    2  0.9070994E-007  0.6600668E+03  0.7818608E-02  0.1024088E+00
          2   -1    0    0  501    0  0.00000000000E+00  0.00000000000E+00  0.15136265432E+04  0.15136265432E+04  0.25500000000E-02 0. -1.
         -2   -1    0    0    0  501 -0.00000000000E+00 -0.00000000000E+00 -0.63799987830E+03  0.63799987831E+03  0.25500000000E-02 0.  1.
    8880023    1    1    2    0    0  0.21842083528E+02 -0.37428324693E+02  0.14299592332E+04  0.15749512916E+04  0.65864270000E+03 0. -1.
    8880022    1    1    2    0    0 -0.21842083528E+02  0.37428324693E+02 -0.55433256832E+03  0.57667512988E+03  0.15294330000E+03 0.  0.
<mgrwt>
<rscale>  0 0.46239776E+03</rscale>
<asrwt>0</asrwt>
<pdfrwt beam="1">  1        2 0.23286562E+00 0.66006679E+03</pdfrwt>
<pdfrwt beam="2">  1       -2 0.98153828E-01 0.66006679E+03</pdfrwt>
<totfact> 0.11175473E+01</totfact>
</mgrwt>
</event>
<event>
 4    2  0.9070994E-007  0.7232237E+03  0.7818608E-02  0.9911825E-01
         -2   -1    0    0    0  501 -0.00000000000E+00  0.00000000000E+00  0.93059506541E+03  0.93059506541E+03  0.25500000000E-02 0.  1.
          2   -1    0    0  501    0  0.00000000000E+00 -0.00000000000E+00 -0.85384667422E+03  0.85384667422E+03  0.25500000000E-02 0. -1.
    8880023    1    1    2    0    0  0.16387653671E+03  0.24977341427E+03 -0.65731289611E+03  0.97729868894E+03  0.65864270000E+03 0. -1.
    8880022    1    1    2    0    0 -0.16387653671E+03 -0.24977341427E+03  0.73406128729E+03  0.80714305069E+03  0.15294330000E+03 0.  0.
<mgrwt>
<rscale>  0 0.59691588E+03</rscale>
<asrwt>0</asrwt>
<pdfrwt beam="1">  1        2 0.13136103E+00 0.72322367E+03</pdfrwt>
<pdfrwt beam="2">  1       -2 0.14316847E+00 0.72322367E+03</pdfrwt>
<totfact> 0.10893664E+01</totfact>
</mgrwt>
</event>
<event>
 4    2  0.9070994E-007  0.7603486E+03  0.7818608E-02  0.9804206E-01
         -2   -1    0    0    0  501 -0.00000000000E+00  0.00000000000E+00  0.64247081484E+03  0.64247081484E+03  0.25500000000E-02 0.  1.
          2   -1    0    0  501    0  0.00000000000E+00 -0.00000000000E+00 -0.61234802333E+03  0.61234802333E+03  0.25500000000E-02 0. -1.
    8880023    1    1    2    0    0 -0.37982436427E+03  0.72968871609E+01 -0.19845481910E+03  0.78582078984E+03  0.65864270000E+03 0. -1.
    8880022    1    1    2    0    0  0.37982436427E+03 -0.72968871609E+01  0.22857761061E+03  0.46899804833E+03  0.15294330000E+03 0.  0.
<mgrwt>
<rscale>  0 0.65137322E+03</rscale>
<asrwt>0</asrwt>
<pdfrwt beam="1">  1        2 0.94207388E-01 0.76034860E+03</pdfrwt>
<pdfrwt beam="2">  1       -2 0.98841664E-01 0.76034860E+03</pdfrwt>
<totfact> 0.41564411E+01</totfact>
</mgrwt>
</event>
<event>
 4    2  0.9070994E-007  0.7365381E+03  0.7818608E-02  0.9870149E-01
         -2   -1    0    0    0  501 -0.00000000000E+00  0.00000000000E+00  0.47352512588E+03  0.47352512588E+03  0.25500000000E-02 0.  1.
          2   -1    0    0  501    0  0.00000000000E+00 -0.00000000000E+00 -0.24250525408E+04  0.24250525408E+04  0.25500000000E-02 0. -1.
    8880023    1    1    2    0    0 -0.23551864599E+03  0.23067091939E+03 -0.22878084668E+04  0.24034466694E+04  0.65864270000E+03 0.  0.
    8880022    1    1    2    0    0  0.23551864599E+03 -0.23067091939E+03  0.33628105184E+03  0.49513099731E+03  0.15294330000E+03 0.  0.
<mgrwt>
<rscale>  0 0.61730077E+03</rscale>
<asrwt>0</asrwt>
<pdfrwt beam="1">  1        2 0.37308500E+00 0.73653806E+03</pdfrwt>
<pdfrwt beam="2">  1       -2 0.72850021E-01 0.73653806E+03</pdfrwt>
<totfact> 0.68744607E+00</totfact>
</mgrwt>
</event>
<event>
 4    2  0.9070994E-007  0.7774972E+03  0.7818608E-02  0.9761749E-01
         -2   -1    0    0    0  501 -0.00000000000E+00  0.00000000000E+00  0.38078773594E+03  0.38078773595E+03  0.25500000000E-02 0.  1.
          2   -1    0    0  501    0  0.00000000000E+00 -0.00000000000E+00 -0.11415675188E+04  0.11415675188E+04  0.25500000000E-02 0. -1.
    8880023    1    1    2    0    0  0.26171100295E+03  0.31968596045E+03 -0.75207498016E+03  0.10817202709E+04  0.65864270000E+03 0. -1.
    8880022    1    1    2    0    0 -0.26171100295E+03 -0.31968596045E+03 -0.87048026648E+01  0.44063498384E+03  0.15294330000E+03 0.  0.
<mgrwt>
<rscale>  0 0.67456328E+03</rscale>
<asrwt>0</asrwt>
<pdfrwt beam="1">  1        2 0.17562577E+00 0.77749725E+03</pdfrwt>
<pdfrwt beam="2">  1       -2 0.58582729E-01 0.77749725E+03</pdfrwt>
<totfact> 0.56758879E+01</totfact>
</mgrwt>
</event>
<event>
 4    2  0.9070994E-007  0.7035302E+03  0.7818608E-02  0.9982860E-01
          2   -1    0    0  501    0  0.00000000000E+00  0.00000000000E+00  0.21469963962E+04  0.21469963962E+04  0.25500000000E-02 0. -1.
         -2   -1    0    0    0  501 -0.00000000000E+00 -0.00000000000E+00 -0.25832229158E+03  0.25832229160E+03  0.25500000000E-02 0.  1.
    8880023    1    1    2    0    0  0.19964898071E+03  0.14589310989E+03  0.19794259339E+04  0.21007336216E+04  0.65864270000E+03 0. -1.
    8880022    1    1    2    0    0 -0.19964898071E+03 -0.14589310989E+03 -0.90751829260E+02  0.30458506618E+03  0.15294330000E+03 0.  0.
<mgrwt>
<rscale>  0 0.56408217E+03</rscale>
<asrwt>0</asrwt>
<pdfrwt beam="1">  1        2 0.33030714E+00 0.70353019E+03</pdfrwt>
<pdfrwt beam="2">  1       -2 0.39741890E-01 0.70353019E+03</pdfrwt>
<totfact> 0.34497566E+01</totfact>
</mgrwt>
</event>
<event>
 4    2  0.9070994E-007  0.7663464E+03  0.7818608E-02  0.9788946E-01
          2   -1    0    0  501    0  0.00000000000E+00  0.00000000000E+00  0.18982559270E+04  0.18982559270E+04  0.25500000000E-02 0. -1.
         -2   -1    0    0    0  501 -0.00000000000E+00 -0.00000000000E+00 -0.36273998053E+03  0.36273998054E+03  0.25500000000E-02 0.  1.
    8880023    1    1    2    0    0  0.35269493982E+03 -0.17053708722E+03  0.16549805086E+04  0.18238002382E+04  0.65864270000E+03 0.  0.
    8880022    1    1    2    0    0 -0.35269493982E+03  0.17053708722E+03 -0.11946456212E+03  0.43719566937E+03  0.15294330000E+03 0.  0.
<mgrwt>
<rscale>  0 0.65959156E+03</rscale>
<asrwt>0</asrwt>
<pdfrwt beam="1">  1        2 0.29203938E+00 0.76634641E+03</pdfrwt>
<pdfrwt beam="2">  1       -2 0.55806150E-01 0.76634641E+03</pdfrwt>
<totfact> 0.23622909E+01</totfact>
</mgrwt>
</event>
<event>
 4    2  0.9070994E-007  0.8313210E+03  0.7818608E-02  0.9646768E-01
          2   -1    0    0  501    0  0.00000000000E+00  0.00000000000E+00  0.15176080346E+04  0.15176080346E+04  0.25500000000E-02 0. -1.
         -2   -1    0    0    0  501 -0.00000000000E+00 -0.00000000000E+00 -0.31036460627E+03  0.31036460628E+03  0.25500000000E-02 0.  1.
    8880023    1    1    2    0    0 -0.40641611657E+03 -0.30349695010E+03  0.85027556761E+03  0.11891438961E+04  0.65864270000E+03 0.  1.
    8880022    1    1    2    0    0  0.40641611657E+03  0.30349695010E+03  0.35696786068E+03  0.63882874473E+03  0.15294330000E+03 0. -1.
<mgrwt>
<rscale>  0 0.74276642E+03</rscale>
<asrwt>0</asrwt>
<pdfrwt beam="1">  1        2 0.23347816E+00 0.83132104E+03</pdfrwt>
<pdfrwt beam="2">  1       -2 0.47748401E-01 0.83132104E+03</pdfrwt>
<totfact> 0.52263317E+01</totfact>
</mgrwt>
</event>
<event>
 4    2  0.9070994E-007  0.6879784E+03  0.7818608E-02  0.1005129E+00
          2   -1    0    0  501    0  0.00000000000E+00  0.00000000000E+00  0.14217144115E+04  0.14217144115E+04  0.25500000000E-02 0. -1.
         -2   -1    0    0    0  501 -0.00000000000E+00 -0.00000000000E+00 -0.44954173155E+03  0.44954173156E+03  0.25500000000E-02 0.  1.
    8880023    1    1    2    0    0 -0.14192031056E+03  0.13915006892E+03  0.12926415526E+04  0.14643211758E+04  0.65864270000E+03 0. -1.
    8880022    1    1    2    0    0  0.14192031056E+03 -0.13915006892E+03 -0.32046887263E+03  0.40693496725E+03  0.15294330000E+03 0.  0.
<mgrwt>
<rscale>  0 0.53457519E+03</rscale>
<asrwt>0</asrwt>
<pdfrwt beam="1">  1        2 0.21872529E+00 0.68797843E+03</pdfrwt>
<pdfrwt beam="2">  1       -2 0.69160267E-01 0.68797843E+03</pdfrwt>
<totfact> 0.27636594E+01</totfact>
</mgrwt>
</event>
<event>
 4    2  0.9070994E-007  0.7777785E+03  0.7818608E-02  0.9761081E-01
         -2   -1    0    0    0  501 -0.00000000000E+00  0.00000000000E+00  0.32735564864E+03  0.32735564865E+03  0.25500000000E-02 0.  1.
          2   -1    0    0  501    0  0.00000000000E+00 -0.00000000000E+00 -0.20680251290E+04  0.20680251290E+04  0.25500000000E-02 0. -1.
    8880023    1    1    2    0    0 -0.41361337006E+03 -0.72895466131E+01 -0.17899118768E+04  0.19515952168E+04  0.65864270000E+03 0. -1.
    8880022    1    1    2    0    0  0.41361337006E+03  0.72895466131E+01  0.49242396439E+02  0.44378556083E+03  0.15294330000E+03 0.  0.
<mgrwt>
<rscale>  0 0.67493617E+03</rscale>
<asrwt>0</asrwt>
<pdfrwt beam="1">  1        2 0.31815770E+00 0.77777848E+03</pdfrwt>
<pdfrwt beam="2">  1       -2 0.50362409E-01 0.77777848E+03</pdfrwt>
<totfact> 0.23539846E+01</totfact>
</mgrwt>
</event>
<event>
 4    2  0.9070994E-007  0.7781064E+03  0.7818608E-02  0.9760304E-01
         -2   -1    0    0    0  501 -0.00000000000E+00  0.00000000000E+00  0.34275628598E+03  0.34275628599E+03  0.25500000000E-02 0.  1.
          2   -1    0    0  501    0  0.00000000000E+00 -0.00000000000E+00 -0.19175466992E+04  0.19175466992E+04  0.25500000000E-02 0. -1.
    8880023    1    1    2    0    0  0.13927455680E+03 -0.39018204464E+03 -0.16387254452E+04  0.18140757209E+04  0.65864270000E+03 0. -1.
    8880022    1    1    2    0    0 -0.13927455680E+03  0.39018204464E+03  0.63935031911E+02  0.44622726436E+03  0.15294330000E+03 0.  0.
<mgrwt>
<rscale>  0 0.67537073E+03</rscale>
<asrwt>0</asrwt>
<pdfrwt beam="1">  1        2 0.29500718E+00 0.77810644E+03</pdfrwt>
<pdfrwt beam="2">  1       -2 0.52731737E-01 0.77810644E+03</pdfrwt>
<totfact> 0.25888768E+01</totfact>
</mgrwt>
</event>
<event>
 4    2  0.9070994E-007  0.9508859E+03  0.7818608E-02  0.9448841E-01
         -2   -1    0    0    0  501 -0.00000000000E+00  0.00000000000E+00  0.90421993710E+03  0.90421993711E+03  0.25500000000E-02 0.  1.
          2   -1    0    0  501    0  0.00000000000E+00 -0.00000000000E+00 -0.10269457975E+04  0.10269457975E+04  0.25500000000E-02 0. -1.
    8880023    1    1    2    0    0 -0.28810118086E+03  0.62239175428E+03  0.42371500383E+03  0.10410179619E+04  0.65864270000E+03 0.  1.
    8880022    1    1    2    0    0  0.28810118086E+03 -0.62239175428E+03 -0.54644086424E+03  0.89014777275E+03  0.15294330000E+03 0.  0.
<mgrwt>
<rscale>  0 0.88163006E+03</rscale>
<asrwt>0</asrwt>
<pdfrwt beam="1">  1        2 0.15799166E+00 0.95088590E+03</pdfrwt>
<pdfrwt beam="2">  1       -2 0.13911076E+00 0.95088590E+03</pdfrwt>
<totfact> 0.88059592E+00</totfact>
</mgrwt>
</event>
<event>
 4    2  0.9070994E-007  0.6941663E+03  0.7818608E-02  0.1002232E+00
         -2   -1    0    0    0  501 -0.00000000000E+00  0.00000000000E+00  0.22498896603E+04  0.22498896603E+04  0.25500000000E-02 0.  1.
          2   -1    0    0  501    0  0.00000000000E+00 -0.00000000000E+00 -0.20954889839E+03  0.20954889840E+03  0.25500000000E-02 0. -1.
    8880023    1    1    2    0    0  0.12955319622E+03 -0.17684071829E+03  0.40765152631E+03  0.80501344303E+03  0.65864270000E+03 0. -1.
    8880022    1    1    2    0    0 -0.12955319622E+03  0.17684071829E+03  0.16326892356E+04  0.16544251157E+04  0.15294330000E+03 0.  0.
<mgrwt>
<rscale>  0 0.54682285E+03</rscale>
<asrwt>0</asrwt>
<pdfrwt beam="1">  1        2 0.32238292E-01 0.69416632E+03</pdfrwt>
<pdfrwt beam="2">  1       -2 0.34613688E+00 0.69416632E+03</pdfrwt>
<totfact> 0.28590476E+00</totfact>
</mgrwt>
</event>
<event>
 4    2  0.9070994E-007  0.7020204E+03  0.7818608E-02  0.9988921E-01
         -2   -1    0    0    0  501 -0.00000000000E+00  0.00000000000E+00  0.15743460886E+03  0.15743460888E+03  0.25500000000E-02 0.  1.
          2   -1    0    0  501    0  0.00000000000E+00 -0.00000000000E+00 -0.15632697233E+04  0.15632697233E+04  0.25500000000E-02 0. -1.
    8880023    1    1    2    0    0 -0.14189349893E+03 -0.19720198725E+03 -0.93427315181E+03  0.11686312153E+04  0.65864270000E+03 0. -1.
    8880022    1    1    2    0    0  0.14189349893E+03  0.19720198725E+03 -0.47156196263E+03  0.55207311693E+03  0.15294330000E+03 0.  1.
<mgrwt>
<rscale>  0 0.56138711E+03</rscale>
<asrwt>0</asrwt>
<pdfrwt beam="1">  1        2 0.24050302E+00 0.70202037E+03</pdfrwt>
<pdfrwt beam="2">  1       -2 0.24220710E-01 0.70202037E+03</pdfrwt>
<totfact> 0.18105890E+02</totfact>
</mgrwt>
</event>
<event>
 4    2  0.9070994E-007  0.7015013E+03  0.7818608E-02  0.9991029E-01
         -2   -1    0    0    0  501 -0.00000000000E+00  0.00000000000E+00  0.35043714180E+03  0.35043714181E+03  0.25500000000E-02 0.  1.
          2   -1    0    0  501    0  0.00000000000E+00 -0.00000000000E+00 -0.29255478951E+04  0.29255478951E+04  0.25500000000E-02 0. -1.
    8880023    1    1    2    0    0 -0.12666846788E+03  0.20554562439E+03 -0.28160875668E+04  0.29021463255E+04  0.65864270000E+03 0. -1.
    8880022    1    1    2    0    0  0.12666846788E+03 -0.20554562439E+03  0.24097681353E+03  0.37383871139E+03  0.15294330000E+03 0.  0.
<mgrwt>
<rscale>  0 0.56045343E+03</rscale>
<asrwt>0</asrwt>
<pdfrwt beam="1">  1        2 0.45008428E+00 0.70150133E+03</pdfrwt>
<pdfrwt beam="2">  1       -2 0.53913408E-01 0.70150133E+03</pdfrwt>
<totfact> 0.67339901E+00</totfact>
</mgrwt>
</event>
<event>
 4    2  0.9070994E-007  0.8070036E+03  0.7818608E-02  0.9695853E-01
          2   -1    0    0  501    0  0.00000000000E+00  0.00000000000E+00  0.85352717302E+03  0.85352717303E+03  0.25500000000E-02 0. -1.
         -2   -1    0    0    0  501 -0.00000000000E+00 -0.00000000000E+00 -0.58095358352E+03  0.58095358353E+03  0.25500000000E-02 0.  1.
    8880023    1    1    2    0    0 -0.37261847390E+03 -0.28035698780E+03  0.43597731593E+03  0.91724096832E+03  0.65864270000E+03 0. -1.
    8880022    1    1    2    0    0  0.37261847390E+03  0.28035698780E+03 -0.16340372643E+03  0.51723978823E+03  0.15294330000E+03 0.  0.
<mgrwt>
<rscale>  0 0.71264267E+03</rscale>
<asrwt>0</asrwt>
<pdfrwt beam="1">  1        2 0.13131187E+00 0.80700358E+03</pdfrwt>
<pdfrwt beam="2">  1       -2 0.89377474E-01 0.80700358E+03</pdfrwt>
<totfact> 0.34215880E+01</totfact>
</mgrwt>
</event>
<event>
 4    2  0.9070994E-007  0.8254410E+03  0.7818608E-02  0.9658269E-01
          2   -1    0    0  501    0  0.00000000000E+00  0.00000000000E+00  0.10112487962E+04  0.10112487962E+04  0.25500000000E-02 0. -1.
         -2   -1    0    0    0  501 -0.00000000000E+00 -0.00000000000E+00 -0.87458672038E+03  0.87458672039E+03  0.25500000000E-02 0.  1.
    8880023    1    1    2    0    0  0.16050050719E+03  0.47093754662E+03  0.72618368473E+03  0.10994069019E+04  0.65864270000E+03 0. -1.
    8880022    1    1    2    0    0 -0.16050050719E+03 -0.47093754662E+03 -0.58952160893E+03  0.78642861471E+03  0.15294330000E+03 0.  0.
<mgrwt>
<rscale>  0 0.73556745E+03</rscale>
<asrwt>0</asrwt>
<pdfrwt beam="1">  1        2 0.15557674E+00 0.82544097E+03</pdfrwt>
<pdfrwt beam="2">  1       -2 0.13455180E+00 0.82544097E+03</pdfrwt>
<totfact> 0.99449756E+00</totfact>
</mgrwt>
</event>
<event>
 4    2  0.9070994E-007  0.7450409E+03  0.7818608E-02  0.9845499E-01
          2   -1    0    0  501    0  0.00000000000E+00  0.00000000000E+00  0.16294566163E+04  0.16294566163E+04  0.25500000000E-02 0. -1.
         -2   -1    0    0    0  501 -0.00000000000E+00 -0.00000000000E+00 -0.51489147264E+03  0.51489147264E+03  0.25500000000E-02 0.  1.
    8880023    1    1    2    0    0  0.30316189025E+02  0.34692455351E+03  0.14545084826E+04  0.16342217871E+04  0.65864270000E+03 0. -1.
    8880022    1    1    2    0    0 -0.30316189025E+02 -0.34692455351E+03 -0.33994333894E+03  0.51012630186E+03  0.15294330000E+03 0.  0.
<mgrwt>
<rscale>  0 0.62976918E+03</rscale>
<asrwt>0</asrwt>
<pdfrwt beam="1">  1        2 0.25068563E+00 0.74504089E+03</pdfrwt>
<pdfrwt beam="2">  1       -2 0.79214074E-01 0.74504089E+03</pdfrwt>
<totfact> 0.15590061E+01</totfact>
</mgrwt>
</event>
<event>
 4    2  0.9070994E-007  0.7878783E+03  0.7818608E-02  0.9737646E-01
          2   -1    0    0  501    0  0.00000000000E+00  0.00000000000E+00  0.12482166977E+04  0.12482166977E+04  0.25500000000E-02 0. -1.
         -2   -1    0    0    0  501 -0.00000000000E+00 -0.00000000000E+00 -0.62303954831E+03  0.62303954832E+03  0.25500000000E-02 0.  1.
    8880023    1    1    2    0    0 -0.10495936039E+03  0.41943477988E+03  0.10041259828E+04  0.12763311472E+04  0.65864270000E+03 0. -1.
    8880022    1    1    2    0    0  0.10495936039E+03 -0.41943477988E+03 -0.37894883333E+03  0.59492509882E+03  0.15294330000E+03 0.  0.
<mgrwt>
<rscale>  0 0.68818935E+03</rscale>
<asrwt>0</asrwt>
<pdfrwt beam="1">  1        2 0.19203334E+00 0.78787830E+03</pdfrwt>
<pdfrwt beam="2">  1       -2 0.95852238E-01 0.78787830E+03</pdfrwt>
<totfact> 0.16435461E+01</totfact>
</mgrwt>
</event>
<event>
 4    2  0.9070994E-007  0.9653955E+03  0.7818608E-02  0.9428301E-01
         -2   -1    0    0    0  501 -0.00000000000E+00  0.00000000000E+00  0.62219703509E+03  0.62219703510E+03  0.25500000000E-02 0.  1.
          2   -1    0    0  501    0  0.00000000000E+00 -0.00000000000E+00 -0.14092091627E+04  0.14092091627E+04  0.25500000000E-02 0. -1.
    8880023    1    1    2    0    0 -0.21729944935E+03 -0.67153496074E+03 -0.87618841092E+03  0.13037233571E+04  0.65864270000E+03 0.  0.
    8880022    1    1    2    0    0  0.21729944935E+03  0.67153496074E+03  0.89176283267E+02  0.72768284073E+03  0.15294330000E+03 0.  0.
<mgrwt>
<rscale>  0 0.89782773E+03</rscale>
<asrwt>0</asrwt>
<pdfrwt beam="1">  1        2 0.21680141E+00 0.96539549E+03</pdfrwt>
<pdfrwt beam="2">  1       -2 0.95722621E-01 0.96539549E+03</pdfrwt>
<totfact> 0.13071288E+01</totfact>
</mgrwt>
</event>
<event>
 4    2  0.9070994E-007  0.8792619E+03  0.7818608E-02  0.9560178E-01
          2   -1    0    0  501    0  0.00000000000E+00  0.00000000000E+00  0.15142451748E+04  0.15142451748E+04  0.25500000000E-02 0. -1.
         -2   -1    0    0    0  501 -0.00000000000E+00 -0.00000000000E+00 -0.48805192249E+03  0.48805192250E+03  0.25500000000E-02 0.  1.
    8880023    1    1    2    0    0  0.21620894993E+03  0.54087420598E+03  0.82911950746E+02  0.88316239422E+03  0.65864270000E+03 0.  0.
    8880022    1    1    2    0    0 -0.21620894993E+03 -0.54087420598E+03  0.94328130155E+03  0.11191347031E+04  0.15294330000E+03 0.  0.
<mgrwt>
<rscale>  0 0.79988869E+03</rscale>
<asrwt>0</asrwt>
<pdfrwt beam="1">  1        2 0.23296080E+00 0.87926186E+03</pdfrwt>
<pdfrwt beam="2">  1       -2 0.75084910E-01 0.87926186E+03</pdfrwt>
<totfact> 0.20033693E+01</totfact>
</mgrwt>
</event>
<event>
 4    2  0.1528288E-006  0.8967650E+03  0.7818608E-02  0.9531245E-01
         -2   -1    0    0    0  501 -0.00000000000E+00  0.00000000000E+00  0.90749430648E+03  0.90749430649E+03  0.25500000000E-02 0.  1.
          2   -1    0    0  501    0  0.00000000000E+00 -0.00000000000E+00 -0.30206674699E+04  0.30206674699E+04  0.25500000000E-02 0. -1.
    8880023    1    1    2    0    0 -0.46577852427E+03  0.39169848750E+03 -0.28339795325E+04  0.29724783490E+04  0.65864270000E+03 0. -1.
    8880022    1    1    2    0    0  0.46577852427E+03 -0.39169848750E+03  0.72080636900E+03  0.95568342740E+03  0.15294330000E+03 0.  0.
<mgrwt>
<rscale>  0 0.82018948E+03</rscale>
<asrwt>0</asrwt>
<pdfrwt beam="1">  1        2 0.46471807E+00 0.89676504E+03</pdfrwt>
<pdfrwt beam="2">  1       -2 0.13961451E+00 0.89676504E+03</pdfrwt>
<totfact> 0.63387701E-01</totfact>
</mgrwt>
</event>
<event>
 4    2  0.9070994E-007  0.6774242E+03  0.7818608E-02  0.1010820E+00
         -2   -1    0    0    0  501 -0.00000000000E+00  0.00000000000E+00  0.74514428499E+03  0.74514428500E+03  0.25500000000E-02 0.  1.
          2   -1    0    0  501    0  0.00000000000E+00 -0.00000000000E+00 -0.54492924205E+03  0.54492924206E+03  0.25500000000E-02 0. -1.
    8880023    1    1    2    0    0 -0.74999580911E+02 -0.13952909682E+03 -0.30201173586E+03  0.74169710857E+03  0.65864270000E+03 0. -1.
    8880022    1    1    2    0    0  0.74999580911E+02  0.13952909682E+03  0.50222677880E+03  0.54837641849E+03  0.15294330000E+03 0.  0.
<mgrwt>
<rscale>  0 0.51150089E+03</rscale>
<asrwt>0</asrwt>
<pdfrwt beam="1">  1        2 0.83835268E-01 0.67742417E+03</pdfrwt>
<pdfrwt beam="2">  1       -2 0.11463758E+00 0.67742417E+03</pdfrwt>
<totfact> 0.33679462E+01</totfact>
</mgrwt>
</event>
<event>
 4    2  0.9070994E-007  0.6819542E+03  0.7818608E-02  0.1008239E+00
          2   -1    0    0  501    0  0.00000000000E+00  0.00000000000E+00  0.10945268258E+04  0.10945268258E+04  0.25500000000E-02 0. -1.
         -2   -1    0    0    0  501 -0.00000000000E+00 -0.00000000000E+00 -0.20777843555E+03  0.20777843557E+03  0.25500000000E-02 0.  1.
    8880023    1    1    2    0    0  0.53784317769E+01 -0.17669851515E+03  0.80415532404E+03  0.10543847894E+04  0.65864270000E+03 0.  1.
    8880022    1    1    2    0    0 -0.53784317769E+01  0.17669851515E+03  0.82593066182E+02  0.24792047189E+03  0.15294330000E+03 0.  0.
<mgrwt>
<rscale>  0 0.52180491E+03</rscale>
<asrwt>0</asrwt>
<pdfrwt beam="1">  1        2 0.16838874E+00 0.68195418E+03</pdfrwt>
<pdfrwt beam="2">  1       -2 0.31965913E-01 0.68195418E+03</pdfrwt>
<totfact> 0.20282799E+02</totfact>
</mgrwt>
</event>
<event>
 4    2  0.9070994E-007  0.6800933E+03  0.7818608E-02  0.1009271E+00
          2   -1    0    0  501    0  0.00000000000E+00  0.00000000000E+00  0.25418076741E+04  0.25418076741E+04  0.25500000000E-02 0. -1.
         -2   -1    0    0    0  501 -0.00000000000E+00 -0.00000000000E+00 -0.21823685627E+03  0.21823685629E+03  0.25500000000E-02 0.  1.
    8880023    1    1    2    0    0 -0.53206475277E+02 -0.16089036970E+03  0.24188835130E+04  0.25126727395E+04  0.65864270000E+03 0.  0.
    8880022    1    1    2    0    0  0.53206475277E+02  0.16089036970E+03 -0.95312695143E+02  0.24737179092E+03  0.15294330000E+03 0.  0.
<mgrwt>
<rscale>  0 0.51765416E+03</rscale>
<asrwt>0</asrwt>
<pdfrwt beam="1">  1        2 0.39104735E+00 0.68009326E+03</pdfrwt>
<pdfrwt beam="2">  1       -2 0.33574900E-01 0.68009326E+03</pdfrwt>
<totfact> 0.28827251E+01</totfact>
</mgrwt>
</event>
<event>
 4    2  0.9070994E-007  0.8163640E+03  0.7818608E-02  0.9676470E-01
          2   -1    0    0  501    0  0.00000000000E+00  0.00000000000E+00  0.11066727087E+04  0.11066727087E+04  0.25500000000E-02 0. -1.
         -2   -1    0    0    0  501 -0.00000000000E+00 -0.00000000000E+00 -0.53658574217E+03  0.53658574217E+03  0.25500000000E-02 0.  1.
    8880023    1    1    2    0    0  0.31224025044E+03  0.36762210208E+03  0.74767011755E+03  0.11070053274E+04  0.65864270000E+03 0. -1.
    8880022    1    1    2    0    0 -0.31224025044E+03 -0.36762210208E+03 -0.17758315100E+03  0.53625312350E+03  0.15294330000E+03 0.  0.
<mgrwt>
<rscale>  0 0.72435188E+03</rscale>
<asrwt>0</asrwt>
<pdfrwt beam="1">  1        2 0.17025734E+00 0.81636401E+03</pdfrwt>
<pdfrwt beam="2">  1       -2 0.82551654E-01 0.81636401E+03</pdfrwt>
<totfact> 0.28092075E+01</totfact>
</mgrwt>
</event>
<event>
 4    2  0.9070994E-007  0.9409352E+03  0.7818608E-02  0.9463278E-01
          2   -1    0    0  501    0  0.00000000000E+00  0.00000000000E+00  0.51612460968E+03  0.51612460969E+03  0.25500000000E-02 0. -1.
         -2   -1    0    0    0  501 -0.00000000000E+00 -0.00000000000E+00 -0.17009525922E+04  0.17009525922E+04  0.25500000000E-02 0.  1.
    8880023    1    1    2    0    0 -0.18968648801E+03  0.64464549327E+03 -0.11980857528E+03  0.94853206414E+03  0.65864270000E+03 0. -1.
    8880022    1    1    2    0    0  0.18968648801E+03 -0.64464549327E+03 -0.10650194073E+04  0.12685451378E+04  0.15294330000E+03 0.  0.
<mgrwt>
<rscale>  0 0.87046170E+03</rscale>
<asrwt>0</asrwt>
<pdfrwt beam="1">  1        2 0.79403787E-01 0.94093516E+03</pdfrwt>
<pdfrwt beam="2">  1       -2 0.26168501E+00 0.94093516E+03</pdfrwt>
<totfact> 0.32580537E+00</totfact>
</mgrwt>
</event>
<event>
 4    2  0.9070994E-007  0.1253786E+04  0.7818608E-02  0.9106532E-01
         -2   -1    0    0    0  501 -0.00000000000E+00  0.00000000000E+00  0.16050523933E+04  0.16050523933E+04  0.25500000000E-02 0.  1.
          2   -1    0    0  501    0  0.00000000000E+00 -0.00000000000E+00 -0.15823565528E+04  0.15823565528E+04  0.25500000000E-02 0. -1.
    8880023    1    1    2    0    0  0.81554884484E+03 -0.68778651210E+03  0.10967943286E+04  0.16658145785E+04  0.65864270000E+03 0.  0.
    8880022    1    1    2    0    0 -0.81554884484E+03  0.68778651210E+03 -0.10740984880E+04  0.15215943676E+04  0.15294330000E+03 0.  0.
<mgrwt>
<rscale>  0 0.12072521E+04</rscale>
<asrwt>0</asrwt>
<pdfrwt beam="1">  1        2 0.24343947E+00 0.12537864E+04</pdfrwt>
<pdfrwt beam="2">  1       -2 0.24693114E+00 0.12537864E+04</pdfrwt>
<totfact> 0.73903333E-01</totfact>
</mgrwt>
</event>
<event>
 4    2  0.9070994E-007  0.7324044E+03  0.7818608E-02  0.9882652E-01
         -2   -1    0    0    0  501 -0.00000000000E+00  0.00000000000E+00  0.15869356095E+04  0.15869356095E+04  0.25500000000E-02 0.  1.
          2   -1    0    0  501    0  0.00000000000E+00 -0.00000000000E+00 -0.20905007085E+03  0.20905007086E+03  0.25500000000E-02 0. -1.
    8880023    1    1    2    0    0  0.31955117258E+03  0.22203636067E+02  0.62192468246E+03  0.96083633896E+03  0.65864270000E+03 0.  0.
    8880022    1    1    2    0    0 -0.31955117258E+03 -0.22203636067E+02  0.75596085622E+03  0.83514934143E+03  0.15294330000E+03 0.  0.
<mgrwt>
<rscale>  0 0.61109465E+03</rscale>
<asrwt>0</asrwt>
<pdfrwt beam="1">  1        2 0.32161548E-01 0.73240437E+03</pdfrwt>
<pdfrwt beam="2">  1       -2 0.24414395E+00 0.73240437E+03</pdfrwt>
<totfact> 0.11795442E+01</totfact>
</mgrwt>
</event>
<event>
 4    2  0.9070994E-007  0.6923744E+03  0.7818608E-02  0.1003044E+00
         -2   -1    0    0    0  501 -0.00000000000E+00  0.00000000000E+00  0.17830322736E+03  0.17830322738E+03  0.25500000000E-02 0.  1.
          2   -1    0    0  501    0  0.00000000000E+00 -0.00000000000E+00 -0.23167986731E+04  0.23167986731E+04  0.25500000000E-02 0. -1.
    8880023    1    1    2    0    0 -0.19670400749E+03 -0.82943195848E+02 -0.21218601816E+04  0.22319661459E+04  0.65864270000E+03 0. -1.
    8880022    1    1    2    0    0  0.19670400749E+03  0.82943195848E+02 -0.16635264213E+02  0.26313575456E+03  0.15294330000E+03 0.  0.
<mgrwt>
<rscale>  0 0.54335453E+03</rscale>
<asrwt>0</asrwt>
<pdfrwt beam="1">  1        2 0.35643054E+00 0.69237435E+03</pdfrwt>
<pdfrwt beam="2">  1       -2 0.27431267E-01 0.69237435E+03</pdfrwt>
<totfact> 0.56011147E+01</totfact>
</mgrwt>
</event>
<event>
 4    2  0.9070994E-007  0.7894927E+03  0.7818608E-02  0.9733993E-01
          2   -1    0    0  501    0  0.00000000000E+00  0.00000000000E+00  0.16289025281E+04  0.16289025281E+04  0.25500000000E-02 0. -1.
         -2   -1    0    0    0  501 -0.00000000000E+00 -0.00000000000E+00 -0.49157872161E+03  0.49157872161E+03  0.25500000000E-02 0.  1.
    8880023    1    1    2    0    0 -0.43530275758E+03 -0.19097223828E+00  0.13869368734E+04  0.15958986886E+04  0.65864270000E+03 0. -1.
    8880022    1    1    2    0    0  0.43530275758E+03  0.19097223828E+00 -0.24961306691E+03  0.52458256111E+03  0.15294330000E+03 0.  0.
<mgrwt>
<rscale>  0 0.69028430E+03</rscale>
<asrwt>0</asrwt>
<pdfrwt beam="1">  1        2 0.25060039E+00 0.78949271E+03</pdfrwt>
<pdfrwt beam="2">  1       -2 0.75627494E-01 0.78949271E+03</pdfrwt>
<totfact> 0.17204100E+01</totfact>
</mgrwt>
</event>
<event>
 4    2  0.9070994E-007  0.1164732E+04  0.7818608E-02  0.9192192E-01
         -2   -1    0    0    0  501 -0.00000000000E+00  0.00000000000E+00  0.16056979618E+04  0.16056979618E+04  0.25500000000E-02 0.  1.
          2   -1    0    0  501    0  0.00000000000E+00 -0.00000000000E+00 -0.20881211847E+04  0.20881211847E+04  0.25500000000E-02 0. -1.
    8880023    1    1    2    0    0  0.30973931644E+03  0.90931395573E+03  0.12490376356E+04  0.17078335796E+04  0.65864270000E+03 0.  0.
    8880022    1    1    2    0    0 -0.30973931644E+03 -0.90931395573E+03 -0.17314608585E+04  0.19859855669E+04  0.15294330000E+03 0.  0.
<mgrwt>
<rscale>  0 0.11134387E+04</rscale>
<asrwt>0</asrwt>
<pdfrwt beam="1">  1        2 0.32124941E+00 0.11647320E+04</pdfrwt>
<pdfrwt beam="2">  1       -2 0.24703046E+00 0.11647320E+04</pdfrwt>
<totfact> 0.39124971E-01</totfact>
</mgrwt>
</event>
<event>
 4    2  0.9070994E-007  0.7328191E+03  0.7818608E-02  0.9881381E-01
          2   -1    0    0  501    0  0.00000000000E+00  0.00000000000E+00  0.41823604135E+03  0.41823604136E+03  0.25500000000E-02 0. -1.
         -2   -1    0    0    0  501 -0.00000000000E+00 -0.00000000000E+00 -0.99830120510E+03  0.99830120510E+03  0.25500000000E-02 0.  1.
    8880023    1    1    2    0    0  0.27752502664E+03 -0.16184420346E+03  0.37600822761E+01  0.73282878702E+03  0.65864270000E+03 0.  0.
    8880022    1    1    2    0    0 -0.27752502664E+03  0.16184420346E+03 -0.58382524602E+03  0.68370845944E+03  0.15294330000E+03 0.  0.
<mgrwt>
<rscale>  0 0.61172201E+03</rscale>
<asrwt>0</asrwt>
<pdfrwt beam="1">  1        2 0.64344007E-01 0.73281914E+03</pdfrwt>
<pdfrwt beam="2">  1       -2 0.15358480E+00 0.73281914E+03</pdfrwt>
<totfact> 0.21584444E+01</totfact>
</mgrwt>
</event>
<event>
 4    2  0.9070994E-007  0.7059829E+03  0.7818608E-02  0.9973232E-01
         -2   -1    0    0    0  501 -0.00000000000E+00  0.00000000000E+00  0.17450840902E+03  0.17450840904E+03  0.25500000000E-02 0.  1.
          2   -1    0    0  501    0  0.00000000000E+00 -0.00000000000E+00 -0.14800374599E+04  0.14800374599E+04  0.25500000000E-02 0. -1.
    8880023    1    1    2    0    0  0.24704785785E+03 -0.59740616306E+02 -0.10364539496E+04  0.12540528622E+04  0.65864270000E+03 0.  1.
    8880022    1    1    2    0    0 -0.24704785785E+03  0.59740616306E+02 -0.26907510130E+03  0.40049300675E+03  0.15294330000E+03 0.  0.
<mgrwt>
<rscale>  0 0.56839700E+03</rscale>
<asrwt>0</asrwt>
<pdfrwt beam="1">  1        2 0.22769806E+00 0.70598286E+03</pdfrwt>
<pdfrwt beam="2">  1       -2 0.26847449E-01 0.70598286E+03</pdfrwt>
<totfact> 0.16710279E+02</totfact>
</mgrwt>
</event>
<event>
 4    2  0.9070994E-007  0.1017165E+04  0.7818608E-02  0.9359438E-01
         -2   -1    0    0    0  501 -0.00000000000E+00  0.00000000000E+00  0.13227850587E+04  0.13227850587E+04  0.25500000000E-02 0.  1.
          2   -1    0    0  501    0  0.00000000000E+00 -0.00000000000E+00 -0.77623269411E+03  0.77623269411E+03  0.25500000000E-02 0. -1.
    8880023    1    1    2    0    0 -0.16910165421E+03 -0.75645113000E+03 -0.17135715779E+03  0.10314975343E+04  0.65864270000E+03 0.  0.
    8880022    1    1    2    0    0  0.16910165421E+03  0.75645113000E+03  0.71790952239E+03  0.10675202185E+04  0.15294330000E+03 0.  0.
<mgrwt>
<rscale>  0 0.95490325E+03</rscale>
<asrwt>0</asrwt>
<pdfrwt beam="1">  1        2 0.11942042E+00 0.10171646E+04</pdfrwt>
<pdfrwt beam="2">  1       -2 0.20350539E+00 0.10171646E+04</pdfrwt>
<totfact> 0.44843933E+00</totfact>
</mgrwt>
</event>
<event>
 4    2  0.9070994E-007  0.1023416E+04  0.7818608E-02  0.9351544E-01
         -2   -1    0    0    0  501 -0.00000000000E+00  0.00000000000E+00  0.40043716037E+03  0.40043716037E+03  0.25500000000E-02 0.  1.
          2   -1    0    0  501    0  0.00000000000E+00 -0.00000000000E+00 -0.27042045024E+04  0.27042045024E+04  0.25500000000E-02 0. -1.
    8880023    1    1    2    0    0  0.35009001747E+02  0.78252421982E+03 -0.20075198861E+04  0.22533344368E+04  0.65864270000E+03 0.  0.
    8880022    1    1    2    0    0 -0.35009001747E+02 -0.78252421982E+03 -0.29624745593E+03  0.85130722596E+03  0.15294330000E+03 0.  0.
<mgrwt>
<rscale>  0 0.96173018E+03</rscale>
<asrwt>0</asrwt>
<pdfrwt beam="1">  1        2 0.41603145E+00 0.10234158E+04</pdfrwt>
<pdfrwt beam="2">  1       -2 0.61605719E-01 0.10234158E+04</pdfrwt>
<totfact> 0.65471436E+00</totfact>
</mgrwt>
</event>
<event>
 4    2  0.9070994E-007  0.1126441E+04  0.7818608E-02  0.9232173E-01
         -2   -1    0    0    0  501 -0.00000000000E+00  0.00000000000E+00  0.89529342456E+03  0.89529342456E+03  0.25500000000E-02 0.  1.
          2   -1    0    0  501    0  0.00000000000E+00 -0.00000000000E+00 -0.50772618665E+04  0.50772618665E+04  0.25500000000E-02 0. -1.
    8880023    1    1    2    0    0  0.57205101828E+03  0.71261246761E+03 -0.47526913930E+04  0.48843571306E+04  0.65864270000E+03 0. -1.
    8880022    1    1    2    0    0 -0.57205101828E+03 -0.71261246761E+03  0.57072295103E+03  0.10881981604E+04  0.15294330000E+03 0.  0.
<mgrwt>
<rscale>  0 0.10727431E+04</rscale>
<asrwt>0</asrwt>
<pdfrwt beam="1">  1        2 0.78111719E+00 0.11264409E+04</pdfrwt>
<pdfrwt beam="2">  1       -2 0.13773745E+00 0.11264409E+04</pdfrwt>
<totfact> 0.10919986E-02</totfact>
</mgrwt>
</event>
<event>
 4    2  0.9070994E-007  0.6881222E+03  0.7818608E-02  0.1005058E+00
         -2   -1    0    0    0  501 -0.00000000000E+00  0.00000000000E+00  0.55440815906E+03  0.55440815907E+03  0.25500000000E-02 0.  1.
          2   -1    0    0  501    0  0.00000000000E+00 -0.00000000000E+00 -0.11906341825E+04  0.11906341825E+04  0.25500000000E-02 0. -1.
    8880023    1    1    2    0    0  0.18527426636E+03  0.73316905057E+02 -0.10533093292E+04  0.12581624186E+04  0.65864270000E+03 0.  0.
    8880022    1    1    2    0    0 -0.18527426636E+03 -0.73316905057E+02  0.41708330581E+03  0.48687992292E+03  0.15294330000E+03 0.  1.
<mgrwt>
<rscale>  0 0.53486885E+03</rscale>
<asrwt>0</asrwt>
<pdfrwt beam="1">  1        2 0.18317449E+00 0.68812218E+03</pdfrwt>
<pdfrwt beam="2">  1       -2 0.85293563E-01 0.68812218E+03</pdfrwt>
<totfact> 0.23534099E+01</totfact>
</mgrwt>
</event>
<event>
 4    2  0.9070994E-007  0.8842979E+03  0.7818608E-02  0.9551724E-01
          2   -1    0    0  501    0  0.00000000000E+00  0.00000000000E+00  0.15802002358E+04  0.15802002358E+04  0.25500000000E-02 0. -1.
         -2   -1    0    0    0  501 -0.00000000000E+00 -0.00000000000E+00 -0.41301866919E+03  0.41301866920E+03  0.25500000000E-02 0.  1.
    8880023    1    1    2    0    0  0.51177080875E+03  0.29370586602E+03  0.10495351319E+04  0.13724090847E+04  0.65864270000E+03 0.  0.
    8880022    1    1    2    0    0 -0.51177080875E+03 -0.29370586602E+03  0.11764643478E+03  0.62080982036E+03  0.15294330000E+03 0.  0.
<mgrwt>
<rscale>  0 0.80575527E+03</rscale>
<asrwt>0</asrwt>
<pdfrwt beam="1">  1        2 0.24310773E+00 0.88429786E+03</pdfrwt>
<pdfrwt beam="2">  1       -2 0.63541335E-01 0.88429786E+03</pdfrwt>
<totfact> 0.26483990E+01</totfact>
</mgrwt>
</event>
<event>
 4    2  0.9070994E-007  0.6671794E+03  0.7818608E-02  0.1017771E+00
          2   -1    0    0  501    0  0.00000000000E+00  0.00000000000E+00  0.21998517717E+04  0.21998517717E+04  0.25500000000E-02 0. -1.
         -2   -1    0    0    0  501 -0.00000000000E+00 -0.00000000000E+00 -0.10081047763E+03  0.10081047767E+03  0.25500000000E-02 0.  1.
    8880023    1    1    2    0    0  0.84448896963E+02  0.64703641748E+02  0.19533722509E+04  0.20641684850E+04  0.65864270000E+03 0. -1.
    8880022    1    1    2    0    0 -0.84448896963E+02 -0.64703641748E+02  0.14566904318E+03  0.23649376442E+03  0.15294330000E+03 0.  0.
<mgrwt>
<rscale>  0 0.48499643E+03</rscale>
<asrwt>0</asrwt>
<pdfrwt beam="1">  1        2 0.33843869E+00 0.66717942E+03</pdfrwt>
<pdfrwt beam="2">  1       -2 0.15509306E-01 0.66717942E+03</pdfrwt>
<totfact> 0.17746736E+02</totfact>
</mgrwt>
</event>
<event>
 4    2  0.9070994E-007  0.8197488E+03  0.7818608E-02  0.9669617E-01
         -2   -1    0    0    0  501 -0.00000000000E+00  0.00000000000E+00  0.36028390047E+03  0.36028390048E+03  0.25500000000E-02 0.  1.
          2   -1    0    0  501    0  0.00000000000E+00 -0.00000000000E+00 -0.22216598026E+04  0.22216598026E+04  0.25500000000E-02 0. -1.
    8880023    1    1    2    0    0  0.44467600421E+03  0.20109968740E+03 -0.18997504831E+04  0.20690674076E+04  0.65864270000E+03 0. -1.
    8880022    1    1    2    0    0 -0.44467600421E+03 -0.20109968740E+03  0.38374580945E+02  0.51287629548E+03  0.15294330000E+03 0.  1.
<mgrwt>
<rscale>  0 0.72854933E+03</rscale>
<asrwt>0</asrwt>
<pdfrwt beam="1">  1        2 0.34179381E+00 0.81974877E+03</pdfrwt>
<pdfrwt beam="2">  1       -2 0.55428294E-01 0.81974877E+03</pdfrwt>
<totfact> 0.15813287E+01</totfact>
</mgrwt>
</event>
<event>
 4    2  0.9070994E-007  0.9519696E+03  0.7818608E-02  0.9447286E-01
         -2   -1    0    0    0  501 -0.00000000000E+00  0.00000000000E+00  0.75902749506E+03  0.75902749506E+03  0.25500000000E-02 0.  1.
          2   -1    0    0  501    0  0.00000000000E+00 -0.00000000000E+00 -0.14994174610E+04  0.14994174610E+04  0.25500000000E-02 0. -1.
    8880023    1    1    2    0    0  0.67494949259E+03 -0.12991976663E+03 -0.11107155072E+04  0.14628517039E+04  0.65864270000E+03 0. -1.
    8880022    1    1    2    0    0 -0.67494949259E+03  0.12991976663E+03  0.37032554131E+03  0.79559325216E+03  0.15294330000E+03 0.  0.
<mgrwt>
<rscale>  0 0.88284337E+03</rscale>
<asrwt>0</asrwt>
<pdfrwt beam="1">  1        2 0.23067961E+00 0.95196963E+03</pdfrwt>
<pdfrwt beam="2">  1       -2 0.11677346E+00 0.95196963E+03</pdfrwt>
<totfact> 0.72109237E+00</totfact>
</mgrwt>
</event>
<event>
 4    2  0.9070994E-007  0.6984877E+03  0.7818608E-02  0.1000353E+00
         -2   -1    0    0    0  501 -0.00000000000E+00  0.00000000000E+00  0.13793398346E+04  0.13793398346E+04  0.25500000000E-02 0.  1.
          2   -1    0    0  501    0  0.00000000000E+00 -0.00000000000E+00 -0.87696677417E+03  0.87696677418E+03  0.25500000000E-02 0. -1.
    8880023    1    1    2    0    0 -0.11603939601E+03  0.20151853020E+03 -0.71971016450E+03  0.10029296020E+04  0.65864270000E+03 0. -1.
    8880022    1    1    2    0    0  0.11603939601E+03 -0.20151853020E+03  0.12220832250E+04  0.12533770068E+04  0.15294330000E+03 0.  0.
<mgrwt>
<rscale>  0 0.55495571E+03</rscale>
<asrwt>0</asrwt>
<pdfrwt beam="1">  1        2 0.13491797E+00 0.69848770E+03</pdfrwt>
<pdfrwt beam="2">  1       -2 0.21220613E+00 0.69848770E+03</pdfrwt>
<totfact> 0.34796911E+00</totfact>
</mgrwt>
</event>
<event>
 4    2  0.9070994E-007  0.6758754E+03  0.7818608E-02  0.1011760E+00
         -2   -1    0    0    0  501 -0.00000000000E+00  0.00000000000E+00  0.54168342488E+03  0.54168342489E+03  0.25500000000E-02 0.  1.
          2   -1    0    0  501    0  0.00000000000E+00 -0.00000000000E+00 -0.45934530495E+03  0.45934530496E+03  0.25500000000E-02 0. -1.
    8880023    1    1    2    0    0 -0.13236075969E+03 -0.74013622618E+02 -0.14135687807E+03  0.69049935574E+03  0.65864270000E+03 0. -1.
    8880022    1    1    2    0    0  0.13236075969E+03  0.74013622618E+02  0.22369499800E+03  0.31052937411E+03  0.15294330000E+03 0.  1.
<mgrwt>
<rscale>  0 0.50781078E+03</rscale>
<asrwt>0</asrwt>
<pdfrwt beam="1">  1        2 0.70668509E-01 0.67587543E+03</pdfrwt>
<pdfrwt beam="2">  1       -2 0.83335911E-01 0.67587543E+03</pdfrwt>
<totfact> 0.86916777E+01</totfact>
</mgrwt>
</event>
<event>
 4    2  0.9070994E-007  0.1126065E+04  0.7818608E-02  0.9232576E-01
          2   -1    0    0  501    0  0.00000000000E+00  0.00000000000E+00  0.23202825767E+04  0.23202825767E+04  0.25500000000E-02 0. -1.
         -2   -1    0    0    0  501 -0.00000000000E+00 -0.00000000000E+00 -0.57168552102E+03  0.57168552102E+03  0.25500000000E-02 0.  1.
    8880023    1    1    2    0    0 -0.73270207472E+03  0.54530721282E+03  0.15962249329E+04  0.19534473449E+04  0.65864270000E+03 0.  0.
    8880022    1    1    2    0    0  0.73270207472E+03 -0.54530721282E+03  0.15237212279E+03  0.93852075282E+03  0.15294330000E+03 0.  0.
<mgrwt>
<rscale>  0 0.10723423E+04</rscale>
<asrwt>0</asrwt>
<pdfrwt beam="1">  1        2 0.35696655E+00 0.11260650E+04</pdfrwt>
<pdfrwt beam="2">  1       -2 0.87951619E-01 0.11260650E+04</pdfrwt>
<totfact> 0.48763845E+00</totfact>
</mgrwt>
</event>
<event>
 4    2  0.9070994E-007  0.7332657E+03  0.7818608E-02  0.9880016E-01
         -2   -1    0    0    0  501 -0.00000000000E+00  0.00000000000E+00  0.33925138689E+03  0.33925138690E+03  0.25500000000E-02 0.  1.
          2   -1    0    0  501    0  0.00000000000E+00 -0.00000000000E+00 -0.40442353132E+04  0.40442353132E+04  0.25500000000E-02 0. -1.
    8880023    1    1    2    0    0  0.32148878500E+03  0.22657789839E+02 -0.39058528230E+04  0.39740866744E+04  0.65864270000E+03 0. -1.
    8880022    1    1    2    0    0 -0.32148878500E+03 -0.22657789839E+02  0.20086889674E+03  0.40940002566E+03  0.15294330000E+03 0.  0.
<mgrwt>
<rscale>  0 0.61239630E+03</rscale>
<asrwt>0</asrwt>
<pdfrwt beam="1">  1        2 0.62219002E+00 0.73326572E+03</pdfrwt>
<pdfrwt beam="2">  1       -2 0.52192524E-01 0.73326572E+03</pdfrwt>
<totfact> 0.12204936E+00</totfact>
</mgrwt>
</event>
<event>
 4    2  0.9070994E-007  0.7858483E+03  0.7818608E-02  0.9742274E-01
          2   -1    0    0  501    0  0.00000000000E+00  0.00000000000E+00  0.31116534958E+04  0.31116534958E+04  0.25500000000E-02 0. -1.
         -2   -1    0    0    0  501 -0.00000000000E+00 -0.00000000000E+00 -0.25253202154E+03  0.25253202156E+03  0.25500000000E-02 0.  1.
    8880023    1    1    2    0    0  0.41590799960E+03 -0.10376856699E+03  0.27964442628E+04  0.29047647238E+04  0.65864270000E+03 0. -1.
    8880022    1    1    2    0    0 -0.41590799960E+03  0.10376856699E+03  0.62677211398E+02  0.45942079346E+03  0.15294330000E+03 0.  0.
<mgrwt>
<rscale>  0 0.68554630E+03</rscale>
<asrwt>0</asrwt>
<pdfrwt beam="1">  1        2 0.47871594E+00 0.78584832E+03</pdfrwt>
<pdfrwt beam="2">  1       -2 0.38851079E-01 0.78584832E+03</pdfrwt>
<totfact> 0.98169239E+00</totfact>
</mgrwt>
</event>
<event>
 4    2  0.9070994E-007  0.7523810E+03  0.7818608E-02  0.9825247E-01
          2   -1    0    0  501    0  0.00000000000E+00  0.00000000000E+00  0.69672018300E+03  0.69672018301E+03  0.25500000000E-02 0. -1.
         -2   -1    0    0    0  501 -0.00000000000E+00 -0.00000000000E+00 -0.53099117070E+03  0.53099117071E+03  0.25500000000E-02 0.  1.
    8880023    1    1    2    0    0 -0.35662308992E+03  0.71323141217E+02  0.30139213527E+03  0.81050258741E+03  0.65864270000E+03 0. -1.
    8880022    1    1    2    0    0  0.35662308992E+03 -0.71323141217E+02 -0.13566312297E+03  0.41720876631E+03  0.15294330000E+03 0. -1.
<mgrwt>
<rscale>  0 0.64025068E+03</rscale>
<asrwt>0</asrwt>
<pdfrwt beam="1">  1        2 0.10718772E+00 0.75238104E+03</pdfrwt>
<pdfrwt beam="2">  1       -2 0.81690949E-01 0.75238104E+03</pdfrwt>
<totfact> 0.55034621E+01</totfact>
</mgrwt>
</event>
<event>
 4    2  0.9070994E-007  0.1056182E+04  0.7818608E-02  0.9311486E-01
         -2   -1    0    0    0  501 -0.00000000000E+00  0.00000000000E+00  0.80378564146E+03  0.80378564147E+03  0.25500000000E-02 0.  1.
          2   -1    0    0  501    0  0.00000000000E+00 -0.00000000000E+00 -0.13464088911E+04  0.13464088911E+04  0.25500000000E-02 0. -1.
    8880023    1    1    2    0    0 -0.71936404530E+03  0.40524880155E+03 -0.73748247537E+03  0.12881777162E+04  0.65864270000E+03 0.  0.
    8880022    1    1    2    0    0  0.71936404530E+03 -0.40524880155E+03  0.19485922573E+03  0.86201681636E+03  0.15294330000E+03 0.  0.
<mgrwt>
<rscale>  0 0.99732287E+03</rscale>
<asrwt>0</asrwt>
<pdfrwt beam="1">  1        2 0.20713983E+00 0.10561825E+04</pdfrwt>
<pdfrwt beam="2">  1       -2 0.12365933E+00 0.10561825E+04</pdfrwt>
<totfact> 0.75576001E+00</totfact>
</mgrwt>
</event>
<event>
 4    2  0.9070994E-007  0.1454505E+04  0.7818608E-02  0.8942448E-01
         -2   -1    0    0    0  501 -0.00000000000E+00  0.00000000000E+00  0.15121273756E+04  0.15121273756E+04  0.25500000000E-02 0.  1.
          2   -1    0    0  501    0  0.00000000000E+00 -0.00000000000E+00 -0.21671312735E+04  0.21671312735E+04  0.25500000000E-02 0. -1.
    8880023    1    1    2    0    0 -0.10430764223E+04  0.77056249175E+03  0.85163438192E+03  0.16854869632E+04  0.65864270000E+03 0.  0.
    8880022    1    1    2    0    0  0.10430764223E+04 -0.77056249175E+03 -0.15066382798E+04  0.19937716860E+04  0.15294330000E+03 0.  0.
<mgrwt>
<rscale>  0 0.14158176E+04</rscale>
<asrwt>0</asrwt>
<pdfrwt beam="1">  1        2 0.33340481E+00 0.14545051E+04</pdfrwt>
<pdfrwt beam="2">  1       -2 0.23263498E+00 0.14545051E+04</pdfrwt>
<totfact> 0.41802594E-01</totfact>
</mgrwt>
</event>
<event>
 4    2  0.9070994E-007  0.7941698E+03  0.7818608E-02  0.9723547E-01
          2   -1    0    0  501    0  0.00000000000E+00  0.00000000000E+00  0.16178665355E+04  0.16178665355E+04  0.25500000000E-02 0. -1.
         -2   -1    0    0    0  501 -0.00000000000E+00 -0.00000000000E+00 -0.31509663898E+03  0.31509663899E+03  0.25500000000E-02 0.  1.
    8880023    1    1    2    0    0  0.29480718518E+03 -0.33163872194E+03  0.12209892000E+04  0.14565439750E+04  0.65864270000E+03 0.  0.
    8880022    1    1    2    0    0 -0.29480718518E+03  0.33163872194E+03  0.81780696547E+02  0.47641919951E+03  0.15294330000E+03 0.  0.
<mgrwt>
<rscale>  0 0.69631971E+03</rscale>
<asrwt>0</asrwt>
<pdfrwt beam="1">  1        2 0.24890255E+00 0.79416983E+03</pdfrwt>
<pdfrwt beam="2">  1       -2 0.48476406E-01 0.79416983E+03</pdfrwt>
<totfact> 0.44763619E+01</totfact>
</mgrwt>
</event>
<event>
 4    2  0.9070994E-007  0.1473977E+04  0.7818608E-02  0.8928234E-01
          2   -1    0    0  501    0  0.00000000000E+00  0.00000000000E+00  0.23564624944E+04  0.23564624944E+04  0.25500000000E-02 0. -1.
         -2   -1    0    0    0  501 -0.00000000000E+00 -0.00000000000E+00 -0.10976117214E+04  0.10976117214E+04  0.25500000000E-02 0.  1.
    8880023    1    1    2    0    0  0.12999329622E+04 -0.22129374995E+03 -0.19331024816E+03  0.14865986978E+04  0.65864270000E+03 0.  0.
    8880022    1    1    2    0    0 -0.12999329622E+04  0.22129374995E+03  0.14521610211E+04  0.19674755181E+04  0.15294330000E+03 0.  0.
<mgrwt>
<rscale>  0 0.14359009E+04</rscale>
<asrwt>0</asrwt>
<pdfrwt beam="1">  1        2 0.36253269E+00 0.14739765E+04</pdfrwt>
<pdfrwt beam="2">  1       -2 0.16886334E+00 0.14739765E+04</pdfrwt>
<totfact> 0.86364841E-01</totfact>
</mgrwt>
</event>
<event>
 4    2  0.9070994E-007  0.7650833E+03  0.7818608E-02  0.9792121E-01
          2   -1    0    0  501    0  0.00000000000E+00  0.00000000000E+00  0.12642232828E+04  0.12642232829E+04  0.25500000000E-02 0. -1.
         -2   -1    0    0    0  501 -0.00000000000E+00 -0.00000000000E+00 -0.34864390521E+03  0.34864390522E+03  0.25500000000E-02 0.  1.
    8880023    1    1    2    0    0  0.23290671249E+03 -0.31192426979E+03  0.91746665006E+03  0.11946118813E+04  0.65864270000E+03 0.  0.
    8880022    1    1    2    0    0 -0.23290671249E+03  0.31192426979E+03 -0.18872724208E+01  0.41825530674E+03  0.15294330000E+03 0.  0.
<mgrwt>
<rscale>  0 0.65787111E+03</rscale>
<asrwt>0</asrwt>
<pdfrwt beam="1">  1        2 0.19449589E+00 0.76508332E+03</pdfrwt>
<pdfrwt beam="2">  1       -2 0.53637525E-01 0.76508332E+03</pdfrwt>
<totfact> 0.57768098E+01</totfact>
</mgrwt>
</event>
<event>
 4    2  0.9070994E-007  0.6906994E+03  0.7818608E-02  0.1003822E+00
         -2   -1    0    0    0  501 -0.00000000000E+00  0.00000000000E+00  0.11127646528E+04  0.11127646528E+04  0.25500000000E-02 0.  1.
          2   -1    0    0  501    0  0.00000000000E+00 -0.00000000000E+00 -0.32576367691E+03  0.32576367692E+03  0.25500000000E-02 0. -1.
    8880023    1    1    2    0    0  0.95032868938E+01 -0.20776207831E+03  0.91591458568E+02  0.69674571774E+03  0.65864270000E+03 0. -1.
    8880022    1    1    2    0    0 -0.95032868938E+01  0.20776207831E+03  0.69540951736E+03  0.74178261202E+03  0.15294330000E+03 0.  0.
<mgrwt>
<rscale>  0 0.54005675E+03</rscale>
<asrwt>0</asrwt>
<pdfrwt beam="1">  1        2 0.50117489E-01 0.69069936E+03</pdfrwt>
<pdfrwt beam="2">  1       -2 0.17119456E+00 0.69069936E+03</pdfrwt>
<totfact> 0.21328421E+01</totfact>
</mgrwt>
</event>
<event>
 4    2  0.9070994E-007  0.6835387E+03  0.7818608E-02  0.1007389E+00
          2   -1    0    0  501    0  0.00000000000E+00  0.00000000000E+00  0.16479760460E+04  0.16479760460E+04  0.25500000000E-02 0. -1.
         -2   -1    0    0    0  501 -0.00000000000E+00 -0.00000000000E+00 -0.14057635642E+03  0.14057635644E+03  0.25500000000E-02 0.  1.
    8880023    1    1    2    0    0 -0.14262399081E+03  0.11433879852E+03  0.85924572873E+03  0.10979655697E+04  0.65864270000E+03 0.  0.
    8880022    1    1    2    0    0  0.14262399081E+03 -0.11433879852E+03  0.64815396084E+03  0.69058683275E+03  0.15294330000E+03 0.  0.
<mgrwt>
<rscale>  0 0.52525743E+03</rscale>
<asrwt>0</asrwt>
<pdfrwt beam="1">  1        2 0.25353478E+00 0.68353871E+03</pdfrwt>
<pdfrwt beam="2">  1       -2 0.21627131E-01 0.68353871E+03</pdfrwt>
<totfact> 0.19930077E+02</totfact>
</mgrwt>
</event>
<event>
 4    2  0.9070994E-007  0.7380314E+03  0.7818608E-02  0.9865719E-01
         -2   -1    0    0    0  501 -0.00000000000E+00  0.00000000000E+00  0.52353815603E+03  0.52353815604E+03  0.25500000000E-02 0.  1.
          2   -1    0    0  501    0  0.00000000000E+00 -0.00000000000E+00 -0.29261720156E+04  0.29261720156E+04  0.25500000000E-02 0. -1.
    8880023    1    1    2    0    0 -0.25911269023E+03  0.20914288028E+03 -0.28079435935E+04  0.29033149263E+04  0.65864270000E+03 0. -1.
    8880022    1    1    2    0    0  0.25911269023E+03 -0.20914288028E+03  0.40530973399E+03  0.54639524530E+03  0.15294330000E+03 0.  0.
<mgrwt>
<rscale>  0 0.61951842E+03</rscale>
<asrwt>0</asrwt>
<pdfrwt beam="1">  1        2 0.45018030E+00 0.73803139E+03</pdfrwt>
<pdfrwt beam="2">  1       -2 0.80544333E-01 0.73803139E+03</pdfrwt>
<totfact> 0.28119095E+00</totfact>
</mgrwt>
</event>
<event>
 4    2  0.9070994E-007  0.7679517E+03  0.7818608E-02  0.9784940E-01
         -2   -1    0    0    0  501 -0.00000000000E+00  0.00000000000E+00  0.11047368177E+03  0.11047368180E+03  0.25500000000E-02 0.  1.
          2   -1    0    0  501    0  0.00000000000E+00 -0.00000000000E+00 -0.32578703535E+04  0.32578703535E+04  0.25500000000E-02 0. -1.
    8880023    1    1    2    0    0 -0.22642422245E+03 -0.32353011363E+03 -0.22131377856E+04  0.23425901748E+04  0.65864270000E+03 0.  1.
    8880022    1    1    2    0    0  0.22642422245E+03  0.32353011363E+03 -0.93425888612E+03  0.10257538605E+04  0.15294330000E+03 0. -1.
<mgrwt>
<rscale>  0 0.66177059E+03</rscale>
<asrwt>0</asrwt>
<pdfrwt beam="1">  1        2 0.50121075E+00 0.76795174E+03</pdfrwt>
<pdfrwt beam="2">  1       -2 0.16995954E-01 0.76795174E+03</pdfrwt>
<totfact> 0.35745539E+01</totfact>
</mgrwt>
</event>
<event>
 4    2  0.9070994E-007  0.7377294E+03  0.7818608E-02  0.9866611E-01
         -2   -1    0    0    0  501 -0.00000000000E+00  0.00000000000E+00  0.45300859956E+03  0.45300859957E+03  0.25500000000E-02 0.  1.
          2   -1    0    0  501    0  0.00000000000E+00 -0.00000000000E+00 -0.10667718523E+04  0.10667718523E+04  0.25500000000E-02 0. -1.
    8880023    1    1    2    0    0 -0.29053383915E+03 -0.16132148940E+03 -0.81741168798E+03  0.11010933696E+04  0.65864270000E+03 0. -1.
    8880022    1    1    2    0    0  0.29053383915E+03  0.16132148940E+03  0.20364843529E+03  0.41868708225E+03  0.15294330000E+03 0.  0.
<mgrwt>
<rscale>  0 0.61907103E+03</rscale>
<asrwt>0</asrwt>
<pdfrwt beam="1">  1        2 0.16411875E+00 0.73772945E+03</pdfrwt>
<pdfrwt beam="2">  1       -2 0.69693631E-01 0.73772945E+03</pdfrwt>
<totfact> 0.43635189E+01</totfact>
</mgrwt>
</event>
<event>
 4    2  0.9070994E-007  0.7456183E+03  0.7818608E-02  0.9843873E-01
         -2   -1    0    0    0  501 -0.00000000000E+00  0.00000000000E+00  0.66721421097E+03  0.66721421097E+03  0.25500000000E-02 0.  1.
          2   -1    0    0  501    0  0.00000000000E+00 -0.00000000000E+00 -0.10538314446E+04  0.10538314446E+04  0.25500000000E-02 0. -1.
    8880023    1    1    2    0    0  0.14662099584E+03  0.31723618356E+03 -0.84352232624E+03  0.11258226475E+04  0.65864270000E+03 0. -1.
    8880022    1    1    2    0    0 -0.14662099584E+03 -0.31723618356E+03  0.45690509263E+03  0.59522300801E+03  0.15294330000E+03 0.  0.
<mgrwt>
<rscale>  0 0.63060269E+03</rscale>
<asrwt>0</asrwt>
<pdfrwt beam="1">  1        2 0.16212791E+00 0.74561835E+03</pdfrwt>
<pdfrwt beam="2">  1       -2 0.10264834E+00 0.74561835E+03</pdfrwt>
<totfact> 0.18386882E+01</totfact>
</mgrwt>
</event>
<event>
 4    2  0.9070994E-007  0.7228647E+03  0.7818608E-02  0.9913009E-01
         -2   -1    0    0    0  501 -0.00000000000E+00  0.00000000000E+00  0.78403820510E+03  0.78403820511E+03  0.25500000000E-02 0.  1.
          2   -1    0    0  501    0  0.00000000000E+00 -0.00000000000E+00 -0.36557322751E+03  0.36557322751E+03  0.25500000000E-02 0. -1.
    8880023    1    1    2    0    0 -0.15822676199E+03 -0.25236373720E+03  0.36750155893E+03  0.81091970388E+03  0.65864270000E+03 0.  1.
    8880022    1    1    2    0    0  0.15822676199E+03  0.25236373720E+03  0.50963418665E+02  0.33869172874E+03  0.15294330000E+03 0.  1.
<mgrwt>
<rscale>  0 0.59634920E+03</rscale>
<asrwt>0</asrwt>
<pdfrwt beam="1">  1        2 0.56242035E-01 0.72286470E+03</pdfrwt>
<pdfrwt beam="2">  1       -2 0.12062126E+00 0.72286470E+03</pdfrwt>
<totfact> 0.46723515E+01</totfact>
</mgrwt>
</event>
<event>
 4    2  0.1659658E-006  0.6815203E+03  0.7818608E-02  0.1008476E+00
          2   -1    0    0  501    0  0.00000000000E+00  0.00000000000E+00  0.22440955685E+04  0.22440955685E+04  0.25500000000E-02 0. -1.
         -2   -1    0    0    0  501 -0.00000000000E+00 -0.00000000000E+00 -0.10327470622E+04  0.10327470622E+04  0.25500000000E-02 0.  1.
    8880023    1    1    2    0    0  0.44471561671E+02  0.16935767237E+03  0.21782533312E+04  0.22823797936E+04  0.65864270000E+03 0. -1.
    8880022    1    1    2    0    0 -0.44471561671E+02 -0.16935767237E+03 -0.96690482492E+03  0.99446283714E+03  0.15294330000E+03 0.  0.
<mgrwt>
<rscale>  0 0.52084676E+03</rscale>
<asrwt>0</asrwt>
<pdfrwt beam="1">  1        2 0.34524547E+00 0.68152032E+03</pdfrwt>
<pdfrwt beam="2">  1       -2 0.15888417E+00 0.68152032E+03</pdfrwt>
<totfact> 0.13279466E+00</totfact>
</mgrwt>
</event>
<event>
 4    2  0.9070994E-007  0.7102922E+03  0.7818608E-02  0.9956918E-01
          2   -1    0    0  501    0  0.00000000000E+00  0.00000000000E+00  0.56561477037E+03  0.56561477038E+03  0.25500000000E-02 0. -1.
         -2   -1    0    0    0  501 -0.00000000000E+00 -0.00000000000E+00 -0.69262915488E+03  0.69262915489E+03  0.25500000000E-02 0.  1.
    8880023    1    1    2    0    0  0.25847412158E+03  0.62416854639E+02  0.26707289272E+03  0.75884311393E+03  0.65864270000E+03 0. -1.
    8880022    1    1    2    0    0 -0.25847412158E+03 -0.62416854639E+02 -0.39408727723E+03  0.49940081133E+03  0.15294330000E+03 0.  0.
<mgrwt>
<rscale>  0 0.57580361E+03</rscale>
<asrwt>0</asrwt>
<pdfrwt beam="1">  1        2 0.87017657E-01 0.71029215E+03</pdfrwt>
<pdfrwt beam="2">  1       -2 0.10655833E+00 0.71029215E+03</pdfrwt>
<totfact> 0.38360855E+01</totfact>
</mgrwt>
</event>
<event>
 4    2  0.9070994E-007  0.7365774E+03  0.7818608E-02  0.9870031E-01
          2   -1    0    0  501    0  0.00000000000E+00  0.00000000000E+00  0.15489325101E+04  0.15489325101E+04  0.25500000000E-02 0. -1.
         -2   -1    0    0    0  501 -0.00000000000E+00 -0.00000000000E+00 -0.30206095380E+03  0.30206095381E+03  0.25500000000E-02 0.  1.
    8880023    1    1    2    0    0  0.20961380842E+03  0.25455482582E+03  0.12894637158E+04  0.14850127907E+04  0.65864270000E+03 0.  0.
    8880022    1    1    2    0    0 -0.20961380842E+03 -0.25455482582E+03 -0.42592159549E+02  0.36598067312E+03  0.15294330000E+03 0.  0.
<mgrwt>
<rscale>  0 0.61735940E+03</rscale>
<asrwt>0</asrwt>
<pdfrwt beam="1">  1        2 0.23829731E+00 0.73657743E+03</pdfrwt>
<pdfrwt beam="2">  1       -2 0.46470915E-01 0.73657743E+03</pdfrwt>
<totfact> 0.53531654E+01</totfact>
</mgrwt>
</event>
<event>
 4    2  0.9070994E-007  0.7008732E+03  0.7818608E-02  0.9993598E-01
         -2   -1    0    0    0  501 -0.00000000000E+00  0.00000000000E+00  0.12804593957E+03  0.12804593960E+03  0.25500000000E-02 0.  1.
          2   -1    0    0  501    0  0.00000000000E+00 -0.00000000000E+00 -0.35398304109E+04  0.35398304109E+04  0.25500000000E-02 0. -1.
    8880023    1    1    2    0    0  0.17709698452E+03 -0.16139923222E+03 -0.32809071557E+04  0.33549329389E+04  0.65864270000E+03 0. -1.
    8880022    1    1    2    0    0 -0.17709698452E+03  0.16139923222E+03 -0.13087731563E+03  0.31294341158E+03  0.15294330000E+03 0.  0.
<mgrwt>
<rscale>  0 0.55931849E+03</rscale>
<asrwt>0</asrwt>
<pdfrwt beam="1">  1        2 0.54458922E+00 0.70087321E+03</pdfrwt>
<pdfrwt beam="2">  1       -2 0.19699378E-01 0.70087321E+03</pdfrwt>
<totfact> 0.18182183E+01</totfact>
</mgrwt>
</event>
<event>
 4    2  0.9070994E-007  0.1080259E+04  0.7818608E-02  0.9283360E-01
         -2   -1    0    0    0  501 -0.00000000000E+00  0.00000000000E+00  0.56376686167E+03  0.56376686167E+03  0.25500000000E-02 0.  1.
          2   -1    0    0  501    0  0.00000000000E+00 -0.00000000000E+00 -0.19612977523E+04  0.19612977523E+04  0.25500000000E-02 0. -1.
    8880023    1    1    2    0    0 -0.69549722382E+03  0.49943323623E+03 -0.12339927721E+04  0.16400299734E+04  0.65864270000E+03 0. -1.
    8880022    1    1    2    0    0  0.69549722382E+03 -0.49943323623E+03 -0.16353811854E+03  0.88503464058E+03  0.15294330000E+03 0.  0.
<mgrwt>
<rscale>  0 0.10232933E+04</rscale>
<asrwt>0</asrwt>
<pdfrwt beam="1">  1        2 0.30173811E+00 0.10802593E+04</pdfrwt>
<pdfrwt beam="2">  1       -2 0.86733364E-01 0.10802593E+04</pdfrwt>
<totfact> 0.80161285E+00</totfact>
</mgrwt>
</event>
<event>
 4    2  0.9070994E-007  0.6893328E+03  0.7818608E-02  0.1004471E+00
          2   -1    0    0  501    0  0.00000000000E+00  0.00000000000E+00  0.10661823725E+04  0.10661823725E+04  0.25500000000E-02 0. -1.
         -2   -1    0    0    0  501 -0.00000000000E+00 -0.00000000000E+00 -0.23037971548E+03  0.23037971550E+03  0.25500000000E-02 0.  1.
    8880023    1    1    2    0    0  0.11160427728E+03  0.17004122203E+03  0.77046536097E+03  0.10338261994E+04  0.65864270000E+03 0. -1.
    8880022    1    1    2    0    0 -0.11160427728E+03 -0.17004122203E+03  0.65337296090E+02  0.26273588862E+03  0.15294330000E+03 0.  0.
<mgrwt>
<rscale>  0 0.53732379E+03</rscale>
<asrwt>0</asrwt>
<pdfrwt beam="1">  1        2 0.16402806E+00 0.68933282E+03</pdfrwt>
<pdfrwt beam="2">  1       -2 0.35443033E-01 0.68933282E+03</pdfrwt>
<totfact> 0.17362528E+02</totfact>
</mgrwt>
</event>
<event>
 4    2  0.9070994E-007  0.6912691E+03  0.7818608E-02  0.1003555E+00
         -2   -1    0    0    0  501 -0.00000000000E+00  0.00000000000E+00  0.10154890921E+03  0.10154890924E+03  0.25500000000E-02 0.  1.
          2   -1    0    0  501    0  0.00000000000E+00 -0.00000000000E+00 -0.29977703334E+04  0.29977703334E+04  0.25500000000E-02 0. -1.
    8880023    1    1    2    0    0  0.29760972477E+02 -0.20774259386E+03 -0.26597161830E+04  0.27480798899E+04  0.65864270000E+03 0.  0.
    8880022    1    1    2    0    0 -0.29760972477E+02  0.20774259386E+03 -0.23650524113E+03  0.35123935270E+03  0.15294330000E+03 0.  0.
<mgrwt>
<rscale>  0 0.54118467E+03</rscale>
<asrwt>0</asrwt>
<pdfrwt beam="1">  1        2 0.46119537E+00 0.69126906E+03</pdfrwt>
<pdfrwt beam="2">  1       -2 0.15622911E-01 0.69126906E+03</pdfrwt>
<totfact> 0.60785188E+01</totfact>
</mgrwt>
</event>
<event>
 4    2  0.9070994E-007  0.8960878E+03  0.7818608E-02  0.9532341E-01
          2   -1    0    0  501    0  0.00000000000E+00  0.00000000000E+00  0.38393287474E+03  0.38393287475E+03  0.25500000000E-02 0. -1.
         -2   -1    0    0    0  501 -0.00000000000E+00 -0.00000000000E+00 -0.22419711136E+04  0.22419711136E+04  0.25500000000E-02 0.  1.
    8880023    1    1    2    0    0  0.31518360897E+03  0.51944437051E+03 -0.29732806037E+03  0.94412782142E+03  0.65864270000E+03 0. -1.
    8880022    1    1    2    0    0 -0.31518360897E+03 -0.51944437051E+03 -0.15607101785E+04  0.16817761669E+04  0.15294330000E+03 0.  0.
<mgrwt>
<rscale>  0 0.81940850E+03</rscale>
<asrwt>0</asrwt>
<pdfrwt beam="1">  1        2 0.59066597E-01 0.89608781E+03</pdfrwt>
<pdfrwt beam="2">  1       -2 0.34491862E+00 0.89608781E+03</pdfrwt>
<totfact> 0.14352855E+00</totfact>
</mgrwt>
</event>
<event>
 4    2  0.9070994E-007  0.7559494E+03  0.7818608E-02  0.9815709E-01
          2   -1    0    0  501    0  0.00000000000E+00  0.00000000000E+00  0.16482682321E+04  0.16482682321E+04  0.25500000000E-02 0. -1.
         -2   -1    0    0    0  501 -0.00000000000E+00 -0.00000000000E+00 -0.21315607554E+03  0.21315607555E+03  0.25500000000E-02 0.  1.
    8880023    1    1    2    0    0 -0.33816253040E+03  0.15262841253E+03  0.11197567441E+04  0.13510420798E+04  0.65864270000E+03 0.  1.
    8880022    1    1    2    0    0  0.33816253040E+03 -0.15262841253E+03  0.31535541246E+03  0.51038222780E+03  0.15294330000E+03 0.  0.
<mgrwt>
<rscale>  0 0.64526277E+03</rscale>
<asrwt>0</asrwt>
<pdfrwt beam="1">  1        2 0.25357973E+00 0.75594943E+03</pdfrwt>
<pdfrwt beam="2">  1       -2 0.32793242E-01 0.75594943E+03</pdfrwt>
<totfact> 0.92706394E+01</totfact>
</mgrwt>
</event>
<event>
 4    2  0.9070994E-007  0.8176634E+03  0.7818608E-02  0.9673830E-01
         -2   -1    0    0    0  501 -0.00000000000E+00  0.00000000000E+00  0.14572225125E+04  0.14572225125E+04  0.25500000000E-02 0.  1.
          2   -1    0    0  501    0  0.00000000000E+00 -0.00000000000E+00 -0.34648357938E+03  0.34648357939E+03  0.25500000000E-02 0. -1.
    8880023    1    1    2    0    0 -0.12613522946E+03 -0.46781733914E+03  0.98525259359E+03  0.12803499671E+04  0.65864270000E+03 0. -1.
    8880022    1    1    2    0    0  0.12613522946E+03  0.46781733914E+03  0.12548633956E+03  0.52335612478E+03  0.15294330000E+03 0.  1.
<mgrwt>
<rscale>  0 0.72596541E+03</rscale>
<asrwt>0</asrwt>
<pdfrwt beam="1">  1        2 0.53305167E-01 0.81766336E+03</pdfrwt>
<pdfrwt beam="2">  1       -2 0.22418808E+00 0.81766336E+03</pdfrwt>
<totfact> 0.88240644E+00</totfact>
</mgrwt>
</event>
<event>
 4    2  0.9070994E-007  0.6874965E+03  0.7818608E-02  0.1005366E+00
          2   -1    0    0  501    0  0.00000000000E+00  0.00000000000E+00  0.66950914470E+03  0.66950914471E+03  0.25500000000E-02 0. -1.
         -2   -1    0    0    0  501 -0.00000000000E+00 -0.00000000000E+00 -0.41129323232E+03  0.41129323233E+03  0.25500000000E-02 0.  1.
    8880023    1    1    2    0    0  0.10792462634E+03 -0.16490447746E+03  0.39845784980E+03  0.79461945357E+03  0.65864270000E+03 0.  0.
    8880022    1    1    2    0    0 -0.10792462634E+03  0.16490447746E+03 -0.14024193742E+03  0.28618292347E+03  0.15294330000E+03 0.  0.
<mgrwt>
<rscale>  0 0.53358712E+03</rscale>
<asrwt>0</asrwt>
<pdfrwt beam="1">  1        2 0.10300141E+00 0.68749649E+03</pdfrwt>
<pdfrwt beam="2">  1       -2 0.63275882E-01 0.68749649E+03</pdfrwt>
<totfact> 0.10180184E+02</totfact>
</mgrwt>
</event>
<event>
 4    2  0.9070994E-007  0.7084761E+03  0.7818608E-02  0.9963704E-01
          2   -1    0    0  501    0  0.00000000000E+00  0.00000000000E+00  0.71705989218E+03  0.71705989218E+03  0.25500000000E-02 0. -1.
         -2   -1    0    0    0  501 -0.00000000000E+00 -0.00000000000E+00 -0.44794479930E+03  0.44794479931E+03  0.25500000000E-02 0.  1.
    8880023    1    1    2    0    0  0.10602689894E+03  0.23850876063E+03 -0.68380619123E+02  0.71176839458E+03  0.65864270000E+03 0.  1.
    8880022    1    1    2    0    0 -0.10602689894E+03 -0.23850876063E+03  0.33749571200E+03  0.45323629690E+03  0.15294330000E+03 0.  0.
<mgrwt>
<rscale>  0 0.57270802E+03</rscale>
<asrwt>0</asrwt>
<pdfrwt beam="1">  1        2 0.11031691E+00 0.70847607E+03</pdfrwt>
<pdfrwt beam="2">  1       -2 0.68914585E-01 0.70847607E+03</pdfrwt>
<totfact> 0.77603722E+01</totfact>
</mgrwt>
</event>
<event>
 4    2  0.9070994E-007  0.6730316E+03  0.7818608E-02  0.1013577E+00
         -2   -1    0    0    0  501 -0.00000000000E+00  0.00000000000E+00  0.41594899591E+03  0.41594899592E+03  0.25500000000E-02 0.  1.
          2   -1    0    0  501    0  0.00000000000E+00 -0.00000000000E+00 -0.47513913402E+03  0.47513913403E+03  0.25500000000E-02 0. -1.
    8880023    1    1    2    0    0  0.68207587196E+02 -0.12045334144E+03 -0.10112185275E+03  0.68058586364E+03  0.65864270000E+03 0.  0.
    8880022    1    1    2    0    0 -0.68207587196E+02  0.12045334144E+03  0.41931714636E+02  0.21050226631E+03  0.15294330000E+03 0.  1.
<mgrwt>
<rscale>  0 0.50077515E+03</rscale>
<asrwt>0</asrwt>
<pdfrwt beam="1">  1        2 0.73098328E-01 0.67303157E+03</pdfrwt>
<pdfrwt beam="2">  1       -2 0.63992154E-01 0.67303157E+03</pdfrwt>
<totfact> 0.14954833E+02</totfact>
</mgrwt>
</event>
<event>
 4    2  0.9070994E-007  0.7642130E+03  0.7818608E-02  0.9794320E-01
         -2   -1    0    0    0  501 -0.00000000000E+00  0.00000000000E+00  0.19898292392E+03  0.19898292393E+03  0.25500000000E-02 0.  1.
          2   -1    0    0  501    0  0.00000000000E+00 -0.00000000000E+00 -0.35105176880E+04  0.35105176880E+04  0.25500000000E-02 0. -1.
    8880023    1    1    2    0    0 -0.14353053474E+03 -0.36001427055E+03 -0.31830190666E+04  0.32734739764E+04  0.65864270000E+03 0. -1.
    8880022    1    1    2    0    0  0.14353053474E+03  0.36001427055E+03 -0.12851569748E+03  0.43602663556E+03  0.15294330000E+03 0.  0.
<mgrwt>
<rscale>  0 0.65668251E+03</rscale>
<asrwt>0</asrwt>
<pdfrwt beam="1">  1        2 0.54007960E+00 0.76421299E+03</pdfrwt>
<pdfrwt beam="2">  1       -2 0.30612760E-01 0.76421299E+03</pdfrwt>
<totfact> 0.85066360E+00</totfact>
</mgrwt>
</event>
<event>
 4    2  0.9070994E-007  0.9687134E+03  0.7818608E-02  0.9423686E-01
          2   -1    0    0  501    0  0.00000000000E+00  0.00000000000E+00  0.76821855082E+03  0.76821855083E+03  0.25500000000E-02 0. -1.
         -2   -1    0    0    0  501 -0.00000000000E+00 -0.00000000000E+00 -0.93786301001E+03  0.93786301002E+03  0.25500000000E-02 0.  1.
    8880023    1    1    2    0    0  0.28321964577E+03 -0.65144615171E+03 -0.53102876779E+02  0.97016780926E+03  0.65864270000E+03 0.  1.
    8880022    1    1    2    0    0 -0.28321964577E+03  0.65144615171E+03 -0.11654158241E+03  0.73591375159E+03  0.15294330000E+03 0. -1.
<mgrwt>
<rscale>  0 0.90151799E+03</rscale>
<asrwt>0</asrwt>
<pdfrwt beam="1">  1        2 0.11818747E+00 0.96871341E+03</pdfrwt>
<pdfrwt beam="2">  1       -2 0.14428662E+00 0.96871341E+03</pdfrwt>
<totfact> 0.12001752E+01</totfact>
</mgrwt>
</event>
<event>
 4    2  0.9070994E-007  0.6684571E+03  0.7818608E-02  0.1016794E+00
         -2   -1    0    0    0  501 -0.00000000000E+00  0.00000000000E+00  0.24980240307E+03  0.24980240308E+03  0.25500000000E-02 0.  1.
          2   -1    0    0  501    0  0.00000000000E+00 -0.00000000000E+00 -0.26641971840E+04  0.26641971840E+04  0.25500000000E-02 0. -1.
    8880023    1    1    2    0    0  0.32969182371E+02 -0.10925999593E+03 -0.25776192486E+04  0.26628848850E+04  0.65864270000E+03 0. -1.
    8880022    1    1    2    0    0 -0.32969182371E+02  0.10925999593E+03  0.16322446772E+03  0.25111470203E+03  0.15294330000E+03 0.  0.
<mgrwt>
<rscale>  0 0.48861550E+03</rscale>
<asrwt>0</asrwt>
<pdfrwt beam="1">  1        2 0.40987647E+00 0.66845712E+03</pdfrwt>
<pdfrwt beam="2">  1       -2 0.38431141E-01 0.66845712E+03</pdfrwt>
<totfact> 0.18990897E+01</totfact>
</mgrwt>
</event>
<event>
 4    2  0.9070994E-007  0.7311553E+03  0.7818608E-02  0.9886503E-01
         -2   -1    0    0    0  501 -0.00000000000E+00  0.00000000000E+00  0.11214325822E+04  0.11214325822E+04  0.25500000000E-02 0.  1.
          2   -1    0    0  501    0  0.00000000000E+00 -0.00000000000E+00 -0.92662730874E+03  0.92662730875E+03  0.25500000000E-02 0. -1.
    8880023    1    1    2    0    0 -0.21757460264E+02  0.31670893704E+03 -0.74531487013E+03  0.10440701125E+04  0.65864270000E+03 0.  0.
    8880022    1    1    2    0    0  0.21757460264E+02 -0.31670893704E+03  0.94012014357E+03  0.10039897784E+04  0.15294330000E+03 0.  0.
<mgrwt>
<rscale>  0 0.60919896E+03</rscale>
<asrwt>0</asrwt>
<pdfrwt beam="1">  1        2 0.14255805E+00 0.73115535E+03</pdfrwt>
<pdfrwt beam="2">  1       -2 0.17252809E+00 0.73115535E+03</pdfrwt>
<totfact> 0.58818040E+00</totfact>
</mgrwt>
</event>
<event>
 4    2  0.9070994E-007  0.7669337E+03  0.7818608E-02  0.9787477E-01
          2   -1    0    0  501    0  0.00000000000E+00  0.00000000000E+00  0.33587219892E+03  0.33587219893E+03  0.25500000000E-02 0. -1.
         -2   -1    0    0    0  501 -0.00000000000E+00 -0.00000000000E+00 -0.11783493683E+04  0.11783493683E+04  0.25500000000E-02 0.  1.
    8880023    1    1    2    0    0  0.27685419117E+03 -0.27879895003E+03 -0.29157170456E+03  0.82048849040E+03  0.65864270000E+03 0. -1.
    8880022    1    1    2    0    0 -0.27685419117E+03  0.27879895003E+03 -0.55090546480E+03  0.69373307681E+03  0.15294330000E+03 0.  0.
<mgrwt>
<rscale>  0 0.66038971E+03</rscale>
<asrwt>0</asrwt>
<pdfrwt beam="1">  1        2 0.51672647E-01 0.76693370E+03</pdfrwt>
<pdfrwt beam="2">  1       -2 0.18128452E+00 0.76693370E+03</pdfrwt>
<totfact> 0.17430948E+01</totfact>
</mgrwt>
</event>
<event>
 4    2  0.9070994E-007  0.7266717E+03  0.7818608E-02  0.9900626E-01
         -2   -1    0    0    0  501 -0.00000000000E+00  0.00000000000E+00  0.52309341715E+03  0.52309341716E+03  0.25500000000E-02 0.  1.
          2   -1    0    0  501    0  0.00000000000E+00 -0.00000000000E+00 -0.18261897498E+04  0.18261897498E+04  0.25500000000E-02 0. -1.
    8880023    1    1    2    0    0  0.83583758833E+02  0.29539006727E+03 -0.16855789549E+04  0.18355457380E+04  0.65864270000E+03 0.  0.
    8880022    1    1    2    0    0 -0.83583758833E+02 -0.29539006727E+03  0.38248262229E+03  0.51373742900E+03  0.15294330000E+03 0.  0.
<mgrwt>
<rscale>  0 0.60230978E+03</rscale>
<asrwt>0</asrwt>
<pdfrwt beam="1">  1        2 0.28095227E+00 0.72667169E+03</pdfrwt>
<pdfrwt beam="2">  1       -2 0.80475911E-01 0.72667169E+03</pdfrwt>
<totfact> 0.11776178E+01</totfact>
</mgrwt>
</event>
<event>
 4    2  0.9070994E-007  0.6780018E+03  0.7818608E-02  0.1010477E+00
         -2   -1    0    0    0  501 -0.00000000000E+00  0.00000000000E+00  0.42388588386E+03  0.42388588387E+03  0.25500000000E-02 0.  1.
          2   -1    0    0  501    0  0.00000000000E+00 -0.00000000000E+00 -0.72018424818E+03  0.72018424819E+03  0.25500000000E-02 0. -1.
    8880023    1    1    2    0    0 -0.12982580842E+03  0.94981862771E+02 -0.50029398482E+03  0.84260344902E+03  0.65864270000E+03 0. -1.
    8880022    1    1    2    0    0  0.12982580842E+03 -0.94981862771E+02  0.20399562049E+03  0.30146668304E+03  0.15294330000E+03 0.  0.
<mgrwt>
<rscale>  0 0.51285396E+03</rscale>
<asrwt>0</asrwt>
<pdfrwt beam="1">  1        2 0.11079758E+00 0.67800184E+03</pdfrwt>
<pdfrwt beam="2">  1       -2 0.65213213E-01 0.67800184E+03</pdfrwt>
<totfact> 0.87140504E+01</totfact>
</mgrwt>
</event>
<event>
 4    2  0.9070994E-007  0.8107801E+03  0.7818608E-02  0.9687954E-01
          2   -1    0    0  501    0  0.00000000000E+00  0.00000000000E+00  0.88582668638E+03  0.88582668639E+03  0.25500000000E-02 0. -1.
         -2   -1    0    0    0  501 -0.00000000000E+00 -0.00000000000E+00 -0.59950780194E+03  0.59950780194E+03  0.25500000000E-02 0.  1.
    8880023    1    1    2    0    0  0.11657439518E+03 -0.45821887583E+03  0.49103607391E+03  0.94788225003E+03  0.65864270000E+03 0. -1.
    8880022    1    1    2    0    0 -0.11657439518E+03  0.45821887583E+03 -0.20471718947E+03  0.53745223830E+03  0.15294330000E+03 0.  0.
<mgrwt>
<rscale>  0 0.71738535E+03</rscale>
<asrwt>0</asrwt>
<pdfrwt beam="1">  1        2 0.13628103E+00 0.81078008E+03</pdfrwt>
<pdfrwt beam="2">  1       -2 0.92231970E-01 0.81078008E+03</pdfrwt>
<totfact> 0.30219451E+01</totfact>
</mgrwt>
</event>
<event>
 4    2  0.9070994E-007  0.7041150E+03  0.7818608E-02  0.9980540E-01
          2   -1    0    0  501    0  0.00000000000E+00  0.00000000000E+00  0.10518429023E+04  0.10518429023E+04  0.25500000000E-02 0. -1.
         -2   -1    0    0    0  501 -0.00000000000E+00 -0.00000000000E+00 -0.27383745600E+03  0.27383745602E+03  0.25500000000E-02 0.  1.
    8880023    1    1    2    0    0  0.70633766341E+02 -0.23870197450E+03  0.75536011468E+03  0.10326407268E+04  0.65864270000E+03 0. -1.
    8880022    1    1    2    0    0 -0.70633766341E+02  0.23870197450E+03  0.22645331632E+02  0.29303963151E+03  0.15294330000E+03 0.  0.
<mgrwt>
<rscale>  0 0.56511800E+03</rscale>
<asrwt>0</asrwt>
<pdfrwt beam="1">  1        2 0.16182198E+00 0.70411502E+03</pdfrwt>
<pdfrwt beam="2">  1       -2 0.42128839E-01 0.70411502E+03</pdfrwt>
<totfact> 0.12669030E+02</totfact>
</mgrwt>
</event>
<event>
 4    2  0.9070994E-007  0.8117469E+03  0.7818608E-02  0.9685950E-01
          2   -1    0    0  501    0  0.00000000000E+00  0.00000000000E+00  0.31696625912E+04  0.31696625912E+04  0.25500000000E-02 0. -1.
         -2   -1    0    0    0  501 -0.00000000000E+00 -0.00000000000E+00 -0.22712601322E+03  0.22712601323E+03  0.25500000000E-02 0.  1.
    8880023    1    1    2    0    0 -0.24664666247E+03 -0.40532485265E+03  0.27416939468E+04  0.28593388600E+04  0.65864270000E+03 0. -1.
    8880022    1    1    2    0    0  0.24664666247E+03  0.40532485265E+03  0.20084263124E+03  0.53744974446E+03  0.15294330000E+03 0.  0.
<mgrwt>
<rscale>  0 0.71859540E+03</rscale>
<asrwt>0</asrwt>
<pdfrwt beam="1">  1        2 0.48764044E+00 0.81174689E+03</pdfrwt>
<pdfrwt beam="2">  1       -2 0.34942461E-01 0.81174689E+03</pdfrwt>
<totfact> 0.11017741E+01</totfact>
</mgrwt>
</event>
<event>
 4    2  0.9070994E-007  0.7405333E+03  0.7818608E-02  0.9858396E-01
         -2   -1    0    0    0  501 -0.00000000000E+00  0.00000000000E+00  0.60649724130E+03  0.60649724130E+03  0.25500000000E-02 0.  1.
          2   -1    0    0  501    0  0.00000000000E+00 -0.00000000000E+00 -0.12400714931E+04  0.12400714931E+04  0.25500000000E-02 0. -1.
    8880023    1    1    2    0    0 -0.12219749943E+03  0.31566938119E+03 -0.10523541999E+04  0.12867940610E+04  0.65864270000E+03 0. -1.
    8880022    1    1    2    0    0  0.12219749943E+03 -0.31566938119E+03  0.41877994808E+03  0.55977467343E+03  0.15294330000E+03 0.  0.
<mgrwt>
<rscale>  0 0.62320646E+03</rscale>
<asrwt>0</asrwt>
<pdfrwt beam="1">  1        2 0.19078023E+00 0.74053332E+03</pdfrwt>
<pdfrwt beam="2">  1       -2 0.93307268E-01 0.74053332E+03</pdfrwt>
<totfact> 0.17790285E+01</totfact>
</mgrwt>
</event>
<event>
 4    2  0.9070994E-007  0.6620493E+03  0.7818608E-02  0.1022149E+00
         -2   -1    0    0    0  501 -0.00000000000E+00  0.00000000000E+00  0.47616810568E+03  0.47616810568E+03  0.25500000000E-02 0.  1.
          2   -1    0    0  501    0  0.00000000000E+00 -0.00000000000E+00 -0.10246051122E+04  0.10246051122E+04  0.25500000000E-02 0. -1.
    8880023    1    1    2    0    0 -0.34518536468E+02  0.57511475700E+02 -0.89665112631E+03  0.11145817816E+04  0.65864270000E+03 0. -1.
    8880022    1    1    2    0    0  0.34518536468E+02 -0.57511475700E+02  0.34821411983E+03  0.38619143629E+03  0.15294330000E+03 0.  0.
<mgrwt>
<rscale>  0 0.46919166E+03</rscale>
<asrwt>0</asrwt>
<pdfrwt beam="1">  1        2 0.15763156E+00 0.66204932E+03</pdfrwt>
<pdfrwt beam="2">  1       -2 0.73256632E-01 0.66204932E+03</pdfrwt>
<totfact> 0.41873573E+01</totfact>
</mgrwt>
</event>
<event>
 4    2  0.9070994E-007  0.1276590E+04  0.7818608E-02  0.9086044E-01
          2   -1    0    0  501    0  0.00000000000E+00  0.00000000000E+00  0.12114070716E+04  0.12114070716E+04  0.25500000000E-02 0. -1.
         -2   -1    0    0    0  501 -0.00000000000E+00 -0.00000000000E+00 -0.16962994142E+04  0.16962994142E+04  0.25500000000E-02 0.  1.
    8880023    1    1    2    0    0 -0.99521005566E+03 -0.45324175233E+03  0.55399020062E+03  0.13916129094E+04  0.65864270000E+03 0. -1.
    8880022    1    1    2    0    0  0.99521005566E+03  0.45324175233E+03 -0.10388825432E+04  0.15160935765E+04  0.15294330000E+03 0.  0.
<mgrwt>
<rscale>  0 0.12311208E+04</rscale>
<asrwt>0</asrwt>
<pdfrwt beam="1">  1        2 0.18637032E+00 0.12765897E+04</pdfrwt>
<pdfrwt beam="2">  1       -2 0.26096914E+00 0.12765897E+04</pdfrwt>
<totfact> 0.99028189E-01</totfact>
</mgrwt>
</event>
<event>
 4    2  0.9070994E-007  0.6627028E+03  0.7818608E-02  0.1021544E+00
          2   -1    0    0  501    0  0.00000000000E+00  0.00000000000E+00  0.87909929682E+03  0.87909929683E+03  0.25500000000E-02 0. -1.
         -2   -1    0    0    0  501 -0.00000000000E+00 -0.00000000000E+00 -0.47136599001E+03  0.47136599001E+03  0.25500000000E-02 0.  1.
    8880023    1    1    2    0    0  0.28794531797E+02  0.67347395577E+02  0.73022575836E+03  0.98610580629E+03  0.65864270000E+03 0. -1.
    8880022    1    1    2    0    0 -0.28794531797E+02 -0.67347395577E+02 -0.32249245154E+03  0.36435948056E+03  0.15294330000E+03 0.  0.
<mgrwt>
<rscale>  0 0.47133644E+03</rscale>
<asrwt>0</asrwt>
<pdfrwt beam="1">  1        2 0.13524604E+00 0.66270280E+03</pdfrwt>
<pdfrwt beam="2">  1       -2 0.72517846E-01 0.66270280E+03</pdfrwt>
<totfact> 0.53263144E+01</totfact>
</mgrwt>
</event>
<event>
 4    2  0.9070994E-007  0.7239552E+03  0.7818608E-02  0.9909423E-01
          2   -1    0    0  501    0  0.00000000000E+00  0.00000000000E+00  0.83581380250E+03  0.83581380250E+03  0.25500000000E-02 0. -1.
         -2   -1    0    0    0  501 -0.00000000000E+00 -0.00000000000E+00 -0.65923747319E+03  0.65923747319E+03  0.25500000000E-02 0.  1.
    8880023    1    1    2    0    0  0.21973400903E+03  0.20498271195E+03  0.60946451886E+03  0.94633934344E+03  0.65864270000E+03 0. -1.
    8880022    1    1    2    0    0 -0.21973400903E+03 -0.20498271195E+03 -0.43288818956E+03  0.54871193225E+03  0.15294330000E+03 0.  0.
<mgrwt>
<rscale>  0 0.59806763E+03</rscale>
<asrwt>0</asrwt>
<pdfrwt beam="1">  1        2 0.12858674E+00 0.72395521E+03</pdfrwt>
<pdfrwt beam="2">  1       -2 0.10142115E+00 0.72395521E+03</pdfrwt>
<totfact> 0.26381967E+01</totfact>
</mgrwt>
</event>
<event>
 4    2  0.9070994E-007  0.6827066E+03  0.7818608E-02  0.1007832E+00
         -2   -1    0    0    0  501 -0.00000000000E+00  0.00000000000E+00  0.20276000563E+03  0.20276000564E+03  0.25500000000E-02 0.  1.
          2   -1    0    0  501    0  0.00000000000E+00 -0.00000000000E+00 -0.28231882861E+04  0.28231882861E+04  0.25500000000E-02 0. -1.
    8880023    1    1    2    0    0  0.17569477978E+03 -0.37543381830E+02 -0.26937160650E+04  0.27788836979E+04  0.65864270000E+03 0. -1.
    8880022    1    1    2    0    0 -0.17569477978E+03  0.37543381830E+02  0.73287784543E+02  0.24706459386E+03  0.15294330000E+03 0.  0.
<mgrwt>
<rscale>  0 0.52345345E+03</rscale>
<asrwt>0</asrwt>
<pdfrwt beam="1">  1        2 0.43433663E+00 0.68270665E+03</pdfrwt>
<pdfrwt beam="2">  1       -2 0.31193849E-01 0.68270665E+03</pdfrwt>
<totfact> 0.22727885E+01</totfact>
</mgrwt>
</event>
<event>
 4    2  0.9070994E-007  0.7889082E+03  0.7818608E-02  0.9735313E-01
          2   -1    0    0  501    0  0.00000000000E+00  0.00000000000E+00  0.25152178822E+04  0.25152178822E+04  0.25500000000E-02 0. -1.
         -2   -1    0    0    0  501 -0.00000000000E+00 -0.00000000000E+00 -0.33945762682E+03  0.33945762683E+03  0.25500000000E-02 0.  1.
    8880023    1    1    2    0    0  0.22435004337E+02 -0.43366194863E+03  0.22536518283E+04  0.23877442879E+04  0.65864270000E+03 0. -1.
    8880022    1    1    2    0    0 -0.22435004337E+02  0.43366194863E+03 -0.77891572903E+02  0.46693122111E+03  0.15294330000E+03 0.  0.
<mgrwt>
<rscale>  0 0.68952658E+03</rscale>
<asrwt>0</asrwt>
<pdfrwt beam="1">  1        2 0.38695658E+00 0.78890825E+03</pdfrwt>
<pdfrwt beam="2">  1       -2 0.52224253E-01 0.78890825E+03</pdfrwt>
<totfact> 0.12299566E+01</totfact>
</mgrwt>
</event>
<event>
 4    2  0.9070994E-007  0.6601291E+03  0.7818608E-02  0.1024025E+00
          2   -1    0    0  501    0  0.00000000000E+00  0.00000000000E+00  0.21176346675E+04  0.21176346675E+04  0.25500000000E-02 0. -1.
         -2   -1    0    0    0  501 -0.00000000000E+00 -0.00000000000E+00 -0.11837114438E+03  0.11837114441E+03  0.25500000000E-02 0.  1.
    8880023    1    1    2    0    0 -0.17299337795E+02 -0.40754099661E+02  0.19652963487E+04  0.20732004506E+04  0.65864270000E+03 0. -1.
    8880022    1    1    2    0    0  0.17299337795E+02  0.40754099661E+02  0.33967174412E+02  0.16280536134E+03  0.15294330000E+03 0.  0.
<mgrwt>
<rscale>  0 0.46261826E+03</rscale>
<asrwt>0</asrwt>
<pdfrwt beam="1">  1        2 0.32578992E+00 0.66012906E+03</pdfrwt>
<pdfrwt beam="2">  1       -2 0.18210947E-01 0.66012906E+03</pdfrwt>
<totfact> 0.14971474E+02</totfact>
</mgrwt>
</event>
<event>
 4    2  0.9070994E-007  0.6840525E+03  0.7818608E-02  0.1007118E+00
         -2   -1    0    0    0  501 -0.00000000000E+00  0.00000000000E+00  0.15093444975E+04  0.15093444975E+04  0.25500000000E-02 0.  1.
          2   -1    0    0  501    0  0.00000000000E+00 -0.00000000000E+00 -0.25341837555E+03  0.25341837556E+03  0.25500000000E-02 0. -1.
    8880023    1    1    2    0    0  0.67535018519E+02 -0.17192024642E+03  0.24945724458E+03  0.72811858443E+03  0.65864270000E+03 0. -1.
    8880022    1    1    2    0    0 -0.67535018519E+02  0.17192024642E+03  0.10064688774E+04  0.10346442886E+04  0.15294330000E+03 0.  0.
<mgrwt>
<rscale>  0 0.52636163E+03</rscale>
<asrwt>0</asrwt>
<pdfrwt beam="1">  1        2 0.38987441E-01 0.68405245E+03</pdfrwt>
<pdfrwt beam="2">  1       -2 0.23220685E+00 0.68405245E+03</pdfrwt>
<totfact> 0.11305186E+01</totfact>
</mgrwt>
</event>
<event>
 4    2  0.9070994E-007  0.8072818E+03  0.7818608E-02  0.9695267E-01
         -2   -1    0    0    0  501 -0.00000000000E+00  0.00000000000E+00  0.22376350315E+04  0.22376350315E+04  0.25500000000E-02 0.  1.
          2   -1    0    0  501    0  0.00000000000E+00 -0.00000000000E+00 -0.44232981589E+03  0.44232981590E+03  0.25500000000E-02 0. -1.
    8880023    1    1    2    0    0 -0.31426706004E+03 -0.34515197498E+03 -0.11719398772E+02  0.80736684440E+03  0.65864270000E+03 0. -1.
    8880022    1    1    2    0    0  0.31426706004E+03  0.34515197498E+03  0.18070246144E+04  0.18725980030E+04  0.15294330000E+03 0.  0.
<mgrwt>
<rscale>  0 0.71299294E+03</rscale>
<asrwt>0</asrwt>
<pdfrwt beam="1">  1        2 0.68050741E-01 0.80728178E+03</pdfrwt>
<pdfrwt beam="2">  1       -2 0.34425154E+00 0.80728178E+03</pdfrwt>
<totfact> 0.12502999E+00</totfact>
</mgrwt>
</event>
<event>
 4    2  0.9070994E-007  0.7670385E+03  0.7818608E-02  0.9787215E-01
          2   -1    0    0  501    0  0.00000000000E+00  0.00000000000E+00  0.23988598395E+04  0.23988598395E+04  0.25500000000E-02 0. -1.
         -2   -1    0    0    0  501 -0.00000000000E+00 -0.00000000000E+00 -0.29882413317E+03  0.29882413318E+03  0.25500000000E-02 0.  1.
    8880023    1    1    2    0    0  0.39191617395E+03 -0.30653360753E+02  0.21406424805E+04  0.22739169623E+04  0.65864270000E+03 0. -1.
    8880022    1    1    2    0    0 -0.39191617395E+03  0.30653360753E+02 -0.40606774189E+02  0.42376701034E+03  0.15294330000E+03 0.  0.
<mgrwt>
<rscale>  0 0.66053207E+03</rscale>
<asrwt>0</asrwt>
<pdfrwt beam="1">  1        2 0.36905536E+00 0.76703854E+03</pdfrwt>
<pdfrwt beam="2">  1       -2 0.45972944E-01 0.76703854E+03</pdfrwt>
<totfact> 0.18594016E+01</totfact>
</mgrwt>
</event>
<event>
 4    2  0.9070994E-007  0.7034734E+03  0.7818608E-02  0.9983086E-01
         -2   -1    0    0    0  501 -0.00000000000E+00  0.00000000000E+00  0.45795560904E+03  0.45795560905E+03  0.25500000000E-02 0.  1.
          2   -1    0    0  501    0  0.00000000000E+00 -0.00000000000E+00 -0.74792740124E+03  0.74792740124E+03  0.25500000000E-02 0. -1.
    8880023    1    1    2    0    0 -0.19648265684E+03 -0.14986385413E+03 -0.48627397939E+03  0.85518255274E+03  0.65864270000E+03 0.  0.
    8880022    1    1    2    0    0  0.19648265684E+03  0.14986385413E+03  0.19630218720E+03  0.35070045755E+03  0.15294330000E+03 0.  0.
<mgrwt>
<rscale>  0 0.56398135E+03</rscale>
<asrwt>0</asrwt>
<pdfrwt beam="1">  1        2 0.11506575E+00 0.70347339E+03</pdfrwt>
<pdfrwt beam="2">  1       -2 0.70454709E-01 0.70347339E+03</pdfrwt>
<totfact> 0.70097804E+01</totfact>
</mgrwt>
</event>
<event>
 4    2  0.9070994E-007  0.7609368E+03  0.7818608E-02  0.9802688E-01
         -2   -1    0    0    0  501 -0.00000000000E+00  0.00000000000E+00  0.38438724671E+03  0.38438724672E+03  0.25500000000E-02 0.  1.
          2   -1    0    0  501    0  0.00000000000E+00 -0.00000000000E+00 -0.21688931627E+04  0.21688931627E+04  0.25500000000E-02 0. -1.
    8880023    1    1    2    0    0 -0.35901528087E+03  0.12775994621E+03 -0.19631657146E+04  0.21054796140E+04  0.65864270000E+03 0. -1.
    8880022    1    1    2    0    0  0.35901528087E+03 -0.12775994621E+03  0.17865979859E+03  0.44780079544E+03  0.15294330000E+03 0.  0.
<mgrwt>
<rscale>  0 0.65218474E+03</rscale>
<asrwt>0</asrwt>
<pdfrwt beam="1">  1        2 0.33367586E+00 0.76093678E+03</pdfrwt>
<pdfrwt beam="2">  1       -2 0.59136501E-01 0.76093678E+03</pdfrwt>
<totfact> 0.14889454E+01</totfact>
</mgrwt>
</event>
<event>
 4    2  0.9070994E-007  0.8801302E+03  0.7818608E-02  0.9558713E-01
         -2   -1    0    0    0  501 -0.00000000000E+00  0.00000000000E+00  0.15488171153E+04  0.15488171153E+04  0.25500000000E-02 0.  1.
          2   -1    0    0  501    0  0.00000000000E+00 -0.00000000000E+00 -0.53382751367E+03  0.53382751367E+03  0.25500000000E-02 0. -1.
    8880023    1    1    2    0    0 -0.25699938346E+03  0.52418535444E+03 -0.24719832112E+02  0.88047728266E+03  0.65864270000E+03 0. -1.
    8880022    1    1    2    0    0  0.25699938346E+03 -0.52418535444E+03  0.10397094337E+04  0.12021673463E+04  0.15294330000E+03 0.  0.
<mgrwt>
<rscale>  0 0.80090180E+03</rscale>
<asrwt>0</asrwt>
<pdfrwt beam="1">  1        2 0.82127312E-01 0.88013020E+03</pdfrwt>
<pdfrwt beam="2">  1       -2 0.23827955E+00 0.88013020E+03</pdfrwt>
<totfact> 0.43764618E+00</totfact>
</mgrwt>
</event>
<event>
 4    2  0.9070994E-007  0.7296385E+03  0.7818608E-02  0.9891227E-01
          2   -1    0    0  501    0  0.00000000000E+00  0.00000000000E+00  0.33275430942E+03  0.33275430943E+03  0.25500000000E-02 0. -1.
         -2   -1    0    0    0  501 -0.00000000000E+00 -0.00000000000E+00 -0.10965366759E+04  0.10965366759E+04  0.25500000000E-02 0.  1.
    8880023    1    1    2    0    0  0.30773318573E+03  0.62147922521E+02 -0.18403636983E+03  0.75249031194E+03  0.65864270000E+03 0.  0.
    8880022    1    1    2    0    0 -0.30773318573E+03 -0.62147922521E+02 -0.57974599667E+03  0.67680067342E+03  0.15294330000E+03 0.  0.
<mgrwt>
<rscale>  0 0.60688328E+03</rscale>
<asrwt>0</asrwt>
<pdfrwt beam="1">  1        2 0.51192971E-01 0.72963846E+03</pdfrwt>
<pdfrwt beam="2">  1       -2 0.16869795E+00 0.72963846E+03</pdfrwt>
<totfact> 0.21622843E+01</totfact>
</mgrwt>
</event>
<event>
 4    2  0.9070994E-007  0.9201661E+03  0.7818608E-02  0.9494404E-01
          2   -1    0    0  501    0  0.00000000000E+00  0.00000000000E+00  0.63246325984E+03  0.63246325985E+03  0.25500000000E-02 0. -1.
         -2   -1    0    0    0  501 -0.00000000000E+00 -0.00000000000E+00 -0.14897571052E+04  0.14897571052E+04  0.25500000000E-02 0.  1.
    8880023    1    1    2    0    0 -0.13371412406E+03  0.62850296211E+03  0.13517843175E+03  0.93004239421E+03  0.65864270000E+03 0. -1.
    8880022    1    1    2    0    0  0.13371412406E+03 -0.62850296211E+03 -0.99247227715E+03  0.11921779709E+04  0.15294330000E+03 0.  0.
<mgrwt>
<rscale>  0 0.84697622E+03</rscale>
<asrwt>0</asrwt>
<pdfrwt beam="1">  1        2 0.97302041E-01 0.92016610E+03</pdfrwt>
<pdfrwt beam="2">  1       -2 0.22919340E+00 0.92016610E+03</pdfrwt>
<totfact> 0.40418912E+00</totfact>
</mgrwt>
</event>
<event>
 4    2  0.9070994E-007  0.7089080E+03  0.7818608E-02  0.9962078E-01
         -2   -1    0    0    0  501 -0.00000000000E+00  0.00000000000E+00  0.46658394886E+03  0.46658394887E+03  0.25500000000E-02 0.  1.
          2   -1    0    0  501    0  0.00000000000E+00 -0.00000000000E+00 -0.17956250011E+04  0.17956250011E+04  0.25500000000E-02 0. -1.
    8880023    1    1    2    0    0 -0.24948855786E+03  0.80596761616E+02 -0.16648827319E+04  0.18095262075E+04  0.65864270000E+03 0. -1.
    8880022    1    1    2    0    0  0.24948855786E+03 -0.80596761616E+02  0.33584167967E+03  0.45268274244E+03  0.15294330000E+03 0.  0.
<mgrwt>
<rscale>  0 0.57344761E+03</rscale>
<asrwt>0</asrwt>
<pdfrwt beam="1">  1        2 0.27625000E+00 0.70890802E+03</pdfrwt>
<pdfrwt beam="2">  1       -2 0.71782147E-01 0.70890802E+03</pdfrwt>
<totfact> 0.15815775E+01</totfact>
</mgrwt>
</event>
<event>
 4    2  0.9070994E-007  0.9476848E+03  0.7818608E-02  0.9453453E-01
          2   -1    0    0  501    0  0.00000000000E+00  0.00000000000E+00  0.20051106891E+04  0.20051106891E+04  0.25500000000E-02 0. -1.
         -2   -1    0    0    0  501 -0.00000000000E+00 -0.00000000000E+00 -0.85640531404E+03  0.85640531405E+03  0.25500000000E-02 0.  1.
    8880023    1    1    2    0    0 -0.62120475562E+03  0.28000157741E+03  0.17169899521E+04  0.19611631583E+04  0.65864270000E+03 0. -1.
    8880022    1    1    2    0    0  0.62120475562E+03 -0.28000157741E+03 -0.56828457700E+03  0.90035284485E+03  0.15294330000E+03 0.  1.
<mgrwt>
<rscale>  0 0.87804278E+03</rscale>
<asrwt>0</asrwt>
<pdfrwt beam="1">  1        2 0.30847856E+00 0.94768478E+03</pdfrwt>
<pdfrwt beam="2">  1       -2 0.13175467E+00 0.94768478E+03</pdfrwt>
<totfact> 0.28016354E+00</totfact>
</mgrwt>
</event>
<event>
 4    2  0.9070994E-007  0.1182410E+04  0.7818608E-02  0.9174414E-01
         -2   -1    0    0    0  501 -0.00000000000E+00  0.00000000000E+00  0.65043874957E+03  0.65043874958E+03  0.25500000000E-02 0.  1.
          2   -1    0    0  501    0  0.00000000000E+00 -0.00000000000E+00 -0.23219289746E+04  0.23219289746E+04  0.25500000000E-02 0. -1.
    8880023    1    1    2    0    0 -0.62185247460E+03  0.75998794279E+03 -0.15812691393E+04  0.19744630841E+04  0.65864270000E+03 0.  0.
    8880022    1    1    2    0    0  0.62185247460E+03 -0.75998794279E+03 -0.90221085728E+02  0.99790464007E+03  0.15294330000E+03 0.  0.
<mgrwt>
<rscale>  0 0.11321465E+04</rscale>
<asrwt>0</asrwt>
<pdfrwt beam="1">  1        2 0.35721984E+00 0.11824096E+04</pdfrwt>
<pdfrwt beam="2">  1       -2 0.10006750E+00 0.11824096E+04</pdfrwt>
<totfact> 0.35726177E+00</totfact>
</mgrwt>
</event>
<event>
 4    2  0.9070994E-007  0.1019314E+04  0.7818608E-02  0.9356715E-01
          2   -1    0    0  501    0  0.00000000000E+00  0.00000000000E+00  0.15527529061E+04  0.15527529061E+04  0.25500000000E-02 0. -1.
         -2   -1    0    0    0  501 -0.00000000000E+00 -0.00000000000E+00 -0.89636564544E+03  0.89636564544E+03  0.25500000000E-02 0.  1.
    8880023    1    1    2    0    0  0.29573436118E+03 -0.71953531584E+03  0.11330147930E+04  0.15240480998E+04  0.65864270000E+03 0.  0.
    8880022    1    1    2    0    0 -0.29573436118E+03  0.71953531584E+03 -0.47662753232E+03  0.92507045175E+03  0.15294330000E+03 0.  0.
<mgrwt>
<rscale>  0 0.95725148E+03</rscale>
<asrwt>0</asrwt>
<pdfrwt beam="1">  1        2 0.23888506E+00 0.10193135E+04</pdfrwt>
<pdfrwt beam="2">  1       -2 0.13790241E+00 0.10193135E+04</pdfrwt>
<totfact> 0.43888786E+00</totfact>
</mgrwt>
</event>
<event>
 4    2  0.9070994E-007  0.7867441E+03  0.7818608E-02  0.9740227E-01
         -2   -1    0    0    0  501 -0.00000000000E+00  0.00000000000E+00  0.17185878445E+03  0.17185878447E+03  0.25500000000E-02 0.  1.
          2   -1    0    0  501    0  0.00000000000E+00 -0.00000000000E+00 -0.30517985480E+04  0.30517985480E+04  0.25500000000E-02 0. -1.
    8880023    1    1    2    0    0 -0.41546307638E+03 -0.11201085479E+03 -0.25265874073E+04  0.26462445338E+04  0.65864270000E+03 0. -1.
    8880022    1    1    2    0    0  0.41546307638E+03  0.11201085479E+03 -0.35335235624E+03  0.57741279870E+03  0.15294330000E+03 0.  0.
<mgrwt>
<rscale>  0 0.68671378E+03</rscale>
<asrwt>0</asrwt>
<pdfrwt beam="1">  1        2 0.46950743E+00 0.78674405E+03</pdfrwt>
<pdfrwt beam="2">  1       -2 0.26439815E-01 0.78674405E+03</pdfrwt>
<totfact> 0.22039361E+01</totfact>
</mgrwt>
</event>
<event>
 4    2  0.9070994E-007  0.8440291E+03  0.7818608E-02  0.9622629E-01
         -2   -1    0    0    0  501 -0.00000000000E+00  0.00000000000E+00  0.32504806804E+03  0.32504806805E+03  0.25500000000E-02 0.  1.
          2   -1    0    0  501    0  0.00000000000E+00 -0.00000000000E+00 -0.31383863414E+04  0.31383863414E+04  0.25500000000E-02 0. -1.
    8880023    1    1    2    0    0 -0.46996835818E+03  0.24021810367E+03 -0.27884134004E+04  0.29133545086E+04  0.65864270000E+03 0. -1.
    8880022    1    1    2    0    0  0.46996835818E+03 -0.24021810367E+03 -0.24924872978E+02  0.55007990086E+03  0.15294330000E+03 0.  1.
<mgrwt>
<rscale>  0 0.75816365E+03</rscale>
<asrwt>0</asrwt>
<pdfrwt beam="1">  1        2 0.48282865E+00 0.84402915E+03</pdfrwt>
<pdfrwt beam="2">  1       -2 0.50007397E-01 0.84402915E+03</pdfrwt>
<totfact> 0.56587826E+00</totfact>
</mgrwt>
</event>
<event>
 4    2  0.9070994E-007  0.1117764E+04  0.7818608E-02  0.9241532E-01
          2   -1    0    0  501    0  0.00000000000E+00  0.00000000000E+00  0.17286350104E+04  0.17286350104E+04  0.25500000000E-02 0. -1.
         -2   -1    0    0    0  501 -0.00000000000E+00 -0.00000000000E+00 -0.64673128160E+03  0.64673128161E+03  0.25500000000E-02 0.  1.
    8880023    1    1    2    0    0  0.82891931143E+03 -0.35843807206E+03  0.91458898501E+03  0.14442535422E+04  0.65864270000E+03 0.  0.
    8880022    1    1    2    0    0 -0.82891931143E+03  0.35843807206E+03  0.16731474377E+03  0.93111274981E+03  0.15294330000E+03 0.  0.
<mgrwt>
<rscale>  0 0.10634846E+04</rscale>
<asrwt>0</asrwt>
<pdfrwt beam="1">  1        2 0.26594385E+00 0.11177635E+04</pdfrwt>
<pdfrwt beam="2">  1       -2 0.99497121E-01 0.11177635E+04</pdfrwt>
<totfact> 0.77873536E+00</totfact>
</mgrwt>
</event>
<event>
 4    2  0.9070994E-007  0.7823073E+03  0.7818608E-02  0.9750445E-01
         -2   -1    0    0    0  501 -0.00000000000E+00  0.00000000000E+00  0.24233390127E+03  0.24233390128E+03  0.25500000000E-02 0.  1.
          2   -1    0    0  501    0  0.00000000000E+00 -0.00000000000E+00 -0.17245503834E+04  0.17245503834E+04  0.25500000000E-02 0. -1.
    8880023    1    1    2    0    0  0.12493179849E+03 -0.40322029377E+03 -0.12129498422E+04  0.14433475277E+04  0.65864270000E+03 0.  1.
    8880022    1    1    2    0    0 -0.12493179849E+03  0.40322029377E+03 -0.26926663993E+03  0.52353675704E+03  0.15294330000E+03 0.  0.
<mgrwt>
<rscale>  0 0.68091148E+03</rscale>
<asrwt>0</asrwt>
<pdfrwt beam="1">  1        2 0.26531544E+00 0.78230733E+03</pdfrwt>
<pdfrwt beam="2">  1       -2 0.37282140E-01 0.78230733E+03</pdfrwt>
<totfact> 0.65768957E+01</totfact>
</mgrwt>
</event>
<event>
 4    2  0.9070994E-007  0.9086510E+03  0.7818608E-02  0.9512284E-01
         -2   -1    0    0    0  501 -0.00000000000E+00  0.00000000000E+00  0.60086628350E+03  0.60086628350E+03  0.25500000000E-02 0.  1.
          2   -1    0    0  501    0  0.00000000000E+00 -0.00000000000E+00 -0.27960795257E+04  0.27960795257E+04  0.25500000000E-02 0. -1.
    8880023    1    1    2    0    0 -0.63720710903E+02  0.62271672508E+03 -0.25174994842E+04  0.26764622747E+04  0.65864270000E+03 0.  0.
    8880022    1    1    2    0    0  0.63720710903E+02 -0.62271672508E+03  0.32228624200E+03  0.72048353450E+03  0.15294330000E+03 0.  0.
<mgrwt>
<rscale>  0 0.83384183E+03</rscale>
<asrwt>0</asrwt>
<pdfrwt beam="1">  1        2 0.43016607E+00 0.90865101E+03</pdfrwt>
<pdfrwt beam="2">  1       -2 0.92440969E-01 0.90865101E+03</pdfrwt>
<totfact> 0.23786657E+00</totfact>
</mgrwt>
</event>
<event>
 4    2  0.9070994E-007  0.9564165E+03  0.7818608E-02  0.9440942E-01
          2   -1    0    0  501    0  0.00000000000E+00  0.00000000000E+00  0.17080808518E+04  0.17080808518E+04  0.25500000000E-02 0. -1.
         -2   -1    0    0    0  501 -0.00000000000E+00 -0.00000000000E+00 -0.10466520006E+04  0.10466520006E+04  0.25500000000E-02 0.  1.
    8880023    1    1    2    0    0 -0.30571033445E+03 -0.62246564622E+03  0.14222885079E+04  0.17139536445E+04  0.65864270000E+03 0. -1.
    8880022    1    1    2    0    0  0.30571033445E+03  0.62246564622E+03 -0.76085965673E+03  0.10407792079E+04  0.15294330000E+03 0.  0.
<mgrwt>
<rscale>  0 0.88781589E+03</rscale>
<asrwt>0</asrwt>
<pdfrwt beam="1">  1        2 0.26278167E+00 0.95641649E+03</pdfrwt>
<pdfrwt beam="2">  1       -2 0.16102339E+00 0.95641649E+03</pdfrwt>
<totfact> 0.24025973E+00</totfact>
</mgrwt>
</event>
<event>
 4    2  0.9070994E-007  0.7019763E+03  0.7818608E-02  0.9989099E-01
          2   -1    0    0  501    0  0.00000000000E+00  0.00000000000E+00  0.43743095771E+03  0.43743095772E+03  0.25500000000E-02 0. -1.
         -2   -1    0    0    0  501 -0.00000000000E+00 -0.00000000000E+00 -0.86077523599E+03  0.86077523600E+03  0.25500000000E-02 0.  1.
    8880023    1    1    2    0    0 -0.10743832567E+03  0.21775577724E+03  0.92367808948E+02  0.70802725282E+03  0.65864270000E+03 0. -1.
    8880022    1    1    2    0    0  0.10743832567E+03 -0.21775577724E+03 -0.51571208723E+03  0.59017894089E+03  0.15294330000E+03 0.  0.
<mgrwt>
<rscale>  0 0.56130805E+03</rscale>
<asrwt>0</asrwt>
<pdfrwt beam="1">  1        2 0.67297070E-01 0.70197634E+03</pdfrwt>
<pdfrwt beam="2">  1       -2 0.13242696E+00 0.70197634E+03</pdfrwt>
<totfact> 0.30241916E+01</totfact>
</mgrwt>
</event>
<event>
 4    2  0.1865421E-006  0.7789000E+03  0.7818608E-02  0.9758427E-01
         -2   -1    0    0    0  501 -0.00000000000E+00  0.00000000000E+00  0.14912437079E+04  0.14912437079E+04  0.25500000000E-02 0.  1.
          2   -1    0    0  501    0  0.00000000000E+00 -0.00000000000E+00 -0.18418700888E+04  0.18418700888E+04  0.25500000000E-02 0. -1.
    8880023    1    1    2    0    0 -0.73276835552E+02  0.40927429065E+03 -0.17230692924E+04  0.18909396956E+04  0.65864270000E+03 0. -1.
    8880022    1    1    2    0    0  0.73276835552E+02 -0.40927429065E+03  0.13724429115E+04  0.14421741012E+04  0.15294330000E+03 0.  0.
<mgrwt>
<rscale>  0 0.67642096E+03</rscale>
<asrwt>0</asrwt>
<pdfrwt beam="1">  1        2 0.28336463E+00 0.77889996E+03</pdfrwt>
<pdfrwt beam="2">  1       -2 0.22942211E+00 0.77889996E+03</pdfrwt>
<totfact> 0.73273474E-01</totfact>
</mgrwt>
</event>
<event>
 4    2  0.9070994E-007  0.7446928E+03  0.7818608E-02  0.9846482E-01
          2   -1    0    0  501    0  0.00000000000E+00  0.00000000000E+00  0.27976179177E+04  0.27976179177E+04  0.25500000000E-02 0. -1.
         -2   -1    0    0    0  501 -0.00000000000E+00 -0.00000000000E+00 -0.14816338886E+03  0.14816338888E+03  0.25500000000E-02 0.  1.
    8880023    1    1    2    0    0  0.39575395322E+02  0.34524036260E+03  0.23410393031E+04  0.24566302825E+04  0.65864270000E+03 0.  0.
    8880022    1    1    2    0    0 -0.39575395322E+02 -0.34524036260E+03  0.30841522572E+03  0.48915102408E+03  0.15294330000E+03 0.  0.
<mgrwt>
<rscale>  0 0.62926594E+03</rscale>
<asrwt>0</asrwt>
<pdfrwt beam="1">  1        2 0.43040281E+00 0.74469277E+03</pdfrwt>
<pdfrwt beam="2">  1       -2 0.22794365E-01 0.74469277E+03</pdfrwt>
<totfact> 0.41257398E+01</totfact>
</mgrwt>
</event>
<event>
 4    2  0.9070994E-007  0.6939636E+03  0.7818608E-02  0.1002323E+00
          2   -1    0    0  501    0  0.00000000000E+00  0.00000000000E+00  0.17066391254E+04  0.17066391254E+04  0.25500000000E-02 0. -1.
         -2   -1    0    0    0  501 -0.00000000000E+00 -0.00000000000E+00 -0.63675053675E+03  0.63675053675E+03  0.25500000000E-02 0.  1.
    8880023    1    1    2    0    0  0.17877865826E+03 -0.12575151555E+03  0.16032702462E+04  0.17470148657E+04  0.65864270000E+03 0. -1.
    8880022    1    1    2    0    0 -0.17877865826E+03  0.12575151555E+03 -0.53338165752E+03  0.59637479650E+03  0.15294330000E+03 0.  0.
<mgrwt>
<rscale>  0 0.54643344E+03</rscale>
<asrwt>0</asrwt>
<pdfrwt beam="1">  1        2 0.26255987E+00 0.69396359E+03</pdfrwt>
<pdfrwt beam="2">  1       -2 0.97961620E-01 0.69396359E+03</pdfrwt>
<totfact> 0.87498035E+00</totfact>
</mgrwt>
</event>
<event>
 4    2  0.9070994E-007  0.9420309E+03  0.7818608E-02  0.9461674E-01
         -2   -1    0    0    0  501 -0.00000000000E+00  0.00000000000E+00  0.78446645842E+03  0.78446645842E+03  0.25500000000E-02 0.  1.
          2   -1    0    0  501    0  0.00000000000E+00 -0.00000000000E+00 -0.15301278289E+04  0.15301278289E+04  0.25500000000E-02 0. -1.
    8880023    1    1    2    0    0  0.66499161325E+03 -0.10676191617E+03 -0.11714515884E+04  0.15032368352E+04  0.65864270000E+03 0.  0.
    8880022    1    1    2    0    0 -0.66499161325E+03  0.10676191617E+03  0.42579021791E+03  0.81135745213E+03  0.15294330000E+03 0.  0.
<mgrwt>
<rscale>  0 0.87169400E+03</rscale>
<asrwt>0</asrwt>
<pdfrwt beam="1">  1        2 0.23540428E+00 0.94203087E+03</pdfrwt>
<pdfrwt beam="2">  1       -2 0.12068715E+00 0.94203087E+03</pdfrwt>
<totfact> 0.63941637E+00</totfact>
</mgrwt>
</event>
<event>
 4    2  0.9070994E-007  0.7918642E+03  0.7818608E-02  0.9728671E-01
         -2   -1    0    0    0  501 -0.00000000000E+00  0.00000000000E+00  0.31778466274E+04  0.31778466274E+04  0.25500000000E-02 0.  1.
          2   -1    0    0  501    0  0.00000000000E+00 -0.00000000000E+00 -0.38256984693E+03  0.38256984694E+03  0.25500000000E-02 0. -1.
    8880023    1    1    2    0    0  0.24610206028E+03 -0.36424240440E+03  0.69188896049E+02  0.79488116271E+03  0.65864270000E+03 0.  0.
    8880022    1    1    2    0    0 -0.24610206028E+03  0.36424240440E+03  0.27260878844E+04  0.27655353116E+04  0.15294330000E+03 0.  0.
<mgrwt>
<rscale>  0 0.69335072E+03</rscale>
<asrwt>0</asrwt>
<pdfrwt beam="1">  1        2 0.58856900E-01 0.79186423E+03</pdfrwt>
<pdfrwt beam="2">  1       -2 0.48889948E+00 0.79186423E+03</pdfrwt>
<totfact> 0.17034844E-01</totfact>
</mgrwt>
</event>
<event>
 4    2  0.9070994E-007  0.6926989E+03  0.7818608E-02  0.1002895E+00
         -2   -1    0    0    0  501 -0.00000000000E+00  0.00000000000E+00  0.36327284838E+03  0.36327284839E+03  0.25500000000E-02 0.  1.
          2   -1    0    0  501    0  0.00000000000E+00 -0.00000000000E+00 -0.11697589598E+04  0.11697589598E+04  0.25500000000E-02 0. -1.
    8880023    1    1    2    0    0  0.11881829013E+02  0.21419710521E+03 -0.99263857765E+03  0.12104392301E+04  0.65864270000E+03 0. -1.
    8880022    1    1    2    0    0 -0.11881829013E+02 -0.21419710521E+03  0.18615246621E+03  0.32259257808E+03  0.15294330000E+03 0.  0.
<mgrwt>
<rscale>  0 0.54398718E+03</rscale>
<asrwt>0</asrwt>
<pdfrwt beam="1">  1        2 0.17996291E+00 0.69269891E+03</pdfrwt>
<pdfrwt beam="2">  1       -2 0.55888131E-01 0.69269891E+03</pdfrwt>
<totfact> 0.60709498E+01</totfact>
</mgrwt>
</event>
<event>
 4    2  0.9070994E-007  0.7821297E+03  0.7818608E-02  0.9750858E-01
         -2   -1    0    0    0  501 -0.00000000000E+00  0.00000000000E+00  0.66267830627E+03  0.66267830627E+03  0.25500000000E-02 0.  1.
          2   -1    0    0  501    0  0.00000000000E+00 -0.00000000000E+00 -0.24590888674E+04  0.24590888674E+04  0.25500000000E-02 0. -1.
    8880023    1    1    2    0    0  0.29140267703E+03  0.30496088601E+03 -0.23105768740E+04  0.24393631052E+04  0.65864270000E+03 0. -1.
    8880022    1    1    2    0    0 -0.29140267703E+03 -0.30496088601E+03  0.51416631293E+03  0.68240406838E+03  0.15294330000E+03 0.  0.
<mgrwt>
<rscale>  0 0.68067813E+03</rscale>
<asrwt>0</asrwt>
<pdfrwt beam="1">  1        2 0.37832136E+00 0.78212970E+03</pdfrwt>
<pdfrwt beam="2">  1       -2 0.10195051E+00 0.78212970E+03</pdfrwt>
<totfact> 0.30244965E+00</totfact>
</mgrwt>
</event>
<event>
 4    2  0.9070994E-007  0.1133416E+04  0.7818608E-02  0.9224733E-01
         -2   -1    0    0    0  501 -0.00000000000E+00  0.00000000000E+00  0.95305398604E+03  0.95305398604E+03  0.25500000000E-02 0.  1.
          2   -1    0    0  501    0  0.00000000000E+00 -0.00000000000E+00 -0.13581823543E+04  0.13581823543E+04  0.25500000000E-02 0. -1.
    8880023    1    1    2    0    0  0.63719069761E+03 -0.66693973460E+03 -0.69841854795E+03  0.13313223761E+04  0.65864270000E+03 0. -1.
    8880022    1    1    2    0    0 -0.63719069761E+03  0.66693973460E+03  0.29329017973E+03  0.97991396421E+03  0.15294330000E+03 0.  0.
<mgrwt>
<rscale>  0 0.10801747E+04</rscale>
<asrwt>0</asrwt>
<pdfrwt beam="1">  1        2 0.20895113E+00 0.11334155E+04</pdfrwt>
<pdfrwt beam="2">  1       -2 0.14662369E+00 0.11334155E+04</pdfrwt>
<totfact> 0.47628965E+00</totfact>
</mgrwt>
</event>
<event>
 4    2  0.9070994E-007  0.6863770E+03  0.7818608E-02  0.1005924E+00
         -2   -1    0    0    0  501 -0.00000000000E+00  0.00000000000E+00  0.20767018375E+03  0.20767018377E+03  0.25500000000E-02 0.  1.
          2   -1    0    0  501    0  0.00000000000E+00 -0.00000000000E+00 -0.14538853808E+04  0.14538853808E+04  0.25500000000E-02 0. -1.
    8880023    1    1    2    0    0 -0.92383328144E+01  0.19291910727E+03 -0.12374216444E+04  0.14150355688E+04  0.65864270000E+03 0. -1.
    8880022    1    1    2    0    0  0.92383328144E+01 -0.19291910727E+03 -0.87935526880E+01  0.24651999579E+03  0.15294330000E+03 0.  0.
<mgrwt>
<rscale>  0 0.53127080E+03</rscale>
<asrwt>0</asrwt>
<pdfrwt beam="1">  1        2 0.22367467E+00 0.68637696E+03</pdfrwt>
<pdfrwt beam="2">  1       -2 0.31949260E-01 0.68637696E+03</pdfrwt>
<totfact> 0.12553581E+02</totfact>
</mgrwt>
</event>
<event>
 4    2  0.9070994E-007  0.7071481E+03  0.7818608E-02  0.9968748E-01
         -2   -1    0    0    0  501 -0.00000000000E+00  0.00000000000E+00  0.12393414530E+04  0.12393414530E+04  0.25500000000E-02 0.  1.
          2   -1    0    0  501    0  0.00000000000E+00 -0.00000000000E+00 -0.71986630621E+03  0.71986630622E+03  0.25500000000E-02 0. -1.
    8880023    1    1    2    0    0 -0.25670013687E+03 -0.18795829029E+02 -0.51981723775E+03  0.87764936642E+03  0.65864270000E+03 0. -1.
    8880022    1    1    2    0    0  0.25670013687E+03  0.18795829029E+02  0.10392923846E+04  0.10815583928E+04  0.15294330000E+03 0.  0.
<mgrwt>
<rscale>  0 0.57042094E+03</rscale>
<asrwt>0</asrwt>
<pdfrwt beam="1">  1        2 0.11074866E+00 0.70714811E+03</pdfrwt>
<pdfrwt beam="2">  1       -2 0.19066791E+00 0.70714811E+03</pdfrwt>
<totfact> 0.62190987E+00</totfact>
</mgrwt>
</event>
<event>
 4    2  0.9070994E-007  0.8870455E+03  0.7818608E-02  0.9547156E-01
         -2   -1    0    0    0  501 -0.00000000000E+00  0.00000000000E+00  0.65238505335E+03  0.65238505335E+03  0.25500000000E-02 0.  1.
          2   -1    0    0  501    0  0.00000000000E+00 -0.00000000000E+00 -0.10887277933E+04  0.10887277933E+04  0.25500000000E-02 0. -1.
    8880023    1    1    2    0    0 -0.49101513159E+03  0.33457977428E+03 -0.64092316601E+03  0.10943638315E+04  0.65864270000E+03 0.  1.
    8880022    1    1    2    0    0  0.49101513159E+03 -0.33457977428E+03  0.20458042605E+03  0.64674901511E+03  0.15294330000E+03 0.  0.
<mgrwt>
<rscale>  0 0.80894708E+03</rscale>
<asrwt>0</asrwt>
<pdfrwt beam="1">  1        2 0.16749658E+00 0.88704548E+03</pdfrwt>
<pdfrwt beam="2">  1       -2 0.10036693E+00 0.88704548E+03</pdfrwt>
<totfact> 0.18196782E+01</totfact>
</mgrwt>
</event>
<event>
 4    2  0.9070994E-007  0.9874066E+03  0.7818608E-02  0.9398222E-01
         -2   -1    0    0    0  501 -0.00000000000E+00  0.00000000000E+00  0.86792755922E+03  0.86792755922E+03  0.25500000000E-02 0.  1.
          2   -1    0    0  501    0  0.00000000000E+00 -0.00000000000E+00 -0.16572749254E+04  0.16572749254E+04  0.25500000000E-02 0. -1.
    8880023    1    1    2    0    0 -0.62588804242E+03 -0.38655620523E+03 -0.12883622886E+04  0.16232218377E+04  0.65864270000E+03 0. -1.
    8880022    1    1    2    0    0  0.62588804242E+03  0.38655620523E+03  0.49901492248E+03  0.90198064687E+03  0.15294330000E+03 0.  0.
<mgrwt>
<rscale>  0 0.92222124E+03</rscale>
<asrwt>0</asrwt>
<pdfrwt beam="1">  1        2 0.25496537E+00 0.98740658E+03</pdfrwt>
<pdfrwt beam="2">  1       -2 0.13352732E+00 0.98740658E+03</pdfrwt>
<totfact> 0.41862430E+00</totfact>
</mgrwt>
</event>
<event>
 4    2  0.9070994E-007  0.7292595E+03  0.7818608E-02  0.9892416E-01
          2   -1    0    0  501    0  0.00000000000E+00  0.00000000000E+00  0.12220941021E+04  0.12220941021E+04  0.25500000000E-02 0. -1.
         -2   -1    0    0    0  501 -0.00000000000E+00 -0.00000000000E+00 -0.72704241991E+03  0.72704241992E+03  0.25500000000E-02 0.  1.
    8880023    1    1    2    0    0  0.19879063077E+03  0.24185023519E+03  0.10592553397E+04  0.12860176251E+04  0.65864270000E+03 0.  0.
    8880022    1    1    2    0    0 -0.19879063077E+03 -0.24185023519E+03 -0.56420365757E+03  0.66311889686E+03  0.15294330000E+03 0.  0.
<mgrwt>
<rscale>  0 0.60630245E+03</rscale>
<asrwt>0</asrwt>
<pdfrwt beam="1">  1        2 0.18801448E+00 0.72925953E+03</pdfrwt>
<pdfrwt beam="2">  1       -2 0.11185268E+00 0.72925953E+03</pdfrwt>
<totfact> 0.11854451E+01</totfact>
</mgrwt>
</event>
<event>
 4    2  0.9070994E-007  0.8093842E+03  0.7818608E-02  0.9690861E-01
         -2   -1    0    0    0  501 -0.00000000000E+00  0.00000000000E+00  0.30518831471E+04  0.30518831471E+04  0.25500000000E-02 0.  1.
          2   -1    0    0  501    0  0.00000000000E+00 -0.00000000000E+00 -0.66957116121E+03  0.66957116122E+03  0.25500000000E-02 0. -1.
    8880023    1    1    2    0    0 -0.34159563641E+03  0.32342691778E+03 -0.39486604092E+03  0.90056756909E+03  0.65864270000E+03 0. -1.
    8880022    1    1    2    0    0  0.34159563641E+03 -0.32342691778E+03  0.27771780268E+04  0.28208867392E+04  0.15294330000E+03 0.  0.
<mgrwt>
<rscale>  0 0.71563534E+03</rscale>
<asrwt>0</asrwt>
<pdfrwt beam="1">  1        2 0.10301095E+00 0.80938418E+03</pdfrwt>
<pdfrwt beam="2">  1       -2 0.46952048E+00 0.80938418E+03</pdfrwt>
<totfact> 0.11784249E-01</totfact>
</mgrwt>
</event>
<event>
 4    2  0.9070994E-007  0.6825792E+03  0.7818608E-02  0.1007901E+00
          2   -1    0    0  501    0  0.00000000000E+00  0.00000000000E+00  0.23055236180E+04  0.23055236180E+04  0.25500000000E-02 0. -1.
         -2   -1    0    0    0  501 -0.00000000000E+00 -0.00000000000E+00 -0.13204431573E+03  0.13204431575E+03  0.25500000000E-02 0.  1.
    8880023    1    1    2    0    0  0.17912035841E+03  0.44803776158E+01  0.20711478429E+04  0.21807264317E+04  0.65864270000E+03 0.  0.
    8880022    1    1    2    0    0 -0.17912035841E+03 -0.44803776158E+01  0.10233145939E+03  0.25684150205E+03  0.15294330000E+03 0.  0.
<mgrwt>
<rscale>  0 0.52317543E+03</rscale>
<asrwt>0</asrwt>
<pdfrwt beam="1">  1        2 0.35469592E+00 0.68257921E+03</pdfrwt>
<pdfrwt beam="2">  1       -2 0.20314512E-01 0.68257921E+03</pdfrwt>
<totfact> 0.97335393E+01</totfact>
</mgrwt>
</event>
<event>
 4    2  0.9070994E-007  0.7029882E+03  0.7818608E-02  0.9985024E-01
         -2   -1    0    0    0  501 -0.00000000000E+00  0.00000000000E+00  0.85747156170E+02  0.85747156208E+02  0.25500000000E-02 0.  1.
          2   -1    0    0  501    0  0.00000000000E+00 -0.00000000000E+00 -0.31325151176E+04  0.31325151176E+04  0.25500000000E-02 0. -1.
    8880023    1    1    2    0    0 -0.24458335677E+03 -0.23689902905E+02 -0.25311867983E+04  0.26269942984E+04  0.65864270000E+03 0. -1.
    8880022    1    1    2    0    0  0.24458335677E+03  0.23689902905E+02 -0.51558116317E+03  0.59126797540E+03  0.15294330000E+03 0.  1.
<mgrwt>
<rscale>  0 0.56311827E+03</rscale>
<asrwt>0</asrwt>
<pdfrwt beam="1">  1        2 0.48192531E+00 0.70298822E+03</pdfrwt>
<pdfrwt beam="2">  1       -2 0.13191873E-01 0.70298822E+03</pdfrwt>
<totfact> 0.66568514E+01</totfact>
</mgrwt>
</event>
<event>
 4    2  0.9070994E-007  0.8023951E+03  0.7818608E-02  0.9705641E-01
          2   -1    0    0  501    0  0.00000000000E+00  0.00000000000E+00  0.11140742379E+04  0.11140742379E+04  0.25500000000E-02 0. -1.
         -2   -1    0    0    0  501 -0.00000000000E+00 -0.00000000000E+00 -0.40031584873E+03  0.40031584874E+03  0.25500000000E-02 0.  1.
    8880023    1    1    2    0    0 -0.43426558530E+03 -0.14642797358E+03  0.23948585156E+03  0.83737173907E+03  0.65864270000E+03 0.  0.
    8880022    1    1    2    0    0  0.43426558530E+03  0.14642797358E+03  0.47427253765E+03  0.67701834761E+03  0.15294330000E+03 0.  1.
<mgrwt>
<rscale>  0 0.70681920E+03</rscale>
<asrwt>0</asrwt>
<pdfrwt beam="1">  1        2 0.17139604E+00 0.80239514E+03</pdfrwt>
<pdfrwt beam="2">  1       -2 0.61587053E-01 0.80239514E+03</pdfrwt>
<totfact> 0.52951973E+01</totfact>
</mgrwt>
</event>
<event>
 4    2  0.9070994E-007  0.8008613E+03  0.7818608E-02  0.9708937E-01
          2   -1    0    0  501    0  0.00000000000E+00  0.00000000000E+00  0.18688175897E+04  0.18688175897E+04  0.25500000000E-02 0. -1.
         -2   -1    0    0    0  501 -0.00000000000E+00 -0.00000000000E+00 -0.30658168216E+03  0.30658168217E+03  0.25500000000E-02 0.  1.
    8880023    1    1    2    0    0 -0.37601494147E+03 -0.25725731117E+03  0.14870191017E+04  0.16889655341E+04  0.65864270000E+03 0. -1.
    8880022    1    1    2    0    0  0.37601494147E+03  0.25725731117E+03  0.75216805877E+02  0.48643373779E+03  0.15294330000E+03 0.  0.
<mgrwt>
<rscale>  0 0.70487176E+03</rscale>
<asrwt>0</asrwt>
<pdfrwt beam="1">  1        2 0.28751040E+00 0.80086127E+03</pdfrwt>
<pdfrwt beam="2">  1       -2 0.47166413E-01 0.80086127E+03</pdfrwt>
<totfact> 0.34446727E+01</totfact>
</mgrwt>
</event>
<event>
 4    2  0.9070994E-007  0.8285993E+03  0.7818608E-02  0.9652064E-01
         -2   -1    0    0    0  501 -0.00000000000E+00  0.00000000000E+00  0.61272520546E+03  0.61272520546E+03  0.25500000000E-02 0.  1.
          2   -1    0    0  501    0  0.00000000000E+00 -0.00000000000E+00 -0.81305614698E+03  0.81305614699E+03  0.25500000000E-02 0. -1.
    8880023    1    1    2    0    0 -0.34173215682E+03 -0.36876233809E+03  0.75950770718E+02  0.83207286630E+03  0.65864270000E+03 0.  0.
    8880022    1    1    2    0    0  0.34173215682E+03  0.36876233809E+03 -0.27628171224E+03  0.59370848615E+03  0.15294330000E+03 0.  0.
<mgrwt>
<rscale>  0 0.73944035E+03</rscale>
<asrwt>0</asrwt>
<pdfrwt beam="1">  1        2 0.12508556E+00 0.82859926E+03</pdfrwt>
<pdfrwt beam="2">  1       -2 0.94265416E-01 0.82859926E+03</pdfrwt>
<totfact> 0.32233143E+01</totfact>
</mgrwt>
</event>
<event>
 4    2  0.9070994E-007  0.7056043E+03  0.7818608E-02  0.9974701E-01
         -2   -1    0    0    0  501 -0.00000000000E+00  0.00000000000E+00  0.14151230456E+03  0.14151230459E+03  0.25500000000E-02 0.  1.
          2   -1    0    0  501    0  0.00000000000E+00 -0.00000000000E+00 -0.27792880286E+04  0.27792880286E+04  0.25500000000E-02 0. -1.
    8880023    1    1    2    0    0  0.23166350055E+03  0.10197676554E+03 -0.24941423184E+04  0.25920307384E+04  0.65864270000E+03 0. -1.
    8880022    1    1    2    0    0 -0.23166350055E+03 -0.10197676554E+03 -0.14363340558E+03  0.32876959472E+03  0.15294330000E+03 0.  0.
<mgrwt>
<rscale>  0 0.56773598E+03</rscale>
<asrwt>0</asrwt>
<pdfrwt beam="1">  1        2 0.42758273E+00 0.70560431E+03</pdfrwt>
<pdfrwt beam="2">  1       -2 0.21771126E-01 0.70560431E+03</pdfrwt>
<totfact> 0.46153638E+01</totfact>
</mgrwt>
</event>
<event>
 4    2  0.9070994E-007  0.7079372E+03  0.7818608E-02  0.9965742E-01
          2   -1    0    0  501    0  0.00000000000E+00  0.00000000000E+00  0.35786798121E+03  0.35786798122E+03  0.25500000000E-02 0. -1.
         -2   -1    0    0    0  501 -0.00000000000E+00 -0.00000000000E+00 -0.83939295504E+03  0.83939295505E+03  0.25500000000E-02 0.  1.
    8880023    1    1    2    0    0  0.15979064244E+03 -0.20452840374E+03 -0.10599810091E+03  0.71582869530E+03  0.65864270000E+03 0. -1.
    8880022    1    1    2    0    0 -0.15979064244E+03  0.20452840374E+03 -0.37552687292E+03  0.48143224097E+03  0.15294330000E+03 0.  0.
<mgrwt>
<rscale>  0 0.57178245E+03</rscale>
<asrwt>0</asrwt>
<pdfrwt beam="1">  1        2 0.55056613E-01 0.70793723E+03</pdfrwt>
<pdfrwt beam="2">  1       -2 0.12913738E+00 0.70793723E+03</pdfrwt>
<totfact> 0.40375023E+01</totfact>
</mgrwt>
</event>
<event>
 4    2  0.9070994E-007  0.1083551E+04  0.7818608E-02  0.9279595E-01
          2   -1    0    0  501    0  0.00000000000E+00  0.00000000000E+00  0.12638730128E+04  0.12638730128E+04  0.25500000000E-02 0. -1.
         -2   -1    0    0    0  501 -0.00000000000E+00 -0.00000000000E+00 -0.12447259031E+04  0.12447259031E+04  0.25500000000E-02 0.  1.
    8880023    1    1    2    0    0 -0.37259438943E+03  0.77552896850E+03 -0.77148637870E+03  0.13301402929E+04  0.65864270000E+03 0.  0.
    8880022    1    1    2    0    0  0.37259438943E+03 -0.77552896850E+03  0.79063348847E+03  0.11784586230E+04  0.15294330000E+03 0.  0.
<mgrwt>
<rscale>  0 0.10268326E+04</rscale>
<asrwt>0</asrwt>
<pdfrwt beam="1">  1        2 0.19444200E+00 0.10835506E+04</pdfrwt>
<pdfrwt beam="2">  1       -2 0.19149629E+00 0.10835506E+04</pdfrwt>
<totfact> 0.25832359E+00</totfact>
</mgrwt>
</event>
<event>
 4    2  0.9070994E-007  0.7433085E+03  0.7818608E-02  0.9850412E-01
          2   -1    0    0  501    0  0.00000000000E+00  0.00000000000E+00  0.14830792591E+04  0.14830792592E+04  0.25500000000E-02 0. -1.
         -2   -1    0    0    0  501 -0.00000000000E+00 -0.00000000000E+00 -0.24949514281E+03  0.24949514282E+03  0.25500000000E-02 0.  1.
    8880023    1    1    2    0    0  0.33759457795E+03 -0.68754470764E+02  0.11099877462E+04  0.13358818358E+04  0.65864270000E+03 0. -1.
    8880022    1    1    2    0    0 -0.33759457795E+03  0.68754470764E+02  0.12359637015E+03  0.39669256615E+03  0.15294330000E+03 0.  0.
<mgrwt>
<rscale>  0 0.62725891E+03</rscale>
<asrwt>0</asrwt>
<pdfrwt beam="1">  1        2 0.22816604E+00 0.74330847E+03</pdfrwt>
<pdfrwt beam="2">  1       -2 0.38383868E-01 0.74330847E+03</pdfrwt>
<totfact> 0.84817332E+01</totfact>
</mgrwt>
</event>
<event>
 4    2  0.9070994E-007  0.7911910E+03  0.7818608E-02  0.9730177E-01
          2   -1    0    0  501    0  0.00000000000E+00  0.00000000000E+00  0.11529186970E+04  0.11529186970E+04  0.25500000000E-02 0. -1.
         -2   -1    0    0    0  501 -0.00000000000E+00 -0.00000000000E+00 -0.36901966506E+03  0.36901966507E+03  0.25500000000E-02 0.  1.
    8880023    1    1    2    0    0 -0.53922245939E+02  0.43504644214E+03  0.68658508623E+03  0.10475601664E+04  0.65864270000E+03 0. -1.
    8880022    1    1    2    0    0  0.53922245939E+02 -0.43504644214E+03  0.97313945683E+02  0.47437819560E+03  0.15294330000E+03 0.  0.
<mgrwt>
<rscale>  0 0.69248155E+03</rscale>
<asrwt>0</asrwt>
<pdfrwt beam="1">  1        2 0.17737211E+00 0.79119101E+03</pdfrwt>
<pdfrwt beam="2">  1       -2 0.56772257E-01 0.79119101E+03</pdfrwt>
<totfact> 0.59602246E+01</totfact>
</mgrwt>
</event>
<event>
 4    2  0.9988405E-007  0.1154449E+04  0.7818608E-02  0.9202725E-01
          2   -1    0    0  501    0  0.00000000000E+00  0.00000000000E+00  0.24484191475E+04  0.24484191475E+04  0.25500000000E-02 0. -1.
         -2   -1    0    0    0  501 -0.00000000000E+00 -0.00000000000E+00 -0.12854192382E+04  0.12854192382E+04  0.25500000000E-02 0.  1.
    8880023    1    1    2    0    0  0.85144604878E+03  0.41711142370E+03  0.20972557414E+04  0.23939996167E+04  0.65864270000E+03 0.  0.
    8880022    1    1    2    0    0 -0.85144604878E+03 -0.41711142370E+03 -0.93425583214E+03  0.13398387689E+04  0.15294330000E+03 0.  0.
<mgrwt>
<rscale>  0 0.11025343E+04</rscale>
<asrwt>0</asrwt>
<pdfrwt beam="1">  1        2 0.37667986E+00 0.11544490E+04</pdfrwt>
<pdfrwt beam="2">  1       -2 0.19775681E+00 0.11544490E+04</pdfrwt>
<totfact> 0.50362773E-01</totfact>
</mgrwt>
</event>
<event>
 4    2  0.9070994E-007  0.9718679E+03  0.7818608E-02  0.9419325E-01
          2   -1    0    0  501    0  0.00000000000E+00  0.00000000000E+00  0.11304197991E+04  0.11304197991E+04  0.25500000000E-02 0. -1.
         -2   -1    0    0    0  501 -0.00000000000E+00 -0.00000000000E+00 -0.89786399015E+03  0.89786399015E+03  0.25500000000E-02 0.  1.
    8880023    1    1    2    0    0 -0.16360993053E+02 -0.71445735022E+03  0.66638935882E+03  0.11783895668E+04  0.65864270000E+03 0.  0.
    8880022    1    1    2    0    0  0.16360993053E+02  0.71445735022E+03 -0.43383354985E+03  0.84989422246E+03  0.15294330000E+03 0.  0.
<mgrwt>
<rscale>  0 0.90502198E+03</rscale>
<asrwt>0</asrwt>
<pdfrwt beam="1">  1        2 0.17391074E+00 0.97186789E+03</pdfrwt>
<pdfrwt beam="2">  1       -2 0.13813292E+00 0.97186789E+03</pdfrwt>
<totfact> 0.77170150E+00</totfact>
</mgrwt>
</event>
<event>
 4    2  0.9070994E-007  0.7236937E+03  0.7818608E-02  0.9910280E-01
         -2   -1    0    0    0  501 -0.00000000000E+00  0.00000000000E+00  0.69564752711E+03  0.69564752711E+03  0.25500000000E-02 0.  1.
          2   -1    0    0  501    0  0.00000000000E+00 -0.00000000000E+00 -0.18373871443E+04  0.18373871443E+04  0.25500000000E-02 0. -1.
    8880023    1    1    2    0    0 -0.29549797900E+03 -0.51022933467E+02 -0.17188151002E+04  0.18649552140E+04  0.65864270000E+03 0. -1.
    8880022    1    1    2    0    0  0.29549797900E+03  0.51022933467E+02  0.57707548299E+03  0.66807945742E+03  0.15294330000E+03 0.  0.
<mgrwt>
<rscale>  0 0.59765640E+03</rscale>
<asrwt>0</asrwt>
<pdfrwt beam="1">  1        2 0.28267494E+00 0.72369372E+03</pdfrwt>
<pdfrwt beam="2">  1       -2 0.10702270E+00 0.72369372E+03</pdfrwt>
<totfact> 0.59857846E+00</totfact>
</mgrwt>
</event>
<event>
 4    2  0.9070994E-007  0.7809357E+03  0.7818608E-02  0.9753644E-01
          2   -1    0    0  501    0  0.00000000000E+00  0.00000000000E+00  0.21537741658E+04  0.21537741658E+04  0.25500000000E-02 0. -1.
         -2   -1    0    0    0  501 -0.00000000000E+00 -0.00000000000E+00 -0.21313557318E+03  0.21313557320E+03  0.25500000000E-02 0.  1.
    8880023    1    1    2    0    0 -0.30004084714E+03  0.29330168346E+03  0.16729305709E+04  0.18462278540E+04  0.65864270000E+03 0. -1.
    8880022    1    1    2    0    0  0.30004084714E+03 -0.29330168346E+03  0.26770802168E+03  0.52068188500E+03  0.15294330000E+03 0.  0.
<mgrwt>
<rscale>  0 0.67910754E+03</rscale>
<asrwt>0</asrwt>
<pdfrwt beam="1">  1        2 0.33134986E+00 0.78093572E+03</pdfrwt>
<pdfrwt beam="2">  1       -2 0.32790089E-01 0.78093572E+03</pdfrwt>
<totfact> 0.48933009E+01</totfact>
</mgrwt>
</event>
<event>
 4    2  0.9070994E-007  0.8644079E+03  0.7818608E-02  0.9585770E-01
          2   -1    0    0  501    0  0.00000000000E+00  0.00000000000E+00  0.16271321216E+04  0.16271321216E+04  0.25500000000E-02 0. -1.
         -2   -1    0    0    0  501 -0.00000000000E+00 -0.00000000000E+00 -0.35498643116E+03  0.35498643117E+03  0.25500000000E-02 0.  1.
    8880023    1    1    2    0    0 -0.55195075816E+03 -0.93494314055E+02  0.10516513119E+04  0.13613124235E+04  0.65864270000E+03 0. -1.
    8880022    1    1    2    0    0  0.55195075816E+03  0.93494314055E+02  0.22049437852E+03  0.62080612929E+03  0.15294330000E+03 0.  0.
<mgrwt>
<rscale>  0 0.78245205E+03</rscale>
<asrwt>0</asrwt>
<pdfrwt beam="1">  1        2 0.25032801E+00 0.86440791E+03</pdfrwt>
<pdfrwt beam="2">  1       -2 0.54613298E-01 0.86440791E+03</pdfrwt>
<totfact> 0.34398345E+01</totfact>
</mgrwt>
</event>
<event>
 4    2  0.9070994E-007  0.6874802E+03  0.7818608E-02  0.1005374E+00
          2   -1    0    0  501    0  0.00000000000E+00  0.00000000000E+00  0.12052417098E+04  0.12052417098E+04  0.25500000000E-02 0. -1.
         -2   -1    0    0    0  501 -0.00000000000E+00 -0.00000000000E+00 -0.55848550572E+03  0.55848550573E+03  0.25500000000E-02 0.  1.
    8880023    1    1    2    0    0  0.16445278603E+03  0.10850831343E+03  0.10703737985E+04  0.12721356247E+04  0.65864270000E+03 0. -1.
    8880022    1    1    2    0    0 -0.16445278603E+03 -0.10850831343E+03 -0.42361759437E+03  0.49159159085E+03  0.15294330000E+03 0.  0.
<mgrwt>
<rscale>  0 0.53355357E+03</rscale>
<asrwt>0</asrwt>
<pdfrwt beam="1">  1        2 0.18542180E+00 0.68748017E+03</pdfrwt>
<pdfrwt beam="2">  1       -2 0.85920847E-01 0.68748017E+03</pdfrwt>
<totfact> 0.22691119E+01</totfact>
</mgrwt>
</event>
<event>
 4    2  0.9070994E-007  0.7088246E+03  0.7818608E-02  0.9962392E-01
         -2   -1    0    0    0  501 -0.00000000000E+00  0.00000000000E+00  0.35385970519E+03  0.35385970520E+03  0.25500000000E-02 0.  1.
          2   -1    0    0  501    0  0.00000000000E+00 -0.00000000000E+00 -0.17085552632E+04  0.17085552632E+04  0.25500000000E-02 0. -1.
    8880023    1    1    2    0    0 -0.17779103723E+03 -0.19238630452E+03 -0.15481054217E+04  0.17026634271E+04  0.65864270000E+03 0. -1.
    8880022    1    1    2    0    0  0.17779103723E+03  0.19238630452E+03  0.19340986368E+03  0.35975154130E+03  0.15294330000E+03 0.  0.
<mgrwt>
<rscale>  0 0.57330498E+03</rscale>
<asrwt>0</asrwt>
<pdfrwt beam="1">  1        2 0.26285465E+00 0.70882463E+03</pdfrwt>
<pdfrwt beam="2">  1       -2 0.54439956E-01 0.70882463E+03</pdfrwt>
<totfact> 0.31791151E+01</totfact>
</mgrwt>
</event>
<event>
 4    2  0.9070994E-007  0.7577985E+03  0.7818608E-02  0.9810841E-01
          2   -1    0    0  501    0  0.00000000000E+00  0.00000000000E+00  0.60906040736E+03  0.60906040737E+03  0.25500000000E-02 0. -1.
         -2   -1    0    0    0  501 -0.00000000000E+00 -0.00000000000E+00 -0.95129321100E+03  0.95129321101E+03  0.25500000000E-02 0.  1.
    8880023    1    1    2    0    0 -0.37291975877E+03  0.37137448903E+02  0.28854442280E+03  0.81087386614E+03  0.65864270000E+03 0. -1.
    8880022    1    1    2    0    0  0.37291975877E+03 -0.37137448903E+02 -0.63077722645E+03  0.74947975224E+03  0.15294330000E+03 0.  0.
<mgrwt>
<rscale>  0 0.64784004E+03</rscale>
<asrwt>0</asrwt>
<pdfrwt beam="1">  1        2 0.93701601E-01 0.75779848E+03</pdfrwt>
<pdfrwt beam="2">  1       -2 0.14635280E+00 0.75779848E+03</pdfrwt>
<totfact> 0.15783444E+01</totfact>
</mgrwt>
</event>
<event>
 4    2  0.9070994E-007  0.6825654E+03  0.7818608E-02  0.1007908E+00
          2   -1    0    0  501    0  0.00000000000E+00  0.00000000000E+00  0.16736750142E+04  0.16736750142E+04  0.25500000000E-02 0. -1.
         -2   -1    0    0    0  501 -0.00000000000E+00 -0.00000000000E+00 -0.19772291437E+03  0.19772291439E+03  0.25500000000E-02 0.  1.
    8880023    1    1    2    0    0 -0.15182951329E+03  0.95042970246E+02  0.14864023423E+04  0.16356306114E+04  0.65864270000E+03 0. -1.
    8880022    1    1    2    0    0  0.15182951329E+03 -0.95042970246E+02 -0.10450242479E+02  0.23576731725E+03  0.15294330000E+03 0.  0.
<mgrwt>
<rscale>  0 0.52314534E+03</rscale>
<asrwt>0</asrwt>
<pdfrwt beam="1">  1        2 0.25748848E+00 0.68256544E+03</pdfrwt>
<pdfrwt beam="2">  1       -2 0.30418908E-01 0.68256544E+03</pdfrwt>
<totfact> 0.10409524E+02</totfact>
</mgrwt>
</event>
<event>
 4    2  0.9070994E-007  0.8232555E+03  0.7818608E-02  0.9662600E-01
         -2   -1    0    0    0  501 -0.00000000000E+00  0.00000000000E+00  0.76927498563E+03  0.76927498564E+03  0.25500000000E-02 0.  1.
          2   -1    0    0  501    0  0.00000000000E+00 -0.00000000000E+00 -0.80163890967E+03  0.80163890968E+03  0.25500000000E-02 0. -1.
    8880023    1    1    2    0    0 -0.48778505255E+03  0.77492702144E+02  0.38272306417E+03  0.90786922323E+03  0.65864270000E+03 0.  1.
    8880022    1    1    2    0    0  0.48778505255E+03 -0.77492702144E+02 -0.41508698821E+03  0.66304467208E+03  0.15294330000E+03 0.  0.
<mgrwt>
<rscale>  0 0.73287877E+03</rscale>
<asrwt>0</asrwt>
<pdfrwt beam="1">  1        2 0.12332906E+00 0.82325548E+03</pdfrwt>
<pdfrwt beam="2">  1       -2 0.11835000E+00 0.82325548E+03</pdfrwt>
<totfact> 0.19024352E+01</totfact>
</mgrwt>
</event>
<event>
 4    2  0.9070994E-007  0.6765002E+03  0.7818608E-02  0.1011377E+00
          2   -1    0    0  501    0  0.00000000000E+00  0.00000000000E+00  0.49883355745E+03  0.49883355745E+03  0.25500000000E-02 0. -1.
         -2   -1    0    0    0  501 -0.00000000000E+00 -0.00000000000E+00 -0.11351289769E+04  0.11351289769E+04  0.25500000000E-02 0.  1.
    8880023    1    1    2    0    0 -0.14410197760E+03 -0.55469559888E+02  0.25014666906E+03  0.72126681216E+03  0.65864270000E+03 0. -1.
    8880022    1    1    2    0    0  0.14410197760E+03  0.55469559888E+02 -0.88644208849E+03  0.91269572217E+03  0.15294330000E+03 0.  0.
<mgrwt>
<rscale>  0 0.50931053E+03</rscale>
<asrwt>0</asrwt>
<pdfrwt beam="1">  1        2 0.76743625E-01 0.67650015E+03</pdfrwt>
<pdfrwt beam="2">  1       -2 0.17463523E+00 0.67650015E+03</pdfrwt>
<totfact> 0.12493872E+01</totfact>
</mgrwt>
</event>
<event>
 4    2  0.9070994E-007  0.7949418E+03  0.7818608E-02  0.9721841E-01
          2   -1    0    0  501    0  0.00000000000E+00  0.00000000000E+00  0.57654063147E+03  0.57654063148E+03  0.25500000000E-02 0. -1.
         -2   -1    0    0    0  501 -0.00000000000E+00 -0.00000000000E+00 -0.10531348556E+04  0.10531348556E+04  0.25500000000E-02 0.  1.
    8880023    1    1    2    0    0  0.32308039558E+03 -0.30617213836E+03  0.18650241352E+03  0.81652659285E+03  0.65864270000E+03 0.  0.
    8880022    1    1    2    0    0 -0.32308039558E+03  0.30617213836E+03 -0.66309663768E+03  0.81314889426E+03  0.15294330000E+03 0.  0.
<mgrwt>
<rscale>  0 0.69731123E+03</rscale>
<asrwt>0</asrwt>
<pdfrwt beam="1">  1        2 0.88698559E-01 0.79494184E+03</pdfrwt>
<pdfrwt beam="2">  1       -2 0.16202075E+00 0.79494184E+03</pdfrwt>
<totfact> 0.12803573E+01</totfact>
</mgrwt>
</event>
<event>
 4    2  0.9070994E-007  0.6690127E+03  0.7818608E-02  0.1016381E+00
          2   -1    0    0  501    0  0.00000000000E+00  0.00000000000E+00  0.13839419662E+04  0.13839419662E+04  0.25500000000E-02 0. -1.
         -2   -1    0    0    0  501 -0.00000000000E+00 -0.00000000000E+00 -0.13461596556E+03  0.13461596558E+03  0.25500000000E-02 0.  1.
    8880023    1    1    2    0    0 -0.11322854661E+03  0.30774483127E+02  0.10056456824E+04  0.12078498323E+04  0.65864270000E+03 0.  1.
    8880022    1    1    2    0    0  0.11322854661E+03 -0.30774483127E+02  0.24368031824E+03  0.31070809950E+03  0.15294330000E+03 0. -1.
<mgrwt>
<rscale>  0 0.49015608E+03</rscale>
<asrwt>0</asrwt>
<pdfrwt beam="1">  1        2 0.21291416E+00 0.66901269E+03</pdfrwt>
<pdfrwt beam="2">  1       -2 0.20710148E-01 0.66901269E+03</pdfrwt>
<totfact> 0.30168858E+02</totfact>
</mgrwt>
</event>
<event>
 4    2  0.9070994E-007  0.6591176E+03  0.7818608E-02  0.1025079E+00
          2   -1    0    0  501    0  0.00000000000E+00  0.00000000000E+00  0.21707328566E+04  0.21707328566E+04  0.25500000000E-02 0. -1.
         -2   -1    0    0    0  501 -0.00000000000E+00 -0.00000000000E+00 -0.14131087134E+03  0.14131087137E+03  0.25500000000E-02 0.  1.
    8880023    1    1    2    0    0 -0.84755405804E+00 -0.25001751661E+02  0.20521580451E+04  0.21554091617E+04  0.65864270000E+03 0. -1.
    8880022    1    1    2    0    0  0.84755405804E+00  0.25001751661E+02 -0.22736059811E+02  0.15663456631E+03  0.15294330000E+03 0.  0.
<mgrwt>
<rscale>  0 0.45897398E+03</rscale>
<asrwt>0</asrwt>
<pdfrwt beam="1">  1        2 0.33395891E+00 0.65911760E+03</pdfrwt>
<pdfrwt beam="2">  1       -2 0.21740134E-01 0.65911760E+03</pdfrwt>
<totfact> 0.10280208E+02</totfact>
</mgrwt>
</event>
<event>
 4    2  0.9070994E-007  0.1029075E+04  0.7818608E-02  0.9344470E-01
          2   -1    0    0  501    0  0.00000000000E+00  0.00000000000E+00  0.12869293737E+04  0.12869293737E+04  0.25500000000E-02 0. -1.
         -2   -1    0    0    0  501 -0.00000000000E+00 -0.00000000000E+00 -0.10445686756E+04  0.10445686756E+04  0.25500000000E-02 0.  1.
    8880023    1    1    2    0    0  0.37720037843E+03  0.69491343199E+03  0.84020105751E+03  0.13285077443E+04  0.65864270000E+03 0. -1.
    8880022    1    1    2    0    0 -0.37720037843E+03 -0.69491343199E+03 -0.59784035943E+03  0.10029903050E+04  0.15294330000E+03 0.  0.
<mgrwt>
<rscale>  0 0.96789972E+03</rscale>
<asrwt>0</asrwt>
<pdfrwt beam="1">  1        2 0.19798913E+00 0.10290748E+04</pdfrwt>
<pdfrwt beam="2">  1       -2 0.16070287E+00 0.10290748E+04</pdfrwt>
<totfact> 0.41388680E+00</totfact>
</mgrwt>
</event>
<event>
 4    2  0.9070994E-007  0.7942840E+03  0.7818608E-02  0.9723294E-01
         -2   -1    0    0    0  501 -0.00000000000E+00  0.00000000000E+00  0.54800384095E+03  0.54800384095E+03  0.25500000000E-02 0.  1.
          2   -1    0    0  501    0  0.00000000000E+00 -0.00000000000E+00 -0.14564239558E+04  0.14564239558E+04  0.25500000000E-02 0. -1.
    8880023    1    1    2    0    0  0.21537858513E+03 -0.38818663203E+03 -0.12092525559E+04  0.14467822043E+04  0.65864270000E+03 0. -1.
    8880022    1    1    2    0    0 -0.21537858513E+03  0.38818663203E+03  0.30083244108E+03  0.55764559251E+03  0.15294330000E+03 0.  0.
<mgrwt>
<rscale>  0 0.69646637E+03</rscale>
<asrwt>0</asrwt>
<pdfrwt beam="1">  1        2 0.22406522E+00 0.79428396E+03</pdfrwt>
<pdfrwt beam="2">  1       -2 0.84308284E-01 0.79428396E+03</pdfrwt>
<totfact> 0.16790127E+01</totfact>
</mgrwt>
</event>
<event>
 4    2  0.9070994E-007  0.8106748E+03  0.7818608E-02  0.9688173E-01
         -2   -1    0    0    0  501 -0.00000000000E+00  0.00000000000E+00  0.69178957234E+03  0.69178957234E+03  0.25500000000E-02 0.  1.
          2   -1    0    0  501    0  0.00000000000E+00 -0.00000000000E+00 -0.14191406736E+04  0.14191406736E+04  0.25500000000E-02 0. -1.
    8880023    1    1    2    0    0 -0.10125181267E+03 -0.46166164796E+03 -0.11848185552E+04  0.14356143708E+04  0.65864270000E+03 0. -1.
    8880022    1    1    2    0    0  0.10125181267E+03  0.46166164796E+03  0.45746745392E+03  0.67531587511E+03  0.15294330000E+03 0.  0.
<mgrwt>
<rscale>  0 0.71725347E+03</rscale>
<asrwt>0</asrwt>
<pdfrwt beam="1">  1        2 0.21832933E+00 0.81067479E+03</pdfrwt>
<pdfrwt beam="2">  1       -2 0.10642917E+00 0.81067479E+03</pdfrwt>
<totfact> 0.10194430E+01</totfact>
</mgrwt>
</event>
<event>
 4    2  0.9070994E-007  0.8494888E+03  0.7818608E-02  0.9612541E-01
         -2   -1    0    0    0  501 -0.00000000000E+00  0.00000000000E+00  0.33434596367E+03  0.33434596368E+03  0.25500000000E-02 0.  1.
          2   -1    0    0  501    0  0.00000000000E+00 -0.00000000000E+00 -0.16651578146E+04  0.16651578146E+04  0.25500000000E-02 0. -1.
    8880023    1    1    2    0    0 -0.44964604799E+03 -0.29264231716E+03 -0.11141173980E+04  0.14010313619E+04  0.65864270000E+03 0. -1.
    8880022    1    1    2    0    0  0.44964604799E+03  0.29264231716E+03 -0.21669445300E+03  0.59847241644E+03  0.15294330000E+03 0.  0.
<mgrwt>
<rscale>  0 0.76471645E+03</rscale>
<asrwt>0</asrwt>
<pdfrwt beam="1">  1        2 0.25617812E+00 0.84948885E+03</pdfrwt>
<pdfrwt beam="2">  1       -2 0.51437841E-01 0.84948885E+03</pdfrwt>
<totfact> 0.37145618E+01</totfact>
</mgrwt>
</event>
<event>
 4    2  0.9070994E-007  0.1108833E+04  0.7818608E-02  0.9251284E-01
         -2   -1    0    0    0  501 -0.00000000000E+00  0.00000000000E+00  0.10985261337E+04  0.10985261337E+04  0.25500000000E-02 0.  1.
          2   -1    0    0  501    0  0.00000000000E+00 -0.00000000000E+00 -0.12143109987E+04  0.12143109987E+04  0.25500000000E-02 0. -1.
    8880023    1    1    2    0    0  0.45180838354E+03 -0.76913629675E+03 -0.62656158668E+03  0.12736133976E+04  0.65864270000E+03 0.  0.
    8880022    1    1    2    0    0 -0.45180838354E+03  0.76913629675E+03  0.51077672172E+03  0.10392237348E+04  0.15294330000E+03 0.  0.
<mgrwt>
<rscale>  0 0.10539413E+04</rscale>
<asrwt>0</asrwt>
<pdfrwt beam="1">  1        2 0.18681708E+00 0.11088335E+04</pdfrwt>
<pdfrwt beam="2">  1       -2 0.16900402E+00 0.11088335E+04</pdfrwt>
<totfact> 0.39436909E+00</totfact>
</mgrwt>
</event>
<event>
 4    2  0.9070994E-007  0.6937626E+03  0.7818608E-02  0.1002413E+00
         -2   -1    0    0    0  501 -0.00000000000E+00  0.00000000000E+00  0.25798651085E+03  0.25798651086E+03  0.25500000000E-02 0.  1.
          2   -1    0    0  501    0  0.00000000000E+00 -0.00000000000E+00 -0.93145602055E+03  0.93145602055E+03  0.25500000000E-02 0. -1.
    8880023    1    1    2    0    0  0.21596768230E+03  0.29229582038E+02 -0.37189382795E+03  0.78715413598E+03  0.65864270000E+03 0. -1.
    8880022    1    1    2    0    0 -0.21596768230E+03 -0.29229582038E+02 -0.30157568175E+03  0.40228839543E+03  0.15294330000E+03 0.  0.
<mgrwt>
<rscale>  0 0.54604675E+03</rscale>
<asrwt>0</asrwt>
<pdfrwt beam="1">  1        2 0.14330093E+00 0.69376265E+03</pdfrwt>
<pdfrwt beam="2">  1       -2 0.39690233E-01 0.69376265E+03</pdfrwt>
<totfact> 0.17010801E+02</totfact>
</mgrwt>
</event>
<event>
 4    2  0.9070994E-007  0.8708645E+03  0.7818608E-02  0.9574522E-01
         -2   -1    0    0    0  501 -0.00000000000E+00  0.00000000000E+00  0.19063814101E+03  0.19063814103E+03  0.25500000000E-02 0.  1.
          2   -1    0    0  501    0  0.00000000000E+00 -0.00000000000E+00 -0.28642993184E+04  0.28642993184E+04  0.25500000000E-02 0. -1.
    8880023    1    1    2    0    0 -0.53690752034E+03 -0.19059129288E+03 -0.13603765230E+04  0.16152489643E+04  0.65864270000E+03 0.  0.
    8880022    1    1    2    0    0  0.53690752034E+03  0.19059129288E+03 -0.13132846544E+04  0.14396884951E+04  0.15294330000E+03 0.  0.
<mgrwt>
<rscale>  0 0.79005661E+03</rscale>
<asrwt>0</asrwt>
<pdfrwt beam="1">  1        2 0.44066140E+00 0.87086447E+03</pdfrwt>
<pdfrwt beam="2">  1       -2 0.29328947E-01 0.87086447E+03</pdfrwt>
<totfact> 0.23404159E+01</totfact>
</mgrwt>
</event>
<event>
 4    2  0.9070994E-007  0.8738458E+03  0.7818608E-02  0.9569394E-01
          2   -1    0    0  501    0  0.00000000000E+00  0.00000000000E+00  0.10969724234E+04  0.10969724234E+04  0.25500000000E-02 0. -1.
         -2   -1    0    0    0  501 -0.00000000000E+00 -0.00000000000E+00 -0.13650825413E+04  0.13650825413E+04  0.25500000000E-02 0.  1.
    8880023    1    1    2    0    0  0.53424272834E+03  0.21066813775E+03  0.83525072644E+03  0.12088218807E+04  0.65864270000E+03 0. -1.
    8880022    1    1    2    0    0 -0.53424272834E+03 -0.21066813775E+03 -0.11033608443E+04  0.12532330840E+04  0.15294330000E+03 0.  0.
<mgrwt>
<rscale>  0 0.79355469E+03</rscale>
<asrwt>0</asrwt>
<pdfrwt beam="1">  1        2 0.16876499E+00 0.87384585E+03</pdfrwt>
<pdfrwt beam="2">  1       -2 0.21001270E+00 0.87384585E+03</pdfrwt>
<totfact> 0.25267638E+00</totfact>
</mgrwt>
</event>
<event>
 4    2  0.9070994E-007  0.7216456E+03  0.7818608E-02  0.9917057E-01
          2   -1    0    0  501    0  0.00000000000E+00  0.00000000000E+00  0.13177574054E+04  0.13177574054E+04  0.25500000000E-02 0. -1.
         -2   -1    0    0    0  501 -0.00000000000E+00 -0.00000000000E+00 -0.63205684782E+03  0.63205684782E+03  0.25500000000E-02 0.  1.
    8880023    1    1    2    0    0 -0.54053253641E+02  0.28989725148E+03  0.11627551454E+04  0.13684925666E+04  0.65864270000E+03 0. -1.
    8880022    1    1    2    0    0  0.54053253641E+02 -0.28989725148E+03 -0.47705458773E+03  0.58132168662E+03  0.15294330000E+03 0.  0.
<mgrwt>
<rscale>  0 0.59441725E+03</rscale>
<asrwt>0</asrwt>
<pdfrwt beam="1">  1        2 0.20273191E+00 0.72164560E+03</pdfrwt>
<pdfrwt beam="2">  1       -2 0.97239515E-01 0.72164560E+03</pdfrwt>
<totfact> 0.14597417E+01</totfact>
</mgrwt>
</event>
<event>
 4    2  0.9070994E-007  0.8217433E+03  0.7818608E-02  0.9665616E-01
         -2   -1    0    0    0  501 -0.00000000000E+00  0.00000000000E+00  0.11788085744E+03  0.11788085747E+03  0.25500000000E-02 0.  1.
          2   -1    0    0  501    0  0.00000000000E+00 -0.00000000000E+00 -0.53524540919E+04  0.53524540919E+04  0.25500000000E-02 0. -1.
    8880023    1    1    2    0    0  0.42521076371E+02  0.48953426298E+03 -0.44939767543E+04  0.45684887119E+04  0.65864270000E+03 0. -1.
    8880022    1    1    2    0    0 -0.42521076371E+02 -0.48953426298E+03 -0.74059648019E+03  0.90184623747E+03  0.15294330000E+03 0.  0.
<mgrwt>
<rscale>  0 0.73101416E+03</rscale>
<asrwt>0</asrwt>
<pdfrwt beam="1">  1        2 0.82345429E+00 0.82174329E+03</pdfrwt>
<pdfrwt beam="2">  1       -2 0.18135521E-01 0.82174329E+03</pdfrwt>
<totfact> 0.32296682E-01</totfact>
</mgrwt>
</event>
<event>
 4    2  0.9070994E-007  0.8327084E+03  0.7818608E-02  0.9644086E-01
          2   -1    0    0  501    0  0.00000000000E+00  0.00000000000E+00  0.21767562062E+04  0.21767562062E+04  0.25500000000E-02 0. -1.
         -2   -1    0    0    0  501 -0.00000000000E+00 -0.00000000000E+00 -0.82181239832E+03  0.82181239833E+03  0.25500000000E-02 0.  1.
    8880023    1    1    2    0    0  0.46323063032E+03  0.21215667598E+03  0.19976569755E+04  0.21642635398E+04  0.65864270000E+03 0.  0.
    8880022    1    1    2    0    0 -0.46323063032E+03 -0.21215667598E+03 -0.64271316762E+03  0.83430506464E+03  0.15294330000E+03 0.  0.
<mgrwt>
<rscale>  0 0.74445780E+03</rscale>
<asrwt>0</asrwt>
<pdfrwt beam="1">  1        2 0.33488557E+00 0.83270840E+03</pdfrwt>
<pdfrwt beam="2">  1       -2 0.12643268E+00 0.83270840E+03</pdfrwt>
<totfact> 0.25453011E+00</totfact>
</mgrwt>
</event>
<event>
 4    2  0.9070994E-007  0.8095094E+03  0.7818608E-02  0.9690600E-01
         -2   -1    0    0    0  501 -0.00000000000E+00  0.00000000000E+00  0.81732814688E+03  0.81732814689E+03  0.25500000000E-02 0.  1.
          2   -1    0    0  501    0  0.00000000000E+00 -0.00000000000E+00 -0.12706465576E+04  0.12706465576E+04  0.25500000000E-02 0. -1.
    8880023    1    1    2    0    0 -0.15832211598E+03 -0.44320351241E+03 -0.10416347561E+04  0.13192074959E+04  0.65864270000E+03 0.  0.
    8880022    1    1    2    0    0  0.15832211598E+03  0.44320351241E+03  0.58831634536E+03  0.76876720862E+03  0.15294330000E+03 0.  0.
<mgrwt>
<rscale>  0 0.71579245E+03</rscale>
<asrwt>0</asrwt>
<pdfrwt beam="1">  1        2 0.19548408E+00 0.80950939E+03</pdfrwt>
<pdfrwt beam="2">  1       -2 0.12574279E+00 0.80950939E+03</pdfrwt>
<totfact> 0.82340249E+00</totfact>
</mgrwt>
</event>
<event>
 4    2  0.9070994E-007  0.7146682E+03  0.7818608E-02  0.9941058E-01
          2   -1    0    0  501    0  0.00000000000E+00  0.00000000000E+00  0.55520300758E+03  0.55520300759E+03  0.25500000000E-02 0. -1.
         -2   -1    0    0    0  501 -0.00000000000E+00 -0.00000000000E+00 -0.12599043341E+04  0.12599043341E+04  0.25500000000E-02 0.  1.
    8880023    1    1    2    0    0 -0.12511300162E+03  0.24756245860E+03  0.28994331690E+03  0.77124429811E+03  0.65864270000E+03 0. -1.
    8880022    1    1    2    0    0  0.12511300162E+03 -0.24756245860E+03 -0.99464464346E+03  0.10438630436E+04  0.15294330000E+03 0.  0.
<mgrwt>
<rscale>  0 0.58312052E+03</rscale>
<asrwt>0</asrwt>
<pdfrwt beam="1">  1        2 0.85415848E-01 0.71466820E+03</pdfrwt>
<pdfrwt beam="2">  1       -2 0.19383144E+00 0.71466820E+03</pdfrwt>
<totfact> 0.81372098E+00</totfact>
</mgrwt>
</event>
<event>
 4    2  0.9070994E-007  0.7368158E+03  0.7818608E-02  0.9869321E-01
         -2   -1    0    0    0  501 -0.00000000000E+00  0.00000000000E+00  0.86754754733E+03  0.86754754733E+03  0.25500000000E-02 0.  1.
          2   -1    0    0  501    0  0.00000000000E+00 -0.00000000000E+00 -0.21805585142E+04  0.21805585142E+04  0.25500000000E-02 0. -1.
    8880023    1    1    2    0    0 -0.48685365837E+02  0.32667580947E+03 -0.20759289573E+04  0.22028115197E+04  0.65864270000E+03 0. -1.
    8880022    1    1    2    0    0  0.48685365837E+02 -0.32667580947E+03  0.76291799041E+03  0.84529454183E+03  0.15294330000E+03 0.  0.
<mgrwt>
<rscale>  0 0.61771420E+03</rscale>
<asrwt>0</asrwt>
<pdfrwt beam="1">  1        2 0.33547054E+00 0.73681582E+03</pdfrwt>
<pdfrwt beam="2">  1       -2 0.13346885E+00 0.73681582E+03</pdfrwt>
<totfact> 0.22464302E+00</totfact>
</mgrwt>
</event>
<event>
 4    2  0.9070994E-007  0.6887573E+03  0.7818608E-02  0.1004749E+00
          2   -1    0    0  501    0  0.00000000000E+00  0.00000000000E+00  0.21071959906E+04  0.21071959906E+04  0.25500000000E-02 0. -1.
         -2   -1    0    0    0  501 -0.00000000000E+00 -0.00000000000E+00 -0.23771442221E+03  0.23771442222E+03  0.25500000000E-02 0.  1.
    8880023    1    1    2    0    0  0.20142095886E+03  0.24547586614E+01  0.19590506010E+04  0.20765995984E+04  0.65864270000E+03 0. -1.
    8880022    1    1    2    0    0 -0.20142095886E+03 -0.24547586614E+01 -0.89569032631E+02  0.26831081441E+03  0.15294330000E+03 0.  0.
<mgrwt>
<rscale>  0 0.53616083E+03</rscale>
<asrwt>0</asrwt>
<pdfrwt beam="1">  1        2 0.32418399E+00 0.68875731E+03</pdfrwt>
<pdfrwt beam="2">  1       -2 0.36571450E-01 0.68875731E+03</pdfrwt>
<totfact> 0.42677685E+01</totfact>
</mgrwt>
</event>
<event>
 4    2  0.9070994E-007  0.6814869E+03  0.7818608E-02  0.1008495E+00
         -2   -1    0    0    0  501 -0.00000000000E+00  0.00000000000E+00  0.31454649754E+03  0.31454649755E+03  0.25500000000E-02 0.  1.
          2   -1    0    0  501    0  0.00000000000E+00 -0.00000000000E+00 -0.12640042530E+04  0.12640042530E+04  0.25500000000E-02 0. -1.
    8880023    1    1    2    0    0  0.29374486151E+02 -0.17248568402E+03 -0.11054694224E+04  0.12986481517E+04  0.65864270000E+03 0. -1.
    8880022    1    1    2    0    0 -0.29374486151E+02  0.17248568402E+03  0.15601166696E+03  0.27990259890E+03  0.15294330000E+03 0.  0.
<mgrwt>
<rscale>  0 0.52077269E+03</rscale>
<asrwt>0</asrwt>
<pdfrwt beam="1">  1        2 0.19446219E+00 0.68148689E+03</pdfrwt>
<pdfrwt beam="2">  1       -2 0.48391769E-01 0.68148689E+03</pdfrwt>
<totfact> 0.71869325E+01</totfact>
</mgrwt>
</event>
<event>
 4    2  0.9070994E-007  0.9706590E+03  0.7818608E-02  0.9420993E-01
         -2   -1    0    0    0  501 -0.00000000000E+00  0.00000000000E+00  0.15327966989E+04  0.15327966989E+04  0.25500000000E-02 0.  1.
          2   -1    0    0  501    0  0.00000000000E+00 -0.00000000000E+00 -0.81004628417E+03  0.81004628417E+03  0.25500000000E-02 0. -1.
    8880023    1    1    2    0    0  0.36610894748E+03 -0.61182760933E+03 -0.36183350557E+03  0.10359065967E+04  0.65864270000E+03 0. -1.
    8880022    1    1    2    0    0 -0.36610894748E+03  0.61182760933E+03  0.10845839203E+04  0.13069363864E+04  0.15294330000E+03 0.  0.
<mgrwt>
<rscale>  0 0.90367972E+03</rscale>
<asrwt>0</asrwt>
<pdfrwt beam="1">  1        2 0.12462251E+00 0.97065905E+03</pdfrwt>
<pdfrwt beam="2">  1       -2 0.23581488E+00 0.97065905E+03</pdfrwt>
<totfact> 0.26619167E+00</totfact>
</mgrwt>
</event>
<event>
 4    2  0.9070994E-007  0.8443188E+03  0.7818608E-02  0.9622090E-01
          2   -1    0    0  501    0  0.00000000000E+00  0.00000000000E+00  0.85659775812E+03  0.85659775812E+03  0.25500000000E-02 0. -1.
         -2   -1    0    0    0  501 -0.00000000000E+00 -0.00000000000E+00 -0.10437730344E+04  0.10437730344E+04  0.25500000000E-02 0.  1.
    8880023    1    1    2    0    0  0.19206187431E+03 -0.49211399462E+03  0.52978938556E+03  0.99677025767E+03  0.65864270000E+03 0. -1.
    8880022    1    1    2    0    0 -0.19206187431E+03  0.49211399462E+03 -0.71696466187E+03  0.90360053489E+03  0.15294330000E+03 0.  0.
<mgrwt>
<rscale>  0 0.75851213E+03</rscale>
<asrwt>0</asrwt>
<pdfrwt beam="1">  1        2 0.13178427E+00 0.84431875E+03</pdfrwt>
<pdfrwt beam="2">  1       -2 0.16058047E+00 0.84431875E+03</pdfrwt>
<totfact> 0.78857738E+00</totfact>
</mgrwt>
</event>
<event>
 4    2  0.9070994E-007  0.7478161E+03  0.7818608E-02  0.9837737E-01
         -2   -1    0    0    0  501 -0.00000000000E+00  0.00000000000E+00  0.26149640171E+03  0.26149640172E+03  0.25500000000E-02 0.  1.
          2   -1    0    0  501    0  0.00000000000E+00 -0.00000000000E+00 -0.12692658426E+04  0.12692658426E+04  0.25500000000E-02 0. -1.
    8880023    1    1    2    0    0  0.33711737953E+03 -0.10849256198E+03 -0.78987199373E+03  0.10877162940E+04  0.65864270000E+03 0.  1.
    8880022    1    1    2    0    0 -0.33711737953E+03  0.10849256198E+03 -0.21789744720E+03  0.44304595032E+03  0.15294330000E+03 0.  0.
<mgrwt>
<rscale>  0 0.63376068E+03</rscale>
<asrwt>0</asrwt>
<pdfrwt beam="1">  1        2 0.19527166E+00 0.74781613E+03</pdfrwt>
<pdfrwt beam="2">  1       -2 0.40230216E-01 0.74781613E+03</pdfrwt>
<totfact> 0.10236402E+02</totfact>
</mgrwt>
</event>
<event>
 4    2  0.9070994E-007  0.6639003E+03  0.7818608E-02  0.1020474E+00
         -2   -1    0    0    0  501 -0.00000000000E+00  0.00000000000E+00  0.22213665855E+04  0.22213665855E+04  0.25500000000E-02 0.  1.
          2   -1    0    0  501    0  0.00000000000E+00 -0.00000000000E+00 -0.79641127969E+03  0.79641127970E+03  0.25500000000E-02 0. -1.
    8880023    1    1    2    0    0  0.20757964292E+02  0.80761641943E+02 -0.65377311116E+03  0.93176328701E+03  0.65864270000E+03 0. -1.
    8880022    1    1    2    0    0 -0.20757964292E+02 -0.80761641943E+02  0.20787284169E+04  0.20860145782E+04  0.15294330000E+03 0.  0.
<mgrwt>
<rscale>  0 0.47515795E+03</rscale>
<asrwt>0</asrwt>
<pdfrwt beam="1">  1        2 0.12252481E+00 0.66390025E+03</pdfrwt>
<pdfrwt beam="2">  1       -2 0.34174870E+00 0.66390025E+03</pdfrwt>
<totfact> 0.65256441E-01</totfact>
</mgrwt>
</event>
<event>
 4    2  0.9070994E-007  0.8848432E+03  0.7818608E-02  0.9550815E-01
         -2   -1    0    0    0  501 -0.00000000000E+00  0.00000000000E+00  0.31512092392E+03  0.31512092393E+03  0.25500000000E-02 0.  1.
          2   -1    0    0  501    0  0.00000000000E+00 -0.00000000000E+00 -0.27838554175E+04  0.27838554175E+04  0.25500000000E-02 0. -1.
    8880023    1    1    2    0    0  0.58658038632E+03 -0.71138513153E+02 -0.23020876424E+04  0.24662836327E+04  0.65864270000E+03 0. -1.
    8880022    1    1    2    0    0 -0.58658038632E+03  0.71138513153E+02 -0.16664685126E+03  0.63269270876E+03  0.15294330000E+03 0.  0.
<mgrwt>
<rscale>  0 0.80638924E+03</rscale>
<asrwt>0</asrwt>
<pdfrwt beam="1">  1        2 0.42828543E+00 0.88484317E+03</pdfrwt>
<pdfrwt beam="2">  1       -2 0.48480144E-01 0.88484317E+03</pdfrwt>
<totfact> 0.98566014E+00</totfact>
</mgrwt>
</event>
<event>
 4    2  0.9070994E-007  0.7196078E+03  0.7818608E-02  0.9923915E-01
          2   -1    0    0  501    0  0.00000000000E+00  0.00000000000E+00  0.12348009417E+04  0.12348009417E+04  0.25500000000E-02 0. -1.
         -2   -1    0    0    0  501 -0.00000000000E+00 -0.00000000000E+00 -0.67674468060E+03  0.67674468061E+03  0.25500000000E-02 0.  1.
    8880023    1    1    2    0    0  0.27962372648E+03 -0.76391711642E+02  0.10784816768E+04  0.12965176650E+04  0.65864270000E+03 0. -1.
    8880022    1    1    2    0    0 -0.27962372648E+03  0.76391711642E+02 -0.52042541571E+03  0.61502795737E+03  0.15294330000E+03 0.  0.
<mgrwt>
<rscale>  0 0.59116116E+03</rscale>
<asrwt>0</asrwt>
<pdfrwt beam="1">  1        2 0.18996937E+00 0.71960776E+03</pdfrwt>
<pdfrwt beam="2">  1       -2 0.10411457E+00 0.71960776E+03</pdfrwt>
<totfact> 0.13868682E+01</totfact>
</mgrwt>
</event>
<event>
 4    2  0.9070994E-007  0.8263547E+03  0.7818608E-02  0.9656467E-01
         -2   -1    0    0    0  501 -0.00000000000E+00  0.00000000000E+00  0.29178215965E+03  0.29178215966E+03  0.25500000000E-02 0.  1.
          2   -1    0    0  501    0  0.00000000000E+00 -0.00000000000E+00 -0.23425388735E+04  0.23425388735E+04  0.25500000000E-02 0. -1.
    8880023    1    1    2    0    0 -0.28563194450E+03  0.40922637852E+03 -0.19287096397E+04  0.20982809433E+04  0.65864270000E+03 0. -1.
    8880022    1    1    2    0    0  0.28563194450E+03 -0.40922637852E+03 -0.12204707415E+03  0.53604008984E+03  0.15294330000E+03 0.  0.
<mgrwt>
<rscale>  0 0.73668940E+03</rscale>
<asrwt>0</asrwt>
<pdfrwt beam="1">  1        2 0.36039058E+00 0.82635467E+03</pdfrwt>
<pdfrwt beam="2">  1       -2 0.44889565E-01 0.82635467E+03</pdfrwt>
<totfact> 0.20797706E+01</totfact>
</mgrwt>
</event>
<event>
 4    2  0.9070994E-007  0.8817998E+03  0.7818608E-02  0.9555904E-01
         -2   -1    0    0    0  501 -0.00000000000E+00  0.00000000000E+00  0.63922255047E+03  0.63922255048E+03  0.25500000000E-02 0.  1.
          2   -1    0    0  501    0  0.00000000000E+00 -0.00000000000E+00 -0.17139132594E+04  0.17139132594E+04  0.25500000000E-02 0. -1.
    8880023    1    1    2    0    0  0.35922394963E+03 -0.46337757640E+03 -0.14081852034E+04  0.16614922202E+04  0.65864270000E+03 0.  0.
    8880022    1    1    2    0    0 -0.35922394963E+03  0.46337757640E+03  0.33349449450E+03  0.69164358970E+03  0.15294330000E+03 0.  0.
<mgrwt>
<rscale>  0 0.80284788E+03</rscale>
<asrwt>0</asrwt>
<pdfrwt beam="1">  1        2 0.26367896E+00 0.88179977E+03</pdfrwt>
<pdfrwt beam="2">  1       -2 0.98341932E-01 0.88179977E+03</pdfrwt>
<totfact> 0.83695114E+00</totfact>
</mgrwt>
</event>
<event>
 4    2  0.9070994E-007  0.8265727E+03  0.7818608E-02  0.9656038E-01
         -2   -1    0    0    0  501 -0.00000000000E+00  0.00000000000E+00  0.65373234779E+03  0.65373234780E+03  0.25500000000E-02 0.  1.
          2   -1    0    0  501    0  0.00000000000E+00 -0.00000000000E+00 -0.17726065860E+04  0.17726065860E+04  0.25500000000E-02 0. -1.
    8880023    1    1    2    0    0 -0.35801392505E+03 -0.34819271922E+03 -0.15450293915E+04  0.17522380452E+04  0.65864270000E+03 0.  0.
    8880022    1    1    2    0    0  0.35801392505E+03  0.34819271922E+03  0.42615515331E+03  0.67410088856E+03  0.15294330000E+03 0.  0.
<mgrwt>
<rscale>  0 0.73695687E+03</rscale>
<asrwt>0</asrwt>
<pdfrwt beam="1">  1        2 0.27270870E+00 0.82657265E+03</pdfrwt>
<pdfrwt beam="2">  1       -2 0.10057421E+00 0.82657265E+03</pdfrwt>
<totfact> 0.74217723E+00</totfact>
</mgrwt>
</event>
<event>
 4    2  0.9070994E-007  0.6748511E+03  0.7818608E-02  0.1012400E+00
          2   -1    0    0  501    0  0.00000000000E+00  0.00000000000E+00  0.18327887801E+04  0.18327887801E+04  0.25500000000E-02 0. -1.
         -2   -1    0    0    0  501 -0.00000000000E+00 -0.00000000000E+00 -0.54888073670E+03  0.54888073670E+03  0.25500000000E-02 0.  1.
    8880023    1    1    2    0    0  0.12964610470E+03 -0.69322755043E+02  0.17467196348E+04  0.18725526550E+04  0.65864270000E+03 0. -1.
    8880022    1    1    2    0    0 -0.12964610470E+03  0.69322755043E+02 -0.46281159140E+03  0.50911686181E+03  0.15294330000E+03 0.  0.
<mgrwt>
<rscale>  0 0.50531716E+03</rscale>
<asrwt>0</asrwt>
<pdfrwt beam="1">  1        2 0.28196750E+00 0.67485107E+03</pdfrwt>
<pdfrwt beam="2">  1       -2 0.84443191E-01 0.67485107E+03</pdfrwt>
<totfact> 0.10560306E+01</totfact>
</mgrwt>
</event>
<event>
 4    2  0.9070994E-007  0.6720734E+03  0.7818608E-02  0.1014218E+00
          2   -1    0    0  501    0  0.00000000000E+00  0.00000000000E+00  0.27488342116E+04  0.27488342116E+04  0.25500000000E-02 0. -1.
         -2   -1    0    0    0  501 -0.00000000000E+00 -0.00000000000E+00 -0.11259957215E+03  0.11259957218E+03  0.25500000000E-02 0.  1.
    8880023    1    1    2    0    0 -0.43656245310E+02  0.12635875077E+03  0.25562431738E+04  0.26431159209E+04  0.65864270000E+03 0. -1.
    8880022    1    1    2    0    0  0.43656245310E+02 -0.12635875077E+03  0.79991465668E+02  0.21831786286E+03  0.15294330000E+03 0.  0.
<mgrwt>
<rscale>  0 0.49832078E+03</rscale>
<asrwt>0</asrwt>
<pdfrwt beam="1">  1        2 0.42289751E+00 0.67207336E+03</pdfrwt>
<pdfrwt beam="2">  1       -2 0.17323013E-01 0.67207336E+03</pdfrwt>
<totfact> 0.71958444E+01</totfact>
</mgrwt>
</event>
<event>
 4    2  0.9070994E-007  0.8565574E+03  0.7818608E-02  0.9599717E-01
          2   -1    0    0  501    0  0.00000000000E+00  0.00000000000E+00  0.28286555214E+04  0.28286555214E+04  0.25500000000E-02 0. -1.
         -2   -1    0    0    0  501 -0.00000000000E+00 -0.00000000000E+00 -0.23388703893E+03  0.23388703894E+03  0.25500000000E-02 0.  1.
    8880023    1    1    2    0    0  0.39649795290E+03  0.37771650842E+03  0.22253315537E+04  0.23844896975E+04  0.65864270000E+03 0.  0.
    8880022    1    1    2    0    0 -0.39649795290E+03 -0.37771650842E+03  0.36943692870E+03  0.67805286276E+03  0.15294330000E+03 0.  0.
<mgrwt>
<rscale>  0 0.77314931E+03</rscale>
<asrwt>0</asrwt>
<pdfrwt beam="1">  1        2 0.43517776E+00 0.85655741E+03</pdfrwt>
<pdfrwt beam="2">  1       -2 0.35982622E-01 0.85655741E+03</pdfrwt>
<totfact> 0.16753000E+01</totfact>
</mgrwt>
</event>
<event>
 4    2  0.9070994E-007  0.8610964E+03  0.7818608E-02  0.9591616E-01
         -2   -1    0    0    0  501 -0.00000000000E+00  0.00000000000E+00  0.12954382297E+04  0.12954382297E+04  0.25500000000E-02 0.  1.
          2   -1    0    0  501    0  0.00000000000E+00 -0.00000000000E+00 -0.69240291546E+03  0.69240291546E+03  0.25500000000E-02 0. -1.
    8880023    1    1    2    0    0  0.18431523808E+03 -0.52316788958E+03 -0.30443824439E+03  0.91332885566E+03  0.65864270000E+03 0.  0.
    8880022    1    1    2    0    0 -0.18431523808E+03  0.52316788958E+03  0.90747355865E+03  0.10745122895E+04  0.15294330000E+03 0.  0.
<mgrwt>
<rscale>  0 0.77853570E+03</rscale>
<asrwt>0</asrwt>
<pdfrwt beam="1">  1        2 0.10652353E+00 0.86109637E+03</pdfrwt>
<pdfrwt beam="2">  1       -2 0.19929819E+00 0.86109637E+03</pdfrwt>
<totfact> 0.56265071E+00</totfact>
</mgrwt>
</event>
<event>
 4    2  0.9070994E-007  0.8321844E+03  0.7818608E-02  0.9645097E-01
         -2   -1    0    0    0  501 -0.00000000000E+00  0.00000000000E+00  0.52643759408E+03  0.52643759409E+03  0.25500000000E-02 0.  1.
          2   -1    0    0  501    0  0.00000000000E+00 -0.00000000000E+00 -0.96235662340E+03  0.96235662340E+03  0.25500000000E-02 0. -1.
    8880023    1    1    2    0    0  0.35176526581E+03  0.36739883463E+03 -0.47147665607E+03  0.95646283221E+03  0.65864270000E+03 0. -1.
    8880022    1    1    2    0    0 -0.35176526581E+03 -0.36739883463E+03  0.35557626750E+02  0.53233138528E+03  0.15294330000E+03 0.  1.
<mgrwt>
<rscale>  0 0.74381931E+03</rscale>
<asrwt>0</asrwt>
<pdfrwt beam="1">  1        2 0.14805486E+00 0.83218442E+03</pdfrwt>
<pdfrwt beam="2">  1       -2 0.80990399E-01 0.83218442E+03</pdfrwt>
<totfact> 0.36123701E+01</totfact>
</mgrwt>
</event>
<event>
 4    2  0.9070994E-007  0.6632917E+03  0.7818608E-02  0.1021012E+00
         -2   -1    0    0    0  501 -0.00000000000E+00  0.00000000000E+00  0.31146877218E+03  0.31146877219E+03  0.25500000000E-02 0.  1.
          2   -1    0    0  501    0  0.00000000000E+00 -0.00000000000E+00 -0.90924802111E+03  0.90924802112E+03  0.25500000000E-02 0. -1.
    8880023    1    1    2    0    0  0.63872460606E+02  0.45452452544E+02 -0.74279831404E+03  0.99584394273E+03  0.65864270000E+03 0. -1.
    8880022    1    1    2    0    0 -0.63872460606E+02 -0.45452452544E+02  0.14501906510E+03  0.22487285057E+03  0.15294330000E+03 0.  0.
<mgrwt>
<rscale>  0 0.47323264E+03</rscale>
<asrwt>0</asrwt>
<pdfrwt beam="1">  1        2 0.13988431E+00 0.66329166E+03</pdfrwt>
<pdfrwt beam="2">  1       -2 0.47918273E-01 0.66329166E+03</pdfrwt>
<totfact> 0.12145650E+02</totfact>
</mgrwt>
</event>
<event>
 4    2  0.9070994E-007  0.7123956E+03  0.7818608E-02  0.9949210E-01
         -2   -1    0    0    0  501 -0.00000000000E+00  0.00000000000E+00  0.32428998614E+03  0.32428998615E+03  0.25500000000E-02 0.  1.
          2   -1    0    0  501    0  0.00000000000E+00 -0.00000000000E+00 -0.25435216125E+04  0.25435216125E+04  0.25500000000E-02 0. -1.
    8880023    1    1    2    0    0  0.23632011458E+03 -0.13360435508E+03 -0.24027892641E+04  0.25061731333E+04  0.65864270000E+03 0. -1.
    8880022    1    1    2    0    0 -0.23632011458E+03  0.13360435508E+03  0.18355763771E+03  0.36163846536E+03  0.15294330000E+03 0.  0.
<mgrwt>
<rscale>  0 0.57934488E+03</rscale>
<asrwt>0</asrwt>
<pdfrwt beam="1">  1        2 0.39131100E+00 0.71239562E+03</pdfrwt>
<pdfrwt beam="2">  1       -2 0.49890769E-01 0.71239562E+03</pdfrwt>
<totfact> 0.13174467E+01</totfact>
</mgrwt>
</event>
<event>
 4    2  0.9070994E-007  0.8662105E+03  0.7818608E-02  0.9582610E-01
         -2   -1    0    0    0  501 -0.00000000000E+00  0.00000000000E+00  0.79296869800E+03  0.79296869801E+03  0.25500000000E-02 0.  1.
          2   -1    0    0  501    0  0.00000000000E+00 -0.00000000000E+00 -0.86308019458E+03  0.86308019459E+03  0.25500000000E-02 0. -1.
    8880023    1    1    2    0    0  0.32903563925E+03  0.45633973650E+03  0.35331853962E+03  0.93549698220E+03  0.65864270000E+03 0.  1.
    8880022    1    1    2    0    0 -0.32903563925E+03 -0.45633973650E+03 -0.42343003620E+03  0.72055191040E+03  0.15294330000E+03 0.  0.
<mgrwt>
<rscale>  0 0.78457922E+03</rscale>
<asrwt>0</asrwt>
<pdfrwt beam="1">  1        2 0.13278157E+00 0.86621049E+03</pdfrwt>
<pdfrwt beam="2">  1       -2 0.12199519E+00 0.86621049E+03</pdfrwt>
<totfact> 0.15902687E+01</totfact>
</mgrwt>
</event>
<event>
 4    2  0.9070994E-007  0.8251427E+03  0.7818608E-02  0.9658858E-01
          2   -1    0    0  501    0  0.00000000000E+00  0.00000000000E+00  0.17750176151E+04  0.17750176151E+04  0.25500000000E-02 0. -1.
         -2   -1    0    0    0  501 -0.00000000000E+00 -0.00000000000E+00 -0.56776938697E+03  0.56776938697E+03  0.25500000000E-02 0.  1.
    8880023    1    1    2    0    0 -0.36555721197E+03  0.33677626111E+03  0.15245947065E+04  0.17335655599E+04  0.65864270000E+03 0.  0.
    8880022    1    1    2    0    0  0.36555721197E+03 -0.33677626111E+03 -0.31734647833E+03  0.60922144216E+03  0.15294330000E+03 0.  0.
<mgrwt>
<rscale>  0 0.73520097E+03</rscale>
<asrwt>0</asrwt>
<pdfrwt beam="1">  1        2 0.27307963E+00 0.82514273E+03</pdfrwt>
<pdfrwt beam="2">  1       -2 0.87349138E-01 0.82514273E+03</pdfrwt>
<totfact> 0.10283766E+01</totfact>
</mgrwt>
</event>
<event>
 4    2  0.9070994E-007  0.6947476E+03  0.7818608E-02  0.1001973E+00
         -2   -1    0    0    0  501 -0.00000000000E+00  0.00000000000E+00  0.17393055526E+03  0.17393055528E+03  0.25500000000E-02 0.  1.
          2   -1    0    0  501    0  0.00000000000E+00 -0.00000000000E+00 -0.37873177446E+04  0.37873177446E+04  0.25500000000E-02 0. -1.
    8880023    1    1    2    0    0 -0.11043974368E+03  0.19148649321E+03 -0.36261854627E+04  0.36921396548E+04  0.65864270000E+03 0. -1.
    8880022    1    1    2    0    0  0.11043974368E+03 -0.19148649321E+03  0.12798273356E+02  0.26910864513E+03  0.15294330000E+03 0.  0.
<mgrwt>
<rscale>  0 0.54793530E+03</rscale>
<asrwt>0</asrwt>
<pdfrwt beam="1">  1        2 0.58266421E+00 0.69474759E+03</pdfrwt>
<pdfrwt beam="2">  1       -2 0.26758550E-01 0.69474759E+03</pdfrwt>
<totfact> 0.70347344E+00</totfact>
</mgrwt>
</event>
<event>
 4    2  0.9070994E-007  0.8781118E+03  0.7818608E-02  0.9562124E-01
         -2   -1    0    0    0  501 -0.00000000000E+00  0.00000000000E+00  0.50672941381E+03  0.50672941382E+03  0.25500000000E-02 0.  1.
          2   -1    0    0  501    0  0.00000000000E+00 -0.00000000000E+00 -0.15405626730E+04  0.15405626730E+04  0.25500000000E-02 0. -1.
    8880023    1    1    2    0    0  0.76137659649E+02 -0.57573710334E+03 -0.11383861732E+04  0.14377077036E+04  0.65864270000E+03 0.  0.
    8880022    1    1    2    0    0 -0.76137659649E+02  0.57573710334E+03  0.10455291405E+03  0.60958438319E+03  0.15294330000E+03 0.  1.
<mgrwt>
<rscale>  0 0.79854590E+03</rscale>
<asrwt>0</asrwt>
<pdfrwt beam="1">  1        2 0.23700964E+00 0.87811182E+03</pdfrwt>
<pdfrwt beam="2">  1       -2 0.77958372E-01 0.87811182E+03</pdfrwt>
<totfact> 0.17812720E+01</totfact>
</mgrwt>
</event>
<event>
 4    2  0.9070994E-007  0.7695259E+03  0.7818608E-02  0.9781042E-01
          2   -1    0    0  501    0  0.00000000000E+00  0.00000000000E+00  0.12596845091E+04  0.12596845091E+04  0.25500000000E-02 0. -1.
         -2   -1    0    0    0  501 -0.00000000000E+00 -0.00000000000E+00 -0.34901920565E+03  0.34901920566E+03  0.25500000000E-02 0.  1.
    8880023    1    1    2    0    0 -0.65288936456E+02 -0.39255215623E+03  0.22576995721E+03  0.80196142078E+03  0.65864270000E+03 0.  0.
    8880022    1    1    2    0    0  0.65288936456E+02  0.39255215623E+03  0.68489534619E+03  0.80674229394E+03  0.15294330000E+03 0.  0.
<mgrwt>
<rscale>  0 0.66389923E+03</rscale>
<asrwt>0</asrwt>
<pdfrwt beam="1">  1        2 0.19379762E+00 0.76952586E+03</pdfrwt>
<pdfrwt beam="2">  1       -2 0.53695262E-01 0.76952586E+03</pdfrwt>
<totfact> 0.57968276E+01</totfact>
</mgrwt>
</event>
<event>
 4    2  0.9070994E-007  0.7538539E+03  0.7818608E-02  0.9821287E-01
         -2   -1    0    0    0  501 -0.00000000000E+00  0.00000000000E+00  0.33889654155E+03  0.33889654156E+03  0.25500000000E-02 0.  1.
          2   -1    0    0  501    0  0.00000000000E+00 -0.00000000000E+00 -0.16931807041E+04  0.16931807041E+04  0.25500000000E-02 0. -1.
    8880023    1    1    2    0    0 -0.36650654149E+03 -0.12587664525E+02 -0.14401898938E+04  0.16255591748E+04  0.65864270000E+03 0.  0.
    8880022    1    1    2    0    0  0.36650654149E+03  0.12587664525E+02  0.85905731282E+02  0.40651807086E+03  0.15294330000E+03 0.  0.
<mgrwt>
<rscale>  0 0.64232570E+03</rscale>
<asrwt>0</asrwt>
<pdfrwt beam="1">  1        2 0.26048934E+00 0.75385390E+03</pdfrwt>
<pdfrwt beam="2">  1       -2 0.52137930E-01 0.75385390E+03</pdfrwt>
<totfact> 0.35237472E+01</totfact>
</mgrwt>
</event>
<event>
 4    2  0.9070994E-007  0.8293344E+03  0.7818608E-02  0.9650629E-01
          2   -1    0    0  501    0  0.00000000000E+00  0.00000000000E+00  0.13901669996E+04  0.13901669996E+04  0.25500000000E-02 0. -1.
         -2   -1    0    0    0  501 -0.00000000000E+00 -0.00000000000E+00 -0.40293255596E+03  0.40293255596E+03  0.25500000000E-02 0.  1.
    8880023    1    1    2    0    0 -0.45891397439E+03  0.20828649958E+03  0.95587496400E+03  0.12655008711E+04  0.65864270000E+03 0.  0.
    8880022    1    1    2    0    0  0.45891397439E+03 -0.20828649958E+03  0.31359479611E+02  0.52759868439E+03  0.15294330000E+03 0.  0.
<mgrwt>
<rscale>  0 0.74033972E+03</rscale>
<asrwt>0</asrwt>
<pdfrwt beam="1">  1        2 0.21387185E+00 0.82933438E+03</pdfrwt>
<pdfrwt beam="2">  1       -2 0.61989624E-01 0.82933438E+03</pdfrwt>
<totfact> 0.35882345E+01</totfact>
</mgrwt>
</event>
<event>
 4    2  0.1299236E-006  0.6715284E+03  0.7818608E-02  0.1014590E+00
          2   -1    0    0  501    0  0.00000000000E+00  0.00000000000E+00  0.14870570728E+04  0.14870570728E+04  0.25500000000E-02 0. -1.
         -2   -1    0    0    0  501 -0.00000000000E+00 -0.00000000000E+00 -0.18884439680E+04  0.18884439680E+04  0.25500000000E-02 0.  1.
    8880023    1    1    2    0    0 -0.38944373585E+02  0.12499389714E+03  0.14053673379E+04  0.15575646694E+04  0.65864270000E+03 0. -1.
    8880022    1    1    2    0    0  0.38944373585E+02 -0.12499389714E+03 -0.18067542332E+04  0.18179363715E+04  0.15294330000E+03 0.  0.
<mgrwt>
<rscale>  0 0.49690429E+03</rscale>
<asrwt>0</asrwt>
<pdfrwt beam="1">  1        2 0.22877801E+00 0.67152836E+03</pdfrwt>
<pdfrwt beam="2">  1       -2 0.29052984E+00 0.67152836E+03</pdfrwt>
<totfact> 0.50239081E-01</totfact>
</mgrwt>
</event>
<event>
 4    2  0.9070994E-007  0.7682214E+03  0.7818608E-02  0.9784270E-01
          2   -1    0    0  501    0  0.00000000000E+00  0.00000000000E+00  0.93185402484E+03  0.93185402484E+03  0.25500000000E-02 0. -1.
         -2   -1    0    0    0  501 -0.00000000000E+00 -0.00000000000E+00 -0.38345218686E+03  0.38345218687E+03  0.25500000000E-02 0.  1.
    8880023    1    1    2    0    0  0.30757531642E+03 -0.24849809641E+03  0.39999572556E+03  0.86611815933E+03  0.65864270000E+03 0.  1.
    8880022    1    1    2    0    0 -0.30757531642E+03  0.24849809641E+03  0.14840611242E+03  0.44918805239E+03  0.15294330000E+03 0. -1.
<mgrwt>
<rscale>  0 0.66213578E+03</rscale>
<asrwt>0</asrwt>
<pdfrwt beam="1">  1        2 0.14336216E+00 0.76822138E+03</pdfrwt>
<pdfrwt beam="2">  1       -2 0.58992644E-01 0.76822138E+03</pdfrwt>
<totfact> 0.75864468E+01</totfact>
</mgrwt>
</event>
<event>
 4    2  0.9070994E-007  0.9350659E+03  0.7818608E-02  0.9471935E-01
          2   -1    0    0  501    0  0.00000000000E+00  0.00000000000E+00  0.91727358532E+03  0.91727358533E+03  0.25500000000E-02 0. -1.
         -2   -1    0    0    0  501 -0.00000000000E+00 -0.00000000000E+00 -0.92172183258E+03  0.92172183259E+03  0.25500000000E-02 0.  1.
    8880023    1    1    2    0    0 -0.53272058934E+03 -0.39591263173E+03  0.43200005245E+03  0.10300350916E+04  0.65864270000E+03 0.  0.
    8880022    1    1    2    0    0  0.53272058934E+03  0.39591263173E+03 -0.43644829971E+03  0.80896032635E+03  0.15294330000E+03 0.  0.
<mgrwt>
<rscale>  0 0.86384970E+03</rscale>
<asrwt>0</asrwt>
<pdfrwt beam="1">  1        2 0.14111901E+00 0.93506590E+03</pdfrwt>
<pdfrwt beam="2">  1       -2 0.14180336E+00 0.93506590E+03</pdfrwt>
<totfact> 0.98915158E+00</totfact>
</mgrwt>
</event>
<event>
 4    2  0.9070994E-007  0.9260835E+03  0.7818608E-02  0.9485393E-01
         -2   -1    0    0    0  501 -0.00000000000E+00  0.00000000000E+00  0.65777934542E+03  0.65777934543E+03  0.25500000000E-02 0.  1.
          2   -1    0    0  501    0  0.00000000000E+00 -0.00000000000E+00 -0.97089133476E+03  0.97089133476E+03  0.25500000000E-02 0. -1.
    8880023    1    1    2    0    0  0.49848481550E+03 -0.41872824217E+03 -0.12880205864E+03  0.93499766238E+03  0.65864270000E+03 0. -1.
    8880022    1    1    2    0    0 -0.49848481550E+03  0.41872824217E+03 -0.18430993069E+03  0.69367301781E+03  0.15294330000E+03 0.  1.
<mgrwt>
<rscale>  0 0.85369317E+03</rscale>
<asrwt>0</asrwt>
<pdfrwt beam="1">  1        2 0.14936790E+00 0.92608351E+03</pdfrwt>
<pdfrwt beam="2">  1       -2 0.10119682E+00 0.92608351E+03</pdfrwt>
<totfact> 0.21119932E+01</totfact>
</mgrwt>
</event>
<event>
 4    2  0.9070994E-007  0.9735589E+03  0.7818608E-02  0.9416999E-01
          2   -1    0    0  501    0  0.00000000000E+00  0.00000000000E+00  0.87607076410E+03  0.87607076411E+03  0.25500000000E-02 0. -1.
         -2   -1    0    0    0  501 -0.00000000000E+00 -0.00000000000E+00 -0.18043838346E+04  0.18043838346E+04  0.25500000000E-02 0.  1.
    8880023    1    1    2    0    0 -0.30047164471E+03 -0.65094047002E+03  0.48549136141E+03  0.10878964900E+04  0.65864270000E+03 0. -1.
    8880022    1    1    2    0    0  0.30047164471E+03  0.65094047002E+03 -0.14138044320E+04  0.15925581087E+04  0.15294330000E+03 0.  1.
<mgrwt>
<rscale>  0 0.90689856E+03</rscale>
<asrwt>0</asrwt>
<pdfrwt beam="1">  1        2 0.13478012E+00 0.97355889E+03</pdfrwt>
<pdfrwt beam="2">  1       -2 0.27759751E+00 0.97355889E+03</pdfrwt>
<totfact> 0.13319210E+00</totfact>
</mgrwt>
</event>
<event>
 4    2  0.9070994E-007  0.6738739E+03  0.7818608E-02  0.1013026E+00
          2   -1    0    0  501    0  0.00000000000E+00  0.00000000000E+00  0.13562215315E+04  0.13562215315E+04  0.25500000000E-02 0. -1.
         -2   -1    0    0    0  501 -0.00000000000E+00 -0.00000000000E+00 -0.21545623061E+03  0.21545623062E+03  0.25500000000E-02 0.  1.
    8880023    1    1    2    0    0 -0.96060443187E+02  0.10520584055E+03  0.11801420010E+04  0.13589853665E+04  0.65864270000E+03 0. -1.
    8880022    1    1    2    0    0  0.96060443187E+02 -0.10520584055E+03 -0.39376700091E+02  0.21269239562E+03  0.15294330000E+03 0.  0.
<mgrwt>
<rscale>  0 0.50289658E+03</rscale>
<asrwt>0</asrwt>
<pdfrwt beam="1">  1        2 0.20864946E+00 0.67387394E+03</pdfrwt>
<pdfrwt beam="2">  1       -2 0.33147113E-01 0.67387394E+03</pdfrwt>
<totfact> 0.13311455E+02</totfact>
</mgrwt>
</event>
<event>
 4    2  0.9070994E-007  0.6800155E+03  0.7818608E-02  0.1009315E+00
         -2   -1    0    0    0  501 -0.00000000000E+00  0.00000000000E+00  0.44756433325E+03  0.44756433326E+03  0.25500000000E-02 0.  1.
          2   -1    0    0  501    0  0.00000000000E+00 -0.00000000000E+00 -0.54560637692E+03  0.54560637693E+03  0.25500000000E-02 0. -1.
    8880023    1    1    2    0    0 -0.16897160734E+03  0.77150690915E+01 -0.24394676960E+03  0.72244803207E+03  0.65864270000E+03 0. -1.
    8880022    1    1    2    0    0  0.16897160734E+03 -0.77150690915E+01  0.14590472594E+03  0.27072267811E+03  0.15294330000E+03 0.  0.
<mgrwt>
<rscale>  0 0.51747841E+03</rscale>
<asrwt>0</asrwt>
<pdfrwt beam="1">  1        2 0.83939443E-01 0.68001554E+03</pdfrwt>
<pdfrwt beam="2">  1       -2 0.68856051E-01 0.68001554E+03</pdfrwt>
<totfact> 0.10871038E+02</totfact>
</mgrwt>
</event>
<event>
 4    2  0.9070994E-007  0.8837323E+03  0.7818608E-02  0.9552668E-01
         -2   -1    0    0    0  501 -0.00000000000E+00  0.00000000000E+00  0.34440100549E+03  0.34440100550E+03  0.25500000000E-02 0.  1.
          2   -1    0    0  501    0  0.00000000000E+00 -0.00000000000E+00 -0.18805184387E+04  0.18805184387E+04  0.25500000000E-02 0. -1.
    8880023    1    1    2    0    0  0.52943641203E+03 -0.25859153285E+03 -0.13001181586E+04  0.15720336917E+04  0.65864270000E+03 0.  0.
    8880022    1    1    2    0    0 -0.52943641203E+03  0.25859153285E+03 -0.23599927468E+03  0.65288575257E+03  0.15294330000E+03 0.  0.
<mgrwt>
<rscale>  0 0.80509746E+03</rscale>
<asrwt>0</asrwt>
<pdfrwt beam="1">  1        2 0.28931052E+00 0.88373226E+03</pdfrwt>
<pdfrwt beam="2">  1       -2 0.52984771E-01 0.88373226E+03</pdfrwt>
<totfact> 0.26527460E+01</totfact>
</mgrwt>
</event>
<event>
 4    2  0.9070994E-007  0.6687793E+03  0.7818608E-02  0.1016553E+00
          2   -1    0    0  501    0  0.00000000000E+00  0.00000000000E+00  0.22981124667E+04  0.22981124667E+04  0.25500000000E-02 0. -1.
         -2   -1    0    0    0  501 -0.00000000000E+00 -0.00000000000E+00 -0.11862532996E+03  0.11862532998E+03  0.25500000000E-02 0.  1.
    8880023    1    1    2    0    0  0.58324884963E+02  0.10026864239E+03  0.21085903780E+04  0.22121074073E+04  0.65864270000E+03 0. -1.
    8880022    1    1    2    0    0 -0.58324884963E+02 -0.10026864239E+03  0.70896758736E+02  0.20463038940E+03  0.15294330000E+03 0.  0.
<mgrwt>
<rscale>  0 0.48951135E+03</rscale>
<asrwt>0</asrwt>
<pdfrwt beam="1">  1        2 0.35355573E+00 0.66877934E+03</pdfrwt>
<pdfrwt beam="2">  1       -2 0.18250052E-01 0.66877934E+03</pdfrwt>
<totfact> 0.11858773E+02</totfact>
</mgrwt>
</event>
<event>
 4    2  0.9070994E-007  0.1106421E+04  0.7818608E-02  0.9253940E-01
         -2   -1    0    0    0  501 -0.00000000000E+00  0.00000000000E+00  0.28223392518E+03  0.28223392519E+03  0.25500000000E-02 0.  1.
          2   -1    0    0  501    0  0.00000000000E+00 -0.00000000000E+00 -0.35821770662E+04  0.35821770662E+04  0.25500000000E-02 0. -1.
    8880023    1    1    2    0    0 -0.12933857809E+03  0.87956189493E+03 -0.19128574668E+04  0.22097944451E+04  0.65864270000E+03 0. -1.
    8880022    1    1    2    0    0  0.12933857809E+03 -0.87956189493E+03 -0.13870856741E+04  0.16546165463E+04  0.15294330000E+03 0.  1.
<mgrwt>
<rscale>  0 0.10513606E+04</rscale>
<asrwt>0</asrwt>
<pdfrwt beam="1">  1        2 0.55110413E+00 0.11064212E+04</pdfrwt>
<pdfrwt beam="2">  1       -2 0.43420606E-01 0.11064212E+04</pdfrwt>
<totfact> 0.36599479E+00</totfact>
</mgrwt>
</event>
<event>
 4    2  0.9070994E-007  0.8329507E+03  0.7818608E-02  0.9643618E-01
          2   -1    0    0  501    0  0.00000000000E+00  0.00000000000E+00  0.34455505018E+04  0.34455505018E+04  0.25500000000E-02 0. -1.
         -2   -1    0    0    0  501 -0.00000000000E+00 -0.00000000000E+00 -0.15227065499E+03  0.15227065501E+03  0.25500000000E-02 0.  1.
    8880023    1    1    2    0    0 -0.36344092289E+03  0.35764146895E+03  0.13802986888E+04  0.16121511720E+04  0.65864270000E+03 0.  1.
    8880022    1    1    2    0    0  0.36344092289E+03 -0.35764146895E+03  0.19129811580E+04  0.19856699848E+04  0.15294330000E+03 0.  0.
<mgrwt>
<rscale>  0 0.74475297E+03</rscale>
<asrwt>0</asrwt>
<pdfrwt beam="1">  1        2 0.53008470E+00 0.83295074E+03</pdfrwt>
<pdfrwt beam="2">  1       -2 0.23426254E-01 0.83295074E+03</pdfrwt>
<totfact> 0.15162820E+01</totfact>
</mgrwt>
</event>
<event>
 4    2  0.9070994E-007  0.7336902E+03  0.7818608E-02  0.9878724E-01
          2   -1    0    0  501    0  0.00000000000E+00  0.00000000000E+00  0.42893902611E+04  0.42893902611E+04  0.25500000000E-02 0. -1.
         -2   -1    0    0    0  501 -0.00000000000E+00 -0.00000000000E+00 -0.26952822292E+03  0.26952822293E+03  0.25500000000E-02 0.  1.
    8880023    1    1    2    0    0 -0.32266431081E+03  0.19462700412E+02  0.41221782037E+04  0.41869624316E+04  0.65864270000E+03 0. -1.
    8880022    1    1    2    0    0  0.32266431081E+03 -0.19462700412E+02 -0.10231616555E+03  0.37195605241E+03  0.15294330000E+03 0.  0.
<mgrwt>
<rscale>  0 0.61303603E+03</rscale>
<asrwt>0</asrwt>
<pdfrwt beam="1">  1        2 0.65990615E+00 0.73369017E+03</pdfrwt>
<pdfrwt beam="2">  1       -2 0.41465883E-01 0.73369017E+03</pdfrwt>
<totfact> 0.12084053E+00</totfact>
</mgrwt>
</event>
<event>
 4    2  0.9070994E-007  0.7635453E+03  0.7818608E-02  0.9796014E-01
         -2   -1    0    0    0  501 -0.00000000000E+00  0.00000000000E+00  0.39821303897E+03  0.39821303898E+03  0.25500000000E-02 0.  1.
          2   -1    0    0  501    0  0.00000000000E+00 -0.00000000000E+00 -0.21797767788E+04  0.21797767788E+04  0.25500000000E-02 0. -1.
    8880023    1    1    2    0    0 -0.38618243244E+03  0.73694321931E+01 -0.19766767057E+04  0.21190215159E+04  0.65864270000E+03 0.  0.
    8880022    1    1    2    0    0  0.38618243244E+03 -0.73694321931E+01  0.19511296589E+03  0.45896830188E+03  0.15294330000E+03 0.  0.
<mgrwt>
<rscale>  0 0.65576887E+03</rscale>
<asrwt>0</asrwt>
<pdfrwt beam="1">  1        2 0.33535027E+00 0.76354527E+03</pdfrwt>
<pdfrwt beam="2">  1       -2 0.61263546E-01 0.76354527E+03</pdfrwt>
<totfact> 0.13623266E+01</totfact>
</mgrwt>
</event>
<event>
 4    2  0.9070994E-007  0.6811423E+03  0.7818608E-02  0.1008685E+00
         -2   -1    0    0    0  501 -0.00000000000E+00  0.00000000000E+00  0.37362622301E+03  0.37362622302E+03  0.25500000000E-02 0.  1.
          2   -1    0    0  501    0  0.00000000000E+00 -0.00000000000E+00 -0.96861379780E+03  0.96861379780E+03  0.25500000000E-02 0. -1.
    8880023    1    1    2    0    0 -0.38260720091E+02 -0.16935406410E+03 -0.78752827820E+03  0.10412279659E+04  0.65864270000E+03 0. -1.
    8880022    1    1    2    0    0  0.38260720091E+02  0.16935406410E+03  0.19254070341E+03  0.30101205493E+03  0.15294330000E+03 0.  0.
<mgrwt>
<rscale>  0 0.52000736E+03</rscale>
<asrwt>0</asrwt>
<pdfrwt beam="1">  1        2 0.14901751E+00 0.68114234E+03</pdfrwt>
<pdfrwt beam="2">  1       -2 0.57480958E-01 0.68114234E+03</pdfrwt>
<totfact> 0.76326916E+01</totfact>
</mgrwt>
</event>
<event>
 4    2  0.9070994E-007  0.6729033E+03  0.7818608E-02  0.1013662E+00
         -2   -1    0    0    0  501 -0.00000000000E+00  0.00000000000E+00  0.39271200118E+03  0.39271200119E+03  0.25500000000E-02 0.  1.
          2   -1    0    0  501    0  0.00000000000E+00 -0.00000000000E+00 -0.98630335440E+03  0.98630335440E+03  0.25500000000E-02 0. -1.
    8880023    1    1    2    0    0 -0.11075326884E+03 -0.81989746273E+02 -0.82805976244E+03  0.10669966174E+04  0.65864270000E+03 0. -1.
    8880022    1    1    2    0    0  0.11075326884E+03  0.81989746273E+02  0.23446840923E+03  0.31201873821E+03  0.15294330000E+03 0.  0.
<mgrwt>
<rscale>  0 0.50044912E+03</rscale>
<asrwt>0</asrwt>
<pdfrwt beam="1">  1        2 0.15173898E+00 0.67290327E+03</pdfrwt>
<pdfrwt beam="2">  1       -2 0.60417231E-01 0.67290327E+03</pdfrwt>
<totfact> 0.67013887E+01</totfact>
</mgrwt>
</event>
<event>
 4    2  0.9070994E-007  0.7573911E+03  0.7818608E-02  0.9811909E-01
         -2   -1    0    0    0  501 -0.00000000000E+00  0.00000000000E+00  0.11460503188E+04  0.11460503188E+04  0.25500000000E-02 0.  1.
          2   -1    0    0  501    0  0.00000000000E+00 -0.00000000000E+00 -0.62204511862E+03  0.62204511863E+03  0.25500000000E-02 0. -1.
    8880023    1    1    2    0    0  0.31556538578E+03  0.20062275645E+03 -0.32784005070E+03  0.82530013220E+03  0.65864270000E+03 0.  0.
    8880022    1    1    2    0    0 -0.31556538578E+03 -0.20062275645E+03  0.85184525086E+03  0.94279530522E+03  0.15294330000E+03 0.  1.
<mgrwt>
<rscale>  0 0.64727329E+03</rscale>
<asrwt>0</asrwt>
<pdfrwt beam="1">  1        2 0.95699250E-01 0.75739105E+03</pdfrwt>
<pdfrwt beam="2">  1       -2 0.17631543E+00 0.75739105E+03</pdfrwt>
<totfact> 0.92780382E+00</totfact>
</mgrwt>
</event>
<event>
 4    2  0.9070994E-007  0.6874364E+03  0.7818608E-02  0.1005396E+00
         -2   -1    0    0    0  501 -0.00000000000E+00  0.00000000000E+00  0.32433917488E+03  0.32433917489E+03  0.25500000000E-02 0.  1.
          2   -1    0    0  501    0  0.00000000000E+00 -0.00000000000E+00 -0.91526444098E+03  0.91526444099E+03  0.25500000000E-02 0. -1.
    8880023    1    1    2    0    0  0.71650617193E+02 -0.18337068302E+03 -0.68752341462E+03  0.97224342129E+03  0.65864270000E+03 0. -1.
    8880022    1    1    2    0    0 -0.71650617193E+02  0.18337068302E+03  0.96598148509E+02  0.26736019458E+03  0.15294330000E+03 0.  1.
<mgrwt>
<rscale>  0 0.53346358E+03</rscale>
<asrwt>0</asrwt>
<pdfrwt beam="1">  1        2 0.14080991E+00 0.68743641E+03</pdfrwt>
<pdfrwt beam="2">  1       -2 0.49898335E-01 0.68743641E+03</pdfrwt>
<totfact> 0.11067633E+02</totfact>
</mgrwt>
</event>
<event>
 4    2  0.9070994E-007  0.6607023E+03  0.7818608E-02  0.1023448E+00
         -2   -1    0    0    0  501 -0.00000000000E+00  0.00000000000E+00  0.87196898913E+03  0.87196898913E+03  0.25500000000E-02 0.  1.
          2   -1    0    0  501    0  0.00000000000E+00 -0.00000000000E+00 -0.19777352631E+03  0.19777352633E+03  0.25500000000E-02 0. -1.
    8880023    1    1    2    0    0 -0.12475470193E+02 -0.50613171420E+02  0.47750850040E+03  0.81519439687E+03  0.65864270000E+03 0.  1.
    8880022    1    1    2    0    0  0.12475470193E+02  0.50613171420E+02  0.19668696242E+03  0.25454811859E+03  0.15294330000E+03 0. -1.
<mgrwt>
<rscale>  0 0.46462558E+03</rscale>
<asrwt>0</asrwt>
<pdfrwt beam="1">  1        2 0.30426696E-01 0.66070231E+03</pdfrwt>
<pdfrwt beam="2">  1       -2 0.13414908E+00 0.66070231E+03</pdfrwt>
<totfact> 0.71227466E+01</totfact>
</mgrwt>
</event>
<event>
 4    2  0.9070994E-007  0.6721418E+03  0.7818608E-02  0.1014172E+00
         -2   -1    0    0    0  501 -0.00000000000E+00  0.00000000000E+00  0.41705242088E+03  0.41705242089E+03  0.25500000000E-02 0.  1.
          2   -1    0    0  501    0  0.00000000000E+00 -0.00000000000E+00 -0.10474214703E+04  0.10474214703E+04  0.25500000000E-02 0. -1.
    8880023    1    1    2    0    0 -0.12227671926E+03  0.54889515753E+02 -0.90216305340E+03  0.11250212603E+04  0.65864270000E+03 0. -1.
    8880022    1    1    2    0    0  0.12227671926E+03 -0.54889515753E+02  0.27179400395E+03  0.33945263088E+03  0.15294330000E+03 0.  0.
<mgrwt>
<rscale>  0 0.49849770E+03</rscale>
<asrwt>0</asrwt>
<pdfrwt beam="1">  1        2 0.16114176E+00 0.67214185E+03</pdfrwt>
<pdfrwt beam="2">  1       -2 0.64161911E-01 0.67214185E+03</pdfrwt>
<totfact> 0.53967554E+01</totfact>
</mgrwt>
</event>
<event>
 4    2  0.9070994E-007  0.7551003E+03  0.7818608E-02  0.9817961E-01
         -2   -1    0    0    0  501 -0.00000000000E+00  0.00000000000E+00  0.35416175114E+03  0.35416175115E+03  0.25500000000E-02 0.  1.
          2   -1    0    0  501    0  0.00000000000E+00 -0.00000000000E+00 -0.26962250044E+04  0.26962250044E+04  0.25500000000E-02 0. -1.
    8880023    1    1    2    0    0 -0.32105250237E+03  0.18245970449E+03 -0.25068111246E+04  0.26180676984E+04  0.65864270000E+03 0. -1.
    8880022    1    1    2    0    0  0.32105250237E+03 -0.18245970449E+03  0.16474787131E+03  0.43231905713E+03  0.15294330000E+03 0.  0.
<mgrwt>
<rscale>  0 0.64407475E+03</rscale>
<asrwt>0</asrwt>
<pdfrwt beam="1">  1        2 0.41480383E+00 0.75510030E+03</pdfrwt>
<pdfrwt beam="2">  1       -2 0.54486425E-01 0.75510030E+03</pdfrwt>
<totfact> 0.89161283E+00</totfact>
</mgrwt>
</event>
<event>
 4    2  0.9070994E-007  0.7658414E+03  0.7818608E-02  0.9790213E-01
          2   -1    0    0  501    0  0.00000000000E+00  0.00000000000E+00  0.32808796655E+04  0.32808796655E+04  0.25500000000E-02 0. -1.
         -2   -1    0    0    0  501 -0.00000000000E+00 -0.00000000000E+00 -0.38237723738E+03  0.38237723738E+03  0.25500000000E-02 0.  1.
    8880023    1    1    2    0    0 -0.26452503538E+03  0.28762697504E+03  0.31032371669E+04  0.31963407033E+04  0.65864270000E+03 0. -1.
    8880022    1    1    2    0    0  0.26452503538E+03 -0.28762697504E+03 -0.20473473883E+03  0.46691619956E+03  0.15294330000E+03 0.  0.
<mgrwt>
<rscale>  0 0.65890425E+03</rscale>
<asrwt>0</asrwt>
<pdfrwt beam="1">  1        2 0.50475074E+00 0.76584135E+03</pdfrwt>
<pdfrwt beam="2">  1       -2 0.58827265E-01 0.76584135E+03</pdfrwt>
<totfact> 0.33257640E+00</totfact>
</mgrwt>
</event>
<event>
 4    2  0.9070994E-007  0.7425076E+03  0.7818608E-02  0.9852702E-01
         -2   -1    0    0    0  501 -0.00000000000E+00  0.00000000000E+00  0.12988373940E+03  0.12988373942E+03  0.25500000000E-02 0.  1.
          2   -1    0    0  501    0  0.00000000000E+00 -0.00000000000E+00 -0.27779922428E+04  0.27779922428E+04  0.25500000000E-02 0. -1.
    8880023    1    1    2    0    0  0.32809336537E+03  0.99307979263E+02 -0.22076368056E+04  0.23291581747E+04  0.65864270000E+03 0.  0.
    8880022    1    1    2    0    0 -0.32809336537E+03 -0.99307979263E+02 -0.44047169779E+03  0.57871780750E+03  0.15294330000E+03 0.  0.
<mgrwt>
<rscale>  0 0.62609345E+03</rscale>
<asrwt>0</asrwt>
<pdfrwt beam="1">  1        2 0.42738338E+00 0.74250760E+03</pdfrwt>
<pdfrwt beam="2">  1       -2 0.19982116E-01 0.74250760E+03</pdfrwt>
<totfact> 0.53474560E+01</totfact>
</mgrwt>
</event>
<event>
 4    2  0.9070994E-007  0.7310189E+03  0.7818608E-02  0.9886926E-01
         -2   -1    0    0    0  501 -0.00000000000E+00  0.00000000000E+00  0.23321269195E+03  0.23321269197E+03  0.25500000000E-02 0.  1.
          2   -1    0    0  501    0  0.00000000000E+00 -0.00000000000E+00 -0.18027385677E+04  0.18027385677E+04  0.25500000000E-02 0. -1.
    8880023    1    1    2    0    0  0.26889647722E+03  0.16814598277E+03 -0.15116546384E+04  0.16791332106E+04  0.65864270000E+03 0. -1.
    8880022    1    1    2    0    0 -0.26889647722E+03 -0.16814598277E+03 -0.57871237329E+02  0.35681804902E+03  0.15294330000E+03 0.  0.
<mgrwt>
<rscale>  0 0.60899123E+03</rscale>
<asrwt>0</asrwt>
<pdfrwt beam="1">  1        2 0.27734439E+00 0.73101887E+03</pdfrwt>
<pdfrwt beam="2">  1       -2 0.35878877E-01 0.73101887E+03</pdfrwt>
<totfact> 0.64515310E+01</totfact>
</mgrwt>
</event>
<event>
 4    2  0.9070994E-007  0.7006632E+03  0.7818608E-02  0.9994461E-01
         -2   -1    0    0    0  501 -0.00000000000E+00  0.00000000000E+00  0.34886853759E+03  0.34886853760E+03  0.25500000000E-02 0.  1.
          2   -1    0    0  501    0  0.00000000000E+00 -0.00000000000E+00 -0.85290951544E+03  0.85290951544E+03  0.25500000000E-02 0. -1.
    8880023    1    1    2    0    0  0.23801203372E+03  0.21654980847E+02 -0.57828337909E+03  0.90848254754E+03  0.65864270000E+03 0. -1.
    8880022    1    1    2    0    0 -0.23801203372E+03 -0.21654980847E+02  0.74242401236E+02  0.29329550550E+03  0.15294330000E+03 0.  0.
<mgrwt>
<rscale>  0 0.55893771E+03</rscale>
<asrwt>0</asrwt>
<pdfrwt beam="1">  1        2 0.13121685E+00 0.70066317E+03</pdfrwt>
<pdfrwt beam="2">  1       -2 0.53672083E-01 0.70066317E+03</pdfrwt>
<totfact> 0.10497347E+02</totfact>
</mgrwt>
</event>
<event>
 4    2  0.9070994E-007  0.7328431E+03  0.7818608E-02  0.9881307E-01
          2   -1    0    0  501    0  0.00000000000E+00  0.00000000000E+00  0.26274758601E+04  0.26274758601E+04  0.25500000000E-02 0. -1.
         -2   -1    0    0    0  501 -0.00000000000E+00 -0.00000000000E+00 -0.16517355575E+03  0.16517355577E+03  0.25500000000E-02 0.  1.
    8880023    1    1    2    0    0  0.15999278028E+03 -0.27865951133E+03  0.22757799662E+04  0.23908645871E+04  0.65864270000E+03 0.  0.
    8880022    1    1    2    0    0 -0.15999278028E+03  0.27865951133E+03  0.18652233815E+03  0.40178482878E+03  0.15294330000E+03 0.  0.
<mgrwt>
<rscale>  0 0.61175823E+03</rscale>
<asrwt>0</asrwt>
<pdfrwt beam="1">  1        2 0.40422706E+00 0.73284311E+03</pdfrwt>
<pdfrwt beam="2">  1       -2 0.25411316E-01 0.73284311E+03</pdfrwt>
<totfact> 0.42732386E+01</totfact>
</mgrwt>
</event>
<event>
 4    2  0.9070994E-007  0.6763311E+03  0.7818608E-02  0.1011480E+00
          2   -1    0    0  501    0  0.00000000000E+00  0.00000000000E+00  0.14569847915E+04  0.14569847915E+04  0.25500000000E-02 0. -1.
         -2   -1    0    0    0  501 -0.00000000000E+00 -0.00000000000E+00 -0.30848854742E+03  0.30848854743E+03  0.25500000000E-02 0.  1.
    8880023    1    1    2    0    0  0.14209157288E+03  0.58510426518E+02  0.13238641088E+04  0.14866202844E+04  0.65864270000E+03 0.  0.
    8880022    1    1    2    0    0 -0.14209157288E+03 -0.58510426518E+02 -0.17536786467E+03  0.27885305461E+03  0.15294330000E+03 0.  1.
<mgrwt>
<rscale>  0 0.50890611E+03</rscale>
<asrwt>0</asrwt>
<pdfrwt beam="1">  1        2 0.22415151E+00 0.67633105E+03</pdfrwt>
<pdfrwt beam="2">  1       -2 0.47459776E-01 0.67633105E+03</pdfrwt>
<totfact> 0.58102444E+01</totfact>
</mgrwt>
</event>
<event>
 4    2  0.9070994E-007  0.1021021E+04  0.7818608E-02  0.9354559E-01
         -2   -1    0    0    0  501 -0.00000000000E+00  0.00000000000E+00  0.10088131308E+04  0.10088131308E+04  0.25500000000E-02 0.  1.
          2   -1    0    0  501    0  0.00000000000E+00 -0.00000000000E+00 -0.19924637899E+04  0.19924637899E+04  0.25500000000E-02 0. -1.
    8880023    1    1    2    0    0 -0.66737942243E+03 -0.40407598187E+03 -0.16657350573E+04  0.19537543806E+04  0.65864270000E+03 0. -1.
    8880022    1    1    2    0    0  0.66737942243E+03  0.40407598187E+03  0.68208439814E+03  0.10475225400E+04  0.15294330000E+03 0.  0.
<mgrwt>
<rscale>  0 0.95911573E+03</rscale>
<asrwt>0</asrwt>
<pdfrwt beam="1">  1        2 0.30653289E+00 0.10210205E+04</pdfrwt>
<pdfrwt beam="2">  1       -2 0.15520202E+00 0.10210205E+04</pdfrwt>
<totfact> 0.18356155E+00</totfact>
</mgrwt>
</event>
<event>
 4    2  0.9070994E-007  0.6858450E+03  0.7818608E-02  0.1006193E+00
          2   -1    0    0  501    0  0.00000000000E+00  0.00000000000E+00  0.24202491788E+04  0.24202491788E+04  0.25500000000E-02 0. -1.
         -2   -1    0    0    0  501 -0.00000000000E+00 -0.00000000000E+00 -0.21337432160E+03  0.21337432161E+03  0.25500000000E-02 0.  1.
    8880023    1    1    2    0    0  0.10946293804E+02 -0.19092768838E+03  0.22776930284E+04  0.23787116138E+04  0.65864270000E+03 0. -1.
    8880022    1    1    2    0    0 -0.10946293804E+02  0.19092768838E+03 -0.70818171255E+02  0.25491188660E+03  0.15294330000E+03 0.  0.
<mgrwt>
<rscale>  0 0.53015956E+03</rscale>
<asrwt>0</asrwt>
<pdfrwt beam="1">  1        2 0.37234603E+00 0.68584503E+03</pdfrwt>
<pdfrwt beam="2">  1       -2 0.32826819E-01 0.68584503E+03</pdfrwt>
<totfact> 0.35190593E+01</totfact>
</mgrwt>
</event>
<event>
 4    2  0.9070994E-007  0.7735574E+03  0.7818608E-02  0.9771194E-01
         -2   -1    0    0    0  501 -0.00000000000E+00  0.00000000000E+00  0.24246140099E+03  0.24246140101E+03  0.25500000000E-02 0.  1.
          2   -1    0    0  501    0  0.00000000000E+00 -0.00000000000E+00 -0.20353221353E+04  0.20353221353E+04  0.25500000000E-02 0. -1.
    8880023    1    1    2    0    0 -0.37558746509E+03 -0.15334557660E+03 -0.16482459288E+04  0.18207431608E+04  0.65864270000E+03 0. -1.
    8880022    1    1    2    0    0  0.37558746509E+03  0.15334557660E+03 -0.14461480551E+03  0.45704037544E+03  0.15294330000E+03 0.  0.
<mgrwt>
<rscale>  0 0.66931596E+03</rscale>
<asrwt>0</asrwt>
<pdfrwt beam="1">  1        2 0.31312647E+00 0.77355738E+03</pdfrwt>
<pdfrwt beam="2">  1       -2 0.37301755E-01 0.77355738E+03</pdfrwt>
<totfact> 0.44491991E+01</totfact>
</mgrwt>
</event>
<event>
 4    2  0.9070994E-007  0.1316744E+04  0.7818608E-02  0.9051234E-01
          2   -1    0    0  501    0  0.00000000000E+00  0.00000000000E+00  0.26092558434E+04  0.26092558434E+04  0.25500000000E-02 0. -1.
         -2   -1    0    0    0  501 -0.00000000000E+00 -0.00000000000E+00 -0.69792750353E+03  0.69792750353E+03  0.25500000000E-02 0.  1.
    8880023    1    1    2    0    0  0.28500976974E+03 -0.11039805999E+04  0.16787052872E+04  0.21335101081E+04  0.65864270000E+03 0.  0.
    8880022    1    1    2    0    0 -0.28500976974E+03  0.11039805999E+04  0.23262305262E+03  0.11736732388E+04  0.15294330000E+03 0.  0.
<mgrwt>
<rscale>  0 0.12730256E+04</rscale>
<asrwt>0</asrwt>
<pdfrwt beam="1">  1        2 0.40142397E+00 0.13167437E+04</pdfrwt>
<pdfrwt beam="2">  1       -2 0.10737346E+00 0.13167437E+04</pdfrwt>
<totfact> 0.20318484E+00</totfact>
</mgrwt>
</event>
<event>
 4    2  0.9070994E-007  0.9273999E+03  0.7818608E-02  0.9483405E-01
         -2   -1    0    0    0  501 -0.00000000000E+00  0.00000000000E+00  0.66072988294E+03  0.66072988294E+03  0.25500000000E-02 0.  1.
          2   -1    0    0  501    0  0.00000000000E+00 -0.00000000000E+00 -0.19115557765E+04  0.19115557765E+04  0.25500000000E-02 0. -1.
    8880023    1    1    2    0    0  0.30602785177E+03  0.57672111131E+03 -0.15747836805E+04  0.18275705548E+04  0.65864270000E+03 0. -1.
    8880022    1    1    2    0    0 -0.30602785177E+03 -0.57672111131E+03  0.32395778694E+03  0.74471510460E+03  0.15294330000E+03 0.  0.
<mgrwt>
<rscale>  0 0.85518451E+03</rscale>
<asrwt>0</asrwt>
<pdfrwt beam="1">  1        2 0.29408550E+00 0.92739986E+03</pdfrwt>
<pdfrwt beam="2">  1       -2 0.10165075E+00 0.92739986E+03</pdfrwt>
<totfact> 0.59923693E+00</totfact>
</mgrwt>
</event>
<event>
 4    2  0.9070994E-007  0.8727875E+03  0.7818608E-02  0.9571210E-01
          2   -1    0    0  501    0  0.00000000000E+00  0.00000000000E+00  0.25693832405E+04  0.25693832405E+04  0.25500000000E-02 0. -1.
         -2   -1    0    0    0  501 -0.00000000000E+00 -0.00000000000E+00 -0.55795029600E+03  0.55795029600E+03  0.25500000000E-02 0.  1.
    8880023    1    1    2    0    0  0.53882544368E+03 -0.19394565894E+03  0.23058497743E+04  0.24655022136E+04  0.65864270000E+03 0. -1.
    8880022    1    1    2    0    0 -0.53882544368E+03  0.19394565894E+03 -0.29441682975E+03  0.66183132295E+03  0.15294330000E+03 0.  0.
<mgrwt>
<rscale>  0 0.79231384E+03</rscale>
<asrwt>0</asrwt>
<pdfrwt beam="1">  1        2 0.39528973E+00 0.87278748E+03</pdfrwt>
<pdfrwt beam="2">  1       -2 0.85838507E-01 0.87278748E+03</pdfrwt>
<totfact> 0.38498858E+00</totfact>
</mgrwt>
</event>
<event>
 4    2  0.9070994E-007  0.8898663E+03  0.7818608E-02  0.9542499E-01
          2   -1    0    0  501    0  0.00000000000E+00  0.00000000000E+00  0.14165431230E+04  0.14165431230E+04  0.25500000000E-02 0. -1.
         -2   -1    0    0    0  501 -0.00000000000E+00 -0.00000000000E+00 -0.56201955832E+03  0.56201955833E+03  0.25500000000E-02 0.  1.
    8880023    1    1    2    0    0  0.57153750129E+03 -0.17719121182E+03 -0.40893822753E+02  0.89080545122E+03  0.65864270000E+03 0.  0.
    8880022    1    1    2    0    0 -0.57153750129E+03  0.17719121182E+03  0.89541738746E+03  0.10877572301E+04  0.15294330000E+03 0.  0.
<mgrwt>
<rscale>  0 0.81221751E+03</rscale>
<asrwt>0</asrwt>
<pdfrwt beam="1">  1        2 0.21792971E+00 0.88986631E+03</pdfrwt>
<pdfrwt beam="2">  1       -2 0.86464547E-01 0.88986631E+03</pdfrwt>
<totfact> 0.16517713E+01</totfact>
</mgrwt>
</event>
<event>
 4    2  0.9070994E-007  0.8352107E+03  0.7818608E-02  0.9639278E-01
         -2   -1    0    0    0  501 -0.00000000000E+00  0.00000000000E+00  0.93118804125E+03  0.93118804125E+03  0.25500000000E-02 0.  1.
          2   -1    0    0  501    0  0.00000000000E+00 -0.00000000000E+00 -0.13046467551E+04  0.13046467551E+04  0.25500000000E-02 0. -1.
    8880023    1    1    2    0    0  0.35769953466E+03  0.36853460048E+03 -0.10697685292E+04  0.13571962353E+04  0.65864270000E+03 0.  0.
    8880022    1    1    2    0    0 -0.35769953466E+03 -0.36853460048E+03  0.69630981539E+03  0.87863856099E+03  0.15294330000E+03 0.  0.
<mgrwt>
<rscale>  0 0.74750176E+03</rscale>
<asrwt>0</asrwt>
<pdfrwt beam="1">  1        2 0.20071489E+00 0.83521070E+03</pdfrwt>
<pdfrwt beam="2">  1       -2 0.14325970E+00 0.83521070E+03</pdfrwt>
<totfact> 0.56172186E+00</totfact>
</mgrwt>
</event>
<event>
 4    2  0.9070994E-007  0.8860470E+03  0.7818608E-02  0.9548812E-01
         -2   -1    0    0    0  501 -0.00000000000E+00  0.00000000000E+00  0.53955643070E+03  0.53955643071E+03  0.25500000000E-02 0.  1.
          2   -1    0    0  501    0  0.00000000000E+00 -0.00000000000E+00 -0.20109444892E+04  0.20109444892E+04  0.25500000000E-02 0. -1.
    8880023    1    1    2    0    0 -0.58431805960E+03  0.99204583524E+02  0.73186424470E+02  0.88906445388E+03  0.65864270000E+03 0.  0.
    8880022    1    1    2    0    0  0.58431805960E+03 -0.99204583524E+02 -0.15445744829E+04  0.16614364660E+04  0.15294330000E+03 0.  0.
<mgrwt>
<rscale>  0 0.80778794E+03</rscale>
<asrwt>0</asrwt>
<pdfrwt beam="1">  1        2 0.30937607E+00 0.88604704E+03</pdfrwt>
<pdfrwt beam="2">  1       -2 0.83008683E-01 0.88604704E+03</pdfrwt>
<totfact> 0.85120101E+00</totfact>
</mgrwt>
</event>
<event>
 4    2  0.9070994E-007  0.6943643E+03  0.7818608E-02  0.1002144E+00
         -2   -1    0    0    0  501 -0.00000000000E+00  0.00000000000E+00  0.14422484523E+03  0.14422484525E+03  0.25500000000E-02 0.  1.
          2   -1    0    0  501    0  0.00000000000E+00 -0.00000000000E+00 -0.21924300063E+04  0.21924300063E+04  0.25500000000E-02 0. -1.
    8880023    1    1    2    0    0 -0.20361582934E+03  0.82898545789E+02 -0.19160988063E+04  0.20380324866E+04  0.65864270000E+03 0. -1.
    8880022    1    1    2    0    0  0.20361582934E+03 -0.82898545789E+02 -0.13210635482E+03  0.29862236495E+03  0.15294330000E+03 0.  0.
<mgrwt>
<rscale>  0 0.54720243E+03</rscale>
<asrwt>0</asrwt>
<pdfrwt beam="1">  1        2 0.33729690E+00 0.69436430E+03</pdfrwt>
<pdfrwt beam="2">  1       -2 0.22188439E-01 0.69436430E+03</pdfrwt>
<totfact> 0.96059192E+01</totfact>
</mgrwt>
</event>
<event>
 4    2  0.9070994E-007  0.8339722E+03  0.7818608E-02  0.9641653E-01
          2   -1    0    0  501    0  0.00000000000E+00  0.00000000000E+00  0.26383015860E+04  0.26383015860E+04  0.25500000000E-02 0. -1.
         -2   -1    0    0    0  501 -0.00000000000E+00 -0.00000000000E+00 -0.57219883391E+03  0.57219883392E+03  0.25500000000E-02 0.  1.
    8880023    1    1    2    0    0 -0.35391383698E+03  0.36938392310E+03  0.24268301909E+04  0.25661283032E+04  0.65864270000E+03 0.  0.
    8880022    1    1    2    0    0  0.35391383698E+03 -0.36938392310E+03 -0.36072743884E+03  0.64437211671E+03  0.15294330000E+03 0.  0.
<mgrwt>
<rscale>  0 0.74599628E+03</rscale>
<asrwt>0</asrwt>
<pdfrwt beam="1">  1        2 0.40589255E+00 0.83397224E+03</pdfrwt>
<pdfrwt beam="2">  1       -2 0.88030590E-01 0.83397224E+03</pdfrwt>
<totfact> 0.33372761E+00</totfact>
</mgrwt>
</event>
<event>
 4    2  0.9070994E-007  0.6663143E+03  0.7818608E-02  0.1018455E+00
          2   -1    0    0  501    0  0.00000000000E+00  0.00000000000E+00  0.98468596137E+03  0.98468596138E+03  0.25500000000E-02 0. -1.
         -2   -1    0    0    0  501 -0.00000000000E+00 -0.00000000000E+00 -0.20985805063E+03  0.20985805064E+03  0.25500000000E-02 0.  1.
    8880023    1    1    2    0    0 -0.10035535199E+03 -0.96594894967E+01  0.76004718722E+03  0.10107652722E+04  0.65864270000E+03 0. -1.
    8880022    1    1    2    0    0  0.10035535199E+03  0.96594894967E+01  0.14780723524E+02  0.18377873983E+03  0.15294330000E+03 0.  0.
<mgrwt>
<rscale>  0 0.48248172E+03</rscale>
<asrwt>0</asrwt>
<pdfrwt beam="1">  1        2 0.15149015E+00 0.66631427E+03</pdfrwt>
<pdfrwt beam="2">  1       -2 0.32285854E-01 0.66631427E+03</pdfrwt>
<totfact> 0.23340600E+02</totfact>
</mgrwt>
</event>
<event>
 4    2  0.9070994E-007  0.1055720E+04  0.7818608E-02  0.9312037E-01
         -2   -1    0    0    0  501 -0.00000000000E+00  0.00000000000E+00  0.61487964614E+03  0.61487964614E+03  0.25500000000E-02 0.  1.
          2   -1    0    0  501    0  0.00000000000E+00 -0.00000000000E+00 -0.15980784512E+04  0.15980784512E+04  0.25500000000E-02 0. -1.
    8880023    1    1    2    0    0  0.77329949819E+03  0.28764856822E+03 -0.86645207054E+03  0.13657537148E+04  0.65864270000E+03 0.  0.
    8880022    1    1    2    0    0 -0.77329949819E+03 -0.28764856822E+03 -0.11674673449E+03  0.84720438251E+03  0.15294330000E+03 0.  0.
<mgrwt>
<rscale>  0 0.99682223E+03</rscale>
<asrwt>0</asrwt>
<pdfrwt beam="1">  1        2 0.24585822E+00 0.10557197E+04</pdfrwt>
<pdfrwt beam="2">  1       -2 0.94596869E-01 0.10557197E+04</pdfrwt>
<totfact> 0.10430168E+01</totfact>
</mgrwt>
</event>
<event>
 4    2  0.9070994E-007  0.7313364E+03  0.7818608E-02  0.9885942E-01
          2   -1    0    0  501    0  0.00000000000E+00  0.00000000000E+00  0.10629327931E+04  0.10629327931E+04  0.25500000000E-02 0. -1.
         -2   -1    0    0    0  501 -0.00000000000E+00 -0.00000000000E+00 -0.27643659354E+03  0.27643659355E+03  0.25500000000E-02 0.  1.
    8880023    1    1    2    0    0  0.31501509299E+03 -0.42522776568E+02  0.52522126113E+03  0.90039451062E+03  0.65864270000E+03 0. -1.
    8880022    1    1    2    0    0 -0.31501509299E+03  0.42522776568E+02  0.26127493847E+03  0.43897487607E+03  0.15294330000E+03 0.  1.
<mgrwt>
<rscale>  0 0.60947433E+03</rscale>
<asrwt>0</asrwt>
<pdfrwt beam="1">  1        2 0.16352812E+00 0.73133638E+03</pdfrwt>
<pdfrwt beam="2">  1       -2 0.42528707E-01 0.73133638E+03</pdfrwt>
<totfact> 0.12215061E+02</totfact>
</mgrwt>
</event>
<event>
 4    2  0.9070994E-007  0.1008657E+04  0.7818608E-02  0.9370319E-01
         -2   -1    0    0    0  501 -0.00000000000E+00  0.00000000000E+00  0.83514107197E+03  0.83514107197E+03  0.25500000000E-02 0.  1.
          2   -1    0    0  501    0  0.00000000000E+00 -0.00000000000E+00 -0.18568908254E+04  0.18568908254E+04  0.25500000000E-02 0. -1.
    8880023    1    1    2    0    0 -0.73795176438E+03 -0.19749696398E+03 -0.14778548209E+04  0.17892576492E+04  0.65864270000E+03 0. -1.
    8880022    1    1    2    0    0  0.73795176438E+03  0.19749696398E+03  0.45610506756E+03  0.90277424808E+03  0.15294330000E+03 0.  0.
<mgrwt>
<rscale>  0 0.94559104E+03</rscale>
<asrwt>0</asrwt>
<pdfrwt beam="1">  1        2 0.28567551E+00 0.10086566E+04</pdfrwt>
<pdfrwt beam="2">  1       -2 0.12848324E+00 0.10086566E+04</pdfrwt>
<totfact> 0.35743643E+00</totfact>
</mgrwt>
</event>
<event>
 4    2  0.9070994E-007  0.7232623E+03  0.7818608E-02  0.9911698E-01
         -2   -1    0    0    0  501 -0.00000000000E+00  0.00000000000E+00  0.52032120677E+03  0.52032120678E+03  0.25500000000E-02 0.  1.
          2   -1    0    0  501    0  0.00000000000E+00 -0.00000000000E+00 -0.26268440508E+04  0.26268440508E+04  0.25500000000E-02 0. -1.
    8880023    1    1    2    0    0  0.14228777575E+03 -0.26277814785E+03 -0.25158734611E+04  0.26177715036E+04  0.65864270000E+03 0. -1.
    8880022    1    1    2    0    0 -0.14228777575E+03  0.26277814785E+03  0.40935061708E+03  0.52939375405E+03  0.15294330000E+03 0.  0.
<mgrwt>
<rscale>  0 0.59697681E+03</rscale>
<asrwt>0</asrwt>
<pdfrwt beam="1">  1        2 0.40412985E+00 0.72326231E+03</pdfrwt>
<pdfrwt beam="2">  1       -2 0.80049418E-01 0.72326231E+03</pdfrwt>
<totfact> 0.42907344E+00</totfact>
</mgrwt>
</event>
<event>
 4    2  0.9070994E-007  0.7764828E+03  0.7818608E-02  0.9764165E-01
         -2   -1    0    0    0  501 -0.00000000000E+00  0.00000000000E+00  0.18166290695E+04  0.18166290695E+04  0.25500000000E-02 0.  1.
          2   -1    0    0  501    0  0.00000000000E+00 -0.00000000000E+00 -0.23575436992E+03  0.23575436994E+03  0.25500000000E-02 0. -1.
    8880023    1    1    2    0    0 -0.16298831245E+03  0.37755816401E+03  0.61158189511E+03  0.98841184629E+03  0.65864270000E+03 0.  0.
    8880022    1    1    2    0    0  0.16298831245E+03 -0.37755816401E+03  0.96929280446E+03  0.10639715931E+04  0.15294330000E+03 0.  0.
<mgrwt>
<rscale>  0 0.67321643E+03</rscale>
<asrwt>0</asrwt>
<pdfrwt beam="1">  1        2 0.36269903E-01 0.77648282E+03</pdfrwt>
<pdfrwt beam="2">  1       -2 0.27948140E+00 0.77648282E+03</pdfrwt>
<totfact> 0.62817451E+00</totfact>
</mgrwt>
</event>
<event>
 4    2  0.9070994E-007  0.7685487E+03  0.7818608E-02  0.9783458E-01
          2   -1    0    0  501    0  0.00000000000E+00  0.00000000000E+00  0.48204274649E+03  0.48204274650E+03  0.25500000000E-02 0. -1.
         -2   -1    0    0    0  501 -0.00000000000E+00 -0.00000000000E+00 -0.14956001580E+04  0.14956001580E+04  0.25500000000E-02 0.  1.
    8880023    1    1    2    0    0  0.11906219285E+03 -0.37773157380E+03  0.11015486500E+03  0.77640276156E+03  0.65864270000E+03 0. -1.
    8880022    1    1    2    0    0 -0.11906219285E+03  0.37773157380E+03 -0.11237122765E+04  0.12012401429E+04  0.15294330000E+03 0.  0.
<mgrwt>
<rscale>  0 0.66257881E+03</rscale>
<asrwt>0</asrwt>
<pdfrwt beam="1">  1        2 0.74160423E-01 0.76854873E+03</pdfrwt>
<pdfrwt beam="2">  1       -2 0.23009233E+00 0.76854873E+03</pdfrwt>
<totfact> 0.56091660E+00</totfact>
</mgrwt>
</event>
<event>
 4    2  0.1423286E-006  0.8675669E+03  0.7818608E-02  0.9580243E-01
          2   -1    0    0  501    0  0.00000000000E+00  0.00000000000E+00  0.20394685706E+04  0.20394685706E+04  0.25500000000E-02 0. -1.
         -2   -1    0    0    0  501 -0.00000000000E+00 -0.00000000000E+00 -0.12367996509E+04  0.12367996509E+04  0.25500000000E-02 0.  1.
    8880023    1    1    2    0    0 -0.20821054309E+03 -0.52489085727E+03  0.18686944745E+04  0.20602648586E+04  0.65864270000E+03 0. -1.
    8880022    1    1    2    0    0  0.20821054309E+03  0.52489085727E+03 -0.10660255547E+04  0.12160033629E+04  0.15294330000E+03 0.  0.
<mgrwt>
<rscale>  0 0.78617772E+03</rscale>
<asrwt>0</asrwt>
<pdfrwt beam="1">  1        2 0.31376439E+00 0.86756686E+03</pdfrwt>
<pdfrwt beam="2">  1       -2 0.19027687E+00 0.86756686E+03</pdfrwt>
<totfact> 0.10001993E+00</totfact>
</mgrwt>
</event>
<event>
 4    2  0.9070994E-007  0.8321855E+03  0.7818608E-02  0.9645095E-01
         -2   -1    0    0    0  501 -0.00000000000E+00  0.00000000000E+00  0.49278442665E+03  0.49278442666E+03  0.25500000000E-02 0.  1.
          2   -1    0    0  501    0  0.00000000000E+00 -0.00000000000E+00 -0.15806259404E+04  0.15806259404E+04  0.25500000000E-02 0. -1.
    8880023    1    1    2    0    0  0.39529856905E+03 -0.32009614754E+03 -0.12644048514E+04  0.15136883222E+04  0.65864270000E+03 0. -1.
    8880022    1    1    2    0    0 -0.39529856905E+03  0.32009614754E+03  0.17656333757E+03  0.55972204490E+03  0.15294330000E+03 0.  0.
<mgrwt>
<rscale>  0 0.74382063E+03</rscale>
<asrwt>0</asrwt>
<pdfrwt beam="1">  1        2 0.24317322E+00 0.83218550E+03</pdfrwt>
<pdfrwt beam="2">  1       -2 0.75812989E-01 0.83218550E+03</pdfrwt>
<totfact> 0.18102422E+01</totfact>
</mgrwt>
</event>
<event>
 4    2  0.9070994E-007  0.8211661E+03  0.7818608E-02  0.9666771E-01
         -2   -1    0    0    0  501 -0.00000000000E+00  0.00000000000E+00  0.68302277581E+03  0.68302277581E+03  0.25500000000E-02 0.  1.
          2   -1    0    0  501    0  0.00000000000E+00 -0.00000000000E+00 -0.14019110405E+04  0.14019110405E+04  0.25500000000E-02 0. -1.
    8880023    1    1    2    0    0 -0.22103038420E+03 -0.43777742113E+03 -0.11508313280E+04  0.14137632238E+04  0.65864270000E+03 0. -1.
    8880022    1    1    2    0    0  0.22103038420E+03  0.43777742113E+03  0.43194306336E+03  0.67117059247E+03  0.15294330000E+03 0.  0.
<mgrwt>
<rscale>  0 0.73030147E+03</rscale>
<asrwt>0</asrwt>
<pdfrwt beam="1">  1        2 0.21567862E+00 0.82116607E+03</pdfrwt>
<pdfrwt beam="2">  1       -2 0.10508043E+00 0.82116607E+03</pdfrwt>
<totfact> 0.10737202E+01</totfact>
</mgrwt>
</event>
<event>
 4    2  0.9070994E-007  0.1033746E+04  0.7818608E-02  0.9338681E-01
          2   -1    0    0  501    0  0.00000000000E+00  0.00000000000E+00  0.19906662057E+04  0.19906662057E+04  0.25500000000E-02 0. -1.
         -2   -1    0    0    0  501 -0.00000000000E+00 -0.00000000000E+00 -0.11947597926E+04  0.11947597926E+04  0.25500000000E-02 0.  1.
    8880023    1    1    2    0    0  0.55743888026E+03 -0.56928206613E+03  0.16881266162E+04  0.19794953535E+04  0.65864270000E+03 0.  0.
    8880022    1    1    2    0    0 -0.55743888026E+03  0.56928206613E+03 -0.89222020310E+03  0.12059306447E+04  0.15294330000E+03 0.  0.
<mgrwt>
<rscale>  0 0.97298474E+03</rscale>
<asrwt>0</asrwt>
<pdfrwt beam="1">  1        2 0.30625633E+00 0.10337458E+04</pdfrwt>
<pdfrwt beam="2">  1       -2 0.18380920E+00 0.10337458E+04</pdfrwt>
<totfact> 0.11461049E+00</totfact>
</mgrwt>
</event>
<event>
 4    2  0.9070994E-007  0.8580498E+03  0.7818608E-02  0.9597042E-01
         -2   -1    0    0    0  501 -0.00000000000E+00  0.00000000000E+00  0.66137289618E+03  0.66137289618E+03  0.25500000000E-02 0.  1.
          2   -1    0    0  501    0  0.00000000000E+00 -0.00000000000E+00 -0.24489145109E+04  0.24489145109E+04  0.25500000000E-02 0. -1.
    8880023    1    1    2    0    0 -0.54192313112E+03  0.93586857951E+02 -0.22291496767E+04  0.23885890537E+04  0.65864270000E+03 0.  0.
    8880022    1    1    2    0    0  0.54192313112E+03 -0.93586857951E+02  0.44160806191E+03  0.72169835346E+03  0.15294330000E+03 0.  0.
<mgrwt>
<rscale>  0 0.77492269E+03</rscale>
<asrwt>0</asrwt>
<pdfrwt beam="1">  1        2 0.37675607E+00 0.85804976E+03</pdfrwt>
<pdfrwt beam="2">  1       -2 0.10174968E+00 0.85804976E+03</pdfrwt>
<totfact> 0.30393387E+00</totfact>
</mgrwt>
</event>
<event>
 4    2  0.9070994E-007  0.6867774E+03  0.7818608E-02  0.1005723E+00
         -2   -1    0    0    0  501 -0.00000000000E+00  0.00000000000E+00  0.17009191945E+03  0.17009191947E+03  0.25500000000E-02 0.  1.
          2   -1    0    0  501    0  0.00000000000E+00 -0.00000000000E+00 -0.12867704673E+04  0.12867704673E+04  0.25500000000E-02 0. -1.
    8880023    1    1    2    0    0  0.10393796022E+03 -0.16446858699E+03 -0.78472443259E+03  0.10428114197E+04  0.65864270000E+03 0. -1.
    8880022    1    1    2    0    0 -0.10393796022E+03  0.16446858699E+03 -0.33195411522E+03  0.41405096704E+03  0.15294330000E+03 0.  0.
<mgrwt>
<rscale>  0 0.53210280E+03</rscale>
<asrwt>0</asrwt>
<pdfrwt beam="1">  1        2 0.19796468E+00 0.68677742E+03</pdfrwt>
<pdfrwt beam="2">  1       -2 0.26167988E-01 0.68677742E+03</pdfrwt>
<totfact> 0.22556095E+02</totfact>
</mgrwt>
</event>
<event>
 4    2  0.9070994E-007  0.7876877E+03  0.7818608E-02  0.9738079E-01
         -2   -1    0    0    0  501 -0.00000000000E+00  0.00000000000E+00  0.41371946686E+03  0.41371946686E+03  0.25500000000E-02 0.  1.
          2   -1    0    0  501    0  0.00000000000E+00 -0.00000000000E+00 -0.15018205231E+04  0.15018205231E+04  0.25500000000E-02 0. -1.
    8880023    1    1    2    0    0 -0.21547946310E+03 -0.37444657104E+03 -0.12077245937E+04  0.14418913045E+04  0.65864270000E+03 0. -1.
    8880022    1    1    2    0    0  0.21547946310E+03  0.37444657104E+03  0.11962353737E+03  0.47364868551E+03  0.15294330000E+03 0.  0.
<mgrwt>
<rscale>  0 0.68794156E+03</rscale>
<asrwt>0</asrwt>
<pdfrwt beam="1">  1        2 0.23104931E+00 0.78768765E+03</pdfrwt>
<pdfrwt beam="2">  1       -2 0.63649150E-01 0.78768765E+03</pdfrwt>
<totfact> 0.29472869E+01</totfact>
</mgrwt>
</event>
<event>
 4    2  0.9070994E-007  0.6981323E+03  0.7818608E-02  0.1000504E+00
          2   -1    0    0  501    0  0.00000000000E+00  0.00000000000E+00  0.11811576079E+04  0.11811576079E+04  0.25500000000E-02 0. -1.
         -2   -1    0    0    0  501 -0.00000000000E+00 -0.00000000000E+00 -0.90478566804E+03  0.90478566805E+03  0.25500000000E-02 0.  1.
    8880023    1    1    2    0    0  0.99429775148E+02 -0.20902683827E+03  0.10517838650E+04  0.12623937596E+04  0.65864270000E+03 0. -1.
    8880022    1    1    2    0    0 -0.99429775148E+02  0.20902683827E+03 -0.77541192512E+03  0.82354951638E+03  0.15294330000E+03 0.  0.
<mgrwt>
<rscale>  0 0.55429836E+03</rscale>
<asrwt>0</asrwt>
<pdfrwt beam="1">  1        2 0.18171655E+00 0.69813230E+03</pdfrwt>
<pdfrwt beam="2">  1       -2 0.13919780E+00 0.69813230E+03</pdfrwt>
<totfact> 0.72830968E+00</totfact>
</mgrwt>
</event>
<event>
 4    2  0.9070994E-007  0.1136387E+04  0.7818608E-02  0.9221586E-01
          2   -1    0    0  501    0  0.00000000000E+00  0.00000000000E+00  0.28870028321E+04  0.28870028321E+04  0.25500000000E-02 0. -1.
         -2   -1    0    0    0  501 -0.00000000000E+00 -0.00000000000E+00 -0.48532413858E+03  0.48532413859E+03  0.25500000000E-02 0.  1.
    8880023    1    1    2    0    0 -0.67376249357E+03  0.63530229067E+03  0.20977077264E+04  0.23857394681E+04  0.65864270000E+03 0.  0.
    8880022    1    1    2    0    0  0.67376249357E+03 -0.63530229067E+03  0.30397096712E+03  0.98658750253E+03  0.15294330000E+03 0.  0.
<mgrwt>
<rscale>  0 0.10833380E+04</rscale>
<asrwt>0</asrwt>
<pdfrwt beam="1">  1        2 0.44415428E+00 0.11363869E+04</pdfrwt>
<pdfrwt beam="2">  1       -2 0.74665252E-01 0.11363869E+04</pdfrwt>
<totfact> 0.33012687E+00</totfact>
</mgrwt>
</event>
<event>
 4    2  0.9070994E-007  0.7464804E+03  0.7818608E-02  0.9841457E-01
          2   -1    0    0  501    0  0.00000000000E+00  0.00000000000E+00  0.18145009542E+04  0.18145009542E+04  0.25500000000E-02 0. -1.
         -2   -1    0    0    0  501 -0.00000000000E+00 -0.00000000000E+00 -0.54912614919E+03  0.54912614919E+03  0.25500000000E-02 0.  1.
    8880023    1    1    2    0    0 -0.11658186199E+03  0.33140819833E+03  0.16559869399E+04  0.18164596543E+04  0.65864270000E+03 0. -1.
    8880022    1    1    2    0    0  0.11658186199E+03 -0.33140819833E+03 -0.39061213483E+03  0.54716744911E+03  0.15294330000E+03 0.  0.
<mgrwt>
<rscale>  0 0.63184400E+03</rscale>
<asrwt>0</asrwt>
<pdfrwt beam="1">  1        2 0.27915399E+00 0.74648036E+03</pdfrwt>
<pdfrwt beam="2">  1       -2 0.84480946E-01 0.74648036E+03</pdfrwt>
<totfact> 0.10675766E+01</totfact>
</mgrwt>
</event>
<event>
 4    2  0.9070994E-007  0.7811565E+03  0.7818608E-02  0.9753127E-01
          2   -1    0    0  501    0  0.00000000000E+00  0.00000000000E+00  0.39219577305E+04  0.39219577305E+04  0.25500000000E-02 0. -1.
         -2   -1    0    0    0  501 -0.00000000000E+00 -0.00000000000E+00 -0.24190218285E+03  0.24190218287E+03  0.25500000000E-02 0.  1.
    8880023    1    1    2    0    0 -0.63546230749E+02  0.41515916839E+03  0.36311426934E+04  0.37142163002E+04  0.65864270000E+03 0. -1.
    8880022    1    1    2    0    0  0.63546230749E+02 -0.41515916839E+03  0.48912854244E+02  0.44964361317E+03  0.15294330000E+03 0.  0.
<mgrwt>
<rscale>  0 0.67939823E+03</rscale>
<asrwt>0</asrwt>
<pdfrwt beam="1">  1        2 0.60337809E+00 0.78115649E+03</pdfrwt>
<pdfrwt beam="2">  1       -2 0.37215722E-01 0.78115649E+03</pdfrwt>
<totfact> 0.29477803E+00</totfact>
</mgrwt>
</event>
<event>
 4    2  0.9070994E-007  0.8526703E+03  0.7818608E-02  0.9606737E-01
         -2   -1    0    0    0  501 -0.00000000000E+00  0.00000000000E+00  0.68476242734E+03  0.68476242735E+03  0.25500000000E-02 0.  1.
          2   -1    0    0  501    0  0.00000000000E+00 -0.00000000000E+00 -0.74258098754E+03  0.74258098755E+03  0.25500000000E-02 0. -1.
    8880023    1    1    2    0    0  0.54131197351E+03  0.14754937147E+02  0.51107036609E+02  0.85420050122E+03  0.65864270000E+03 0.  1.
    8880022    1    1    2    0    0 -0.54131197351E+03 -0.14754937147E+02 -0.10892559681E+03  0.57314291367E+03  0.15294330000E+03 0.  0.
<mgrwt>
<rscale>  0 0.76851881E+03</rscale>
<asrwt>0</asrwt>
<pdfrwt beam="1">  1        2 0.11424323E+00 0.85267026E+03</pdfrwt>
<pdfrwt beam="2">  1       -2 0.10534807E+00 0.85267026E+03</pdfrwt>
<totfact> 0.27846580E+01</totfact>
</mgrwt>
</event>
<event>
 4    2  0.9070994E-007  0.9958308E+03  0.7818608E-02  0.9387033E-01
          2   -1    0    0  501    0  0.00000000000E+00  0.00000000000E+00  0.19083735645E+04  0.19083735645E+04  0.25500000000E-02 0. -1.
         -2   -1    0    0    0  501 -0.00000000000E+00 -0.00000000000E+00 -0.12384710253E+04  0.12384710253E+04  0.25500000000E-02 0.  1.
    8880023    1    1    2    0    0  0.34992272544E+03 -0.65986574205E+03  0.16365513403E+04  0.19157189792E+04  0.65864270000E+03 0.  0.
    8880022    1    1    2    0    0 -0.34992272544E+03  0.65986574205E+03 -0.96664880111E+03  0.12311256106E+04  0.15294330000E+03 0.  0.
<mgrwt>
<rscale>  0 0.93150565E+03</rscale>
<asrwt>0</asrwt>
<pdfrwt beam="1">  1        2 0.29359593E+00 0.99583077E+03</pdfrwt>
<pdfrwt beam="2">  1       -2 0.19053400E+00 0.99583077E+03</pdfrwt>
<totfact> 0.11521128E+00</totfact>
</mgrwt>
</event>
<event>
 4    2  0.9070994E-007  0.7751522E+03  0.7818608E-02  0.9767350E-01
          2   -1    0    0  501    0  0.00000000000E+00  0.00000000000E+00  0.16188168228E+04  0.16188168228E+04  0.25500000000E-02 0. -1.
         -2   -1    0    0    0  501 -0.00000000000E+00 -0.00000000000E+00 -0.35474687048E+03  0.35474687049E+03  0.25500000000E-02 0.  1.
    8880023    1    1    2    0    0 -0.29529905508E+03  0.28257611556E+03  0.13228460571E+04  0.15332262358E+04  0.65864270000E+03 0. -1.
    8880022    1    1    2    0    0  0.29529905508E+03 -0.28257611556E+03 -0.58776104737E+02  0.44033745755E+03  0.15294330000E+03 0.  0.
<mgrwt>
<rscale>  0 0.67144543E+03</rscale>
<asrwt>0</asrwt>
<pdfrwt beam="1">  1        2 0.24904875E+00 0.77515224E+03</pdfrwt>
<pdfrwt beam="2">  1       -2 0.54576441E-01 0.77515224E+03</pdfrwt>
<totfact> 0.35143026E+01</totfact>
</mgrwt>
</event>
<event>
 4    2  0.9070994E-007  0.8412349E+03  0.7818608E-02  0.9627856E-01
         -2   -1    0    0    0  501 -0.00000000000E+00  0.00000000000E+00  0.63756928316E+03  0.63756928316E+03  0.25500000000E-02 0.  1.
          2   -1    0    0  501    0  0.00000000000E+00 -0.00000000000E+00 -0.86352809812E+03  0.86352809812E+03  0.25500000000E-02 0. -1.
    8880023    1    1    2    0    0 -0.50755122817E+03 -0.12750594383E+03 -0.39627932797E+03  0.92989974028E+03  0.65864270000E+03 0.  0.
    8880022    1    1    2    0    0  0.50755122817E+03  0.12750594383E+03  0.17032051301E+03  0.57119764101E+03  0.15294330000E+03 0.  0.
<mgrwt>
<rscale>  0 0.75479603E+03</rscale>
<asrwt>0</asrwt>
<pdfrwt beam="1">  1        2 0.13285048E+00 0.84123494E+03</pdfrwt>
<pdfrwt beam="2">  1       -2 0.98087582E-01 0.84123494E+03</pdfrwt>
<totfact> 0.27031600E+01</totfact>
</mgrwt>
</event>
<event>
 4    2  0.9070994E-007  0.7356469E+03  0.7818608E-02  0.9872814E-01
          2   -1    0    0  501    0  0.00000000000E+00  0.00000000000E+00  0.44327825846E+04  0.44327825846E+04  0.25500000000E-02 0. -1.
         -2   -1    0    0    0  501 -0.00000000000E+00 -0.00000000000E+00 -0.12553343874E+03  0.12553343876E+03  0.25500000000E-02 0.  1.
    8880023    1    1    2    0    0 -0.21553191880E+02  0.32695816460E+03  0.40456926101E+04  0.41120317464E+04  0.65864270000E+03 0.  0.
    8880022    1    1    2    0    0  0.21553191880E+02 -0.32695816460E+03  0.26155653578E+03  0.44628427700E+03  0.15294330000E+03 0.  0.
<mgrwt>
<rscale>  0 0.61597137E+03</rscale>
<asrwt>0</asrwt>
<pdfrwt beam="1">  1        2 0.68196654E+00 0.73564692E+03</pdfrwt>
<pdfrwt beam="2">  1       -2 0.19312837E-01 0.73564692E+03</pdfrwt>
<totfact> 0.36699237E+00</totfact>
</mgrwt>
</event>
<event>
 4    2  0.9070994E-007  0.8338398E+03  0.7818608E-02  0.9641907E-01
         -2   -1    0    0    0  501 -0.00000000000E+00  0.00000000000E+00  0.48027676371E+03  0.48027676372E+03  0.25500000000E-02 0.  1.
          2   -1    0    0  501    0  0.00000000000E+00 -0.00000000000E+00 -0.14048634673E+04  0.14048634673E+04  0.25500000000E-02 0. -1.
    8880023    1    1    2    0    0 -0.23456358431E+03 -0.45437715926E+03 -0.10460856990E+04  0.13377534055E+04  0.65864270000E+03 0. -1.
    8880022    1    1    2    0    0  0.23456358431E+03  0.45437715926E+03  0.12149899536E+03  0.54738682559E+03  0.15294330000E+03 0.  0.
<mgrwt>
<rscale>  0 0.74583521E+03</rscale>
<asrwt>0</asrwt>
<pdfrwt beam="1">  1        2 0.21613284E+00 0.83383984E+03</pdfrwt>
<pdfrwt beam="2">  1       -2 0.73888734E-01 0.83383984E+03</pdfrwt>
<totfact> 0.24033932E+01</totfact>
</mgrwt>
</event>
<event>
 4    2  0.9070994E-007  0.8624354E+03  0.7818608E-02  0.9589246E-01
          2   -1    0    0  501    0  0.00000000000E+00  0.00000000000E+00  0.15743514863E+04  0.15743514863E+04  0.25500000000E-02 0. -1.
         -2   -1    0    0    0  501 -0.00000000000E+00 -0.00000000000E+00 -0.64716553465E+03  0.64716553465E+03  0.25500000000E-02 0.  1.
    8880023    1    1    2    0    0  0.19616444843E+03  0.52106055261E+03  0.12810595547E+04  0.15443148575E+04  0.65864270000E+03 0. -1.
    8880022    1    1    2    0    0 -0.19616444843E+03 -0.52106055261E+03 -0.35387360298E+03  0.67720216347E+03  0.15294330000E+03 0.  0.
<mgrwt>
<rscale>  0 0.78012062E+03</rscale>
<asrwt>0</asrwt>
<pdfrwt beam="1">  1        2 0.24220792E+00 0.86243539E+03</pdfrwt>
<pdfrwt beam="2">  1       -2 0.99563930E-01 0.86243539E+03</pdfrwt>
<totfact> 0.97296169E+00</totfact>
</mgrwt>
</event>
<event>
 4    2  0.9070994E-007  0.7240066E+03  0.7818608E-02  0.9909255E-01
         -2   -1    0    0    0  501 -0.00000000000E+00  0.00000000000E+00  0.34706326509E+03  0.34706326510E+03  0.25500000000E-02 0.  1.
          2   -1    0    0  501    0  0.00000000000E+00 -0.00000000000E+00 -0.10484542361E+04  0.10484542361E+04  0.25500000000E-02 0. -1.
    8880023    1    1    2    0    0  0.17874332339E+03  0.24171495424E+03 -0.76389302525E+03  0.10524818550E+04  0.65864270000E+03 0. -1.
    8880022    1    1    2    0    0 -0.17874332339E+03 -0.24171495424E+03  0.62502054270E+02  0.34303564620E+03  0.15294330000E+03 0.  0.
<mgrwt>
<rscale>  0 0.59814832E+03</rscale>
<asrwt>0</asrwt>
<pdfrwt beam="1">  1        2 0.16130065E+00 0.72400656E+03</pdfrwt>
<pdfrwt beam="2">  1       -2 0.53394349E-01 0.72400656E+03</pdfrwt>
<totfact> 0.78878738E+01</totfact>
</mgrwt>
</event>
<event>
 4    2  0.9070994E-007  0.6699739E+03  0.7818608E-02  0.1015682E+00
         -2   -1    0    0    0  501 -0.00000000000E+00  0.00000000000E+00  0.44251264196E+03  0.44251264197E+03  0.25500000000E-02 0.  1.
          2   -1    0    0  501    0  0.00000000000E+00 -0.00000000000E+00 -0.43395635856E+03  0.43395635857E+03  0.25500000000E-02 0. -1.
    8880023    1    1    2    0    0  0.12269792500E+03  0.22320585421E-01  0.63121051654E+02  0.67294075127E+03  0.65864270000E+03 0.  1.
    8880022    1    1    2    0    0 -0.12269792500E+03 -0.22320585421E-01 -0.54564768255E+02  0.20352824926E+03  0.15294330000E+03 0. -1.
<mgrwt>
<rscale>  0 0.49277698E+03</rscale>
<asrwt>0</asrwt>
<pdfrwt beam="1">  1        2 0.66762517E-01 0.66997387E+03</pdfrwt>
<pdfrwt beam="2">  1       -2 0.68078868E-01 0.66997387E+03</pdfrwt>
<totfact> 0.14517498E+02</totfact>
</mgrwt>
</event>
<event>
 4    2  0.9070994E-007  0.7155458E+03  0.7818608E-02  0.9937956E-01
          2   -1    0    0  501    0  0.00000000000E+00  0.00000000000E+00  0.29388764920E+04  0.29388764920E+04  0.25500000000E-02 0. -1.
         -2   -1    0    0    0  501 -0.00000000000E+00 -0.00000000000E+00 -0.15530108058E+03  0.15530108061E+03  0.25500000000E-02 0.  1.
    8880023    1    1    2    0    0 -0.17504601864E+03  0.21807002674E+03  0.26562820767E+04  0.27509707963E+04  0.65864270000E+03 0. -1.
    8880022    1    1    2    0    0  0.17504601864E+03 -0.21807002674E+03  0.12729333477E+03  0.34320677630E+03  0.15294330000E+03 0.  0.
<mgrwt>
<rscale>  0 0.58456529E+03</rscale>
<asrwt>0</asrwt>
<pdfrwt beam="1">  1        2 0.45213483E+00 0.71554584E+03</pdfrwt>
<pdfrwt beam="2">  1       -2 0.23892475E-01 0.71554584E+03</pdfrwt>
<totfact> 0.31372887E+01</totfact>
</mgrwt>
</event>
<event>
 4    2  0.9070994E-007  0.9211606E+03  0.7818608E-02  0.9492882E-01
         -2   -1    0    0    0  501 -0.00000000000E+00  0.00000000000E+00  0.22220158104E+03  0.22220158105E+03  0.25500000000E-02 0.  1.
          2   -1    0    0  501    0  0.00000000000E+00 -0.00000000000E+00 -0.29538789755E+04  0.29538789756E+04  0.25500000000E-02 0. -1.
    8880023    1    1    2    0    0  0.54329588191E+03 -0.34576915346E+03 -0.12451552451E+04  0.15488539355E+04  0.65864270000E+03 0.  0.
    8880022    1    1    2    0    0 -0.54329588191E+03  0.34576915346E+03 -0.14865221494E+04  0.16272266211E+04  0.15294330000E+03 0.  0.
<mgrwt>
<rscale>  0 0.84810664E+03</rscale>
<asrwt>0</asrwt>
<pdfrwt beam="1">  1        2 0.45444289E+00 0.92116064E+03</pdfrwt>
<pdfrwt beam="2">  1       -2 0.34184861E-01 0.92116064E+03</pdfrwt>
<totfact> 0.15388798E+01</totfact>
</mgrwt>
</event>
<event>
 4    2  0.9070994E-007  0.1209714E+04  0.7818608E-02  0.9147737E-01
          2   -1    0    0  501    0  0.00000000000E+00  0.00000000000E+00  0.17827357849E+04  0.17827357849E+04  0.25500000000E-02 0. -1.
         -2   -1    0    0    0  501 -0.00000000000E+00 -0.00000000000E+00 -0.11091719930E+04  0.11091719930E+04  0.25500000000E-02 0.  1.
    8880023    1    1    2    0    0  0.97408706615E+03  0.28417092298E+03  0.12294955277E+04  0.17248385967E+04  0.65864270000E+03 0.  0.
    8880022    1    1    2    0    0 -0.97408706615E+03 -0.28417092298E+03 -0.55593173572E+03  0.11670691812E+04  0.15294330000E+03 0.  0.
<mgrwt>
<rscale>  0 0.11609545E+04</rscale>
<asrwt>0</asrwt>
<pdfrwt beam="1">  1        2 0.27426704E+00 0.12097144E+04</pdfrwt>
<pdfrwt beam="2">  1       -2 0.17064185E+00 0.12097144E+04</pdfrwt>
<totfact> 0.18047494E+00</totfact>
</mgrwt>
</event>
<event>
 4    2  0.9070994E-007  0.8070072E+03  0.7818608E-02  0.9695845E-01
         -2   -1    0    0    0  501 -0.00000000000E+00  0.00000000000E+00  0.18016590313E+03  0.18016590315E+03  0.25500000000E-02 0.  1.
          2   -1    0    0  501    0  0.00000000000E+00 -0.00000000000E+00 -0.35796359855E+04  0.35796359855E+04  0.25500000000E-02 0. -1.
    8880023    1    1    2    0    0 -0.24345190577E+03 -0.39772051510E+03 -0.30560821883E+04  0.31608383360E+04  0.65864270000E+03 0. -1.
    8880022    1    1    2    0    0  0.24345190577E+03  0.39772051510E+03 -0.34338789406E+03  0.59896355261E+03  0.15294330000E+03 0.  1.
<mgrwt>
<rscale>  0 0.71264725E+03</rscale>
<asrwt>0</asrwt>
<pdfrwt beam="1">  1        2 0.55071318E+00 0.80700721E+03</pdfrwt>
<pdfrwt beam="2">  1       -2 0.27717834E-01 0.80700721E+03</pdfrwt>
<totfact> 0.90848257E+00</totfact>
</mgrwt>
</event>
<event>
 4    2  0.9070994E-007  0.8196219E+03  0.7818608E-02  0.9669873E-01
         -2   -1    0    0    0  501 -0.00000000000E+00  0.00000000000E+00  0.62331456775E+03  0.62331456776E+03  0.25500000000E-02 0.  1.
          2   -1    0    0  501    0  0.00000000000E+00 -0.00000000000E+00 -0.30333573896E+04  0.30333573896E+04  0.25500000000E-02 0. -1.
    8880023    1    1    2    0    0 -0.38743058348E+03 -0.29642442027E+03 -0.28603079463E+04  0.29754229359E+04  0.65864270000E+03 0. -1.
    8880022    1    1    2    0    0  0.38743058348E+03  0.29642442027E+03  0.45026512440E+03  0.68124902144E+03  0.15294330000E+03 0.  0.
<mgrwt>
<rscale>  0 0.72839237E+03</rscale>
<asrwt>0</asrwt>
<pdfrwt beam="1">  1        2 0.46667036E+00 0.81962193E+03</pdfrwt>
<pdfrwt beam="2">  1       -2 0.95894551E-01 0.81962193E+03</pdfrwt>
<totfact> 0.15939666E+00</totfact>
</mgrwt>
</event>
<event>
 4    2  0.9070994E-007  0.8358573E+03  0.7818608E-02  0.9638042E-01
          2   -1    0    0  501    0  0.00000000000E+00  0.00000000000E+00  0.11886252868E+04  0.11886252868E+04  0.25500000000E-02 0. -1.
         -2   -1    0    0    0  501 -0.00000000000E+00 -0.00000000000E+00 -0.47348432265E+03  0.47348432266E+03  0.25500000000E-02 0.  1.
    8880023    1    1    2    0    0 -0.11737190738E+03  0.50106993468E+03  0.94039102274E+02  0.84113066946E+03  0.65864270000E+03 0.  1.
    8880022    1    1    2    0    0  0.11737190738E+03 -0.50106993468E+03  0.62110186188E+03  0.82097894000E+03  0.15294330000E+03 0. -1.
<mgrwt>
<rscale>  0 0.74828697E+03</rscale>
<asrwt>0</asrwt>
<pdfrwt beam="1">  1        2 0.18286543E+00 0.83585731E+03</pdfrwt>
<pdfrwt beam="2">  1       -2 0.72843742E-01 0.83585731E+03</pdfrwt>
<totfact> 0.33099539E+01</totfact>
</mgrwt>
</event>
<event>
 4    2  0.9070994E-007  0.6849668E+03  0.7818608E-02  0.1006643E+00
          2   -1    0    0  501    0  0.00000000000E+00  0.00000000000E+00  0.54891103564E+03  0.54891103565E+03  0.25500000000E-02 0. -1.
         -2   -1    0    0    0  501 -0.00000000000E+00 -0.00000000000E+00 -0.40660367140E+03  0.40660367141E+03  0.25500000000E-02 0.  1.
    8880023    1    1    2    0    0 -0.67453880095E+02  0.17555429664E+03  0.18469350900E+03  0.70943021894E+03  0.65864270000E+03 0.  1.
    8880022    1    1    2    0    0  0.67453880095E+02 -0.17555429664E+03 -0.42386144755E+02  0.24608448812E+03  0.15294330000E+03 0.  0.
<mgrwt>
<rscale>  0 0.52830934E+03</rscale>
<asrwt>0</asrwt>
<pdfrwt beam="1">  1        2 0.84447851E-01 0.68496682E+03</pdfrwt>
<pdfrwt beam="2">  1       -2 0.62554411E-01 0.68496682E+03</pdfrwt>
<totfact> 0.13263832E+02</totfact>
</mgrwt>
</event>
<event>
 4    2  0.9070994E-007  0.7034378E+03  0.7818608E-02  0.9983228E-01
         -2   -1    0    0    0  501 -0.00000000000E+00  0.00000000000E+00  0.45180647109E+03  0.45180647110E+03  0.25500000000E-02 0.  1.
          2   -1    0    0  501    0  0.00000000000E+00 -0.00000000000E+00 -0.26395464790E+04  0.26395464790E+04  0.25500000000E-02 0. -1.
    8880023    1    1    2    0    0 -0.24059527650E+03  0.55932195188E+02 -0.25395015758E+04  0.26351267440E+04  0.65864270000E+03 0. -1.
    8880022    1    1    2    0    0  0.24059527650E+03 -0.55932195188E+02  0.35176156782E+03  0.45622620611E+03  0.15294330000E+03 0.  0.
<mgrwt>
<rscale>  0 0.56391809E+03</rscale>
<asrwt>0</asrwt>
<pdfrwt beam="1">  1        2 0.40608406E+00 0.70343778E+03</pdfrwt>
<pdfrwt beam="2">  1       -2 0.69508690E-01 0.70343778E+03</pdfrwt>
<totfact> 0.57884657E+00</totfact>
</mgrwt>
</event>
<event>
 4    2  0.9070994E-007  0.9960614E+03  0.7818608E-02  0.9386729E-01
          2   -1    0    0  501    0  0.00000000000E+00  0.00000000000E+00  0.43022589810E+04  0.43022589810E+04  0.25500000000E-02 0. -1.
         -2   -1    0    0    0  501 -0.00000000000E+00 -0.00000000000E+00 -0.29378530732E+03  0.29378530733E+03  0.25500000000E-02 0.  1.
    8880023    1    1    2    0    0  0.60150143016E+03 -0.44331046452E+03  0.74292356758E+03  0.12426076501E+04  0.65864270000E+03 0.  0.
    8880022    1    1    2    0    0 -0.60150143016E+03  0.44331046452E+03  0.32655501061E+04  0.33534366382E+04  0.15294330000E+03 0.  0.
<mgrwt>
<rscale>  0 0.93175948E+03</rscale>
<asrwt>0</asrwt>
<pdfrwt beam="1">  1        2 0.66188596E+00 0.99606142E+03</pdfrwt>
<pdfrwt beam="2">  1       -2 0.45197742E-01 0.99606142E+03</pdfrwt>
<totfact> 0.93613285E-01</totfact>
</mgrwt>
</event>
<event>
 4    2  0.9070994E-007  0.7042492E+03  0.7818608E-02  0.9980010E-01
          2   -1    0    0  501    0  0.00000000000E+00  0.00000000000E+00  0.15761552526E+04  0.15761552526E+04  0.25500000000E-02 0. -1.
         -2   -1    0    0    0  501 -0.00000000000E+00 -0.00000000000E+00 -0.36129022651E+03  0.36129022652E+03  0.25500000000E-02 0.  1.
    8880023    1    1    2    0    0  0.61560242756E+02 -0.24159268374E+03  0.14166927782E+04  0.15820825902E+04  0.65864270000E+03 0.  0.
    8880022    1    1    2    0    0 -0.61560242756E+02  0.24159268374E+03 -0.20182775203E+03  0.35536288893E+03  0.15294330000E+03 0.  0.
<mgrwt>
<rscale>  0 0.56535496E+03</rscale>
<asrwt>0</asrwt>
<pdfrwt beam="1">  1        2 0.24248542E+00 0.70424917E+03</pdfrwt>
<pdfrwt beam="2">  1       -2 0.55583112E-01 0.70424917E+03</pdfrwt>
<totfact> 0.36011521E+01</totfact>
</mgrwt>
</event>
<event>
 4    2  0.9070994E-007  0.7402119E+03  0.7818608E-02  0.9859330E-01
          2   -1    0    0  501    0  0.00000000000E+00  0.00000000000E+00  0.16998196381E+04  0.16998196381E+04  0.25500000000E-02 0. -1.
         -2   -1    0    0    0  501 -0.00000000000E+00 -0.00000000000E+00 -0.55598704000E+03  0.55598704001E+03  0.25500000000E-02 0.  1.
    8880023    1    1    2    0    0 -0.12107271734E+03  0.31534882490E+03  0.15427693122E+04  0.17111548268E+04  0.65864270000E+03 0. -1.
    8880022    1    1    2    0    0  0.12107271734E+03 -0.31534882490E+03 -0.39893671413E+03  0.54465185132E+03  0.15294330000E+03 0.  0.
<mgrwt>
<rscale>  0 0.62273457E+03</rscale>
<asrwt>0</asrwt>
<pdfrwt beam="1">  1        2 0.26151071E+00 0.74021192E+03</pdfrwt>
<pdfrwt beam="2">  1       -2 0.85536469E-01 0.74021192E+03</pdfrwt>
<totfact> 0.11998265E+01</totfact>
</mgrwt>
</event>
<event>
 4    2  0.9070994E-007  0.6623644E+03  0.7818608E-02  0.1021855E+00
         -2   -1    0    0    0  501 -0.00000000000E+00  0.00000000000E+00  0.21632217580E+03  0.21632217582E+03  0.25500000000E-02 0.  1.
          2   -1    0    0  501    0  0.00000000000E+00 -0.00000000000E+00 -0.28457856874E+04  0.28457856874E+04  0.25500000000E-02 0. -1.
    8880023    1    1    2    0    0  0.67160454027E+02 -0.20145545982E+02 -0.27667646443E+04  0.28449451968E+04  0.65864270000E+03 0. -1.
    8880022    1    1    2    0    0 -0.67160454027E+02  0.20145545982E+02  0.13730113273E+03  0.21716266639E+03  0.15294330000E+03 0.  0.
<mgrwt>
<rscale>  0 0.47023118E+03</rscale>
<asrwt>0</asrwt>
<pdfrwt beam="1">  1        2 0.43781315E+00 0.66236438E+03</pdfrwt>
<pdfrwt beam="2">  1       -2 0.33280337E-01 0.66236438E+03</pdfrwt>
<totfact> 0.19590811E+01</totfact>
</mgrwt>
</event>
<event>
 4    2  0.9070994E-007  0.7597454E+03  0.7818608E-02  0.9805767E-01
          2   -1    0    0  501    0  0.00000000000E+00  0.00000000000E+00  0.33606094933E+04  0.33606094933E+04  0.25500000000E-02 0. -1.
         -2   -1    0    0    0  501 -0.00000000000E+00 -0.00000000000E+00 -0.22876876312E+03  0.22876876314E+03  0.25500000000E-02 0.  1.
    8880023    1    1    2    0    0 -0.99834241741E+02  0.36528900938E+03  0.30863060670E+04  0.31784427448E+04  0.65864270000E+03 0. -1.
    8880022    1    1    2    0    0  0.99834241741E+02 -0.36528900938E+03  0.45534663171E+02  0.41093551168E+03  0.15294330000E+03 0.  0.
<mgrwt>
<rscale>  0 0.65053973E+03</rscale>
<asrwt>0</asrwt>
<pdfrwt beam="1">  1        2 0.51701684E+00 0.75974545E+03</pdfrwt>
<pdfrwt beam="2">  1       -2 0.35195195E-01 0.75974545E+03</pdfrwt>
<totfact> 0.82544609E+00</totfact>
</mgrwt>
</event>
<event>
 4    2  0.9070994E-007  0.7093954E+03  0.7818608E-02  0.9960253E-01
          2   -1    0    0  501    0  0.00000000000E+00  0.00000000000E+00  0.16094641103E+04  0.16094641103E+04  0.25500000000E-02 0. -1.
         -2   -1    0    0    0  501 -0.00000000000E+00 -0.00000000000E+00 -0.23697548616E+03  0.23697548617E+03  0.25500000000E-02 0.  1.
    8880023    1    1    2    0    0  0.10359856163E+03 -0.24227866672E+03  0.13688489227E+04  0.15417487454E+04  0.65864270000E+03 0.  0.
    8880022    1    1    2    0    0 -0.10359856163E+03  0.24227866672E+03  0.36397014373E+01  0.30469085113E+03  0.15294330000E+03 0.  0.
<mgrwt>
<rscale>  0 0.57427959E+03</rscale>
<asrwt>0</asrwt>
<pdfrwt beam="1">  1        2 0.24760985E+00 0.70939539E+03</pdfrwt>
<pdfrwt beam="2">  1       -2 0.36457768E-01 0.70939539E+03</pdfrwt>
<totfact> 0.79990692E+01</totfact>
</mgrwt>
</event>
<event>
 4    2  0.9219479E-007  0.7901133E+03  0.7818608E-02  0.9732595E-01
          2   -1    0    0  501    0  0.00000000000E+00  0.00000000000E+00  0.21641839101E+04  0.21641839101E+04  0.25500000000E-02 0. -1.
         -2   -1    0    0    0  501 -0.00000000000E+00 -0.00000000000E+00 -0.10207142029E+04  0.10207142029E+04  0.25500000000E-02 0.  1.
    8880023    1    1    2    0    0  0.10948636146E+03 -0.42247075318E+03  0.20336595116E+04  0.21817538853E+04  0.65864270000E+03 0.  0.
    8880022    1    1    2    0    0 -0.10948636146E+03  0.42247075318E+03 -0.89018980440E+03  0.10031442277E+04  0.15294330000E+03 0.  0.
<mgrwt>
<rscale>  0 0.69108797E+03</rscale>
<asrwt>0</asrwt>
<pdfrwt beam="1">  1        2 0.33295137E+00 0.79011329E+03</pdfrwt>
<pdfrwt beam="2">  1       -2 0.15703296E+00 0.79011329E+03</pdfrwt>
<totfact> 0.14836773E+00</totfact>
</mgrwt>
</event>
<event>
 4    2  0.9070994E-007  0.8890570E+03  0.7818608E-02  0.9543832E-01
         -2   -1    0    0    0  501 -0.00000000000E+00  0.00000000000E+00  0.16851797760E+04  0.16851797760E+04  0.25500000000E-02 0.  1.
          2   -1    0    0  501    0  0.00000000000E+00 -0.00000000000E+00 -0.72696814644E+03  0.72696814645E+03  0.25500000000E-02 0. -1.
    8880023    1    1    2    0    0  0.49717629173E+03 -0.33079897192E+03 -0.35823698772E+03  0.95851769442E+03  0.65864270000E+03 0. -1.
    8880022    1    1    2    0    0 -0.49717629173E+03  0.33079897192E+03  0.13164486173E+04  0.14536302280E+04  0.15294330000E+03 0.  0.
<mgrwt>
<rscale>  0 0.81127992E+03</rscale>
<asrwt>0</asrwt>
<pdfrwt beam="1">  1        2 0.11184125E+00 0.88905705E+03</pdfrwt>
<pdfrwt beam="2">  1       -2 0.25925843E+00 0.88905705E+03</pdfrwt>
<totfact> 0.22294552E+00</totfact>
</mgrwt>
</event>
<event>
 4    2  0.9070994E-007  0.9421045E+03  0.7818608E-02  0.9461566E-01
         -2   -1    0    0    0  501 -0.00000000000E+00  0.00000000000E+00  0.37626916104E+03  0.37626916105E+03  0.25500000000E-02 0.  1.
          2   -1    0    0  501    0  0.00000000000E+00 -0.00000000000E+00 -0.19527692675E+04  0.19527692675E+04  0.25500000000E-02 0. -1.
    8880023    1    1    2    0    0 -0.28944561374E+03  0.60825320273E+03 -0.12492974851E+04  0.15647060857E+04  0.65864270000E+03 0.  0.
    8880022    1    1    2    0    0  0.28944561374E+03 -0.60825320273E+03 -0.32720262134E+03  0.76433234288E+03  0.15294330000E+03 0.  0.
<mgrwt>
<rscale>  0 0.87177681E+03</rscale>
<asrwt>0</asrwt>
<pdfrwt beam="1">  1        2 0.30042603E+00 0.94210452E+03</pdfrwt>
<pdfrwt beam="2">  1       -2 0.57887564E-01 0.94210452E+03</pdfrwt>
<totfact> 0.20009618E+01</totfact>
</mgrwt>
</event>
<event>
 4    2  0.9070994E-007  0.6633811E+03  0.7818608E-02  0.1020932E+00
          2   -1    0    0  501    0  0.00000000000E+00  0.00000000000E+00  0.27351934304E+04  0.27351934304E+04  0.25500000000E-02 0. -1.
         -2   -1    0    0    0  501 -0.00000000000E+00 -0.00000000000E+00 -0.15704424558E+03  0.15704424560E+03  0.25500000000E-02 0.  1.
    8880023    1    1    2    0    0 -0.70619282067E+02 -0.35738039263E+02  0.26300140846E+04  0.27123879852E+04  0.65864270000E+03 0. -1.
    8880022    1    1    2    0    0  0.70619282067E+02  0.35738039263E+02 -0.51864899802E+02  0.17984969084E+03  0.15294330000E+03 0.  0.
<mgrwt>
<rscale>  0 0.47351778E+03</rscale>
<asrwt>0</asrwt>
<pdfrwt beam="1">  1        2 0.42079897E+00 0.66338111E+03</pdfrwt>
<pdfrwt beam="2">  1       -2 0.24160654E-01 0.66338111E+03</pdfrwt>
<totfact> 0.40966465E+01</totfact>
</mgrwt>
</event>
<event>
 4    2  0.9070994E-007  0.9099976E+03  0.7818608E-02  0.9510169E-01
          2   -1    0    0  501    0  0.00000000000E+00  0.00000000000E+00  0.22550468657E+04  0.22550468657E+04  0.25500000000E-02 0. -1.
         -2   -1    0    0    0  501 -0.00000000000E+00 -0.00000000000E+00 -0.46401176866E+03  0.46401176867E+03  0.25500000000E-02 0.  1.
    8880023    1    1    2    0    0  0.31093969424E+03 -0.54552896195E+03  0.18584397607E+04  0.20692737596E+04  0.65864270000E+03 0. -1.
    8880022    1    1    2    0    0 -0.31093969424E+03  0.54552896195E+03 -0.67404663653E+02  0.64978487477E+03  0.15294330000E+03 0.  0.
<mgrwt>
<rscale>  0 0.83538224E+03</rscale>
<asrwt>0</asrwt>
<pdfrwt beam="1">  1        2 0.34693030E+00 0.90999755E+03</pdfrwt>
<pdfrwt beam="2">  1       -2 0.71386424E-01 0.90999755E+03</pdfrwt>
<totfact> 0.87152507E+00</totfact>
</mgrwt>
</event>
<event>
 4    2  0.1174733E-006  0.1073443E+04  0.7818608E-02  0.9291217E-01
          2   -1    0    0  501    0  0.00000000000E+00  0.00000000000E+00  0.14653424111E+04  0.14653424111E+04  0.25500000000E-02 0. -1.
         -2   -1    0    0    0  501 -0.00000000000E+00 -0.00000000000E+00 -0.25701706821E+04  0.25701706821E+04  0.25500000000E-02 0.  1.
    8880023    1    1    2    0    0 -0.73431200724E+03  0.42338533951E+03  0.11791198960E+04  0.15945542340E+04  0.65864270000E+03 0.  0.
    8880022    1    1    2    0    0  0.73431200724E+03 -0.42338533951E+03 -0.22839481670E+04  0.24409588592E+04  0.15294330000E+03 0.  0.
<mgrwt>
<rscale>  0 0.10159551E+04</rscale>
<asrwt>0</asrwt>
<pdfrwt beam="1">  1        2 0.22543729E+00 0.10734428E+04</pdfrwt>
<pdfrwt beam="2">  1       -2 0.39541087E+00 0.10734428E+04</pdfrwt>
<totfact> 0.10605610E-01</totfact>
</mgrwt>
</event>
<event>
 4    2  0.9070994E-007  0.7157771E+03  0.7818608E-02  0.9937143E-01
         -2   -1    0    0    0  501 -0.00000000000E+00  0.00000000000E+00  0.66400958735E+03  0.66400958736E+03  0.25500000000E-02 0.  1.
          2   -1    0    0  501    0  0.00000000000E+00 -0.00000000000E+00 -0.60109766006E+03  0.60109766007E+03  0.25500000000E-02 0. -1.
    8880023    1    1    2    0    0 -0.27556532234E+03 -0.50896339519E+02 -0.30495274201E+03  0.77803153238E+03  0.65864270000E+03 0. -1.
    8880022    1    1    2    0    0  0.27556532234E+03  0.50896339519E+02  0.36786466930E+03  0.48707571504E+03  0.15294330000E+03 0. -1.
<mgrwt>
<rscale>  0 0.58494482E+03</rscale>
<asrwt>0</asrwt>
<pdfrwt beam="1">  1        2 0.92476564E-01 0.71577712E+03</pdfrwt>
<pdfrwt beam="2">  1       -2 0.10215532E+00 0.71577712E+03</pdfrwt>
<totfact> 0.39441761E+01</totfact>
</mgrwt>
</event>
<event>
 4    2  0.9070994E-007  0.6843904E+03  0.7818608E-02  0.1006942E+00
          2   -1    0    0  501    0  0.00000000000E+00  0.00000000000E+00  0.35932943433E+04  0.35932943433E+04  0.25500000000E-02 0. -1.
         -2   -1    0    0    0  501 -0.00000000000E+00 -0.00000000000E+00 -0.15540482596E+03  0.15540482598E+03  0.25500000000E-02 0.  1.
    8880023    1    1    2    0    0 -0.17359084890E+03 -0.66679708714E+02  0.34405023815E+04  0.35079120300E+04  0.65864270000E+03 0. -1.
    8880022    1    1    2    0    0  0.17359084890E+03  0.66679708714E+02 -0.26128642124E+01  0.24078713930E+03  0.15294330000E+03 0.  0.
<mgrwt>
<rscale>  0 0.52708401E+03</rscale>
<asrwt>0</asrwt>
<pdfrwt beam="1">  1        2 0.55281451E+00 0.68439037E+03</pdfrwt>
<pdfrwt beam="2">  1       -2 0.23908435E-01 0.68439037E+03</pdfrwt>
<totfact> 0.11898071E+01</totfact>
</mgrwt>
</event>
<event>
 4    2  0.9070994E-007  0.7199641E+03  0.7818608E-02  0.9922707E-01
          2   -1    0    0  501    0  0.00000000000E+00  0.00000000000E+00  0.15077917985E+04  0.15077917985E+04  0.25500000000E-02 0. -1.
         -2   -1    0    0    0  501 -0.00000000000E+00 -0.00000000000E+00 -0.25353899280E+03  0.25353899281E+03  0.25500000000E-02 0.  1.
    8880023    1    1    2    0    0 -0.69977901062E+02  0.28220783383E+03  0.12383355296E+04  0.14324186742E+04  0.65864270000E+03 0. -1.
    8880022    1    1    2    0    0  0.69977901062E+02 -0.28220783383E+03  0.15917276152E+02  0.32891211715E+03  0.15294330000E+03 0.  1.
<mgrwt>
<rscale>  0 0.59173306E+03</rscale>
<asrwt>0</asrwt>
<pdfrwt beam="1">  1        2 0.23196797E+00 0.71996415E+03</pdfrwt>
<pdfrwt beam="2">  1       -2 0.39005999E-01 0.71996415E+03</pdfrwt>
<totfact> 0.79830526E+01</totfact>
</mgrwt>
</event>
<event>
 4    2  0.9070994E-007  0.6625929E+03  0.7818608E-02  0.1021644E+00
         -2   -1    0    0    0  501 -0.00000000000E+00  0.00000000000E+00  0.51219763496E+03  0.51219763497E+03  0.25500000000E-02 0.  1.
          2   -1    0    0  501    0  0.00000000000E+00 -0.00000000000E+00 -0.94316897339E+03  0.94316897339E+03  0.25500000000E-02 0. -1.
    8880023    1    1    2    0    0  0.68382306968E+02  0.23301622953E+02 -0.80633635600E+03  0.10436511059E+04  0.65864270000E+03 0. -1.
    8880022    1    1    2    0    0 -0.68382306968E+02 -0.23301622953E+02  0.37536501758E+03  0.41171550247E+03  0.15294330000E+03 0.  0.
<mgrwt>
<rscale>  0 0.47097867E+03</rscale>
<asrwt>0</asrwt>
<pdfrwt beam="1">  1        2 0.14510292E+00 0.66259287E+03</pdfrwt>
<pdfrwt beam="2">  1       -2 0.78799636E-01 0.66259287E+03</pdfrwt>
<totfact> 0.40160160E+01</totfact>
</mgrwt>
</event>
<event>
 4    2  0.9070994E-007  0.7104728E+03  0.7818608E-02  0.9956249E-01
          2   -1    0    0  501    0  0.00000000000E+00  0.00000000000E+00  0.26622746003E+04  0.26622746003E+04  0.25500000000E-02 0. -1.
         -2   -1    0    0    0  501 -0.00000000000E+00 -0.00000000000E+00 -0.17694888788E+03  0.17694888790E+03  0.25500000000E-02 0.  1.
    8880023    1    1    2    0    0 -0.14670769376E+03  0.22234715408E+03  0.24240229318E+04  0.25259965923E+04  0.65864270000E+03 0.  0.
    8880022    1    1    2    0    0  0.14670769376E+03 -0.22234715408E+03  0.61302780570E+02  0.31322689581E+03  0.15294330000E+03 0.  0.
<mgrwt>
<rscale>  0 0.57610957E+03</rscale>
<asrwt>0</asrwt>
<pdfrwt beam="1">  1        2 0.40958066E+00 0.71047281E+03</pdfrwt>
<pdfrwt beam="2">  1       -2 0.27222909E-01 0.71047281E+03</pdfrwt>
<totfact> 0.36122756E+01</totfact>
</mgrwt>
</event>
<event>
 4    2  0.9070994E-007  0.7310157E+03  0.7818608E-02  0.9886935E-01
          2   -1    0    0  501    0  0.00000000000E+00  0.00000000000E+00  0.15071608454E+04  0.15071608454E+04  0.25500000000E-02 0. -1.
         -2   -1    0    0    0  501 -0.00000000000E+00 -0.00000000000E+00 -0.33365399343E+03  0.33365399344E+03  0.25500000000E-02 0.  1.
    8880023    1    1    2    0    0  0.19231518030E+03  0.25216796844E+03  0.12790820149E+04  0.14732395664E+04  0.65864270000E+03 0.  0.
    8880022    1    1    2    0    0 -0.19231518030E+03 -0.25216796844E+03 -0.10557516292E+03  0.36757527246E+03  0.15294330000E+03 0.  0.
<mgrwt>
<rscale>  0 0.60898646E+03</rscale>
<asrwt>0</asrwt>
<pdfrwt beam="1">  1        2 0.23187090E+00 0.73101574E+03</pdfrwt>
<pdfrwt beam="2">  1       -2 0.51331384E-01 0.73101574E+03</pdfrwt>
<totfact> 0.46188695E+01</totfact>
</mgrwt>
</event>
<event>
 4    2  0.9070994E-007  0.8153450E+03  0.7818608E-02  0.9678549E-01
          2   -1    0    0  501    0  0.00000000000E+00  0.00000000000E+00  0.40257493696E+03  0.40257493697E+03  0.25500000000E-02 0. -1.
         -2   -1    0    0    0  501 -0.00000000000E+00 -0.00000000000E+00 -0.11649283866E+04  0.11649283866E+04  0.25500000000E-02 0.  1.
    8880023    1    1    2    0    0  0.45810225056E+03  0.14532587915E+03 -0.26035192927E+03  0.85590339201E+03  0.65864270000E+03 0. -1.
    8880022    1    1    2    0    0 -0.45810225056E+03 -0.14532587915E+03 -0.50200152034E+03  0.71159993153E+03  0.15294330000E+03 0.  0.
<mgrwt>
<rscale>  0 0.72308454E+03</rscale>
<asrwt>0</asrwt>
<pdfrwt beam="1">  1        2 0.61934606E-01 0.81534501E+03</pdfrwt>
<pdfrwt beam="2">  1       -2 0.17921975E+00 0.81534501E+03</pdfrwt>
<totfact> 0.14636739E+01</totfact>
</mgrwt>
</event>
<event>
 4    2  0.9070994E-007  0.9585351E+03  0.7818608E-02  0.9437939E-01
         -2   -1    0    0    0  501 -0.00000000000E+00  0.00000000000E+00  0.26313596199E+03  0.26313596200E+03  0.25500000000E-02 0.  1.
          2   -1    0    0  501    0  0.00000000000E+00 -0.00000000000E+00 -0.27841316557E+04  0.27841316557E+04  0.25500000000E-02 0. -1.
    8880023    1    1    2    0    0 -0.41773435736E+03  0.55720493826E+03 -0.17623385848E+04  0.20061472603E+04  0.65864270000E+03 0. -1.
    8880022    1    1    2    0    0  0.41773435736E+03 -0.55720493826E+03 -0.75865710891E+03  0.10411203573E+04  0.15294330000E+03 0.  1.
<mgrwt>
<rscale>  0 0.89018160E+03</rscale>
<asrwt>0</asrwt>
<pdfrwt beam="1">  1        2 0.42832793E+00 0.95853510E+03</pdfrwt>
<pdfrwt beam="2">  1       -2 0.40482458E-01 0.95853510E+03</pdfrwt>
<totfact> 0.13975182E+01</totfact>
</mgrwt>
</event>
<event>
 4    2  0.9070994E-007  0.6623007E+03  0.7818608E-02  0.1021914E+00
          2   -1    0    0  501    0  0.00000000000E+00  0.00000000000E+00  0.15401450600E+04  0.15401450600E+04  0.25500000000E-02 0. -1.
         -2   -1    0    0    0  501 -0.00000000000E+00 -0.00000000000E+00 -0.29561363179E+03  0.29561363180E+03  0.25500000000E-02 0.  1.
    8880023    1    1    2    0    0 -0.14609806781E+02 -0.67959903986E+02  0.14357971335E+04  0.15811880374E+04  0.65864270000E+03 0.  0.
    8880022    1    1    2    0    0  0.14609806781E+02  0.67959903986E+02 -0.19126570529E+03  0.25457065432E+03  0.15294330000E+03 0.  1.
<mgrwt>
<rscale>  0 0.47002185E+03</rscale>
<asrwt>0</asrwt>
<pdfrwt beam="1">  1        2 0.23694539E+00 0.66230069E+03</pdfrwt>
<pdfrwt beam="2">  1       -2 0.45479020E-01 0.66230069E+03</pdfrwt>
<totfact> 0.56993237E+01</totfact>
</mgrwt>
</event>
<event>
 4    2  0.9070994E-007  0.6695728E+03  0.7818608E-02  0.1015971E+00
          2   -1    0    0  501    0  0.00000000000E+00  0.00000000000E+00  0.16879639413E+04  0.16879639413E+04  0.25500000000E-02 0. -1.
         -2   -1    0    0    0  501 -0.00000000000E+00 -0.00000000000E+00 -0.31689768790E+03  0.31689768791E+03  0.25500000000E-02 0.  1.
    8880023    1    1    2    0    0 -0.17635534942E+02 -0.11919129848E+03  0.15819644258E+04  0.17178298020E+04  0.65864270000E+03 0. -1.
    8880022    1    1    2    0    0  0.17635534942E+02  0.11919129848E+03 -0.21089817240E+03  0.28703182726E+03  0.15294330000E+03 0.  0.
<mgrwt>
<rscale>  0 0.49169013E+03</rscale>
<asrwt>0</asrwt>
<pdfrwt beam="1">  1        2 0.25968676E+00 0.66957284E+03</pdfrwt>
<pdfrwt beam="2">  1       -2 0.48753490E-01 0.66957284E+03</pdfrwt>
<totfact> 0.41090074E+01</totfact>
</mgrwt>
</event>
<event>
 4    2  0.9070994E-007  0.6899650E+03  0.7818608E-02  0.1004169E+00
         -2   -1    0    0    0  501 -0.00000000000E+00  0.00000000000E+00  0.13944334770E+03  0.13944334773E+03  0.25500000000E-02 0.  1.
          2   -1    0    0  501    0  0.00000000000E+00 -0.00000000000E+00 -0.19573155092E+04  0.19573155092E+04  0.25500000000E-02 0. -1.
    8880023    1    1    2    0    0  0.15640067154E+03 -0.13334278103E+03 -0.16552997297E+04  0.17933401431E+04  0.65864270000E+03 0. -1.
    8880022    1    1    2    0    0 -0.15640067154E+03  0.13334278103E+03 -0.16257243172E+03  0.30341871380E+03  0.15294330000E+03 0.  0.
<mgrwt>
<rscale>  0 0.53859295E+03</rscale>
<asrwt>0</asrwt>
<pdfrwt beam="1">  1        2 0.30112544E+00 0.68996498E+03</pdfrwt>
<pdfrwt beam="2">  1       -2 0.21452824E-01 0.68996498E+03</pdfrwt>
<totfact> 0.13710494E+02</totfact>
</mgrwt>
</event>
<event>
 4    2  0.9070994E-007  0.9263361E+03  0.7818608E-02  0.9485011E-01
          2   -1    0    0  501    0  0.00000000000E+00  0.00000000000E+00  0.13557207089E+04  0.13557207089E+04  0.25500000000E-02 0. -1.
         -2   -1    0    0    0  501 -0.00000000000E+00 -0.00000000000E+00 -0.84142957714E+03  0.84142957714E+03  0.25500000000E-02 0.  1.
    8880023    1    1    2    0    0  0.50156528118E+03  0.41559681435E+03  0.10054619419E+04  0.13671329000E+04  0.65864270000E+03 0.  0.
    8880022    1    1    2    0    0 -0.50156528118E+03 -0.41559681435E+03 -0.49117081013E+03  0.83001738604E+03  0.15294330000E+03 0.  0.
<mgrwt>
<rscale>  0 0.85397947E+03</rscale>
<asrwt>0</asrwt>
<pdfrwt beam="1">  1        2 0.20857241E+00 0.92633614E+03</pdfrwt>
<pdfrwt beam="2">  1       -2 0.12945071E+00 0.92633614E+03</pdfrwt>
<totfact> 0.67398468E+00</totfact>
</mgrwt>
</event>
<event>
 4    2  0.9070994E-007  0.7867840E+03  0.7818608E-02  0.9740136E-01
         -2   -1    0    0    0  501 -0.00000000000E+00  0.00000000000E+00  0.10482299532E+04  0.10482299532E+04  0.25500000000E-02 0.  1.
          2   -1    0    0  501    0  0.00000000000E+00 -0.00000000000E+00 -0.46949224053E+03  0.46949224053E+03  0.25500000000E-02 0. -1.
    8880023    1    1    2    0    0 -0.30325149276E+03  0.30538067155E+03  0.81249956863E+01  0.78682593007E+03  0.65864270000E+03 0.  0.
    8880022    1    1    2    0    0  0.30325149276E+03 -0.30538067155E+03  0.57061271694E+03  0.73089626362E+03  0.15294330000E+03 0.  0.
<mgrwt>
<rscale>  0 0.68676578E+03</rscale>
<asrwt>0</asrwt>
<pdfrwt beam="1">  1        2 0.72229576E-01 0.78678398E+03</pdfrwt>
<pdfrwt beam="2">  1       -2 0.16126614E+00 0.78678398E+03</pdfrwt>
<totfact> 0.16510794E+01</totfact>
</mgrwt>
</event>
<event>
 4    2  0.9070994E-007  0.7127813E+03  0.7818608E-02  0.9947814E-01
         -2   -1    0    0    0  501 -0.00000000000E+00  0.00000000000E+00  0.54634082878E+03  0.54634082879E+03  0.25500000000E-02 0.  1.
          2   -1    0    0  501    0  0.00000000000E+00 -0.00000000000E+00 -0.18882474047E+04  0.18882474047E+04  0.25500000000E-02 0. -1.
    8880023    1    1    2    0    0  0.16289316492E+03  0.21843255957E+03 -0.17679571736E+04  0.19062344400E+04  0.65864270000E+03 0. -1.
    8880022    1    1    2    0    0 -0.16289316492E+03 -0.21843255957E+03  0.42605059771E+03  0.52835379348E+03  0.15294330000E+03 0.  0.
<mgrwt>
<rscale>  0 0.57998922E+03</rscale>
<asrwt>0</asrwt>
<pdfrwt beam="1">  1        2 0.29049960E+00 0.71278129E+03</pdfrwt>
<pdfrwt beam="2">  1       -2 0.84052436E-01 0.71278129E+03</pdfrwt>
<totfact> 0.98959921E+00</totfact>
</mgrwt>
</event>
<event>
 4    2  0.9070994E-007  0.7506118E+03  0.7818608E-02  0.9830048E-01
         -2   -1    0    0    0  501 -0.00000000000E+00  0.00000000000E+00  0.28317645032E+03  0.28317645033E+03  0.25500000000E-02 0.  1.
          2   -1    0    0  501    0  0.00000000000E+00 -0.00000000000E+00 -0.14484511038E+04  0.14484511038E+04  0.25500000000E-02 0. -1.
    8880023    1    1    2    0    0 -0.32123289477E+03 -0.16253396655E+03 -0.11050426272E+04  0.13358657407E+04  0.65864270000E+03 0. -1.
    8880022    1    1    2    0    0  0.32123289477E+03  0.16253396655E+03 -0.60232026286E+02  0.39576181343E+03  0.15294330000E+03 0.  0.
<mgrwt>
<rscale>  0 0.63774608E+03</rscale>
<asrwt>0</asrwt>
<pdfrwt beam="1">  1        2 0.22283863E+00 0.75061180E+03</pdfrwt>
<pdfrwt beam="2">  1       -2 0.43565608E-01 0.75061180E+03</pdfrwt>
<totfact> 0.69161144E+01</totfact>
</mgrwt>
</event>
<event>
 4    2  0.9070994E-007  0.8237947E+03  0.7818608E-02  0.9661529E-01
          2   -1    0    0  501    0  0.00000000000E+00  0.00000000000E+00  0.11811955975E+04  0.11811955975E+04  0.25500000000E-02 0. -1.
         -2   -1    0    0    0  501 -0.00000000000E+00 -0.00000000000E+00 -0.41892533116E+03  0.41892533116E+03  0.25500000000E-02 0.  1.
    8880023    1    1    2    0    0 -0.46667156685E+03  0.16445387056E+03  0.69512989686E+03  0.10778883090E+04  0.65864270000E+03 0.  0.
    8880022    1    1    2    0    0  0.46667156685E+03 -0.16445387056E+03  0.67140369494E+02  0.52223261970E+03  0.15294330000E+03 0.  0.
<mgrwt>
<rscale>  0 0.73354276E+03</rscale>
<asrwt>0</asrwt>
<pdfrwt beam="1">  1        2 0.18172240E+00 0.82379465E+03</pdfrwt>
<pdfrwt beam="2">  1       -2 0.64450052E-01 0.82379465E+03</pdfrwt>
<totfact> 0.43694260E+01</totfact>
</mgrwt>
</event>
<event>
 4    2  0.9070994E-007  0.6957937E+03  0.7818608E-02  0.1001512E+00
         -2   -1    0    0    0  501 -0.00000000000E+00  0.00000000000E+00  0.23783851635E+03  0.23783851637E+03  0.25500000000E-02 0.  1.
          2   -1    0    0  501    0  0.00000000000E+00 -0.00000000000E+00 -0.10164490483E+04  0.10164490483E+04  0.25500000000E-02 0. -1.
    8880023    1    1    2    0    0 -0.21822494539E+03  0.51928798263E+02 -0.65640757457E+03  0.95655623833E+03  0.65864270000E+03 0. -1.
    8880022    1    1    2    0    0  0.21822494539E+03 -0.51928798263E+02 -0.12220295738E+03  0.29773132635E+03  0.15294330000E+03 0.  0.
<mgrwt>
<rscale>  0 0.54992248E+03</rscale>
<asrwt>0</asrwt>
<pdfrwt beam="1">  1        2 0.15637677E+00 0.69579374E+03</pdfrwt>
<pdfrwt beam="2">  1       -2 0.36590541E-01 0.69579374E+03</pdfrwt>
<totfact> 0.17540562E+02</totfact>
</mgrwt>
</event>
<event>
 4    2  0.9070994E-007  0.7048640E+03  0.7818608E-02  0.9977592E-01
         -2   -1    0    0    0  501 -0.00000000000E+00  0.00000000000E+00  0.53296663334E+03  0.53296663334E+03  0.25500000000E-02 0.  1.
          2   -1    0    0  501    0  0.00000000000E+00 -0.00000000000E+00 -0.11617534638E+04  0.11617534638E+04  0.25500000000E-02 0. -1.
    8880023    1    1    2    0    0  0.15135613878E+03 -0.20028578422E+03 -0.99859821380E+03  0.12223058844E+04  0.65864270000E+03 0. -1.
    8880022    1    1    2    0    0 -0.15135613878E+03  0.20028578422E+03  0.36981138337E+03  0.47241421274E+03  0.15294330000E+03 0.  0.
<mgrwt>
<rscale>  0 0.56643813E+03</rscale>
<asrwt>0</asrwt>
<pdfrwt beam="1">  1        2 0.17873130E+00 0.70486402E+03</pdfrwt>
<pdfrwt beam="2">  1       -2 0.81994867E-01 0.70486402E+03</pdfrwt>
<totfact> 0.26721815E+01</totfact>
</mgrwt>
</event>
<event>
 4    2  0.9070994E-007  0.6665653E+03  0.7818608E-02  0.1018255E+00
         -2   -1    0    0    0  501 -0.00000000000E+00  0.00000000000E+00  0.41467073660E+03  0.41467073660E+03  0.25500000000E-02 0.  1.
          2   -1    0    0  501    0  0.00000000000E+00 -0.00000000000E+00 -0.17003254600E+04  0.17003254600E+04  0.25500000000E-02 0. -1.
    8880023    1    1    2    0    0  0.50797582933E+02  0.88986946791E+02 -0.16097313307E+04  0.17422813304E+04  0.65864270000E+03 0. -1.
    8880022    1    1    2    0    0 -0.50797582933E+02 -0.88986946791E+02  0.32407660723E+03  0.37271486622E+03  0.15294330000E+03 0.  0.
<mgrwt>
<rscale>  0 0.48321691E+03</rscale>
<asrwt>0</asrwt>
<pdfrwt beam="1">  1        2 0.26158853E+00 0.66656528E+03</pdfrwt>
<pdfrwt beam="2">  1       -2 0.63795499E-01 0.66656528E+03</pdfrwt>
<totfact> 0.23148738E+01</totfact>
</mgrwt>
</event>
<event>
 4    2  0.9070994E-007  0.7621825E+03  0.7818608E-02  0.9799490E-01
         -2   -1    0    0    0  501 -0.00000000000E+00  0.00000000000E+00  0.37485010841E+03  0.37485010842E+03  0.25500000000E-02 0.  1.
          2   -1    0    0  501    0  0.00000000000E+00 -0.00000000000E+00 -0.45876428866E+04  0.45876428866E+04  0.25500000000E-02 0. -1.
    8880023    1    1    2    0    0  0.37565945903E+03 -0.77407092131E+02 -0.44305785119E+04  0.44956587997E+04  0.65864270000E+03 0. -1.
    8880022    1    1    2    0    0 -0.37565945903E+03  0.77407092131E+02  0.21778573372E+03  0.46683419530E+03  0.15294330000E+03 0.  0.
<mgrwt>
<rscale>  0 0.65389932E+03</rscale>
<asrwt>0</asrwt>
<pdfrwt beam="1">  1        2 0.70579117E+00 0.76218245E+03</pdfrwt>
<pdfrwt beam="2">  1       -2 0.57669251E-01 0.76218245E+03</pdfrwt>
<totfact> 0.32447923E-01</totfact>
</mgrwt>
</event>
<event>
 4    2  0.9070994E-007  0.8203418E+03  0.7818608E-02  0.9668425E-01
          2   -1    0    0  501    0  0.00000000000E+00  0.00000000000E+00  0.13839027074E+04  0.13839027074E+04  0.25500000000E-02 0. -1.
         -2   -1    0    0    0  501 -0.00000000000E+00 -0.00000000000E+00 -0.13523561186E+04  0.13523561186E+04  0.25500000000E-02 0.  1.
    8880023    1    1    2    0    0  0.32492729632E+03  0.36547594017E+03  0.12038998179E+04  0.14568237328E+04  0.65864270000E+03 0. -1.
    8880022    1    1    2    0    0 -0.32492729632E+03 -0.36547594017E+03 -0.11723532291E+04  0.12794350932E+04  0.15294330000E+03 0.  0.
<mgrwt>
<rscale>  0 0.72928282E+03</rscale>
<asrwt>0</asrwt>
<pdfrwt beam="1">  1        2 0.21290811E+00 0.82034177E+03</pdfrwt>
<pdfrwt beam="2">  1       -2 0.20805479E+00 0.82034177E+03</pdfrwt>
<totfact> 0.17761187E+00</totfact>
</mgrwt>
</event>
<event>
 4    2  0.9070994E-007  0.7106365E+03  0.7818608E-02  0.9955645E-01
          2   -1    0    0  501    0  0.00000000000E+00  0.00000000000E+00  0.38177829244E+03  0.38177829245E+03  0.25500000000E-02 0. -1.
         -2   -1    0    0    0  501 -0.00000000000E+00 -0.00000000000E+00 -0.71571102352E+03  0.71571102352E+03  0.25500000000E-02 0.  1.
    8880023    1    1    2    0    0 -0.94758973561E+02  0.24942891362E+03 -0.11477802980E+03  0.71984598937E+03  0.65864270000E+03 0.  0.
    8880022    1    1    2    0    0  0.94758973561E+02 -0.24942891362E+03 -0.21915470127E+03  0.37764332660E+03  0.15294330000E+03 0.  0.
<mgrwt>
<rscale>  0 0.57638653E+03</rscale>
<asrwt>0</asrwt>
<pdfrwt beam="1">  1        2 0.58735122E-01 0.71063651E+03</pdfrwt>
<pdfrwt beam="2">  1       -2 0.11010939E+00 0.71063651E+03</pdfrwt>
<totfact> 0.55670576E+01</totfact>
</mgrwt>
</event>
<event>
 4    2  0.9070994E-007  0.1069109E+04  0.7818608E-02  0.9296254E-01
          2   -1    0    0  501    0  0.00000000000E+00  0.00000000000E+00  0.22263468783E+04  0.22263468783E+04  0.25500000000E-02 0. -1.
         -2   -1    0    0    0  501 -0.00000000000E+00 -0.00000000000E+00 -0.68624520458E+03  0.68624520459E+03  0.25500000000E-02 0.  1.
    8880023    1    1    2    0    0 -0.16703717844E+03 -0.82539871771E+03  0.17320424852E+04  0.20354276796E+04  0.65864270000E+03 0.  0.
    8880022    1    1    2    0    0  0.16703717844E+03  0.82539871771E+03 -0.19194081150E+03  0.87716440324E+03  0.15294330000E+03 0.  0.
<mgrwt>
<rscale>  0 0.10112841E+04</rscale>
<asrwt>0</asrwt>
<pdfrwt beam="1">  1        2 0.34251490E+00 0.10691093E+04</pdfrwt>
<pdfrwt beam="2">  1       -2 0.10557619E+00 0.10691093E+04</pdfrwt>
<totfact> 0.36008390E+00</totfact>
</mgrwt>
</event>
<event>
 4    2  0.9070994E-007  0.1219263E+04  0.7818608E-02  0.9138621E-01
          2   -1    0    0  501    0  0.00000000000E+00  0.00000000000E+00  0.13974919625E+04  0.13974919625E+04  0.25500000000E-02 0. -1.
         -2   -1    0    0    0  501 -0.00000000000E+00 -0.00000000000E+00 -0.12813641187E+04  0.12813641187E+04  0.25500000000E-02 0.  1.
    8880023    1    1    2    0    0  0.38036966060E+03  0.95294885443E+03  0.77982782677E+03  0.14473196757E+04  0.65864270000E+03 0.  0.
    8880022    1    1    2    0    0 -0.38036966060E+03 -0.95294885443E+03 -0.66369998298E+03  0.12315364056E+04  0.15294330000E+03 0.  0.
<mgrwt>
<rscale>  0 0.11710055E+04</rscale>
<asrwt>0</asrwt>
<pdfrwt beam="1">  1        2 0.21499876E+00 0.12192632E+04</pdfrwt>
<pdfrwt beam="2">  1       -2 0.19713294E+00 0.12192632E+04</pdfrwt>
<totfact> 0.19529984E+00</totfact>
</mgrwt>
</event>
<event>
 4    2  0.9070994E-007  0.7802173E+03  0.7818608E-02  0.9755327E-01
          2   -1    0    0  501    0  0.00000000000E+00  0.00000000000E+00  0.10437301481E+04  0.10437301481E+04  0.25500000000E-02 0. -1.
         -2   -1    0    0    0  501 -0.00000000000E+00 -0.00000000000E+00 -0.54687344937E+03  0.54687344937E+03  0.25500000000E-02 0.  1.
    8880023    1    1    2    0    0 -0.11887199585E+03  0.40099659090E+03  0.74671758957E+03  0.10799658245E+04  0.65864270000E+03 0. -1.
    8880022    1    1    2    0    0  0.11887199585E+03 -0.40099659090E+03 -0.24986089088E+03  0.51063777291E+03  0.15294330000E+03 0.  0.
<mgrwt>
<rscale>  0 0.67816071E+03</rscale>
<asrwt>0</asrwt>
<pdfrwt beam="1">  1        2 0.16057387E+00 0.78021729E+03</pdfrwt>
<pdfrwt beam="2">  1       -2 0.84134378E-01 0.78021729E+03</pdfrwt>
<totfact> 0.29533314E+01</totfact>
</mgrwt>
</event>
<event>
 4    2  0.9070994E-007  0.7251128E+03  0.7818608E-02  0.9905651E-01
          2   -1    0    0  501    0  0.00000000000E+00  0.00000000000E+00  0.24648867881E+03  0.24648867882E+03  0.25500000000E-02 0. -1.
         -2   -1    0    0    0  501 -0.00000000000E+00 -0.00000000000E+00 -0.13142054015E+04  0.13142054015E+04  0.25500000000E-02 0.  1.
    8880023    1    1    2    0    0 -0.29442224020E+03  0.72758974551E+02 -0.44333106332E+03  0.84990055999E+03  0.65864270000E+03 0.  0.
    8880022    1    1    2    0    0  0.29442224020E+03 -0.72758974551E+02 -0.62438565933E+03  0.71079352030E+03  0.15294330000E+03 0.  0.
<mgrwt>
<rscale>  0 0.59988191E+03</rscale>
<asrwt>0</asrwt>
<pdfrwt beam="1">  1        2 0.37921336E-01 0.72511277E+03</pdfrwt>
<pdfrwt beam="2">  1       -2 0.20218544E+00 0.72511277E+03</pdfrwt>
<totfact> 0.17933990E+01</totfact>
</mgrwt>
</event>
<event>
 4    2  0.9070994E-007  0.7919714E+03  0.7818608E-02  0.9728432E-01
          2   -1    0    0  501    0  0.00000000000E+00  0.00000000000E+00  0.22973206393E+04  0.22973206393E+04  0.25500000000E-02 0. -1.
         -2   -1    0    0    0  501 -0.00000000000E+00 -0.00000000000E+00 -0.28845428259E+03  0.28845428260E+03  0.25500000000E-02 0.  1.
    8880023    1    1    2    0    0 -0.35195875785E+03 -0.26369223765E+03  0.19644001266E+04  0.21180383913E+04  0.65864270000E+03 0. -1.
    8880022    1    1    2    0    0  0.35195875785E+03  0.26369223765E+03  0.44466230111E+02  0.46773653060E+03  0.15294330000E+03 0.  0.
<mgrwt>
<rscale>  0 0.69348905E+03</rscale>
<asrwt>0</asrwt>
<pdfrwt beam="1">  1        2 0.35343395E+00 0.79197144E+03</pdfrwt>
<pdfrwt beam="2">  1       -2 0.44377581E-01 0.79197144E+03</pdfrwt>
<totfact> 0.22656140E+01</totfact>
</mgrwt>
</event>
<event>
 4    2  0.9070994E-007  0.8162122E+03  0.7818608E-02  0.9676779E-01
          2   -1    0    0  501    0  0.00000000000E+00  0.00000000000E+00  0.59695083302E+03  0.59695083302E+03  0.25500000000E-02 0. -1.
         -2   -1    0    0    0  501 -0.00000000000E+00 -0.00000000000E+00 -0.84006516169E+03  0.84006516170E+03  0.25500000000E-02 0.  1.
    8880023    1    1    2    0    0  0.10649915300E+03  0.47015966637E+03 -0.39800202896E+03  0.90807929323E+03  0.65864270000E+03 0.  1.
    8880022    1    1    2    0    0 -0.10649915300E+03 -0.47015966637E+03  0.15488770028E+03  0.52893670149E+03  0.15294330000E+03 0.  0.
<mgrwt>
<rscale>  0 0.72416321E+03</rscale>
<asrwt>0</asrwt>
<pdfrwt beam="1">  1        2 0.91838589E-01 0.81621222E+03</pdfrwt>
<pdfrwt beam="2">  1       -2 0.12924079E+00 0.81621222E+03</pdfrwt>
<totfact> 0.22164925E+01</totfact>
</mgrwt>
</event>
<event>
 4    2  0.9070994E-007  0.7471645E+03  0.7818608E-02  0.9839548E-01
          2   -1    0    0  501    0  0.00000000000E+00  0.00000000000E+00  0.37664649951E+03  0.37664649951E+03  0.25500000000E-02 0. -1.
         -2   -1    0    0    0  501 -0.00000000000E+00 -0.00000000000E+00 -0.11173018229E+04  0.11173018229E+04  0.25500000000E-02 0.  1.
    8880023    1    1    2    0    0 -0.40695829847E+01  0.35274361004E+03 -0.10984757232E+03  0.75519620718E+03  0.65864270000E+03 0. -1.
    8880022    1    1    2    0    0  0.40695829847E+01 -0.35274361004E+03 -0.63080775103E+03  0.73875211519E+03  0.15294330000E+03 0.  0.
<mgrwt>
<rscale>  0 0.63282672E+03</rscale>
<asrwt>0</asrwt>
<pdfrwt beam="1">  1        2 0.57945616E-01 0.74716452E+03</pdfrwt>
<pdfrwt beam="2">  1       -2 0.17189259E+00 0.74716452E+03</pdfrwt>
<totfact> 0.17846340E+01</totfact>
</mgrwt>
</event>
<event>
 4    2  0.9070994E-007  0.7486126E+03  0.7818608E-02  0.9835534E-01
          2   -1    0    0  501    0  0.00000000000E+00  0.00000000000E+00  0.12596622253E+04  0.12596622253E+04  0.25500000000E-02 0. -1.
         -2   -1    0    0    0  501 -0.00000000000E+00 -0.00000000000E+00 -0.26293790493E+03  0.26293790494E+03  0.25500000000E-02 0.  1.
    8880023    1    1    2    0    0  0.19800619592E+03  0.29564194770E+03  0.53601777191E+03  0.92072573165E+03  0.65864270000E+03 0.  1.
    8880022    1    1    2    0    0 -0.19800619592E+03 -0.29564194770E+03  0.46070654844E+03  0.60187439856E+03  0.15294330000E+03 0. -1.
<mgrwt>
<rscale>  0 0.63489963E+03</rscale>
<asrwt>0</asrwt>
<pdfrwt beam="1">  1        2 0.19379418E+00 0.74861260E+03</pdfrwt>
<pdfrwt beam="2">  1       -2 0.40451986E-01 0.74861260E+03</pdfrwt>
<totfact> 0.10257475E+02</totfact>
</mgrwt>
</event>
<event>
 4    2  0.9070994E-007  0.8700944E+03  0.7818608E-02  0.9575854E-01
          2   -1    0    0  501    0  0.00000000000E+00  0.00000000000E+00  0.35098067506E+04  0.35098067506E+04  0.25500000000E-02 0. -1.
         -2   -1    0    0    0  501 -0.00000000000E+00 -0.00000000000E+00 -0.20346258438E+03  0.20346258439E+03  0.25500000000E-02 0.  1.
    8880023    1    1    2    0    0  0.15503977950E+03 -0.54700707139E+03  0.28150404402E+04  0.29464414054E+04  0.65864270000E+03 0. -1.
    8880022    1    1    2    0    0 -0.15503977950E+03  0.54700707139E+03  0.49130372607E+03  0.76682792962E+03  0.15294330000E+03 0.  0.
<mgrwt>
<rscale>  0 0.78915173E+03</rscale>
<asrwt>0</asrwt>
<pdfrwt beam="1">  1        2 0.53997023E+00 0.87009441E+03</pdfrwt>
<pdfrwt beam="2">  1       -2 0.31301938E-01 0.87009441E+03</pdfrwt>
<totfact> 0.80149959E+00</totfact>
</mgrwt>
</event>
<event>
 4    2  0.9070994E-007  0.1402099E+04  0.7818608E-02  0.8982053E-01
          2   -1    0    0  501    0  0.00000000000E+00  0.00000000000E+00  0.25452406074E+04  0.25452406074E+04  0.25500000000E-02 0. -1.
         -2   -1    0    0    0  501 -0.00000000000E+00 -0.00000000000E+00 -0.15129964546E+04  0.15129964546E+04  0.25500000000E-02 0.  1.
    8880023    1    1    2    0    0  0.34728411951E+03 -0.11880509908E+04  0.20257951692E+04  0.24636817347E+04  0.65864270000E+03 0.  0.
    8880022    1    1    2    0    0 -0.34728411951E+03  0.11880509908E+04 -0.99355101637E+03  0.15945553272E+04  0.15294330000E+03 0.  0.
<mgrwt>
<rscale>  0 0.13616531E+04</rscale>
<asrwt>0</asrwt>
<pdfrwt beam="1">  1        2 0.39157548E+00 0.14020990E+04</pdfrwt>
<pdfrwt beam="2">  1       -2 0.23276869E+00 0.14020990E+04</pdfrwt>
<totfact> 0.25568106E-01</totfact>
</mgrwt>
</event>
<event>
 4    2  0.9070994E-007  0.7685527E+03  0.7818608E-02  0.9783448E-01
          2   -1    0    0  501    0  0.00000000000E+00  0.00000000000E+00  0.94690198934E+03  0.94690198935E+03  0.25500000000E-02 0. -1.
         -2   -1    0    0    0  501 -0.00000000000E+00 -0.00000000000E+00 -0.51047122937E+03  0.51047122937E+03  0.25500000000E-02 0.  1.
    8880023    1    1    2    0    0 -0.39256255799E+03  0.52513209126E+02  0.62712764302E+03  0.99194873152E+03  0.65864270000E+03 0.  0.
    8880022    1    1    2    0    0  0.39256255799E+03 -0.52513209126E+02 -0.19069688305E+03  0.46542448720E+03  0.15294330000E+03 0.  0.
<mgrwt>
<rscale>  0 0.66258414E+03</rscale>
<asrwt>0</asrwt>
<pdfrwt beam="1">  1        2 0.14567723E+00 0.76855267E+03</pdfrwt>
<pdfrwt beam="2">  1       -2 0.78534036E-01 0.76855267E+03</pdfrwt>
<totfact> 0.39840669E+01</totfact>
</mgrwt>
</event>
<event>
 4    2  0.9070994E-007  0.7581984E+03  0.7818608E-02  0.9809794E-01
         -2   -1    0    0    0  501 -0.00000000000E+00  0.00000000000E+00  0.65993687381E+03  0.65993687381E+03  0.25500000000E-02 0.  1.
          2   -1    0    0  501    0  0.00000000000E+00 -0.00000000000E+00 -0.25249464686E+04  0.25249464686E+04  0.25500000000E-02 0. -1.
    8880023    1    1    2    0    0  0.30310798205E+03  0.22176608811E+03 -0.23980883074E+04  0.25150929173E+04  0.65864270000E+03 0. -1.
    8880022    1    1    2    0    0 -0.30310798205E+03 -0.22176608811E+03  0.53307871261E+03  0.66979042504E+03  0.15294330000E+03 0.  0.
<mgrwt>
<rscale>  0 0.64839577E+03</rscale>
<asrwt>0</asrwt>
<pdfrwt beam="1">  1        2 0.38845330E+00 0.75819843E+03</pdfrwt>
<pdfrwt beam="2">  1       -2 0.10152875E+00 0.75819843E+03</pdfrwt>
<totfact> 0.28152956E+00</totfact>
</mgrwt>
</event>
<event>
 4    2  0.9070994E-007  0.6832718E+03  0.7818608E-02  0.1007530E+00
         -2   -1    0    0    0  501 -0.00000000000E+00  0.00000000000E+00  0.36832149535E+03  0.36832149536E+03  0.25500000000E-02 0.  1.
          2   -1    0    0  501    0  0.00000000000E+00 -0.00000000000E+00 -0.78394130802E+03  0.78394130802E+03  0.25500000000E-02 0. -1.
    8880023    1    1    2    0    0  0.41340931155E+02  0.17703399848E+03 -0.55194562307E+03  0.87835316718E+03  0.65864270000E+03 0.  0.
    8880022    1    1    2    0    0 -0.41340931155E+02 -0.17703399848E+03  0.13632581040E+03  0.27390963620E+03  0.15294330000E+03 0.  0.
<mgrwt>
<rscale>  0 0.52468081E+03</rscale>
<asrwt>0</asrwt>
<pdfrwt beam="1">  1        2 0.12060636E+00 0.68327177E+03</pdfrwt>
<pdfrwt beam="2">  1       -2 0.56664845E-01 0.68327177E+03</pdfrwt>
<totfact> 0.10509655E+02</totfact>
</mgrwt>
</event>
<event>
 4    2  0.9070994E-007  0.8924677E+03  0.7818608E-02  0.9538233E-01
         -2   -1    0    0    0  501 -0.00000000000E+00  0.00000000000E+00  0.47202494535E+03  0.47202494536E+03  0.25500000000E-02 0.  1.
          2   -1    0    0  501    0  0.00000000000E+00 -0.00000000000E+00 -0.13357052292E+04  0.13357052292E+04  0.25500000000E-02 0. -1.
    8880023    1    1    2    0    0 -0.47958930355E+03 -0.36425595800E+03 -0.23299408358E+03  0.92237993921E+03  0.65864270000E+03 0.  0.
    8880022    1    1    2    0    0  0.47958930355E+03  0.36425595800E+03 -0.63068620029E+03  0.88535023537E+03  0.15294330000E+03 0.  0.
<mgrwt>
<rscale>  0 0.81522787E+03</rscale>
<asrwt>0</asrwt>
<pdfrwt beam="1">  1        2 0.20549311E+00 0.89246765E+03</pdfrwt>
<pdfrwt beam="2">  1       -2 0.72619223E-01 0.89246765E+03</pdfrwt>
<totfact> 0.27193155E+01</totfact>
</mgrwt>
</event>
<event>
 4    2  0.9070994E-007  0.7540743E+03  0.7818608E-02  0.9820697E-01
         -2   -1    0    0    0  501 -0.00000000000E+00  0.00000000000E+00  0.19840595551E+03  0.19840595553E+03  0.25500000000E-02 0.  1.
          2   -1    0    0  501    0  0.00000000000E+00 -0.00000000000E+00 -0.18180662479E+04  0.18180662479E+04  0.25500000000E-02 0. -1.
    8880023    1    1    2    0    0 -0.14917794951E+03  0.33550528966E+03 -0.13133688951E+04  0.15144523501E+04  0.65864270000E+03 0. -1.
    8880022    1    1    2    0    0  0.14917794951E+03 -0.33550528966E+03 -0.30629139728E+03  0.50201985327E+03  0.15294330000E+03 0.  1.
<mgrwt>
<rscale>  0 0.64263546E+03</rscale>
<asrwt>0</asrwt>
<pdfrwt beam="1">  1        2 0.27970249E+00 0.75407431E+03</pdfrwt>
<pdfrwt beam="2">  1       -2 0.30523994E-01 0.75407431E+03</pdfrwt>
<totfact> 0.85635446E+01</totfact>
</mgrwt>
</event>
<event>
 4    2  0.9070994E-007  0.6700201E+03  0.7818608E-02  0.1015648E+00
         -2   -1    0    0    0  501 -0.00000000000E+00  0.00000000000E+00  0.11414162210E+04  0.11414162210E+04  0.25500000000E-02 0.  1.
          2   -1    0    0  501    0  0.00000000000E+00 -0.00000000000E+00 -0.42286334727E+03  0.42286334728E+03  0.25500000000E-02 0. -1.
    8880023    1    1    2    0    0  0.86609985562E+02  0.87266760447E+02 -0.13923273012E+03  0.68433379025E+03  0.65864270000E+03 0. -1.
    8880022    1    1    2    0    0 -0.86609985562E+02 -0.87266760447E+02  0.85778560387E+03  0.87994577804E+03  0.15294330000E+03 0.  0.
<mgrwt>
<rscale>  0 0.49290176E+03</rscale>
<asrwt>0</asrwt>
<pdfrwt beam="1">  1        2 0.65055900E-01 0.67002014E+03</pdfrwt>
<pdfrwt beam="2">  1       -2 0.17560250E+00 0.67002014E+03</pdfrwt>
<totfact> 0.14868088E+01</totfact>
</mgrwt>
</event>
<event>
 4    2  0.9070994E-007  0.7356133E+03  0.7818608E-02  0.9872915E-01
          2   -1    0    0  501    0  0.00000000000E+00  0.00000000000E+00  0.15099528940E+04  0.15099528940E+04  0.25500000000E-02 0. -1.
         -2   -1    0    0    0  501 -0.00000000000E+00 -0.00000000000E+00 -0.39999011093E+03  0.39999011093E+03  0.25500000000E-02 0.  1.
    8880023    1    1    2    0    0 -0.21515269514E+03  0.24703435261E+03  0.13058200328E+04  0.14987637632E+04  0.65864270000E+03 0. -1.
    8880022    1    1    2    0    0  0.21515269514E+03 -0.24703435261E+03 -0.19585724968E+03  0.41117924177E+03  0.15294330000E+03 0.  0.
<mgrwt>
<rscale>  0 0.61592107E+03</rscale>
<asrwt>0</asrwt>
<pdfrwt beam="1">  1        2 0.23230045E+00 0.73561325E+03</pdfrwt>
<pdfrwt beam="2">  1       -2 0.61536939E-01 0.73561325E+03</pdfrwt>
<totfact> 0.31526089E+01</totfact>
</mgrwt>
</event>
<event>
 4    2  0.9070994E-007  0.8831949E+03  0.7818608E-02  0.9553566E-01
         -2   -1    0    0    0  501 -0.00000000000E+00  0.00000000000E+00  0.67269016675E+03  0.67269016676E+03  0.25500000000E-02 0.  1.
          2   -1    0    0  501    0  0.00000000000E+00 -0.00000000000E+00 -0.13350487666E+04  0.13350487666E+04  0.25500000000E-02 0. -1.
    8880023    1    1    2    0    0 -0.23893826035E+03  0.53770945742E+03 -0.98210881552E+03  0.13208220488E+04  0.65864270000E+03 0. -1.
    8880022    1    1    2    0    0  0.23893826035E+03 -0.53770945742E+03  0.31975021566E+03  0.68691688455E+03  0.15294330000E+03 0.  0.
<mgrwt>
<rscale>  0 0.80447220E+03</rscale>
<asrwt>0</asrwt>
<pdfrwt beam="1">  1        2 0.20539212E+00 0.88319486E+03</pdfrwt>
<pdfrwt beam="2">  1       -2 0.10349079E+00 0.88319486E+03</pdfrwt>
<totfact> 0.12076070E+01</totfact>
</mgrwt>
</event>
<event>
 4    2  0.9070994E-007  0.6706530E+03  0.7818608E-02  0.1015199E+00
         -2   -1    0    0    0  501 -0.00000000000E+00  0.00000000000E+00  0.20760956350E+03  0.20760956352E+03  0.25500000000E-02 0.  1.
          2   -1    0    0  501    0  0.00000000000E+00 -0.00000000000E+00 -0.11632901604E+04  0.11632901604E+04  0.25500000000E-02 0. -1.
    8880023    1    1    2    0    0  0.12619437997E+03  0.63384302747E+01 -0.96166638542E+03  0.11724238314E+04  0.65864270000E+03 0. -1.
    8880022    1    1    2    0    0 -0.12619437997E+03 -0.63384302747E+01  0.59857885528E+01  0.19847589253E+03  0.15294330000E+03 0.  0.
<mgrwt>
<rscale>  0 0.49459638E+03</rscale>
<asrwt>0</asrwt>
<pdfrwt beam="1">  1        2 0.17896771E+00 0.67065297E+03</pdfrwt>
<pdfrwt beam="2">  1       -2 0.31939934E-01 0.67065297E+03</pdfrwt>
<totfact> 0.18477323E+02</totfact>
</mgrwt>
</event>
<event>
 4    2  0.9070994E-007  0.7499823E+03  0.7818608E-02  0.9831769E-01
          2   -1    0    0  501    0  0.00000000000E+00  0.00000000000E+00  0.31120680908E+04  0.31120680908E+04  0.25500000000E-02 0. -1.
         -2   -1    0    0    0  501 -0.00000000000E+00 -0.00000000000E+00 -0.17523591904E+03  0.17523591905E+03  0.25500000000E-02 0.  1.
    8880023    1    1    2    0    0 -0.23290003624E+02 -0.35793964939E+03  0.27582867625E+04  0.28584295142E+04  0.65864270000E+03 0. -1.
    8880022    1    1    2    0    0  0.23290003624E+02  0.35793964939E+03  0.17854540923E+03  0.42887449568E+03  0.15294330000E+03 0.  0.
<mgrwt>
<rscale>  0 0.63685167E+03</rscale>
<asrwt>0</asrwt>
<pdfrwt beam="1">  1        2 0.47877973E+00 0.74998228E+03</pdfrwt>
<pdfrwt beam="2">  1       -2 0.26959371E-01 0.74998228E+03</pdfrwt>
<totfact> 0.19628484E+01</totfact>
</mgrwt>
</event>
<event>
 4    2  0.9070994E-007  0.1153489E+04  0.7818608E-02  0.9203716E-01
          2   -1    0    0  501    0  0.00000000000E+00  0.00000000000E+00  0.15513905827E+04  0.15513905827E+04  0.25500000000E-02 0. -1.
         -2   -1    0    0    0  501 -0.00000000000E+00 -0.00000000000E+00 -0.75665578803E+03  0.75665578803E+03  0.25500000000E-02 0.  1.
    8880023    1    1    2    0    0  0.90768058148E+03 -0.26989281271E+03  0.68753277470E+03  0.13428468605E+04  0.65864270000E+03 0.  0.
    8880022    1    1    2    0    0 -0.90768058148E+03  0.26989281271E+03  0.10720201997E+03  0.96519951017E+03  0.15294330000E+03 0.  0.
<mgrwt>
<rscale>  0 0.11015151E+04</rscale>
<asrwt>0</asrwt>
<pdfrwt beam="1">  1        2 0.23867547E+00 0.11534888E+04</pdfrwt>
<pdfrwt beam="2">  1       -2 0.11640858E+00 0.11534888E+04</pdfrwt>
<totfact> 0.66574212E+00</totfact>
</mgrwt>
</event>
<event>
 4    2  0.9070994E-007  0.7013029E+03  0.7818608E-02  0.9991839E-01
         -2   -1    0    0    0  501 -0.00000000000E+00  0.00000000000E+00  0.25646523284E+03  0.25646523285E+03  0.25500000000E-02 0.  1.
          2   -1    0    0  501    0  0.00000000000E+00 -0.00000000000E+00 -0.22450575575E+04  0.22450575575E+04  0.25500000000E-02 0. -1.
    8880023    1    1    2    0    0 -0.15411594250E+03  0.18510492529E+03 -0.20854504048E+04  0.22002111613E+04  0.65864270000E+03 0. -1.
    8880022    1    1    2    0    0  0.15411594250E+03 -0.18510492529E+03  0.96858080153E+02  0.30131162906E+03  0.15294330000E+03 0.  0.
<mgrwt>
<rscale>  0 0.56009550E+03</rscale>
<asrwt>0</asrwt>
<pdfrwt beam="1">  1        2 0.34539346E+00 0.70130290E+03</pdfrwt>
<pdfrwt beam="2">  1       -2 0.39456191E-01 0.70130290E+03</pdfrwt>
<totfact> 0.30909531E+01</totfact>
</mgrwt>
</event>
<event>
 4    2  0.9070994E-007  0.6592276E+03  0.7818608E-02  0.1024962E+00
          2   -1    0    0  501    0  0.00000000000E+00  0.00000000000E+00  0.46707466010E+03  0.46707466011E+03  0.25500000000E-02 0. -1.
         -2   -1    0    0    0  501 -0.00000000000E+00 -0.00000000000E+00 -0.47314594072E+03  0.47314594073E+03  0.25500000000E-02 0.  1.
    8880023    1    1    2    0    0 -0.27534837937E+02 -0.35501271047E+01  0.19370215023E+03  0.68709642698E+03  0.65864270000E+03 0. -1.
    8880022    1    1    2    0    0  0.27534837937E+02  0.35501271047E+01 -0.19977343085E+03  0.25312417386E+03  0.15294330000E+03 0.  0.
<mgrwt>
<rscale>  0 0.45937682E+03</rscale>
<asrwt>0</asrwt>
<pdfrwt beam="1">  1        2 0.71857640E-01 0.65922756E+03</pdfrwt>
<pdfrwt beam="2">  1       -2 0.72791684E-01 0.65922756E+03</pdfrwt>
<totfact> 0.11543516E+02</totfact>
</mgrwt>
</event>
<event>
 4    2  0.9070994E-007  0.9415868E+03  0.7818608E-02  0.9462324E-01
          2   -1    0    0  501    0  0.00000000000E+00  0.00000000000E+00  0.15214235600E+04  0.15214235600E+04  0.25500000000E-02 0. -1.
         -2   -1    0    0    0  501 -0.00000000000E+00 -0.00000000000E+00 -0.46781460942E+03  0.46781460943E+03  0.25500000000E-02 0.  1.
    8880023    1    1    2    0    0  0.30688747771E+03  0.59882850054E+03  0.85328296143E+03  0.12706996166E+04  0.65864270000E+03 0. -1.
    8880022    1    1    2    0    0 -0.30688747771E+03 -0.59882850054E+03  0.20032598918E+03  0.71853855289E+03  0.15294330000E+03 0.  0.
<mgrwt>
<rscale>  0 0.87119465E+03</rscale>
<asrwt>0</asrwt>
<pdfrwt beam="1">  1        2 0.23406516E+00 0.94158680E+03</pdfrwt>
<pdfrwt beam="2">  1       -2 0.71971478E-01 0.94158680E+03</pdfrwt>
<totfact> 0.21664841E+01</totfact>
</mgrwt>
</event>
<event>
 4    2  0.9070994E-007  0.7170101E+03  0.7818608E-02  0.9932836E-01
         -2   -1    0    0    0  501 -0.00000000000E+00  0.00000000000E+00  0.24130812357E+03  0.24130812359E+03  0.25500000000E-02 0.  1.
          2   -1    0    0  501    0  0.00000000000E+00 -0.00000000000E+00 -0.15112218584E+04  0.15112218584E+04  0.25500000000E-02 0. -1.
    8880023    1    1    2    0    0 -0.16825185990E+02 -0.28286070837E+03 -0.12357790002E+04  0.14287243299E+04  0.65864270000E+03 0. -1.
    8880022    1    1    2    0    0  0.16825185990E+02  0.28286070837E+03 -0.34134734656E+02  0.32380565213E+03  0.15294330000E+03 0.  0.
<mgrwt>
<rscale>  0 0.58695986E+03</rscale>
<asrwt>0</asrwt>
<pdfrwt beam="1">  1        2 0.23249567E+00 0.71701009E+03</pdfrwt>
<pdfrwt beam="2">  1       -2 0.37124328E-01 0.71701009E+03</pdfrwt>
<totfact> 0.87470487E+01</totfact>
</mgrwt>
</event>
<event>
 4    2  0.9070994E-007  0.7916733E+03  0.7818608E-02  0.9729098E-01
         -2   -1    0    0    0  501 -0.00000000000E+00  0.00000000000E+00  0.25716687947E+03  0.25716687948E+03  0.25500000000E-02 0.  1.
          2   -1    0    0  501    0  0.00000000000E+00 -0.00000000000E+00 -0.16563854069E+04  0.16563854069E+04  0.25500000000E-02 0. -1.
    8880023    1    1    2    0    0  0.20406341186E+03 -0.38896596911E+03 -0.11183943532E+04  0.13702381314E+04  0.65864270000E+03 0.  0.
    8880022    1    1    2    0    0 -0.20406341186E+03  0.38896596911E+03 -0.28082417424E+03  0.54331415501E+03  0.15294330000E+03 0. -1.
<mgrwt>
<rscale>  0 0.69310431E+03</rscale>
<asrwt>0</asrwt>
<pdfrwt beam="1">  1        2 0.25482852E+00 0.79167330E+03</pdfrwt>
<pdfrwt beam="2">  1       -2 0.39564136E-01 0.79167330E+03</pdfrwt>
<totfact> 0.63829869E+01</totfact>
</mgrwt>
</event>
<event>
 4    2  0.9070994E-007  0.6964100E+03  0.7818608E-02  0.1001243E+00
          2   -1    0    0  501    0  0.00000000000E+00  0.00000000000E+00  0.53677718917E+03  0.53677718917E+03  0.25500000000E-02 0. -1.
         -2   -1    0    0    0  501 -0.00000000000E+00 -0.00000000000E+00 -0.57102097856E+03  0.57102097857E+03  0.25500000000E-02 0.  1.
    8880023    1    1    2    0    0  0.58095999802E+02  0.21863577979E+03  0.22440896284E+03  0.73167365558E+03  0.65864270000E+03 0. -1.
    8880022    1    1    2    0    0 -0.58095999802E+02 -0.21863577979E+03 -0.25865275223E+03  0.37612451217E+03  0.15294330000E+03 0.  0.
<mgrwt>
<rscale>  0 0.55108441E+03</rscale>
<asrwt>0</asrwt>
<pdfrwt beam="1">  1        2 0.82581106E-01 0.69641005E+03</pdfrwt>
<pdfrwt beam="2">  1       -2 0.87849381E-01 0.69641005E+03</pdfrwt>
<totfact> 0.64276218E+01</totfact>
</mgrwt>
</event>
<event>
 4    2  0.9070994E-007  0.7706300E+03  0.7818608E-02  0.9778326E-01
          2   -1    0    0  501    0  0.00000000000E+00  0.00000000000E+00  0.19026346884E+04  0.19026346884E+04  0.25500000000E-02 0. -1.
         -2   -1    0    0    0  501 -0.00000000000E+00 -0.00000000000E+00 -0.39878350600E+03  0.39878350600E+03  0.25500000000E-02 0.  1.
    8880023    1    1    2    0    0  0.14450238934E+03 -0.37306753063E+03  0.16721838046E+04  0.18412140575E+04  0.65864270000E+03 0. -1.
    8880022    1    1    2    0    0 -0.14450238934E+03  0.37306753063E+03 -0.16833262217E+03  0.46020413692E+03  0.15294330000E+03 0.  0.
<mgrwt>
<rscale>  0 0.66538762E+03</rscale>
<asrwt>0</asrwt>
<pdfrwt beam="1">  1        2 0.29271302E+00 0.77062996E+03</pdfrwt>
<pdfrwt beam="2">  1       -2 0.61351310E-01 0.77062996E+03</pdfrwt>
<totfact> 0.19240934E+01</totfact>
</mgrwt>
</event>
<event>
 4    2  0.9070994E-007  0.6822013E+03  0.7818608E-02  0.1008105E+00
         -2   -1    0    0    0  501 -0.00000000000E+00  0.00000000000E+00  0.25272170566E+04  0.25272170566E+04  0.25500000000E-02 0.  1.
          2   -1    0    0  501    0  0.00000000000E+00 -0.00000000000E+00 -0.68419643570E+03  0.68419643570E+03  0.25500000000E-02 0. -1.
    8880023    1    1    2    0    0 -0.74572576893E+02  0.16133000601E+03 -0.50684596158E+03  0.84987732944E+03  0.65864270000E+03 0. -1.
    8880022    1    1    2    0    0  0.74572576893E+02 -0.16133000601E+03  0.23498665824E+04  0.23615361628E+04  0.15294330000E+03 0.  0.
<mgrwt>
<rscale>  0 0.52234820E+03</rscale>
<asrwt>0</asrwt>
<pdfrwt beam="1">  1        2 0.10526099E+00 0.68220132E+03</pdfrwt>
<pdfrwt beam="2">  1       -2 0.38880263E+00 0.68220132E+03</pdfrwt>
<totfact> 0.39972651E-01</totfact>
</mgrwt>
</event>
<event>
 4    2  0.9070994E-007  0.8947859E+03  0.7818608E-02  0.9534454E-01
          2   -1    0    0  501    0  0.00000000000E+00  0.00000000000E+00  0.28832973938E+04  0.28832973938E+04  0.25500000000E-02 0. -1.
         -2   -1    0    0    0  501 -0.00000000000E+00 -0.00000000000E+00 -0.30833244392E+03  0.30833244393E+03  0.25500000000E-02 0.  1.
    8880023    1    1    2    0    0 -0.16812790309E+03  0.58186301938E+03  0.23714374771E+04  0.25346316259E+04  0.65864270000E+03 0. -1.
    8880022    1    1    2    0    0  0.16812790309E+03 -0.58186301938E+03  0.20352747279E+03  0.65699821181E+03  0.15294330000E+03 0.  0.
<mgrwt>
<rscale>  0 0.81790616E+03</rscale>
<asrwt>0</asrwt>
<pdfrwt beam="1">  1        2 0.44358423E+00 0.89478588E+03</pdfrwt>
<pdfrwt beam="2">  1       -2 0.47435759E-01 0.89478588E+03</pdfrwt>
<totfact> 0.89711073E+00</totfact>
</mgrwt>
</event>
<event>
 4    2  0.9070994E-007  0.7764299E+03  0.7818608E-02  0.9764291E-01
          2   -1    0    0  501    0  0.00000000000E+00  0.00000000000E+00  0.11910956811E+04  0.11910956811E+04  0.25500000000E-02 0. -1.
         -2   -1    0    0    0  501 -0.00000000000E+00 -0.00000000000E+00 -0.46605659356E+03  0.46605659357E+03  0.25500000000E-02 0.  1.
    8880023    1    1    2    0    0 -0.33497500240E+03  0.23837975711E+03  0.89666757558E+03  0.11861096527E+04  0.65864270000E+03 0. -1.
    8880022    1    1    2    0    0  0.33497500240E+03 -0.23837975711E+03 -0.17162848801E+03  0.47104262201E+03  0.15294330000E+03 0.  0.
<mgrwt>
<rscale>  0 0.67314607E+03</rscale>
<asrwt>0</asrwt>
<pdfrwt beam="1">  1        2 0.18324549E+00 0.77642989E+03</pdfrwt>
<pdfrwt beam="2">  1       -2 0.71701015E-01 0.77642989E+03</pdfrwt>
<totfact> 0.34347735E+01</totfact>
</mgrwt>
</event>
<event>
 4    2  0.9070994E-007  0.8938394E+03  0.7818608E-02  0.9535995E-01
         -2   -1    0    0    0  501 -0.00000000000E+00  0.00000000000E+00  0.68783400249E+03  0.68783400249E+03  0.25500000000E-02 0.  1.
          2   -1    0    0  501    0  0.00000000000E+00 -0.00000000000E+00 -0.13496615922E+04  0.13496615922E+04  0.25500000000E-02 0. -1.
    8880023    1    1    2    0    0  0.66965300930E+02 -0.60054506147E+03 -0.98938019454E+03  0.13333499533E+04  0.65864270000E+03 0.  0.
    8880022    1    1    2    0    0 -0.66965300930E+02  0.60054506147E+03  0.32755260480E+03  0.70414564141E+03  0.15294330000E+03 0.  0.
<mgrwt>
<rscale>  0 0.81681321E+03</rscale>
<asrwt>0</asrwt>
<pdfrwt beam="1">  1        2 0.20764024E+00 0.89383943E+03</pdfrwt>
<pdfrwt beam="2">  1       -2 0.10582062E+00 0.89383943E+03</pdfrwt>
<totfact> 0.11214653E+01</totfact>
</mgrwt>
</event>
<event>
 4    2  0.9070994E-007  0.8184800E+03  0.7818608E-02  0.9672177E-01
         -2   -1    0    0    0  501 -0.00000000000E+00  0.00000000000E+00  0.77143923013E+03  0.77143923014E+03  0.25500000000E-02 0.  1.
          2   -1    0    0  501    0  0.00000000000E+00 -0.00000000000E+00 -0.95496158777E+03  0.95496158777E+03  0.25500000000E-02 0. -1.
    8880023    1    1    2    0    0  0.85464182550E+02  0.47832538833E+03 -0.64264657750E+03  0.10406267984E+04  0.65864270000E+03 0. -1.
    8880022    1    1    2    0    0 -0.85464182550E+02 -0.47832538833E+03  0.45912421987E+03  0.68577401956E+03  0.15294330000E+03 0.  0.
<mgrwt>
<rscale>  0 0.72697811E+03</rscale>
<asrwt>0</asrwt>
<pdfrwt beam="1">  1        2 0.14691717E+00 0.81848000E+03</pdfrwt>
<pdfrwt beam="2">  1       -2 0.11868296E+00 0.81848000E+03</pdfrwt>
<totfact> 0.14840220E+01</totfact>
</mgrwt>
</event>
<event>
 4    2  0.9070994E-007  0.6994603E+03  0.7818608E-02  0.9999447E-01
          2   -1    0    0  501    0  0.00000000000E+00  0.00000000000E+00  0.17214862173E+03  0.17214862175E+03  0.25500000000E-02 0. -1.
         -2   -1    0    0    0  501 -0.00000000000E+00 -0.00000000000E+00 -0.16958096654E+04  0.16958096654E+04  0.25500000000E-02 0.  1.
    8880023    1    1    2    0    0 -0.96021230526E+02 -0.21497546031E+03 -0.13920135139E+04  0.15578659616E+04  0.65864270000E+03 0.  1.
    8880022    1    1    2    0    0  0.96021230526E+02  0.21497546031E+03 -0.13164752980E+03  0.31009232555E+03  0.15294330000E+03 0.  0.
<mgrwt>
<rscale>  0 0.55674473E+03</rscale>
<asrwt>0</asrwt>
<pdfrwt beam="1">  1        2 0.26484404E-01 0.69946031E+03</pdfrwt>
<pdfrwt beam="2">  1       -2 0.26089378E+00 0.69946031E+03</pdfrwt>
<totfact> 0.11685638E+01</totfact>
</mgrwt>
</event>
<event>
 4    2  0.9070994E-007  0.9538166E+03  0.7818608E-02  0.9444644E-01
         -2   -1    0    0    0  501 -0.00000000000E+00  0.00000000000E+00  0.69447771029E+03  0.69447771029E+03  0.25500000000E-02 0.  1.
          2   -1    0    0  501    0  0.00000000000E+00 -0.00000000000E+00 -0.15605414668E+04  0.15605414668E+04  0.25500000000E-02 0. -1.
    8880023    1    1    2    0    0 -0.67084475689E+03 -0.16100706880E+03 -0.11494626308E+04  0.14936634527E+04  0.65864270000E+03 0.  0.
    8880022    1    1    2    0    0  0.67084475689E+03  0.16100706880E+03  0.28339887432E+03  0.76135572437E+03  0.15294330000E+03 0.  0.
<mgrwt>
<rscale>  0 0.88490987E+03</rscale>
<asrwt>0</asrwt>
<pdfrwt beam="1">  1        2 0.24008330E+00 0.95381663E+03</pdfrwt>
<pdfrwt beam="2">  1       -2 0.10684273E+00 0.95381663E+03</pdfrwt>
<totfact> 0.82752598E+00</totfact>
</mgrwt>
</event>
<event>
 4    2  0.9070994E-007  0.9319042E+03  0.7818608E-02  0.9476642E-01
          2   -1    0    0  501    0  0.00000000000E+00  0.00000000000E+00  0.19470960989E+04  0.19470960989E+04  0.25500000000E-02 0. -1.
         -2   -1    0    0    0  501 -0.00000000000E+00 -0.00000000000E+00 -0.38733864417E+03  0.38733864418E+03  0.25500000000E-02 0.  1.
    8880023    1    1    2    0    0 -0.65925204400E+03  0.46864057823E+01  0.13213081358E+04  0.16168799015E+04  0.65864270000E+03 0.  0.
    8880022    1    1    2    0    0  0.65925204400E+03 -0.46864057823E+01  0.23844931888E+03  0.71755484153E+03  0.15294330000E+03 0.  0.
<mgrwt>
<rscale>  0 0.86027999E+03</rscale>
<asrwt>0</asrwt>
<pdfrwt beam="1">  1        2 0.29955325E+00 0.93190419E+03</pdfrwt>
<pdfrwt beam="2">  1       -2 0.59590559E-01 0.93190419E+03</pdfrwt>
<totfact> 0.18979081E+01</totfact>
</mgrwt>
</event>
<event>
 4    2  0.9070994E-007  0.1043481E+04  0.7818608E-02  0.9326759E-01
          2   -1    0    0  501    0  0.00000000000E+00  0.00000000000E+00  0.31897855014E+04  0.31897855014E+04  0.25500000000E-02 0. -1.
         -2   -1    0    0    0  501 -0.00000000000E+00 -0.00000000000E+00 -0.45058151176E+03  0.45058151177E+03  0.25500000000E-02 0.  1.
    8880023    1    1    2    0    0 -0.29801332233E+03 -0.75248293523E+03  0.26044955966E+04  0.28057530232E+04  0.65864270000E+03 0. -1.
    8880022    1    1    2    0    0  0.29801332233E+03  0.75248293523E+03  0.13470839303E+03  0.83461398998E+03  0.15294330000E+03 0.  0.
<mgrwt>
<rscale>  0 0.98356234E+03</rscale>
<asrwt>0</asrwt>
<pdfrwt beam="1">  1        2 0.49073623E+00 0.10434811E+04</pdfrwt>
<pdfrwt beam="2">  1       -2 0.69320232E-01 0.10434811E+04</pdfrwt>
<totfact> 0.25511341E+00</totfact>
</mgrwt>
</event>
<event>
 4    2  0.9070994E-007  0.9978081E+03  0.7818608E-02  0.9384431E-01
          2   -1    0    0  501    0  0.00000000000E+00  0.00000000000E+00  0.24943012073E+04  0.24943012073E+04  0.25500000000E-02 0. -1.
         -2   -1    0    0    0  501 -0.00000000000E+00 -0.00000000000E+00 -0.60931288818E+03  0.60931288819E+03  0.25500000000E-02 0.  1.
    8880023    1    1    2    0    0 -0.47626196068E+03 -0.57877917830E+03 -0.74011315469E+02  0.10005491859E+04  0.65864270000E+03 0.  1.
    8880022    1    1    2    0    0  0.47626196068E+03  0.57877917830E+03  0.19589996346E+04  0.21030649095E+04  0.15294330000E+03 0.  0.
<mgrwt>
<rscale>  0 0.93368103E+03</rscale>
<asrwt>0</asrwt>
<pdfrwt beam="1">  1        2 0.38373865E+00 0.99780810E+03</pdfrwt>
<pdfrwt beam="2">  1       -2 0.93740445E-01 0.99780810E+03</pdfrwt>
<totfact> 0.34041567E+00</totfact>
</mgrwt>
</event>
<event>
 4    2  0.9070994E-007  0.7862272E+03  0.7818608E-02  0.9741407E-01
          2   -1    0    0  501    0  0.00000000000E+00  0.00000000000E+00  0.29077944064E+03  0.29077944065E+03  0.25500000000E-02 0. -1.
         -2   -1    0    0    0  501 -0.00000000000E+00 -0.00000000000E+00 -0.15666979065E+04  0.15666979065E+04  0.25500000000E-02 0.  1.
    8880023    1    1    2    0    0 -0.40832044374E+03  0.13273070870E+03 -0.11344183249E+04  0.13802384460E+04  0.65864270000E+03 0.  0.
    8880022    1    1    2    0    0  0.40832044374E+03 -0.13273070870E+03 -0.14150014095E+03  0.47723890109E+03  0.15294330000E+03 0.  0.
<mgrwt>
<rscale>  0 0.68604038E+03</rscale>
<asrwt>0</asrwt>
<pdfrwt beam="1">  1        2 0.44735300E-01 0.78622721E+03</pdfrwt>
<pdfrwt beam="2">  1       -2 0.24103044E+00 0.78622721E+03</pdfrwt>
<totfact> 0.84744785E+00</totfact>
</mgrwt>
</event>
<event>
 4    2  0.9070994E-007  0.9177420E+03  0.7818608E-02  0.9498130E-01
          2   -1    0    0  501    0  0.00000000000E+00  0.00000000000E+00  0.16585792781E+04  0.16585792781E+04  0.25500000000E-02 0. -1.
         -2   -1    0    0    0  501 -0.00000000000E+00 -0.00000000000E+00 -0.59912939970E+03  0.59912939971E+03  0.25500000000E-02 0.  1.
    8880023    1    1    2    0    0 -0.13456126681E+03  0.62476674196E+03  0.12706906643E+04  0.15674518133E+04  0.65864270000E+03 0.  0.
    8880022    1    1    2    0    0  0.13456126681E+03 -0.62476674196E+03 -0.21124078590E+03  0.69025686453E+03  0.15294330000E+03 0.  0.
<mgrwt>
<rscale>  0 0.84421837E+03</rscale>
<asrwt>0</asrwt>
<pdfrwt beam="1">  1        2 0.25516604E+00 0.91774202E+03</pdfrwt>
<pdfrwt beam="2">  1       -2 0.92173754E-01 0.91774202E+03</pdfrwt>
<totfact> 0.10406938E+01</totfact>
</mgrwt>
</event>
<event>
 4    2  0.9070994E-007  0.7379505E+03  0.7818608E-02  0.9865958E-01
         -2   -1    0    0    0  501 -0.00000000000E+00  0.00000000000E+00  0.40355223812E+03  0.40355223813E+03  0.25500000000E-02 0.  1.
          2   -1    0    0  501    0  0.00000000000E+00 -0.00000000000E+00 -0.17688335153E+04  0.17688335153E+04  0.25500000000E-02 0. -1.
    8880023    1    1    2    0    0 -0.80646939203E+02  0.32288824785E+03 -0.15828149787E+04  0.17463889064E+04  0.65864270000E+03 0. -1.
    8880022    1    1    2    0    0  0.80646939203E+02 -0.32288824785E+03  0.21753370148E+03  0.42599684705E+03  0.15294330000E+03 0.  1.
<mgrwt>
<rscale>  0 0.61939862E+03</rscale>
<asrwt>0</asrwt>
<pdfrwt beam="1">  1        2 0.27212823E+00 0.73795051E+03</pdfrwt>
<pdfrwt beam="2">  1       -2 0.62084961E-01 0.73795051E+03</pdfrwt>
<totfact> 0.22288201E+01</totfact>
</mgrwt>
</event>
<event>
 4    2  0.9070994E-007  0.7169181E+03  0.7818608E-02  0.9933155E-01
          2   -1    0    0  501    0  0.00000000000E+00  0.00000000000E+00  0.16933882014E+04  0.16933882014E+04  0.25500000000E-02 0. -1.
         -2   -1    0    0    0  501 -0.00000000000E+00 -0.00000000000E+00 -0.17210908611E+03  0.17210908612E+03  0.25500000000E-02 0.  1.
    8880023    1    1    2    0    0 -0.12351511623E+03 -0.25476543048E+03  0.79147898282E+03  0.10679000866E+04  0.65864270000E+03 0.  0.
    8880022    1    1    2    0    0  0.12351511623E+03  0.25476543048E+03  0.72980013244E+03  0.79759720086E+03  0.15294330000E+03 0.  0.
<mgrwt>
<rscale>  0 0.58681005E+03</rscale>
<asrwt>0</asrwt>
<pdfrwt beam="1">  1        2 0.26052125E+00 0.71691814E+03</pdfrwt>
<pdfrwt beam="2">  1       -2 0.26478322E-01 0.71691814E+03</pdfrwt>
<totfact> 0.13058781E+02</totfact>
</mgrwt>
</event>
<event>
 4    2  0.9070994E-007  0.6947267E+03  0.7818608E-02  0.1001982E+00
          2   -1    0    0  501    0  0.00000000000E+00  0.00000000000E+00  0.36895793682E+03  0.36895793683E+03  0.25500000000E-02 0. -1.
         -2   -1    0    0    0  501 -0.00000000000E+00 -0.00000000000E+00 -0.13299483576E+04  0.13299483576E+04  0.25500000000E-02 0.  1.
    8880023    1    1    2    0    0  0.46329491430E+02  0.21607526432E+03  0.65262761559E+01  0.69475732466E+03  0.65864270000E+03 0. -1.
    8880022    1    1    2    0    0 -0.46329491430E+02 -0.21607526432E+03 -0.96751669695E+03  0.10041489698E+04  0.15294330000E+03 0.  0.
<mgrwt>
<rscale>  0 0.54789536E+03</rscale>
<asrwt>0</asrwt>
<pdfrwt beam="1">  1        2 0.56762760E-01 0.69472667E+03</pdfrwt>
<pdfrwt beam="2">  1       -2 0.20460744E+00 0.69472667E+03</pdfrwt>
<totfact> 0.11076478E+01</totfact>
</mgrwt>
</event>
<event>
 4    2  0.9070994E-007  0.9077850E+03  0.7818608E-02  0.9513648E-01
         -2   -1    0    0    0  501 -0.00000000000E+00  0.00000000000E+00  0.27031459790E+03  0.27031459791E+03  0.25500000000E-02 0.  1.
          2   -1    0    0  501    0  0.00000000000E+00 -0.00000000000E+00 -0.25779606861E+04  0.25779606861E+04  0.25500000000E-02 0. -1.
    8880023    1    1    2    0    0  0.49411321389E+03  0.38225052821E+03 -0.18442596659E+04  0.20555698129E+04  0.65864270000E+03 0.  0.
    8880022    1    1    2    0    0 -0.49411321389E+03 -0.38225052821E+03 -0.46338642237E+03  0.79270547110E+03  0.15294330000E+03 0.  0.
<mgrwt>
<rscale>  0 0.83285044E+03</rscale>
<asrwt>0</asrwt>
<pdfrwt beam="1">  1        2 0.39660932E+00 0.90778496E+03</pdfrwt>
<pdfrwt beam="2">  1       -2 0.41586863E-01 0.90778496E+03</pdfrwt>
<totfact> 0.17607392E+01</totfact>
</mgrwt>
</event>
<event>
 4    2  0.9070994E-007  0.7789155E+03  0.7818608E-02  0.9758391E-01
          2   -1    0    0  501    0  0.00000000000E+00  0.00000000000E+00  0.16268710717E+04  0.16268710717E+04  0.25500000000E-02 0. -1.
         -2   -1    0    0    0  501 -0.00000000000E+00 -0.00000000000E+00 -0.23186849151E+03  0.23186849153E+03  0.25500000000E-02 0.  1.
    8880023    1    1    2    0    0 -0.28805371993E+03  0.29987362687E+03  0.97837566990E+03  0.12505711876E+04  0.65864270000E+03 0.  0.
    8880022    1    1    2    0    0  0.28805371993E+03 -0.29987362687E+03  0.41662691024E+03  0.60816837554E+03  0.15294330000E+03 0.  0.
<mgrwt>
<rscale>  0 0.67644150E+03</rscale>
<asrwt>0</asrwt>
<pdfrwt beam="1">  1        2 0.25028787E+00 0.77891549E+03</pdfrwt>
<pdfrwt beam="2">  1       -2 0.35672074E-01 0.77891549E+03</pdfrwt>
<totfact> 0.81017796E+01</totfact>
</mgrwt>
</event>
<event>
 4    2  0.9070994E-007  0.1015990E+04  0.7818608E-02  0.9360931E-01
          2   -1    0    0  501    0  0.00000000000E+00  0.00000000000E+00  0.32672435091E+04  0.32672435091E+04  0.25500000000E-02 0. -1.
         -2   -1    0    0    0  501 -0.00000000000E+00 -0.00000000000E+00 -0.31483922686E+03  0.31483922687E+03  0.25500000000E-02 0.  1.
    8880023    1    1    2    0    0  0.74865616875E+03 -0.19477810899E+03  0.24362790846E+04  0.26396383379E+04  0.65864270000E+03 0. -1.
    8880022    1    1    2    0    0 -0.74865616875E+03  0.19477810899E+03  0.51612519765E+03  0.94244439804E+03  0.15294330000E+03 0.  0.
<mgrwt>
<rscale>  0 0.95361855E+03</rscale>
<asrwt>0</asrwt>
<pdfrwt beam="1">  1        2 0.50265286E+00 0.10159896E+04</pdfrwt>
<pdfrwt beam="2">  1       -2 0.48436803E-01 0.10159896E+04</pdfrwt>
<totfact> 0.48597566E+00</totfact>
</mgrwt>
</event>
<event>
 4    2  0.9070994E-007  0.6903194E+03  0.7818608E-02  0.1004001E+00
          2   -1    0    0  501    0  0.00000000000E+00  0.00000000000E+00  0.53500594774E+03  0.53500594775E+03  0.25500000000E-02 0. -1.
         -2   -1    0    0    0  501 -0.00000000000E+00 -0.00000000000E+00 -0.54607506596E+03  0.54607506596E+03  0.25500000000E-02 0.  1.
    8880023    1    1    2    0    0 -0.19646093227E+03  0.64294849562E+02  0.23098047759E+03  0.72793743748E+03  0.65864270000E+03 0. -1.
    8880022    1    1    2    0    0  0.19646093227E+03 -0.64294849562E+02 -0.24204959581E+03  0.35314357623E+03  0.15294330000E+03 0.  0.
<mgrwt>
<rscale>  0 0.53930089E+03</rscale>
<asrwt>0</asrwt>
<pdfrwt beam="1">  1        2 0.82308607E-01 0.69031944E+03</pdfrwt>
<pdfrwt beam="2">  1       -2 0.84011549E-01 0.69031944E+03</pdfrwt>
<totfact> 0.71473862E+01</totfact>
</mgrwt>
</event>
<event>
 4    2  0.9070994E-007  0.9860430E+03  0.7818608E-02  0.9400050E-01
         -2   -1    0    0    0  501 -0.00000000000E+00  0.00000000000E+00  0.84905160770E+03  0.84905160771E+03  0.25500000000E-02 0.  1.
          2   -1    0    0  501    0  0.00000000000E+00 -0.00000000000E+00 -0.95135154228E+03  0.95135154229E+03  0.25500000000E-02 0. -1.
    8880023    1    1    2    0    0  0.71922066900E+03  0.14557525530E+03 -0.28977337404E+03  0.10277399186E+04  0.65864270000E+03 0.  0.
    8880022    1    1    2    0    0 -0.71922066900E+03 -0.14557525530E+03  0.18747343946E+03  0.77266323142E+03  0.15294330000E+03 0.  0.
<mgrwt>
<rscale>  0 0.92071582E+03</rscale>
<asrwt>0</asrwt>
<pdfrwt beam="1">  1        2 0.14636178E+00 0.98604297E+03</pdfrwt>
<pdfrwt beam="2">  1       -2 0.13062332E+00 0.98604297E+03</pdfrwt>
<totfact> 0.11547143E+01</totfact>
</mgrwt>
</event>
<event>
 4    2  0.9070994E-007  0.9723591E+03  0.7818608E-02  0.9418649E-01
          2   -1    0    0  501    0  0.00000000000E+00  0.00000000000E+00  0.19705117793E+04  0.19705117793E+04  0.25500000000E-02 0. -1.
         -2   -1    0    0    0  501 -0.00000000000E+00 -0.00000000000E+00 -0.37708168324E+03  0.37708168325E+03  0.25500000000E-02 0.  1.
    8880023    1    1    2    0    0  0.16327074163E+03 -0.69642997928E+03  0.10839592719E+04  0.14561764867E+04  0.65864270000E+03 0.  0.
    8880022    1    1    2    0    0 -0.16327074163E+03  0.69642997928E+03  0.50947082419E+03  0.89141697585E+03  0.15294330000E+03 0. -1.
<mgrwt>
<rscale>  0 0.90556724E+03</rscale>
<asrwt>0</asrwt>
<pdfrwt beam="1">  1        2 0.30315566E+00 0.97235912E+03</pdfrwt>
<pdfrwt beam="2">  1       -2 0.58012567E-01 0.97235912E+03</pdfrwt>
<totfact> 0.19414178E+01</totfact>
</mgrwt>
</event>
<event>
 4    2  0.9070994E-007  0.1041792E+04  0.7818608E-02  0.9328814E-01
         -2   -1    0    0    0  501 -0.00000000000E+00  0.00000000000E+00  0.34687632171E+03  0.34687632172E+03  0.25500000000E-02 0.  1.
          2   -1    0    0  501    0  0.00000000000E+00 -0.00000000000E+00 -0.35440602245E+04  0.35440602245E+04  0.25500000000E-02 0. -1.
    8880023    1    1    2    0    0 -0.80320006429E+03  0.79934593489E+02 -0.27815627144E+04  0.29702560871E+04  0.65864270000E+03 0.  0.
    8880022    1    1    2    0    0  0.80320006429E+03 -0.79934593489E+02 -0.41562118833E+03  0.92068045907E+03  0.15294330000E+03 0.  0.
<mgrwt>
<rscale>  0 0.98172884E+03</rscale>
<asrwt>0</asrwt>
<pdfrwt beam="1">  1        2 0.54524001E+00 0.10417918E+04</pdfrwt>
<pdfrwt beam="2">  1       -2 0.53365590E-01 0.10417918E+04</pdfrwt>
<totfact> 0.25841764E+00</totfact>
</mgrwt>
</event>
<event>
 4    2  0.9070994E-007  0.1119044E+04  0.7818608E-02  0.9240143E-01
         -2   -1    0    0    0  501 -0.00000000000E+00  0.00000000000E+00  0.11391102552E+04  0.11391102552E+04  0.25500000000E-02 0.  1.
          2   -1    0    0  501    0  0.00000000000E+00 -0.00000000000E+00 -0.17795049884E+04  0.17795049884E+04  0.25500000000E-02 0. -1.
    8880023    1    1    2    0    0 -0.24541464082E+03 -0.87075931221E+03 -0.13537668602E+04  0.17564011625E+04  0.65864270000E+03 0. -1.
    8880022    1    1    2    0    0  0.24541464082E+03  0.87075931221E+03  0.71337212698E+03  0.11622140811E+04  0.15294330000E+03 0.  0.
<mgrwt>
<rscale>  0 0.10648521E+04</rscale>
<asrwt>0</asrwt>
<pdfrwt beam="1">  1        2 0.27377000E+00 0.11190444E+04</pdfrwt>
<pdfrwt beam="2">  1       -2 0.17524773E+00 0.11190444E+04</pdfrwt>
<totfact> 0.16988688E+00</totfact>
</mgrwt>
</event>
<event>
 4    2  0.9070994E-007  0.7156263E+03  0.7818608E-02  0.9937673E-01
          2   -1    0    0  501    0  0.00000000000E+00  0.00000000000E+00  0.28858739008E+04  0.28858739008E+04  0.25500000000E-02 0. -1.
         -2   -1    0    0    0  501 -0.00000000000E+00 -0.00000000000E+00 -0.20485373192E+03  0.20485373194E+03  0.25500000000E-02 0.  1.
    8880023    1    1    2    0    0 -0.67121731945E+02 -0.27167152817E+03  0.26778300770E+04  0.27718035417E+04  0.65864270000E+03 0.  0.
    8880022    1    1    2    0    0  0.67121731945E+02  0.27167152817E+03  0.31900918148E+01  0.31892409099E+03  0.15294330000E+03 0.  0.
<mgrwt>
<rscale>  0 0.58469732E+03</rscale>
<asrwt>0</asrwt>
<pdfrwt beam="1">  1        2 0.44398058E+00 0.71562627E+03</pdfrwt>
<pdfrwt beam="2">  1       -2 0.31515960E-01 0.71562627E+03</pdfrwt>
<totfact> 0.20343515E+01</totfact>
</mgrwt>
</event>
<event>
 4    2  0.9070994E-007  0.7109686E+03  0.7818608E-02  0.9954422E-01
         -2   -1    0    0    0  501 -0.00000000000E+00  0.00000000000E+00  0.30576682047E+03  0.30576682048E+03  0.25500000000E-02 0.  1.
          2   -1    0    0  501    0  0.00000000000E+00 -0.00000000000E+00 -0.19897542415E+04  0.19897542415E+04  0.25500000000E-02 0. -1.
    8880023    1    1    2    0    0 -0.62146885466E+01  0.26763316693E+03 -0.18234341961E+04  0.19571378613E+04  0.65864270000E+03 0. -1.
    8880022    1    1    2    0    0  0.62146885466E+01 -0.26763316693E+03  0.13944677509E+03  0.33838320066E+03  0.15294330000E+03 0.  0.
<mgrwt>
<rscale>  0 0.57694747E+03</rscale>
<asrwt>0</asrwt>
<pdfrwt beam="1">  1        2 0.30611603E+00 0.71096859E+03</pdfrwt>
<pdfrwt beam="2">  1       -2 0.47041051E-01 0.71096859E+03</pdfrwt>
<totfact> 0.30090727E+01</totfact>
</mgrwt>
</event>
<event>
 4    2  0.9070994E-007  0.7881762E+03  0.7818608E-02  0.9736970E-01
          2   -1    0    0  501    0  0.00000000000E+00  0.00000000000E+00  0.76879420652E+03  0.76879420652E+03  0.25500000000E-02 0. -1.
         -2   -1    0    0    0  501 -0.00000000000E+00 -0.00000000000E+00 -0.13209415795E+04  0.13209415795E+04  0.25500000000E-02 0.  1.
    8880023    1    1    2    0    0  0.28391724038E+03  0.32680666251E+03  0.50576083026E+03  0.93649122673E+03  0.65864270000E+03 0.  0.
    8880022    1    1    2    0    0 -0.28391724038E+03 -0.32680666251E+03 -0.10579082033E+04  0.11532445593E+04  0.15294330000E+03 0.  0.
<mgrwt>
<rscale>  0 0.68857646E+03</rscale>
<asrwt>0</asrwt>
<pdfrwt beam="1">  1        2 0.11827603E+00 0.78817625E+03</pdfrwt>
<pdfrwt beam="2">  1       -2 0.20322178E+00 0.78817625E+03</pdfrwt>
<totfact> 0.46784156E+00</totfact>
</mgrwt>
</event>
<event>
 4    2  0.9070994E-007  0.6771746E+03  0.7818608E-02  0.1010969E+00
          2   -1    0    0  501    0  0.00000000000E+00  0.00000000000E+00  0.31388154918E+04  0.31388154918E+04  0.25500000000E-02 0. -1.
         -2   -1    0    0    0  501 -0.00000000000E+00 -0.00000000000E+00 -0.32072487569E+03  0.32072487570E+03  0.25500000000E-02 0.  1.
    8880023    1    1    2    0    0  0.10756869137E+03 -0.11482269303E+03  0.30593636849E+04  0.31334121397E+04  0.65864270000E+03 0. -1.
    8880022    1    1    2    0    0 -0.10756869137E+03  0.11482269303E+03 -0.24127306885E+03  0.32612822779E+03  0.15294330000E+03 0.  0.
<mgrwt>
<rscale>  0 0.51091256E+03</rscale>
<asrwt>0</asrwt>
<pdfrwt beam="1">  1        2 0.48289471E+00 0.67717463E+03</pdfrwt>
<pdfrwt beam="2">  1       -2 0.49342287E-01 0.67717463E+03</pdfrwt>
<totfact> 0.60008585E+00</totfact>
</mgrwt>
</event>
<event>
 4    2  0.9070994E-007  0.7068547E+03  0.7818608E-02  0.9969871E-01
         -2   -1    0    0    0  501 -0.00000000000E+00  0.00000000000E+00  0.15985427387E+03  0.15985427389E+03  0.25500000000E-02 0.  1.
          2   -1    0    0  501    0  0.00000000000E+00 -0.00000000000E+00 -0.31579340603E+04  0.31579340603E+04  0.25500000000E-02 0. -1.
    8880023    1    1    2    0    0  0.12167841262E+03  0.22589328037E+03 -0.29264601648E+04  0.30106166665E+04  0.65864270000E+03 0.  0.
    8880022    1    1    2    0    0 -0.12167841262E+03 -0.22589328037E+03 -0.71619621623E+02  0.30717166768E+03  0.15294330000E+03 0.  0.
<mgrwt>
<rscale>  0 0.56991290E+03</rscale>
<asrwt>0</asrwt>
<pdfrwt beam="1">  1        2 0.48583596E+00 0.70685474E+03</pdfrwt>
<pdfrwt beam="2">  1       -2 0.24592968E-01 0.70685474E+03</pdfrwt>
<totfact> 0.21857064E+01</totfact>
</mgrwt>
</event>
<event>
 4    2  0.9070994E-007  0.9853500E+03  0.7818608E-02  0.9400980E-01
         -2   -1    0    0    0  501 -0.00000000000E+00  0.00000000000E+00  0.31798960757E+03  0.31798960758E+03  0.25500000000E-02 0.  1.
          2   -1    0    0  501    0  0.00000000000E+00 -0.00000000000E+00 -0.27678889973E+04  0.27678889973E+04  0.25500000000E-02 0. -1.
    8880023    1    1    2    0    0  0.50368529543E+03  0.53235842524E+03 -0.19524961007E+04  0.21870426606E+04  0.65864270000E+03 0.  0.
    8880022    1    1    2    0    0 -0.50368529543E+03 -0.53235842524E+03 -0.49740328899E+03  0.89883594424E+03  0.15294330000E+03 0.  0.
<mgrwt>
<rscale>  0 0.91995048E+03</rscale>
<asrwt>0</asrwt>
<pdfrwt beam="1">  1        2 0.42582906E+00 0.98534998E+03</pdfrwt>
<pdfrwt beam="2">  1       -2 0.48921480E-01 0.98534998E+03</pdfrwt>
<totfact> 0.97544245E+00</totfact>
</mgrwt>
</event>
<event>
 4    2  0.9070994E-007  0.9573004E+03  0.7818608E-02  0.9439687E-01
          2   -1    0    0  501    0  0.00000000000E+00  0.00000000000E+00  0.26490407035E+04  0.26490407035E+04  0.25500000000E-02 0. -1.
         -2   -1    0    0    0  501 -0.00000000000E+00 -0.00000000000E+00 -0.60632647207E+03  0.60632647208E+03  0.25500000000E-02 0.  1.
    8880023    1    1    2    0    0 -0.35816297287E+02 -0.69378029635E+03  0.23060436010E+04  0.24968502564E+04  0.65864270000E+03 0. -1.
    8880022    1    1    2    0    0  0.35816297287E+02  0.69378029635E+03 -0.26332936962E+03  0.75851691917E+03  0.15294330000E+03 0.  0.
<mgrwt>
<rscale>  0 0.88880318E+03</rscale>
<asrwt>0</asrwt>
<pdfrwt beam="1">  1        2 0.40754474E+00 0.95730043E+03</pdfrwt>
<pdfrwt beam="2">  1       -2 0.93280993E-01 0.95730043E+03</pdfrwt>
<totfact> 0.28203914E+00</totfact>
</mgrwt>
</event>
<event>
 4    2  0.9070994E-007  0.6862747E+03  0.7818608E-02  0.1005976E+00
         -2   -1    0    0    0  501 -0.00000000000E+00  0.00000000000E+00  0.10530492187E+03  0.10530492190E+03  0.25500000000E-02 0.  1.
          2   -1    0    0  501    0  0.00000000000E+00 -0.00000000000E+00 -0.23937498628E+04  0.23937498628E+04  0.25500000000E-02 0. -1.
    8880023    1    1    2    0    0 -0.42662897458E+02 -0.18799623340E+03 -0.20269708933E+04  0.21399962419E+04  0.65864270000E+03 0. -1.
    8880022    1    1    2    0    0  0.42662897458E+02  0.18799623340E+03 -0.26147404765E+03  0.35905854286E+03  0.15294330000E+03 0.  1.
<mgrwt>
<rscale>  0 0.53105763E+03</rscale>
<asrwt>0</asrwt>
<pdfrwt beam="1">  1        2 0.36826917E+00 0.68627466E+03</pdfrwt>
<pdfrwt beam="2">  1       -2 0.16200759E-01 0.68627466E+03</pdfrwt>
<totfact> 0.12841799E+02</totfact>
</mgrwt>
</event>
<event>
 4    2  0.9070994E-007  0.8678252E+03  0.7818608E-02  0.9579793E-01
         -2   -1    0    0    0  501 -0.00000000000E+00  0.00000000000E+00  0.38207069503E+03  0.38207069504E+03  0.25500000000E-02 0.  1.
          2   -1    0    0  501    0  0.00000000000E+00 -0.00000000000E+00 -0.19393627757E+04  0.19393627757E+04  0.25500000000E-02 0. -1.
    8880023    1    1    2    0    0  0.46357512202E+03  0.32312307166E+03 -0.15003612530E+04  0.17332641198E+04  0.65864270000E+03 0.  0.
    8880022    1    1    2    0    0 -0.46357512202E+03 -0.32312307166E+03 -0.56930827618E+02  0.58816935090E+03  0.15294330000E+03 0. -1.
<mgrwt>
<rscale>  0 0.78648201E+03</rscale>
<asrwt>0</asrwt>
<pdfrwt beam="1">  1        2 0.29836350E+00 0.86782522E+03</pdfrwt>
<pdfrwt beam="2">  1       -2 0.58780108E-01 0.86782522E+03</pdfrwt>
<totfact> 0.19870229E+01</totfact>
</mgrwt>
</event>
<event>
 4    2  0.9070994E-007  0.8054192E+03  0.7818608E-02  0.9699199E-01
          2   -1    0    0  501    0  0.00000000000E+00  0.00000000000E+00  0.90931702600E+03  0.90931702600E+03  0.25500000000E-02 0. -1.
         -2   -1    0    0    0  501 -0.00000000000E+00 -0.00000000000E+00 -0.76641942107E+03  0.76641942108E+03  0.25500000000E-02 0.  1.
    8880023    1    1    2    0    0  0.40476778244E+03 -0.22594900943E+03  0.60206455537E+03  0.10055753814E+04  0.65864270000E+03 0. -1.
    8880022    1    1    2    0    0 -0.40476778244E+03  0.22594900943E+03 -0.45916695045E+03  0.67016106569E+03  0.15294330000E+03 0.  0.
<mgrwt>
<rscale>  0 0.71064515E+03</rscale>
<asrwt>0</asrwt>
<pdfrwt beam="1">  1        2 0.13989493E+00 0.80541922E+03</pdfrwt>
<pdfrwt beam="2">  1       -2 0.11791068E+00 0.80541922E+03</pdfrwt>
<totfact> 0.16189527E+01</totfact>
</mgrwt>
</event>
<event>
 4    2  0.9070994E-007  0.7274030E+03  0.7818608E-02  0.9898289E-01
         -2   -1    0    0    0  501 -0.00000000000E+00  0.00000000000E+00  0.16262930092E+03  0.16262930094E+03  0.25500000000E-02 0.  1.
          2   -1    0    0  501    0  0.00000000000E+00 -0.00000000000E+00 -0.35311273095E+04  0.35311273095E+04  0.25500000000E-02 0. -1.
    8880023    1    1    2    0    0  0.14967762840E+03 -0.27000284023E+03 -0.32484835256E+04  0.33289278077E+04  0.65864270000E+03 0. -1.
    8880022    1    1    2    0    0 -0.14967762840E+03  0.27000284023E+03 -0.12001448291E+03  0.36482880273E+03  0.15294330000E+03 0.  0.
<mgrwt>
<rscale>  0 0.60344278E+03</rscale>
<asrwt>0</asrwt>
<pdfrwt beam="1">  1        2 0.54325030E+00 0.72740301E+03</pdfrwt>
<pdfrwt beam="2">  1       -2 0.25019895E-01 0.72740301E+03</pdfrwt>
<totfact> 0.12001584E+01</totfact>
</mgrwt>
</event>
<event>
 4    2  0.9070994E-007  0.8028210E+03  0.7818608E-02  0.9704729E-01
         -2   -1    0    0    0  501 -0.00000000000E+00  0.00000000000E+00  0.48964010051E+03  0.48964010052E+03  0.25500000000E-02 0.  1.
          2   -1    0    0  501    0  0.00000000000E+00 -0.00000000000E+00 -0.15275338892E+04  0.15275338892E+04  0.25500000000E-02 0. -1.
    8880023    1    1    2    0    0 -0.34095040433E+03  0.30735023728E+03 -0.12526320772E+04  0.14878201080E+04  0.65864270000E+03 0.  0.
    8880022    1    1    2    0    0  0.34095040433E+03 -0.30735023728E+03  0.21473828851E+03  0.52935388176E+03  0.15294330000E+03 0.  0.
<mgrwt>
<rscale>  0 0.70735905E+03</rscale>
<asrwt>0</asrwt>
<pdfrwt beam="1">  1        2 0.23500521E+00 0.80282100E+03</pdfrwt>
<pdfrwt beam="2">  1       -2 0.75329247E-01 0.80282100E+03</pdfrwt>
<totfact> 0.19717655E+01</totfact>
</mgrwt>
</event>
<event>
 4    2  0.9070994E-007  0.7652960E+03  0.7818608E-02  0.9791585E-01
         -2   -1    0    0    0  501 -0.00000000000E+00  0.00000000000E+00  0.78352872194E+03  0.78352872194E+03  0.25500000000E-02 0.  1.
          2   -1    0    0  501    0  0.00000000000E+00 -0.00000000000E+00 -0.53934659568E+03  0.53934659568E+03  0.25500000000E-02 0. -1.
    8880023    1    1    2    0    0 -0.30466296548E+03 -0.24299835185E+03 -0.11170747387E+03  0.77340577158E+03  0.65864270000E+03 0.  0.
    8880022    1    1    2    0    0  0.30466296548E+03  0.24299835185E+03  0.35588960012E+03  0.54946954604E+03  0.15294330000E+03 0.  0.
<mgrwt>
<rscale>  0 0.65816113E+03</rscale>
<asrwt>0</asrwt>
<pdfrwt beam="1">  1        2 0.82976399E-01 0.76529597E+03</pdfrwt>
<pdfrwt beam="2">  1       -2 0.12054288E+00 0.76529597E+03</pdfrwt>
<totfact> 0.29916755E+01</totfact>
</mgrwt>
</event>
<event>
 4    2  0.9070994E-007  0.7197700E+03  0.7818608E-02  0.9923365E-01
          2   -1    0    0  501    0  0.00000000000E+00  0.00000000000E+00  0.26597499681E+04  0.26597499681E+04  0.25500000000E-02 0. -1.
         -2   -1    0    0    0  501 -0.00000000000E+00 -0.00000000000E+00 -0.10321535692E+03  0.10321535695E+03  0.25500000000E-02 0.  1.
    8880023    1    1    2    0    0  0.28235087647E+03 -0.67354178795E+02  0.17454567709E+04  0.18880381744E+04  0.65864270000E+03 0.  0.
    8880022    1    1    2    0    0 -0.28235087647E+03  0.67354178795E+02  0.81107784027E+03  0.87492715059E+03  0.15294330000E+03 0. -1.
<mgrwt>
<rscale>  0 0.59142159E+03</rscale>
<asrwt>0</asrwt>
<pdfrwt beam="1">  1        2 0.40919228E+00 0.71976997E+03</pdfrwt>
<pdfrwt beam="2">  1       -2 0.15879287E-01 0.71976997E+03</pdfrwt>
<totfact> 0.93442884E+01</totfact>
</mgrwt>
</event>
<event>
 4    2  0.9070994E-007  0.6762522E+03  0.7818608E-02  0.1011528E+00
          2   -1    0    0  501    0  0.00000000000E+00  0.00000000000E+00  0.72157634107E+03  0.72157634108E+03  0.25500000000E-02 0. -1.
         -2   -1    0    0    0  501 -0.00000000000E+00 -0.00000000000E+00 -0.88094939369E+03  0.88094939370E+03  0.25500000000E-02 0.  1.
    8880023    1    1    2    0    0 -0.15307611279E+03 -0.86362542881E+01  0.54315783716E+03  0.86737392371E+03  0.65864270000E+03 0. -1.
    8880022    1    1    2    0    0  0.15307611279E+03  0.86362542881E+01 -0.70253088979E+03  0.73515181107E+03  0.15294330000E+03 0.  0.
<mgrwt>
<rscale>  0 0.50871723E+03</rscale>
<asrwt>0</asrwt>
<pdfrwt beam="1">  1        2 0.11101174E+00 0.67625224E+03</pdfrwt>
<pdfrwt beam="2">  1       -2 0.13553068E+00 0.67625224E+03</pdfrwt>
<totfact> 0.15741247E+01</totfact>
</mgrwt>
</event>
<event>
 4    2  0.9070994E-007  0.6868738E+03  0.7818608E-02  0.1005675E+00
          2   -1    0    0  501    0  0.00000000000E+00  0.00000000000E+00  0.14459296798E+04  0.14459296798E+04  0.25500000000E-02 0. -1.
         -2   -1    0    0    0  501 -0.00000000000E+00 -0.00000000000E+00 -0.24180148542E+03  0.24180148543E+03  0.25500000000E-02 0.  1.
    8880023    1    1    2    0    0 -0.11945432217E+03 -0.15400008886E+03  0.12588188770E+04  0.14340225012E+04  0.65864270000E+03 0. -1.
    8880022    1    1    2    0    0  0.11945432217E+03  0.15400008886E+03 -0.54690682610E+02  0.25370866409E+03  0.15294330000E+03 0.  0.
<mgrwt>
<rscale>  0 0.53230239E+03</rscale>
<asrwt>0</asrwt>
<pdfrwt beam="1">  1        2 0.22245072E+00 0.68687376E+03</pdfrwt>
<pdfrwt beam="2">  1       -2 0.37200229E-01 0.68687376E+03</pdfrwt>
<totfact> 0.95023926E+01</totfact>
</mgrwt>
</event>
<event>
 4    2  0.9070994E-007  0.8027555E+03  0.7818608E-02  0.9704869E-01
         -2   -1    0    0    0  501 -0.00000000000E+00  0.00000000000E+00  0.20830241979E+03  0.20830241980E+03  0.25500000000E-02 0.  1.
          2   -1    0    0  501    0  0.00000000000E+00 -0.00000000000E+00 -0.30714504472E+04  0.30714504472E+04  0.25500000000E-02 0. -1.
    8880023    1    1    2    0    0  0.56785150754E+02 -0.45539174736E+03 -0.26162842922E+04  0.27366694906E+04  0.65864270000E+03 0.  0.
    8880022    1    1    2    0    0 -0.56785150754E+02  0.45539174736E+03 -0.24686373516E+03  0.54308337635E+03  0.15294330000E+03 0.  0.
<mgrwt>
<rscale>  0 0.70727605E+03</rscale>
<asrwt>0</asrwt>
<pdfrwt beam="1">  1        2 0.47253081E+00 0.80275551E+03</pdfrwt>
<pdfrwt beam="2">  1       -2 0.32046528E-01 0.80275551E+03</pdfrwt>
<totfact> 0.14978246E+01</totfact>
</mgrwt>
</event>
<event>
 4    2  0.9070994E-007  0.7497596E+03  0.7818608E-02  0.9832379E-01
          2   -1    0    0  501    0  0.00000000000E+00  0.00000000000E+00  0.10274145456E+04  0.10274145456E+04  0.25500000000E-02 0. -1.
         -2   -1    0    0    0  501 -0.00000000000E+00 -0.00000000000E+00 -0.57906905668E+03  0.57906905669E+03  0.25500000000E-02 0.  1.
    8880023    1    1    2    0    0  0.26386402351E+03  0.24229107335E+03  0.78943446992E+03  0.10887360450E+04  0.65864270000E+03 0.  0.
    8880022    1    1    2    0    0 -0.26386402351E+03 -0.24229107335E+03 -0.34108898099E+03  0.51774755730E+03  0.15294330000E+03 0.  0.
<mgrwt>
<rscale>  0 0.63653482E+03</rscale>
<asrwt>0</asrwt>
<pdfrwt beam="1">  1        2 0.15806378E+00 0.74975956E+03</pdfrwt>
<pdfrwt beam="2">  1       -2 0.89087547E-01 0.74975956E+03</pdfrwt>
<totfact> 0.26608529E+01</totfact>
</mgrwt>
</event>
<event>
 4    2  0.9070994E-007  0.6862140E+03  0.7818608E-02  0.1006007E+00
          2   -1    0    0  501    0  0.00000000000E+00  0.00000000000E+00  0.55420278582E+03  0.55420278583E+03  0.25500000000E-02 0. -1.
         -2   -1    0    0    0  501 -0.00000000000E+00 -0.00000000000E+00 -0.10692102062E+04  0.10692102062E+04  0.25500000000E-02 0.  1.
    8880023    1    1    2    0    0  0.93389890765E+02  0.16839768920E+03  0.31694915248E+03  0.75587460928E+03  0.65864270000E+03 0. -1.
    8880022    1    1    2    0    0 -0.93389890765E+02 -0.16839768920E+03 -0.83195657289E+03  0.86753838279E+03  0.15294330000E+03 0.  0.
<mgrwt>
<rscale>  0 0.53093111E+03</rscale>
<asrwt>0</asrwt>
<pdfrwt beam="1">  1        2 0.85261967E-01 0.68621400E+03</pdfrwt>
<pdfrwt beam="2">  1       -2 0.16449388E+00 0.68621400E+03</pdfrwt>
<totfact> 0.13018886E+01</totfact>
</mgrwt>
</event>
<event>
 4    2  0.9070994E-007  0.6762120E+03  0.7818608E-02  0.1011553E+00
         -2   -1    0    0    0  501 -0.00000000000E+00  0.00000000000E+00  0.12210988439E+03  0.12210988442E+03  0.25500000000E-02 0.  1.
          2   -1    0    0  501    0  0.00000000000E+00 -0.00000000000E+00 -0.17467136066E+04  0.17467136066E+04  0.25500000000E-02 0. -1.
    8880023    1    1    2    0    0 -0.13564391506E+03 -0.71085517552E+02 -0.14113325885E+04  0.15649671895E+04  0.65864270000E+03 0.  0.
    8880022    1    1    2    0    0  0.13564391506E+03  0.71085517552E+02 -0.21327113369E+03  0.30385630153E+03  0.15294330000E+03 0.  0.
<mgrwt>
<rscale>  0 0.50862063E+03</rscale>
<asrwt>0</asrwt>
<pdfrwt beam="1">  1        2 0.26872515E+00 0.67621197E+03</pdfrwt>
<pdfrwt beam="2">  1       -2 0.18786137E-01 0.67621197E+03</pdfrwt>
<totfact> 0.22536997E+02</totfact>
</mgrwt>
</event>
<event>
 4    2  0.9070994E-007  0.6914558E+03  0.7818608E-02  0.1003468E+00
         -2   -1    0    0    0  501 -0.00000000000E+00  0.00000000000E+00  0.46402075004E+03  0.46402075005E+03  0.25500000000E-02 0.  1.
          2   -1    0    0  501    0  0.00000000000E+00 -0.00000000000E+00 -0.14325253265E+04  0.14325253265E+04  0.25500000000E-02 0. -1.
    8880023    1    1    2    0    0 -0.12564286193E+03 -0.16886320756E+03 -0.13016109128E+04  0.14738731581E+04  0.65864270000E+03 0. -1.
    8880022    1    1    2    0    0  0.12564286193E+03  0.16886320756E+03  0.33310633636E+03  0.42267291841E+03  0.15294330000E+03 0.  0.
<mgrwt>
<rscale>  0 0.54155296E+03</rscale>
<asrwt>0</asrwt>
<pdfrwt beam="1">  1        2 0.22038851E+00 0.69145580E+03</pdfrwt>
<pdfrwt beam="2">  1       -2 0.71387808E-01 0.69145580E+03</pdfrwt>
<totfact> 0.25420568E+01</totfact>
</mgrwt>
</event>
<event>
 4    2  0.9070994E-007  0.7279914E+03  0.7818608E-02  0.9896419E-01
          2   -1    0    0  501    0  0.00000000000E+00  0.00000000000E+00  0.14583288266E+04  0.14583288266E+04  0.25500000000E-02 0. -1.
         -2   -1    0    0    0  501 -0.00000000000E+00 -0.00000000000E+00 -0.19941423522E+03  0.19941423524E+03  0.25500000000E-02 0.  1.
    8880023    1    1    2    0    0  0.30529797310E+03  0.54355172323E+02  0.77862929459E+03  0.10659433014E+04  0.65864270000E+03 0.  0.
    8880022    1    1    2    0    0 -0.30529797310E+03 -0.54355172323E+02  0.48028529679E+03  0.59179976045E+03  0.15294330000E+03 0.  1.
<mgrwt>
<rscale>  0 0.60435172E+03</rscale>
<asrwt>0</asrwt>
<pdfrwt beam="1">  1        2 0.22435827E+00 0.72799144E+03</pdfrwt>
<pdfrwt beam="2">  1       -2 0.30679115E-01 0.72799144E+03</pdfrwt>
<totfact> 0.13414608E+02</totfact>
</mgrwt>
</event>
<event>
 4    2  0.9070994E-007  0.9470718E+03  0.7818608E-02  0.9454340E-01
          2   -1    0    0  501    0  0.00000000000E+00  0.00000000000E+00  0.85767070132E+03  0.85767070132E+03  0.25500000000E-02 0. -1.
         -2   -1    0    0    0  501 -0.00000000000E+00 -0.00000000000E+00 -0.10312066940E+04  0.10312066941E+04  0.25500000000E-02 0.  1.
    8880023    1    1    2    0    0  0.65212432153E+03  0.19459873000E+03  0.35741808062E+03  0.10122710541E+04  0.65864270000E+03 0. -1.
    8880022    1    1    2    0    0 -0.65212432153E+03 -0.19459873000E+03 -0.53095407335E+03  0.87660634122E+03  0.15294330000E+03 0.  0.
<mgrwt>
<rscale>  0 0.87735527E+03</rscale>
<asrwt>0</asrwt>
<pdfrwt beam="1">  1        2 0.13194934E+00 0.94707180E+03</pdfrwt>
<pdfrwt beam="2">  1       -2 0.15864718E+00 0.94707180E+03</pdfrwt>
<totfact> 0.80523892E+00</totfact>
</mgrwt>
</event>
<event>
 4    2  0.9070994E-007  0.1116174E+04  0.7818608E-02  0.9243258E-01
          2   -1    0    0  501    0  0.00000000000E+00  0.00000000000E+00  0.26818283875E+04  0.26818283875E+04  0.25500000000E-02 0. -1.
         -2   -1    0    0    0  501 -0.00000000000E+00 -0.00000000000E+00 -0.89431644884E+03  0.89431644884E+03  0.25500000000E-02 0.  1.
    8880023    1    1    2    0    0  0.72300742087E+03 -0.53786167712E+03  0.22795184778E+04  0.25381193059E+04  0.65864270000E+03 0. -1.
    8880022    1    1    2    0    0 -0.72300742087E+03  0.53786167712E+03 -0.49200653908E+03  0.10380255304E+04  0.15294330000E+03 0.  0.
<mgrwt>
<rscale>  0 0.10617874E+04</rscale>
<asrwt>0</asrwt>
<pdfrwt beam="1">  1        2 0.41258898E+00 0.11161743E+04</pdfrwt>
<pdfrwt beam="2">  1       -2 0.13758715E+00 0.11161743E+04</pdfrwt>
<totfact> 0.10151597E+00</totfact>
</mgrwt>
</event>
<event>
 4    2  0.9070994E-007  0.7821381E+03  0.7818608E-02  0.9750838E-01
          2   -1    0    0  501    0  0.00000000000E+00  0.00000000000E+00  0.12023579174E+04  0.12023579175E+04  0.25500000000E-02 0. -1.
         -2   -1    0    0    0  501 -0.00000000000E+00 -0.00000000000E+00 -0.15199855744E+04  0.15199855744E+04  0.25500000000E-02 0.  1.
    8880023    1    1    2    0    0 -0.42113350192E+03 -0.24008315456E+02  0.10349699436E+04  0.12972674420E+04  0.65864270000E+03 0. -1.
    8880022    1    1    2    0    0  0.42113350192E+03  0.24008315456E+02 -0.13525976006E+04  0.14250760498E+04  0.15294330000E+03 0.  0.
<mgrwt>
<rscale>  0 0.68068919E+03</rscale>
<asrwt>0</asrwt>
<pdfrwt beam="1">  1        2 0.18497814E+00 0.78213812E+03</pdfrwt>
<pdfrwt beam="2">  1       -2 0.23384394E+00 0.78213812E+03</pdfrwt>
<totfact> 0.15696176E+00</totfact>
</mgrwt>
</event>
<event>
 4    2  0.9070994E-007  0.6706012E+03  0.7818608E-02  0.1015236E+00
         -2   -1    0    0    0  501 -0.00000000000E+00  0.00000000000E+00  0.16226673879E+03  0.16226673881E+03  0.25500000000E-02 0.  1.
          2   -1    0    0  501    0  0.00000000000E+00 -0.00000000000E+00 -0.23085993146E+04  0.23085993146E+04  0.25500000000E-02 0. -1.
    8880023    1    1    2    0    0 -0.91198906914E+02 -0.87054390837E+02 -0.21699917940E+04  0.22712486213E+04  0.65864270000E+03 0. -1.
    8880022    1    1    2    0    0  0.91198906914E+02  0.87054390837E+02  0.23659218162E+02  0.19961743212E+03  0.15294330000E+03 0.  0.
<mgrwt>
<rscale>  0 0.49445848E+03</rscale>
<asrwt>0</asrwt>
<pdfrwt beam="1">  1        2 0.35516910E+00 0.67060116E+03</pdfrwt>
<pdfrwt beam="2">  1       -2 0.24964115E-01 0.67060116E+03</pdfrwt>
<totfact> 0.67352857E+01</totfact>
</mgrwt>
</event>
<event>
 4    2  0.9070994E-007  0.7576282E+03  0.7818608E-02  0.9811287E-01
         -2   -1    0    0    0  501 -0.00000000000E+00  0.00000000000E+00  0.28663036693E+03  0.28663036694E+03  0.25500000000E-02 0.  1.
          2   -1    0    0  501    0  0.00000000000E+00 -0.00000000000E+00 -0.13413606421E+04  0.13413606421E+04  0.25500000000E-02 0. -1.
    8880023    1    1    2    0    0  0.37363394850E+03 -0.24246671493E+02 -0.94053193523E+03  0.12077254473E+04  0.65864270000E+03 0. -1.
    8880022    1    1    2    0    0 -0.37363394850E+03  0.24246671493E+02 -0.11419833996E+03  0.42026556178E+03  0.15294330000E+03 0.  0.
<mgrwt>
<rscale>  0 0.64760320E+03</rscale>
<asrwt>0</asrwt>
<pdfrwt beam="1">  1        2 0.20636317E+00 0.75762816E+03</pdfrwt>
<pdfrwt beam="2">  1       -2 0.44096980E-01 0.75762816E+03</pdfrwt>
<totfact> 0.77580753E+01</totfact>
</mgrwt>
</event>
<event>
 4    2  0.9070994E-007  0.6659039E+03  0.7818608E-02  0.1018787E+00
          2   -1    0    0  501    0  0.00000000000E+00  0.00000000000E+00  0.16672958884E+04  0.16672958884E+04  0.25500000000E-02 0. -1.
         -2   -1    0    0    0  501 -0.00000000000E+00 -0.00000000000E+00 -0.11031904078E+03  0.11031904081E+03  0.25500000000E-02 0.  1.
    8880023    1    1    2    0    0 -0.11382997202E+02 -0.97407251128E+02  0.13253537848E+04  0.14832365308E+04  0.65864270000E+03 0. -1.
    8880022    1    1    2    0    0  0.11382997202E+02  0.97407251128E+02  0.23162306280E+03  0.29437839838E+03  0.15294330000E+03 0.  1.
<mgrwt>
<rscale>  0 0.48126951E+03</rscale>
<asrwt>0</asrwt>
<pdfrwt beam="1">  1        2 0.25650707E+00 0.66590386E+03</pdfrwt>
<pdfrwt beam="2">  1       -2 0.16972160E-01 0.66590386E+03</pdfrwt>
<totfact> 0.29682519E+02</totfact>
</mgrwt>
</event>
<event>
 4    2  0.9070994E-007  0.6713144E+03  0.7818608E-02  0.1014738E+00
         -2   -1    0    0    0  501 -0.00000000000E+00  0.00000000000E+00  0.22371148087E+03  0.22371148089E+03  0.25500000000E-02 0.  1.
          2   -1    0    0  501    0  0.00000000000E+00 -0.00000000000E+00 -0.15962682087E+04  0.15962682087E+04  0.25500000000E-02 0. -1.
    8880023    1    1    2    0    0  0.77283339232E+02  0.10430763158E+03 -0.14555343017E+04  0.16028858681E+04  0.65864270000E+03 0. -1.
    8880022    1    1    2    0    0 -0.77283339232E+02 -0.10430763158E+03  0.82977573893E+02  0.21709382145E+03  0.15294330000E+03 0.  0.
<mgrwt>
<rscale>  0 0.49634393E+03</rscale>
<asrwt>0</asrwt>
<pdfrwt beam="1">  1        2 0.24557972E+00 0.67131438E+03</pdfrwt>
<pdfrwt beam="2">  1       -2 0.34417152E-01 0.67131438E+03</pdfrwt>
<totfact> 0.91141564E+01</totfact>
</mgrwt>
</event>
<event>
 4    2  0.9070994E-007  0.7434152E+03  0.7818608E-02  0.9850108E-01
          2   -1    0    0  501    0  0.00000000000E+00  0.00000000000E+00  0.11567990201E+04  0.11567990201E+04  0.25500000000E-02 0. -1.
         -2   -1    0    0    0  501 -0.00000000000E+00 -0.00000000000E+00 -0.35995775633E+03  0.35995775634E+03  0.25500000000E-02 0.  1.
    8880023    1    1    2    0    0  0.70805576192E+01  0.34468224823E+03  0.85735117856E+03  0.11347762935E+04  0.65864270000E+03 0.  0.
    8880022    1    1    2    0    0 -0.70805576192E+01 -0.34468224823E+03 -0.60509914839E+02  0.38198048294E+03  0.15294330000E+03 0.  0.
<mgrwt>
<rscale>  0 0.62741402E+03</rscale>
<asrwt>0</asrwt>
<pdfrwt beam="1">  1        2 0.17796907E+00 0.74341522E+03</pdfrwt>
<pdfrwt beam="2">  1       -2 0.55378118E-01 0.74341522E+03</pdfrwt>
<totfact> 0.62695017E+01</totfact>
</mgrwt>
</event>
<event>
 4    2  0.9070994E-007  0.8375576E+03  0.7818608E-02  0.9634803E-01
         -2   -1    0    0    0  501 -0.00000000000E+00  0.00000000000E+00  0.10658818551E+04  0.10658818551E+04  0.25500000000E-02 0.  1.
          2   -1    0    0  501    0  0.00000000000E+00 -0.00000000000E+00 -0.13105762434E+04  0.13105762434E+04  0.25500000000E-02 0. -1.
    8880023    1    1    2    0    0 -0.17316382260E+03 -0.48755179338E+03 -0.10894014876E+04  0.13741536552E+04  0.65864270000E+03 0. -1.
    8880022    1    1    2    0    0  0.17316382260E+03  0.48755179338E+03  0.84470709923E+03  0.10023044434E+04  0.15294330000E+03 0.  0.
<mgrwt>
<rscale>  0 0.75034900E+03</rscale>
<asrwt>0</asrwt>
<pdfrwt beam="1">  1        2 0.20162711E+00 0.83755756E+03</pdfrwt>
<pdfrwt beam="2">  1       -2 0.16398182E+00 0.83755756E+03</pdfrwt>
<totfact> 0.38825501E+00</totfact>
</mgrwt>
</event>
<event>
 4    2  0.9070994E-007  0.7501685E+03  0.7818608E-02  0.9831259E-01
         -2   -1    0    0    0  501 -0.00000000000E+00  0.00000000000E+00  0.76026436765E+03  0.76026436765E+03  0.25500000000E-02 0.  1.
          2   -1    0    0  501    0  0.00000000000E+00 -0.00000000000E+00 -0.45095778927E+03  0.45095778928E+03  0.25500000000E-02 0. -1.
    8880023    1    1    2    0    0  0.14166679941E+03 -0.32995913670E+03  0.33180816493E+03  0.82027396553E+03  0.65864270000E+03 0.  1.
    8880022    1    1    2    0    0 -0.14166679941E+03  0.32995913670E+03 -0.22501586554E+02  0.39094819140E+03  0.15294330000E+03 0.  0.
<mgrwt>
<rscale>  0 0.63711637E+03</rscale>
<asrwt>0</asrwt>
<pdfrwt beam="1">  1        2 0.69378123E-01 0.75016846E+03</pdfrwt>
<pdfrwt beam="2">  1       -2 0.11696375E+00 0.75016846E+03</pdfrwt>
<totfact> 0.39707199E+01</totfact>
</mgrwt>
</event>
<event>
 4    2  0.9070994E-007  0.1426353E+04  0.7818608E-02  0.8963472E-01
          2   -1    0    0  501    0  0.00000000000E+00  0.00000000000E+00  0.22267395888E+04  0.22267395888E+04  0.25500000000E-02 0. -1.
         -2   -1    0    0    0  501 -0.00000000000E+00 -0.00000000000E+00 -0.11361587619E+04  0.11361587619E+04  0.25500000000E-02 0.  1.
    8880023    1    1    2    0    0  0.93021590552E+03 -0.85753749652E+03 -0.32009379946E+03  0.14618284563E+04  0.65864270000E+03 0.  0.
    8880022    1    1    2    0    0 -0.93021590552E+03  0.85753749652E+03  0.14106746264E+04  0.19010698944E+04  0.15294330000E+03 0.  0.
<mgrwt>
<rscale>  0 0.13867418E+04</rscale>
<asrwt>0</asrwt>
<pdfrwt beam="1">  1        2 0.34257532E+00 0.14263528E+04</pdfrwt>
<pdfrwt beam="2">  1       -2 0.17479366E+00 0.14263528E+04</pdfrwt>
<totfact> 0.93262463E-01</totfact>
</mgrwt>
</event>
<event>
 4    2  0.9070994E-007  0.6683496E+03  0.7818608E-02  0.1016875E+00
         -2   -1    0    0    0  501 -0.00000000000E+00  0.00000000000E+00  0.48377538385E+03  0.48377538386E+03  0.25500000000E-02 0.  1.
          2   -1    0    0  501    0  0.00000000000E+00 -0.00000000000E+00 -0.14144035106E+04  0.14144035106E+04  0.25500000000E-02 0. -1.
    8880023    1    1    2    0    0  0.10687882694E+03  0.38182322164E+02 -0.13117037625E+04  0.14721609763E+04  0.65864270000E+03 0.  0.
    8880022    1    1    2    0    0 -0.10687882694E+03 -0.38182322164E+02  0.38107563577E+03  0.42601791813E+03  0.15294330000E+03 0.  1.
<mgrwt>
<rscale>  0 0.48831509E+03</rscale>
<asrwt>0</asrwt>
<pdfrwt beam="1">  1        2 0.21760054E+00 0.66834959E+03</pdfrwt>
<pdfrwt beam="2">  1       -2 0.74426983E-01 0.66834959E+03</pdfrwt>
<totfact> 0.23813367E+01</totfact>
</mgrwt>
</event>
<event>
 4    2  0.9070994E-007  0.8812933E+03  0.7818608E-02  0.9556755E-01
         -2   -1    0    0    0  501 -0.00000000000E+00  0.00000000000E+00  0.30459182135E+03  0.30459182136E+03  0.25500000000E-02 0.  1.
          2   -1    0    0  501    0  0.00000000000E+00 -0.00000000000E+00 -0.20719649440E+04  0.20719649440E+04  0.25500000000E-02 0. -1.
    8880023    1    1    2    0    0  0.17756975885E+03  0.55797551513E+03 -0.14405717263E+04  0.16887642818E+04  0.65864270000E+03 0. -1.
    8880022    1    1    2    0    0 -0.17756975885E+03 -0.55797551513E+03 -0.32680139639E+03  0.68779248356E+03  0.15294330000E+03 0. -1.
<mgrwt>
<rscale>  0 0.80225779E+03</rscale>
<asrwt>0</asrwt>
<pdfrwt beam="1">  1        2 0.31876383E+00 0.88129331E+03</pdfrwt>
<pdfrwt beam="2">  1       -2 0.46860282E-01 0.88129331E+03</pdfrwt>
<totfact> 0.26765037E+01</totfact>
</mgrwt>
</event>
<event>
 4    2  0.9070994E-007  0.1113262E+04  0.7818608E-02  0.9246432E-01
          2   -1    0    0  501    0  0.00000000000E+00  0.00000000000E+00  0.19047215387E+04  0.19047215387E+04  0.25500000000E-02 0. -1.
         -2   -1    0    0    0  501 -0.00000000000E+00 -0.00000000000E+00 -0.63554622296E+03  0.63554622297E+03  0.25500000000E-02 0.  1.
    8880023    1    1    2    0    0  0.57811509777E+03  0.68653185386E+03  0.11850281478E+04  0.16259289560E+04  0.65864270000E+03 0. -1.
    8880022    1    1    2    0    0 -0.57811509777E+03 -0.68653185386E+03  0.84147167921E+02  0.91433880565E+03  0.15294330000E+03 0.  1.
<mgrwt>
<rscale>  0 0.10586763E+04</rscale>
<asrwt>0</asrwt>
<pdfrwt beam="1">  1        2 0.29303408E+00 0.11132624E+04</pdfrwt>
<pdfrwt beam="2">  1       -2 0.97776344E-01 0.11132624E+04</pdfrwt>
<totfact> 0.64904957E+00</totfact>
</mgrwt>
</event>
<event>
 4    2  0.9070994E-007  0.7815161E+03  0.7818608E-02  0.9752288E-01
         -2   -1    0    0    0  501 -0.00000000000E+00  0.00000000000E+00  0.73859407153E+03  0.73859407154E+03  0.25500000000E-02 0.  1.
          2   -1    0    0  501    0  0.00000000000E+00 -0.00000000000E+00 -0.14604968387E+04  0.14604968387E+04  0.25500000000E-02 0. -1.
    8880023    1    1    2    0    0  0.39668087724E+03 -0.14000520736E+03 -0.12701541719E+04  0.14913279328E+04  0.65864270000E+03 0.  0.
    8880022    1    1    2    0    0 -0.39668087724E+03  0.14000520736E+03  0.54825140473E+03  0.70776297746E+03  0.15294330000E+03 0.  0.
<mgrwt>
<rscale>  0 0.67987143E+03</rscale>
<asrwt>0</asrwt>
<pdfrwt beam="1">  1        2 0.22469182E+00 0.78151608E+03</pdfrwt>
<pdfrwt beam="2">  1       -2 0.11362986E+00 0.78151608E+03</pdfrwt>
<totfact> 0.82755397E+00</totfact>
</mgrwt>
</event>
<event>
 4    2  0.9070994E-007  0.1036749E+04  0.7818608E-02  0.9334983E-01
          2   -1    0    0  501    0  0.00000000000E+00  0.00000000000E+00  0.14157455878E+04  0.14157455878E+04  0.25500000000E-02 0. -1.
         -2   -1    0    0    0  501 -0.00000000000E+00 -0.00000000000E+00 -0.13500553944E+04  0.13500553945E+04  0.25500000000E-02 0.  1.
    8880023    1    1    2    0    0 -0.68550722064E+03 -0.41366504710E+03  0.10582264954E+04  0.14814494398E+04  0.65864270000E+03 0. -1.
    8880022    1    1    2    0    0  0.68550722064E+03  0.41366504710E+03 -0.99253630207E+03  0.12843515425E+04  0.15294330000E+03 0.  0.
<mgrwt>
<rscale>  0 0.97625106E+03</rscale>
<asrwt>0</asrwt>
<pdfrwt beam="1">  1        2 0.21780701E+00 0.10367493E+04</pdfrwt>
<pdfrwt beam="2">  1       -2 0.20770083E+00 0.10367493E+04</pdfrwt>
<totfact> 0.16606682E+00</totfact>
</mgrwt>
</event>
<event>
 4    2  0.9070994E-007  0.8513332E+03  0.7818608E-02  0.9609170E-01
         -2   -1    0    0    0  501 -0.00000000000E+00  0.00000000000E+00  0.37300452736E+03  0.37300452737E+03  0.25500000000E-02 0.  1.
          2   -1    0    0  501    0  0.00000000000E+00 -0.00000000000E+00 -0.15170854844E+04  0.15170854844E+04  0.25500000000E-02 0. -1.
    8880023    1    1    2    0    0  0.14872733315E+03  0.51849603306E+03 -0.99587011765E+03  0.13101623767E+04  0.65864270000E+03 0. -1.
    8880022    1    1    2    0    0 -0.14872733315E+03 -0.51849603306E+03 -0.14821083937E+03  0.57992763501E+03  0.15294330000E+03 0.  0.
<mgrwt>
<rscale>  0 0.76692215E+03</rscale>
<asrwt>0</asrwt>
<pdfrwt beam="1">  1        2 0.23339776E+00 0.85133317E+03</pdfrwt>
<pdfrwt beam="2">  1       -2 0.57385313E-01 0.85133317E+03</pdfrwt>
<totfact> 0.35754047E+01</totfact>
</mgrwt>
</event>
<event>
 4    2  0.9070994E-007  0.7224195E+03  0.7818608E-02  0.9914483E-01
          2   -1    0    0  501    0  0.00000000000E+00  0.00000000000E+00  0.15066837731E+04  0.15066837731E+04  0.25500000000E-02 0. -1.
         -2   -1    0    0    0  501 -0.00000000000E+00 -0.00000000000E+00 -0.49589080249E+03  0.49589080250E+03  0.25500000000E-02 0.  1.
    8880023    1    1    2    0    0 -0.26884818836E+03 -0.12569937461E+03  0.13471620301E+04  0.15286384212E+04  0.65864270000E+03 0. -1.
    8880022    1    1    2    0    0  0.26884818836E+03  0.12569937461E+03 -0.33636905955E+03  0.47393615435E+03  0.15294330000E+03 0.  0.
<mgrwt>
<rscale>  0 0.59564497E+03</rscale>
<asrwt>0</asrwt>
<pdfrwt beam="1">  1        2 0.23179750E+00 0.72241947E+03</pdfrwt>
<pdfrwt beam="2">  1       -2 0.76290894E-01 0.72241947E+03</pdfrwt>
<totfact> 0.19880144E+01</totfact>
</mgrwt>
</event>
<event>
 4    2  0.9070994E-007  0.1445285E+04  0.7818608E-02  0.8949271E-01
         -2   -1    0    0    0  501 -0.00000000000E+00  0.00000000000E+00  0.23335267567E+04  0.23335267567E+04  0.25500000000E-02 0.  1.
          2   -1    0    0  501    0  0.00000000000E+00 -0.00000000000E+00 -0.17844970192E+04  0.17844970192E+04  0.25500000000E-02 0. -1.
    8880023    1    1    2    0    0 -0.38603381407E+03  0.12271987861E+04 -0.12433115628E+04  0.19064817898E+04  0.65864270000E+03 0.  0.
    8880022    1    1    2    0    0  0.38603381407E+03 -0.12271987861E+04  0.17923413003E+04  0.22115419861E+04  0.15294330000E+03 0.  0.
<mgrwt>
<rscale>  0 0.14063003E+04</rscale>
<asrwt>0</asrwt>
<pdfrwt beam="1">  1        2 0.27453801E+00 0.14452852E+04</pdfrwt>
<pdfrwt beam="2">  1       -2 0.35900411E+00 0.14452852E+04</pdfrwt>
<totfact> 0.11373357E-01</totfact>
</mgrwt>
</event>
<event>
 4    2  0.9070994E-007  0.6867755E+03  0.7818608E-02  0.1005724E+00
          2   -1    0    0  501    0  0.00000000000E+00  0.00000000000E+00  0.96297791375E+03  0.96297791376E+03  0.25500000000E-02 0. -1.
         -2   -1    0    0    0  501 -0.00000000000E+00 -0.00000000000E+00 -0.39605347237E+03  0.39605347238E+03  0.25500000000E-02 0.  1.
    8880023    1    1    2    0    0 -0.53791624226E+02  0.18696752303E+03  0.77514120433E+03  0.10356179249E+04  0.65864270000E+03 0. -1.
    8880022    1    1    2    0    0  0.53791624226E+02 -0.18696752303E+03 -0.20821676295E+03  0.32341346121E+03  0.15294330000E+03 0.  0.
<mgrwt>
<rscale>  0 0.53209884E+03</rscale>
<asrwt>0</asrwt>
<pdfrwt beam="1">  1        2 0.14815045E+00 0.68677551E+03</pdfrwt>
<pdfrwt beam="2">  1       -2 0.60931303E-01 0.68677551E+03</pdfrwt>
<totfact> 0.68057101E+01</totfact>
</mgrwt>
</event>
<event>
 4    2  0.9070994E-007  0.7328145E+03  0.7818608E-02  0.9881395E-01
          2   -1    0    0  501    0  0.00000000000E+00  0.00000000000E+00  0.16428398704E+04  0.16428398704E+04  0.25500000000E-02 0. -1.
         -2   -1    0    0    0  501 -0.00000000000E+00 -0.00000000000E+00 -0.10796839747E+04  0.10796839747E+04  0.25500000000E-02 0.  1.
    8880023    1    1    2    0    0  0.39792636327E+02  0.31878422597E+03  0.15277422309E+04  0.16944064940E+04  0.65864270000E+03 0. -1.
    8880022    1    1    2    0    0 -0.39792636327E+02 -0.31878422597E+03 -0.96458633518E+03  0.10281173511E+04  0.15294330000E+03 0.  0.
<mgrwt>
<rscale>  0 0.61171495E+03</rscale>
<asrwt>0</asrwt>
<pdfrwt beam="1">  1        2 0.25274460E+00 0.73281447E+03</pdfrwt>
<pdfrwt beam="2">  1       -2 0.16610523E+00 0.73281447E+03</pdfrwt>
<totfact> 0.24802832E+00</totfact>
</mgrwt>
</event>
<event>
 4    2  0.9070994E-007  0.9780665E+03  0.7818608E-02  0.9410833E-01
          2   -1    0    0  501    0  0.00000000000E+00  0.00000000000E+00  0.11249312565E+04  0.11249312565E+04  0.25500000000E-02 0. -1.
         -2   -1    0    0    0  501 -0.00000000000E+00 -0.00000000000E+00 -0.87912428405E+03  0.87912428405E+03  0.25500000000E-02 0.  1.
    8880023    1    1    2    0    0  0.59964628719E+03 -0.40401499522E+03 -0.36632716140E+03  0.10444182982E+04  0.65864270000E+03 0.  0.
    8880022    1    1    2    0    0 -0.59964628719E+03  0.40401499522E+03  0.61213413383E+03  0.95963724236E+03  0.15294330000E+03 0.  0.
<mgrwt>
<rscale>  0 0.91189489E+03</rscale>
<asrwt>0</asrwt>
<pdfrwt beam="1">  1        2 0.17306635E+00 0.97806646E+03</pdfrwt>
<pdfrwt beam="2">  1       -2 0.13524989E+00 0.97806646E+03</pdfrwt>
<totfact> 0.82066390E+00</totfact>
</mgrwt>
</event>
<event>
 4    2  0.9070994E-007  0.8993830E+03  0.7818608E-02  0.9527023E-01
          2   -1    0    0  501    0  0.00000000000E+00  0.00000000000E+00  0.75926247670E+03  0.75926247671E+03  0.25500000000E-02 0. -1.
         -2   -1    0    0    0  501 -0.00000000000E+00 -0.00000000000E+00 -0.78565717401E+03  0.78565717402E+03  0.25500000000E-02 0.  1.
    8880023    1    1    2    0    0 -0.44626144458E+03  0.41944036431E+03  0.86959175571E+02  0.90357711382E+03  0.65864270000E+03 0.  1.
    8880022    1    1    2    0    0  0.44626144458E+03 -0.41944036431E+03 -0.11335387288E+03  0.64134253691E+03  0.15294330000E+03 0. -1.
<mgrwt>
<rscale>  0 0.82320519E+03</rscale>
<asrwt>0</asrwt>
<pdfrwt beam="1">  1        2 0.11680961E+00 0.89938296E+03</pdfrwt>
<pdfrwt beam="2">  1       -2 0.12087033E+00 0.89938296E+03</pdfrwt>
<totfact> 0.19268078E+01</totfact>
</mgrwt>
</event>
<event>
 4    2  0.9070994E-007  0.6613222E+03  0.7818608E-02  0.1022841E+00
         -2   -1    0    0    0  501 -0.00000000000E+00  0.00000000000E+00  0.54442541418E+03  0.54442541418E+03  0.25500000000E-02 0.  1.
          2   -1    0    0  501    0  0.00000000000E+00 -0.00000000000E+00 -0.34461281514E+03  0.34461281515E+03  0.25500000000E-02 0. -1.
    8880023    1    1    2    0    0  0.52749829106E+02  0.27465223040E+02  0.44054286197E+02  0.66278795202E+03  0.65864270000E+03 0. -1.
    8880022    1    1    2    0    0 -0.52749829106E+02 -0.27465223040E+02  0.15575831284E+03  0.22625027731E+03  0.15294330000E+03 0.  0.
<mgrwt>
<rscale>  0 0.46675226E+03</rscale>
<asrwt>0</asrwt>
<pdfrwt beam="1">  1        2 0.53017356E-01 0.66132223E+03</pdfrwt>
<pdfrwt beam="2">  1       -2 0.83757756E-01 0.66132223E+03</pdfrwt>
<totfact> 0.11880116E+02</totfact>
</mgrwt>
</event>
<event>
 4    2  0.9070994E-007  0.7584198E+03  0.7818608E-02  0.9809216E-01
          2   -1    0    0  501    0  0.00000000000E+00  0.00000000000E+00  0.23139760584E+04  0.23139760584E+04  0.25500000000E-02 0. -1.
         -2   -1    0    0    0  501 -0.00000000000E+00 -0.00000000000E+00 -0.41774880365E+03  0.41774880366E+03  0.25500000000E-02 0.  1.
    8880023    1    1    2    0    0 -0.16905631370E+03 -0.33587258474E+03  0.21315903118E+04  0.22624937334E+04  0.65864270000E+03 0. -1.
    8880022    1    1    2    0    0  0.16905631370E+03  0.33587258474E+03 -0.23536305707E+03  0.46923112858E+03  0.15294330000E+03 0.  0.
<mgrwt>
<rscale>  0 0.64870315E+03</rscale>
<asrwt>0</asrwt>
<pdfrwt beam="1">  1        2 0.35599631E+00 0.75841983E+03</pdfrwt>
<pdfrwt beam="2">  1       -2 0.64269048E-01 0.75841983E+03</pdfrwt>
<totfact> 0.10375188E+01</totfact>
</mgrwt>
</event>
<event>
 4    2  0.9070994E-007  0.6959221E+03  0.7818608E-02  0.1001456E+00
         -2   -1    0    0    0  501 -0.00000000000E+00  0.00000000000E+00  0.91542475391E+02  0.91542475426E+02  0.25500000000E-02 0.  1.
          2   -1    0    0  501    0  0.00000000000E+00 -0.00000000000E+00 -0.28803299817E+04  0.28803299817E+04  0.25500000000E-02 0. -1.
    8880023    1    1    2    0    0 -0.75594949436E+02  0.21161927111E+03 -0.23899679563E+04  0.24892276615E+04  0.65864270000E+03 0.  0.
    8880022    1    1    2    0    0  0.75594949436E+02 -0.21161927111E+03 -0.39881955007E+03  0.48264479570E+03  0.15294330000E+03 0.  0.
<mgrwt>
<rscale>  0 0.55016493E+03</rscale>
<asrwt>0</asrwt>
<pdfrwt beam="1">  1        2 0.44312762E+00 0.69592206E+03</pdfrwt>
<pdfrwt beam="2">  1       -2 0.14083460E-01 0.69592206E+03</pdfrwt>
<totfact> 0.85197857E+01</totfact>
</mgrwt>
</event>
<event>
 4    2  0.9070994E-007  0.7491580E+03  0.7818608E-02  0.9834031E-01
          2   -1    0    0  501    0  0.00000000000E+00  0.00000000000E+00  0.25071695073E+04  0.25071695073E+04  0.25500000000E-02 0. -1.
         -2   -1    0    0    0  501 -0.00000000000E+00 -0.00000000000E+00 -0.47670396097E+03  0.47670396098E+03  0.25500000000E-02 0.  1.
    8880023    1    1    2    0    0 -0.33480344557E+03  0.12383120411E+03  0.23590594093E+04  0.24751563621E+04  0.65864270000E+03 0. -1.
    8880022    1    1    2    0    0  0.33480344557E+03 -0.12383120411E+03 -0.32859386296E+03  0.50871710613E+03  0.15294330000E+03 0.  0.
<mgrwt>
<rscale>  0 0.63567793E+03</rscale>
<asrwt>0</asrwt>
<pdfrwt beam="1">  1        2 0.38571838E+00 0.74915801E+03</pdfrwt>
<pdfrwt beam="2">  1       -2 0.73339071E-01 0.74915801E+03</pdfrwt>
<totfact> 0.60745794E+00</totfact>
</mgrwt>
</event>
<event>
 4    2  0.9070994E-007  0.7852575E+03  0.7818608E-02  0.9743629E-01
          2   -1    0    0  501    0  0.00000000000E+00  0.00000000000E+00  0.82148522024E+03  0.82148522025E+03  0.25500000000E-02 0. -1.
         -2   -1    0    0    0  501 -0.00000000000E+00 -0.00000000000E+00 -0.74844140285E+03  0.74844140286E+03  0.25500000000E-02 0.  1.
    8880023    1    1    2    0    0 -0.28811128266E+03 -0.31592890184E+03  0.51273881124E+03  0.93783286199E+03  0.65864270000E+03 0. -1.
    8880022    1    1    2    0    0  0.28811128266E+03  0.31592890184E+03 -0.43969499385E+03  0.63209376112E+03  0.15294330000E+03 0.  1.
<mgrwt>
<rscale>  0 0.68477519E+03</rscale>
<asrwt>0</asrwt>
<pdfrwt beam="1">  1        2 0.12638234E+00 0.78525753E+03</pdfrwt>
<pdfrwt beam="2">  1       -2 0.11514483E+00 0.78525753E+03</pdfrwt>
<totfact> 0.19763574E+01</totfact>
</mgrwt>
</event>
<event>
 4    2  0.9070994E-007  0.7720071E+03  0.7818608E-02  0.9774959E-01
         -2   -1    0    0    0  501 -0.00000000000E+00  0.00000000000E+00  0.26932592370E+03  0.26932592371E+03  0.25500000000E-02 0.  1.
          2   -1    0    0  501    0  0.00000000000E+00 -0.00000000000E+00 -0.19479600345E+04  0.19479600345E+04  0.25500000000E-02 0. -1.
    8880023    1    1    2    0    0  0.36458815530E+03  0.17105629417E+03 -0.16039551779E+04  0.17800750540E+04  0.65864270000E+03 0. -1.
    8880022    1    1    2    0    0 -0.36458815530E+03 -0.17105629417E+03 -0.74678932886E+02  0.43721090425E+03  0.15294330000E+03 0.  1.
<mgrwt>
<rscale>  0 0.66723886E+03</rscale>
<asrwt>0</asrwt>
<pdfrwt beam="1">  1        2 0.29968615E+00 0.77200711E+03</pdfrwt>
<pdfrwt beam="2">  1       -2 0.41434759E-01 0.77200711E+03</pdfrwt>
<totfact> 0.40487478E+01</totfact>
</mgrwt>
</event>
<event>
 4    2  0.9070994E-007  0.6704583E+03  0.7818608E-02  0.1015336E+00
          2   -1    0    0  501    0  0.00000000000E+00  0.00000000000E+00  0.13873098070E+04  0.13873098070E+04  0.25500000000E-02 0. -1.
         -2   -1    0    0    0  501 -0.00000000000E+00 -0.00000000000E+00 -0.26008800060E+03  0.26008800061E+03  0.25500000000E-02 0.  1.
    8880023    1    1    2    0    0 -0.11879627848E+03 -0.39894101839E+02  0.12472925890E+04  0.14160695971E+04  0.65864270000E+03 0. -1.
    8880022    1    1    2    0    0  0.11879627848E+03  0.39894101839E+02 -0.12007078254E+03  0.23132821051E+03  0.15294330000E+03 0.  0.
<mgrwt>
<rscale>  0 0.49407742E+03</rscale>
<asrwt>0</asrwt>
<pdfrwt beam="1">  1        2 0.21343228E+00 0.67045828E+03</pdfrwt>
<pdfrwt beam="2">  1       -2 0.40013539E-01 0.67045828E+03</pdfrwt>
<totfact> 0.89171794E+01</totfact>
</mgrwt>
</event>
<event>
 4    2  0.9070994E-007  0.6700008E+03  0.7818608E-02  0.1015662E+00
          2   -1    0    0  501    0  0.00000000000E+00  0.00000000000E+00  0.78957312953E+03  0.78957312954E+03  0.25500000000E-02 0. -1.
         -2   -1    0    0    0  501 -0.00000000000E+00 -0.00000000000E+00 -0.40879377477E+03  0.40879377478E+03  0.25500000000E-02 0.  1.
    8880023    1    1    2    0    0  0.65313274384E+02  0.10404349279E+03  0.60339037287E+03  0.90165460157E+03  0.65864270000E+03 0. -1.
    8880022    1    1    2    0    0 -0.65313274384E+02 -0.10404349279E+03 -0.22261101810E+03  0.29671230274E+03  0.15294330000E+03 0.  0.
<mgrwt>
<rscale>  0 0.49284963E+03</rscale>
<asrwt>0</asrwt>
<pdfrwt beam="1">  1        2 0.12147279E+00 0.67000080E+03</pdfrwt>
<pdfrwt beam="2">  1       -2 0.62891351E-01 0.67000080E+03</pdfrwt>
<totfact> 0.83666211E+01</totfact>
</mgrwt>
</event>
<event>
 4    2  0.9070994E-007  0.7463688E+03  0.7818608E-02  0.9841769E-01
         -2   -1    0    0    0  501 -0.00000000000E+00  0.00000000000E+00  0.23483985356E+03  0.23483985357E+03  0.25500000000E-02 0.  1.
          2   -1    0    0  501    0  0.00000000000E+00 -0.00000000000E+00 -0.20656861743E+04  0.20656861743E+04  0.25500000000E-02 0. -1.
    8880023    1    1    2    0    0 -0.28146613169E+03 -0.20984034452E+03 -0.17591369119E+04  0.19109236077E+04  0.65864270000E+03 0. -1.
    8880022    1    1    2    0    0  0.28146613169E+03  0.20984034452E+03 -0.71709408887E+02  0.38960242019E+03  0.15294330000E+03 0.  0.
<mgrwt>
<rscale>  0 0.63168352E+03</rscale>
<asrwt>0</asrwt>
<pdfrwt beam="1">  1        2 0.31779786E+00 0.74636878E+03</pdfrwt>
<pdfrwt beam="2">  1       -2 0.36129210E-01 0.74636878E+03</pdfrwt>
<totfact> 0.45681898E+01</totfact>
</mgrwt>
</event>
<event>
 4    2  0.9070994E-007  0.7756411E+03  0.7818608E-02  0.9766178E-01
         -2   -1    0    0    0  501 -0.00000000000E+00  0.00000000000E+00  0.31116882173E+03  0.31116882174E+03  0.25500000000E-02 0.  1.
          2   -1    0    0  501    0  0.00000000000E+00 -0.00000000000E+00 -0.25120765643E+04  0.25120765643E+04  0.25500000000E-02 0. -1.
    8880023    1    1    2    0    0 -0.17217977061E+03 -0.37170283616E+03 -0.22531044969E+04  0.23828761932E+04  0.65864270000E+03 0.  0.
    8880022    1    1    2    0    0  0.17217977061E+03  0.37170283616E+03  0.52196754352E+02  0.44036919283E+03  0.15294330000E+03 0.  0.
<mgrwt>
<rscale>  0 0.67209666E+03</rscale>
<asrwt>0</asrwt>
<pdfrwt beam="1">  1        2 0.38647330E+00 0.77564108E+03</pdfrwt>
<pdfrwt beam="2">  1       -2 0.47872128E-01 0.77564108E+03</pdfrwt>
<totfact> 0.14775204E+01</totfact>
</mgrwt>
</event>
<event>
 4    2  0.9070994E-007  0.6716138E+03  0.7818608E-02  0.1014531E+00
         -2   -1    0    0    0  501 -0.00000000000E+00  0.00000000000E+00  0.44805080979E+03  0.44805080980E+03  0.25500000000E-02 0.  1.
          2   -1    0    0  501    0  0.00000000000E+00 -0.00000000000E+00 -0.52479223019E+03  0.52479223020E+03  0.25500000000E-02 0. -1.
    8880023    1    1    2    0    0  0.87159605271E+02  0.98275432223E+02 -0.24022071519E+03  0.71328189073E+03  0.65864270000E+03 0. -1.
    8880022    1    1    2    0    0 -0.87159605271E+02 -0.98275432223E+02  0.16347929479E+03  0.25956114927E+03  0.15294330000E+03 0.  0.
<mgrwt>
<rscale>  0 0.49712729E+03</rscale>
<asrwt>0</asrwt>
<pdfrwt beam="1">  1        2 0.80737266E-01 0.67161378E+03</pdfrwt>
<pdfrwt beam="2">  1       -2 0.68930894E-01 0.67161378E+03</pdfrwt>
<totfact> 0.11357176E+02</totfact>
</mgrwt>
</event>
<event>
 4    2  0.9070994E-007  0.9316759E+03  0.7818608E-02  0.9476984E-01
          2   -1    0    0  501    0  0.00000000000E+00  0.00000000000E+00  0.31155579714E+04  0.31155579714E+04  0.25500000000E-02 0. -1.
         -2   -1    0    0    0  501 -0.00000000000E+00 -0.00000000000E+00 -0.27913402046E+03  0.27913402047E+03  0.25500000000E-02 0.  1.
    8880023    1    1    2    0    0 -0.44102589617E+03 -0.48959779505E+03  0.24372068700E+04  0.26092139382E+04  0.65864270000E+03 0.  0.
    8880022    1    1    2    0    0  0.44102589617E+03  0.48959779505E+03  0.39921708093E+03  0.78547805363E+03  0.15294330000E+03 0.  0.
<mgrwt>
<rscale>  0 0.86002205E+03</rscale>
<asrwt>0</asrwt>
<pdfrwt beam="1">  1        2 0.47931661E+00 0.93167594E+03</pdfrwt>
<pdfrwt beam="2">  1       -2 0.42943695E-01 0.93167594E+03</pdfrwt>
<totfact> 0.78346069E+00</totfact>
</mgrwt>
</event>
<event>
 4    2  0.9070994E-007  0.8561411E+03  0.7818608E-02  0.9600465E-01
         -2   -1    0    0    0  501 -0.00000000000E+00  0.00000000000E+00  0.21384031537E+03  0.21384031539E+03  0.25500000000E-02 0.  1.
          2   -1    0    0  501    0  0.00000000000E+00 -0.00000000000E+00 -0.28234878259E+04  0.28234878259E+04  0.25500000000E-02 0. -1.
    8880023    1    1    2    0    0  0.53845255426E+03 -0.96105492303E+02 -0.92911713126E+03  0.12634224427E+04  0.65864270000E+03 0.  0.
    8880022    1    1    2    0    0 -0.53845255426E+03  0.96105492303E+02 -0.16805303793E+04  0.17739056986E+04  0.15294330000E+03 0.  0.
<mgrwt>
<rscale>  0 0.77265421E+03</rscale>
<asrwt>0</asrwt>
<pdfrwt beam="1">  1        2 0.43438272E+00 0.85614112E+03</pdfrwt>
<pdfrwt beam="2">  1       -2 0.32898512E-01 0.85614112E+03</pdfrwt>
<totfact> 0.20010144E+01</totfact>
</mgrwt>
</event>
<event>
 4    2  0.9070994E-007  0.6590227E+03  0.7818608E-02  0.1025181E+00
         -2   -1    0    0    0  501 -0.00000000000E+00  0.00000000000E+00  0.99301127917E+03  0.99301127918E+03  0.25500000000E-02 0.  1.
          2   -1    0    0  501    0  0.00000000000E+00 -0.00000000000E+00 -0.18218538422E+03  0.18218538424E+03  0.25500000000E-02 0. -1.
    8880023    1    1    2    0    0 -0.21891080573E+02 -0.46347460594E+01  0.49717483158E+03  0.82552632890E+03  0.65864270000E+03 0. -1.
    8880022    1    1    2    0    0  0.21891080573E+02  0.46347460594E+01  0.31365106336E+03  0.34967033452E+03  0.15294330000E+03 0.  0.
<mgrwt>
<rscale>  0 0.45862491E+03</rscale>
<asrwt>0</asrwt>
<pdfrwt beam="1">  1        2 0.28028521E-01 0.65902269E+03</pdfrwt>
<pdfrwt beam="2">  1       -2 0.15277097E+00 0.65902269E+03</pdfrwt>
<totfact> 0.55743667E+01</totfact>
</mgrwt>
</event>
<event>
 4    2  0.9070994E-007  0.8079180E+03  0.7818608E-02  0.9693930E-01
          2   -1    0    0  501    0  0.00000000000E+00  0.00000000000E+00  0.28374606750E+04  0.28374606750E+04  0.25500000000E-02 0. -1.
         -2   -1    0    0    0  501 -0.00000000000E+00 -0.00000000000E+00 -0.21610071246E+03  0.21610071248E+03  0.25500000000E-02 0.  1.
    8880023    1    1    2    0    0 -0.13717817207E+03  0.44732921763E+03  0.23636817166E+04  0.24979437030E+04  0.65864270000E+03 0. -1.
    8880022    1    1    2    0    0  0.13717817207E+03 -0.44732921763E+03  0.25767824595E+03  0.55561768447E+03  0.15294330000E+03 0.  0.
<mgrwt>
<rscale>  0 0.71379341E+03</rscale>
<asrwt>0</asrwt>
<pdfrwt beam="1">  1        2 0.43653239E+00 0.80791799E+03</pdfrwt>
<pdfrwt beam="2">  1       -2 0.33246265E-01 0.80791799E+03</pdfrwt>
<totfact> 0.19379867E+01</totfact>
</mgrwt>
</event>
<event>
 4    2  0.9070994E-007  0.7300470E+03  0.7818608E-02  0.9889950E-01
          2   -1    0    0  501    0  0.00000000000E+00  0.00000000000E+00  0.15399088491E+04  0.15399088491E+04  0.25500000000E-02 0. -1.
         -2   -1    0    0    0  501 -0.00000000000E+00 -0.00000000000E+00 -0.94754695359E+03  0.94754695360E+03  0.25500000000E-02 0.  1.
    8880023    1    1    2    0    0 -0.21529905364E+03  0.22979286505E+03  0.14156634078E+04  0.15928187385E+04  0.65864270000E+03 0. -1.
    8880022    1    1    2    0    0  0.21529905364E+03 -0.22979286505E+03 -0.82330151233E+03  0.89463706415E+03  0.15294330000E+03 0.  0.
<mgrwt>
<rscale>  0 0.60750846E+03</rscale>
<asrwt>0</asrwt>
<pdfrwt beam="1">  1        2 0.23690905E+00 0.73004702E+03</pdfrwt>
<pdfrwt beam="2">  1       -2 0.14577646E+00 0.73004702E+03</pdfrwt>
<totfact> 0.40125102E+00</totfact>
</mgrwt>
</event>
<event>
 4    2  0.9070994E-007  0.1116320E+04  0.7818608E-02  0.9243100E-01
          2   -1    0    0  501    0  0.00000000000E+00  0.00000000000E+00  0.30165858001E+04  0.30165858001E+04  0.25500000000E-02 0. -1.
         -2   -1    0    0    0  501 -0.00000000000E+00 -0.00000000000E+00 -0.34704629007E+03  0.34704629008E+03  0.25500000000E-02 0.  1.
    8880023    1    1    2    0    0  0.82936299780E+03 -0.35287019264E+03  0.16734375534E+04  0.20116072694E+04  0.65864270000E+03 0. -1.
    8880022    1    1    2    0    0 -0.82936299780E+03  0.35287019264E+03  0.99610195667E+03  0.13520248208E+04  0.15294330000E+03 0.  0.
<mgrwt>
<rscale>  0 0.10619431E+04</rscale>
<asrwt>0</asrwt>
<pdfrwt beam="1">  1        2 0.46409012E+00 0.11163201E+04</pdfrwt>
<pdfrwt beam="2">  1       -2 0.53391737E-01 0.11163201E+04</pdfrwt>
<totfact> 0.56647186E+00</totfact>
</mgrwt>
</event>
<event>
 4    2  0.9070994E-007  0.6755226E+03  0.7818608E-02  0.1011979E+00
          2   -1    0    0  501    0  0.00000000000E+00  0.00000000000E+00  0.29126307148E+04  0.29126307148E+04  0.25500000000E-02 0. -1.
         -2   -1    0    0    0  501 -0.00000000000E+00 -0.00000000000E+00 -0.90801861049E+02  0.90801861085E+02  0.25500000000E-02 0.  1.
    8880023    1    1    2    0    0  0.15005930145E+03  0.16715829822E+01  0.26315468313E+04  0.27168675933E+04  0.65864270000E+03 0. -1.
    8880022    1    1    2    0    0 -0.15005930145E+03 -0.16715829822E+01  0.19028202247E+03  0.28656498257E+03  0.15294330000E+03 0.  0.
<mgrwt>
<rscale>  0 0.50695683E+03</rscale>
<asrwt>0</asrwt>
<pdfrwt beam="1">  1        2 0.44809703E+00 0.67552261E+03</pdfrwt>
<pdfrwt beam="2">  1       -2 0.13969517E-01 0.67552261E+03</pdfrwt>
<totfact> 0.82846785E+01</totfact>
</mgrwt>
</event>
<event>
 4    2  0.9070994E-007  0.7356681E+03  0.7818608E-02  0.9872750E-01
         -2   -1    0    0    0  501 -0.00000000000E+00  0.00000000000E+00  0.45443983134E+03  0.45443983135E+03  0.25500000000E-02 0.  1.
          2   -1    0    0  501    0  0.00000000000E+00 -0.00000000000E+00 -0.13556738711E+04  0.13556738711E+04  0.25500000000E-02 0. -1.
    8880023    1    1    2    0    0 -0.27821069644E+03  0.17319400820E+03 -0.11542404620E+04  0.13687507466E+04  0.65864270000E+03 0. -1.
    8880022    1    1    2    0    0  0.27821069644E+03 -0.17319400820E+03  0.25300642221E+03  0.44136295583E+03  0.15294330000E+03 0.  0.
<mgrwt>
<rscale>  0 0.61600304E+03</rscale>
<asrwt>0</asrwt>
<pdfrwt beam="1">  1        2 0.20856521E+00 0.73566811E+03</pdfrwt>
<pdfrwt beam="2">  1       -2 0.69913821E-01 0.73566811E+03</pdfrwt>
<totfact> 0.29250134E+01</totfact>
</mgrwt>
</event>
<event>
 4    2  0.9070994E-007  0.6630858E+03  0.7818608E-02  0.1021196E+00
          2   -1    0    0  501    0  0.00000000000E+00  0.00000000000E+00  0.39894008733E+03  0.39894008733E+03  0.25500000000E-02 0. -1.
         -2   -1    0    0    0  501 -0.00000000000E+00 -0.00000000000E+00 -0.63374013707E+03  0.63374013707E+03  0.25500000000E-02 0.  1.
    8880023    1    1    2    0    0 -0.69443745193E+02  0.32406718646E+02  0.86473752544E+02  0.66870063953E+03  0.65864270000E+03 0. -1.
    8880022    1    1    2    0    0  0.69443745193E+02 -0.32406718646E+02 -0.32127380229E+03  0.36397958488E+03  0.15294330000E+03 0.  0.
<mgrwt>
<rscale>  0 0.47257370E+03</rscale>
<asrwt>0</asrwt>
<pdfrwt beam="1">  1        2 0.61375398E-01 0.66308584E+03</pdfrwt>
<pdfrwt beam="2">  1       -2 0.97498483E-01 0.66308584E+03</pdfrwt>
<totfact> 0.71061243E+01</totfact>
</mgrwt>
</event>
<event>
 4    2  0.9070994E-007  0.7087548E+03  0.7818608E-02  0.9962654E-01
          2   -1    0    0  501    0  0.00000000000E+00  0.00000000000E+00  0.23163665266E+04  0.23163665266E+04  0.25500000000E-02 0. -1.
         -2   -1    0    0    0  501 -0.00000000000E+00 -0.00000000000E+00 -0.15509497941E+03  0.15509497943E+03  0.25500000000E-02 0.  1.
    8880023    1    1    2    0    0  0.84670055553E+02  0.24769778646E+03  0.20126896994E+04  0.21338353367E+04  0.65864270000E+03 0.  1.
    8880022    1    1    2    0    0 -0.84670055553E+02 -0.24769778646E+03  0.14858184778E+03  0.33762616935E+03  0.15294330000E+03 0.  0.
<mgrwt>
<rscale>  0 0.57318557E+03</rscale>
<asrwt>0</asrwt>
<pdfrwt beam="1">  1        2 0.35636406E+00 0.70875484E+03</pdfrwt>
<pdfrwt beam="2">  1       -2 0.23860767E-01 0.70875484E+03</pdfrwt>
<totfact> 0.71960008E+01</totfact>
</mgrwt>
</event>
<event>
 4    2  0.9070994E-007  0.8024675E+03  0.7818608E-02  0.9705486E-01
          2   -1    0    0  501    0  0.00000000000E+00  0.00000000000E+00  0.81883516935E+03  0.81883516935E+03  0.25500000000E-02 0. -1.
         -2   -1    0    0    0  501 -0.00000000000E+00 -0.00000000000E+00 -0.53316810404E+03  0.53316810404E+03  0.25500000000E-02 0.  1.
    8880023    1    1    2    0    0  0.25462542324E+03 -0.38119528724E+03  0.24838239191E+02  0.80285185281E+03  0.65864270000E+03 0.  1.
    8880022    1    1    2    0    0 -0.25462542324E+03  0.38119528724E+03  0.26082882612E+03  0.54915142058E+03  0.15294330000E+03 0.  0.
<mgrwt>
<rscale>  0 0.70691101E+03</rscale>
<asrwt>0</asrwt>
<pdfrwt beam="1">  1        2 0.12597464E+00 0.80246754E+03</pdfrwt>
<pdfrwt beam="2">  1       -2 0.82025862E-01 0.80246754E+03</pdfrwt>
<totfact> 0.44044545E+01</totfact>
</mgrwt>
</event>
<event>
 4    2  0.9070994E-007  0.9490761E+03  0.7818608E-02  0.9451445E-01
          2   -1    0    0  501    0  0.00000000000E+00  0.00000000000E+00  0.10649488374E+04  0.10649488374E+04  0.25500000000E-02 0. -1.
         -2   -1    0    0    0  501 -0.00000000000E+00 -0.00000000000E+00 -0.10186434227E+04  0.10186434227E+04  0.25500000000E-02 0.  1.
    8880023    1    1    2    0    0 -0.86981314621E+02  0.67776802887E+03  0.65714065904E+03  0.11543739871E+04  0.65864270000E+03 0. -1.
    8880022    1    1    2    0    0  0.86981314621E+02 -0.67776802887E+03 -0.61083524435E+03  0.92921827296E+03  0.15294330000E+03 0.  0.
<mgrwt>
<rscale>  0 0.87960258E+03</rscale>
<asrwt>0</asrwt>
<pdfrwt beam="1">  1        2 0.16383828E+00 0.94907611E+03</pdfrwt>
<pdfrwt beam="2">  1       -2 0.15671437E+00 0.94907611E+03</pdfrwt>
<totfact> 0.60820058E+00</totfact>
</mgrwt>
</event>
<event>
 4    2  0.9070994E-007  0.1403360E+04  0.7818608E-02  0.8981076E-01
          2   -1    0    0  501    0  0.00000000000E+00  0.00000000000E+00  0.38422027466E+04  0.38422027466E+04  0.25500000000E-02 0. -1.
         -2   -1    0    0    0  501 -0.00000000000E+00 -0.00000000000E+00 -0.95252664248E+03  0.95252664249E+03  0.25500000000E-02 0.  1.
    8880023    1    1    2    0    0 -0.12072782038E+04 -0.27944424608E+03  0.32120050396E+04  0.35051956192E+04  0.65864270000E+03 0.  0.
    8880022    1    1    2    0    0  0.12072782038E+04  0.27944424608E+03 -0.32232893552E+03  0.12895337699E+04  0.15294330000E+03 0.  0.
<mgrwt>
<rscale>  0 0.13629587E+04</rscale>
<asrwt>0</asrwt>
<pdfrwt beam="1">  1        2 0.59110811E+00 0.14033602E+04</pdfrwt>
<pdfrwt beam="2">  1       -2 0.14654256E+00 0.14033602E+04</pdfrwt>
<totfact> 0.14121076E-01</totfact>
</mgrwt>
</event>
<event>
 4    2  0.9070994E-007  0.7966416E+03  0.7818608E-02  0.9718105E-01
         -2   -1    0    0    0  501 -0.00000000000E+00  0.00000000000E+00  0.30282252602E+03  0.30282252603E+03  0.25500000000E-02 0.  1.
          2   -1    0    0  501    0  0.00000000000E+00 -0.00000000000E+00 -0.19799564639E+04  0.19799564639E+04  0.25500000000E-02 0. -1.
    8880023    1    1    2    0    0  0.35080258661E+03 -0.27886395700E+03 -0.16207017000E+04  0.18059102325E+04  0.65864270000E+03 0.  0.
    8880022    1    1    2    0    0 -0.35080258661E+03  0.27886395700E+03 -0.56432237854E+02  0.47686875739E+03  0.15294330000E+03 0. -1.
<mgrwt>
<rscale>  0 0.69948970E+03</rscale>
<asrwt>0</asrwt>
<pdfrwt beam="1">  1        2 0.30460868E+00 0.79664156E+03</pdfrwt>
<pdfrwt beam="2">  1       -2 0.46588082E-01 0.79664156E+03</pdfrwt>
<totfact> 0.30721122E+01</totfact>
</mgrwt>
</event>
<event>
 4    2  0.9070994E-007  0.7532649E+03  0.7818608E-02  0.9822867E-01
          2   -1    0    0  501    0  0.00000000000E+00  0.00000000000E+00  0.16808373336E+04  0.16808373336E+04  0.25500000000E-02 0. -1.
         -2   -1    0    0    0  501 -0.00000000000E+00 -0.00000000000E+00 -0.45893136513E+03  0.45893136514E+03  0.25500000000E-02 0.  1.
    8880023    1    1    2    0    0  0.81840665371E+02  0.35623022568E+03 -0.99895312312E+02  0.75985995281E+03  0.65864270000E+03 0.  1.
    8880022    1    1    2    0    0 -0.81840665371E+02 -0.35623022568E+03  0.13218012807E+04  0.13799087459E+04  0.15294330000E+03 0.  0.
<mgrwt>
<rscale>  0 0.64149703E+03</rscale>
<asrwt>0</asrwt>
<pdfrwt beam="1">  1        2 0.25859036E+00 0.75326494E+03</pdfrwt>
<pdfrwt beam="2">  1       -2 0.70604825E-01 0.75326494E+03</pdfrwt>
<totfact> 0.18831061E+01</totfact>
</mgrwt>
</event>
<event>
 4    2  0.9070994E-007  0.9172781E+03  0.7818608E-02  0.9498845E-01
          2   -1    0    0  501    0  0.00000000000E+00  0.00000000000E+00  0.23757928119E+04  0.23757928119E+04  0.25500000000E-02 0. -1.
         -2   -1    0    0    0  501 -0.00000000000E+00 -0.00000000000E+00 -0.54682474317E+03  0.54682474318E+03  0.25500000000E-02 0.  1.
    8880023    1    1    2    0    0  0.45225541868E+03 -0.45061515473E+03  0.20369596022E+04  0.22339658925E+04  0.65864270000E+03 0. -1.
    8880022    1    1    2    0    0 -0.45225541868E+03  0.45061515473E+03 -0.20799153349E+03  0.68865166261E+03  0.15294330000E+03 0.  0.
<mgrwt>
<rscale>  0 0.84369020E+03</rscale>
<asrwt>0</asrwt>
<pdfrwt beam="1">  1        2 0.36550659E+00 0.91727814E+03</pdfrwt>
<pdfrwt beam="2">  1       -2 0.84126883E-01 0.91727814E+03</pdfrwt>
<totfact> 0.51591849E+00</totfact>
</mgrwt>
</event>
<event>
 4    2  0.9070994E-007  0.8792906E+03  0.7818608E-02  0.9560130E-01
          2   -1    0    0  501    0  0.00000000000E+00  0.00000000000E+00  0.11290623081E+04  0.11290623081E+04  0.25500000000E-02 0. -1.
         -2   -1    0    0    0  501 -0.00000000000E+00 -0.00000000000E+00 -0.99064197879E+03  0.99064197879E+03  0.25500000000E-02 0.  1.
    8880023    1    1    2    0    0  0.32514293058E+03  0.48334657479E+03  0.82546859964E+03  0.12060474501E+04  0.65864270000E+03 0. -1.
    8880022    1    1    2    0    0 -0.32514293058E+03 -0.48334657479E+03 -0.68704827032E+03  0.91365683680E+03  0.15294330000E+03 0.  0.
<mgrwt>
<rscale>  0 0.79992229E+03</rscale>
<asrwt>0</asrwt>
<pdfrwt beam="1">  1        2 0.17370189E+00 0.87929065E+03</pdfrwt>
<pdfrwt beam="2">  1       -2 0.15240646E+00 0.87929065E+03</pdfrwt>
<totfact> 0.60293848E+00</totfact>
</mgrwt>
</event>
<event>
 4    2  0.9070994E-007  0.7961661E+03  0.7818608E-02  0.9719148E-01
         -2   -1    0    0    0  501 -0.00000000000E+00  0.00000000000E+00  0.76505392988E+03  0.76505392989E+03  0.25500000000E-02 0.  1.
          2   -1    0    0  501    0  0.00000000000E+00 -0.00000000000E+00 -0.83583391562E+03  0.83583391562E+03  0.25500000000E-02 0. -1.
    8880023    1    1    2    0    0 -0.44289107729E+03  0.62591966267E+02 -0.51824292792E+03  0.94997694666E+03  0.65864270000E+03 0.  0.
    8880022    1    1    2    0    0  0.44289107729E+03 -0.62591966267E+02  0.44746294219E+03  0.65091089885E+03  0.15294330000E+03 0.  0.
<mgrwt>
<rscale>  0 0.69888095E+03</rscale>
<asrwt>0</asrwt>
<pdfrwt beam="1">  1        2 0.12858983E+00 0.79616611E+03</pdfrwt>
<pdfrwt beam="2">  1       -2 0.11770061E+00 0.79616611E+03</pdfrwt>
<totfact> 0.18278334E+01</totfact>
</mgrwt>
</event>
<event>
 4    2  0.9070994E-007  0.6738880E+03  0.7818608E-02  0.1013017E+00
         -2   -1    0    0    0  501 -0.00000000000E+00  0.00000000000E+00  0.28683787098E+03  0.28683787099E+03  0.25500000000E-02 0.  1.
          2   -1    0    0  501    0  0.00000000000E+00 -0.00000000000E+00 -0.20506834246E+04  0.20506834246E+04  0.25500000000E-02 0. -1.
    8880023    1    1    2    0    0 -0.73658540842E+02 -0.12202162147E+03 -0.19465353656E+04  0.20598847037E+04  0.65864270000E+03 0. -1.
    8880022    1    1    2    0    0  0.73658540842E+02  0.12202162147E+03  0.18268981197E+03  0.27763659189E+03  0.15294330000E+03 0.  0.
<mgrwt>
<rscale>  0 0.50293177E+03</rscale>
<asrwt>0</asrwt>
<pdfrwt beam="1">  1        2 0.31548975E+00 0.67388802E+03</pdfrwt>
<pdfrwt beam="2">  1       -2 0.44128904E-01 0.67388802E+03</pdfrwt>
<totfact> 0.31837893E+01</totfact>
</mgrwt>
</event>
<event>
 4    2  0.9070994E-007  0.9018813E+03  0.7818608E-02  0.9523018E-01
          2   -1    0    0  501    0  0.00000000000E+00  0.00000000000E+00  0.15711646777E+04  0.15711646777E+04  0.25500000000E-02 0. -1.
         -2   -1    0    0    0  501 -0.00000000000E+00 -0.00000000000E+00 -0.47127347427E+03  0.47127347428E+03  0.25500000000E-02 0.  1.
    8880023    1    1    2    0    0 -0.10559287020E+03  0.60698426281E+03  0.10803749849E+04  0.14073379352E+04  0.65864270000E+03 0. -1.
    8880022    1    1    2    0    0  0.10559287020E+03 -0.60698426281E+03  0.19516218497E+02  0.63510021677E+03  0.15294330000E+03 0.  0.
<mgrwt>
<rscale>  0 0.82607852E+03</rscale>
<asrwt>0</asrwt>
<pdfrwt beam="1">  1        2 0.24171764E+00 0.90188134E+03</pdfrwt>
<pdfrwt beam="2">  1       -2 0.72503612E-01 0.90188134E+03</pdfrwt>
<totfact> 0.20075166E+01</totfact>
</mgrwt>
</event>
<event>
 4    2  0.9070994E-007  0.1126477E+04  0.7818608E-02  0.9232135E-01
         -2   -1    0    0    0  501 -0.00000000000E+00  0.00000000000E+00  0.71941579289E+03  0.71941579290E+03  0.25500000000E-02 0.  1.
          2   -1    0    0  501    0  0.00000000000E+00 -0.00000000000E+00 -0.27206563974E+04  0.27206563974E+04  0.25500000000E-02 0. -1.
    8880023    1    1    2    0    0  0.51376203516E+02  0.91241415771E+03 -0.22187342791E+04  0.24883189340E+04  0.65864270000E+03 0. -1.
    8880022    1    1    2    0    0 -0.51376203516E+02 -0.91241415771E+03  0.21749367460E+03  0.95175325636E+03  0.15294330000E+03 0.  0.
<mgrwt>
<rscale>  0 0.10727810E+04</rscale>
<asrwt>0</asrwt>
<pdfrwt beam="1">  1        2 0.41856252E+00 0.11264765E+04</pdfrwt>
<pdfrwt beam="2">  1       -2 0.11067935E+00 0.11264765E+04</pdfrwt>
<totfact> 0.16610547E+00</totfact>
</mgrwt>
</event>
<event>
 4    2  0.9070994E-007  0.9697168E+03  0.7818608E-02  0.9422296E-01
          2   -1    0    0  501    0  0.00000000000E+00  0.00000000000E+00  0.10734085476E+04  0.10734085476E+04  0.25500000000E-02 0. -1.
         -2   -1    0    0    0  501 -0.00000000000E+00 -0.00000000000E+00 -0.10465609150E+04  0.10465609151E+04  0.25500000000E-02 0.  1.
    8880023    1    1    2    0    0  0.48940961692E+03  0.51673847659E+03  0.64526962023E+03  0.11647847507E+04  0.65864270000E+03 0. -1.
    8880022    1    1    2    0    0 -0.48940961692E+03 -0.51673847659E+03 -0.61842198763E+03  0.95518471204E+03  0.15294330000E+03 0.  0.
<mgrwt>
<rscale>  0 0.90263300E+03</rscale>
<asrwt>0</asrwt>
<pdfrwt beam="1">  1        2 0.16513978E+00 0.96971678E+03</pdfrwt>
<pdfrwt beam="2">  1       -2 0.16100937E+00 0.96971678E+03</pdfrwt>
<totfact> 0.55708416E+00</totfact>
</mgrwt>
</event>
<event>
 4    2  0.9070994E-007  0.8342418E+03  0.7818608E-02  0.9641135E-01
         -2   -1    0    0    0  501 -0.00000000000E+00  0.00000000000E+00  0.32471173106E+03  0.32471173107E+03  0.25500000000E-02 0.  1.
          2   -1    0    0  501    0  0.00000000000E+00 -0.00000000000E+00 -0.16736941902E+04  0.16736941902E+04  0.25500000000E-02 0. -1.
    8880023    1    1    2    0    0  0.45400258448E+03  0.23670834775E+03 -0.11657494600E+04  0.14335031212E+04  0.65864270000E+03 0. -1.
    8880022    1    1    2    0    0 -0.45400258448E+03 -0.23670834775E+03 -0.18323299916E+03  0.56490280014E+03  0.15294330000E+03 0.  0.
<mgrwt>
<rscale>  0 0.74632415E+03</rscale>
<asrwt>0</asrwt>
<pdfrwt beam="1">  1        2 0.25749141E+00 0.83424181E+03</pdfrwt>
<pdfrwt beam="2">  1       -2 0.49955652E-01 0.83424181E+03</pdfrwt>
<totfact> 0.39070883E+01</totfact>
</mgrwt>
</event>
<event>
 4    2  0.9070994E-007  0.7484247E+03  0.7818608E-02  0.9836053E-01
         -2   -1    0    0    0  501 -0.00000000000E+00  0.00000000000E+00  0.23186301120E+03  0.23186301121E+03  0.25500000000E-02 0.  1.
          2   -1    0    0  501    0  0.00000000000E+00 -0.00000000000E+00 -0.23995416748E+04  0.23995416748E+04  0.25500000000E-02 0. -1.
    8880023    1    1    2    0    0  0.22680148143E+02 -0.35470397494E+03 -0.21117413873E+04  0.22404444184E+04  0.65864270000E+03 0. -1.
    8880022    1    1    2    0    0 -0.22680148143E+02  0.35470397494E+03 -0.55937276323E+02  0.39096026761E+03  0.15294330000E+03 0.  0.
<mgrwt>
<rscale>  0 0.63463117E+03</rscale>
<asrwt>0</asrwt>
<pdfrwt beam="1">  1        2 0.36916024E+00 0.74842468E+03</pdfrwt>
<pdfrwt beam="2">  1       -2 0.35671234E-01 0.74842468E+03</pdfrwt>
<totfact> 0.30593339E+01</totfact>
</mgrwt>
</event>
<event>
 4    2  0.9070994E-007  0.9907134E+03  0.7818608E-02  0.9393809E-01
         -2   -1    0    0    0  501 -0.00000000000E+00  0.00000000000E+00  0.36656800799E+03  0.36656800800E+03  0.25500000000E-02 0.  1.
          2   -1    0    0  501    0  0.00000000000E+00 -0.00000000000E+00 -0.21894404367E+04  0.21894404367E+04  0.25500000000E-02 0. -1.
    8880023    1    1    2    0    0  0.30973591875E+03  0.67213583480E+03 -0.13110930364E+04  0.16433131400E+04  0.65864270000E+03 0. -1.
    8880022    1    1    2    0    0 -0.30973591875E+03 -0.67213583480E+03 -0.51177939230E+03  0.91269530468E+03  0.15294330000E+03 0.  0.
<mgrwt>
<rscale>  0 0.92586901E+03</rscale>
<asrwt>0</asrwt>
<pdfrwt beam="1">  1        2 0.33683698E+00 0.99071344E+03</pdfrwt>
<pdfrwt beam="2">  1       -2 0.56395079E-01 0.99071344E+03</pdfrwt>
<totfact> 0.15563594E+01</totfact>
</mgrwt>
</event>
<event>
 4    2  0.9070994E-007  0.7788555E+03  0.7818608E-02  0.9758532E-01
         -2   -1    0    0    0  501 -0.00000000000E+00  0.00000000000E+00  0.35815881714E+03  0.35815881714E+03  0.25500000000E-02 0.  1.
          2   -1    0    0  501    0  0.00000000000E+00 -0.00000000000E+00 -0.10561864681E+04  0.10561864681E+04  0.25500000000E-02 0. -1.
    8880023    1    1    2    0    0 -0.24173567329E+03  0.33818570617E+03 -0.52255664843E+03  0.93791330339E+03  0.65864270000E+03 0.  0.
    8880022    1    1    2    0    0  0.24173567329E+03 -0.33818570617E+03 -0.17547100254E+03  0.47643198186E+03  0.15294330000E+03 0. -1.
<mgrwt>
<rscale>  0 0.67636219E+03</rscale>
<asrwt>0</asrwt>
<pdfrwt beam="1">  1        2 0.16249022E+00 0.77885552E+03</pdfrwt>
<pdfrwt beam="2">  1       -2 0.55101357E-01 0.77885552E+03</pdfrwt>
<totfact> 0.72767631E+01</totfact>
</mgrwt>
</event>
<event>
 4    2  0.9070994E-007  0.1040477E+04  0.7818608E-02  0.9330418E-01
          2   -1    0    0  501    0  0.00000000000E+00  0.00000000000E+00  0.53308818928E+03  0.53308818929E+03  0.25500000000E-02 0. -1.
         -2   -1    0    0    0  501 -0.00000000000E+00 -0.00000000000E+00 -0.16812007567E+04  0.16812007567E+04  0.25500000000E-02 0.  1.
    8880023    1    1    2    0    0  0.77034047155E+03 -0.23528160284E+03 -0.84432731007E+03  0.13399554797E+04  0.65864270000E+03 0. -1.
    8880022    1    1    2    0    0 -0.77034047155E+03  0.23528160284E+03 -0.30378525738E+03  0.87433346633E+03  0.15294330000E+03 0.  0.
<mgrwt>
<rscale>  0 0.98030111E+03</rscale>
<asrwt>0</asrwt>
<pdfrwt beam="1">  1        2 0.82013568E-01 0.10404769E+04</pdfrwt>
<pdfrwt beam="2">  1       -2 0.25864627E+00 0.10404769E+04</pdfrwt>
<totfact> 0.32375477E+00</totfact>
</mgrwt>
</event>
<event>
 4    2  0.9070994E-007  0.6643915E+03  0.7818608E-02  0.1020050E+00
          2   -1    0    0  501    0  0.00000000000E+00  0.00000000000E+00  0.23138503595E+04  0.23138503595E+04  0.25500000000E-02 0. -1.
         -2   -1    0    0    0  501 -0.00000000000E+00 -0.00000000000E+00 -0.33784996750E+03  0.33784996751E+03  0.25500000000E-02 0.  1.
    8880023    1    1    2    0    0  0.54575921934E+02  0.68024191893E+02  0.22388406046E+04  0.23353422193E+04  0.65864270000E+03 0. -1.
    8880022    1    1    2    0    0 -0.54575921934E+02 -0.68024191893E+02 -0.26284021264E+03  0.31635810774E+03  0.15294330000E+03 0.  0.
<mgrwt>
<rscale>  0 0.47668757E+03</rscale>
<asrwt>0</asrwt>
<pdfrwt beam="1">  1        2 0.35597697E+00 0.66439147E+03</pdfrwt>
<pdfrwt beam="2">  1       -2 0.51976919E-01 0.66439147E+03</pdfrwt>
<totfact> 0.16440817E+01</totfact>
</mgrwt>
</event>
<event>
 4    2  0.9070994E-007  0.7326739E+03  0.7818608E-02  0.9881825E-01
         -2   -1    0    0    0  501 -0.00000000000E+00  0.00000000000E+00  0.25609865848E+03  0.25609865849E+03  0.25500000000E-02 0.  1.
          2   -1    0    0  501    0  0.00000000000E+00 -0.00000000000E+00 -0.27653572451E+04  0.27653572451E+04  0.25500000000E-02 0. -1.
    8880023    1    1    2    0    0  0.31685063384E+03  0.51054428965E+02 -0.25595946530E+04  0.26623928848E+04  0.65864270000E+03 0. -1.
    8880022    1    1    2    0    0 -0.31685063384E+03 -0.51054428965E+02  0.50336066402E+02  0.35906301881E+03  0.15294330000E+03 0.  0.
<mgrwt>
<rscale>  0 0.61150249E+03</rscale>
<asrwt>0</asrwt>
<pdfrwt beam="1">  1        2 0.42543956E+00 0.73267393E+03</pdfrwt>
<pdfrwt beam="2">  1       -2 0.39399796E-01 0.73267393E+03</pdfrwt>
<totfact> 0.15625358E+01</totfact>
</mgrwt>
</event>
<event>
 4    2  0.9070994E-007  0.7289927E+03  0.7818608E-02  0.9893255E-01
         -2   -1    0    0    0  501 -0.00000000000E+00  0.00000000000E+00  0.22037068223E+03  0.22037068224E+03  0.25500000000E-02 0.  1.
          2   -1    0    0  501    0  0.00000000000E+00 -0.00000000000E+00 -0.22476447436E+04  0.22476447436E+04  0.25500000000E-02 0. -1.
    8880023    1    1    2    0    0  0.28620055872E+03  0.12533709272E+03 -0.19885953695E+04  0.21180042249E+04  0.65864270000E+03 0.  0.
    8880022    1    1    2    0    0 -0.28620055872E+03 -0.12533709272E+03 -0.38678691907E+02  0.35001120103E+03  0.15294330000E+03 0.  0.
<mgrwt>
<rscale>  0 0.60589288E+03</rscale>
<asrwt>0</asrwt>
<pdfrwt beam="1">  1        2 0.34579148E+00 0.72899270E+03</pdfrwt>
<pdfrwt beam="2">  1       -2 0.33903183E-01 0.72899270E+03</pdfrwt>
<totfact> 0.41048828E+01</totfact>
</mgrwt>
</event>
<event>
 4    2  0.9070994E-007  0.9176410E+03  0.7818608E-02  0.9498286E-01
         -2   -1    0    0    0  501 -0.00000000000E+00  0.00000000000E+00  0.73035681015E+03  0.73035681016E+03  0.25500000000E-02 0.  1.
          2   -1    0    0  501    0  0.00000000000E+00 -0.00000000000E+00 -0.11466546106E+04  0.11466546106E+04  0.25500000000E-02 0. -1.
    8880023    1    1    2    0    0 -0.58930143327E+03 -0.24693839518E+03  0.23985849806E+03  0.94847090394E+03  0.65864270000E+03 0.  0.
    8880022    1    1    2    0    0  0.58930143327E+03  0.24693839518E+03 -0.65615629849E+03  0.92854051680E+03  0.15294330000E+03 0.  1.
<mgrwt>
<rscale>  0 0.84410333E+03</rscale>
<asrwt>0</asrwt>
<pdfrwt beam="1">  1        2 0.17640840E+00 0.91764097E+03</pdfrwt>
<pdfrwt beam="2">  1       -2 0.11236259E+00 0.91764097E+03</pdfrwt>
<totfact> 0.12736607E+01</totfact>
</mgrwt>
</event>
<event>
 4    2  0.9070994E-007  0.1198926E+04  0.7818608E-02  0.9158167E-01
          2   -1    0    0  501    0  0.00000000000E+00  0.00000000000E+00  0.91257809090E+03  0.91257809091E+03  0.25500000000E-02 0. -1.
         -2   -1    0    0    0  501 -0.00000000000E+00 -0.00000000000E+00 -0.18898981456E+04  0.18898981456E+04  0.25500000000E-02 0.  1.
    8880023    1    1    2    0    0  0.81451275929E+03 -0.58325216482E+03 -0.12711220785E+04  0.17473338741E+04  0.65864270000E+03 0.  1.
    8880022    1    1    2    0    0 -0.81451275929E+03  0.58325216482E+03  0.29380202380E+03  0.10551423624E+04  0.15294330000E+03 0.  0.
<mgrwt>
<rscale>  0 0.11495847E+04</rscale>
<asrwt>0</asrwt>
<pdfrwt beam="1">  1        2 0.14039663E+00 0.11989263E+04</pdfrwt>
<pdfrwt beam="2">  1       -2 0.29075356E+00 0.11989263E+04</pdfrwt>
<totfact> 0.10185233E+00</totfact>
</mgrwt>
</event>
<event>
 4    2  0.9070994E-007  0.1496413E+04  0.7818608E-02  0.8912173E-01
          2   -1    0    0  501    0  0.00000000000E+00  0.00000000000E+00  0.14007546472E+04  0.14007546472E+04  0.25500000000E-02 0. -1.
         -2   -1    0    0    0  501 -0.00000000000E+00 -0.00000000000E+00 -0.16792668693E+04  0.16792668693E+04  0.25500000000E-02 0.  1.
    8880023    1    1    2    0    0 -0.12580895018E+04  0.47185987615E+03  0.42505081700E+03  0.15556089935E+04  0.65864270000E+03 0.  0.
    8880022    1    1    2    0    0  0.12580895018E+04 -0.47185987615E+03 -0.70356303909E+03  0.15244125230E+04  0.15294330000E+03 0.  0.
<mgrwt>
<rscale>  0 0.14590168E+04</rscale>
<asrwt>0</asrwt>
<pdfrwt beam="1">  1        2 0.21550072E+00 0.14964128E+04</pdfrwt>
<pdfrwt beam="2">  1       -2 0.25834875E+00 0.14964128E+04</pdfrwt>
<totfact> 0.77748089E-01</totfact>
</mgrwt>
</event>
<event>
 4    2  0.9070994E-007  0.8324958E+03  0.7818608E-02  0.9644496E-01
          2   -1    0    0  501    0  0.00000000000E+00  0.00000000000E+00  0.22117682775E+04  0.22117682775E+04  0.25500000000E-02 0. -1.
         -2   -1    0    0    0  501 -0.00000000000E+00 -0.00000000000E+00 -0.22538023967E+03  0.22538023969E+03  0.25500000000E-02 0.  1.
    8880023    1    1    2    0    0 -0.99695887135E+02  0.49929931897E+03  0.15052482916E+04  0.17201225844E+04  0.65864270000E+03 0.  1.
    8880022    1    1    2    0    0  0.99695887135E+02 -0.49929931897E+03  0.48113974622E+03  0.71702593275E+03  0.15294330000E+03 0.  0.
<mgrwt>
<rscale>  0 0.74419880E+03</rscale>
<asrwt>0</asrwt>
<pdfrwt beam="1">  1        2 0.34027205E+00 0.83249582E+03</pdfrwt>
<pdfrwt beam="2">  1       -2 0.34673882E-01 0.83249582E+03</pdfrwt>
<totfact> 0.40643143E+01</totfact>
</mgrwt>
</event>
<event>
 4    2  0.9070994E-007  0.1215932E+04  0.7818608E-02  0.9141789E-01
          2   -1    0    0  501    0  0.00000000000E+00  0.00000000000E+00  0.14262394930E+04  0.14262394930E+04  0.25500000000E-02 0. -1.
         -2   -1    0    0    0  501 -0.00000000000E+00 -0.00000000000E+00 -0.11582033245E+04  0.11582033246E+04  0.25500000000E-02 0.  1.
    8880023    1    1    2    0    0  0.10058851376E+04  0.18131523069E+03  0.76616394500E+03  0.14371838852E+04  0.65864270000E+03 0.  0.
    8880022    1    1    2    0    0 -0.10058851376E+04 -0.18131523069E+03 -0.49812777660E+03  0.11472589323E+04  0.15294330000E+03 0.  0.
<mgrwt>
<rscale>  0 0.11675003E+04</rscale>
<asrwt>0</asrwt>
<pdfrwt beam="1">  1        2 0.21942146E+00 0.12159319E+04</pdfrwt>
<pdfrwt beam="2">  1       -2 0.17818513E+00 0.12159319E+04</pdfrwt>
<totfact> 0.25285279E+00</totfact>
</mgrwt>
</event>
<event>
 4    2  0.9070994E-007  0.7291951E+03  0.7818608E-02  0.9892618E-01
          2   -1    0    0  501    0  0.00000000000E+00  0.00000000000E+00  0.22339736196E+04  0.22339736196E+04  0.25500000000E-02 0. -1.
         -2   -1    0    0    0  501 -0.00000000000E+00 -0.00000000000E+00 -0.69456011000E+03  0.69456011000E+03  0.25500000000E-02 0.  1.
    8880023    1    1    2    0    0  0.30132403175E+03 -0.84374976249E+02  0.21253140498E+04  0.22469279751E+04  0.65864270000E+03 0.  0.
    8880022    1    1    2    0    0 -0.30132403175E+03  0.84374976249E+02 -0.58590054013E+03  0.68160575457E+03  0.15294330000E+03 0.  0.
<mgrwt>
<rscale>  0 0.60620362E+03</rscale>
<asrwt>0</asrwt>
<pdfrwt beam="1">  1        2 0.34368825E+00 0.72919511E+03</pdfrwt>
<pdfrwt beam="2">  1       -2 0.10685540E+00 0.72919511E+03</pdfrwt>
<totfact> 0.36436686E+00</totfact>
</mgrwt>
</event>
<event>
 4    2  0.9070994E-007  0.7106679E+03  0.7818608E-02  0.9955529E-01
         -2   -1    0    0    0  501 -0.00000000000E+00  0.00000000000E+00  0.32118942071E+03  0.32118942072E+03  0.25500000000E-02 0.  1.
          2   -1    0    0  501    0  0.00000000000E+00 -0.00000000000E+00 -0.89923975114E+03  0.89923975114E+03  0.25500000000E-02 0. -1.
    8880023    1    1    2    0    0 -0.25181829372E+03 -0.88465705338E+02 -0.57279053665E+03  0.91276384636E+03  0.65864270000E+03 0.  0.
    8880022    1    1    2    0    0  0.25181829372E+03  0.88465705338E+02 -0.52597937765E+01  0.30766532551E+03  0.15294330000E+03 0.  0.
<mgrwt>
<rscale>  0 0.57643957E+03</rscale>
<asrwt>0</asrwt>
<pdfrwt beam="1">  1        2 0.13834458E+00 0.71066788E+03</pdfrwt>
<pdfrwt beam="2">  1       -2 0.49413757E-01 0.71066788E+03</pdfrwt>
<totfact> 0.11551630E+02</totfact>
</mgrwt>
</event>
<event>
 4    2  0.9070994E-007  0.7684741E+03  0.7818608E-02  0.9783643E-01
         -2   -1    0    0    0  501 -0.00000000000E+00  0.00000000000E+00  0.87661969430E+03  0.87661969431E+03  0.25500000000E-02 0.  1.
          2   -1    0    0  501    0  0.00000000000E+00 -0.00000000000E+00 -0.12738403642E+04  0.12738403642E+04  0.25500000000E-02 0. -1.
    8880023    1    1    2    0    0  0.31218784169E+03  0.24347674501E+03 -0.10926021340E+04  0.13357888319E+04  0.65864270000E+03 0. -1.
    8880022    1    1    2    0    0 -0.31218784169E+03 -0.24347674501E+03  0.69538146411E+03  0.81467122663E+03  0.15294330000E+03 0.  0.
<mgrwt>
<rscale>  0 0.66247778E+03</rscale>
<asrwt>0</asrwt>
<pdfrwt beam="1">  1        2 0.19597544E+00 0.76847406E+03</pdfrwt>
<pdfrwt beam="2">  1       -2 0.13486457E+00 0.76847406E+03</pdfrwt>
<totfact> 0.69023861E+00</totfact>
</mgrwt>
</event>
<event>
 4    2  0.9070994E-007  0.6742391E+03  0.7818608E-02  0.1012790E+00
         -2   -1    0    0    0  501 -0.00000000000E+00  0.00000000000E+00  0.16401640453E+03  0.16401640455E+03  0.25500000000E-02 0.  1.
          2   -1    0    0  501    0  0.00000000000E+00 -0.00000000000E+00 -0.15869284356E+04  0.15869284356E+04  0.25500000000E-02 0. -1.
    8880023    1    1    2    0    0 -0.14385071265E+03 -0.97517924968E+01 -0.13807372186E+04  0.15365655202E+04  0.65864270000E+03 0. -1.
    8880022    1    1    2    0    0  0.14385071265E+03  0.97517924968E+01 -0.42174812517E+02  0.21437931993E+03  0.15294330000E+03 0.  0.
<mgrwt>
<rscale>  0 0.50380605E+03</rscale>
<asrwt>0</asrwt>
<pdfrwt beam="1">  1        2 0.24414283E+00 0.67423908E+03</pdfrwt>
<pdfrwt beam="2">  1       -2 0.25233294E-01 0.67423908E+03</pdfrwt>
<totfact> 0.16362947E+02</totfact>
</mgrwt>
</event>
<event>
 4    2  0.9070994E-007  0.7782451E+03  0.7818608E-02  0.9759976E-01
         -2   -1    0    0    0  501 -0.00000000000E+00  0.00000000000E+00  0.44669397881E+03  0.44669397881E+03  0.25500000000E-02 0.  1.
          2   -1    0    0  501    0  0.00000000000E+00 -0.00000000000E+00 -0.18540442140E+04  0.18540442140E+04  0.25500000000E-02 0. -1.
    8880023    1    1    2    0    0 -0.28195993926E+03 -0.30389772945E+03 -0.16297694125E+04  0.18060492190E+04  0.65864270000E+03 0. -1.
    8880022    1    1    2    0    0  0.28195993926E+03  0.30389772945E+03  0.22241917733E+03  0.49468897377E+03  0.15294330000E+03 0.  0.
<mgrwt>
<rscale>  0 0.67555438E+03</rscale>
<asrwt>0</asrwt>
<pdfrwt beam="1">  1        2 0.28523757E+00 0.77824511E+03</pdfrwt>
<pdfrwt beam="2">  1       -2 0.68722152E-01 0.77824511E+03</pdfrwt>
<totfact> 0.16011010E+01</totfact>
</mgrwt>
</event>
<event>
 4    2  0.9070994E-007  0.7187424E+03  0.7818608E-02  0.9926864E-01
          2   -1    0    0  501    0  0.00000000000E+00  0.00000000000E+00  0.39018519038E+04  0.39018519038E+04  0.25500000000E-02 0. -1.
         -2   -1    0    0    0  501 -0.00000000000E+00 -0.00000000000E+00 -0.31575887410E+03  0.31575887411E+03  0.25500000000E-02 0.  1.
    8880023    1    1    2    0    0 -0.11000220543E+03 -0.26585705236E+03  0.37737569157E+04  0.38415923680E+04  0.65864270000E+03 0. -1.
    8880022    1    1    2    0    0  0.11000220543E+03  0.26585705236E+03 -0.18766388592E+03  0.37601840990E+03  0.15294330000E+03 0.  0.
<mgrwt>
<rscale>  0 0.58976808E+03</rscale>
<asrwt>0</asrwt>
<pdfrwt beam="1">  1        2 0.60028489E+00 0.71874242E+03</pdfrwt>
<pdfrwt beam="2">  1       -2 0.48578290E-01 0.71874242E+03</pdfrwt>
<totfact> 0.18314620E+00</totfact>
</mgrwt>
</event>
<event>
 4    2  0.9070994E-007  0.7173892E+03  0.7818608E-02  0.9931521E-01
         -2   -1    0    0    0  501 -0.00000000000E+00  0.00000000000E+00  0.23349115482E+03  0.23349115484E+03  0.25500000000E-02 0.  1.
          2   -1    0    0  501    0  0.00000000000E+00 -0.00000000000E+00 -0.13765400413E+04  0.13765400413E+04  0.25500000000E-02 0. -1.
    8880023    1    1    2    0    0 -0.17863733755E+03  0.22119179959E+03 -0.10542756623E+04  0.12752037049E+04  0.65864270000E+03 0.  1.
    8880022    1    1    2    0    0  0.17863733755E+03 -0.22119179959E+03 -0.88773224214E+02  0.33482749129E+03  0.15294330000E+03 0. -1.
<mgrwt>
<rscale>  0 0.58757673E+03</rscale>
<asrwt>0</asrwt>
<pdfrwt beam="1">  1        2 0.21177539E+00 0.71738924E+03</pdfrwt>
<pdfrwt beam="2">  1       -2 0.35921717E-01 0.71738924E+03</pdfrwt>
<totfact> 0.11086061E+02</totfact>
</mgrwt>
</event>
<event>
 4    2  0.9070994E-007  0.7272004E+03  0.7818608E-02  0.9898935E-01
          2   -1    0    0  501    0  0.00000000000E+00  0.00000000000E+00  0.88564954896E+03  0.88564954896E+03  0.25500000000E-02 0. -1.
         -2   -1    0    0    0  501 -0.00000000000E+00 -0.00000000000E+00 -0.91352392646E+03  0.91352392646E+03  0.25500000000E-02 0.  1.
    8880023    1    1    2    0    0  0.26727864123E+03  0.15353293402E+03  0.69039927089E+03  0.10027320646E+04  0.65864270000E+03 0. -1.
    8880022    1    1    2    0    0 -0.26727864123E+03 -0.15353293402E+03 -0.71827364838E+03  0.79644141082E+03  0.15294330000E+03 0.  0.
<mgrwt>
<rscale>  0 0.60312928E+03</rscale>
<asrwt>0</asrwt>
<pdfrwt beam="1">  1        2 0.13625378E+00 0.72720041E+03</pdfrwt>
<pdfrwt beam="2">  1       -2 0.14054214E+00 0.72720041E+03</pdfrwt>
<totfact> 0.10866932E+01</totfact>
</mgrwt>
</event>
<event>
 4    2  0.9070994E-007  0.9567246E+03  0.7818608E-02  0.9440504E-01
          2   -1    0    0  501    0  0.00000000000E+00  0.00000000000E+00  0.13684508021E+04  0.13684508021E+04  0.25500000000E-02 0. -1.
         -2   -1    0    0    0  501 -0.00000000000E+00 -0.00000000000E+00 -0.58969403013E+03  0.58969403013E+03  0.25500000000E-02 0.  1.
    8880023    1    1    2    0    0 -0.58137275042E+03 -0.37883699131E+03  0.80020302051E+03  0.12472557160E+04  0.65864270000E+03 0. -1.
    8880022    1    1    2    0    0  0.58137275042E+03  0.37883699131E+03 -0.21446248533E+02  0.71088911619E+03  0.15294330000E+03 0.  0.
<mgrwt>
<rscale>  0 0.88816006E+03</rscale>
<asrwt>0</asrwt>
<pdfrwt beam="1">  1        2 0.21053089E+00 0.95672459E+03</pdfrwt>
<pdfrwt beam="2">  1       -2 0.90722159E-01 0.95672459E+03</pdfrwt>
<totfact> 0.15644725E+01</totfact>
</mgrwt>
</event>
<event>
 4    2  0.9070994E-007  0.6982071E+03  0.7818608E-02  0.1000472E+00
          2   -1    0    0  501    0  0.00000000000E+00  0.00000000000E+00  0.29020394636E+04  0.29020394636E+04  0.25500000000E-02 0. -1.
         -2   -1    0    0    0  501 -0.00000000000E+00 -0.00000000000E+00 -0.82081448309E+02  0.82081448348E+02  0.25500000000E-02 0.  1.
    8880023    1    1    2    0    0  0.67598107950E+02 -0.22161562572E+03  0.20502383403E+04  0.21658648268E+04  0.65864270000E+03 0.  0.
    8880022    1    1    2    0    0 -0.67598107950E+02  0.22161562572E+03  0.76971967496E+03  0.81825608510E+03  0.15294330000E+03 0. -1.
<mgrwt>
<rscale>  0 0.55443693E+03</rscale>
<asrwt>0</asrwt>
<pdfrwt beam="1">  1        2 0.44646761E+00 0.69820713E+03</pdfrwt>
<pdfrwt beam="2">  1       -2 0.12627915E-01 0.69820713E+03</pdfrwt>
<totfact> 0.99169163E+01</totfact>
</mgrwt>
</event>
<event>
 4    2  0.9070994E-007  0.7082883E+03  0.7818608E-02  0.9964413E-01
          2   -1    0    0  501    0  0.00000000000E+00  0.00000000000E+00  0.46036397498E+03  0.46036397499E+03  0.25500000000E-02 0. -1.
         -2   -1    0    0    0  501 -0.00000000000E+00 -0.00000000000E+00 -0.72325027085E+03  0.72325027085E+03  0.25500000000E-02 0.  1.
    8880023    1    1    2    0    0 -0.25900891167E+03  0.27865943399E+02  0.95723577575E+02  0.71472745623E+03  0.65864270000E+03 0.  0.
    8880022    1    1    2    0    0  0.25900891167E+03 -0.27865943399E+02 -0.35860987344E+03  0.46888678961E+03  0.15294330000E+03 0.  0.
<mgrwt>
<rscale>  0 0.57238588E+03</rscale>
<asrwt>0</asrwt>
<pdfrwt beam="1">  1        2 0.70825227E-01 0.70828831E+03</pdfrwt>
<pdfrwt beam="2">  1       -2 0.11126927E+00 0.70828831E+03</pdfrwt>
<totfact> 0.43926311E+01</totfact>
</mgrwt>
</event>
<event>
 4    2  0.9070994E-007  0.6718241E+03  0.7818608E-02  0.1014388E+00
          2   -1    0    0  501    0  0.00000000000E+00  0.00000000000E+00  0.76621286948E+03  0.76621286948E+03  0.25500000000E-02 0. -1.
         -2   -1    0    0    0  501 -0.00000000000E+00 -0.00000000000E+00 -0.10519412611E+04  0.10519412611E+04  0.25500000000E-02 0.  1.
    8880023    1    1    2    0    0  0.51168651932E+01  0.13233017291E+03  0.60539703411E+03  0.90435238273E+03  0.65864270000E+03 0. -1.
    8880022    1    1    2    0    0 -0.51168651932E+01 -0.13233017291E+03 -0.89112542578E+03  0.91380174789E+03  0.15294330000E+03 0.  0.
<mgrwt>
<rscale>  0 0.49767490E+03</rscale>
<asrwt>0</asrwt>
<pdfrwt beam="1">  1        2 0.11787890E+00 0.67182413E+03</pdfrwt>
<pdfrwt beam="2">  1       -2 0.16183712E+00 0.67182413E+03</pdfrwt>
<totfact> 0.91400901E+00</totfact>
</mgrwt>
</event>
<event>
 4    2  0.9070994E-007  0.7529061E+03  0.7818608E-02  0.9823832E-01
         -2   -1    0    0    0  501 -0.00000000000E+00  0.00000000000E+00  0.21166486515E+03  0.21166486516E+03  0.25500000000E-02 0.  1.
          2   -1    0    0  501    0  0.00000000000E+00 -0.00000000000E+00 -0.24196711903E+04  0.24196711903E+04  0.25500000000E-02 0. -1.
    8880023    1    1    2    0    0 -0.17518622453E+03  0.31994860117E+03 -0.20855265619E+04  0.22172705219E+04  0.65864270000E+03 0. -1.
    8880022    1    1    2    0    0  0.17518622453E+03 -0.31994860117E+03 -0.12247976324E+03  0.41406553355E+03  0.15294330000E+03 0.  0.
<mgrwt>
<rscale>  0 0.64099137E+03</rscale>
<asrwt>0</asrwt>
<pdfrwt beam="1">  1        2 0.37225709E+00 0.75290605E+03</pdfrwt>
<pdfrwt beam="2">  1       -2 0.32563827E-01 0.75290605E+03</pdfrwt>
<totfact> 0.35407908E+01</totfact>
</mgrwt>
</event>
<event>
 4    2  0.9070994E-007  0.1090838E+04  0.7818608E-02  0.9271326E-01
         -2   -1    0    0    0  501 -0.00000000000E+00  0.00000000000E+00  0.24090923230E+03  0.24090923232E+03  0.25500000000E-02 0.  1.
          2   -1    0    0  501    0  0.00000000000E+00 -0.00000000000E+00 -0.44969992301E+04  0.44969992301E+04  0.25500000000E-02 0. -1.
    8880023    1    1    2    0    0 -0.73539907385E+03 -0.46400952616E+03 -0.30788287204E+04  0.32663608395E+04  0.65864270000E+03 0.  1.
    8880022    1    1    2    0    0  0.73539907385E+03  0.46400952616E+03 -0.11772612775E+04  0.14715476230E+04  0.15294330000E+03 0. -1.
<mgrwt>
<rscale>  0 0.10346601E+04</rscale>
<asrwt>0</asrwt>
<pdfrwt beam="1">  1        2 0.69184598E+00 0.10908377E+04</pdfrwt>
<pdfrwt beam="2">  1       -2 0.37062962E-01 0.10908377E+04</pdfrwt>
<totfact> 0.89948672E-01</totfact>
</mgrwt>
</event>
<event>
 4    2  0.9070994E-007  0.7492408E+03  0.7818608E-02  0.9833803E-01
         -2   -1    0    0    0  501 -0.00000000000E+00  0.00000000000E+00  0.14046654644E+03  0.14046654646E+03  0.25500000000E-02 0.  1.
          2   -1    0    0  501    0  0.00000000000E+00 -0.00000000000E+00 -0.23852320623E+04  0.23852320623E+04  0.25500000000E-02 0. -1.
    8880023    1    1    2    0    0 -0.18644805428E+03 -0.30461246977E+03 -0.12445258659E+04  0.14526549731E+04  0.65864270000E+03 0.  1.
    8880022    1    1    2    0    0  0.18644805428E+03  0.30461246977E+03 -0.10002396500E+04  0.10730436357E+04  0.15294330000E+03 0. -1.
<mgrwt>
<rscale>  0 0.63579602E+03</rscale>
<asrwt>0</asrwt>
<pdfrwt beam="1">  1        2 0.36695875E+00 0.74924084E+03</pdfrwt>
<pdfrwt beam="2">  1       -2 0.21610240E-01 0.74924084E+03</pdfrwt>
<totfact> 0.78175864E+01</totfact>
</mgrwt>
</event>
<event>
 4    2  0.9070994E-007  0.8082760E+03  0.7818608E-02  0.9693179E-01
         -2   -1    0    0    0  501 -0.00000000000E+00  0.00000000000E+00  0.48084800244E+03  0.48084800244E+03  0.25500000000E-02 0.  1.
          2   -1    0    0  501    0  0.00000000000E+00 -0.00000000000E+00 -0.24045815265E+04  0.24045815265E+04  0.25500000000E-02 0. -1.
    8880023    1    1    2    0    0 -0.38682375233E+03 -0.26432405883E+03 -0.21835146251E+04  0.23283140140E+04  0.65864270000E+03 0. -1.
    8880022    1    1    2    0    0  0.38682375233E+03  0.26432405883E+03  0.25978110109E+03  0.55711551490E+03  0.15294330000E+03 0.  0.
<mgrwt>
<rscale>  0 0.71424347E+03</rscale>
<asrwt>0</asrwt>
<pdfrwt beam="1">  1        2 0.36993561E+00 0.80827596E+03</pdfrwt>
<pdfrwt beam="2">  1       -2 0.73976617E-01 0.80827596E+03</pdfrwt>
<totfact> 0.67433935E+00</totfact>
</mgrwt>
</event>
<event>
 4    2  0.9070994E-007  0.7643393E+03  0.7818608E-02  0.9794000E-01
          2   -1    0    0  501    0  0.00000000000E+00  0.00000000000E+00  0.15982596818E+04  0.15982596818E+04  0.25500000000E-02 0. -1.
         -2   -1    0    0    0  501 -0.00000000000E+00 -0.00000000000E+00 -0.25249680532E+03  0.25249680534E+03  0.25500000000E-02 0.  1.
    8880023    1    1    2    0    0 -0.25251304961E+03  0.29434928524E+03  0.11717590485E+04  0.13990117283E+04  0.65864270000E+03 0.  0.
    8880022    1    1    2    0    0  0.25251304961E+03 -0.29434928524E+03  0.17400382793E+03  0.45174475879E+03  0.15294330000E+03 0.  0.
<mgrwt>
<rscale>  0 0.65685515E+03</rscale>
<asrwt>0</asrwt>
<pdfrwt beam="1">  1        2 0.24588611E+00 0.76433929E+03</pdfrwt>
<pdfrwt beam="2">  1       -2 0.38845662E-01 0.76433929E+03</pdfrwt>
<totfact> 0.71395578E+01</totfact>
</mgrwt>
</event>
<event>
 4    2  0.9070994E-007  0.9768071E+03  0.7818608E-02  0.9412550E-01
          2   -1    0    0  501    0  0.00000000000E+00  0.00000000000E+00  0.23977858668E+04  0.23977858668E+04  0.25500000000E-02 0. -1.
         -2   -1    0    0    0  501 -0.00000000000E+00 -0.00000000000E+00 -0.77222881086E+03  0.77222881087E+03  0.25500000000E-02 0.  1.
    8880023    1    1    2    0    0 -0.72117488957E+03  0.15772781484E+02  0.20841199797E+04  0.23016751069E+04  0.65864270000E+03 0.  0.
    8880022    1    1    2    0    0  0.72117488957E+03 -0.15772781484E+02 -0.45856292376E+03  0.86833957070E+03  0.15294330000E+03 0.  0.
<mgrwt>
<rscale>  0 0.91049989E+03</rscale>
<asrwt>0</asrwt>
<pdfrwt beam="1">  1        2 0.36889013E+00 0.97680715E+03</pdfrwt>
<pdfrwt beam="2">  1       -2 0.11880443E+00 0.97680715E+03</pdfrwt>
<totfact> 0.21893674E+00</totfact>
</mgrwt>
</event>
<event>
 4    2  0.9070994E-007  0.6797359E+03  0.7818608E-02  0.1009473E+00
          2   -1    0    0  501    0  0.00000000000E+00  0.00000000000E+00  0.15044553570E+04  0.15044553570E+04  0.25500000000E-02 0. -1.
         -2   -1    0    0    0  501 -0.00000000000E+00 -0.00000000000E+00 -0.50375025049E+03  0.50375025049E+03  0.25500000000E-02 0.  1.
    8880023    1    1    2    0    0  0.10106560621E+03  0.13422513055E+03  0.13957583318E+04  0.15524761414E+04  0.65864270000E+03 0. -1.
    8880022    1    1    2    0    0 -0.10106560621E+03 -0.13422513055E+03 -0.39505322532E+03  0.45572946611E+03  0.15294330000E+03 0.  0.
<mgrwt>
<rscale>  0 0.51684439E+03</rscale>
<asrwt>0</asrwt>
<pdfrwt beam="1">  1        2 0.23145466E+00 0.67973587E+03</pdfrwt>
<pdfrwt beam="2">  1       -2 0.77500041E-01 0.67973587E+03</pdfrwt>
<totfact> 0.19360077E+01</totfact>
</mgrwt>
</event>
<event>
 4    2  0.9070994E-007  0.6642258E+03  0.7818608E-02  0.1020192E+00
          2   -1    0    0  501    0  0.00000000000E+00  0.00000000000E+00  0.14197879695E+03  0.14197879697E+03  0.25500000000E-02 0. -1.
         -2   -1    0    0    0  501 -0.00000000000E+00 -0.00000000000E+00 -0.17816236269E+04  0.17816236269E+04  0.25500000000E-02 0.  1.
    8880023    1    1    2    0    0 -0.20813403000E+02 -0.83381533272E+02 -0.68949351085E+03  0.95739082177E+03  0.65864270000E+03 0. -1.
    8880022    1    1    2    0    0  0.20813403000E+02  0.83381533272E+02 -0.95015131914E+03  0.96621160214E+03  0.15294330000E+03 0.  0.
<mgrwt>
<rscale>  0 0.47617398E+03</rscale>
<asrwt>0</asrwt>
<pdfrwt beam="1">  1        2 0.21842893E-01 0.66422578E+03</pdfrwt>
<pdfrwt beam="2">  1       -2 0.27409593E+00 0.66422578E+03</pdfrwt>
<totfact> 0.12211684E+01</totfact>
</mgrwt>
</event>
<event>
 4    2  0.9070994E-007  0.8364536E+03  0.7818608E-02  0.9636904E-01
         -2   -1    0    0    0  501 -0.00000000000E+00  0.00000000000E+00  0.97410285848E+03  0.97410285848E+03  0.25500000000E-02 0.  1.
          2   -1    0    0  501    0  0.00000000000E+00 -0.00000000000E+00 -0.10887162243E+04  0.10887162243E+04  0.25500000000E-02 0. -1.
    8880023    1    1    2    0    0 -0.18637997583E+03 -0.48073584038E+03 -0.82297394960E+03  0.11734311959E+04  0.65864270000E+03 0. -1.
    8880022    1    1    2    0    0  0.18637997583E+03  0.48073584038E+03  0.70836058378E+03  0.88938788685E+03  0.15294330000E+03 0.  0.
<mgrwt>
<rscale>  0 0.74901059E+03</rscale>
<asrwt>0</asrwt>
<pdfrwt beam="1">  1        2 0.16749480E+00 0.83645361E+03</pdfrwt>
<pdfrwt beam="2">  1       -2 0.14986198E+00 0.83645361E+03</pdfrwt>
<totfact> 0.67077696E+00</totfact>
</mgrwt>
</event>
<event>
 4    2  0.9070994E-007  0.7841725E+03  0.7818608E-02  0.9746125E-01
         -2   -1    0    0    0  501 -0.00000000000E+00  0.00000000000E+00  0.14535879575E+04  0.14535879575E+04  0.25500000000E-02 0.  1.
          2   -1    0    0  501    0  0.00000000000E+00 -0.00000000000E+00 -0.55926538157E+03  0.55926538157E+03  0.25500000000E-02 0. -1.
    8880023    1    1    2    0    0 -0.16539190666E+02 -0.42525609254E+03 -0.21649628520E+03  0.81350914982E+03  0.65864270000E+03 0. -1.
    8880022    1    1    2    0    0  0.16539190666E+02  0.42525609254E+03  0.11108188612E+04  0.11993441893E+04  0.15294330000E+03 0.  0.
<mgrwt>
<rscale>  0 0.68335673E+03</rscale>
<asrwt>0</asrwt>
<pdfrwt beam="1">  1        2 0.86040829E-01 0.78417249E+03</pdfrwt>
<pdfrwt beam="2">  1       -2 0.22362891E+00 0.78417249E+03</pdfrwt>
<totfact> 0.51592305E+00</totfact>
</mgrwt>
</event>
<event>
 4    2  0.9070994E-007  0.8147415E+03  0.7818608E-02  0.9679784E-01
         -2   -1    0    0    0  501 -0.00000000000E+00  0.00000000000E+00  0.44177678469E+03  0.44177678470E+03  0.25500000000E-02 0.  1.
          2   -1    0    0  501    0  0.00000000000E+00 -0.00000000000E+00 -0.16896430213E+04  0.16896430213E+04  0.25500000000E-02 0. -1.
    8880023    1    1    2    0    0 -0.14329345052E+03  0.45766850602E+03 -0.13875119568E+04  0.16090348383E+04  0.65864270000E+03 0. -1.
    8880022    1    1    2    0    0  0.14329345052E+03 -0.45766850602E+03  0.13964572014E+03  0.52238496775E+03  0.15294330000E+03 0.  0.
<mgrwt>
<rscale>  0 0.72233309E+03</rscale>
<asrwt>0</asrwt>
<pdfrwt beam="1">  1        2 0.25994508E+00 0.81474148E+03</pdfrwt>
<pdfrwt beam="2">  1       -2 0.67965660E-01 0.81474148E+03</pdfrwt>
<totfact> 0.20082410E+01</totfact>
</mgrwt>
</event>
<event>
 4    2  0.9070994E-007  0.7043499E+03  0.7818608E-02  0.9979613E-01
          2   -1    0    0  501    0  0.00000000000E+00  0.00000000000E+00  0.32259052240E+04  0.32259052240E+04  0.25500000000E-02 0. -1.
         -2   -1    0    0    0  501 -0.00000000000E+00 -0.00000000000E+00 -0.22779237039E+03  0.22779237041E+03  0.25500000000E-02 0.  1.
    8880023    1    1    2    0    0  0.88508068364E+02  0.23337726666E+03  0.30720615052E+04  0.31517726322E+04  0.65864270000E+03 0. -1.
    8880022    1    1    2    0    0 -0.88508068364E+02 -0.23337726666E+03 -0.73948651581E+02  0.30192496227E+03  0.15294330000E+03 0.  0.
<mgrwt>
<rscale>  0 0.56553281E+03</rscale>
<asrwt>0</asrwt>
<pdfrwt beam="1">  1        2 0.49629312E+00 0.70434994E+03</pdfrwt>
<pdfrwt beam="2">  1       -2 0.35044979E-01 0.70434994E+03</pdfrwt>
<totfact> 0.10287648E+01</totfact>
</mgrwt>
</event>
<event>
 4    2  0.9070994E-007  0.8318772E+03  0.7818608E-02  0.9645691E-01
         -2   -1    0    0    0  501 -0.00000000000E+00  0.00000000000E+00  0.22829416904E+03  0.22829416906E+03  0.25500000000E-02 0.  1.
          2   -1    0    0  501    0  0.00000000000E+00 -0.00000000000E+00 -0.24755742899E+04  0.24755742899E+04  0.25500000000E-02 0. -1.
    8880023    1    1    2    0    0  0.38115917730E+03 -0.33604624299E+03 -0.18876573853E+04  0.20628305811E+04  0.65864270000E+03 0. -1.
    8880022    1    1    2    0    0 -0.38115917730E+03  0.33604624299E+03 -0.35962273555E+03  0.64103787783E+03  0.15294330000E+03 0. -1.
<mgrwt>
<rscale>  0 0.74344472E+03</rscale>
<asrwt>0</asrwt>
<pdfrwt beam="1">  1        2 0.38085756E+00 0.83187716E+03</pdfrwt>
<pdfrwt beam="2">  1       -2 0.35122182E-01 0.83187716E+03</pdfrwt>
<totfact> 0.28230057E+01</totfact>
</mgrwt>
</event>
<event>
 4    2  0.9070994E-007  0.9428076E+03  0.7818608E-02  0.9460539E-01
          2   -1    0    0  501    0  0.00000000000E+00  0.00000000000E+00  0.14333002131E+04  0.14333002132E+04  0.25500000000E-02 0. -1.
         -2   -1    0    0    0  501 -0.00000000000E+00 -0.00000000000E+00 -0.84567441849E+03  0.84567441850E+03  0.25500000000E-02 0.  1.
    8880023    1    1    2    0    0 -0.31127906633E+03  0.59848251244E+03  0.10772137002E+04  0.14315290905E+04  0.65864270000E+03 0. -1.
    8880022    1    1    2    0    0  0.31127906633E+03 -0.59848251244E+03 -0.48958790558E+03  0.84744554110E+03  0.15294330000E+03 0.  0.
<mgrwt>
<rscale>  0 0.87256719E+03</rscale>
<asrwt>0</asrwt>
<pdfrwt beam="1">  1        2 0.22050772E+00 0.94280761E+03</pdfrwt>
<pdfrwt beam="2">  1       -2 0.13010376E+00 0.94280761E+03</pdfrwt>
<totfact> 0.59988692E+00</totfact>
</mgrwt>
</event>
<event>
 4    2  0.9070994E-007  0.7288528E+03  0.7818608E-02  0.9893696E-01
         -2   -1    0    0    0  501 -0.00000000000E+00  0.00000000000E+00  0.33661682888E+03  0.33661682889E+03  0.25500000000E-02 0.  1.
          2   -1    0    0  501    0  0.00000000000E+00 -0.00000000000E+00 -0.13412163463E+04  0.13412163463E+04  0.25500000000E-02 0. -1.
    8880023    1    1    2    0    0 -0.21941382038E+03 -0.22197694186E+03 -0.10980363570E+04  0.13179189030E+04  0.65864270000E+03 0.  0.
    8880022    1    1    2    0    0  0.21941382038E+03  0.22197694186E+03  0.93436839627E+02  0.35991427217E+03  0.15294330000E+03 0.  0.
<mgrwt>
<rscale>  0 0.60567794E+03</rscale>
<asrwt>0</asrwt>
<pdfrwt beam="1">  1        2 0.20634097E+00 0.72885279E+03</pdfrwt>
<pdfrwt beam="2">  1       -2 0.51787205E-01 0.72885279E+03</pdfrwt>
<totfact> 0.56256912E+01</totfact>
</mgrwt>
</event>
<event>
 4    2  0.9070994E-007  0.9689177E+03  0.7818608E-02  0.9423403E-01
         -2   -1    0    0    0  501 -0.00000000000E+00  0.00000000000E+00  0.50974373439E+03  0.50974373439E+03  0.25500000000E-02 0.  1.
          2   -1    0    0  501    0  0.00000000000E+00 -0.00000000000E+00 -0.23809824183E+04  0.23809824183E+04  0.25500000000E-02 0. -1.
    8880023    1    1    2    0    0 -0.54875370623E+03  0.45150929167E+03 -0.19319421436E+04  0.21612963524E+04  0.65864270000E+03 0. -1.
    8880022    1    1    2    0    0  0.54875370623E+03 -0.45150929167E+03  0.60703459627E+02  0.72942980032E+03  0.15294330000E+03 0.  1.
<mgrwt>
<rscale>  0 0.90174503E+03</rscale>
<asrwt>0</asrwt>
<pdfrwt beam="1">  1        2 0.36630498E+00 0.96891768E+03</pdfrwt>
<pdfrwt beam="2">  1       -2 0.78422115E-01 0.96891768E+03</pdfrwt>
<totfact> 0.59651766E+00</totfact>
</mgrwt>
</event>
<event>
 4    2  0.9070994E-007  0.9677882E+03  0.7818608E-02  0.9424970E-01
          2   -1    0    0  501    0  0.00000000000E+00  0.00000000000E+00  0.89796312821E+03  0.89796312822E+03  0.25500000000E-02 0. -1.
         -2   -1    0    0    0  501 -0.00000000000E+00 -0.00000000000E+00 -0.18051718263E+04  0.18051718263E+04  0.25500000000E-02 0.  1.
    8880023    1    1    2    0    0 -0.76586651113E+01 -0.70904522942E+03  0.52257592989E+03  0.10998634467E+04  0.65864270000E+03 0. -1.
    8880022    1    1    2    0    0  0.76586651113E+01  0.70904522942E+03 -0.14297846279E+04  0.16032715078E+04  0.15294330000E+03 0.  0.
<mgrwt>
<rscale>  0 0.90048945E+03</rscale>
<asrwt>0</asrwt>
<pdfrwt beam="1">  1        2 0.13814817E+00 0.96778820E+03</pdfrwt>
<pdfrwt beam="2">  1       -2 0.27771874E+00 0.96778820E+03</pdfrwt>
<totfact> 0.12856199E+00</totfact>
</mgrwt>
</event>
<event>
 4    2  0.9070994E-007  0.8044614E+03  0.7818608E-02  0.9701231E-01
         -2   -1    0    0    0  501 -0.00000000000E+00  0.00000000000E+00  0.71495634528E+03  0.71495634528E+03  0.25500000000E-02 0.  1.
          2   -1    0    0  501    0  0.00000000000E+00 -0.00000000000E+00 -0.59742996897E+03  0.59742996897E+03  0.25500000000E-02 0. -1.
    8880023    1    1    2    0    0  0.77481604670E+02 -0.45535096208E+03 -0.26691175077E+02  0.80490404572E+03  0.65864270000E+03 0.  0.
    8880022    1    1    2    0    0 -0.77481604670E+02  0.45535096208E+03  0.14421755139E+03  0.50748226853E+03  0.15294330000E+03 0.  0.
<mgrwt>
<rscale>  0 0.70943523E+03</rscale>
<asrwt>0</asrwt>
<pdfrwt beam="1">  1        2 0.91912302E-01 0.80446138E+03</pdfrwt>
<pdfrwt beam="2">  1       -2 0.10999328E+00 0.80446138E+03</pdfrwt>
<totfact> 0.33037852E+01</totfact>
</mgrwt>
</event>
<event>
 4    2  0.9070994E-007  0.9439072E+03  0.7818608E-02  0.9458935E-01
         -2   -1    0    0    0  501 -0.00000000000E+00  0.00000000000E+00  0.29514724530E+03  0.29514724531E+03  0.25500000000E-02 0.  1.
          2   -1    0    0  501    0  0.00000000000E+00 -0.00000000000E+00 -0.33991625891E+04  0.33991625891E+04  0.25500000000E-02 0. -1.
    8880023    1    1    2    0    0  0.66420452691E+03  0.12642341006E+03 -0.27668999573E+04  0.29234732959E+04  0.65864270000E+03 0.  0.
    8880022    1    1    2    0    0 -0.66420452691E+03 -0.12642341006E+03 -0.33711538649E+03  0.77083653844E+03  0.15294330000E+03 0.  0.
<mgrwt>
<rscale>  0 0.87380274E+03</rscale>
<asrwt>0</asrwt>
<pdfrwt beam="1">  1        2 0.52294806E+00 0.94390717E+03</pdfrwt>
<pdfrwt beam="2">  1       -2 0.45407271E-01 0.94390717E+03</pdfrwt>
<totfact> 0.45804273E+00</totfact>
</mgrwt>
</event>
<event>
 4    2  0.9070994E-007  0.6603225E+03  0.7818608E-02  0.1023828E+00
          2   -1    0    0  501    0  0.00000000000E+00  0.00000000000E+00  0.78347645598E+03  0.78347645598E+03  0.25500000000E-02 0. -1.
         -2   -1    0    0    0  501 -0.00000000000E+00 -0.00000000000E+00 -0.38143231156E+03  0.38143231157E+03  0.25500000000E-02 0.  1.
    8880023    1    1    2    0    0 -0.23456908928E+02  0.40809573389E+02  0.61241067226E+03  0.90059573929E+03  0.65864270000E+03 0. -1.
    8880022    1    1    2    0    0  0.23456908928E+02 -0.40809573389E+02 -0.21036652785E+03  0.26431302826E+03  0.15294330000E+03 0.  0.
<mgrwt>
<rscale>  0 0.46330028E+03</rscale>
<asrwt>0</asrwt>
<pdfrwt beam="1">  1        2 0.12053484E+00 0.66032254E+03</pdfrwt>
<pdfrwt beam="2">  1       -2 0.58681894E-01 0.66032254E+03</pdfrwt>
<totfact> 0.97921207E+01</totfact>
</mgrwt>
</event>
<event>
 4    2  0.9070994E-007  0.8765962E+03  0.7818608E-02  0.9564698E-01
          2   -1    0    0  501    0  0.00000000000E+00  0.00000000000E+00  0.11736150765E+04  0.11736150765E+04  0.25500000000E-02 0. -1.
         -2   -1    0    0    0  501 -0.00000000000E+00 -0.00000000000E+00 -0.95215173645E+03  0.95215173645E+03  0.25500000000E-02 0.  1.
    8880023    1    1    2    0    0  0.54267407393E+03 -0.20028842755E+03  0.87578585429E+03  0.12391213312E+04  0.65864270000E+03 0. -1.
    8880022    1    1    2    0    0 -0.54267407393E+03  0.20028842755E+03 -0.65432251419E+03  0.88664548175E+03  0.15294330000E+03 0.  0.
<mgrwt>
<rscale>  0 0.79677443E+03</rscale>
<asrwt>0</asrwt>
<pdfrwt beam="1">  1        2 0.18055617E+00 0.87659615E+03</pdfrwt>
<pdfrwt beam="2">  1       -2 0.14648488E+00 0.87659615E+03</pdfrwt>
<totfact> 0.62960150E+00</totfact>
</mgrwt>
</event>
<event>
 4    2  0.9070994E-007  0.7752647E+03  0.7818608E-02  0.9767080E-01
         -2   -1    0    0    0  501 -0.00000000000E+00  0.00000000000E+00  0.45958767675E+03  0.45958767675E+03  0.25500000000E-02 0.  1.
          2   -1    0    0  501    0  0.00000000000E+00 -0.00000000000E+00 -0.79921525832E+03  0.79921525833E+03  0.25500000000E-02 0. -1.
    8880023    1    1    2    0    0 -0.32489168136E+03 -0.24833551336E+03 -0.20473942833E+03  0.80184385736E+03  0.65864270000E+03 0. -1.
    8880022    1    1    2    0    0  0.32489168136E+03  0.24833551336E+03 -0.13488815324E+03  0.45695907772E+03  0.15294330000E+03 0. -1.
<mgrwt>
<rscale>  0 0.67159530E+03</rscale>
<asrwt>0</asrwt>
<pdfrwt beam="1">  1        2 0.12295619E+00 0.77526469E+03</pdfrwt>
<pdfrwt beam="2">  1       -2 0.70705797E-01 0.77526469E+03</pdfrwt>
<totfact> 0.63441871E+01</totfact>
</mgrwt>
</event>
<event>
 4    2  0.9070994E-007  0.7268557E+03  0.7818608E-02  0.9900036E-01
         -2   -1    0    0    0  501 -0.00000000000E+00  0.00000000000E+00  0.22384500908E+03  0.22384500909E+03  0.25500000000E-02 0.  1.
          2   -1    0    0  501    0  0.00000000000E+00 -0.00000000000E+00 -0.29562256011E+04  0.29562256011E+04  0.25500000000E-02 0. -1.
    8880023    1    1    2    0    0 -0.15834921605E+03 -0.26350424427E+03 -0.27418656863E+04  0.28365730396E+04  0.65864270000E+03 0. -1.
    8880022    1    1    2    0    0  0.15834921605E+03  0.26350424427E+03  0.94850942945E+01  0.34349757059E+03  0.15294330000E+03 0.  0.
<mgrwt>
<rscale>  0 0.60259517E+03</rscale>
<asrwt>0</asrwt>
<pdfrwt beam="1">  1        2 0.45480391E+00 0.72685567E+03</pdfrwt>
<pdfrwt beam="2">  1       -2 0.34437696E-01 0.72685567E+03</pdfrwt>
<totfact> 0.15583528E+01</totfact>
</mgrwt>
</event>
<event>
 4    2  0.9070994E-007  0.6711299E+03  0.7818608E-02  0.1014865E+00
          2   -1    0    0  501    0  0.00000000000E+00  0.00000000000E+00  0.85758953782E+03  0.85758953782E+03  0.25500000000E-02 0. -1.
         -2   -1    0    0    0  501 -0.00000000000E+00 -0.00000000000E+00 -0.87324890289E+03  0.87324890289E+03  0.25500000000E-02 0.  1.
    8880023    1    1    2    0    0 -0.61962116602E+02 -0.11298601918E+03  0.71066912024E+03  0.97747938554E+03  0.65864270000E+03 0. -1.
    8880022    1    1    2    0    0  0.61962116602E+02  0.11298601918E+03 -0.72632848531E+03  0.75335905518E+03  0.15294330000E+03 0.  0.
<mgrwt>
<rscale>  0 0.49585888E+03</rscale>
<asrwt>0</asrwt>
<pdfrwt beam="1">  1        2 0.13193685E+00 0.67112991E+03</pdfrwt>
<pdfrwt beam="2">  1       -2 0.13434599E+00 0.67112991E+03</pdfrwt>
<totfact> 0.12839117E+01</totfact>
</mgrwt>
</event>
<event>
 4    2  0.9070994E-007  0.7134626E+03  0.7818608E-02  0.9945361E-01
          2   -1    0    0  501    0  0.00000000000E+00  0.00000000000E+00  0.11549137683E+04  0.11549137683E+04  0.25500000000E-02 0. -1.
         -2   -1    0    0    0  501 -0.00000000000E+00 -0.00000000000E+00 -0.63759580415E+03  0.63759580416E+03  0.25500000000E-02 0.  1.
    8880023    1    1    2    0    0  0.22883589161E+03 -0.15117134438E+03  0.99287253685E+03  0.12226302472E+04  0.65864270000E+03 0. -1.
    8880022    1    1    2    0    0 -0.22883589161E+03  0.15117134438E+03 -0.47555457274E+03  0.56987932523E+03  0.15294330000E+03 0.  0.
<mgrwt>
<rscale>  0 0.58112382E+03</rscale>
<asrwt>0</asrwt>
<pdfrwt beam="1">  1        2 0.17767904E+00 0.71346258E+03</pdfrwt>
<pdfrwt beam="2">  1       -2 0.98091663E-01 0.71346258E+03</pdfrwt>
<totfact> 0.17829852E+01</totfact>
</mgrwt>
</event>
<event>
 4    2  0.9070994E-007  0.6619999E+03  0.7818608E-02  0.1022195E+00
         -2   -1    0    0    0  501 -0.00000000000E+00  0.00000000000E+00  0.13924961248E+03  0.13924961251E+03  0.25500000000E-02 0.  1.
          2   -1    0    0  501    0  0.00000000000E+00 -0.00000000000E+00 -0.18683566859E+04  0.18683566859E+04  0.25500000000E-02 0. -1.
    8880023    1    1    2    0    0  0.31101247180E+02 -0.58875848945E+02 -0.17171848323E+04  0.18403715950E+04  0.65864270000E+03 0. -1.
    8880022    1    1    2    0    0 -0.31101247180E+02  0.58875848945E+02 -0.11922241092E+02  0.16723470337E+03  0.15294330000E+03 0.  1.
<mgrwt>
<rscale>  0 0.46902764E+03</rscale>
<asrwt>0</asrwt>
<pdfrwt beam="1">  1        2 0.28743947E+00 0.66199989E+03</pdfrwt>
<pdfrwt beam="2">  1       -2 0.21423019E-01 0.66199989E+03</pdfrwt>
<totfact> 0.15406694E+02</totfact>
</mgrwt>
</event>
<event>
 4    2  0.9070994E-007  0.6922735E+03  0.7818608E-02  0.1003090E+00
         -2   -1    0    0    0  501 -0.00000000000E+00  0.00000000000E+00  0.10988888784E+04  0.10988888784E+04  0.25500000000E-02 0.  1.
          2   -1    0    0  501    0  0.00000000000E+00 -0.00000000000E+00 -0.15838843178E+04  0.15838843178E+04  0.25500000000E-02 0. -1.
    8880023    1    1    2    0    0 -0.20821544017E+03  0.45592642747E+02 -0.14905999426E+04  0.16435117139E+04  0.65864270000E+03 0. -1.
    8880022    1    1    2    0    0  0.20821544017E+03 -0.45592642747E+02  0.10056045033E+04  0.10392614823E+04  0.15294330000E+03 0.  0.
<mgrwt>
<rscale>  0 0.54315748E+03</rscale>
<asrwt>0</asrwt>
<pdfrwt beam="1">  1        2 0.24367451E+00 0.69227348E+03</pdfrwt>
<pdfrwt beam="2">  1       -2 0.16905983E+00 0.69227348E+03</pdfrwt>
<totfact> 0.25645397E+00</totfact>
</mgrwt>
</event>
<event>
 4    2  0.9070994E-007  0.7171943E+03  0.7818608E-02  0.9932196E-01
         -2   -1    0    0    0  501 -0.00000000000E+00  0.00000000000E+00  0.23346270160E+03  0.23346270162E+03  0.25500000000E-02 0.  1.
          2   -1    0    0  501    0  0.00000000000E+00 -0.00000000000E+00 -0.18082418712E+04  0.18082418712E+04  0.25500000000E-02 0. -1.
    8880023    1    1    2    0    0  0.17068417094E+03  0.22676948264E+03 -0.15622965956E+04  0.17190515825E+04  0.65864270000E+03 0. -1.
    8880022    1    1    2    0    0 -0.17068417094E+03 -0.22676948264E+03 -0.12482573970E+02  0.32265299028E+03  0.15294330000E+03 0.  0.
<mgrwt>
<rscale>  0 0.58725976E+03</rscale>
<asrwt>0</asrwt>
<pdfrwt beam="1">  1        2 0.27819105E+00 0.71719432E+03</pdfrwt>
<pdfrwt beam="2">  1       -2 0.35917340E-01 0.71719432E+03</pdfrwt>
<totfact> 0.64039818E+01</totfact>
</mgrwt>
</event>
<event>
 4    2  0.9070994E-007  0.6653614E+03  0.7818608E-02  0.1019232E+00
          2   -1    0    0  501    0  0.00000000000E+00  0.00000000000E+00  0.10138720633E+04  0.10138720633E+04  0.25500000000E-02 0. -1.
         -2   -1    0    0    0  501 -0.00000000000E+00 -0.00000000000E+00 -0.36111466960E+03  0.36111466961E+03  0.25500000000E-02 0.  1.
    8880023    1    1    2    0    0 -0.88635585929E+02  0.32238963748E+02  0.86859091584E+03  0.10941462440E+04  0.65864270000E+03 0. -1.
    8880022    1    1    2    0    0  0.88635585929E+02 -0.32238963748E+02 -0.21583352219E+03  0.28084048888E+03  0.15294330000E+03 0.  0.
<mgrwt>
<rscale>  0 0.47964744E+03</rscale>
<asrwt>0</asrwt>
<pdfrwt beam="1">  1        2 0.15598031E+00 0.66536142E+03</pdfrwt>
<pdfrwt beam="2">  1       -2 0.55556104E-01 0.66536142E+03</pdfrwt>
<totfact> 0.76770551E+01</totfact>
</mgrwt>
</event>
<event>
 4    2  0.9070994E-007  0.6994270E+03  0.7818608E-02  0.9999586E-01
         -2   -1    0    0    0  501 -0.00000000000E+00  0.00000000000E+00  0.54207861685E+03  0.54207861686E+03  0.25500000000E-02 0.  1.
          2   -1    0    0  501    0  0.00000000000E+00 -0.00000000000E+00 -0.98791391179E+03  0.98791391180E+03  0.25500000000E-02 0. -1.
    8880023    1    1    2    0    0 -0.81781344466E+02  0.22068031038E+03 -0.81001854806E+03  0.10702000944E+04  0.65864270000E+03 0. -1.
    8880022    1    1    2    0    0  0.81781344466E+02 -0.22068031038E+03  0.36418325311E+03  0.45979243421E+03  0.15294330000E+03 0.  0.
<mgrwt>
<rscale>  0 0.55668378E+03</rscale>
<asrwt>0</asrwt>
<pdfrwt beam="1">  1        2 0.15198676E+00 0.69942705E+03</pdfrwt>
<pdfrwt beam="2">  1       -2 0.83396710E-01 0.69942705E+03</pdfrwt>
<totfact> 0.32943617E+01</totfact>
</mgrwt>
</event>
<event>
 4    2  0.9070994E-007  0.7344105E+03  0.7818608E-02  0.9876538E-01
          2   -1    0    0  501    0  0.00000000000E+00  0.00000000000E+00  0.79067090375E+03  0.79067090375E+03  0.25500000000E-02 0. -1.
         -2   -1    0    0    0  501 -0.00000000000E+00 -0.00000000000E+00 -0.51843359355E+03  0.51843359356E+03  0.25500000000E-02 0.  1.
    8880023    1    1    2    0    0  0.24009135986E+03  0.21887145957E+03  0.49581169435E+03  0.88610835647E+03  0.65864270000E+03 0. -1.
    8880022    1    1    2    0    0 -0.24009135986E+03 -0.21887145957E+03 -0.22357438416E+03  0.42299614084E+03  0.15294330000E+03 0.  0.
<mgrwt>
<rscale>  0 0.61411925E+03</rscale>
<asrwt>0</asrwt>
<pdfrwt beam="1">  1        2 0.12164168E+00 0.73441050E+03</pdfrwt>
<pdfrwt beam="2">  1       -2 0.79759014E-01 0.73441050E+03</pdfrwt>
<totfact> 0.49416502E+01</totfact>
</mgrwt>
</event>
<event>
 4    2  0.9070994E-007  0.6714895E+03  0.7818608E-02  0.1014617E+00
          2   -1    0    0  501    0  0.00000000000E+00  0.00000000000E+00  0.28265804107E+04  0.28265804107E+04  0.25500000000E-02 0. -1.
         -2   -1    0    0    0  501 -0.00000000000E+00 -0.00000000000E+00 -0.13012191795E+03  0.13012191798E+03  0.25500000000E-02 0.  1.
    8880023    1    1    2    0    0 -0.11926168634E+03  0.53521323960E+02  0.26707506473E+04  0.27538712948E+04  0.65864270000E+03 0.  0.
    8880022    1    1    2    0    0  0.11926168634E+03 -0.53521323960E+02  0.25707845358E+02  0.20283103380E+03  0.15294330000E+03 0.  0.
<mgrwt>
<rscale>  0 0.49680257E+03</rscale>
<asrwt>0</asrwt>
<pdfrwt beam="1">  1        2 0.43485847E+00 0.67148946E+03</pdfrwt>
<pdfrwt beam="2">  1       -2 0.20018759E-01 0.67148946E+03</pdfrwt>
<totfact> 0.50427663E+01</totfact>
</mgrwt>
</event>
<event>
 4    2  0.9070994E-007  0.9652450E+03  0.7818608E-02  0.9428511E-01
         -2   -1    0    0    0  501 -0.00000000000E+00  0.00000000000E+00  0.25879057179E+03  0.25879057180E+03  0.25500000000E-02 0.  1.
          2   -1    0    0  501    0  0.00000000000E+00 -0.00000000000E+00 -0.30521025734E+04  0.30521025734E+04  0.25500000000E-02 0. -1.
    8880023    1    1    2    0    0  0.58947394852E+03  0.38782504115E+03 -0.20939386611E+04  0.23057053413E+04  0.65864270000E+03 0. -1.
    8880022    1    1    2    0    0 -0.58947394852E+03 -0.38782504115E+03 -0.69937334051E+03  0.10051878038E+04  0.15294330000E+03 0.  0.
<mgrwt>
<rscale>  0 0.89766029E+03</rscale>
<asrwt>0</asrwt>
<pdfrwt beam="1">  1        2 0.46955422E+00 0.96524505E+03</pdfrwt>
<pdfrwt beam="2">  1       -2 0.39813936E-01 0.96524505E+03</pdfrwt>
<totfact> 0.99165526E+00</totfact>
</mgrwt>
</event>
<event>
 4    2  0.9070994E-007  0.8635255E+03  0.7818608E-02  0.9587323E-01
         -2   -1    0    0    0  501 -0.00000000000E+00  0.00000000000E+00  0.25959838430E+03  0.25959838431E+03  0.25500000000E-02 0.  1.
          2   -1    0    0  501    0  0.00000000000E+00 -0.00000000000E+00 -0.22030781526E+04  0.22030781526E+04  0.25500000000E-02 0. -1.
    8880023    1    1    2    0    0 -0.28029220855E+03  0.48301389680E+03 -0.15096310796E+04  0.17391556427E+04  0.65864270000E+03 0. -1.
    8880022    1    1    2    0    0  0.28029220855E+03 -0.48301389680E+03 -0.43384868864E+03  0.72352089419E+03  0.15294330000E+03 0.  0.
<mgrwt>
<rscale>  0 0.78140961E+03</rscale>
<asrwt>0</asrwt>
<pdfrwt beam="1">  1        2 0.33893509E+00 0.86352554E+03</pdfrwt>
<pdfrwt beam="2">  1       -2 0.39938214E-01 0.86352554E+03</pdfrwt>
<totfact> 0.31175365E+01</totfact>
</mgrwt>
</event>
<event>
 4    2  0.9070994E-007  0.1003685E+04  0.7818608E-02  0.9376752E-01
         -2   -1    0    0    0  501 -0.00000000000E+00  0.00000000000E+00  0.94418735645E+03  0.94418735645E+03  0.25500000000E-02 0.  1.
          2   -1    0    0  501    0  0.00000000000E+00 -0.00000000000E+00 -0.14058658207E+04  0.14058658207E+04  0.25500000000E-02 0. -1.
    8880023    1    1    2    0    0 -0.46550647391E+02 -0.75591488202E+03 -0.99337000685E+03  0.14121502924E+04  0.65864270000E+03 0.  0.
    8880022    1    1    2    0    0  0.46550647391E+02  0.75591488202E+03  0.53169154261E+03  0.93790288471E+03  0.15294330000E+03 0.  0.
<mgrwt>
<rscale>  0 0.94013866E+03</rscale>
<asrwt>0</asrwt>
<pdfrwt beam="1">  1        2 0.21628705E+00 0.10036854E+04</pdfrwt>
<pdfrwt beam="2">  1       -2 0.14525959E+00 0.10036854E+04</pdfrwt>
<totfact> 0.46450008E+00</totfact>
</mgrwt>
</event>
<event>
 4    2  0.9070994E-007  0.7222162E+03  0.7818608E-02  0.9915157E-01
         -2   -1    0    0    0  501 -0.00000000000E+00  0.00000000000E+00  0.12921984867E+04  0.12921984867E+04  0.25500000000E-02 0.  1.
          2   -1    0    0  501    0  0.00000000000E+00 -0.00000000000E+00 -0.72577124104E+03  0.72577124104E+03  0.25500000000E-02 0. -1.
    8880023    1    1    2    0    0 -0.25173493982E+03 -0.15625478769E+03 -0.51452906657E+03  0.88675611372E+03  0.65864270000E+03 0. -1.
    8880022    1    1    2    0    0  0.25173493982E+03  0.15625478769E+03  0.10809563122E+04  0.11312136140E+04  0.15294330000E+03 0.  0.
<mgrwt>
<rscale>  0 0.59532295E+03</rscale>
<asrwt>0</asrwt>
<pdfrwt beam="1">  1        2 0.11165712E+00 0.72221620E+03</pdfrwt>
<pdfrwt beam="2">  1       -2 0.19879976E+00 0.72221620E+03</pdfrwt>
<totfact> 0.54300905E+00</totfact>
</mgrwt>
</event>
<event>
 4    2  0.9070994E-007  0.1252239E+04  0.7818608E-02  0.9107943E-01
          2   -1    0    0  501    0  0.00000000000E+00  0.00000000000E+00  0.10257992677E+04  0.10257992677E+04  0.25500000000E-02 0. -1.
         -2   -1    0    0    0  501 -0.00000000000E+00 -0.00000000000E+00 -0.19882027984E+04  0.19882027984E+04  0.25500000000E-02 0.  1.
    8880023    1    1    2    0    0 -0.45229971978E+03 -0.96421782779E+03  0.36589408897E+03  0.13045994583E+04  0.65864270000E+03 0.  0.
    8880022    1    1    2    0    0  0.45229971978E+03  0.96421782779E+03 -0.13282976198E+04  0.17094026078E+04  0.15294330000E+03 0.  0.
<mgrwt>
<rscale>  0 0.12056298E+04</rscale>
<asrwt>0</asrwt>
<pdfrwt beam="1">  1        2 0.15781527E+00 0.12522385E+04</pdfrwt>
<pdfrwt beam="2">  1       -2 0.30587735E+00 0.12522385E+04</pdfrwt>
<totfact> 0.68978697E-01</totfact>
</mgrwt>
</event>
<event>
 4    2  0.9070994E-007  0.6743560E+03  0.7818608E-02  0.1012715E+00
         -2   -1    0    0    0  501 -0.00000000000E+00  0.00000000000E+00  0.73679425613E+03  0.73679425613E+03  0.25500000000E-02 0.  1.
          2   -1    0    0  501    0  0.00000000000E+00 -0.00000000000E+00 -0.65059790446E+03  0.65059790447E+03  0.25500000000E-02 0. -1.
    8880023    1    1    2    0    0 -0.14430236648E+03  0.11073311626E+02 -0.45041713085E+03  0.81094487434E+03  0.65864270000E+03 0. -1.
    8880022    1    1    2    0    0  0.14430236648E+03 -0.11073311626E+02  0.53661348251E+03  0.57644728625E+03  0.15294330000E+03 0.  0.
<mgrwt>
<rscale>  0 0.50409599E+03</rscale>
<asrwt>0</asrwt>
<pdfrwt beam="1">  1        2 0.10009199E+00 0.67435599E+03</pdfrwt>
<pdfrwt beam="2">  1       -2 0.11335296E+00 0.67435599E+03</pdfrwt>
<totfact> 0.27980769E+01</totfact>
</mgrwt>
</event>
<event>
 4    2  0.9070994E-007  0.7369257E+03  0.7818608E-02  0.9868995E-01
          2   -1    0    0  501    0  0.00000000000E+00  0.00000000000E+00  0.12365732191E+04  0.12365732191E+04  0.25500000000E-02 0. -1.
         -2   -1    0    0    0  501 -0.00000000000E+00 -0.00000000000E+00 -0.33478464742E+03  0.33478464742E+03  0.25500000000E-02 0.  1.
    8880023    1    1    2    0    0  0.28855468659E+03  0.16119998684E+03  0.95180452874E+03  0.12037405493E+04  0.65864270000E+03 0.  0.
    8880022    1    1    2    0    0 -0.28855468659E+03 -0.16119998684E+03 -0.50015957077E+02  0.36761731717E+03  0.15294330000E+03 0.  1.
<mgrwt>
<rscale>  0 0.61787759E+03</rscale>
<asrwt>0</asrwt>
<pdfrwt beam="1">  1        2 0.19024203E+00 0.73692567E+03</pdfrwt>
<pdfrwt beam="2">  1       -2 0.51505330E-01 0.73692567E+03</pdfrwt>
<totfact> 0.65338787E+01</totfact>
</mgrwt>
</event>
<event>
 4    2  0.9070994E-007  0.1645214E+04  0.7818608E-02  0.8813366E-01
          2   -1    0    0  501    0  0.00000000000E+00  0.00000000000E+00  0.44108001777E+04  0.44108001777E+04  0.25500000000E-02 0. -1.
         -2   -1    0    0    0  501 -0.00000000000E+00 -0.00000000000E+00 -0.73526892416E+03  0.73526892417E+03  0.25500000000E-02 0.  1.
    8880023    1    1    2    0    0  0.41294398507E+03 -0.14499646279E+04  0.66280880485E+03  0.17737096366E+04  0.65864270000E+03 0.  0.
    8880022    1    1    2    0    0 -0.41294398507E+03  0.14499646279E+04  0.30127224487E+04  0.33723594653E+04  0.15294330000E+03 0.  0.
<mgrwt>
<rscale>  0 0.16117428E+04</rscale>
<asrwt>0</asrwt>
<pdfrwt beam="1">  1        2 0.67858464E+00 0.16452144E+04</pdfrwt>
<pdfrwt beam="2">  1       -2 0.11311830E+00 0.16452144E+04</pdfrwt>
<totfact> 0.88022053E-02</totfact>
</mgrwt>
</event>
<event>
 4    2  0.9070994E-007  0.6909800E+03  0.7818608E-02  0.1003690E+00
          2   -1    0    0  501    0  0.00000000000E+00  0.00000000000E+00  0.17350814787E+04  0.17350814787E+04  0.25500000000E-02 0. -1.
         -2   -1    0    0    0  501 -0.00000000000E+00 -0.00000000000E+00 -0.25194090938E+03  0.25194090939E+03  0.25500000000E-02 0.  1.
    8880023    1    1    2    0    0  0.20252065261E+03 -0.51269830422E+02  0.15688639840E+04  0.17142892454E+04  0.65864270000E+03 0. -1.
    8880022    1    1    2    0    0 -0.20252065261E+03  0.51269830422E+02 -0.85723414752E+02  0.27273314264E+03  0.15294330000E+03 0.  0.
<mgrwt>
<rscale>  0 0.54061329E+03</rscale>
<asrwt>0</asrwt>
<pdfrwt beam="1">  1        2 0.26693562E+00 0.69098004E+03</pdfrwt>
<pdfrwt beam="2">  1       -2 0.38760139E-01 0.69098004E+03</pdfrwt>
<totfact> 0.60810548E+01</totfact>
</mgrwt>
</event>
<event>
 4    2  0.9070994E-007  0.9699936E+03  0.7818608E-02  0.9421913E-01
         -2   -1    0    0    0  501 -0.00000000000E+00  0.00000000000E+00  0.92215747370E+03  0.92215747370E+03  0.25500000000E-02 0.  1.
          2   -1    0    0  501    0  0.00000000000E+00 -0.00000000000E+00 -0.98574053952E+03  0.98574053953E+03  0.25500000000E-02 0. -1.
    8880023    1    1    2    0    0  0.21585604088E+03  0.67858936988E+03 -0.46563209171E+03  0.10759650619E+04  0.65864270000E+03 0. -1.
    8880022    1    1    2    0    0 -0.21585604088E+03 -0.67858936988E+03  0.40204902589E+03  0.83193295134E+03  0.15294330000E+03 0.  0.
<mgrwt>
<rscale>  0 0.90294054E+03</rscale>
<asrwt>0</asrwt>
<pdfrwt beam="1">  1        2 0.15165239E+00 0.96999359E+03</pdfrwt>
<pdfrwt beam="2">  1       -2 0.14187038E+00 0.96999359E+03</pdfrwt>
<totfact> 0.88753884E+00</totfact>
</mgrwt>
</event>
<event>
 4    2  0.9070994E-007  0.9422584E+03  0.7818608E-02  0.9461341E-01
          2   -1    0    0  501    0  0.00000000000E+00  0.00000000000E+00  0.53436951844E+03  0.53436951845E+03  0.25500000000E-02 0. -1.
         -2   -1    0    0    0  501 -0.00000000000E+00 -0.00000000000E+00 -0.24306289402E+04  0.24306289402E+04  0.25500000000E-02 0.  1.
    8880023    1    1    2    0    0  0.65946315725E+03 -0.13837971470E+03 -0.20508487274E+04  0.22569517740E+04  0.65864270000E+03 0.  1.
    8880022    1    1    2    0    0 -0.65946315725E+03  0.13837971470E+03  0.15458930565E+03  0.70804668465E+03  0.15294330000E+03 0.  0.
<mgrwt>
<rscale>  0 0.87194977E+03</rscale>
<asrwt>0</asrwt>
<pdfrwt beam="1">  1        2 0.82210696E-01 0.94225835E+03</pdfrwt>
<pdfrwt beam="2">  1       -2 0.37394291E+00 0.94225835E+03</pdfrwt>
<totfact> 0.64006881E-01</totfact>
</mgrwt>
</event>
<event>
 4    2  0.9070994E-007  0.6652380E+03  0.7818608E-02  0.1019335E+00
         -2   -1    0    0    0  501 -0.00000000000E+00  0.00000000000E+00  0.37902169613E+03  0.37902169613E+03  0.25500000000E-02 0.  1.
          2   -1    0    0  501    0  0.00000000000E+00 -0.00000000000E+00 -0.72144034529E+03  0.72144034530E+03  0.25500000000E-02 0. -1.
    8880023    1    1    2    0    0 -0.71140129392E+02 -0.60584395998E+02 -0.52286920325E+03  0.84612871185E+03  0.65864270000E+03 0. -1.
    8880022    1    1    2    0    0  0.71140129392E+02  0.60584395998E+02  0.18045055409E+03  0.25433332958E+03  0.15294330000E+03 0.  0.
<mgrwt>
<rscale>  0 0.47927510E+03</rscale>
<asrwt>0</asrwt>
<pdfrwt beam="1">  1        2 0.11099082E+00 0.66523800E+03</pdfrwt>
<pdfrwt beam="2">  1       -2 0.58311030E-01 0.66523800E+03</pdfrwt>
<totfact> 0.11032774E+02</totfact>
</mgrwt>
</event>
<event>
 4    2  0.9070994E-007  0.7244279E+03  0.7818608E-02  0.9907879E-01
         -2   -1    0    0    0  501 -0.00000000000E+00  0.00000000000E+00  0.21215497362E+04  0.21215497362E+04  0.25500000000E-02 0.  1.
          2   -1    0    0  501    0  0.00000000000E+00 -0.00000000000E+00 -0.14788514244E+03  0.14788514246E+03  0.25500000000E-02 0. -1.
    8880023    1    1    2    0    0 -0.10543747424E+03 -0.28261018973E+03  0.97230941391E+03  0.12125103641E+04  0.65864270000E+03 0. -1.
    8880022    1    1    2    0    0  0.10543747424E+03  0.28261018973E+03  0.10013551798E+04  0.10569245146E+04  0.15294330000E+03 0. -1.
<mgrwt>
<rscale>  0 0.59880970E+03</rscale>
<asrwt>0</asrwt>
<pdfrwt beam="1">  1        2 0.22751561E-01 0.72442790E+03</pdfrwt>
<pdfrwt beam="2">  1       -2 0.32639225E+00 0.72442790E+03</pdfrwt>
<totfact> 0.56019445E+00</totfact>
</mgrwt>
</event>
<event>
 4    2  0.9070994E-007  0.8503479E+03  0.7818608E-02  0.9610969E-01
          2   -1    0    0  501    0  0.00000000000E+00  0.00000000000E+00  0.23501477320E+03  0.23501477322E+03  0.25500000000E-02 0. -1.
         -2   -1    0    0    0  501 -0.00000000000E+00 -0.00000000000E+00 -0.30787050091E+04  0.30787050091E+04  0.25500000000E-02 0.  1.
    8880023    1    1    2    0    0 -0.47392011570E+03  0.25432457147E+03 -0.70942139458E+03  0.11074159946E+04  0.65864270000E+03 0.  0.
    8880022    1    1    2    0    0  0.47392011570E+03 -0.25432457147E+03 -0.21342688413E+04  0.22063037877E+04  0.15294330000E+03 0.  0.
<mgrwt>
<rscale>  0 0.76574426E+03</rscale>
<asrwt>0</asrwt>
<pdfrwt beam="1">  1        2 0.36156121E-01 0.85034785E+03</pdfrwt>
<pdfrwt beam="2">  1       -2 0.47364690E+00 0.85034785E+03</pdfrwt>
<totfact> 0.36546942E-01</totfact>
</mgrwt>
</event>
<event>
 4    2  0.9070994E-007  0.6617393E+03  0.7818608E-02  0.1022441E+00
         -2   -1    0    0    0  501 -0.00000000000E+00  0.00000000000E+00  0.20847586825E+03  0.20847586827E+03  0.25500000000E-02 0.  1.
          2   -1    0    0  501    0  0.00000000000E+00 -0.00000000000E+00 -0.14545927948E+04  0.14545927948E+04  0.25500000000E-02 0. -1.
    8880023    1    1    2    0    0  0.12373300804E+02  0.62734135499E+02 -0.13238122522E+04  0.14799924850E+04  0.65864270000E+03 0. -1.
    8880022    1    1    2    0    0 -0.12373300804E+02 -0.62734135499E+02  0.77695325657E+02  0.18307617806E+03  0.15294330000E+03 0.  0.
<mgrwt>
<rscale>  0 0.46815850E+03</rscale>
<asrwt>0</asrwt>
<pdfrwt beam="1">  1        2 0.22378350E+00 0.66173928E+03</pdfrwt>
<pdfrwt beam="2">  1       -2 0.32073211E-01 0.66173928E+03</pdfrwt>
<totfact> 0.12480370E+02</totfact>
</mgrwt>
</event>
<event>
 4    2  0.9070994E-007  0.9279560E+03  0.7818608E-02  0.9482566E-01
          2   -1    0    0  501    0  0.00000000000E+00  0.00000000000E+00  0.31653321577E+03  0.31653321578E+03  0.25500000000E-02 0. -1.
         -2   -1    0    0    0  501 -0.00000000000E+00 -0.00000000000E+00 -0.21715211605E+04  0.21715211605E+04  0.25500000000E-02 0.  1.
    8880023    1    1    2    0    0  0.45482944350E+03  0.46949158249E+03 -0.74139871380E+03  0.11877602569E+04  0.65864270000E+03 0. -1.
    8880022    1    1    2    0    0 -0.45482944350E+03 -0.46949158249E+03 -0.11135892309E+04  0.13002941194E+04  0.15294330000E+03 0.  1.
<mgrwt>
<rscale>  0 0.85581430E+03</rscale>
<asrwt>0</asrwt>
<pdfrwt beam="1">  1        2 0.48697419E-01 0.92795602E+03</pdfrwt>
<pdfrwt beam="2">  1       -2 0.33408017E+00 0.92795602E+03</pdfrwt>
<totfact> 0.20717214E+00</totfact>
</mgrwt>
</event>
<event>
 4    2  0.9070994E-007  0.6588141E+03  0.7818608E-02  0.1025406E+00
         -2   -1    0    0    0  501 -0.00000000000E+00  0.00000000000E+00  0.19711219772E+04  0.19711219772E+04  0.25500000000E-02 0.  1.
          2   -1    0    0  501    0  0.00000000000E+00 -0.00000000000E+00 -0.42161122820E+03  0.42161122821E+03  0.25500000000E-02 0. -1.
    8880023    1    1    2    0    0  0.14630063251E+02  0.34405978358E+01 -0.15867106494E+03  0.67765226302E+03  0.65864270000E+03 0. -1.
    8880022    1    1    2    0    0 -0.14630063251E+02 -0.34405978358E+01  0.17081818139E+04  0.17150809424E+04  0.15294330000E+03 0.  0.
<mgrwt>
<rscale>  0 0.45785346E+03</rscale>
<asrwt>0</asrwt>
<pdfrwt beam="1">  1        2 0.64863266E-01 0.65881415E+03</pdfrwt>
<pdfrwt beam="2">  1       -2 0.30324953E+00 0.65881415E+03</pdfrwt>
<totfact> 0.24044632E+00</totfact>
</mgrwt>
</event>
<event>
 4    2  0.1016817E-006  0.7315295E+03  0.7818608E-02  0.9885345E-01
         -2   -1    0    0    0  501 -0.00000000000E+00  0.00000000000E+00  0.12607462339E+04  0.12607462339E+04  0.25500000000E-02 0.  1.
          2   -1    0    0  501    0  0.00000000000E+00 -0.00000000000E+00 -0.17444510645E+04  0.17444510645E+04  0.25500000000E-02 0. -1.
    8880023    1    1    2    0    0  0.26319496605E+03  0.17903532432E+03 -0.16402246155E+04  0.17959599753E+04  0.65864270000E+03 0. -1.
    8880022    1    1    2    0    0 -0.26319496605E+03 -0.17903532432E+03  0.11565197850E+04  0.12092373231E+04  0.15294330000E+03 0.  0.
<mgrwt>
<rscale>  0 0.60976789E+03</rscale>
<asrwt>0</asrwt>
<pdfrwt beam="1">  1        2 0.26837709E+00 0.73152952E+03</pdfrwt>
<pdfrwt beam="2">  1       -2 0.19396096E+00 0.73152952E+03</pdfrwt>
<totfact> 0.14053971E+00</totfact>
</mgrwt>
</event>
<event>
 4    2  0.9070994E-007  0.6699833E+03  0.7818608E-02  0.1015675E+00
         -2   -1    0    0    0  501 -0.00000000000E+00  0.00000000000E+00  0.39843200521E+03  0.39843200521E+03  0.25500000000E-02 0.  1.
          2   -1    0    0  501    0  0.00000000000E+00 -0.00000000000E+00 -0.68516581346E+03  0.68516581346E+03  0.25500000000E-02 0. -1.
    8880023    1    1    2    0    0  0.12752351212E+02 -0.12208537211E+03 -0.46743526104E+03  0.81692924423E+03  0.65864270000E+03 0. -1.
    8880022    1    1    2    0    0 -0.12752351212E+02  0.12208537211E+03  0.18070145279E+03  0.26666857445E+03  0.15294330000E+03 0.  0.
<mgrwt>
<rscale>  0 0.49280251E+03</rscale>
<asrwt>0</asrwt>
<pdfrwt beam="1">  1        2 0.10541013E+00 0.66998333E+03</pdfrwt>
<pdfrwt beam="2">  1       -2 0.61297232E-01 0.66998333E+03</pdfrwt>
<totfact> 0.10594462E+02</totfact>
</mgrwt>
</event>
<event>
 4    2  0.9070994E-007  0.8172096E+03  0.7818608E-02  0.9674751E-01
         -2   -1    0    0    0  501 -0.00000000000E+00  0.00000000000E+00  0.41170839176E+03  0.41170839177E+03  0.25500000000E-02 0.  1.
          2   -1    0    0  501    0  0.00000000000E+00 -0.00000000000E+00 -0.14392218730E+04  0.14392218730E+04  0.25500000000E-02 0. -1.
    8880023    1    1    2    0    0  0.17871538870E+03 -0.44953553360E+03 -0.10647477858E+04  0.13422069288E+04  0.65864270000E+03 0. -1.
    8880022    1    1    2    0    0 -0.17871538870E+03  0.44953553360E+03  0.37234304539E+02  0.50872333598E+03  0.15294330000E+03 0.  0.
<mgrwt>
<rscale>  0 0.72540230E+03</rscale>
<asrwt>0</asrwt>
<pdfrwt beam="1">  1        2 0.22141875E+00 0.81720964E+03</pdfrwt>
<pdfrwt beam="2">  1       -2 0.63339753E-01 0.81720964E+03</pdfrwt>
<totfact> 0.32187161E+01</totfact>
</mgrwt>
</event>
<event>
 4    2  0.1236774E-006  0.9803043E+03  0.7818608E-02  0.9407792E-01
          2   -1    0    0  501    0  0.00000000000E+00  0.00000000000E+00  0.29663199019E+04  0.29663199019E+04  0.25500000000E-02 0. -1.
         -2   -1    0    0    0  501 -0.00000000000E+00 -0.00000000000E+00 -0.13200844116E+04  0.13200844116E+04  0.25500000000E-02 0.  1.
    8880023    1    1    2    0    0  0.41470527405E+03 -0.59599144804E+03  0.27707992368E+04  0.29391027351E+04  0.65864270000E+03 0. -1.
    8880022    1    1    2    0    0 -0.41470527405E+03  0.59599144804E+03 -0.11245637464E+04  0.13473015784E+04  0.15294330000E+03 0.  0.
<mgrwt>
<rscale>  0 0.91437222E+03</rscale>
<asrwt>0</asrwt>
<pdfrwt beam="1">  1        2 0.45635690E+00 0.98030428E+03</pdfrwt>
<pdfrwt beam="2">  1       -2 0.20308991E+00 0.98030428E+03</pdfrwt>
<totfact> 0.23686479E-01</totfact>
</mgrwt>
</event>
<event>
 4    2  0.9070994E-007  0.7983748E+03  0.7818608E-02  0.9714321E-01
         -2   -1    0    0    0  501 -0.00000000000E+00  0.00000000000E+00  0.22158559145E+03  0.22158559146E+03  0.25500000000E-02 0.  1.
          2   -1    0    0  501    0  0.00000000000E+00 -0.00000000000E+00 -0.22461508796E+04  0.22461508796E+04  0.25500000000E-02 0. -1.
    8880023    1    1    2    0    0 -0.17721195908E+03  0.41495554850E+03 -0.17358653475E+04  0.19106624235E+04  0.65864270000E+03 0.  0.
    8880022    1    1    2    0    0  0.17721195908E+03 -0.41495554850E+03 -0.28869994056E+03  0.55707404748E+03  0.15294330000E+03 0.  0.
<mgrwt>
<rscale>  0 0.70170489E+03</rscale>
<asrwt>0</asrwt>
<pdfrwt beam="1">  1        2 0.34556166E+00 0.79837484E+03</pdfrwt>
<pdfrwt beam="2">  1       -2 0.34090093E-01 0.79837484E+03</pdfrwt>
<totfact> 0.40340860E+01</totfact>
</mgrwt>
</event>
<event>
 4    2  0.9070994E-007  0.6919319E+03  0.7818608E-02  0.1003248E+00
          2   -1    0    0  501    0  0.00000000000E+00  0.00000000000E+00  0.67912623717E+03  0.67912623717E+03  0.25500000000E-02 0. -1.
         -2   -1    0    0    0  501 -0.00000000000E+00 -0.00000000000E+00 -0.36978186984E+03  0.36978186985E+03  0.25500000000E-02 0.  1.
    8880023    1    1    2    0    0 -0.20912912678E+03 -0.34994582163E+02  0.36397092328E+03  0.78182136815E+03  0.65864270000E+03 0. -1.
    8880022    1    1    2    0    0  0.20912912678E+03  0.34994582163E+02 -0.54626555950E+02  0.26708673886E+03  0.15294330000E+03 0.  0.
<mgrwt>
<rscale>  0 0.54248890E+03</rscale>
<asrwt>0</asrwt>
<pdfrwt beam="1">  1        2 0.10448096E+00 0.69193195E+03</pdfrwt>
<pdfrwt beam="2">  1       -2 0.56889520E-01 0.69193195E+03</pdfrwt>
<totfact> 0.12513896E+02</totfact>
</mgrwt>
</event>
<event>
 4    2  0.9070994E-007  0.8035512E+03  0.7818608E-02  0.9703170E-01
         -2   -1    0    0    0  501 -0.00000000000E+00  0.00000000000E+00  0.13260830609E+04  0.13260830609E+04  0.25500000000E-02 0.  1.
          2   -1    0    0  501    0  0.00000000000E+00 -0.00000000000E+00 -0.11629440301E+04  0.11629440301E+04  0.25500000000E-02 0. -1.
    8880023    1    1    2    0    0  0.42825852644E+03 -0.16875711064E+03 -0.96812630206E+03  0.12581586032E+04  0.65864270000E+03 0. -1.
    8880022    1    1    2    0    0 -0.42825852644E+03  0.16875711064E+03  0.11312653328E+04  0.12308684877E+04  0.15294330000E+03 0.  0.
<mgrwt>
<rscale>  0 0.70828389E+03</rscale>
<asrwt>0</asrwt>
<pdfrwt beam="1">  1        2 0.17891447E+00 0.80355120E+03</pdfrwt>
<pdfrwt beam="2">  1       -2 0.20401278E+00 0.80355120E+03</pdfrwt>
<totfact> 0.25429443E+00</totfact>
</mgrwt>
</event>
<event>
 4    2  0.9070994E-007  0.8457182E+03  0.7818608E-02  0.9619491E-01
         -2   -1    0    0    0  501 -0.00000000000E+00  0.00000000000E+00  0.10666748411E+04  0.10666748412E+04  0.25500000000E-02 0.  1.
          2   -1    0    0  501    0  0.00000000000E+00 -0.00000000000E+00 -0.64168861919E+03  0.64168861920E+03  0.25500000000E-02 0. -1.
    8880023    1    1    2    0    0  0.41784704867E+03 -0.32685298796E+03 -0.20548259283E+03  0.87032312048E+03  0.65864270000E+03 0.  0.
    8880022    1    1    2    0    0 -0.41784704867E+03  0.32685298796E+03  0.63046881478E+03  0.83804033987E+03  0.15294330000E+03 0.  0.
<mgrwt>
<rscale>  0 0.76019464E+03</rscale>
<asrwt>0</asrwt>
<pdfrwt beam="1">  1        2 0.98721327E-01 0.84571818E+03</pdfrwt>
<pdfrwt beam="2">  1       -2 0.16410382E+00 0.84571818E+03</pdfrwt>
<totfact> 0.10803619E+01</totfact>
</mgrwt>
</event>
