<event>
 4    1  0.2701205E-007  0.6620068E+03  0.7818608E-02  0.1022188E+00
         -2   -1    0    0    0  501 -0.00000000000E+00  0.00000000000E+00  0.11915820333E+03  0.11915820335E+03  0.25500000000E-02 0.  1.
          2   -1    0    0  501    0  0.00000000000E+00 -0.00000000000E+00 -0.17163943851E+04  0.17163943851E+04  0.25500000000E-02 0. -1.
    8880023    1    1    2    0    0 -0.62990328770E+02 -0.21796004828E+02 -0.15067281816E+04  0.16457469024E+04  0.65864270000E+03 0. -1.
    8880022    1    1    2    0    0  0.62990328770E+02  0.21796004828E+02 -0.90508000198E+02  0.18980568606E+03  0.15294330000E+03 0.  0.
<mgrwt>
<rscale>  0 0.46905070E+03</rscale>
<asrwt>0</asrwt>
<pdfrwt beam="1">  1        2 0.26406066E+00 0.66200684E+03</pdfrwt>
<pdfrwt beam="2">  1       -2 0.18332032E-01 0.66200684E+03</pdfrwt>
<totfact> 0.24452692E+02</totfact>
</mgrwt>
</event>
<event>
 4    1  0.2701205E-007  0.1300468E+04  0.7818608E-02  0.9065156E-01
          2   -1    0    0  501    0  0.00000000000E+00  0.00000000000E+00  0.13837110441E+04  0.13837110441E+04  0.25500000000E-02 0. -1.
         -2   -1    0    0    0  501 -0.00000000000E+00 -0.00000000000E+00 -0.15820401415E+04  0.15820401415E+04  0.25500000000E-02 0.  1.
    8880023    1    1    2    0    0  0.88660631349E+03  0.68653976574E+03  0.73943537828E+03  0.14959888001E+04  0.65864270000E+03 0.  0.
    8880022    1    1    2    0    0 -0.88660631349E+03 -0.68653976574E+03 -0.93776447563E+03  0.14697623855E+04  0.15294330000E+03 0.  0.
<mgrwt>
<rscale>  0 0.12560588E+04</rscale>
<asrwt>0</asrwt>
<pdfrwt beam="1">  1        2 0.21287862E+00 0.13004683E+04</pdfrwt>
<pdfrwt beam="2">  1       -2 0.24339079E+00 0.13004683E+04</pdfrwt>
<totfact> 0.10025195E+00</totfact>
</mgrwt>
</event>
<event>
 4    1  0.2701205E-007  0.7804806E+03  0.7818608E-02  0.9754709E-01
          2   -1    0    0  501    0  0.00000000000E+00  0.00000000000E+00  0.13897103945E+04  0.13897103945E+04  0.25500000000E-02 0. -1.
         -2   -1    0    0    0  501 -0.00000000000E+00 -0.00000000000E+00 -0.19057112751E+04  0.19057112751E+04  0.25500000000E-02 0.  1.
    8880023    1    1    2    0    0 -0.40797413373E+03 -0.94323037062E+02  0.12502045366E+04  0.14738254031E+04  0.65864270000E+03 0. -1.
    8880022    1    1    2    0    0  0.40797413373E+03  0.94323037062E+02 -0.17662054173E+04  0.18215962665E+04  0.15294330000E+03 0.  0.
<mgrwt>
<rscale>  0 0.67850786E+03</rscale>
<asrwt>0</asrwt>
<pdfrwt beam="1">  1        2 0.21380160E+00 0.78048058E+03</pdfrwt>
<pdfrwt beam="2">  1       -2 0.29318635E+00 0.78048058E+03</pdfrwt>
<totfact> 0.53586430E-01</totfact>
</mgrwt>
</event>
<event>
 4    1  0.2701205E-007  0.1025185E+04  0.7818608E-02  0.9349325E-01
         -2   -1    0    0    0  501 -0.00000000000E+00  0.00000000000E+00  0.73968236225E+03  0.73968236225E+03  0.25500000000E-02 0.  1.
          2   -1    0    0  501    0  0.00000000000E+00 -0.00000000000E+00 -0.18392827233E+04  0.18392827233E+04  0.25500000000E-02 0. -1.
    8880023    1    1    2    0    0 -0.13222562447E+03  0.77440992668E+03  0.20779954859E+03  0.10460330822E+04  0.65864270000E+03 0.  1.
    8880022    1    1    2    0    0  0.13222562447E+03 -0.77440992668E+03 -0.13073999097E+04  0.15329320034E+04  0.15294330000E+03 0.  0.
<mgrwt>
<rscale>  0 0.96366016E+03</rscale>
<asrwt>0</asrwt>
<pdfrwt beam="1">  1        2 0.28296657E+00 0.10251851E+04</pdfrwt>
<pdfrwt beam="2">  1       -2 0.11379729E+00 0.10251851E+04</pdfrwt>
<totfact> 0.49375618E+00</totfact>
</mgrwt>
</event>
<event>
 4    1  0.2701205E-007  0.9005840E+03  0.7818608E-02  0.9525095E-01
         -2   -1    0    0    0  501 -0.00000000000E+00  0.00000000000E+00  0.13630226573E+04  0.13630226573E+04  0.25500000000E-02 0.  1.
          2   -1    0    0  501    0  0.00000000000E+00 -0.00000000000E+00 -0.53038306226E+03  0.53038306227E+03  0.25500000000E-02 0. -1.
    8880023    1    1    2    0    0  0.30840170129E+02 -0.61342495218E+03  0.87939642403E+03  0.12587253731E+04  0.65864270000E+03 0.  1.
    8880022    1    1    2    0    0 -0.30840170129E+02  0.61342495218E+03 -0.46756829039E+02  0.63468034641E+03  0.15294330000E+03 0.  0.
<mgrwt>
<rscale>  0 0.82458702E+03</rscale>
<asrwt>0</asrwt>
<pdfrwt beam="1">  1        2 0.81597395E-01 0.90058397E+03</pdfrwt>
<pdfrwt beam="2">  1       -2 0.20969579E+00 0.90058397E+03</pdfrwt>
<totfact> 0.66425771E+00</totfact>
</mgrwt>
</event>
<event>
 4    1  0.2701205E-007  0.1471466E+04  0.7818608E-02  0.8930052E-01
         -2   -1    0    0    0  501 -0.00000000000E+00  0.00000000000E+00  0.17795524969E+04  0.17795524969E+04  0.25500000000E-02 0.  1.
          2   -1    0    0  501    0  0.00000000000E+00 -0.00000000000E+00 -0.11116267103E+04  0.11116267103E+04  0.25500000000E-02 0. -1.
    8880023    1    1    2    0    0  0.86551718415E+03  0.99110154998E+03  0.50890023430E+03  0.15569816740E+04  0.65864270000E+03 0.  0.
    8880022    1    1    2    0    0 -0.86551718415E+03 -0.99110154998E+03  0.15902555232E+03  0.13341975333E+04  0.15294330000E+03 0.  0.
<mgrwt>
<rscale>  0 0.14333127E+04</rscale>
<asrwt>0</asrwt>
<pdfrwt beam="1">  1        2 0.17101949E+00 0.14714661E+04</pdfrwt>
<pdfrwt beam="2">  1       -2 0.27377731E+00 0.14714661E+04</pdfrwt>
<totfact> 0.93369593E-01</totfact>
</mgrwt>
</event>
<event>
 4    1  0.2701205E-007  0.1163966E+04  0.7818608E-02  0.9192972E-01
          2   -1    0    0  501    0  0.00000000000E+00  0.00000000000E+00  0.34429353865E+04  0.34429353865E+04  0.25500000000E-02 0. -1.
         -2   -1    0    0    0  501 -0.00000000000E+00 -0.00000000000E+00 -0.44944740861E+03  0.44944740862E+03  0.25500000000E-02 0.  1.
    8880023    1    1    2    0    0 -0.58877853513E+03  0.75785603519E+03  0.25911708144E+04  0.28405954181E+04  0.65864270000E+03 0. -1.
    8880022    1    1    2    0    0  0.58877853513E+03 -0.75785603519E+03  0.40231716352E+03  0.10517873771E+04  0.15294330000E+03 0.  0.
<mgrwt>
<rscale>  0 0.11126267E+04</rscale>
<asrwt>0</asrwt>
<pdfrwt beam="1">  1        2 0.52968238E+00 0.11639657E+04</pdfrwt>
<pdfrwt beam="2">  1       -2 0.69145753E-01 0.11639657E+04</pdfrwt>
<totfact> 0.17160512E+00</totfact>
</mgrwt>
</event>
<event>
 4    1  0.2701205E-007  0.7433282E+03  0.7818608E-02  0.9850356E-01
          2   -1    0    0  501    0  0.00000000000E+00  0.00000000000E+00  0.15293557148E+04  0.15293557148E+04  0.25500000000E-02 0. -1.
         -2   -1    0    0    0  501 -0.00000000000E+00 -0.00000000000E+00 -0.31033871057E+03  0.31033871058E+03  0.25500000000E-02 0.  1.
    8880023    1    1    2    0    0 -0.28086116623E+03 -0.19960875962E+03  0.12574808065E+04  0.14607514630E+04  0.65864270000E+03 0.  0.
    8880022    1    1    2    0    0  0.28086116623E+03  0.19960875962E+03 -0.38463802323E+02  0.37894296236E+03  0.15294330000E+03 0.  0.
<mgrwt>
<rscale>  0 0.62728763E+03</rscale>
<asrwt>0</asrwt>
<pdfrwt beam="1">  1        2 0.23528549E+00 0.74332823E+03</pdfrwt>
<pdfrwt beam="2">  1       -2 0.47744418E-01 0.74332823E+03</pdfrwt>
<totfact> 0.51943890E+01</totfact>
</mgrwt>
</event>
<event>
 4    1  0.2701205E-007  0.6976934E+03  0.7818608E-02  0.1000691E+00
          2   -1    0    0  501    0  0.00000000000E+00  0.00000000000E+00  0.64269331408E+03  0.64269331409E+03  0.25500000000E-02 0. -1.
         -2   -1    0    0    0  501 -0.00000000000E+00 -0.00000000000E+00 -0.81622547848E+03  0.81622547849E+03  0.25500000000E-02 0.  1.
    8880023    1    1    2    0    0  0.12876197144E+03 -0.19075184629E+03  0.41284813909E+03  0.81069088089E+03  0.65864270000E+03 0. -1.
    8880022    1    1    2    0    0 -0.12876197144E+03  0.19075184629E+03 -0.58638030349E+03  0.64822791168E+03  0.15294330000E+03 0.  0.
<mgrwt>
<rscale>  0 0.55348389E+03</rscale>
<asrwt>0</asrwt>
<pdfrwt beam="1">  1        2 0.98875895E-01 0.69769343E+03</pdfrwt>
<pdfrwt beam="2">  1       -2 0.12557315E+00 0.69769343E+03</pdfrwt>
<totfact> 0.22010227E+01</totfact>
</mgrwt>
</event>
<event>
 4    1  0.2701205E-007  0.1292540E+04  0.7818608E-02  0.9072029E-01
         -2   -1    0    0    0  501 -0.00000000000E+00  0.00000000000E+00  0.90675382825E+03  0.90675382825E+03  0.25500000000E-02 0.  1.
          2   -1    0    0  501    0  0.00000000000E+00 -0.00000000000E+00 -0.35470696381E+04  0.35470696381E+04  0.25500000000E-02 0. -1.
    8880023    1    1    2    0    0 -0.32452902459E+03 -0.10637337165E+04 -0.30068560544E+04  0.32728950557E+04  0.65864270000E+03 0. -1.
    8880022    1    1    2    0    0  0.32452902459E+03  0.10637337165E+04  0.36654024453E+03  0.11809284107E+04  0.15294330000E+03 0.  0.
<mgrwt>
<rscale>  0 0.12477844E+04</rscale>
<asrwt>0</asrwt>
<pdfrwt beam="1">  1        2 0.54570301E+00 0.12925396E+04</pdfrwt>
<pdfrwt beam="2">  1       -2 0.13950059E+00 0.12925396E+04</pdfrwt>
<totfact> 0.26830553E-01</totfact>
</mgrwt>
</event>
<event>
 4    1  0.2701205E-007  0.7103264E+03  0.7818608E-02  0.9956791E-01
         -2   -1    0    0    0  501 -0.00000000000E+00  0.00000000000E+00  0.88836731209E+03  0.88836731209E+03  0.25500000000E-02 0.  1.
          2   -1    0    0  501    0  0.00000000000E+00 -0.00000000000E+00 -0.24529747478E+04  0.24529747478E+04  0.25500000000E-02 0. -1.
    8880023    1    1    2    0    0  0.24859512073E+03 -0.94624736226E+02 -0.23728125604E+04  0.24768534531E+04  0.65864270000E+03 0. -1.
    8880022    1    1    2    0    0 -0.24859512073E+03  0.94624736226E+02  0.80820512470E+03  0.86448860685E+03  0.15294330000E+03 0.  0.
<mgrwt>
<rscale>  0 0.57586162E+03</rscale>
<asrwt>0</asrwt>
<pdfrwt beam="1">  1        2 0.37738073E+00 0.71032639E+03</pdfrwt>
<pdfrwt beam="2">  1       -2 0.13667190E+00 0.71032639E+03</pdfrwt>
<totfact> 0.14999891E+00</totfact>
</mgrwt>
</event>
<event>
 4    1  0.2701205E-007  0.9708520E+03  0.7818608E-02  0.9420727E-01
          2   -1    0    0  501    0  0.00000000000E+00  0.00000000000E+00  0.15196321542E+04  0.15196321542E+04  0.25500000000E-02 0. -1.
         -2   -1    0    0    0  501 -0.00000000000E+00 -0.00000000000E+00 -0.80231272008E+03  0.80231272008E+03  0.25500000000E-02 0.  1.
    8880023    1    1    2    0    0  0.69973815445E+03  0.13823856672E+03  0.11252282959E+04  0.14861669860E+04  0.65864270000E+03 0.  0.
    8880022    1    1    2    0    0 -0.69973815445E+03 -0.13823856672E+03 -0.40790886173E+03  0.83577788833E+03  0.15294330000E+03 0.  0.
<mgrwt>
<rscale>  0 0.90389400E+03</rscale>
<asrwt>0</asrwt>
<pdfrwt beam="1">  1        2 0.23378956E+00 0.97085199E+03</pdfrwt>
<pdfrwt beam="2">  1       -2 0.12343273E+00 0.97085199E+03</pdfrwt>
<totfact> 0.61063827E+00</totfact>
</mgrwt>
</event>
<event>
 4    1  0.2701205E-007  0.9862440E+03  0.7818608E-02  0.9399780E-01
         -2   -1    0    0    0  501 -0.00000000000E+00  0.00000000000E+00  0.45464495225E+03  0.45464495226E+03  0.25500000000E-02 0.  1.
          2   -1    0    0  501    0  0.00000000000E+00 -0.00000000000E+00 -0.30979383072E+04  0.30979383072E+04  0.25500000000E-02 0. -1.
    8880023    1    1    2    0    0 -0.72620071902E+03 -0.10723602071E+03 -0.26232020541E+04  0.28024750260E+04  0.65864270000E+03 0. -1.
    8880022    1    1    2    0    0  0.72620071902E+03  0.10723602071E+03 -0.20091300789E+02  0.75010823340E+03  0.15294330000E+03 0.  0.
<mgrwt>
<rscale>  0 0.92093782E+03</rscale>
<asrwt>0</asrwt>
<pdfrwt beam="1">  1        2 0.47660588E+00 0.98624401E+03</pdfrwt>
<pdfrwt beam="2">  1       -2 0.69945379E-01 0.98624401E+03</pdfrwt>
<totfact> 0.28857967E+00</totfact>
</mgrwt>
</event>
<event>
 4    1  0.2701205E-007  0.8272636E+03  0.7818608E-02  0.9654680E-01
          2   -1    0    0  501    0  0.00000000000E+00  0.00000000000E+00  0.27664386414E+04  0.27664386414E+04  0.25500000000E-02 0. -1.
         -2   -1    0    0    0  501 -0.00000000000E+00 -0.00000000000E+00 -0.49153232972E+03  0.49153232973E+03  0.25500000000E-02 0.  1.
    8880023    1    1    2    0    0  0.23360578576E+03  0.44269987612E+03  0.25399605152E+04  0.26712851717E+04  0.65864270000E+03 0.  0.
    8880022    1    1    2    0    0 -0.23360578576E+03 -0.44269987612E+03 -0.26505420351E+03  0.58668579945E+03  0.15294330000E+03 0.  0.
<mgrwt>
<rscale>  0 0.73780425E+03</rscale>
<asrwt>0</asrwt>
<pdfrwt beam="1">  1        2 0.42560595E+00 0.82726359E+03</pdfrwt>
<pdfrwt beam="2">  1       -2 0.75620357E-01 0.82726359E+03</pdfrwt>
<totfact> 0.39652566E+00</totfact>
</mgrwt>
</event>
<event>
 4    1  0.2701205E-007  0.7556665E+03  0.7818608E-02  0.9816458E-01
         -2   -1    0    0    0  501 -0.00000000000E+00  0.00000000000E+00  0.56186208038E+03  0.56186208039E+03  0.25500000000E-02 0.  1.
          2   -1    0    0  501    0  0.00000000000E+00 -0.00000000000E+00 -0.19161969400E+04  0.19161969400E+04  0.25500000000E-02 0. -1.
    8880023    1    1    2    0    0 -0.39915209227E+02 -0.36827766918E+03 -0.17553615674E+04  0.19111059897E+04  0.65864270000E+03 0.  0.
    8880022    1    1    2    0    0  0.39915209227E+02  0.36827766918E+03  0.40102670779E+03  0.56695303061E+03  0.15294330000E+03 0.  1.
<mgrwt>
<rscale>  0 0.64486726E+03</rscale>
<asrwt>0</asrwt>
<pdfrwt beam="1">  1        2 0.29479953E+00 0.75566651E+03</pdfrwt>
<pdfrwt beam="2">  1       -2 0.86440321E-01 0.75566651E+03</pdfrwt>
<totfact> 0.89060394E+00</totfact>
</mgrwt>
</event>
<event>
 4    1  0.2701205E-007  0.1500403E+04  0.7818608E-02  0.8909351E-01
          2   -1    0    0  501    0  0.00000000000E+00  0.00000000000E+00  0.17257699465E+04  0.17257699465E+04  0.25500000000E-02 0. -1.
         -2   -1    0    0    0  501 -0.00000000000E+00 -0.00000000000E+00 -0.12507745630E+04  0.12507745630E+04  0.25500000000E-02 0.  1.
    8880023    1    1    2    0    0  0.12744123592E+04 -0.43962764105E+03  0.59591021860E+03  0.16144096503E+04  0.65864270000E+03 0.  0.
    8880022    1    1    2    0    0 -0.12744123592E+04  0.43962764105E+03 -0.12091483516E+03  0.13621348592E+04  0.15294330000E+03 0.  0.
<mgrwt>
<rscale>  0 0.14631253E+04</rscale>
<asrwt>0</asrwt>
<pdfrwt beam="1">  1        2 0.26550307E+00 0.15004031E+04</pdfrwt>
<pdfrwt beam="2">  1       -2 0.19242686E+00 0.15004031E+04</pdfrwt>
<totfact> 0.13331962E+00</totfact>
</mgrwt>
</event>
<event>
 4    1  0.2701205E-007  0.1202517E+04  0.7818608E-02  0.9154679E-01
         -2   -1    0    0    0  501 -0.00000000000E+00  0.00000000000E+00  0.17116585238E+04  0.17116585238E+04  0.25500000000E-02 0.  1.
          2   -1    0    0  501    0  0.00000000000E+00 -0.00000000000E+00 -0.79463497343E+03  0.79463497344E+03  0.25500000000E-02 0. -1.
    8880023    1    1    2    0    0 -0.56169233206E+03  0.83470923022E+03  0.11010931852E+03  0.12075479465E+04  0.65864270000E+03 0.  0.
    8880022    1    1    2    0    0  0.56169233206E+03 -0.83470923022E+03  0.80691423189E+03  0.12987455507E+04  0.15294330000E+03 0.  0.
<mgrwt>
<rscale>  0 0.11533711E+04</rscale>
<asrwt>0</asrwt>
<pdfrwt beam="1">  1        2 0.12225154E+00 0.12025174E+04</pdfrwt>
<pdfrwt beam="2">  1       -2 0.26333208E+00 0.12025174E+04</pdfrwt>
<totfact> 0.18083739E+00</totfact>
</mgrwt>
</event>
<event>
 4    1  0.2701205E-007  0.8193787E+03  0.7818608E-02  0.9670363E-01
         -2   -1    0    0    0  501 -0.00000000000E+00  0.00000000000E+00  0.85444393235E+03  0.85444393235E+03  0.25500000000E-02 0.  1.
          2   -1    0    0  501    0  0.00000000000E+00 -0.00000000000E+00 -0.10475074784E+04  0.10475074784E+04  0.25500000000E-02 0. -1.
    8880023    1    1    2    0    0 -0.91238868868E+02 -0.47879721812E+03 -0.77484146298E+03  0.11277237278E+04  0.65864270000E+03 0. -1.
    8880022    1    1    2    0    0  0.91238868868E+02  0.47879721812E+03  0.58177791697E+03  0.77422768289E+03  0.15294330000E+03 0.  0.
<mgrwt>
<rscale>  0 0.72809136E+03</rscale>
<asrwt>0</asrwt>
<pdfrwt beam="1">  1        2 0.16115500E+00 0.81937874E+03</pdfrwt>
<pdfrwt beam="2">  1       -2 0.13145291E+00 0.81937874E+03</pdfrwt>
<totfact> 0.10017491E+01</totfact>
</mgrwt>
</event>
<event>
 4    1  0.2701205E-007  0.6865839E+03  0.7818608E-02  0.1005820E+00
          2   -1    0    0  501    0  0.00000000000E+00  0.00000000000E+00  0.12859332329E+04  0.12859332329E+04  0.25500000000E-02 0. -1.
         -2   -1    0    0    0  501 -0.00000000000E+00 -0.00000000000E+00 -0.20942769141E+03  0.20942769142E+03  0.25500000000E-02 0.  1.
    8880023    1    1    2    0    0 -0.10992440430E+03  0.15969947558E+03  0.10393373235E+04  0.12456402271E+04  0.65864270000E+03 0. -1.
    8880022    1    1    2    0    0  0.10992440430E+03 -0.15969947558E+03  0.37168217993E+02  0.24972069719E+03  0.15294330000E+03 0. -1.
<mgrwt>
<rscale>  0 0.53170130E+03</rscale>
<asrwt>0</asrwt>
<pdfrwt beam="1">  1        2 0.19783589E+00 0.68658394E+03</pdfrwt>
<pdfrwt beam="2">  1       -2 0.32219644E-01 0.68658394E+03</pdfrwt>
<totfact> 0.15386388E+02</totfact>
</mgrwt>
</event>
<event>
 4    1  0.2701205E-007  0.8661926E+03  0.7818608E-02  0.9582641E-01
         -2   -1    0    0    0  501 -0.00000000000E+00  0.00000000000E+00  0.13966559705E+04  0.13966559705E+04  0.25500000000E-02 0.  1.
          2   -1    0    0  501    0  0.00000000000E+00 -0.00000000000E+00 -0.13842707127E+04  0.13842707128E+04  0.25500000000E-02 0. -1.
    8880023    1    1    2    0    0  0.54896852563E+03  0.12293516031E+03 -0.11740474401E+04  0.14589986613E+04  0.65864270000E+03 0.  0.
    8880022    1    1    2    0    0 -0.54896852563E+03 -0.12293516031E+03  0.11864326978E+04  0.13219280219E+04  0.15294330000E+03 0.  1.
<mgrwt>
<rscale>  0 0.78455818E+03</rscale>
<asrwt>0</asrwt>
<pdfrwt beam="1">  1        2 0.21296472E+00 0.86619265E+03</pdfrwt>
<pdfrwt beam="2">  1       -2 0.21487015E+00 0.86619265E+03</pdfrwt>
<totfact> 0.15947856E+00</totfact>
</mgrwt>
</event>
<event>
 4    1  0.2701205E-007  0.6659124E+03  0.7818608E-02  0.1018780E+00
         -2   -1    0    0    0  501 -0.00000000000E+00  0.00000000000E+00  0.70240503188E+03  0.70240503188E+03  0.25500000000E-02 0.  1.
          2   -1    0    0  501    0  0.00000000000E+00 -0.00000000000E+00 -0.31348854037E+03  0.31348854038E+03  0.25500000000E-02 0. -1.
    8880023    1    1    2    0    0 -0.16956024516E+02 -0.96652301796E+02  0.98281350439E+02  0.67312599439E+03  0.65864270000E+03 0. -1.
    8880022    1    1    2    0    0  0.16956024516E+02  0.96652301796E+02  0.29063514106E+03  0.34276757788E+03  0.15294330000E+03 0.  0.
<mgrwt>
<rscale>  0 0.48129499E+03</rscale>
<asrwt>0</asrwt>
<pdfrwt beam="1">  1        2 0.48229007E-01 0.66591244E+03</pdfrwt>
<pdfrwt beam="2">  1       -2 0.10806231E+00 0.66591244E+03</pdfrwt>
<totfact> 0.72756179E+01</totfact>
</mgrwt>
</event>
<event>
 4    1  0.2701205E-007  0.7535373E+03  0.7818608E-02  0.9822135E-01
          2   -1    0    0  501    0  0.00000000000E+00  0.00000000000E+00  0.62142449309E+03  0.62142449310E+03  0.25500000000E-02 0. -1.
         -2   -1    0    0    0  501 -0.00000000000E+00 -0.00000000000E+00 -0.11671696870E+04  0.11671696870E+04  0.25500000000E-02 0.  1.
    8880023    1    1    2    0    0  0.19648546223E+03 -0.30887177411E+03  0.33345827161E+03  0.82402241164E+03  0.65864270000E+03 0. -1.
    8880022    1    1    2    0    0 -0.19648546223E+03  0.30887177411E+03 -0.87920346556E+03  0.96457176850E+03  0.15294330000E+03 0.  0.
<mgrwt>
<rscale>  0 0.64188047E+03</rscale>
<asrwt>0</asrwt>
<pdfrwt beam="1">  1        2 0.95603768E-01 0.75353734E+03</pdfrwt>
<pdfrwt beam="2">  1       -2 0.17956457E+00 0.75353734E+03</pdfrwt>
<totfact> 0.88250372E+00</totfact>
</mgrwt>
</event>
<event>
 4    1  0.2701205E-007  0.1008711E+04  0.7818608E-02  0.9370248E-01
         -2   -1    0    0    0  501 -0.00000000000E+00  0.00000000000E+00  0.19888139741E+04  0.19888139741E+04  0.25500000000E-02 0.  1.
          2   -1    0    0  501    0  0.00000000000E+00 -0.00000000000E+00 -0.10701804927E+04  0.10701804927E+04  0.25500000000E-02 0. -1.
    8880023    1    1    2    0    0  0.75062441646E+03  0.14230763709E+03 -0.72352725817E+03  0.12413663350E+04  0.65864270000E+03 0. -1.
    8880022    1    1    2    0    0 -0.75062441646E+03 -0.14230763709E+03  0.16421607395E+04  0.18176281318E+04  0.15294330000E+03 0.  1.
<mgrwt>
<rscale>  0 0.94565114E+03</rscale>
<asrwt>0</asrwt>
<pdfrwt beam="1">  1        2 0.16464315E+00 0.10087114E+04</pdfrwt>
<pdfrwt beam="2">  1       -2 0.30597138E+00 0.10087114E+04</pdfrwt>
<totfact> 0.66648422E-01</totfact>
</mgrwt>
</event>
<event>
 4    1  0.2701205E-007  0.1400591E+04  0.7818608E-02  0.8983224E-01
          2   -1    0    0  501    0  0.00000000000E+00  0.00000000000E+00  0.13280557464E+04  0.13280557465E+04  0.25500000000E-02 0. -1.
         -2   -1    0    0    0  501 -0.00000000000E+00 -0.00000000000E+00 -0.26034515524E+04  0.26034515524E+04  0.25500000000E-02 0.  1.
    8880023    1    1    2    0    0 -0.12240060162E+04  0.17220202417E+03  0.72343600152E+03  0.15763927555E+04  0.65864270000E+03 0.  0.
    8880022    1    1    2    0    0  0.12240060162E+04 -0.17220202417E+03 -0.19988318075E+04  0.23551145434E+04  0.15294330000E+03 0.  0.
<mgrwt>
<rscale>  0 0.13600916E+04</rscale>
<asrwt>0</asrwt>
<pdfrwt beam="1">  1        2 0.20431627E+00 0.14005908E+04</pdfrwt>
<pdfrwt beam="2">  1       -2 0.40053101E+00 0.14005908E+04</pdfrwt>
<totfact> 0.11212849E-01</totfact>
</mgrwt>
</event>
<event>
 4    1  0.3286667E-007  0.1402237E+04  0.7818608E-02  0.8981947E-01
         -2   -1    0    0    0  501 -0.00000000000E+00  0.00000000000E+00  0.12374648294E+04  0.12374648294E+04  0.25500000000E-02 0.  1.
          2   -1    0    0  501    0  0.00000000000E+00 -0.00000000000E+00 -0.33476936661E+04  0.33476936661E+04  0.25500000000E-02 0. -1.
    8880023    1    1    2    0    0  0.11096158511E+04  0.54882647115E+03 -0.28204514599E+04  0.31497959420E+04  0.65864270000E+03 0.  0.
    8880022    1    1    2    0    0 -0.11096158511E+04 -0.54882647115E+03  0.71022262320E+03  0.14353625535E+04  0.15294330000E+03 0.  0.
<mgrwt>
<rscale>  0 0.13617957E+04</rscale>
<asrwt>0</asrwt>
<pdfrwt beam="1">  1        2 0.51502979E+00 0.14022368E+04</pdfrwt>
<pdfrwt beam="2">  1       -2 0.19037921E+00 0.14022368E+04</pdfrwt>
<totfact> 0.15297473E-01</totfact>
</mgrwt>
</event>
<event>
 4    1  0.2701205E-007  0.7560303E+03  0.7818608E-02  0.9815495E-01
         -2   -1    0    0    0  501 -0.00000000000E+00  0.00000000000E+00  0.17005032605E+04  0.17005032605E+04  0.25500000000E-02 0.  1.
          2   -1    0    0  501    0  0.00000000000E+00 -0.00000000000E+00 -0.10187048098E+04  0.10187048098E+04  0.25500000000E-02 0. -1.
    8880023    1    1    2    0    0  0.16659135943E+03 -0.33169107571E+03 -0.84889172075E+03  0.11367493174E+04  0.65864270000E+03 0. -1.
    8880022    1    1    2    0    0 -0.16659135943E+03  0.33169107571E+03  0.15306901715E+04  0.15824587529E+04  0.15294330000E+03 0.  0.
<mgrwt>
<rscale>  0 0.64537581E+03</rscale>
<asrwt>0</asrwt>
<pdfrwt beam="1">  1        2 0.15672382E+00 0.75603033E+03</pdfrwt>
<pdfrwt beam="2">  1       -2 0.26161588E+00 0.75603033E+03</pdfrwt>
<totfact> 0.13842839E+00</totfact>
</mgrwt>
</event>
<event>
 4    1  0.2701205E-007  0.7597370E+03  0.7818608E-02  0.9805789E-01
         -2   -1    0    0    0  501 -0.00000000000E+00  0.00000000000E+00  0.15148711439E+04  0.15148711439E+04  0.25500000000E-02 0.  1.
          2   -1    0    0  501    0  0.00000000000E+00 -0.00000000000E+00 -0.17654129162E+04  0.17654129162E+04  0.25500000000E-02 0. -1.
    8880023    1    1    2    0    0  0.36709717063E+03 -0.92896801703E+02 -0.16531829280E+04  0.18193993921E+04  0.65864270000E+03 0. -1.
    8880022    1    1    2    0    0 -0.36709717063E+03  0.92896801703E+02  0.14026411557E+04  0.14608846680E+04  0.15294330000E+03 0.  0.
<mgrwt>
<rscale>  0 0.65052809E+03</rscale>
<asrwt>0</asrwt>
<pdfrwt beam="1">  1        2 0.27160199E+00 0.75973703E+03</pdfrwt>
<pdfrwt beam="2">  1       -2 0.23305710E+00 0.75973703E+03</pdfrwt>
<totfact> 0.76903886E-01</totfact>
</mgrwt>
</event>
<event>
 4    1  0.2701205E-007  0.9041173E+03  0.7818608E-02  0.9519454E-01
          2   -1    0    0  501    0  0.00000000000E+00  0.00000000000E+00  0.11728350793E+04  0.11728350793E+04  0.25500000000E-02 0. -1.
         -2   -1    0    0    0  501 -0.00000000000E+00 -0.00000000000E+00 -0.15147099541E+04  0.15147099541E+04  0.25500000000E-02 0.  1.
    8880023    1    1    2    0    0  0.51533143056E+03  0.34358608797E+03  0.90981334013E+03  0.12826489790E+04  0.65864270000E+03 0. -1.
    8880022    1    1    2    0    0 -0.51533143056E+03 -0.34358608797E+03 -0.12516882149E+04  0.14048960544E+04  0.15294330000E+03 0.  0.
<mgrwt>
<rscale>  0 0.82864623E+03</rscale>
<asrwt>0</asrwt>
<pdfrwt beam="1">  1        2 0.18043617E+00 0.90411730E+03</pdfrwt>
<pdfrwt beam="2">  1       -2 0.23303230E+00 0.90411730E+03</pdfrwt>
<totfact> 0.16224358E+00</totfact>
</mgrwt>
</event>
<event>
 4    1  0.2701205E-007  0.1228457E+04  0.7818608E-02  0.9129945E-01
          2   -1    0    0  501    0  0.00000000000E+00  0.00000000000E+00  0.12442628353E+04  0.12442628353E+04  0.25500000000E-02 0. -1.
         -2   -1    0    0    0  501 -0.00000000000E+00 -0.00000000000E+00 -0.13755857114E+04  0.13755857114E+04  0.25500000000E-02 0.  1.
    8880023    1    1    2    0    0  0.20584603763E+03 -0.10163280506E+04 -0.71371505744E+03  0.14207373744E+04  0.65864270000E+03 0.  0.
    8880022    1    1    2    0    0 -0.20584603763E+03  0.10163280506E+04  0.58239218137E+03  0.11991111723E+04  0.15294330000E+03 0.  0.
<mgrwt>
<rscale>  0 0.11806715E+04</rscale>
<asrwt>0</asrwt>
<pdfrwt beam="1">  1        2 0.19142505E+00 0.12284566E+04</pdfrwt>
<pdfrwt beam="2">  1       -2 0.21162857E+00 0.12284566E+04</pdfrwt>
<totfact> 0.19290217E+00</totfact>
</mgrwt>
</event>
<event>
 4    1  0.2701205E-007  0.8965307E+03  0.7818608E-02  0.9531624E-01
         -2   -1    0    0    0  501 -0.00000000000E+00  0.00000000000E+00  0.14910767342E+04  0.14910767342E+04  0.25500000000E-02 0.  1.
          2   -1    0    0  501    0  0.00000000000E+00 -0.00000000000E+00 -0.14428603153E+04  0.14428603153E+04  0.25500000000E-02 0. -1.
    8880023    1    1    2    0    0  0.60697110223E+03 -0.39284085491E+02 -0.12230094584E+04  0.15164166643E+04  0.65864270000E+03 0.  0.
    8880022    1    1    2    0    0 -0.60697110223E+03  0.39284085491E+02  0.12712258773E+04  0.14175203852E+04  0.15294330000E+03 0.  0.
<mgrwt>
<rscale>  0 0.81991932E+03</rscale>
<asrwt>0</asrwt>
<pdfrwt beam="1">  1        2 0.22197851E+00 0.89653074E+03</pdfrwt>
<pdfrwt beam="2">  1       -2 0.22939642E+00 0.89653074E+03</pdfrwt>
<totfact> 0.11924980E+00</totfact>
</mgrwt>
</event>
<event>
 4    1  0.2701205E-007  0.7005707E+03  0.7818608E-02  0.9994842E-01
         -2   -1    0    0    0  501 -0.00000000000E+00  0.00000000000E+00  0.71519515322E+03  0.71519515322E+03  0.25500000000E-02 0.  1.
          2   -1    0    0  501    0  0.00000000000E+00 -0.00000000000E+00 -0.11812624521E+04  0.11812624521E+04  0.25500000000E-02 0. -1.
    8880023    1    1    2    0    0  0.20281562529E+03  0.12591606393E+03 -0.10413693766E+04  0.12550894063E+04  0.65864270000E+03 0. -1.
    8880022    1    1    2    0    0 -0.20281562529E+03 -0.12591606393E+03  0.57530207774E+03  0.64136819900E+03  0.15294330000E+03 0.  0.
<mgrwt>
<rscale>  0 0.55876979E+03</rscale>
<asrwt>0</asrwt>
<pdfrwt beam="1">  1        2 0.18173268E+00 0.70057065E+03</pdfrwt>
<pdfrwt beam="2">  1       -2 0.11003002E+00 0.70057065E+03</pdfrwt>
<totfact> 0.13088364E+01</totfact>
</mgrwt>
</event>
<event>
 4    1  0.2701205E-007  0.1148000E+04  0.7818608E-02  0.9209406E-01
         -2   -1    0    0    0  501 -0.00000000000E+00  0.00000000000E+00  0.86556274629E+03  0.86556274629E+03  0.25500000000E-02 0.  1.
          2   -1    0    0  501    0  0.00000000000E+00 -0.00000000000E+00 -0.20781185039E+04  0.20781185039E+04  0.25500000000E-02 0. -1.
    8880023    1    1    2    0    0  0.72283498410E+03  0.60133406897E+03 -0.15537090149E+04  0.19318164990E+04  0.65864270000E+03 0. -1.
    8880022    1    1    2    0    0 -0.72283498410E+03 -0.60133406897E+03  0.34115325725E+03  0.10118647512E+04  0.15294330000E+03 0.  0.
<mgrwt>
<rscale>  0 0.10956863E+04</rscale>
<asrwt>0</asrwt>
<pdfrwt beam="1">  1        2 0.31971054E+00 0.11479997E+04</pdfrwt>
<pdfrwt beam="2">  1       -2 0.13316350E+00 0.11479997E+04</pdfrwt>
<totfact> 0.24225902E+00</totfact>
</mgrwt>
</event>
<event>
 4    1  0.2701205E-007  0.8787439E+03  0.7818608E-02  0.9561054E-01
         -2   -1    0    0    0  501 -0.00000000000E+00  0.00000000000E+00  0.81020652877E+03  0.81020652878E+03  0.25500000000E-02 0.  1.
          2   -1    0    0  501    0  0.00000000000E+00 -0.00000000000E+00 -0.10190567946E+04  0.10190567946E+04  0.25500000000E-02 0. -1.
    8880023    1    1    2    0    0 -0.57587775184E+03 -0.82130431180E+02 -0.64180714396E+03  0.10881669031E+04  0.65864270000E+03 0.  0.
    8880022    1    1    2    0    0  0.57587775184E+03  0.82130431180E+02  0.43295687811E+03  0.74109642025E+03  0.15294330000E+03 0.  0.
<mgrwt>
<rscale>  0 0.79928404E+03</rscale>
<asrwt>0</asrwt>
<pdfrwt beam="1">  1        2 0.15677797E+00 0.87874388E+03</pdfrwt>
<pdfrwt beam="2">  1       -2 0.12464716E+00 0.87874388E+03</pdfrwt>
<totfact> 0.11866902E+01</totfact>
</mgrwt>
</event>
<event>
 4    1  0.2701205E-007  0.9497265E+03  0.7818608E-02  0.9450508E-01
         -2   -1    0    0    0  501 -0.00000000000E+00  0.00000000000E+00  0.65430955475E+03  0.65430955475E+03  0.25500000000E-02 0.  1.
          2   -1    0    0  501    0  0.00000000000E+00 -0.00000000000E+00 -0.11949625713E+04  0.11949625713E+04  0.25500000000E-02 0. -1.
    8880023    1    1    2    0    0  0.65769062501E+03  0.18871485314E+03 -0.63410205926E+03  0.11419570403E+04  0.65864270000E+03 0.  0.
    8880022    1    1    2    0    0 -0.65769062501E+03 -0.18871485314E+03  0.93449042668E+02  0.70731508581E+03  0.15294330000E+03 0.  0.
<mgrwt>
<rscale>  0 0.88033142E+03</rscale>
<asrwt>0</asrwt>
<pdfrwt beam="1">  1        2 0.18384040E+00 0.94972652E+03</pdfrwt>
<pdfrwt beam="2">  1       -2 0.10066301E+00 0.94972652E+03</pdfrwt>
<totfact> 0.15486133E+01</totfact>
</mgrwt>
</event>
<event>
 4    1  0.2701205E-007  0.8036952E+03  0.7818608E-02  0.9702863E-01
          2   -1    0    0  501    0  0.00000000000E+00  0.00000000000E+00  0.12059744265E+04  0.12059744265E+04  0.25500000000E-02 0. -1.
         -2   -1    0    0    0  501 -0.00000000000E+00 -0.00000000000E+00 -0.14089804180E+04  0.14089804180E+04  0.25500000000E-02 0.  1.
    8880023    1    1    2    0    0 -0.55061029986E+02 -0.45725708564E+03  0.10203490076E+04  0.12988602938E+04  0.65864270000E+03 0. -1.
    8880022    1    1    2    0    0  0.55061029986E+02  0.45725708564E+03 -0.12233549991E+04  0.13160945506E+04  0.15294330000E+03 0.  0.
<mgrwt>
<rscale>  0 0.70846614E+03</rscale>
<asrwt>0</asrwt>
<pdfrwt beam="1">  1        2 0.18553453E+00 0.80369519E+03</pdfrwt>
<pdfrwt beam="2">  1       -2 0.21676622E+00 0.80369519E+03</pdfrwt>
<totfact> 0.19877675E+00</totfact>
</mgrwt>
</event>
<event>
 4    1  0.2701205E-007  0.8268697E+03  0.7818608E-02  0.9655454E-01
          2   -1    0    0  501    0  0.00000000000E+00  0.00000000000E+00  0.96426141913E+03  0.96426141914E+03  0.25500000000E-02 0. -1.
         -2   -1    0    0    0  501 -0.00000000000E+00 -0.00000000000E+00 -0.48654085050E+03  0.48654085050E+03  0.25500000000E-02 0.  1.
    8880023    1    1    2    0    0  0.49438417101E+03 -0.74078524263E+02  0.16993922230E+03  0.84415216747E+03  0.65864270000E+03 0.  1.
    8880022    1    1    2    0    0 -0.49438417101E+03  0.74078524263E+02  0.30778134633E+03  0.60665010217E+03  0.15294330000E+03 0. -1.
<mgrwt>
<rscale>  0 0.73732129E+03</rscale>
<asrwt>0</asrwt>
<pdfrwt beam="1">  1        2 0.14834791E+00 0.82686973E+03</pdfrwt>
<pdfrwt beam="2">  1       -2 0.74852438E-01 0.82686973E+03</pdfrwt>
<totfact> 0.42988442E+01</totfact>
</mgrwt>
</event>
<event>
 4    1  0.2701205E-007  0.1095147E+04  0.7818608E-02  0.9266479E-01
          2   -1    0    0  501    0  0.00000000000E+00  0.00000000000E+00  0.94444109228E+03  0.94444109229E+03  0.25500000000E-02 0. -1.
         -2   -1    0    0    0  501 -0.00000000000E+00 -0.00000000000E+00 -0.17331381476E+04  0.17331381476E+04  0.25500000000E-02 0.  1.
    8880023    1    1    2    0    0 -0.87407442228E+03  0.39122257736E+02  0.42402956145E+03  0.11743712880E+04  0.65864270000E+03 0. -1.
    8880022    1    1    2    0    0  0.87407442228E+03 -0.39122257736E+02 -0.12127266168E+04  0.15032079519E+04  0.15294330000E+03 0.  0.
<mgrwt>
<rscale>  0 0.10392834E+04</rscale>
<asrwt>0</asrwt>
<pdfrwt beam="1">  1        2 0.14529863E+00 0.10951470E+04</pdfrwt>
<pdfrwt beam="2">  1       -2 0.26663664E+00 0.10951470E+04</pdfrwt>
<totfact> 0.13739067E+00</totfact>
</mgrwt>
</event>
<event>
 4    1  0.2701205E-007  0.6836016E+03  0.7818608E-02  0.1007356E+00
         -2   -1    0    0    0  501 -0.00000000000E+00  0.00000000000E+00  0.56381903558E+03  0.56381903559E+03  0.25500000000E-02 0.  1.
          2   -1    0    0  501    0  0.00000000000E+00 -0.00000000000E+00 -0.99307530884E+03  0.99307530885E+03  0.25500000000E-02 0. -1.
    8880023    1    1    2    0    0 -0.13607430925E+03  0.12241209591E+03 -0.83933373942E+03  0.10824935433E+04  0.65864270000E+03 0. -1.
    8880022    1    1    2    0    0  0.13607430925E+03 -0.12241209591E+03  0.41007746616E+03  0.47440080115E+03  0.15294330000E+03 0.  0.
<mgrwt>
<rscale>  0 0.52539298E+03</rscale>
<asrwt>0</asrwt>
<pdfrwt beam="1">  1        2 0.15278082E+00 0.68360160E+03</pdfrwt>
<pdfrwt beam="2">  1       -2 0.86741390E-01 0.68360160E+03</pdfrwt>
<totfact> 0.29945957E+01</totfact>
</mgrwt>
</event>
<event>
 4    1  0.2701205E-007  0.1721431E+04  0.7818608E-02  0.8767290E-01
          2   -1    0    0  501    0  0.00000000000E+00  0.00000000000E+00  0.37122589877E+04  0.37122589877E+04  0.25500000000E-02 0. -1.
         -2   -1    0    0    0  501 -0.00000000000E+00 -0.00000000000E+00 -0.16337028646E+04  0.16337028646E+04  0.25500000000E-02 0.  1.
    8880023    1    1    2    0    0  0.85432684520E+03  0.13415068227E+04  0.30310819685E+04  0.34857973292E+04  0.65864270000E+03 0.  0.
    8880022    1    1    2    0    0 -0.85432684520E+03 -0.13415068227E+04 -0.95252584542E+03  0.18601645231E+04  0.15294330000E+03 0.  0.
<mgrwt>
<rscale>  0 0.16896494E+04</rscale>
<asrwt>0</asrwt>
<pdfrwt beam="1">  1        2 0.57111677E+00 0.17214311E+04</pdfrwt>
<pdfrwt beam="2">  1       -2 0.25133890E+00 0.17214311E+04</pdfrwt>
<totfact> 0.33146981E-02</totfact>
</mgrwt>
</event>
<event>
 4    1  0.2701205E-007  0.6727427E+03  0.7818608E-02  0.1013768E+00
          2   -1    0    0  501    0  0.00000000000E+00  0.00000000000E+00  0.72588668097E+03  0.72588668098E+03  0.25500000000E-02 0. -1.
         -2   -1    0    0    0  501 -0.00000000000E+00 -0.00000000000E+00 -0.31818322219E+03  0.31818322220E+03  0.25500000000E-02 0.  1.
    8880023    1    1    2    0    0 -0.12506157598E+03  0.55965655271E+02  0.47994244400E+03  0.82639428130E+03  0.65864270000E+03 0. -1.
    8880022    1    1    2    0    0  0.12506157598E+03 -0.55965655271E+02 -0.72238985216E+02  0.21767562187E+03  0.15294330000E+03 0.  0.
<mgrwt>
<rscale>  0 0.50003999E+03</rscale>
<asrwt>0</asrwt>
<pdfrwt beam="1">  1        2 0.11167487E+00 0.67274271E+03</pdfrwt>
<pdfrwt beam="2">  1       -2 0.48951265E-01 0.67274271E+03</pdfrwt>
<totfact> 0.15688497E+02</totfact>
</mgrwt>
</event>
<event>
 4    1  0.2701205E-007  0.6929210E+03  0.7818608E-02  0.1002794E+00
         -2   -1    0    0    0  501 -0.00000000000E+00  0.00000000000E+00  0.17610679312E+04  0.17610679313E+04  0.25500000000E-02 0.  1.
          2   -1    0    0  501    0  0.00000000000E+00 -0.00000000000E+00 -0.19155452183E+03  0.19155452185E+03  0.25500000000E-02 0. -1.
    8880023    1    1    2    0    0 -0.41541582459E+02  0.21119569057E+03  0.50912530985E+03  0.85985353996E+03  0.65864270000E+03 0.  0.
    8880022    1    1    2    0    0  0.41541582459E+02 -0.21119569057E+03  0.10603880996E+04  0.10927689131E+04  0.15294330000E+03 0.  0.
<mgrwt>
<rscale>  0 0.54441895E+03</rscale>
<asrwt>0</asrwt>
<pdfrwt beam="1">  1        2 0.29469927E-01 0.69292101E+03</pdfrwt>
<pdfrwt beam="2">  1       -2 0.27093352E+00 0.69292101E+03</pdfrwt>
<totfact> 0.90152927E+00</totfact>
</mgrwt>
</event>
<event>
 4    1  0.2701205E-007  0.1326118E+04  0.7818608E-02  0.9043328E-01
         -2   -1    0    0    0  501 -0.00000000000E+00  0.00000000000E+00  0.13421148880E+04  0.13421148880E+04  0.25500000000E-02 0.  1.
          2   -1    0    0  501    0  0.00000000000E+00 -0.00000000000E+00 -0.13421848990E+04  0.13421848990E+04  0.25500000000E-02 0. -1.
    8880023    1    1    2    0    0  0.10876954064E+04 -0.37642580286E+03 -0.50385444271E+03  0.14186110065E+04  0.65864270000E+03 0.  0.
    8880022    1    1    2    0    0 -0.10876954064E+04  0.37642580286E+03  0.50378443173E+03  0.12656887804E+04  0.15294330000E+03 0.  0.
<mgrwt>
<rscale>  0 0.12827871E+04</rscale>
<asrwt>0</asrwt>
<pdfrwt beam="1">  1        2 0.20648999E+00 0.13261176E+04</pdfrwt>
<pdfrwt beam="2">  1       -2 0.20647921E+00 0.13261176E+04</pdfrwt>
<totfact> 0.18066091E+00</totfact>
</mgrwt>
</event>
<event>
 4    1  0.2701205E-007  0.8993785E+03  0.7818608E-02  0.9527030E-01
         -2   -1    0    0    0  501 -0.00000000000E+00  0.00000000000E+00  0.27211190535E+03  0.27211190536E+03  0.25500000000E-02 0.  1.
          2   -1    0    0  501    0  0.00000000000E+00 -0.00000000000E+00 -0.25708302626E+04  0.25708302626E+04  0.25500000000E-02 0. -1.
    8880023    1    1    2    0    0  0.18915027664E+03 -0.58248918965E+03 -0.18839847275E+04  0.20876494301E+04  0.65864270000E+03 0.  0.
    8880022    1    1    2    0    0 -0.18915027664E+03  0.58248918965E+03 -0.41473362971E+03  0.75529273784E+03  0.15294330000E+03 0.  0.
<mgrwt>
<rscale>  0 0.82320006E+03</rscale>
<asrwt>0</asrwt>
<pdfrwt beam="1">  1        2 0.39551233E+00 0.89937850E+03</pdfrwt>
<pdfrwt beam="2">  1       -2 0.41863372E-01 0.89937850E+03</pdfrwt>
<totfact> 0.17562693E+01</totfact>
</mgrwt>
</event>
<event>
 4    1  0.2701205E-007  0.1617093E+04  0.7818608E-02  0.8831092E-01
         -2   -1    0    0    0  501 -0.00000000000E+00  0.00000000000E+00  0.23060902923E+04  0.23060902923E+04  0.25500000000E-02 0.  1.
          2   -1    0    0  501    0  0.00000000000E+00 -0.00000000000E+00 -0.12700612986E+04  0.12700612986E+04  0.25500000000E-02 0. -1.
    8880023    1    1    2    0    0  0.32239745615E+03 -0.14412634356E+04 -0.21920391764E+03  0.16318826472E+04  0.65864270000E+03 0.  0.
    8880022    1    1    2    0    0 -0.32239745615E+03  0.14412634356E+04  0.12552329114E+04  0.19442689437E+04  0.15294330000E+03 0.  0.
<mgrwt>
<rscale>  0 0.15829487E+04</rscale>
<asrwt>0</asrwt>
<pdfrwt beam="1">  1        2 0.19539405E+00 0.16170933E+04</pdfrwt>
<pdfrwt beam="2">  1       -2 0.35478312E+00 0.16170933E+04</pdfrwt>
<totfact> 0.23312099E-01</totfact>
</mgrwt>
</event>
<event>
 4    1  0.2701205E-007  0.1259511E+04  0.7818608E-02  0.9101338E-01
          2   -1    0    0  501    0  0.00000000000E+00  0.00000000000E+00  0.38940396713E+04  0.38940396713E+04  0.25500000000E-02 0. -1.
         -2   -1    0    0    0  501 -0.00000000000E+00 -0.00000000000E+00 -0.13190061226E+04  0.13190061226E+04  0.25500000000E-02 0.  1.
    8880023    1    1    2    0    0 -0.88627343955E+03  0.60586840003E+03  0.35425313496E+04  0.37597733571E+04  0.65864270000E+03 0.  0.
    8880022    1    1    2    0    0  0.88627343955E+03 -0.60586840003E+03 -0.96749780092E+03  0.14532724368E+04  0.15294330000E+03 0.  0.
<mgrwt>
<rscale>  0 0.12132491E+04</rscale>
<asrwt>0</asrwt>
<pdfrwt beam="1">  1        2 0.59908303E+00 0.12595108E+04</pdfrwt>
<pdfrwt beam="2">  1       -2 0.20292402E+00 0.12595108E+04</pdfrwt>
<totfact> 0.52440721E-02</totfact>
</mgrwt>
</event>
<event>
 4    1  0.2701205E-007  0.8159145E+03  0.7818608E-02  0.9677386E-01
          2   -1    0    0  501    0  0.00000000000E+00  0.00000000000E+00  0.17933760376E+04  0.17933760376E+04  0.25500000000E-02 0. -1.
         -2   -1    0    0    0  501 -0.00000000000E+00 -0.00000000000E+00 -0.66386856627E+03  0.66386856627E+03  0.25500000000E-02 0.  1.
    8880023    1    1    2    0    0  0.43084272393E+03 -0.21512970839E+03  0.15813348516E+04  0.17794202323E+04  0.65864270000E+03 0. -1.
    8880022    1    1    2    0    0 -0.43084272393E+03  0.21512970839E+03 -0.45182738019E+03  0.67782437158E+03  0.15294330000E+03 0.  0.
<mgrwt>
<rscale>  0 0.72379302E+03</rscale>
<asrwt>0</asrwt>
<pdfrwt beam="1">  1        2 0.27590400E+00 0.81591449E+03</pdfrwt>
<pdfrwt beam="2">  1       -2 0.10213363E+00 0.81591449E+03</pdfrwt>
<totfact> 0.69797497E+00</totfact>
</mgrwt>
</event>
<event>
 4    1  0.2701205E-007  0.1394862E+04  0.7818608E-02  0.8987686E-01
         -2   -1    0    0    0  501 -0.00000000000E+00  0.00000000000E+00  0.93103520798E+03  0.93103520799E+03  0.25500000000E-02 0.  1.
          2   -1    0    0  501    0  0.00000000000E+00 -0.00000000000E+00 -0.24437697646E+04  0.24437697646E+04  0.25500000000E-02 0. -1.
    8880023    1    1    2    0    0  0.11793462955E+04 -0.34780846499E+03 -0.16121030841E+04  0.21317868029E+04  0.65864270000E+03 0.  0.
    8880022    1    1    2    0    0 -0.11793462955E+04  0.34780846499E+03  0.99368527476E+02  0.12430181697E+04  0.15294330000E+03 0.  0.
<mgrwt>
<rscale>  0 0.13541590E+04</rscale>
<asrwt>0</asrwt>
<pdfrwt beam="1">  1        2 0.37596458E+00 0.13948615E+04</pdfrwt>
<pdfrwt beam="2">  1       -2 0.14323619E+00 0.13948615E+04</pdfrwt>
<totfact> 0.12135816E+00</totfact>
</mgrwt>
</event>
<event>
 4    1  0.2701205E-007  0.7408444E+03  0.7818608E-02  0.9857494E-01
         -2   -1    0    0    0  501 -0.00000000000E+00  0.00000000000E+00  0.72462399887E+03  0.72462399888E+03  0.25500000000E-02 0.  1.
          2   -1    0    0  501    0  0.00000000000E+00 -0.00000000000E+00 -0.10999462195E+04  0.10999462195E+04  0.25500000000E-02 0. -1.
    8880023    1    1    2    0    0  0.77979908050E+02 -0.33008987594E+03 -0.90983864287E+03  0.11733101698E+04  0.65864270000E+03 0.  0.
    8880022    1    1    2    0    0 -0.77979908050E+02  0.33008987594E+03  0.53451642222E+03  0.65126004859E+03  0.15294330000E+03 0.  0.
<mgrwt>
<rscale>  0 0.62366266E+03</rscale>
<asrwt>0</asrwt>
<pdfrwt beam="1">  1        2 0.16922249E+00 0.74084438E+03</pdfrwt>
<pdfrwt beam="2">  1       -2 0.11148062E+00 0.74084438E+03</pdfrwt>
<totfact> 0.14123665E+01</totfact>
</mgrwt>
</event>
<event>
 4    1  0.2701205E-007  0.9605632E+03  0.7818608E-02  0.9435076E-01
          2   -1    0    0  501    0  0.00000000000E+00  0.00000000000E+00  0.15885027339E+04  0.15885027339E+04  0.25500000000E-02 0. -1.
         -2   -1    0    0    0  501 -0.00000000000E+00 -0.00000000000E+00 -0.17572961958E+04  0.17572961958E+04  0.25500000000E-02 0.  1.
    8880023    1    1    2    0    0  0.39518247003E+03 -0.57680357236E+03  0.13557857379E+04  0.16615765764E+04  0.65864270000E+03 0. -1.
    8880022    1    1    2    0    0 -0.39518247003E+03  0.57680357236E+03 -0.15245791999E+04  0.16842223533E+04  0.15294330000E+03 0.  0.
<mgrwt>
<rscale>  0 0.89244430E+03</rscale>
<asrwt>0</asrwt>
<pdfrwt beam="1">  1        2 0.24438503E+00 0.96056325E+03</pdfrwt>
<pdfrwt beam="2">  1       -2 0.27035326E+00 0.96056325E+03</pdfrwt>
<totfact> 0.55026003E-01</totfact>
</mgrwt>
</event>
<event>
 4    1  0.2701205E-007  0.9021368E+03  0.7818608E-02  0.9522610E-01
          2   -1    0    0  501    0  0.00000000000E+00  0.00000000000E+00  0.15533808732E+04  0.15533808732E+04  0.25500000000E-02 0. -1.
         -2   -1    0    0    0  501 -0.00000000000E+00 -0.00000000000E+00 -0.92429218375E+03  0.92429218376E+03  0.25500000000E-02 0.  1.
    8880023    1    1    2    0    0  0.49656894879E+03  0.36532154588E+03  0.12814648248E+04  0.15671639533E+04  0.65864270000E+03 0.  0.
    8880022    1    1    2    0    0 -0.49656894879E+03 -0.36532154588E+03 -0.65237613543E+03  0.91050910368E+03  0.15294330000E+03 0.  0.
<mgrwt>
<rscale>  0 0.82637203E+03</rscale>
<asrwt>0</asrwt>
<pdfrwt beam="1">  1        2 0.23898167E+00 0.90213677E+03</pdfrwt>
<pdfrwt beam="2">  1       -2 0.14219880E+00 0.90213677E+03</pdfrwt>
<totfact> 0.41059769E+00</totfact>
</mgrwt>
</event>
<event>
 4    1  0.2701205E-007  0.1131718E+04  0.7818608E-02  0.9226538E-01
         -2   -1    0    0    0  501 -0.00000000000E+00  0.00000000000E+00  0.45474884240E+03  0.45474884241E+03  0.25500000000E-02 0.  1.
          2   -1    0    0  501    0  0.00000000000E+00 -0.00000000000E+00 -0.52575049148E+04  0.52575049148E+04  0.25500000000E-02 0. -1.
    8880023    1    1    2    0    0 -0.20796907950E+03 -0.89650628544E+03 -0.46263833281E+04  0.47627940920E+04  0.65864270000E+03 0.  0.
    8880022    1    1    2    0    0  0.20796907950E+03  0.89650628544E+03 -0.17637274424E+03  0.94945966518E+03  0.15294330000E+03 0.  0.
<mgrwt>
<rscale>  0 0.10783664E+04</rscale>
<asrwt>0</asrwt>
<pdfrwt beam="1">  1        2 0.80884687E+00 0.11317177E+04</pdfrwt>
<pdfrwt beam="2">  1       -2 0.69961364E-01 0.11317177E+04</pdfrwt>
<totfact> 0.30694752E-02</totfact>
</mgrwt>
</event>
<event>
 4    1  0.2701205E-007  0.8182168E+03  0.7818608E-02  0.9672709E-01
         -2   -1    0    0    0  501 -0.00000000000E+00  0.00000000000E+00  0.36438252826E+03  0.36438252827E+03  0.25500000000E-02 0.  1.
          2   -1    0    0  501    0  0.00000000000E+00 -0.00000000000E+00 -0.36328705941E+04  0.36328705941E+04  0.25500000000E-02 0. -1.
    8880023    1    1    2    0    0  0.27087278114E+03  0.40286028423E+03 -0.33787979960E+04  0.34764571875E+04  0.65864270000E+03 0. -1.
    8880022    1    1    2    0    0 -0.27087278114E+03 -0.40286028423E+03  0.11030993012E+03  0.52079593495E+03  0.15294330000E+03 0.  0.
<mgrwt>
<rscale>  0 0.72665180E+03</rscale>
<asrwt>0</asrwt>
<pdfrwt beam="1">  1        2 0.55890315E+00 0.81821677E+03</pdfrwt>
<pdfrwt beam="2">  1       -2 0.56058853E-01 0.81821677E+03</pdfrwt>
<totfact> 0.21032402E+00</totfact>
</mgrwt>
</event>
<event>
 4    1  0.2701205E-007  0.8080136E+03  0.7818608E-02  0.9693729E-01
          2   -1    0    0  501    0  0.00000000000E+00  0.00000000000E+00  0.26943745966E+04  0.26943745966E+04  0.25500000000E-02 0. -1.
         -2   -1    0    0    0  501 -0.00000000000E+00 -0.00000000000E+00 -0.31359641157E+03  0.31359641158E+03  0.25500000000E-02 0.  1.
    8880023    1    1    2    0    0  0.40207502951E+03  0.23960691416E+03  0.23822574957E+04  0.25155589408E+04  0.65864270000E+03 0. -1.
    8880022    1    1    2    0    0 -0.40207502951E+03 -0.23960691416E+03 -0.14793107056E+01  0.49241206732E+03  0.15294330000E+03 0.  0.
<mgrwt>
<rscale>  0 0.71391366E+03</rscale>
<asrwt>0</asrwt>
<pdfrwt beam="1">  1        2 0.41451916E+00 0.80801362E+03</pdfrwt>
<pdfrwt beam="2">  1       -2 0.48245603E-01 0.80801362E+03</pdfrwt>
<totfact> 0.11366824E+01</totfact>
</mgrwt>
</event>
<event>
 4    1  0.2701205E-007  0.6747933E+03  0.7818608E-02  0.1012437E+00
         -2   -1    0    0    0  501 -0.00000000000E+00  0.00000000000E+00  0.17056856149E+03  0.17056856151E+03  0.25500000000E-02 0.  1.
          2   -1    0    0  501    0  0.00000000000E+00 -0.00000000000E+00 -0.16365235482E+04  0.16365235482E+04  0.25500000000E-02 0. -1.
    8880023    1    1    2    0    0  0.95588740555E+02  0.11134919568E+03 -0.14441344896E+04  0.15940108158E+04  0.65864270000E+03 0. -1.
    8880022    1    1    2    0    0 -0.95588740555E+02 -0.11134919568E+03 -0.21820497148E+02  0.21308129390E+03  0.15294330000E+03 0.  0.
<mgrwt>
<rscale>  0 0.50517532E+03</rscale>
<asrwt>0</asrwt>
<pdfrwt beam="1">  1        2 0.25177284E+00 0.67479334E+03</pdfrwt>
<pdfrwt beam="2">  1       -2 0.26241318E-01 0.67479334E+03</pdfrwt>
<totfact> 0.14317316E+02</totfact>
</mgrwt>
</event>
<event>
 4    1  0.2701205E-007  0.1100547E+04  0.7818608E-02  0.9260448E-01
          2   -1    0    0  501    0  0.00000000000E+00  0.00000000000E+00  0.23658291444E+04  0.23658291444E+04  0.25500000000E-02 0. -1.
         -2   -1    0    0    0  501 -0.00000000000E+00 -0.00000000000E+00 -0.55489145395E+03  0.55489145395E+03  0.25500000000E-02 0.  1.
    8880023    1    1    2    0    0 -0.79280385837E+03  0.38581683116E+03  0.16913682064E+04  0.20179021783E+04  0.65864270000E+03 0. -1.
    8880022    1    1    2    0    0  0.79280385837E+03 -0.38581683116E+03  0.11956948398E+03  0.90281842005E+03  0.15294330000E+03 0.  0.
<mgrwt>
<rscale>  0 0.10450709E+04</rscale>
<asrwt>0</asrwt>
<pdfrwt beam="1">  1        2 0.36397371E+00 0.11005466E+04</pdfrwt>
<pdfrwt beam="2">  1       -2 0.85367917E-01 0.11005466E+04</pdfrwt>
<totfact> 0.49368053E+00</totfact>
</mgrwt>
</event>
<event>
 4    1  0.2701205E-007  0.1102193E+04  0.7818608E-02  0.9258618E-01
         -2   -1    0    0    0  501 -0.00000000000E+00  0.00000000000E+00  0.48675424047E+03  0.48675424047E+03  0.25500000000E-02 0.  1.
          2   -1    0    0  501    0  0.00000000000E+00 -0.00000000000E+00 -0.20798619938E+04  0.20798619938E+04  0.25500000000E-02 0. -1.
    8880023    1    1    2    0    0 -0.68321971112E+03  0.56056314238E+03 -0.10235957184E+04  0.15041870267E+04  0.65864270000E+03 0.  0.
    8880022    1    1    2    0    0  0.68321971112E+03 -0.56056314238E+03 -0.56951203501E+03  0.10624292077E+04  0.15294330000E+03 0.  0.
<mgrwt>
<rscale>  0 0.10468349E+04</rscale>
<asrwt>0</asrwt>
<pdfrwt beam="1">  1        2 0.31997876E+00 0.11021935E+04</pdfrwt>
<pdfrwt beam="2">  1       -2 0.74885269E-01 0.11021935E+04</pdfrwt>
<totfact> 0.95905831E+00</totfact>
</mgrwt>
</event>
<event>
 4    1  0.2701205E-007  0.1062506E+04  0.7818608E-02  0.9303996E-01
          2   -1    0    0  501    0  0.00000000000E+00  0.00000000000E+00  0.18576317243E+04  0.18576317243E+04  0.25500000000E-02 0. -1.
         -2   -1    0    0    0  501 -0.00000000000E+00 -0.00000000000E+00 -0.11921978285E+04  0.11921978285E+04  0.25500000000E-02 0.  1.
    8880023    1    1    2    0    0  0.82256036789E+03  0.13602960188E+03  0.15145251433E+04  0.18500557362E+04  0.65864270000E+03 0.  0.
    8880022    1    1    2    0    0 -0.82256036789E+03 -0.13602960188E+03 -0.84909124745E+03  0.11997738166E+04  0.15294330000E+03 0.  0.
<mgrwt>
<rscale>  0 0.10041581E+04</rscale>
<asrwt>0</asrwt>
<pdfrwt beam="1">  1        2 0.28578949E+00 0.10625064E+04</pdfrwt>
<pdfrwt beam="2">  1       -2 0.18341505E+00 0.10625064E+04</pdfrwt>
<totfact> 0.13599130E+00</totfact>
</mgrwt>
</event>
<event>
 4    1  0.2701205E-007  0.2723559E+04  0.7818608E-02  0.8333627E-01
          2   -1    0    0  501    0  0.00000000000E+00  0.00000000000E+00  0.20293408970E+04  0.20293408970E+04  0.25500000000E-02 0. -1.
         -2   -1    0    0    0  501 -0.00000000000E+00 -0.00000000000E+00 -0.53414400782E+04  0.53414400782E+04  0.25500000000E-02 0.  1.
    8880023    1    1    2    0    0  0.11889333363E+04 -0.23601701796E+04 -0.38038416630E+04  0.46783530604E+04  0.65864270000E+03 0.  0.
    8880022    1    1    2    0    0 -0.11889333363E+04  0.23601701796E+04  0.49174248178E+03  0.26924279147E+04  0.15294330000E+03 0.  0.
<mgrwt>
<rscale>  0 0.27042505E+04</rscale>
<asrwt>0</asrwt>
<pdfrwt beam="1">  1        2 0.31220629E+00 0.27235594E+04</pdfrwt>
<pdfrwt beam="2">  1       -2 0.82176001E+00 0.27235594E+04</pdfrwt>
<totfact> 0.29324057E-04</totfact>
</mgrwt>
</event>
<event>
 4    1  0.2701205E-007  0.7374792E+03  0.7818608E-02  0.9867352E-01
         -2   -1    0    0    0  501 -0.00000000000E+00  0.00000000000E+00  0.26231144101E+03  0.26231144102E+03  0.25500000000E-02 0.  1.
          2   -1    0    0  501    0  0.00000000000E+00 -0.00000000000E+00 -0.37649808924E+04  0.37649808924E+04  0.25500000000E-02 0. -1.
    8880023    1    1    2    0    0 -0.28935359200E+03 -0.16229555858E+03 -0.35789103239E+04  0.36541038111E+04  0.65864270000E+03 0.  0.
    8880022    1    1    2    0    0  0.28935359200E+03  0.16229555858E+03  0.76240872503E+02  0.37318852233E+03  0.15294330000E+03 0.  0.
<mgrwt>
<rscale>  0 0.61869983E+03</rscale>
<asrwt>0</asrwt>
<pdfrwt beam="1">  1        2 0.57922779E+00 0.73747919E+03</pdfrwt>
<pdfrwt beam="2">  1       -2 0.40355609E-01 0.73747919E+03</pdfrwt>
<totfact> 0.33363794E+00</totfact>
</mgrwt>
</event>
<event>
 4    1  0.2701205E-007  0.7070956E+03  0.7818608E-02  0.9968948E-01
         -2   -1    0    0    0  501 -0.00000000000E+00  0.00000000000E+00  0.71270986011E+03  0.71270986012E+03  0.25500000000E-02 0.  1.
          2   -1    0    0  501    0  0.00000000000E+00 -0.00000000000E+00 -0.16030781276E+04  0.16030781276E+04  0.25500000000E-02 0. -1.
    8880023    1    1    2    0    0 -0.14533495010E+03  0.21225392011E+03 -0.14879714765E+04  0.16474353691E+04  0.65864270000E+03 0. -1.
    8880022    1    1    2    0    0  0.14533495010E+03 -0.21225392011E+03  0.59760320902E+03  0.66835261858E+03  0.15294330000E+03 0.  0.
<mgrwt>
<rscale>  0 0.57033007E+03</rscale>
<asrwt>0</asrwt>
<pdfrwt beam="1">  1        2 0.24662740E+00 0.70709560E+03</pdfrwt>
<pdfrwt beam="2">  1       -2 0.10964767E+00 0.70709560E+03</pdfrwt>
<totfact> 0.76014202E+00</totfact>
</mgrwt>
</event>
<event>
 4    1  0.2701205E-007  0.7212016E+03  0.7818608E-02  0.9918541E-01
          2   -1    0    0  501    0  0.00000000000E+00  0.00000000000E+00  0.22624009240E+04  0.22624009240E+04  0.25500000000E-02 0. -1.
         -2   -1    0    0    0  501 -0.00000000000E+00 -0.00000000000E+00 -0.62243886074E+03  0.62243886074E+03  0.25500000000E-02 0.  1.
    8880023    1    1    2    0    0  0.12283007770E+03 -0.26689762443E+03  0.21550043428E+04  0.22724822317E+04  0.65864270000E+03 0. -1.
    8880022    1    1    2    0    0 -0.12283007770E+03  0.26689762443E+03 -0.51504227956E+03  0.61235755296E+03  0.15294330000E+03 0.  0.
<mgrwt>
<rscale>  0 0.59371072E+03</rscale>
<asrwt>0</asrwt>
<pdfrwt beam="1">  1        2 0.34806168E+00 0.72120162E+03</pdfrwt>
<pdfrwt beam="2">  1       -2 0.95759825E-01 0.72120162E+03</pdfrwt>
<totfact> 0.45664714E+00</totfact>
</mgrwt>
</event>
<event>
 4    1  0.2701205E-007  0.1157219E+04  0.7818608E-02  0.9199874E-01
          2   -1    0    0  501    0  0.00000000000E+00  0.00000000000E+00  0.20809573298E+04  0.20809573298E+04  0.25500000000E-02 0. -1.
         -2   -1    0    0    0  501 -0.00000000000E+00 -0.00000000000E+00 -0.64435385693E+03  0.64435385693E+03  0.25500000000E-02 0.  1.
    8880023    1    1    2    0    0  0.91731177415E+03 -0.25275211930E+03  0.13186326956E+04  0.17544078537E+04  0.65864270000E+03 0. -1.
    8880022    1    1    2    0    0 -0.91731177415E+03  0.25275211930E+03  0.11797077724E+03  0.97090333304E+03  0.15294330000E+03 0.  0.
<mgrwt>
<rscale>  0 0.11054728E+04</rscale>
<asrwt>0</asrwt>
<pdfrwt beam="1">  1        2 0.32014728E+00 0.11572185E+04</pdfrwt>
<pdfrwt beam="2">  1       -2 0.99131362E-01 0.11572185E+04</pdfrwt>
<totfact> 0.49961024E+00</totfact>
</mgrwt>
</event>
<event>
 4    1  0.2701205E-007  0.1129195E+04  0.7818608E-02  0.9229226E-01
         -2   -1    0    0    0  501 -0.00000000000E+00  0.00000000000E+00  0.57307648635E+03  0.57307648635E+03  0.25500000000E-02 0.  1.
          2   -1    0    0  501    0  0.00000000000E+00 -0.00000000000E+00 -0.18892494258E+04  0.18892494258E+04  0.25500000000E-02 0. -1.
    8880023    1    1    2    0    0 -0.49738423164E+03  0.77063646500E+03 -0.89807536071E+03  0.14427824489E+04  0.65864270000E+03 0.  0.
    8880022    1    1    2    0    0  0.49738423164E+03 -0.77063646500E+03 -0.41809757871E+03  0.10195434632E+04  0.15294330000E+03 0.  0.
<mgrwt>
<rscale>  0 0.10756789E+04</rscale>
<asrwt>0</asrwt>
<pdfrwt beam="1">  1        2 0.29065375E+00 0.11291952E+04</pdfrwt>
<pdfrwt beam="2">  1       -2 0.88165614E-01 0.11291952E+04</pdfrwt>
<totfact> 0.84175490E+00</totfact>
</mgrwt>
</event>
<event>
 4    1  0.2701205E-007  0.9642256E+03  0.7818608E-02  0.9429935E-01
         -2   -1    0    0    0  501 -0.00000000000E+00  0.00000000000E+00  0.43024206690E+03  0.43024206691E+03  0.25500000000E-02 0.  1.
          2   -1    0    0  501    0  0.00000000000E+00 -0.00000000000E+00 -0.26913659947E+04  0.26913659947E+04  0.25500000000E-02 0. -1.
    8880023    1    1    2    0    0  0.68869480406E+03 -0.14703854726E+03 -0.21956057074E+04  0.23980023971E+04  0.65864270000E+03 0. -1.
    8880022    1    1    2    0    0 -0.68869480406E+03  0.14703854726E+03 -0.65518220337E+02  0.72360566452E+03  0.15294330000E+03 0.  0.
<mgrwt>
<rscale>  0 0.89652541E+03</rscale>
<asrwt>0</asrwt>
<pdfrwt beam="1">  1        2 0.41405630E+00 0.96422563E+03</pdfrwt>
<pdfrwt beam="2">  1       -2 0.66191089E-01 0.96422563E+03</pdfrwt>
<totfact> 0.57552736E+00</totfact>
</mgrwt>
</event>
<event>
 4    1  0.2701205E-007  0.8307156E+03  0.7818608E-02  0.9647942E-01
         -2   -1    0    0    0  501 -0.00000000000E+00  0.00000000000E+00  0.20550603219E+03  0.20550603221E+03  0.25500000000E-02 0.  1.
          2   -1    0    0  501    0  0.00000000000E+00 -0.00000000000E+00 -0.25467127578E+04  0.25467127578E+04  0.25500000000E-02 0. -1.
    8880023    1    1    2    0    0  0.17270263673E+02  0.50594461990E+03 -0.18605702788E+04  0.20375991238E+04  0.65864270000E+03 0.  0.
    8880022    1    1    2    0    0 -0.17270263673E+02 -0.50594461990E+03 -0.48063644679E+03  0.71461966626E+03  0.15294330000E+03 0.  0.
<mgrwt>
<rscale>  0 0.74202748E+03</rscale>
<asrwt>0</asrwt>
<pdfrwt beam="1">  1        2 0.39180194E+00 0.83071561E+03</pdfrwt>
<pdfrwt beam="2">  1       -2 0.31616314E-01 0.83071561E+03</pdfrwt>
<totfact> 0.31380317E+01</totfact>
</mgrwt>
</event>
<event>
 4    1  0.2701205E-007  0.7284613E+03  0.7818608E-02  0.9894931E-01
          2   -1    0    0  501    0  0.00000000000E+00  0.00000000000E+00  0.31517112254E+04  0.31517112254E+04  0.25500000000E-02 0. -1.
         -2   -1    0    0    0  501 -0.00000000000E+00 -0.00000000000E+00 -0.15516724219E+03  0.15516724221E+03  0.25500000000E-02 0.  1.
    8880023    1    1    2    0    0 -0.11229061332E+03 -0.29023522910E+03  0.28299111705E+04  0.29221658251E+04  0.65864270000E+03 0.  0.
    8880022    1    1    2    0    0  0.11229061332E+03  0.29023522910E+03  0.16663281273E+03  0.38471264256E+03  0.15294330000E+03 0.  0.
<mgrwt>
<rscale>  0 0.60507579E+03</rscale>
<asrwt>0</asrwt>
<pdfrwt beam="1">  1        2 0.48487868E+00 0.72846131E+03</pdfrwt>
<pdfrwt beam="2">  1       -2 0.23871882E-01 0.72846131E+03</pdfrwt>
<totfact> 0.23177664E+01</totfact>
</mgrwt>
</event>
<event>
 4    1  0.2701205E-007  0.8962525E+03  0.7818608E-02  0.9532074E-01
         -2   -1    0    0    0  501 -0.00000000000E+00  0.00000000000E+00  0.43769637210E+03  0.43769637210E+03  0.25500000000E-02 0.  1.
          2   -1    0    0  501    0  0.00000000000E+00 -0.00000000000E+00 -0.27163090810E+04  0.27163090810E+04  0.25500000000E-02 0. -1.
    8880023    1    1    2    0    0 -0.58117965776E+03  0.17801293346E+03 -0.23576565142E+04  0.25222634368E+04  0.65864270000E+03 0. -1.
    8880022    1    1    2    0    0  0.58117965776E+03 -0.17801293346E+03  0.79043805303E+02  0.63174201637E+03  0.15294330000E+03 0.  0.
<mgrwt>
<rscale>  0 0.81959849E+03</rscale>
<asrwt>0</asrwt>
<pdfrwt beam="1">  1        2 0.41789370E+00 0.89625253E+03</pdfrwt>
<pdfrwt beam="2">  1       -2 0.67337905E-01 0.89625253E+03</pdfrwt>
<totfact> 0.54144966E+00</totfact>
</mgrwt>
</event>
<event>
 4    1  0.2701205E-007  0.8420180E+03  0.7818608E-02  0.9626387E-01
          2   -1    0    0  501    0  0.00000000000E+00  0.00000000000E+00  0.16753551959E+04  0.16753551959E+04  0.25500000000E-02 0. -1.
         -2   -1    0    0    0  501 -0.00000000000E+00 -0.00000000000E+00 -0.16161241236E+04  0.16161241236E+04  0.25500000000E-02 0.  1.
    8880023    1    1    2    0    0  0.50953308087E+03  0.12474041663E+03  0.15168065544E+04  0.17348476768E+04  0.65864270000E+03 0. -1.
    8880022    1    1    2    0    0 -0.50953308087E+03 -0.12474041663E+03 -0.14575754821E+04  0.15566316427E+04  0.15294330000E+03 0.  0.
<mgrwt>
<rscale>  0 0.75574079E+03</rscale>
<asrwt>0</asrwt>
<pdfrwt beam="1">  1        2 0.25774695E+00 0.84201802E+03</pdfrwt>
<pdfrwt beam="2">  1       -2 0.24863448E+00 0.84201802E+03</pdfrwt>
<totfact> 0.68089403E-01</totfact>
</mgrwt>
</event>
<event>
 4    1  0.2701205E-007  0.8891797E+03  0.7818608E-02  0.9543630E-01
          2   -1    0    0  501    0  0.00000000000E+00  0.00000000000E+00  0.79546583288E+03  0.79546583289E+03  0.25500000000E-02 0. -1.
         -2   -1    0    0    0  501 -0.00000000000E+00 -0.00000000000E+00 -0.10195901394E+04  0.10195901394E+04  0.25500000000E-02 0.  1.
    8880023    1    1    2    0    0 -0.50957259273E+03 -0.31171486727E+03  0.36599320392E+03  0.96155687160E+03  0.65864270000E+03 0.  0.
    8880022    1    1    2    0    0  0.50957259273E+03  0.31171486727E+03 -0.59011751041E+03  0.85349910067E+03  0.15294330000E+03 0.  0.
<mgrwt>
<rscale>  0 0.81142209E+03</rscale>
<asrwt>0</asrwt>
<pdfrwt beam="1">  1        2 0.12237936E+00 0.88917973E+03</pdfrwt>
<pdfrwt beam="2">  1       -2 0.15686002E+00 0.88917973E+03</pdfrwt>
<totfact> 0.92436536E+00</totfact>
</mgrwt>
</event>
<event>
 4    1  0.2701205E-007  0.1104125E+04  0.7818608E-02  0.9256477E-01
         -2   -1    0    0    0  501 -0.00000000000E+00  0.00000000000E+00  0.72309799828E+03  0.72309799828E+03  0.25500000000E-02 0.  1.
          2   -1    0    0  501    0  0.00000000000E+00 -0.00000000000E+00 -0.29109780332E+04  0.29109780332E+04  0.25500000000E-02 0. -1.
    8880023    1    1    2    0    0 -0.58514103540E+03  0.66550151522E+03 -0.24584351121E+04  0.26949945649E+04  0.65864270000E+03 0.  0.
    8880022    1    1    2    0    0  0.58514103540E+03 -0.66550151522E+03  0.27055507720E+03  0.93908146659E+03  0.15294330000E+03 0.  0.
<mgrwt>
<rscale>  0 0.10489032E+04</rscale>
<asrwt>0</asrwt>
<pdfrwt beam="1">  1        2 0.44784277E+00 0.11041252E+04</pdfrwt>
<pdfrwt beam="2">  1       -2 0.11124585E+00 0.11041252E+04</pdfrwt>
<totfact> 0.12653689E+00</totfact>
</mgrwt>
</event>
<event>
 4    1  0.2701205E-007  0.1745718E+04  0.7818608E-02  0.8753173E-01
          2   -1    0    0  501    0  0.00000000000E+00  0.00000000000E+00  0.34132111158E+04  0.34132111158E+04  0.25500000000E-02 0. -1.
         -2   -1    0    0    0  501 -0.00000000000E+00 -0.00000000000E+00 -0.13020644743E+04  0.13020644743E+04  0.25500000000E-02 0.  1.
    8880023    1    1    2    0    0  0.12536076037E+04 -0.10208761291E+04 -0.33656051842E+03  0.17778648104E+04  0.65864270000E+03 0.  0.
    8880022    1    1    2    0    0 -0.12536076037E+04  0.10208761291E+04  0.24477071599E+04  0.29374107797E+04  0.15294330000E+03 0.  0.
<mgrwt>
<rscale>  0 0.17144372E+04</rscale>
<asrwt>0</asrwt>
<pdfrwt beam="1">  1        2 0.52510940E+00 0.17457177E+04</pdfrwt>
<pdfrwt beam="2">  1       -2 0.20031761E+00 0.17457177E+04</pdfrwt>
<totfact> 0.11350461E-01</totfact>
</mgrwt>
</event>
<event>
 4    1  0.2701205E-007  0.8803269E+03  0.7818608E-02  0.9558381E-01
         -2   -1    0    0    0  501 -0.00000000000E+00  0.00000000000E+00  0.13676042318E+04  0.13676042318E+04  0.25500000000E-02 0.  1.
          2   -1    0    0  501    0  0.00000000000E+00 -0.00000000000E+00 -0.12015645331E+04  0.12015645331E+04  0.25500000000E-02 0. -1.
    8880023    1    1    2    0    0  0.56722126280E+03 -0.13937432224E+03 -0.95315835045E+03  0.12974922774E+04  0.65864270000E+03 0.  0.
    8880022    1    1    2    0    0 -0.56722126280E+03  0.13937432224E+03  0.11191980492E+04  0.12716764875E+04  0.15294330000E+03 0.  0.
<mgrwt>
<rscale>  0 0.80113114E+03</rscale>
<asrwt>0</asrwt>
<pdfrwt beam="1">  1        2 0.18485608E+00 0.88032685E+03</pdfrwt>
<pdfrwt beam="2">  1       -2 0.21040065E+00 0.88032685E+03</pdfrwt>
<totfact> 0.21699252E+00</totfact>
</mgrwt>
</event>
<event>
 4    1  0.2701205E-007  0.8519582E+03  0.7818608E-02  0.9608031E-01
         -2   -1    0    0    0  501 -0.00000000000E+00  0.00000000000E+00  0.70455577084E+03  0.70455577084E+03  0.25500000000E-02 0.  1.
          2   -1    0    0  501    0  0.00000000000E+00 -0.00000000000E+00 -0.18028078799E+04  0.18028078799E+04  0.25500000000E-02 0. -1.
    8880023    1    1    2    0    0 -0.49311069998E+03 -0.22105301199E+03 -0.15618617950E+04  0.17791135628E+04  0.65864270000E+03 0. -1.
    8880022    1    1    2    0    0  0.49311069998E+03  0.22105301199E+03  0.46360968597E+03  0.72825008787E+03  0.15294330000E+03 0.  0.
<mgrwt>
<rscale>  0 0.76766879E+03</rscale>
<asrwt>0</asrwt>
<pdfrwt beam="1">  1        2 0.27735506E+00 0.85195822E+03</pdfrwt>
<pdfrwt beam="2">  1       -2 0.10839320E+00 0.85195822E+03</pdfrwt>
<totfact> 0.59481779E+00</totfact>
</mgrwt>
</event>
<event>
 4    1  0.2701205E-007  0.7744395E+03  0.7818608E-02  0.9769065E-01
          2   -1    0    0  501    0  0.00000000000E+00  0.00000000000E+00  0.13177568584E+04  0.13177568584E+04  0.25500000000E-02 0. -1.
         -2   -1    0    0    0  501 -0.00000000000E+00 -0.00000000000E+00 -0.91360474824E+03  0.91360474824E+03  0.25500000000E-02 0.  1.
    8880023    1    1    2    0    0  0.75412510016E+02  0.40032397545E+03  0.11390020884E+04  0.13773461059E+04  0.65864270000E+03 0. -1.
    8880022    1    1    2    0    0 -0.75412510016E+02 -0.40032397545E+03 -0.73484997820E+03  0.85401550071E+03  0.15294330000E+03 0.  0.
<mgrwt>
<rscale>  0 0.67049469E+03</rscale>
<asrwt>0</asrwt>
<pdfrwt beam="1">  1        2 0.20273182E+00 0.77443950E+03</pdfrwt>
<pdfrwt beam="2">  1       -2 0.14055458E+00 0.77443950E+03</pdfrwt>
<totfact> 0.58482171E+00</totfact>
</mgrwt>
</event>
<event>
 4    1  0.2701205E-007  0.7421090E+03  0.7818608E-02  0.9853846E-01
          2   -1    0    0  501    0  0.00000000000E+00  0.00000000000E+00  0.71486276887E+03  0.71486276888E+03  0.25500000000E-02 0. -1.
         -2   -1    0    0    0  501 -0.00000000000E+00 -0.00000000000E+00 -0.11029473060E+04  0.11029473060E+04  0.25500000000E-02 0.  1.
    8880023    1    1    2    0    0 -0.26594857685E+03  0.21491139597E+03  0.47214092347E+03  0.87956967406E+03  0.65864270000E+03 0.  0.
    8880022    1    1    2    0    0  0.26594857685E+03 -0.21491139597E+03 -0.86022546059E+03  0.93824040080E+03  0.15294330000E+03 0.  1.
<mgrwt>
<rscale>  0 0.62551218E+03</rscale>
<asrwt>0</asrwt>
<pdfrwt beam="1">  1        2 0.10997889E+00 0.74210899E+03</pdfrwt>
<pdfrwt beam="2">  1       -2 0.16968420E+00 0.74210899E+03</pdfrwt>
<totfact> 0.87005822E+00</totfact>
</mgrwt>
</event>
<event>
 4    1  0.2701205E-007  0.7388751E+03  0.7818608E-02  0.9863236E-01
         -2   -1    0    0    0  501 -0.00000000000E+00  0.00000000000E+00  0.60673477711E+03  0.60673477712E+03  0.25500000000E-02 0.  1.
          2   -1    0    0  501    0  0.00000000000E+00 -0.00000000000E+00 -0.95493664861E+03  0.95493664861E+03  0.25500000000E-02 0. -1.
    8880023    1    1    2    0    0 -0.15360613755E+03 -0.29754212958E+03 -0.72481020061E+03  0.10350295636E+04  0.65864270000E+03 0. -1.
    8880022    1    1    2    0    0  0.15360613755E+03  0.29754212958E+03  0.37660832911E+03  0.52664186212E+03  0.15294330000E+03 0.  0.
<mgrwt>
<rscale>  0 0.62076584E+03</rscale>
<asrwt>0</asrwt>
<pdfrwt beam="1">  1        2 0.14691333E+00 0.73887507E+03</pdfrwt>
<pdfrwt beam="2">  1       -2 0.93343812E-01 0.73887507E+03</pdfrwt>
<totfact> 0.26609023E+01</totfact>
</mgrwt>
</event>
<event>
 4    1  0.2701205E-007  0.2568252E+04  0.7818608E-02  0.8386183E-01
          2   -1    0    0  501    0  0.00000000000E+00  0.00000000000E+00  0.40166559485E+04  0.40166559485E+04  0.25500000000E-02 0. -1.
         -2   -1    0    0    0  501 -0.00000000000E+00 -0.00000000000E+00 -0.15953698072E+04  0.15953698072E+04  0.25500000000E-02 0.  1.
    8880023    1    1    2    0    0 -0.24366681815E+04  0.47408355367E+03  0.10772888035E+04  0.27850437007E+04  0.65864270000E+03 0.  0.
    8880022    1    1    2    0    0  0.24366681815E+04 -0.47408355367E+03  0.13439973378E+04  0.28269820550E+04  0.15294330000E+03 0.  0.
<mgrwt>
<rscale>  0 0.25477103E+04</rscale>
<asrwt>0</asrwt>
<pdfrwt beam="1">  1        2 0.61794707E+00 0.25682518E+04</pdfrwt>
<pdfrwt beam="2">  1       -2 0.24544151E+00 0.25682518E+04</pdfrwt>
<totfact> 0.19106415E-02</totfact>
</mgrwt>
</event>
<event>
 4    1  0.2701205E-007  0.7328473E+03  0.7818608E-02  0.9881294E-01
         -2   -1    0    0    0  501 -0.00000000000E+00  0.00000000000E+00  0.76725640231E+03  0.76725640232E+03  0.25500000000E-02 0.  1.
          2   -1    0    0  501    0  0.00000000000E+00 -0.00000000000E+00 -0.22560721088E+04  0.22560721088E+04  0.25500000000E-02 0. -1.
    8880023    1    1    2    0    0 -0.84717606229E+02 -0.30996442081E+03 -0.21505402662E+04  0.22719790179E+04  0.65864270000E+03 0.  0.
    8880022    1    1    2    0    0  0.84717606229E+02  0.30996442081E+03  0.66172455973E+03  0.75134949320E+03  0.15294330000E+03 0.  0.
<mgrwt>
<rscale>  0 0.61176462E+03</rscale>
<asrwt>0</asrwt>
<pdfrwt beam="1">  1        2 0.34708801E+00 0.73284734E+03</pdfrwt>
<pdfrwt beam="2">  1       -2 0.11803945E+00 0.73284734E+03</pdfrwt>
<totfact> 0.27796170E+00</totfact>
</mgrwt>
</event>
<event>
 4    1  0.2701205E-007  0.6784528E+03  0.7818608E-02  0.1010213E+00
         -2   -1    0    0    0  501 -0.00000000000E+00  0.00000000000E+00  0.10193886726E+03  0.10193886730E+03  0.25500000000E-02 0.  1.
          2   -1    0    0  501    0  0.00000000000E+00 -0.00000000000E+00 -0.20433691058E+04  0.20433691058E+04  0.25500000000E-02 0. -1.
    8880023    1    1    2    0    0  0.24137361294E+01  0.16273344576E+03 -0.13049270704E+04  0.14707592820E+04  0.65864270000E+03 0.  1.
    8880022    1    1    2    0    0 -0.24137361294E+01 -0.16273344576E+03 -0.63650316815E+03  0.67454869103E+03  0.15294330000E+03 0. -1.
<mgrwt>
<rscale>  0 0.51390182E+03</rscale>
<asrwt>0</asrwt>
<pdfrwt beam="1">  1        2 0.31436445E+00 0.67845280E+03</pdfrwt>
<pdfrwt beam="2">  1       -2 0.15682904E-01 0.67845280E+03</pdfrwt>
<totfact> 0.21182209E+02</totfact>
</mgrwt>
</event>
<event>
 4    1  0.2701205E-007  0.7877035E+03  0.7818608E-02  0.9738043E-01
          2   -1    0    0  501    0  0.00000000000E+00  0.00000000000E+00  0.54772085360E+03  0.54772085361E+03  0.25500000000E-02 0. -1.
         -2   -1    0    0    0  501 -0.00000000000E+00 -0.00000000000E+00 -0.13854304654E+04  0.13854304654E+04  0.25500000000E-02 0.  1.
    8880023    1    1    2    0    0 -0.37914913081E+03  0.20715346607E+03  0.18789022352E+03  0.80980217600E+03  0.65864270000E+03 0.  0.
    8880022    1    1    2    0    0  0.37914913081E+03 -0.20715346607E+03 -0.10255998353E+04  0.11233491430E+04  0.15294330000E+03 0.  0.
<mgrwt>
<rscale>  0 0.68796218E+03</rscale>
<asrwt>0</asrwt>
<pdfrwt beam="1">  1        2 0.84264747E-01 0.78770352E+03</pdfrwt>
<pdfrwt beam="2">  1       -2 0.21314315E+00 0.78770352E+03</pdfrwt>
<totfact> 0.61524301E+00</totfact>
</mgrwt>
</event>
<event>
 4    1  0.2701205E-007  0.1071111E+04  0.7818608E-02  0.9293923E-01
          2   -1    0    0  501    0  0.00000000000E+00  0.00000000000E+00  0.14875256628E+04  0.14875256628E+04  0.25500000000E-02 0. -1.
         -2   -1    0    0    0  501 -0.00000000000E+00 -0.00000000000E+00 -0.97741877920E+03  0.97741877920E+03  0.25500000000E-02 0.  1.
    8880023    1    1    2    0    0  0.31703671570E+03 -0.78291546312E+03  0.10094849039E+04  0.14718487962E+04  0.65864270000E+03 0.  0.
    8880022    1    1    2    0    0 -0.31703671570E+03  0.78291546312E+03 -0.49937802028E+03  0.99309564577E+03  0.15294330000E+03 0.  0.
<mgrwt>
<rscale>  0 0.10134424E+04</rscale>
<asrwt>0</asrwt>
<pdfrwt beam="1">  1        2 0.22885010E+00 0.10711112E+04</pdfrwt>
<pdfrwt beam="2">  1       -2 0.15037212E+00 0.10711112E+04</pdfrwt>
<totfact> 0.37817737E+00</totfact>
</mgrwt>
</event>
<event>
 4    1  0.2701205E-007  0.7397967E+03  0.7818608E-02  0.9860540E-01
          2   -1    0    0  501    0  0.00000000000E+00  0.00000000000E+00  0.28620026987E+04  0.28620026987E+04  0.25500000000E-02 0. -1.
         -2   -1    0    0    0  501 -0.00000000000E+00 -0.00000000000E+00 -0.13169323144E+03  0.13169323146E+03  0.25500000000E-02 0.  1.
    8880023    1    1    2    0    0  0.17551380805E+03 -0.28754804485E+03  0.23475368947E+04  0.24613469185E+04  0.65864270000E+03 0. -1.
    8880022    1    1    2    0    0 -0.17551380805E+03  0.28754804485E+03  0.38277257256E+03  0.53234901168E+03  0.15294330000E+03 0.  0.
<mgrwt>
<rscale>  0 0.62212413E+03</rscale>
<asrwt>0</asrwt>
<pdfrwt beam="1">  1        2 0.44030811E+00 0.73979672E+03</pdfrwt>
<pdfrwt beam="2">  1       -2 0.20260497E-01 0.73979672E+03</pdfrwt>
<totfact> 0.46557356E+01</totfact>
</mgrwt>
</event>
<event>
 4    1  0.2701205E-007  0.1302248E+04  0.7818608E-02  0.9063621E-01
          2   -1    0    0  501    0  0.00000000000E+00  0.00000000000E+00  0.24071381146E+04  0.24071381146E+04  0.25500000000E-02 0. -1.
         -2   -1    0    0    0  501 -0.00000000000E+00 -0.00000000000E+00 -0.76333118158E+03  0.76333118159E+03  0.25500000000E-02 0.  1.
    8880023    1    1    2    0    0  0.11186186188E+04  0.10359651526E+03  0.15621614960E+04  0.20337646368E+04  0.65864270000E+03 0. -1.
    8880022    1    1    2    0    0 -0.11186186188E+04 -0.10359651526E+03  0.81645437045E+02  0.11367046594E+04  0.15294330000E+03 0.  0.
<mgrwt>
<rscale>  0 0.12579153E+04</rscale>
<asrwt>0</asrwt>
<pdfrwt beam="1">  1        2 0.37032893E+00 0.13022481E+04</pdfrwt>
<pdfrwt beam="2">  1       -2 0.11743557E+00 0.13022481E+04</pdfrwt>
<totfact> 0.21372134E+00</totfact>
</mgrwt>
</event>
<event>
 4    1  0.2701205E-007  0.6657673E+03  0.7818608E-02  0.1018898E+00
          2   -1    0    0  501    0  0.00000000000E+00  0.00000000000E+00  0.55682930634E+03  0.55682930634E+03  0.25500000000E-02 0. -1.
         -2   -1    0    0    0  501 -0.00000000000E+00 -0.00000000000E+00 -0.40454346968E+03  0.40454346968E+03  0.25500000000E-02 0.  1.
    8880023    1    1    2    0    0 -0.71644340567E+02  0.65597304838E+02  0.29746496753E+03  0.72919923965E+03  0.65864270000E+03 0. -1.
    8880022    1    1    2    0    0  0.71644340567E+02 -0.65597304838E+02 -0.14517913087E+03  0.23217353637E+03  0.15294330000E+03 0.  0.
<mgrwt>
<rscale>  0 0.48086337E+03</rscale>
<asrwt>0</asrwt>
<pdfrwt beam="1">  1        2 0.85666047E-01 0.66576732E+03</pdfrwt>
<pdfrwt beam="2">  1       -2 0.62237457E-01 0.66576732E+03</pdfrwt>
<totfact> 0.13197031E+02</totfact>
</mgrwt>
</event>
<event>
 4    1  0.2701205E-007  0.6722661E+03  0.7818608E-02  0.1014088E+00
         -2   -1    0    0    0  501 -0.00000000000E+00  0.00000000000E+00  0.24475543236E+03  0.24475543238E+03  0.25500000000E-02 0.  1.
          2   -1    0    0  501    0  0.00000000000E+00 -0.00000000000E+00 -0.10986515558E+04  0.10986515558E+04  0.25500000000E-02 0. -1.
    8880023    1    1    2    0    0  0.10375297224E+02  0.13425302682E+03 -0.91061889029E+03  0.11318871373E+04  0.65864270000E+03 0. -1.
    8880022    1    1    2    0    0 -0.10375297224E+02 -0.13425302682E+03  0.56722766878E+02  0.21151985084E+03  0.15294330000E+03 0.  0.
<mgrwt>
<rscale>  0 0.49881814E+03</rscale>
<asrwt>0</asrwt>
<pdfrwt beam="1">  1        2 0.16902331E+00 0.67226611E+03</pdfrwt>
<pdfrwt beam="2">  1       -2 0.37654683E-01 0.67226611E+03</pdfrwt>
<totfact> 0.14786289E+02</totfact>
</mgrwt>
</event>
<event>
 4    1  0.2701205E-007  0.1792150E+04  0.7818608E-02  0.8726891E-01
          2   -1    0    0  501    0  0.00000000000E+00  0.00000000000E+00  0.39532880952E+04  0.39532880952E+04  0.25500000000E-02 0. -1.
         -2   -1    0    0    0  501 -0.00000000000E+00 -0.00000000000E+00 -0.13710183138E+04  0.13710183138E+04  0.25500000000E-02 0.  1.
    8880023    1    1    2    0    0 -0.31448178533E+03  0.16367938624E+04  0.30927298904E+04  0.35744623823E+04  0.65864270000E+03 0.  0.
    8880022    1    1    2    0    0  0.31448178533E+03 -0.16367938624E+04 -0.51046010903E+03  0.17498440266E+04  0.15294330000E+03 0.  0.
<mgrwt>
<rscale>  0 0.17617831E+04</rscale>
<asrwt>0</asrwt>
<pdfrwt beam="1">  1        2 0.60819816E+00 0.17921504E+04</pdfrwt>
<pdfrwt beam="2">  1       -2 0.21092590E+00 0.17921504E+04</pdfrwt>
<totfact> 0.38622452E-02</totfact>
</mgrwt>
</event>
<event>
 4    1  0.2701205E-007  0.7587845E+03  0.7818608E-02  0.9808265E-01
         -2   -1    0    0    0  501 -0.00000000000E+00  0.00000000000E+00  0.14117875823E+04  0.14117875823E+04  0.25500000000E-02 0.  1.
          2   -1    0    0  501    0  0.00000000000E+00 -0.00000000000E+00 -0.29642502658E+03  0.29642502659E+03  0.25500000000E-02 0. -1.
    8880023    1    1    2    0    0 -0.85806433132E+02 -0.36685269448E+03  0.33744288362E+03  0.83043455454E+03  0.65864270000E+03 0. -1.
    8880022    1    1    2    0    0  0.85806433132E+02  0.36685269448E+03  0.77791967207E+03  0.87777805431E+03  0.15294330000E+03 0.  1.
<mgrwt>
<rscale>  0 0.64920898E+03</rscale>
<asrwt>0</asrwt>
<pdfrwt beam="1">  1        2 0.45603850E-01 0.75878446E+03</pdfrwt>
<pdfrwt beam="2">  1       -2 0.21719809E+00 0.75878446E+03</pdfrwt>
<totfact> 0.11681158E+01</totfact>
</mgrwt>
</event>
<event>
 4    1  0.2701205E-007  0.6791531E+03  0.7818608E-02  0.1009807E+00
          2   -1    0    0  501    0  0.00000000000E+00  0.00000000000E+00  0.24411912316E+04  0.24411912316E+04  0.25500000000E-02 0. -1.
         -2   -1    0    0    0  501 -0.00000000000E+00 -0.00000000000E+00 -0.10144707772E+03  0.10144707775E+03  0.25500000000E-02 0.  1.
    8880023    1    1    2    0    0 -0.13288698283E+02 -0.16511235951E+03  0.21264651000E+04  0.22322864307E+04  0.65864270000E+03 0. -1.
    8880022    1    1    2    0    0  0.13288698283E+02  0.16511235951E+03  0.21327905390E+03  0.31035187870E+03  0.15294330000E+03 0.  0.
<mgrwt>
<rscale>  0 0.51551478E+03</rscale>
<asrwt>0</asrwt>
<pdfrwt beam="1">  1        2 0.37556785E+00 0.67915307E+03</pdfrwt>
<pdfrwt beam="2">  1       -2 0.15607244E-01 0.67915307E+03</pdfrwt>
<totfact> 0.12881773E+02</totfact>
</mgrwt>
</event>
<event>
 4    1  0.2701205E-007  0.9025279E+03  0.7818608E-02  0.9521986E-01
         -2   -1    0    0    0  501 -0.00000000000E+00  0.00000000000E+00  0.40856065648E+03  0.40856065649E+03  0.25500000000E-02 0.  1.
          2   -1    0    0  501    0  0.00000000000E+00 -0.00000000000E+00 -0.17322216420E+04  0.17322216420E+04  0.25500000000E-02 0. -1.
    8880023    1    1    2    0    0  0.23521850485E+03 -0.57045485088E+03 -0.11859596219E+04  0.14903210771E+04  0.65864270000E+03 0.  0.
    8880022    1    1    2    0    0 -0.23521850485E+03  0.57045485088E+03 -0.13770136361E+03  0.65046122135E+03  0.15294330000E+03 0.  0.
<mgrwt>
<rscale>  0 0.82682143E+03</rscale>
<asrwt>0</asrwt>
<pdfrwt beam="1">  1        2 0.26649563E+00 0.90252794E+03</pdfrwt>
<pdfrwt beam="2">  1       -2 0.62855487E-01 0.90252794E+03</pdfrwt>
<totfact> 0.22300673E+01</totfact>
</mgrwt>
</event>
<event>
 4    1  0.2701205E-007  0.7992703E+03  0.7818608E-02  0.9712376E-01
          2   -1    0    0  501    0  0.00000000000E+00  0.00000000000E+00  0.85922067857E+03  0.85922067857E+03  0.25500000000E-02 0. -1.
         -2   -1    0    0    0  501 -0.00000000000E+00 -0.00000000000E+00 -0.11294914653E+04  0.11294914653E+04  0.25500000000E-02 0.  1.
    8880023    1    1    2    0    0  0.19364141102E+03  0.40929918998E+03  0.59757989735E+03  0.99796531150E+03  0.65864270000E+03 0. -1.
    8880022    1    1    2    0    0 -0.19364141102E+03 -0.40929918998E+03 -0.86785068409E+03  0.99074683238E+03  0.15294330000E+03 0.  0.
<mgrwt>
<rscale>  0 0.70284687E+03</rscale>
<asrwt>0</asrwt>
<pdfrwt beam="1">  1        2 0.13218780E+00 0.79927031E+03</pdfrwt>
<pdfrwt beam="2">  1       -2 0.17376792E+00 0.79927031E+03</pdfrwt>
<totfact> 0.63488559E+00</totfact>
</mgrwt>
</event>
<event>
 4    1  0.2701205E-007  0.7575023E+03  0.7818608E-02  0.9811617E-01
         -2   -1    0    0    0  501 -0.00000000000E+00  0.00000000000E+00  0.90314284649E+03  0.90314284649E+03  0.25500000000E-02 0.  1.
          2   -1    0    0  501    0  0.00000000000E+00 -0.00000000000E+00 -0.93113169636E+03  0.93113169636E+03  0.25500000000E-02 0. -1.
    8880023    1    1    2    0    0 -0.32298290118E+03 -0.18889553801E+03 -0.71210433265E+03  0.10396644966E+04  0.65864270000E+03 0. -1.
    8880022    1    1    2    0    0  0.32298290118E+03  0.18889553801E+03  0.68411548278E+03  0.79461004621E+03  0.15294330000E+03 0.  0.
<mgrwt>
<rscale>  0 0.64742805E+03</rscale>
<asrwt>0</asrwt>
<pdfrwt beam="1">  1        2 0.14325103E+00 0.75750227E+03</pdfrwt>
<pdfrwt beam="2">  1       -2 0.13894505E+00 0.75750227E+03</pdfrwt>
<totfact> 0.10399079E+01</totfact>
</mgrwt>
</event>
<event>
 4    1  0.2701205E-007  0.6968086E+03  0.7818608E-02  0.1001071E+00
          2   -1    0    0  501    0  0.00000000000E+00  0.00000000000E+00  0.22039971405E+04  0.22039971405E+04  0.25500000000E-02 0. -1.
         -2   -1    0    0    0  501 -0.00000000000E+00 -0.00000000000E+00 -0.10754200836E+03  0.10754200839E+03  0.25500000000E-02 0.  1.
    8880023    1    1    2    0    0 -0.22661289509E+03 -0.19457408358E+02  0.14230481272E+04  0.15844898781E+04  0.65864270000E+03 0. -1.
    8880022    1    1    2    0    0  0.22661289509E+03  0.19457408358E+02  0.67340700494E+03  0.72704927087E+03  0.15294330000E+03 0. -1.
<mgrwt>
<rscale>  0 0.55183241E+03</rscale>
<asrwt>0</asrwt>
<pdfrwt beam="1">  1        2 0.33907646E+00 0.69680858E+03</pdfrwt>
<pdfrwt beam="2">  1       -2 0.16544925E-01 0.69680858E+03</pdfrwt>
<totfact> 0.15764783E+02</totfact>
</mgrwt>
</event>
<event>
 4    1  0.2701205E-007  0.8430643E+03  0.7818608E-02  0.9624429E-01
          2   -1    0    0  501    0  0.00000000000E+00  0.00000000000E+00  0.20400457674E+04  0.20400457674E+04  0.25500000000E-02 0. -1.
         -2   -1    0    0    0  501 -0.00000000000E+00 -0.00000000000E+00 -0.57740201601E+03  0.57740201602E+03  0.25500000000E-02 0.  1.
    8880023    1    1    2    0    0  0.94247673531E+02  0.51774956567E+03  0.17903455313E+04  0.19789124701E+04  0.65864270000E+03 0.  0.
    8880022    1    1    2    0    0 -0.94247673531E+02 -0.51774956567E+03 -0.32770177992E+03  0.63853531328E+03  0.15294330000E+03 0.  0.
<mgrwt>
<rscale>  0 0.75700191E+03</rscale>
<asrwt>0</asrwt>
<pdfrwt beam="1">  1        2 0.31385320E+00 0.84306432E+03</pdfrwt>
<pdfrwt beam="2">  1       -2 0.88831078E-01 0.84306432E+03</pdfrwt>
<totfact> 0.70672731E+00</totfact>
</mgrwt>
</event>
<event>
 4    1  0.3062304E-007  0.1631775E+04  0.7818608E-02  0.8821786E-01
          2   -1    0    0  501    0  0.00000000000E+00  0.00000000000E+00  0.21638062998E+04  0.21638062998E+04  0.25500000000E-02 0. -1.
         -2   -1    0    0    0  501 -0.00000000000E+00 -0.00000000000E+00 -0.19073206098E+04  0.19073206098E+04  0.25500000000E-02 0.  1.
    8880023    1    1    2    0    0 -0.12349012348E+04  0.83898725649E+03  0.14271182354E+04  0.21678001154E+04  0.65864270000E+03 0.  0.
    8880022    1    1    2    0    0  0.12349012348E+04 -0.83898725649E+03 -0.11706325453E+04  0.19033267942E+04  0.15294330000E+03 0.  0.
<mgrwt>
<rscale>  0 0.15979857E+04</rscale>
<asrwt>0</asrwt>
<pdfrwt beam="1">  1        2 0.33289328E+00 0.16317754E+04</pdfrwt>
<pdfrwt beam="2">  1       -2 0.29343394E+00 0.16317754E+04</pdfrwt>
<totfact> 0.17418713E-01</totfact>
</mgrwt>
</event>
<event>
 4    1  0.2701205E-007  0.1106848E+04  0.7818608E-02  0.9253470E-01
         -2   -1    0    0    0  501 -0.00000000000E+00  0.00000000000E+00  0.64129256534E+03  0.64129256535E+03  0.25500000000E-02 0.  1.
          2   -1    0    0  501    0  0.00000000000E+00 -0.00000000000E+00 -0.24894627707E+04  0.24894627707E+04  0.25500000000E-02 0. -1.
    8880023    1    1    2    0    0 -0.77981278621E+02 -0.88612659173E+03 -0.19295696497E+04  0.22244888526E+04  0.65864270000E+03 0.  0.
    8880022    1    1    2    0    0  0.77981278621E+02  0.88612659173E+03  0.81399444301E+02  0.90626648340E+03  0.15294330000E+03 0.  0.
<mgrwt>
<rscale>  0 0.10518169E+04</rscale>
<asrwt>0</asrwt>
<pdfrwt beam="1">  1        2 0.38299427E+00 0.11068476E+04</pdfrwt>
<pdfrwt beam="2">  1       -2 0.98660396E-01 0.11068476E+04</pdfrwt>
<totfact> 0.29939598E+00</totfact>
</mgrwt>
</event>
<event>
 4    1  0.2701205E-007  0.1248674E+04  0.7818608E-02  0.9111201E-01
          2   -1    0    0  501    0  0.00000000000E+00  0.00000000000E+00  0.20200355516E+04  0.20200355516E+04  0.25500000000E-02 0. -1.
         -2   -1    0    0    0  501 -0.00000000000E+00 -0.00000000000E+00 -0.11662812625E+04  0.11662812625E+04  0.25500000000E-02 0.  1.
    8880023    1    1    2    0    0 -0.10151129143E+04 -0.30809488504E+03  0.14867484371E+04  0.19415477868E+04  0.65864270000E+03 0.  0.
    8880022    1    1    2    0    0  0.10151129143E+04  0.30809488504E+03 -0.63299414802E+03  0.12447690273E+04  0.15294330000E+03 0.  0.
<mgrwt>
<rscale>  0 0.12018932E+04</rscale>
<asrwt>0</asrwt>
<pdfrwt beam="1">  1        2 0.31077470E+00 0.12486741E+04</pdfrwt>
<pdfrwt beam="2">  1       -2 0.17942789E+00 0.12486741E+04</pdfrwt>
<totfact> 0.11513325E+00</totfact>
</mgrwt>
</event>
<event>
 4    1  0.2701205E-007  0.6645435E+03  0.7818608E-02  0.1019920E+00
          2   -1    0    0  501    0  0.00000000000E+00  0.00000000000E+00  0.13777495992E+04  0.13777495992E+04  0.25500000000E-02 0. -1.
         -2   -1    0    0    0  501 -0.00000000000E+00 -0.00000000000E+00 -0.39111517539E+03  0.39111517539E+03  0.25500000000E-02 0.  1.
    8880023    1    1    2    0    0  0.87953438992E+02 -0.84873937693E+01  0.12709199842E+04  0.14341742069E+04  0.65864270000E+03 0. -1.
    8880022    1    1    2    0    0 -0.87953438992E+02  0.84873937693E+01 -0.28428556035E+03  0.33469056772E+03  0.15294330000E+03 0.  0.
<mgrwt>
<rscale>  0 0.47715667E+03</rscale>
<asrwt>0</asrwt>
<pdfrwt beam="1">  1        2 0.21196148E+00 0.66454349E+03</pdfrwt>
<pdfrwt beam="2">  1       -2 0.60171565E-01 0.66454349E+03</pdfrwt>
<totfact> 0.39535122E+01</totfact>
</mgrwt>
</event>
<event>
 4    1  0.2701205E-007  0.1991486E+04  0.7818608E-02  0.8623411E-01
          2   -1    0    0  501    0  0.00000000000E+00  0.00000000000E+00  0.33556510562E+04  0.33556510562E+04  0.25500000000E-02 0. -1.
         -2   -1    0    0    0  501 -0.00000000000E+00 -0.00000000000E+00 -0.12195022392E+04  0.12195022392E+04  0.25500000000E-02 0.  1.
    8880023    1    1    2    0    0 -0.78617814510E+03 -0.17070822853E+04  0.17483797087E+04  0.26500656250E+04  0.65864270000E+03 0.  0.
    8880022    1    1    2    0    0  0.78617814510E+03  0.17070822853E+04  0.38776910829E+03  0.19250876705E+04  0.15294330000E+03 0.  0.
<mgrwt>
<rscale>  0 0.19644773E+04</rscale>
<asrwt>0</asrwt>
<pdfrwt beam="1">  1        2 0.51625400E+00 0.19914859E+04</pdfrwt>
<pdfrwt beam="2">  1       -2 0.18761573E+00 0.19914859E+04</pdfrwt>
<totfact> 0.14735313E-01</totfact>
</mgrwt>
</event>
<event>
 4    1  0.2701205E-007  0.9308332E+03  0.7818608E-02  0.9478244E-01
          2   -1    0    0  501    0  0.00000000000E+00  0.00000000000E+00  0.26493570199E+04  0.26493570199E+04  0.25500000000E-02 0. -1.
         -2   -1    0    0    0  501 -0.00000000000E+00 -0.00000000000E+00 -0.10034053934E+04  0.10034053934E+04  0.25500000000E-02 0.  1.
    8880023    1    1    2    0    0 -0.55545352093E+03 -0.35229481561E+03  0.24393308846E+04  0.26108974744E+04  0.65864270000E+03 0.  0.
    8880022    1    1    2    0    0  0.55545352093E+03  0.35229481561E+03 -0.79337925801E+03  0.10418649390E+04  0.15294330000E+03 0.  1.
<mgrwt>
<rscale>  0 0.85906951E+03</rscale>
<asrwt>0</asrwt>
<pdfrwt beam="1">  1        2 0.40759339E+00 0.93083321E+03</pdfrwt>
<pdfrwt beam="2">  1       -2 0.15437006E+00 0.93083321E+03</pdfrwt>
<totfact> 0.80613017E-01</totfact>
</mgrwt>
</event>
<event>
 4    1  0.2701205E-007  0.1176766E+04  0.7818608E-02  0.9180045E-01
         -2   -1    0    0    0  501 -0.00000000000E+00  0.00000000000E+00  0.16481438739E+04  0.16481438739E+04  0.25500000000E-02 0.  1.
          2   -1    0    0  501    0  0.00000000000E+00 -0.00000000000E+00 -0.79710539923E+03  0.79710539923E+03  0.25500000000E-02 0. -1.
    8880023    1    1    2    0    0  0.40591069283E+03  0.88668131743E+03  0.86098021955E+03  0.14581030121E+04  0.65864270000E+03 0. -1.
    8880022    1    1    2    0    0 -0.40591069283E+03 -0.88668131743E+03 -0.99417449261E+01  0.98714626097E+03  0.15294330000E+03 0.  0.
<mgrwt>
<rscale>  0 0.11261788E+04</rscale>
<asrwt>0</asrwt>
<pdfrwt beam="1">  1        2 0.12263160E+00 0.11767657E+04</pdfrwt>
<pdfrwt beam="2">  1       -2 0.25356059E+00 0.11767657E+04</pdfrwt>
<totfact> 0.20708390E+00</totfact>
</mgrwt>
</event>
<event>
 4    1  0.2701205E-007  0.8339667E+03  0.7818608E-02  0.9641663E-01
         -2   -1    0    0    0  501 -0.00000000000E+00  0.00000000000E+00  0.80403756800E+03  0.80403756801E+03  0.25500000000E-02 0.  1.
          2   -1    0    0  501    0  0.00000000000E+00 -0.00000000000E+00 -0.82082896521E+03  0.82082896521E+03  0.25500000000E-02 0. -1.
    8880023    1    1    2    0    0 -0.20663989957E+03  0.46796387672E+03 -0.44058099389E+03  0.94319248113E+03  0.65864270000E+03 0.  0.
    8880022    1    1    2    0    0  0.20663989957E+03 -0.46796387672E+03  0.42378959669E+03  0.68167405209E+03  0.15294330000E+03 0.  0.
<mgrwt>
<rscale>  0 0.74598953E+03</rscale>
<asrwt>0</asrwt>
<pdfrwt beam="1">  1        2 0.12628138E+00 0.83396669E+03</pdfrwt>
<pdfrwt beam="2">  1       -2 0.12369809E+00 0.83396669E+03</pdfrwt>
<totfact> 0.16493226E+01</totfact>
</mgrwt>
</event>
<event>
 4    1  0.2701205E-007  0.1534508E+04  0.7818608E-02  0.8885645E-01
         -2   -1    0    0    0  501 -0.00000000000E+00  0.00000000000E+00  0.85057029580E+03  0.85057029581E+03  0.25500000000E-02 0.  1.
          2   -1    0    0  501    0  0.00000000000E+00 -0.00000000000E+00 -0.39776187926E+04  0.39776187926E+04  0.25500000000E-02 0. -1.
    8880023    1    1    2    0    0 -0.37588637717E+03  0.13340215681E+04 -0.30705835110E+04  0.34326662257E+04  0.65864270000E+03 0.  0.
    8880022    1    1    2    0    0  0.37588637717E+03 -0.13340215681E+04 -0.56464985788E+02  0.13955228627E+04  0.15294330000E+03 0.  0.
<mgrwt>
<rscale>  0 0.14982080E+04</rscale>
<asrwt>0</asrwt>
<pdfrwt beam="1">  1        2 0.61194135E+00 0.15345078E+04</pdfrwt>
<pdfrwt beam="2">  1       -2 0.13085697E+00 0.15345078E+04</pdfrwt>
<totfact> 0.14611997E-01</totfact>
</mgrwt>
</event>
<event>
 4    1  0.2701205E-007  0.8419437E+03  0.7818608E-02  0.9626526E-01
          2   -1    0    0  501    0  0.00000000000E+00  0.00000000000E+00  0.15403335424E+04  0.15403335424E+04  0.25500000000E-02 0. -1.
         -2   -1    0    0    0  501 -0.00000000000E+00 -0.00000000000E+00 -0.35303178433E+03  0.35303178434E+03  0.25500000000E-02 0.  1.
    8880023    1    1    2    0    0 -0.52136891072E+03 -0.56862924897E+02  0.10187767865E+04  0.13216562641E+04  0.65864270000E+03 0. -1.
    8880022    1    1    2    0    0  0.52136891072E+03  0.56862924897E+02  0.16852497152E+03  0.57170906267E+03  0.15294330000E+03 0.  1.
<mgrwt>
<rscale>  0 0.75565112E+03</rscale>
<asrwt>0</asrwt>
<pdfrwt beam="1">  1        2 0.23697439E+00 0.84194367E+03</pdfrwt>
<pdfrwt beam="2">  1       -2 0.54312583E-01 0.84194367E+03</pdfrwt>
<totfact> 0.38959115E+01</totfact>
</mgrwt>
</event>
<event>
 4    1  0.2701205E-007  0.8100963E+03  0.7818608E-02  0.9689376E-01
         -2   -1    0    0    0  501 -0.00000000000E+00  0.00000000000E+00  0.11565787652E+04  0.11565787652E+04  0.25500000000E-02 0.  1.
          2   -1    0    0  501    0  0.00000000000E+00 -0.00000000000E+00 -0.10330536013E+04  0.10330536013E+04  0.25500000000E-02 0. -1.
    8880023    1    1    2    0    0  0.30112673074E+03 -0.36299926696E+03 -0.80182654917E+03  0.11398165629E+04  0.65864270000E+03 0. -1.
    8880022    1    1    2    0    0 -0.30112673074E+03  0.36299926696E+03  0.92535171308E+03  0.10498158037E+04  0.15294330000E+03 0.  0.
<mgrwt>
<rscale>  0 0.71652852E+03</rscale>
<asrwt>0</asrwt>
<pdfrwt beam="1">  1        2 0.15893132E+00 0.81009628E+03</pdfrwt>
<pdfrwt beam="2">  1       -2 0.17793519E+00 0.81009628E+03</pdfrwt>
<totfact> 0.45564036E+00</totfact>
</mgrwt>
</event>
<event>
 4    1  0.2701205E-007  0.9392884E+03  0.7818608E-02  0.9465696E-01
         -2   -1    0    0    0  501 -0.00000000000E+00  0.00000000000E+00  0.67787006677E+03  0.67787006678E+03  0.25500000000E-02 0.  1.
          2   -1    0    0  501    0  0.00000000000E+00 -0.00000000000E+00 -0.26819110580E+04  0.26819110580E+04  0.25500000000E-02 0. -1.
    8880023    1    1    2    0    0 -0.25228690381E+03  0.62032558801E+03 -0.23927553419E+04  0.25705137326E+04  0.65864270000E+03 0. -1.
    8880022    1    1    2    0    0  0.25228690381E+03 -0.62032558801E+03  0.38871435066E+03  0.78926739220E+03  0.15294330000E+03 0.  0.
<mgrwt>
<rscale>  0 0.86860845E+03</rscale>
<asrwt>0</asrwt>
<pdfrwt beam="1">  1        2 0.41260170E+00 0.93928841E+03</pdfrwt>
<pdfrwt beam="2">  1       -2 0.10428770E+00 0.93928841E+03</pdfrwt>
<totfact> 0.20775726E+00</totfact>
</mgrwt>
</event>
<event>
 4    1  0.2701205E-007  0.7099456E+03  0.7818608E-02  0.9958203E-01
          2   -1    0    0  501    0  0.00000000000E+00  0.00000000000E+00  0.12694290732E+04  0.12694290732E+04  0.25500000000E-02 0. -1.
         -2   -1    0    0    0  501 -0.00000000000E+00 -0.00000000000E+00 -0.16355942546E+04  0.16355942546E+04  0.25500000000E-02 0.  1.
    8880023    1    1    2    0    0  0.25202699976E+03  0.81822325594E+02  0.11537172031E+04  0.13546534954E+04  0.65864270000E+03 0.  0.
    8880022    1    1    2    0    0 -0.25202699976E+03 -0.81822325594E+02 -0.15198823845E+04  0.15503698324E+04  0.15294330000E+03 0.  0.
<mgrwt>
<rscale>  0 0.57521563E+03</rscale>
<asrwt>0</asrwt>
<pdfrwt beam="1">  1        2 0.19529678E+00 0.70994557E+03</pdfrwt>
<pdfrwt beam="2">  1       -2 0.25162989E+00 0.70994557E+03</pdfrwt>
<totfact> 0.11321347E+00</totfact>
</mgrwt>
</event>
<event>
 4    1  0.2701205E-007  0.8622165E+03  0.7818608E-02  0.9589633E-01
         -2   -1    0    0    0  501 -0.00000000000E+00  0.00000000000E+00  0.71037117778E+03  0.71037117778E+03  0.25500000000E-02 0.  1.
          2   -1    0    0  501    0  0.00000000000E+00 -0.00000000000E+00 -0.19109242143E+04  0.19109242143E+04  0.25500000000E-02 0. -1.
    8880023    1    1    2    0    0 -0.44042839061E+03  0.34004408255E+03 -0.16686535400E+04  0.18782497140E+04  0.65864270000E+03 0.  0.
    8880022    1    1    2    0    0  0.44042839061E+03 -0.34004408255E+03  0.46810050348E+03  0.74304567808E+03  0.15294330000E+03 0.  0.
<mgrwt>
<rscale>  0 0.77986170E+03</rscale>
<asrwt>0</asrwt>
<pdfrwt beam="1">  1        2 0.29398834E+00 0.86221653E+03</pdfrwt>
<pdfrwt beam="2">  1       -2 0.10928787E+00 0.86221653E+03</pdfrwt>
<totfact> 0.50808026E+00</totfact>
</mgrwt>
</event>
<event>
 4    1  0.2701205E-007  0.9274368E+03  0.7818608E-02  0.9483349E-01
         -2   -1    0    0    0  501 -0.00000000000E+00  0.00000000000E+00  0.42486767879E+03  0.42486767880E+03  0.25500000000E-02 0.  1.
          2   -1    0    0  501    0  0.00000000000E+00 -0.00000000000E+00 -0.31571749578E+04  0.31571749578E+04  0.25500000000E-02 0. -1.
    8880023    1    1    2    0    0 -0.10741148718E+02  0.65285029568E+03 -0.27591940909E+04  0.29108918081E+04  0.65864270000E+03 0. -1.
    8880022    1    1    2    0    0  0.10741148718E+02 -0.65285029568E+03  0.26886811974E+02  0.67115082844E+03  0.15294330000E+03 0.  0.
<mgrwt>
<rscale>  0 0.85522639E+03</rscale>
<asrwt>0</asrwt>
<pdfrwt beam="1">  1        2 0.48571921E+00 0.92743684E+03</pdfrwt>
<pdfrwt beam="2">  1       -2 0.65364260E-01 0.92743684E+03</pdfrwt>
<totfact> 0.30966233E+00</totfact>
</mgrwt>
</event>
<event>
 4    1  0.2701205E-007  0.6959026E+03  0.7818608E-02  0.1001464E+00
          2   -1    0    0  501    0  0.00000000000E+00  0.00000000000E+00  0.15244968522E+04  0.15244968522E+04  0.25500000000E-02 0. -1.
         -2   -1    0    0    0  501 -0.00000000000E+00 -0.00000000000E+00 -0.25005647342E+03  0.25005647343E+03  0.25500000000E-02 0.  1.
    8880023    1    1    2    0    0 -0.20269286144E+03 -0.96880501958E+02  0.13263856077E+04  0.14978582090E+04  0.65864270000E+03 0.  0.
    8880022    1    1    2    0    0  0.20269286144E+03  0.96880501958E+02 -0.51945228920E+02  0.27669511662E+03  0.15294330000E+03 0.  0.
<mgrwt>
<rscale>  0 0.55012818E+03</rscale>
<asrwt>0</asrwt>
<pdfrwt beam="1">  1        2 0.23453797E+00 0.69590260E+03</pdfrwt>
<pdfrwt beam="2">  1       -2 0.38470227E-01 0.69590260E+03</pdfrwt>
<totfact> 0.80463868E+01</totfact>
</mgrwt>
</event>
<event>
 4    1  0.2701205E-007  0.8798283E+03  0.7818608E-02  0.9559222E-01
          2   -1    0    0  501    0  0.00000000000E+00  0.00000000000E+00  0.13066045653E+04  0.13066045653E+04  0.25500000000E-02 0. -1.
         -2   -1    0    0    0  501 -0.00000000000E+00 -0.00000000000E+00 -0.66625259504E+03  0.66625259504E+03  0.25500000000E-02 0.  1.
    8880023    1    1    2    0    0  0.57004300859E+03 -0.12384907700E+03  0.95009464838E+03  0.12949045033E+04  0.65864270000E+03 0.  0.
    8880022    1    1    2    0    0 -0.57004300859E+03  0.12384907700E+03 -0.30974267813E+03  0.67795265704E+03  0.15294330000E+03 0.  0.
<mgrwt>
<rscale>  0 0.80054963E+03</rscale>
<asrwt>0</asrwt>
<pdfrwt beam="1">  1        2 0.20101608E+00 0.87982830E+03</pdfrwt>
<pdfrwt beam="2">  1       -2 0.10250040E+00 0.87982830E+03</pdfrwt>
<totfact> 0.12838275E+01</totfact>
</mgrwt>
</event>
<event>
 4    1  0.2701205E-007  0.7281009E+03  0.7818608E-02  0.9896072E-01
          2   -1    0    0  501    0  0.00000000000E+00  0.00000000000E+00  0.14899384662E+04  0.14899384663E+04  0.25500000000E-02 0. -1.
         -2   -1    0    0    0  501 -0.00000000000E+00 -0.00000000000E+00 -0.57890958619E+03  0.57890958619E+03  0.25500000000E-02 0.  1.
    8880023    1    1    2    0    0  0.30997607384E+03 -0.15346886000E+02  0.13355879806E+04  0.15211594766E+04  0.65864270000E+03 0.  0.
    8880022    1    1    2    0    0 -0.30997607384E+03  0.15346886000E+02 -0.42455910049E+03  0.54768857582E+03  0.15294330000E+03 0.  0.
<mgrwt>
<rscale>  0 0.60452051E+03</rscale>
<asrwt>0</asrwt>
<pdfrwt beam="1">  1        2 0.22922131E+00 0.72810089E+03</pdfrwt>
<pdfrwt beam="2">  1       -2 0.89063012E-01 0.72810089E+03</pdfrwt>
<totfact> 0.14300947E+01</totfact>
</mgrwt>
</event>
<event>
 4    1  0.2701205E-007  0.9818076E+03  0.7818608E-02  0.9405756E-01
          2   -1    0    0  501    0  0.00000000000E+00  0.00000000000E+00  0.30165606705E+04  0.30165606705E+04  0.25500000000E-02 0. -1.
         -2   -1    0    0    0  501 -0.00000000000E+00 -0.00000000000E+00 -0.50120639472E+03  0.50120639472E+03  0.25500000000E-02 0.  1.
    8880023    1    1    2    0    0 -0.37764583675E+03 -0.62251076480E+03  0.25901850223E+04  0.27700188964E+04  0.65864270000E+03 0.  0.
    8880022    1    1    2    0    0  0.37764583675E+03  0.62251076480E+03 -0.74830746556E+02  0.74774816880E+03  0.15294330000E+03 0.  0.
<mgrwt>
<rscale>  0 0.91603533E+03</rscale>
<asrwt>0</asrwt>
<pdfrwt beam="1">  1        2 0.46408626E+00 0.98180764E+03</pdfrwt>
<pdfrwt beam="2">  1       -2 0.77108676E-01 0.98180764E+03</pdfrwt>
<totfact> 0.26151466E+00</totfact>
</mgrwt>
</event>
<event>
 4    1  0.2701205E-007  0.1013107E+04  0.7818608E-02  0.9364608E-01
         -2   -1    0    0    0  501 -0.00000000000E+00  0.00000000000E+00  0.61080880926E+03  0.61080880927E+03  0.25500000000E-02 0.  1.
          2   -1    0    0  501    0  0.00000000000E+00 -0.00000000000E+00 -0.31351145733E+04  0.31351145733E+04  0.25500000000E-02 0. -1.
    8880023    1    1    2    0    0 -0.63736883443E+02 -0.76714555314E+03 -0.27488479800E+04  0.29295989681E+04  0.65864270000E+03 0. -1.
    8880022    1    1    2    0    0  0.63736883443E+02  0.76714555314E+03  0.22454221597E+03  0.81632441455E+03  0.15294330000E+03 0.  0.
<mgrwt>
<rscale>  0 0.95046465E+03</rscale>
<asrwt>0</asrwt>
<pdfrwt beam="1">  1        2 0.48232531E+00 0.10131066E+04</pdfrwt>
<pdfrwt beam="2">  1       -2 0.93970588E-01 0.10131066E+04</pdfrwt>
<totfact> 0.13950473E+00</totfact>
</mgrwt>
</event>
<event>
 4    1  0.2701205E-007  0.6765555E+03  0.7818608E-02  0.1011343E+00
          2   -1    0    0  501    0  0.00000000000E+00  0.00000000000E+00  0.30847531896E+04  0.30847531896E+04  0.25500000000E-02 0. -1.
         -2   -1    0    0    0  501 -0.00000000000E+00 -0.00000000000E+00 -0.27975540811E+03  0.27975540812E+03  0.25500000000E-02 0.  1.
    8880023    1    1    2    0    0  0.13767203720E+03  0.70452446069E+02  0.29982001054E+04  0.30735860514E+04  0.65864270000E+03 0. -1.
    8880022    1    1    2    0    0 -0.13767203720E+03 -0.70452446069E+02 -0.19320232391E+03  0.29092254633E+03  0.15294330000E+03 0.  0.
<mgrwt>
<rscale>  0 0.50944265E+03</rscale>
<asrwt>0</asrwt>
<pdfrwt beam="1">  1        2 0.47457740E+00 0.67655550E+03</pdfrwt>
<pdfrwt beam="2">  1       -2 0.43039295E-01 0.67655550E+03</pdfrwt>
<totfact> 0.85248293E+00</totfact>
</mgrwt>
</event>
<event>
 4    1  0.2701205E-007  0.7758646E+03  0.7818608E-02  0.9765642E-01
          2   -1    0    0  501    0  0.00000000000E+00  0.00000000000E+00  0.42564957273E+04  0.42564957273E+04  0.25500000000E-02 0. -1.
         -2   -1    0    0    0  501 -0.00000000000E+00 -0.00000000000E+00 -0.13789875196E+03  0.13789875199E+03  0.25500000000E-02 0.  1.
    8880023    1    1    2    0    0  0.24698898086E+03  0.32734090494E+03  0.37276895537E+04  0.38075760320E+04  0.65864270000E+03 0.  0.
    8880022    1    1    2    0    0 -0.24698898086E+03 -0.32734090494E+03  0.39090742161E+03  0.58681844722E+03  0.15294330000E+03 0. -1.
<mgrwt>
<rscale>  0 0.67239417E+03</rscale>
<asrwt>0</asrwt>
<pdfrwt beam="1">  1        2 0.65484559E+00 0.77586457E+03</pdfrwt>
<pdfrwt beam="2">  1       -2 0.21215190E-01 0.77586457E+03</pdfrwt>
<totfact> 0.44334639E+00</totfact>
</mgrwt>
</event>
<event>
 4    1  0.2701205E-007  0.6725896E+03  0.7818608E-02  0.1013871E+00
          2   -1    0    0  501    0  0.00000000000E+00  0.00000000000E+00  0.39712935522E+04  0.39712935522E+04  0.25500000000E-02 0. -1.
         -2   -1    0    0    0  501 -0.00000000000E+00 -0.00000000000E+00 -0.16488434296E+03  0.16488434298E+03  0.25500000000E-02 0.  1.
    8880023    1    1    2    0    0 -0.13552765805E+03  0.14098587046E+02  0.38650320573E+04  0.39231173226E+04  0.65864270000E+03 0. -1.
    8880022    1    1    2    0    0  0.13552765805E+03 -0.14098587046E+02 -0.58622848111E+02  0.21306057258E+03  0.15294330000E+03 0.  0.
<mgrwt>
<rscale>  0 0.49964858E+03</rscale>
<asrwt>0</asrwt>
<pdfrwt beam="1">  1        2 0.61096817E+00 0.67258956E+03</pdfrwt>
<pdfrwt beam="2">  1       -2 0.25366825E-01 0.67258956E+03</pdfrwt>
<totfact> 0.56529937E+00</totfact>
</mgrwt>
</event>
<event>
 4    1  0.2701205E-007  0.8817592E+03  0.7818608E-02  0.9555972E-01
          2   -1    0    0  501    0  0.00000000000E+00  0.00000000000E+00  0.28108581262E+04  0.28108581262E+04  0.25500000000E-02 0. -1.
         -2   -1    0    0    0  501 -0.00000000000E+00 -0.00000000000E+00 -0.22201793080E+03  0.22201793081E+03  0.25500000000E-02 0.  1.
    8880023    1    1    2    0    0  0.33301104479E+03 -0.48248597852E+03  0.10043182814E+04  0.13364709095E+04  0.65864270000E+03 0.  1.
    8880022    1    1    2    0    0 -0.33301104479E+03  0.48248597852E+03  0.15845219141E+04  0.16964051475E+04  0.15294330000E+03 0.  0.
<mgrwt>
<rscale>  0 0.80280062E+03</rscale>
<asrwt>0</asrwt>
<pdfrwt beam="1">  1        2 0.43243972E+00 0.88175920E+03</pdfrwt>
<pdfrwt beam="2">  1       -2 0.34156604E-01 0.88175920E+03</pdfrwt>
<totfact> 0.18895191E+01</totfact>
</mgrwt>
</event>
<event>
 4    1  0.2701205E-007  0.6715373E+03  0.7818608E-02  0.1014584E+00
          2   -1    0    0  501    0  0.00000000000E+00  0.00000000000E+00  0.18284923304E+04  0.18284923304E+04  0.25500000000E-02 0. -1.
         -2   -1    0    0    0  501 -0.00000000000E+00 -0.00000000000E+00 -0.11656065665E+03  0.11656065668E+03  0.25500000000E-02 0.  1.
    8880023    1    1    2    0    0 -0.51797199969E+02 -0.12028768995E+03  0.15408672184E+04  0.16808432613E+04  0.65864270000E+03 0.  0.
    8880022    1    1    2    0    0  0.51797199969E+02  0.12028768995E+03  0.17106445544E+03  0.26420972580E+03  0.15294330000E+03 0.  0.
<mgrwt>
<rscale>  0 0.49692752E+03</rscale>
<asrwt>0</asrwt>
<pdfrwt beam="1">  1        2 0.28130653E+00 0.67153725E+03</pdfrwt>
<pdfrwt beam="2">  1       -2 0.17932408E-01 0.67153725E+03</pdfrwt>
<totfact> 0.22055622E+02</totfact>
</mgrwt>
</event>
<event>
 4    1  0.2701205E-007  0.7278119E+03  0.7818608E-02  0.9896988E-01
          2   -1    0    0  501    0  0.00000000000E+00  0.00000000000E+00  0.18776964495E+04  0.18776964495E+04  0.25500000000E-02 0. -1.
         -2   -1    0    0    0  501 -0.00000000000E+00 -0.00000000000E+00 -0.29514850185E+03  0.29514850186E+03  0.25500000000E-02 0.  1.
    8880023    1    1    2    0    0 -0.23965679334E+03 -0.19612393554E+03  0.16655487803E+04  0.18176256277E+04  0.65864270000E+03 0. -1.
    8880022    1    1    2    0    0  0.23965679334E+03  0.19612393554E+03 -0.83000832616E+02  0.35521932368E+03  0.15294330000E+03 0.  0.
<mgrwt>
<rscale>  0 0.60407466E+03</rscale>
<asrwt>0</asrwt>
<pdfrwt beam="1">  1        2 0.28887638E+00 0.72781191E+03</pdfrwt>
<pdfrwt beam="2">  1       -2 0.45407461E-01 0.72781191E+03</pdfrwt>
<totfact> 0.37086875E+01</totfact>
</mgrwt>
</event>
<event>
 4    1  0.2701205E-007  0.1189718E+04  0.7818608E-02  0.9167182E-01
         -2   -1    0    0    0  501 -0.00000000000E+00  0.00000000000E+00  0.22725139836E+04  0.22725139836E+04  0.25500000000E-02 0.  1.
          2   -1    0    0  501    0  0.00000000000E+00 -0.00000000000E+00 -0.11925934932E+04  0.11925934932E+04  0.25500000000E-02 0. -1.
    8880023    1    1    2    0    0  0.23674554470E+03  0.96206569066E+03 -0.73019100428E+03  0.13959254834E+04  0.65864270000E+03 0. -1.
    8880022    1    1    2    0    0 -0.23674554470E+03 -0.96206569066E+03  0.18101114946E+04  0.20691819934E+04  0.15294330000E+03 0.  0.
<mgrwt>
<rscale>  0 0.11398675E+04</rscale>
<asrwt>0</asrwt>
<pdfrwt beam="1">  1        2 0.18347592E+00 0.11897181E+04</pdfrwt>
<pdfrwt beam="2">  1       -2 0.34961754E+00 0.11897181E+04</pdfrwt>
<totfact> 0.29416822E-01</totfact>
</mgrwt>
</event>
<event>
 4    1  0.2701205E-007  0.9825534E+03  0.7818608E-02  0.9404748E-01
          2   -1    0    0  501    0  0.00000000000E+00  0.00000000000E+00  0.16388662704E+04  0.16388662704E+04  0.25500000000E-02 0. -1.
         -2   -1    0    0    0  501 -0.00000000000E+00 -0.00000000000E+00 -0.89184062010E+03  0.89184062010E+03  0.25500000000E-02 0.  1.
    8880023    1    1    2    0    0  0.72660854217E+03 -0.60340708947E+02  0.12807814913E+04  0.16142528951E+04  0.65864270000E+03 0.  0.
    8880022    1    1    2    0    0 -0.72660854217E+03  0.60340708947E+02 -0.53375584104E+03  0.91645399534E+03  0.15294330000E+03 0.  0.
<mgrwt>
<rscale>  0 0.91685999E+03</rscale>
<asrwt>0</asrwt>
<pdfrwt beam="1">  1        2 0.25213327E+00 0.98255340E+03</pdfrwt>
<pdfrwt beam="2">  1       -2 0.13720625E+00 0.98255340E+03</pdfrwt>
<totfact> 0.39991903E+00</totfact>
</mgrwt>
</event>
<event>
 4    1  0.2701205E-007  0.1116489E+04  0.7818608E-02  0.9242916E-01
          2   -1    0    0  501    0  0.00000000000E+00  0.00000000000E+00  0.33199556207E+04  0.33199556207E+04  0.25500000000E-02 0. -1.
         -2   -1    0    0    0  501 -0.00000000000E+00 -0.00000000000E+00 -0.48745176271E+03  0.48745176271E+03  0.25500000000E-02 0.  1.
    8880023    1    1    2    0    0  0.89929429409E+03  0.63308482258E+02  0.26491393793E+04  0.28748022277E+04  0.65864270000E+03 0.  0.
    8880022    1    1    2    0    0 -0.89929429409E+03 -0.63308482258E+02  0.18336447865E+03  0.93260515565E+03  0.15294330000E+03 0.  0.
<mgrwt>
<rscale>  0 0.10621238E+04</rscale>
<asrwt>0</asrwt>
<pdfrwt beam="1">  1        2 0.51076240E+00 0.11164893E+04</pdfrwt>
<pdfrwt beam="2">  1       -2 0.74992580E-01 0.11164893E+04</pdfrwt>
<totfact> 0.17458619E+00</totfact>
</mgrwt>
</event>
<event>
 4    1  0.2701205E-007  0.1306953E+04  0.7818608E-02  0.9059579E-01
         -2   -1    0    0    0  501 -0.00000000000E+00  0.00000000000E+00  0.96324967153E+03  0.96324967153E+03  0.25500000000E-02 0.  1.
          2   -1    0    0  501    0  0.00000000000E+00 -0.00000000000E+00 -0.24064014670E+04  0.24064014670E+04  0.25500000000E-02 0. -1.
    8880023    1    1    2    0    0  0.89860987279E+03 -0.68323945077E+03 -0.17553599772E+04  0.21884731450E+04  0.65864270000E+03 0.  0.
    8880022    1    1    2    0    0 -0.89860987279E+03  0.68323945077E+03  0.31220818177E+03  0.11811779935E+04  0.15294330000E+03 0.  0.
<mgrwt>
<rscale>  0 0.12628218E+04</rscale>
<asrwt>0</asrwt>
<pdfrwt beam="1">  1        2 0.37021561E+00 0.13069530E+04</pdfrwt>
<pdfrwt beam="2">  1       -2 0.14819226E+00 0.13069530E+04</pdfrwt>
<totfact> 0.11762771E+00</totfact>
</mgrwt>
</event>
<event>
 4    1  0.2701205E-007  0.1215654E+04  0.7818608E-02  0.9142054E-01
          2   -1    0    0  501    0  0.00000000000E+00  0.00000000000E+00  0.16788207466E+04  0.16788207466E+04  0.25500000000E-02 0. -1.
         -2   -1    0    0    0  501 -0.00000000000E+00 -0.00000000000E+00 -0.11761091390E+04  0.11761091390E+04  0.25500000000E-02 0.  1.
    8880023    1    1    2    0    0 -0.19165846823E+03  0.10036290640E+04 -0.58988464007E+03  0.13512136624E+04  0.65864270000E+03 0.  1.
    8880022    1    1    2    0    0  0.19165846823E+03 -0.10036290640E+04  0.10925962477E+04  0.15037162232E+04  0.15294330000E+03 0.  0.
<mgrwt>
<rscale>  0 0.11672077E+04</rscale>
<asrwt>0</asrwt>
<pdfrwt beam="1">  1        2 0.25828011E+00 0.12156539E+04</pdfrwt>
<pdfrwt beam="2">  1       -2 0.18093987E+00 0.12156539E+04</pdfrwt>
<totfact> 0.17439401E+00</totfact>
</mgrwt>
</event>
<event>
 4    1  0.2701205E-007  0.8887384E+03  0.7818608E-02  0.9544357E-01
         -2   -1    0    0    0  501 -0.00000000000E+00  0.00000000000E+00  0.14936878053E+04  0.14936878053E+04  0.25500000000E-02 0.  1.
          2   -1    0    0  501    0  0.00000000000E+00 -0.00000000000E+00 -0.15265164451E+04  0.15265164451E+04  0.25500000000E-02 0. -1.
    8880023    1    1    2    0    0 -0.33300571441E+03  0.49512914531E+03 -0.13211124690E+04  0.15922292669E+04  0.65864270000E+03 0. -1.
    8880022    1    1    2    0    0  0.33300571441E+03 -0.49512914531E+03  0.12882838291E+04  0.14279749836E+04  0.15294330000E+03 0.  0.
<mgrwt>
<rscale>  0 0.81091055E+03</rscale>
<asrwt>0</asrwt>
<pdfrwt beam="1">  1        2 0.23484868E+00 0.88873837E+03</pdfrwt>
<pdfrwt beam="2">  1       -2 0.22979812E+00 0.88873837E+03</pdfrwt>
<totfact> 0.10654450E+00</totfact>
</mgrwt>
</event>
<event>
 4    1  0.2701205E-007  0.6682285E+03  0.7818608E-02  0.1016966E+00
         -2   -1    0    0    0  501 -0.00000000000E+00  0.00000000000E+00  0.22370165602E+03  0.22370165604E+03  0.25500000000E-02 0.  1.
          2   -1    0    0  501    0  0.00000000000E+00 -0.00000000000E+00 -0.10910179471E+04  0.10910179471E+04  0.25500000000E-02 0. -1.
    8880023    1    1    2    0    0  0.10981063675E+03  0.25705973571E+02 -0.90097506438E+03  0.11217332330E+04  0.65864270000E+03 0. -1.
    8880022    1    1    2    0    0 -0.10981063675E+03 -0.25705973571E+02  0.33658773349E+02  0.19298637014E+03  0.15294330000E+03 0.  0.
<mgrwt>
<rscale>  0 0.48797598E+03</rscale>
<asrwt>0</asrwt>
<pdfrwt beam="1">  1        2 0.16784891E+00 0.66822854E+03</pdfrwt>
<pdfrwt beam="2">  1       -2 0.34415640E-01 0.66822854E+03</pdfrwt>
<totfact> 0.17753215E+02</totfact>
</mgrwt>
</event>
<event>
 4    1  0.2701205E-007  0.1530239E+04  0.7818608E-02  0.8888573E-01
          2   -1    0    0  501    0  0.00000000000E+00  0.00000000000E+00  0.16515839183E+04  0.16515839183E+04  0.25500000000E-02 0. -1.
         -2   -1    0    0    0  501 -0.00000000000E+00 -0.00000000000E+00 -0.14729842733E+04  0.14729842733E+04  0.25500000000E-02 0.  1.
    8880023    1    1    2    0    0  0.12307523179E+02 -0.13811844683E+04 -0.45615805390E+03  0.15967818846E+04  0.65864270000E+03 0.  1.
    8880022    1    1    2    0    0 -0.12307523179E+02  0.13811844683E+04  0.63475769894E+03  0.15277863070E+04  0.15294330000E+03 0. -1.
<mgrwt>
<rscale>  0 0.14938201E+04</rscale>
<asrwt>0</asrwt>
<pdfrwt beam="1">  1        2 0.25408983E+00 0.15302393E+04</pdfrwt>
<pdfrwt beam="2">  1       -2 0.22661297E+00 0.15302393E+04</pdfrwt>
<totfact> 0.87790155E-01</totfact>
</mgrwt>
</event>
<event>
 4    1  0.2701205E-007  0.8573276E+03  0.7818608E-02  0.9598335E-01
          2   -1    0    0  501    0  0.00000000000E+00  0.00000000000E+00  0.24469043057E+04  0.24469043057E+04  0.25500000000E-02 0. -1.
         -2   -1    0    0    0  501 -0.00000000000E+00 -0.00000000000E+00 -0.11243859506E+04  0.11243859506E+04  0.25500000000E-02 0.  1.
    8880023    1    1    2    0    0  0.54868857086E+03  0.11882160861E+02  0.22918338745E+04  0.24469395269E+04  0.65864270000E+03 0. -1.
    8880022    1    1    2    0    0 -0.54868857086E+03 -0.11882160861E+02 -0.96931551942E+03  0.11243507294E+04  0.15294330000E+03 0.  0.
<mgrwt>
<rscale>  0 0.77406479E+03</rscale>
<asrwt>0</asrwt>
<pdfrwt beam="1">  1        2 0.37644681E+00 0.85732756E+03</pdfrwt>
<pdfrwt beam="2">  1       -2 0.17298246E+00 0.85732756E+03</pdfrwt>
<totfact> 0.78127780E-01</totfact>
</mgrwt>
</event>
<event>
 4    1  0.2701205E-007  0.8169834E+03  0.7818608E-02  0.9675210E-01
          2   -1    0    0  501    0  0.00000000000E+00  0.00000000000E+00  0.20868775440E+04  0.20868775440E+04  0.25500000000E-02 0. -1.
         -2   -1    0    0    0  501 -0.00000000000E+00 -0.00000000000E+00 -0.23684471163E+03  0.23684471165E+03  0.25500000000E-02 0.  1.
    8880023    1    1    2    0    0 -0.66229346051E+02  0.47881654160E+03  0.14986250305E+04  0.17068505486E+04  0.65864270000E+03 0. -1.
    8880022    1    1    2    0    0  0.66229346051E+02 -0.47881654160E+03  0.35140780188E+03  0.61687170710E+03  0.15294330000E+03 0.  0.
<mgrwt>
<rscale>  0 0.72512134E+03</rscale>
<asrwt>0</asrwt>
<pdfrwt beam="1">  1        2 0.32105810E+00 0.81698336E+03</pdfrwt>
<pdfrwt beam="2">  1       -2 0.36437646E-01 0.81698336E+03</pdfrwt>
<totfact> 0.43390995E+01</totfact>
</mgrwt>
</event>
<event>
 4    1  0.2701205E-007  0.1561716E+04  0.7818608E-02  0.8867243E-01
          2   -1    0    0  501    0  0.00000000000E+00  0.00000000000E+00  0.16952823033E+04  0.16952823033E+04  0.25500000000E-02 0. -1.
         -2   -1    0    0    0  501 -0.00000000000E+00 -0.00000000000E+00 -0.19276121757E+04  0.19276121757E+04  0.25500000000E-02 0.  1.
    8880023    1    1    2    0    0 -0.33071089054E+03  0.13768716924E+04  0.90077853108E+03  0.18028747929E+04  0.65864270000E+03 0.  0.
    8880022    1    1    2    0    0  0.33071089054E+03 -0.13768716924E+04 -0.11331084035E+04  0.18200196860E+04  0.15294330000E+03 0.  1.
<mgrwt>
<rscale>  0 0.15261574E+04</rscale>
<asrwt>0</asrwt>
<pdfrwt beam="1">  1        2 0.26081266E+00 0.15617156E+04</pdfrwt>
<pdfrwt beam="2">  1       -2 0.29655572E+00 0.15617156E+04</pdfrwt>
<totfact> 0.30711552E-01</totfact>
</mgrwt>
</event>
<event>
 4    1  0.2701205E-007  0.8214517E+03  0.7818608E-02  0.9666199E-01
         -2   -1    0    0    0  501 -0.00000000000E+00  0.00000000000E+00  0.21619471503E+03  0.21619471504E+03  0.25500000000E-02 0.  1.
          2   -1    0    0  501    0  0.00000000000E+00 -0.00000000000E+00 -0.25587415792E+04  0.25587415792E+04  0.25500000000E-02 0. -1.
    8880023    1    1    2    0    0 -0.39541979627E+03  0.29088821657E+03 -0.79086135738E+03  0.11402827117E+04  0.65864270000E+03 0.  0.
    8880022    1    1    2    0    0  0.39541979627E+03 -0.29088821657E+03 -0.15516855068E+04  0.16346535825E+04  0.15294330000E+03 0.  0.
<mgrwt>
<rscale>  0 0.73065426E+03</rscale>
<asrwt>0</asrwt>
<pdfrwt beam="1">  1        2 0.39365253E+00 0.82145175E+03</pdfrwt>
<pdfrwt beam="2">  1       -2 0.33260727E-01 0.82145175E+03</pdfrwt>
<totfact> 0.28108909E+01</totfact>
</mgrwt>
</event>
<event>
 4    1  0.2701205E-007  0.6612786E+03  0.7818608E-02  0.1022883E+00
          2   -1    0    0  501    0  0.00000000000E+00  0.00000000000E+00  0.33541893680E+03  0.33541893681E+03  0.25500000000E-02 0. -1.
         -2   -1    0    0    0  501 -0.00000000000E+00 -0.00000000000E+00 -0.13359085679E+04  0.13359085680E+04  0.25500000000E-02 0.  1.
    8880023    1    1    2    0    0  0.45224346449E+01  0.58810757426E+02 -0.38425208445E+01  0.66128974651E+03  0.65864270000E+03 0. -1.
    8880022    1    1    2    0    0 -0.45224346449E+01 -0.58810757426E+02 -0.99664711031E+03  0.10100377583E+04  0.15294330000E+03 0.  0.
<mgrwt>
<rscale>  0 0.46660398E+03</rscale>
<asrwt>0</asrwt>
<pdfrwt beam="1">  1        2 0.51602914E-01 0.66127858E+03</pdfrwt>
<pdfrwt beam="2">  1       -2 0.20552439E+00 0.66127858E+03</pdfrwt>
<totfact> 0.12197116E+01</totfact>
</mgrwt>
</event>
<event>
 4    1  0.2701205E-007  0.1070168E+04  0.7818608E-02  0.9295020E-01
         -2   -1    0    0    0  501 -0.00000000000E+00  0.00000000000E+00  0.88345703404E+03  0.88345703404E+03  0.25500000000E-02 0.  1.
          2   -1    0    0  501    0  0.00000000000E+00 -0.00000000000E+00 -0.20540626238E+04  0.20540626238E+04  0.25500000000E-02 0. -1.
    8880023    1    1    2    0    0  0.84537100973E+02  0.83922784072E+03 -0.16414490139E+04  0.19594935472E+04  0.65864270000E+03 0. -1.
    8880022    1    1    2    0    0 -0.84537100973E+02 -0.83922784072E+03  0.47084342411E+03  0.97802611065E+03  0.15294330000E+03 0.  0.
<mgrwt>
<rscale>  0 0.10124259E+04</rscale>
<asrwt>0</asrwt>
<pdfrwt beam="1">  1        2 0.31600963E+00 0.10701683E+04</pdfrwt>
<pdfrwt beam="2">  1       -2 0.13591647E+00 0.10701683E+04</pdfrwt>
<totfact> 0.23924537E+00</totfact>
</mgrwt>
</event>
<event>
 4    1  0.2701205E-007  0.7412588E+03  0.7818608E-02  0.9856295E-01
          2   -1    0    0  501    0  0.00000000000E+00  0.00000000000E+00  0.13455314484E+04  0.13455314484E+04  0.25500000000E-02 0. -1.
         -2   -1    0    0    0  501 -0.00000000000E+00 -0.00000000000E+00 -0.55641736333E+03  0.55641736334E+03  0.25500000000E-02 0.  1.
    8880023    1    1    2    0    0  0.18881373522E+03 -0.28284946827E+03  0.11596156979E+04  0.13762896575E+04  0.65864270000E+03 0. -1.
    8880022    1    1    2    0    0 -0.18881373522E+03  0.28284946827E+03 -0.37050161282E+03  0.52565915423E+03  0.15294330000E+03 0.  0.
<mgrwt>
<rscale>  0 0.62426971E+03</rscale>
<asrwt>0</asrwt>
<pdfrwt beam="1">  1        2 0.20700484E+00 0.74125883E+03</pdfrwt>
<pdfrwt beam="2">  1       -2 0.85602672E-01 0.74125883E+03</pdfrwt>
<totfact> 0.18855748E+01</totfact>
</mgrwt>
</event>
<event>
 4    1  0.2701205E-007  0.7072637E+03  0.7818608E-02  0.9968306E-01
         -2   -1    0    0    0  501 -0.00000000000E+00  0.00000000000E+00  0.11642500920E+03  0.11642500923E+03  0.25500000000E-02 0.  1.
          2   -1    0    0  501    0  0.00000000000E+00 -0.00000000000E+00 -0.36451028171E+04  0.36451028171E+04  0.25500000000E-02 0. -1.
    8880023    1    1    2    0    0 -0.25168658297E+03  0.55367756707E+02 -0.33245228621E+04  0.33989225045E+04  0.65864270000E+03 0. -1.
    8880022    1    1    2    0    0  0.25168658297E+03 -0.55367756707E+02 -0.20415494580E+03  0.36260532185E+03  0.15294330000E+03 0.  0.
<mgrwt>
<rscale>  0 0.57062081E+03</rscale>
<asrwt>0</asrwt>
<pdfrwt beam="1">  1        2 0.56078496E+00 0.70726369E+03</pdfrwt>
<pdfrwt beam="2">  1       -2 0.17911543E-01 0.70726369E+03</pdfrwt>
<totfact> 0.18085083E+01</totfact>
</mgrwt>
</event>
<event>
 4    1  0.2701205E-007  0.1472597E+04  0.7818608E-02  0.8929233E-01
          2   -1    0    0  501    0  0.00000000000E+00  0.00000000000E+00  0.19498667405E+04  0.19498667405E+04  0.25500000000E-02 0. -1.
         -2   -1    0    0    0  501 -0.00000000000E+00 -0.00000000000E+00 -0.13118374114E+04  0.13118374115E+04  0.25500000000E-02 0.  1.
    8880023    1    1    2    0    0 -0.13133126442E+04 -0.99702706327E+02 -0.45718316986E+03  0.15419330038E+04  0.65864270000E+03 0.  0.
    8880022    1    1    2    0    0  0.13133126442E+04  0.99702706327E+02  0.10952124989E+04  0.17197711482E+04  0.15294330000E+03 0.  0.
<mgrwt>
<rscale>  0 0.14344783E+04</rscale>
<asrwt>0</asrwt>
<pdfrwt beam="1">  1        2 0.29997950E+00 0.14725967E+04</pdfrwt>
<pdfrwt beam="2">  1       -2 0.20182114E+00 0.14725967E+04</pdfrwt>
<totfact> 0.86835464E-01</totfact>
</mgrwt>
</event>
<event>
 4    1  0.2701205E-007  0.7183951E+03  0.7818608E-02  0.9928054E-01
          2   -1    0    0  501    0  0.00000000000E+00  0.00000000000E+00  0.13796045375E+04  0.13796045375E+04  0.25500000000E-02 0. -1.
         -2   -1    0    0    0  501 -0.00000000000E+00 -0.00000000000E+00 -0.85644138897E+03  0.85644138898E+03  0.25500000000E-02 0.  1.
    8880023    1    1    2    0    0  0.25717207103E+03 -0.12705837494E+03  0.12489294414E+04  0.14408040327E+04  0.65864270000E+03 0. -1.
    8880022    1    1    2    0    0 -0.25717207103E+03  0.12705837494E+03 -0.72576629287E+03  0.79524189379E+03  0.15294330000E+03 0.  0.
<mgrwt>
<rscale>  0 0.58920714E+03</rscale>
<asrwt>0</asrwt>
<pdfrwt beam="1">  1        2 0.21224685E+00 0.71839509E+03</pdfrwt>
<pdfrwt beam="2">  1       -2 0.13176021E+00 0.71839509E+03</pdfrwt>
<totfact> 0.64139403E+00</totfact>
</mgrwt>
</event>
<event>
 4    1  0.2701205E-007  0.1180781E+04  0.7818608E-02  0.9176035E-01
         -2   -1    0    0    0  501 -0.00000000000E+00  0.00000000000E+00  0.89569344668E+03  0.89569344668E+03  0.25500000000E-02 0.  1.
          2   -1    0    0  501    0  0.00000000000E+00 -0.00000000000E+00 -0.15198141926E+04  0.15198141926E+04  0.25500000000E-02 0. -1.
    8880023    1    1    2    0    0  0.54958748442E+03  0.81140989081E+03 -0.77474376208E+03  0.14122572418E+04  0.65864270000E+03 0.  0.
    8880022    1    1    2    0    0 -0.54958748442E+03 -0.81140989081E+03  0.15062301618E+03  0.10032503974E+04  0.15294330000E+03 0.  0.
<mgrwt>
<rscale>  0 0.11304245E+04</rscale>
<asrwt>0</asrwt>
<pdfrwt beam="1">  1        2 0.23381757E+00 0.11807805E+04</pdfrwt>
<pdfrwt beam="2">  1       -2 0.13779899E+00 0.11807805E+04</pdfrwt>
<totfact> 0.45132219E+00</totfact>
</mgrwt>
</event>
<event>
 4    1  0.2701205E-007  0.7773531E+03  0.7818608E-02  0.9762092E-01
         -2   -1    0    0    0  501 -0.00000000000E+00  0.00000000000E+00  0.27197517172E+03  0.27197517173E+03  0.25500000000E-02 0.  1.
          2   -1    0    0  501    0  0.00000000000E+00 -0.00000000000E+00 -0.21374106464E+04  0.21374106464E+04  0.25500000000E-02 0. -1.
    8880023    1    1    2    0    0 -0.37850689266E+03 -0.16492495688E+03 -0.18046017313E+04  0.19649084773E+04  0.65864270000E+03 0. -1.
    8880022    1    1    2    0    0  0.37850689266E+03  0.16492495688E+03 -0.60833743384E+02  0.44447734086E+03  0.15294330000E+03 0.  0.
<mgrwt>
<rscale>  0 0.67437214E+03</rscale>
<asrwt>0</asrwt>
<pdfrwt beam="1">  1        2 0.32883240E+00 0.77735315E+03</pdfrwt>
<pdfrwt beam="2">  1       -2 0.41842336E-01 0.77735315E+03</pdfrwt>
<totfact> 0.31259430E+01</totfact>
</mgrwt>
</event>
<event>
 4    1  0.2701205E-007  0.7468390E+03  0.7818608E-02  0.9840455E-01
         -2   -1    0    0    0  501 -0.00000000000E+00  0.00000000000E+00  0.31465308778E+03  0.31465308779E+03  0.25500000000E-02 0.  1.
          2   -1    0    0  501    0  0.00000000000E+00 -0.00000000000E+00 -0.39621078706E+04  0.39621078706E+04  0.25500000000E-02 0. -1.
    8880023    1    1    2    0    0 -0.10371183413E+03 -0.33645526010E+03 -0.37933038430E+04  0.38661250029E+04  0.65864270000E+03 0. -1.
    8880022    1    1    2    0    0  0.10371183413E+03  0.33645526010E+03  0.14584906015E+03  0.41063595550E+03  0.15294330000E+03 0.  0.
<mgrwt>
<rscale>  0 0.63235941E+03</rscale>
<asrwt>0</asrwt>
<pdfrwt beam="1">  1        2 0.60955502E+00 0.74683900E+03</pdfrwt>
<pdfrwt beam="2">  1       -2 0.48408170E-01 0.74683900E+03</pdfrwt>
<totfact> 0.16462576E+00</totfact>
</mgrwt>
</event>
<event>
 4    1  0.2701205E-007  0.1068287E+04  0.7818608E-02  0.9297214E-01
         -2   -1    0    0    0  501 -0.00000000000E+00  0.00000000000E+00  0.21400535866E+04  0.21400535866E+04  0.25500000000E-02 0.  1.
          2   -1    0    0  501    0  0.00000000000E+00 -0.00000000000E+00 -0.12402644837E+04  0.12402644837E+04  0.25500000000E-02 0. -1.
    8880023    1    1    2    0    0 -0.72125584820E+03  0.43268655979E+03 -0.89414644771E+03  0.13931029157E+04  0.65864270000E+03 0. -1.
    8880022    1    1    2    0    0  0.72125584820E+03 -0.43268655979E+03  0.17939355507E+04  0.19872151546E+04  0.15294330000E+03 0.  0.
<mgrwt>
<rscale>  0 0.10103976E+04</rscale>
<asrwt>0</asrwt>
<pdfrwt beam="1">  1        2 0.19080992E+00 0.10682874E+04</pdfrwt>
<pdfrwt beam="2">  1       -2 0.32923901E+00 0.10682874E+04</pdfrwt>
<totfact> 0.37528010E-01</totfact>
</mgrwt>
</event>
<event>
 4    1  0.2701205E-007  0.1499100E+04  0.7818608E-02  0.8910272E-01
         -2   -1    0    0    0  501 -0.00000000000E+00  0.00000000000E+00  0.94958273442E+03  0.94958273443E+03  0.25500000000E-02 0.  1.
          2   -1    0    0  501    0  0.00000000000E+00 -0.00000000000E+00 -0.29203518340E+04  0.29203518340E+04  0.25500000000E-02 0. -1.
    8880023    1    1    2    0    0  0.96394608768E+03  0.94037190829E+03 -0.20178910102E+04  0.25137990614E+04  0.65864270000E+03 0.  0.
    8880022    1    1    2    0    0 -0.96394608768E+03 -0.94037190829E+03  0.47121910640E+02  0.13561355070E+04  0.15294330000E+03 0.  0.
<mgrwt>
<rscale>  0 0.14617840E+04</rscale>
<asrwt>0</asrwt>
<pdfrwt beam="1">  1        2 0.44928489E+00 0.14991003E+04</pdfrwt>
<pdfrwt beam="2">  1       -2 0.14608965E+00 0.14991003E+04</pdfrwt>
<totfact> 0.59435215E-01</totfact>
</mgrwt>
</event>
<event>
 4    1  0.2701205E-007  0.1010215E+04  0.7818608E-02  0.9368314E-01
         -2   -1    0    0    0  501 -0.00000000000E+00  0.00000000000E+00  0.15529602195E+04  0.15529602195E+04  0.25500000000E-02 0.  1.
          2   -1    0    0  501    0  0.00000000000E+00 -0.00000000000E+00 -0.11689071843E+04  0.11689071843E+04  0.25500000000E-02 0. -1.
    8880023    1    1    2    0    0  0.27453923912E+03 -0.71508872703E+03 -0.81012066011E+03  0.12949244656E+04  0.65864270000E+03 0. -1.
    8880022    1    1    2    0    0 -0.27453923912E+03  0.71508872703E+03  0.11941736953E+04  0.14269429382E+04  0.15294330000E+03 0.  0.
<mgrwt>
<rscale>  0 0.94729835E+03</rscale>
<asrwt>0</asrwt>
<pdfrwt beam="1">  1        2 0.17983187E+00 0.10102148E+04</pdfrwt>
<pdfrwt beam="2">  1       -2 0.23891696E+00 0.10102148E+04</pdfrwt>
<totfact> 0.14790142E+00</totfact>
</mgrwt>
</event>
<event>
 4    1  0.2701205E-007  0.2062892E+04  0.7818608E-02  0.8589558E-01
          2   -1    0    0  501    0  0.00000000000E+00  0.00000000000E+00  0.24140639899E+04  0.24140639899E+04  0.25500000000E-02 0. -1.
         -2   -1    0    0    0  501 -0.00000000000E+00 -0.00000000000E+00 -0.44479371096E+04  0.44479371096E+04  0.25500000000E-02 0.  1.
    8880023    1    1    2    0    0 -0.10289127650E+04  0.16622425422E+04 -0.37345006607E+04  0.42663822073E+04  0.65864270000E+03 0.  0.
    8880022    1    1    2    0    0  0.10289127650E+04 -0.16622425422E+04  0.17006275410E+04  0.25956188922E+04  0.15294330000E+03 0.  0.
<mgrwt>
<rscale>  0 0.20369052E+04</rscale>
<asrwt>0</asrwt>
<pdfrwt beam="1">  1        2 0.37139446E+00 0.20628916E+04</pdfrwt>
<pdfrwt beam="2">  1       -2 0.68429801E+00 0.20628916E+04</pdfrwt>
<totfact> 0.85903966E-04</totfact>
</mgrwt>
</event>
<event>
 4    1  0.2701205E-007  0.1003843E+04  0.7818608E-02  0.9376547E-01
         -2   -1    0    0    0  501 -0.00000000000E+00  0.00000000000E+00  0.17093252215E+04  0.17093252215E+04  0.25500000000E-02 0.  1.
          2   -1    0    0  501    0  0.00000000000E+00 -0.00000000000E+00 -0.10517057960E+04  0.10517057960E+04  0.25500000000E-02 0. -1.
    8880023    1    1    2    0    0 -0.63110262784E+03  0.41904585498E+03 -0.68260686210E+03  0.12139408099E+04  0.65864270000E+03 0.  0.
    8880022    1    1    2    0    0  0.63110262784E+03 -0.41904585498E+03  0.13402262876E+04  0.15470902076E+04  0.15294330000E+03 0.  0.
<mgrwt>
<rscale>  0 0.94031127E+03</rscale>
<asrwt>0</asrwt>
<pdfrwt beam="1">  1        2 0.16180089E+00 0.10038427E+04</pdfrwt>
<pdfrwt beam="2">  1       -2 0.26297311E+00 0.10038427E+04</pdfrwt>
<totfact> 0.12467935E+00</totfact>
</mgrwt>
</event>
<event>
 4    1  0.2701205E-007  0.1072615E+04  0.7818608E-02  0.9292176E-01
         -2   -1    0    0    0  501 -0.00000000000E+00  0.00000000000E+00  0.44515175849E+03  0.44515175850E+03  0.25500000000E-02 0.  1.
          2   -1    0    0  501    0  0.00000000000E+00 -0.00000000000E+00 -0.34044086541E+04  0.34044086541E+04  0.25500000000E-02 0. -1.
    8880023    1    1    2    0    0  0.52462881875E+03 -0.66442310167E+03 -0.27676061482E+04  0.29681892550E+04  0.65864270000E+03 0. -1.
    8880022    1    1    2    0    0 -0.52462881875E+03  0.66442310167E+03 -0.19165074739E+03  0.88137115762E+03  0.15294330000E+03 0.  1.
<mgrwt>
<rscale>  0 0.10150635E+04</rscale>
<asrwt>0</asrwt>
<pdfrwt beam="1">  1        2 0.52375516E+00 0.10726153E+04</pdfrwt>
<pdfrwt beam="2">  1       -2 0.68484888E-01 0.10726153E+04</pdfrwt>
<totfact> 0.18857034E+00</totfact>
</mgrwt>
</event>
<event>
 4    1  0.2701205E-007  0.7605160E+03  0.7818608E-02  0.9803774E-01
         -2   -1    0    0    0  501 -0.00000000000E+00  0.00000000000E+00  0.13212285400E+04  0.13212285400E+04  0.25500000000E-02 0.  1.
          2   -1    0    0  501    0  0.00000000000E+00 -0.00000000000E+00 -0.53912596198E+03  0.53912596199E+03  0.25500000000E-02 0. -1.
    8880023    1    1    2    0    0 -0.35943529836E+03 -0.12401857507E+03 -0.20828147929E+03  0.78852122454E+03  0.65864270000E+03 0.  0.
    8880022    1    1    2    0    0  0.35943529836E+03  0.12401857507E+03  0.99038405736E+03  0.10718332775E+04  0.15294330000E+03 0.  0.
<mgrwt>
<rscale>  0 0.65160428E+03</rscale>
<asrwt>0</asrwt>
<pdfrwt beam="1">  1        2 0.82942456E-01 0.76051597E+03</pdfrwt>
<pdfrwt beam="2">  1       -2 0.20326593E+00 0.76051597E+03</pdfrwt>
<totfact> 0.72722876E+00</totfact>
</mgrwt>
</event>
<event>
 4    1  0.3258882E-007  0.9457460E+03  0.7818608E-02  0.9456261E-01
         -2   -1    0    0    0  501 -0.00000000000E+00  0.00000000000E+00  0.12537362425E+04  0.12537362425E+04  0.25500000000E-02 0.  1.
          2   -1    0    0  501    0  0.00000000000E+00 -0.00000000000E+00 -0.23508728146E+04  0.23508728146E+04  0.25500000000E-02 0. -1.
    8880023    1    1    2    0    0 -0.67494648533E+03  0.71221488455E+02 -0.21464754640E+04  0.23455899860E+04  0.65864270000E+03 0. -1.
    8880022    1    1    2    0    0  0.67494648533E+03 -0.71221488455E+02  0.10493388918E+04  0.12590190711E+04  0.15294330000E+03 0.  0.
<mgrwt>
<rscale>  0 0.87586757E+03</rscale>
<asrwt>0</asrwt>
<pdfrwt beam="1">  1        2 0.36167274E+00 0.94574598E+03</pdfrwt>
<pdfrwt beam="2">  1       -2 0.19288250E+00 0.94574598E+03</pdfrwt>
<totfact> 0.63690851E-01</totfact>
</mgrwt>
</event>
<event>
 4    1  0.2701205E-007  0.9421286E+03  0.7818608E-02  0.9461531E-01
          2   -1    0    0  501    0  0.00000000000E+00  0.00000000000E+00  0.95836640149E+03  0.95836640150E+03  0.25500000000E-02 0. -1.
         -2   -1    0    0    0  501 -0.00000000000E+00 -0.00000000000E+00 -0.10197526596E+04  0.10197526596E+04  0.25500000000E-02 0.  1.
    8880023    1    1    2    0    0 -0.16699382073E+03  0.65261715507E+03  0.51922693253E+03  0.10757336571E+04  0.65864270000E+03 0. -1.
    8880022    1    1    2    0    0  0.16699382073E+03 -0.65261715507E+03 -0.58061319067E+03  0.90238540406E+03  0.15294330000E+03 0.  0.
<mgrwt>
<rscale>  0 0.87180388E+03</rscale>
<asrwt>0</asrwt>
<pdfrwt beam="1">  1        2 0.14744098E+00 0.94212860E+03</pdfrwt>
<pdfrwt beam="2">  1       -2 0.15688502E+00 0.94212860E+03</pdfrwt>
<totfact> 0.71004523E+00</totfact>
</mgrwt>
</event>
<event>
 4    1  0.2701205E-007  0.6758386E+03  0.7818608E-02  0.1011783E+00
          2   -1    0    0  501    0  0.00000000000E+00  0.00000000000E+00  0.89483914615E+03  0.89483914615E+03  0.25500000000E-02 0. -1.
         -2   -1    0    0    0  501 -0.00000000000E+00 -0.00000000000E+00 -0.27673357268E+03  0.27673357269E+03  0.25500000000E-02 0.  1.
    8880023    1    1    2    0    0 -0.53132670598E+02  0.14186097659E+03  0.66837318406E+03  0.95051593190E+03  0.65864270000E+03 0. -1.
    8880022    1    1    2    0    0  0.53132670598E+02 -0.14186097659E+03 -0.50267610583E+02  0.22105678694E+03  0.15294330000E+03 0.  1.
<mgrwt>
<rscale>  0 0.50772190E+03</rscale>
<asrwt>0</asrwt>
<pdfrwt beam="1">  1        2 0.13766756E+00 0.67583861E+03</pdfrwt>
<pdfrwt beam="2">  1       -2 0.42574396E-01 0.67583861E+03</pdfrwt>
<totfact> 0.15702910E+02</totfact>
</mgrwt>
</event>
<event>
 4    1  0.2701205E-007  0.8805755E+03  0.7818608E-02  0.9557963E-01
         -2   -1    0    0    0  501 -0.00000000000E+00  0.00000000000E+00  0.13341263273E+04  0.13341263273E+04  0.25500000000E-02 0.  1.
          2   -1    0    0  501    0  0.00000000000E+00 -0.00000000000E+00 -0.10098913060E+04  0.10098913060E+04  0.25500000000E-02 0. -1.
    8880023    1    1    2    0    0 -0.54517167609E+03  0.21069116669E+03 -0.72010016826E+03  0.11375224757E+04  0.65864270000E+03 0.  0.
    8880022    1    1    2    0    0  0.54517167609E+03 -0.21069116669E+03  0.10443351896E+04  0.12064951576E+04  0.15294330000E+03 0.  0.
<mgrwt>
<rscale>  0 0.80142103E+03</rscale>
<asrwt>0</asrwt>
<pdfrwt beam="1">  1        2 0.15536789E+00 0.88057545E+03</pdfrwt>
<pdfrwt beam="2">  1       -2 0.20525020E+00 0.88057545E+03</pdfrwt>
<totfact> 0.30712558E+00</totfact>
</mgrwt>
</event>
<event>
 4    1  0.2701205E-007  0.7472716E+03  0.7818608E-02  0.9839250E-01
          2   -1    0    0  501    0  0.00000000000E+00  0.00000000000E+00  0.26370424534E+04  0.26370424534E+04  0.25500000000E-02 0. -1.
         -2   -1    0    0    0  501 -0.00000000000E+00 -0.00000000000E+00 -0.73468457998E+03  0.73468457999E+03  0.25500000000E-02 0.  1.
    8880023    1    1    2    0    0  0.22449412075E+03 -0.27240954086E+03  0.25286287492E+04  0.26367362640E+04  0.65864270000E+03 0. -1.
    8880022    1    1    2    0    0 -0.22449412075E+03  0.27240954086E+03 -0.62627087580E+03  0.73499076939E+03  0.15294330000E+03 0.  0.
<mgrwt>
<rscale>  0 0.63298026E+03</rscale>
<asrwt>0</asrwt>
<pdfrwt beam="1">  1        2 0.40569884E+00 0.74727155E+03</pdfrwt>
<pdfrwt beam="2">  1       -2 0.11302840E+00 0.74727155E+03</pdfrwt>
<totfact> 0.18792050E+00</totfact>
</mgrwt>
</event>
<event>
 4    1  0.2701205E-007  0.1424846E+04  0.7818608E-02  0.8964613E-01
          2   -1    0    0  501    0  0.00000000000E+00  0.00000000000E+00  0.14416919476E+04  0.14416919476E+04  0.25500000000E-02 0. -1.
         -2   -1    0    0    0  501 -0.00000000000E+00 -0.00000000000E+00 -0.21212940438E+04  0.21212940438E+04  0.25500000000E-02 0.  1.
    8880023    1    1    2    0    0  0.74366749465E+03 -0.10214375085E+04  0.78167570612E+03  0.16251778494E+04  0.65864270000E+03 0.  0.
    8880022    1    1    2    0    0 -0.74366749465E+03  0.10214375085E+04 -0.14612778023E+04  0.19378081420E+04  0.15294330000E+03 0.  0.
<mgrwt>
<rscale>  0 0.13851842E+04</rscale>
<asrwt>0</asrwt>
<pdfrwt beam="1">  1        2 0.22179876E+00 0.14248460E+04</pdfrwt>
<pdfrwt beam="2">  1       -2 0.32635293E+00 0.14248460E+04</pdfrwt>
<totfact> 0.28471021E-01</totfact>
</mgrwt>
</event>
<event>
 4    1  0.2701205E-007  0.9725297E+03  0.7818608E-02  0.9418414E-01
          2   -1    0    0  501    0  0.00000000000E+00  0.00000000000E+00  0.16778648677E+04  0.16778648677E+04  0.25500000000E-02 0. -1.
         -2   -1    0    0    0  501 -0.00000000000E+00 -0.00000000000E+00 -0.12343968436E+04  0.12343968436E+04  0.25500000000E-02 0.  1.
    8880023    1    1    2    0    0  0.62833205775E+03 -0.34234865238E+03  0.14020497964E+04  0.17063286942E+04  0.65864270000E+03 0. -1.
    8880022    1    1    2    0    0 -0.62833205775E+03  0.34234865238E+03 -0.95858177231E+03  0.12059330171E+04  0.15294330000E+03 0.  0.
<mgrwt>
<rscale>  0 0.90575654E+03</rscale>
<asrwt>0</asrwt>
<pdfrwt beam="1">  1        2 0.25813306E+00 0.97252968E+03</pdfrwt>
<pdfrwt beam="2">  1       -2 0.18990721E+00 0.97252968E+03</pdfrwt>
<totfact> 0.15634501E+00</totfact>
</mgrwt>
</event>
<event>
 4    1  0.2701205E-007  0.6704621E+03  0.7818608E-02  0.1015334E+00
          2   -1    0    0  501    0  0.00000000000E+00  0.00000000000E+00  0.12669991505E+04  0.12669991505E+04  0.25500000000E-02 0. -1.
         -2   -1    0    0    0  501 -0.00000000000E+00 -0.00000000000E+00 -0.35205010674E+03  0.35205010675E+03  0.25500000000E-02 0.  1.
    8880023    1    1    2    0    0 -0.37032300774E+02  0.11974060982E+03  0.11380922554E+04  0.13208987065E+04  0.65864270000E+03 0. -1.
    8880022    1    1    2    0    0  0.37032300774E+02 -0.11974060982E+03 -0.22314321166E+03  0.29815055067E+03  0.15294330000E+03 0.  0.
<mgrwt>
<rscale>  0 0.49408760E+03</rscale>
<asrwt>0</asrwt>
<pdfrwt beam="1">  1        2 0.19492295E+00 0.67046209E+03</pdfrwt>
<pdfrwt beam="2">  1       -2 0.54161555E-01 0.67046209E+03</pdfrwt>
<totfact> 0.56937395E+01</totfact>
</mgrwt>
</event>
<event>
 4    1  0.2701205E-007  0.8528074E+03  0.7818608E-02  0.9606488E-01
         -2   -1    0    0    0  501 -0.00000000000E+00  0.00000000000E+00  0.56463531675E+03  0.56463531676E+03  0.25500000000E-02 0.  1.
          2   -1    0    0  501    0  0.00000000000E+00 -0.00000000000E+00 -0.18088453239E+04  0.18088453239E+04  0.25500000000E-02 0. -1.
    8880023    1    1    2    0    0  0.53093609598E+03  0.10759736590E+03 -0.15228546643E+04  0.17453844465E+04  0.65864270000E+03 0.  0.
    8880022    1    1    2    0    0 -0.53093609598E+03 -0.10759736590E+03  0.27864465715E+03  0.62809619418E+03  0.15294330000E+03 0.  0.
<mgrwt>
<rscale>  0 0.76868252E+03</rscale>
<asrwt>0</asrwt>
<pdfrwt beam="1">  1        2 0.27828389E+00 0.85280744E+03</pdfrwt>
<pdfrwt beam="2">  1       -2 0.86866973E-01 0.85280744E+03</pdfrwt>
<totfact> 0.99446046E+00</totfact>
</mgrwt>
</event>
<event>
 4    1  0.2701205E-007  0.1072581E+04  0.7818608E-02  0.9292216E-01
         -2   -1    0    0    0  501 -0.00000000000E+00  0.00000000000E+00  0.90081027006E+03  0.90081027007E+03  0.25500000000E-02 0.  1.
          2   -1    0    0  501    0  0.00000000000E+00 -0.00000000000E+00 -0.12266539361E+04  0.12266539361E+04  0.25500000000E-02 0. -1.
    8880023    1    1    2    0    0  0.74478111187E+03  0.40239450670E+03 -0.59440983792E+03  0.12262762761E+04  0.65864270000E+03 0. -1.
    8880022    1    1    2    0    0 -0.74478111187E+03 -0.40239450670E+03  0.26856617188E+03  0.90118793008E+03  0.15294330000E+03 0.  0.
<mgrwt>
<rscale>  0 0.10150267E+04</rscale>
<asrwt>0</asrwt>
<pdfrwt beam="1">  1        2 0.18871599E+00 0.10725812E+04</pdfrwt>
<pdfrwt beam="2">  1       -2 0.13858619E+00 0.10725812E+04</pdfrwt>
<totfact> 0.66313612E+00</totfact>
</mgrwt>
</event>
<event>
 4    1  0.2701205E-007  0.7582715E+03  0.7818608E-02  0.9809603E-01
          2   -1    0    0  501    0  0.00000000000E+00  0.00000000000E+00  0.28295087416E+04  0.28295087416E+04  0.25500000000E-02 0. -1.
         -2   -1    0    0    0  501 -0.00000000000E+00 -0.00000000000E+00 -0.25538960911E+03  0.25538960912E+03  0.25500000000E-02 0.  1.
    8880023    1    1    2    0    0 -0.15575306242E+03  0.34191594955E+03  0.25696752313E+04  0.26792175226E+04  0.65864270000E+03 0. -1.
    8880022    1    1    2    0    0  0.15575306242E+03 -0.34191594955E+03  0.44439012057E+01  0.40568082810E+03  0.15294330000E+03 0.  0.
<mgrwt>
<rscale>  0 0.64849731E+03</rscale>
<asrwt>0</asrwt>
<pdfrwt beam="1">  1        2 0.43530906E+00 0.75827155E+03</pdfrwt>
<pdfrwt beam="2">  1       -2 0.39290707E-01 0.75827155E+03</pdfrwt>
<totfact> 0.14336116E+01</totfact>
</mgrwt>
</event>
<event>
 4    1  0.2701205E-007  0.7318269E+03  0.7818608E-02  0.9884428E-01
          2   -1    0    0  501    0  0.00000000000E+00  0.00000000000E+00  0.90456328979E+03  0.90456328980E+03  0.25500000000E-02 0. -1.
         -2   -1    0    0    0  501 -0.00000000000E+00 -0.00000000000E+00 -0.88568582955E+03  0.88568582955E+03  0.25500000000E-02 0.  1.
    8880023    1    1    2    0    0 -0.15390436254E+03  0.27941690038E+03  0.70634290056E+03  0.10170992363E+04  0.65864270000E+03 0. -1.
    8880022    1    1    2    0    0  0.15390436254E+03 -0.27941690038E+03 -0.68746544032E+03  0.77314988306E+03  0.15294330000E+03 0.  0.
<mgrwt>
<rscale>  0 0.61021937E+03</rscale>
<asrwt>0</asrwt>
<pdfrwt beam="1">  1        2 0.13916358E+00 0.73182687E+03</pdfrwt>
<pdfrwt beam="2">  1       -2 0.13625936E+00 0.73182687E+03</pdfrwt>
<totfact> 0.11423950E+01</totfact>
</mgrwt>
</event>
<event>
 4    1  0.2701205E-007  0.9896947E+03  0.7818608E-02  0.9395166E-01
          2   -1    0    0  501    0  0.00000000000E+00  0.00000000000E+00  0.10842088042E+04  0.10842088042E+04  0.25500000000E-02 0. -1.
         -2   -1    0    0    0  501 -0.00000000000E+00 -0.00000000000E+00 -0.90831720867E+03  0.90831720867E+03  0.25500000000E-02 0.  1.
    8880023    1    1    2    0    0  0.47955908458E+03 -0.56187937728E+03  0.56928100214E+03  0.11417427100E+04  0.65864270000E+03 0.  0.
    8880022    1    1    2    0    0 -0.47955908458E+03  0.56187937728E+03 -0.39338940659E+03  0.85078330287E+03  0.15294330000E+03 0.  0.
<mgrwt>
<rscale>  0 0.92474567E+03</rscale>
<asrwt>0</asrwt>
<pdfrwt beam="1">  1        2 0.16680135E+00 0.98969468E+03</pdfrwt>
<pdfrwt beam="2">  1       -2 0.13974111E+00 0.98969468E+03</pdfrwt>
<totfact> 0.79815129E+00</totfact>
</mgrwt>
</event>
<event>
 4    1  0.2701205E-007  0.7851876E+03  0.7818608E-02  0.9743789E-01
          2   -1    0    0  501    0  0.00000000000E+00  0.00000000000E+00  0.71944914802E+03  0.71944914803E+03  0.25500000000E-02 0. -1.
         -2   -1    0    0    0  501 -0.00000000000E+00 -0.00000000000E+00 -0.96503041394E+03  0.96503041395E+03  0.25500000000E-02 0.  1.
    8880023    1    1    2    0    0 -0.42742803309E+03 -0.38175185902E+01  0.41098501452E+03  0.88624386336E+03  0.65864270000E+03 0. -1.
    8880022    1    1    2    0    0  0.42742803309E+03  0.38175185902E+01 -0.65656628044E+03  0.79823569861E+03  0.15294330000E+03 0.  0.
<mgrwt>
<rscale>  0 0.68468381E+03</rscale>
<asrwt>0</asrwt>
<pdfrwt beam="1">  1        2 0.11068448E+00 0.78518756E+03</pdfrwt>
<pdfrwt beam="2">  1       -2 0.14846622E+00 0.78518756E+03</pdfrwt>
<totfact> 0.12324049E+01</totfact>
</mgrwt>
</event>
<event>
 4    1  0.2701205E-007  0.1115194E+04  0.7818608E-02  0.9244326E-01
         -2   -1    0    0    0  501 -0.00000000000E+00  0.00000000000E+00  0.79704865209E+03  0.79704865210E+03  0.25500000000E-02 0.  1.
          2   -1    0    0  501    0  0.00000000000E+00 -0.00000000000E+00 -0.18270602379E+04  0.18270602379E+04  0.25500000000E-02 0. -1.
    8880023    1    1    2    0    0 -0.33641892502E+03 -0.83466701359E+03 -0.12601294450E+04  0.16827308582E+04  0.65864270000E+03 0.  0.
    8880022    1    1    2    0    0  0.33641892502E+03  0.83466701359E+03  0.23011785917E+03  0.94137803183E+03  0.15294330000E+03 0.  1.
<mgrwt>
<rscale>  0 0.10607398E+04</rscale>
<asrwt>0</asrwt>
<pdfrwt beam="1">  1        2 0.28108619E+00 0.11151937E+04</pdfrwt>
<pdfrwt beam="2">  1       -2 0.12262287E+00 0.11151937E+04</pdfrwt>
<totfact> 0.41257401E+00</totfact>
</mgrwt>
</event>
<event>
 4    1  0.2701205E-007  0.7814417E+03  0.7818608E-02  0.9752461E-01
          2   -1    0    0  501    0  0.00000000000E+00  0.00000000000E+00  0.33641742046E+03  0.33641742047E+03  0.25500000000E-02 0. -1.
         -2   -1    0    0    0  501 -0.00000000000E+00 -0.00000000000E+00 -0.17272463971E+04  0.17272463971E+04  0.25500000000E-02 0.  1.
    8880023    1    1    2    0    0  0.23645474868E+03 -0.34774999496E+03 -0.22238858171E+03  0.81247018081E+03  0.65864270000E+03 0.  0.
    8880022    1    1    2    0    0 -0.23645474868E+03  0.34774999496E+03 -0.11684403949E+04  0.12511936367E+04  0.15294330000E+03 0.  0.
<mgrwt>
<rscale>  0 0.67977356E+03</rscale>
<asrwt>0</asrwt>
<pdfrwt beam="1">  1        2 0.51756527E-01 0.78144169E+03</pdfrwt>
<pdfrwt beam="2">  1       -2 0.26573021E+00 0.78144169E+03</pdfrwt>
<totfact> 0.51083335E+00</totfact>
</mgrwt>
</event>
<event>
 4    1  0.2701205E-007  0.6865914E+03  0.7818608E-02  0.1005817E+00
         -2   -1    0    0    0  501 -0.00000000000E+00  0.00000000000E+00  0.37703407361E+03  0.37703407362E+03  0.25500000000E-02 0.  1.
          2   -1    0    0  501    0  0.00000000000E+00 -0.00000000000E+00 -0.18234142875E+04  0.18234142875E+04  0.25500000000E-02 0. -1.
    8880023    1    1    2    0    0  0.51012578955E+02  0.18707005794E+03 -0.17079059815E+04  0.18407472770E+04  0.65864270000E+03 0. -1.
    8880022    1    1    2    0    0 -0.51012578955E+02 -0.18707005794E+03  0.26152576761E+03  0.35970108414E+03  0.15294330000E+03 0.  0.
<mgrwt>
<rscale>  0 0.53171672E+03</rscale>
<asrwt>0</asrwt>
<pdfrwt beam="1">  1        2 0.28052527E+00 0.68659136E+03</pdfrwt>
<pdfrwt beam="2">  1       -2 0.58005243E-01 0.68659136E+03</pdfrwt>
<totfact> 0.24193581E+01</totfact>
</mgrwt>
</event>
<event>
 4    1  0.2701205E-007  0.1045533E+04  0.7818608E-02  0.9324271E-01
          2   -1    0    0  501    0  0.00000000000E+00  0.00000000000E+00  0.27775445753E+04  0.27775445753E+04  0.25500000000E-02 0. -1.
         -2   -1    0    0    0  501 -0.00000000000E+00 -0.00000000000E+00 -0.40910553209E+03  0.40910553210E+03  0.25500000000E-02 0.  1.
    8880023    1    1    2    0    0  0.40991567174E+03 -0.70092666847E+03  0.20498431109E+04  0.23010858389E+04  0.65864270000E+03 0. -1.
    8880022    1    1    2    0    0 -0.40991567174E+03  0.70092666847E+03  0.31859593233E+03  0.88556426849E+03  0.15294330000E+03 0.  0.
<mgrwt>
<rscale>  0 0.98578838E+03</rscale>
<asrwt>0</asrwt>
<pdfrwt beam="1">  1        2 0.42731455E+00 0.10455330E+04</pdfrwt>
<pdfrwt beam="2">  1       -2 0.62939312E-01 0.10455330E+04</pdfrwt>
<totfact> 0.56434615E+00</totfact>
</mgrwt>
</event>
<event>
 4    1  0.2701205E-007  0.7584110E+03  0.7818608E-02  0.9809239E-01
          2   -1    0    0  501    0  0.00000000000E+00  0.00000000000E+00  0.33471996024E+04  0.33471996024E+04  0.25500000000E-02 0. -1.
         -2   -1    0    0    0  501 -0.00000000000E+00 -0.00000000000E+00 -0.16400964540E+03  0.16400964542E+03  0.25500000000E-02 0.  1.
    8880023    1    1    2    0    0  0.31339038730E+03 -0.20775840915E+03  0.29438743747E+04  0.30399973078E+04  0.65864270000E+03 0.  0.
    8880022    1    1    2    0    0 -0.31339038730E+03  0.20775840915E+03  0.23931558228E+03  0.47121193996E+03  0.15294330000E+03 0.  0.
<mgrwt>
<rscale>  0 0.64869095E+03</rscale>
<asrwt>0</asrwt>
<pdfrwt beam="1">  1        2 0.51495377E+00 0.75841103E+03</pdfrwt>
<pdfrwt beam="2">  1       -2 0.25232254E-01 0.75841103E+03</pdfrwt>
<totfact> 0.15623087E+01</totfact>
</mgrwt>
</event>
<event>
 4    1  0.2701205E-007  0.1118805E+04  0.7818608E-02  0.9240402E-01
         -2   -1    0    0    0  501 -0.00000000000E+00  0.00000000000E+00  0.12127916545E+04  0.12127916545E+04  0.25500000000E-02 0.  1.
          2   -1    0    0  501    0  0.00000000000E+00 -0.00000000000E+00 -0.20829825612E+04  0.20829825612E+04  0.25500000000E-02 0. -1.
    8880023    1    1    2    0    0 -0.35000408052E+03  0.83391403736E+03 -0.17157288881E+04  0.20482800838E+04  0.65864270000E+03 0.  0.
    8880022    1    1    2    0    0  0.35000408052E+03 -0.83391403736E+03  0.84553798135E+03  0.12474941319E+04  0.15294330000E+03 0.  0.
<mgrwt>
<rscale>  0 0.10645970E+04</rscale>
<asrwt>0</asrwt>
<pdfrwt beam="1">  1        2 0.32045886E+00 0.11188055E+04</pdfrwt>
<pdfrwt beam="2">  1       -2 0.18658333E+00 0.11188055E+04</pdfrwt>
<totfact> 0.96436284E-01</totfact>
</mgrwt>
</event>
<event>
 4    1  0.2701205E-007  0.1327922E+04  0.7818608E-02  0.9041815E-01
          2   -1    0    0  501    0  0.00000000000E+00  0.00000000000E+00  0.13794963834E+04  0.13794963834E+04  0.25500000000E-02 0. -1.
         -2   -1    0    0    0  501 -0.00000000000E+00 -0.00000000000E+00 -0.33183504734E+04  0.33183504734E+04  0.25500000000E-02 0.  1.
    8880023    1    1    2    0    0 -0.11448963387E+04 -0.13703490571E+03  0.91728719151E+03  0.16139368605E+04  0.65864270000E+03 0. -1.
    8880022    1    1    2    0    0  0.11448963387E+04  0.13703490571E+03 -0.28561412815E+04  0.30839099962E+04  0.15294330000E+03 0.  0.
<mgrwt>
<rscale>  0 0.12846651E+04</rscale>
<asrwt>0</asrwt>
<pdfrwt beam="1">  1        2 0.21223021E+00 0.13279218E+04</pdfrwt>
<pdfrwt beam="2">  1       -2 0.51051545E+00 0.13279218E+04</pdfrwt>
<totfact> 0.20177998E-02</totfact>
</mgrwt>
</event>
<event>
 4    1  0.2701205E-007  0.9157346E+03  0.7818608E-02  0.9501230E-01
         -2   -1    0    0    0  501 -0.00000000000E+00  0.00000000000E+00  0.68148684656E+03  0.68148684657E+03  0.25500000000E-02 0.  1.
          2   -1    0    0  501    0  0.00000000000E+00 -0.00000000000E+00 -0.18318923996E+04  0.18318923996E+04  0.25500000000E-02 0. -1.
    8880023    1    1    2    0    0 -0.47960932612E+03 -0.41801270812E+03 -0.15105770138E+04  0.17664690347E+04  0.65864270000E+03 0.  0.
    8880022    1    1    2    0    0  0.47960932612E+03  0.41801270812E+03  0.36017146072E+03  0.74691021146E+03  0.15294330000E+03 0.  0.
<mgrwt>
<rscale>  0 0.84193178E+03</rscale>
<asrwt>0</asrwt>
<pdfrwt beam="1">  1        2 0.28182960E+00 0.91573464E+03</pdfrwt>
<pdfrwt beam="2">  1       -2 0.10484413E+00 0.91573464E+03</pdfrwt>
<totfact> 0.61618595E+00</totfact>
</mgrwt>
</event>
<event>
 4    1  0.2701205E-007  0.7796819E+03  0.7818608E-02  0.9756585E-01
         -2   -1    0    0    0  501 -0.00000000000E+00  0.00000000000E+00  0.77681289572E+03  0.77681289573E+03  0.25500000000E-02 0.  1.
          2   -1    0    0  501    0  0.00000000000E+00 -0.00000000000E+00 -0.85495638185E+03  0.85495638185E+03  0.25500000000E-02 0. -1.
    8880023    1    1    2    0    0 -0.17791474865E+03 -0.37741223153E+03 -0.57230398419E+03  0.96717925271E+03  0.65864270000E+03 0.  0.
    8880022    1    1    2    0    0  0.17791474865E+03  0.37741223153E+03  0.49416049806E+03  0.66459002487E+03  0.15294330000E+03 0.  0.
<mgrwt>
<rscale>  0 0.67745419E+03</rscale>
<asrwt>0</asrwt>
<pdfrwt beam="1">  1        2 0.13153175E+00 0.77968189E+03</pdfrwt>
<pdfrwt beam="2">  1       -2 0.11950968E+00 0.77968189E+03</pdfrwt>
<totfact> 0.17096765E+01</totfact>
</mgrwt>
</event>
<event>
 4    1  0.2701205E-007  0.8344932E+03  0.7818608E-02  0.9640652E-01
         -2   -1    0    0    0  501 -0.00000000000E+00  0.00000000000E+00  0.17726801354E+03  0.17726801356E+03  0.25500000000E-02 0.  1.
          2   -1    0    0  501    0  0.00000000000E+00 -0.00000000000E+00 -0.26577838974E+04  0.26577838974E+04  0.25500000000E-02 0. -1.
    8880023    1    1    2    0    0 -0.51181787596E+03  0.24721857302E+02 -0.14109828419E+04  0.16392838359E+04  0.65864270000E+03 0.  0.
    8880022    1    1    2    0    0  0.51181787596E+03 -0.24721857302E+02 -0.10695330420E+04  0.11957680750E+04  0.15294330000E+03 0.  0.
<mgrwt>
<rscale>  0 0.74662983E+03</rscale>
<asrwt>0</asrwt>
<pdfrwt beam="1">  1        2 0.40888980E+00 0.83449321E+03</pdfrwt>
<pdfrwt beam="2">  1       -2 0.27272004E-01 0.83449321E+03</pdfrwt>
<totfact> 0.35597273E+01</totfact>
</mgrwt>
</event>
<event>
 4    1  0.2701205E-007  0.9909884E+03  0.7818608E-02  0.9393444E-01
          2   -1    0    0  501    0  0.00000000000E+00  0.00000000000E+00  0.14187728077E+04  0.14187728077E+04  0.25500000000E-02 0. -1.
         -2   -1    0    0    0  501 -0.00000000000E+00 -0.00000000000E+00 -0.19321553131E+04  0.19321553131E+04  0.25500000000E-02 0.  1.
    8880023    1    1    2    0    0 -0.69292397563E+03 -0.26096778925E+03  0.11534161627E+04  0.15206665886E+04  0.65864270000E+03 0.  0.
    8880022    1    1    2    0    0  0.69292397563E+03  0.26096778925E+03 -0.16667986682E+04  0.18302615322E+04  0.15294330000E+03 0.  0.
<mgrwt>
<rscale>  0 0.92617213E+03</rscale>
<asrwt>0</asrwt>
<pdfrwt beam="1">  1        2 0.21827274E+00 0.99098841E+03</pdfrwt>
<pdfrwt beam="2">  1       -2 0.29725466E+00 0.99098841E+03</pdfrwt>
<totfact> 0.46912933E-01</totfact>
</mgrwt>
</event>
<event>
 4    1  0.2701205E-007  0.7930800E+03  0.7818608E-02  0.9725963E-01
          2   -1    0    0  501    0  0.00000000000E+00  0.00000000000E+00  0.41468881499E+04  0.41468881499E+04  0.25500000000E-02 0. -1.
         -2   -1    0    0    0  501 -0.00000000000E+00 -0.00000000000E+00 -0.10569097227E+03  0.10569097230E+03  0.25500000000E-02 0.  1.
    8880023    1    1    2    0    0 -0.26786438554E+03 -0.35130389617E+03  0.31241618633E+04  0.32232535288E+04  0.65864270000E+03 0.  0.
    8880022    1    1    2    0    0  0.26786438554E+03  0.35130389617E+03  0.91703531431E+03  0.10293255934E+04  0.15294330000E+03 0. -1.
<mgrwt>
<rscale>  0 0.69491784E+03</rscale>
<asrwt>0</asrwt>
<pdfrwt beam="1">  1        2 0.63798269E+00 0.79308005E+03</pdfrwt>
<pdfrwt beam="2">  1       -2 0.16260152E-01 0.79308005E+03</pdfrwt>
<totfact> 0.86797173E+00</totfact>
</mgrwt>
</event>
<event>
 4    1  0.2701205E-007  0.9932536E+03  0.7818608E-02  0.9390438E-01
          2   -1    0    0  501    0  0.00000000000E+00  0.00000000000E+00  0.22793170844E+04  0.22793170844E+04  0.25500000000E-02 0. -1.
         -2   -1    0    0    0  501 -0.00000000000E+00 -0.00000000000E+00 -0.37861960194E+03  0.37861960194E+03  0.25500000000E-02 0.  1.
    8880023    1    1    2    0    0  0.46028013307E+03  0.58385339876E+03  0.15015944881E+04  0.18003718519E+04  0.65864270000E+03 0.  0.
    8880022    1    1    2    0    0 -0.46028013307E+03 -0.58385339876E+03  0.39910299435E+03  0.85756483443E+03  0.15294330000E+03 0.  0.
<mgrwt>
<rscale>  0 0.92866822E+03</rscale>
<asrwt>0</asrwt>
<pdfrwt beam="1">  1        2 0.35066417E+00 0.99325364E+03</pdfrwt>
<pdfrwt beam="2">  1       -2 0.58249169E-01 0.99325364E+03</pdfrwt>
<totfact> 0.12953012E+01</totfact>
</mgrwt>
</event>
<event>
 4    1  0.2701205E-007  0.6862325E+03  0.7818608E-02  0.1005997E+00
          2   -1    0    0  501    0  0.00000000000E+00  0.00000000000E+00  0.21723403359E+04  0.21723403359E+04  0.25500000000E-02 0. -1.
         -2   -1    0    0    0  501 -0.00000000000E+00 -0.00000000000E+00 -0.61138211870E+03  0.61138211870E+03  0.25500000000E-02 0.  1.
    8880023    1    1    2    0    0 -0.14616322950E+03  0.12546385312E+03  0.20902821233E+04  0.22000441881E+04  0.65864270000E+03 0. -1.
    8880022    1    1    2    0    0  0.14616322950E+03 -0.12546385312E+03 -0.52932390618E+03  0.58367826648E+03  0.15294330000E+03 0.  0.
<mgrwt>
<rscale>  0 0.53096974E+03</rscale>
<asrwt>0</asrwt>
<pdfrwt beam="1">  1        2 0.33420621E+00 0.68623252E+03</pdfrwt>
<pdfrwt beam="2">  1       -2 0.94058787E-01 0.68623252E+03</pdfrwt>
<totfact> 0.53724897E+00</totfact>
</mgrwt>
</event>
<event>
 4    1  0.2701205E-007  0.6844434E+03  0.7818608E-02  0.1006914E+00
         -2   -1    0    0    0  501 -0.00000000000E+00  0.00000000000E+00  0.62844555271E+03  0.62844555272E+03  0.25500000000E-02 0.  1.
          2   -1    0    0  501    0  0.00000000000E+00 -0.00000000000E+00 -0.61372325066E+03  0.61372325066E+03  0.25500000000E-02 0. -1.
    8880023    1    1    2    0    0  0.16888061975E+03 -0.78306547572E+02 -0.37766229050E+03  0.78172347480E+03  0.65864270000E+03 0. -1.
    8880022    1    1    2    0    0 -0.16888061975E+03  0.78306547572E+02  0.39238459256E+03  0.46044532858E+03  0.15294330000E+03 0.  0.
<mgrwt>
<rscale>  0 0.52719714E+03</rscale>
<asrwt>0</asrwt>
<pdfrwt beam="1">  1        2 0.94418962E-01 0.68444341E+03</pdfrwt>
<pdfrwt beam="2">  1       -2 0.96683931E-01 0.68444341E+03</pdfrwt>
<totfact> 0.43917725E+01</totfact>
</mgrwt>
</event>
<event>
 4    1  0.2701205E-007  0.6936499E+03  0.7818608E-02  0.1002464E+00
          2   -1    0    0  501    0  0.00000000000E+00  0.00000000000E+00  0.11435978197E+04  0.11435978197E+04  0.25500000000E-02 0. -1.
         -2   -1    0    0    0  501 -0.00000000000E+00 -0.00000000000E+00 -0.57263143517E+03  0.57263143517E+03  0.25500000000E-02 0.  1.
    8880023    1    1    2    0    0 -0.21385416817E+03  0.40079070798E+02  0.99666249852E+03  0.12142842663E+04  0.65864270000E+03 0. -1.
    8880022    1    1    2    0    0  0.21385416817E+03 -0.40079070798E+02 -0.42569611394E+03  0.50194498862E+03  0.15294330000E+03 0.  0.
<mgrwt>
<rscale>  0 0.54582938E+03</rscale>
<asrwt>0</asrwt>
<pdfrwt beam="1">  1        2 0.17593812E+00 0.69364987E+03</pdfrwt>
<pdfrwt beam="2">  1       -2 0.88097145E-01 0.69364987E+03</pdfrwt>
<totfact> 0.23300749E+01</totfact>
</mgrwt>
</event>
<event>
 4    1  0.2701205E-007  0.1030644E+04  0.7818608E-02  0.9342520E-01
         -2   -1    0    0    0  501 -0.00000000000E+00  0.00000000000E+00  0.21929639142E+04  0.21929639142E+04  0.25500000000E-02 0.  1.
          2   -1    0    0  501    0  0.00000000000E+00 -0.00000000000E+00 -0.12792561832E+04  0.12792561832E+04  0.25500000000E-02 0. -1.
    8880023    1    1    2    0    0  0.56304867382E+03  0.55802646126E+03 -0.97465331918E+03  0.14185121217E+04  0.65864270000E+03 0. -1.
    8880022    1    1    2    0    0 -0.56304867382E+03 -0.55802646126E+03  0.18883610502E+04  0.20537079757E+04  0.15294330000E+03 0.  0.
<mgrwt>
<rscale>  0 0.96960898E+03</rscale>
<asrwt>0</asrwt>
<pdfrwt beam="1">  1        2 0.19680865E+00 0.10306442E+04</pdfrwt>
<pdfrwt beam="2">  1       -2 0.33737906E+00 0.10306442E+04</pdfrwt>
<totfact> 0.31893852E-01</totfact>
</mgrwt>
</event>
<event>
 4    1  0.2701205E-007  0.9211103E+03  0.7818608E-02  0.9492959E-01
         -2   -1    0    0    0  501 -0.00000000000E+00  0.00000000000E+00  0.27506364297E+03  0.27506364298E+03  0.25500000000E-02 0.  1.
          2   -1    0    0  501    0  0.00000000000E+00 -0.00000000000E+00 -0.27527682179E+04  0.27527682179E+04  0.25500000000E-02 0. -1.
    8880023    1    1    2    0    0 -0.34750119697E+03  0.54210412559E+03 -0.20288256385E+04  0.22281332192E+04  0.65864270000E+03 0.  0.
    8880022    1    1    2    0    0  0.34750119697E+03 -0.54210412559E+03 -0.44887893643E+03  0.79969864166E+03  0.15294330000E+03 0.  0.
<mgrwt>
<rscale>  0 0.84804943E+03</rscale>
<asrwt>0</asrwt>
<pdfrwt beam="1">  1        2 0.42350278E+00 0.92111029E+03</pdfrwt>
<pdfrwt beam="2">  1       -2 0.42317485E-01 0.92111029E+03</pdfrwt>
<totfact> 0.13432000E+01</totfact>
</mgrwt>
</event>
<event>
 4    1  0.2701205E-007  0.6623832E+03  0.7818608E-02  0.1021838E+00
          2   -1    0    0  501    0  0.00000000000E+00  0.00000000000E+00  0.95033584765E+03  0.95033584765E+03  0.25500000000E-02 0. -1.
         -2   -1    0    0    0  501 -0.00000000000E+00 -0.00000000000E+00 -0.93482113461E+03  0.93482113461E+03  0.25500000000E-02 0.  1.
    8880023    1    1    2    0    0  0.11741520276E+02 -0.69307220281E+02  0.82519917502E+03  0.10581612537E+04  0.65864270000E+03 0. -1.
    8880022    1    1    2    0    0 -0.11741520276E+02  0.69307220281E+02 -0.80968446199E+03  0.82699572857E+03  0.15294330000E+03 0.  0.
<mgrwt>
<rscale>  0 0.47029308E+03</rscale>
<asrwt>0</asrwt>
<pdfrwt beam="1">  1        2 0.14620551E+00 0.66238324E+03</pdfrwt>
<pdfrwt beam="2">  1       -2 0.14381864E+00 0.66238324E+03</pdfrwt>
<totfact> 0.93470541E+00</totfact>
</mgrwt>
</event>
<event>
 4    1  0.2701205E-007  0.7285695E+03  0.7818608E-02  0.9894589E-01
          2   -1    0    0  501    0  0.00000000000E+00  0.00000000000E+00  0.17344957308E+04  0.17344957308E+04  0.25500000000E-02 0. -1.
         -2   -1    0    0    0  501 -0.00000000000E+00 -0.00000000000E+00 -0.24171046228E+03  0.24171046229E+03  0.25500000000E-02 0.  1.
    8880023    1    1    2    0    0 -0.14167352062E+03  0.27736614164E+03  0.14549452789E+04  0.16271691165E+04  0.65864270000E+03 0.  0.
    8880022    1    1    2    0    0  0.14167352062E+03 -0.27736614164E+03  0.37839989609E+02  0.34903707654E+03  0.15294330000E+03 0.  0.
<mgrwt>
<rscale>  0 0.60524237E+03</rscale>
<asrwt>0</asrwt>
<pdfrwt beam="1">  1        2 0.26684549E+00 0.72856954E+03</pdfrwt>
<pdfrwt beam="2">  1       -2 0.37186226E-01 0.72856954E+03</pdfrwt>
<totfact> 0.65642874E+01</totfact>
</mgrwt>
</event>
<event>
 4    1  0.2701205E-007  0.1359233E+04  0.7818608E-02  0.9016025E-01
          2   -1    0    0  501    0  0.00000000000E+00  0.00000000000E+00  0.31730753281E+04  0.31730753281E+04  0.25500000000E-02 0. -1.
         -2   -1    0    0    0  501 -0.00000000000E+00 -0.00000000000E+00 -0.54213459686E+03  0.54213459686E+03  0.25500000000E-02 0.  1.
    8880023    1    1    2    0    0 -0.11796377651E+04  0.14885592079E+03  0.98332461911E+03  0.16776295344E+04  0.65864270000E+03 0.  1.
    8880022    1    1    2    0    0  0.11796377651E+04 -0.14885592079E+03  0.16476161122E+04  0.20375803906E+04  0.15294330000E+03 0. -1.
<mgrwt>
<rscale>  0 0.13172131E+04</rscale>
<asrwt>0</asrwt>
<pdfrwt beam="1">  1        2 0.48816543E+00 0.13592327E+04</pdfrwt>
<pdfrwt beam="2">  1       -2 0.83405323E-01 0.13592327E+04</pdfrwt>
<totfact> 0.16590198E+00</totfact>
</mgrwt>
</event>
<event>
 4    1  0.2701205E-007  0.6744809E+03  0.7818608E-02  0.1012635E+00
          2   -1    0    0  501    0  0.00000000000E+00  0.00000000000E+00  0.88058960416E+03  0.88058960417E+03  0.25500000000E-02 0. -1.
         -2   -1    0    0    0  501 -0.00000000000E+00 -0.00000000000E+00 -0.46698734367E+03  0.46698734367E+03  0.25500000000E-02 0.  1.
    8880023    1    1    2    0    0 -0.13104175611E+03 -0.62787573570E+02  0.71289887327E+03  0.98140166650E+03  0.65864270000E+03 0. -1.
    8880022    1    1    2    0    0  0.13104175611E+03  0.62787573570E+02 -0.29929661277E+03  0.36617528134E+03  0.15294330000E+03 0.  0.
<mgrwt>
<rscale>  0 0.50440501E+03</rscale>
<asrwt>0</asrwt>
<pdfrwt beam="1">  1        2 0.13547532E+00 0.67448086E+03</pdfrwt>
<pdfrwt beam="2">  1       -2 0.71844208E-01 0.67448086E+03</pdfrwt>
<totfact> 0.54180651E+01</totfact>
</mgrwt>
</event>
<event>
 4    1  0.2701205E-007  0.7959009E+03  0.7818608E-02  0.9719730E-01
          2   -1    0    0  501    0  0.00000000000E+00  0.00000000000E+00  0.17036310677E+04  0.17036310677E+04  0.25500000000E-02 0. -1.
         -2   -1    0    0    0  501 -0.00000000000E+00 -0.00000000000E+00 -0.49113147455E+03  0.49113147456E+03  0.25500000000E-02 0.  1.
    8880023    1    1    2    0    0 -0.31970370102E+03  0.31215001616E+03  0.14590471126E+04  0.16620098592E+04  0.65864270000E+03 0. -1.
    8880022    1    1    2    0    0  0.31970370102E+03 -0.31215001616E+03 -0.24654751939E+03  0.53275268312E+03  0.15294330000E+03 0.  0.
<mgrwt>
<rscale>  0 0.69854123E+03</rscale>
<asrwt>0</asrwt>
<pdfrwt beam="1">  1        2 0.26209708E+00 0.79590093E+03</pdfrwt>
<pdfrwt beam="2">  1       -2 0.75558691E-01 0.79590093E+03</pdfrwt>
<totfact> 0.15671215E+01</totfact>
</mgrwt>
</event>
<event>
 4    1  0.2701205E-007  0.7137485E+03  0.7818608E-02  0.9944336E-01
          2   -1    0    0  501    0  0.00000000000E+00  0.00000000000E+00  0.10221694491E+04  0.10221694491E+04  0.25500000000E-02 0. -1.
         -2   -1    0    0    0  501 -0.00000000000E+00 -0.00000000000E+00 -0.11004318170E+04  0.11004318170E+04  0.25500000000E-02 0.  1.
    8880023    1    1    2    0    0 -0.26851792060E+03 -0.59370253978E+02  0.86894038797E+03  0.11244973565E+04  0.65864270000E+03 0. -1.
    8880022    1    1    2    0    0  0.26851792060E+03  0.59370253978E+02 -0.94720275583E+03  0.99810390963E+03  0.15294330000E+03 0.  0.
<mgrwt>
<rscale>  0 0.58159862E+03</rscale>
<asrwt>0</asrwt>
<pdfrwt beam="1">  1        2 0.15725684E+00 0.71374849E+03</pdfrwt>
<pdfrwt beam="2">  1       -2 0.16929720E+00 0.71374849E+03</pdfrwt>
<totfact> 0.53905974E+00</totfact>
</mgrwt>
</event>
<event>
 4    1  0.2701205E-007  0.1120528E+04  0.7818608E-02  0.9238538E-01
          2   -1    0    0  501    0  0.00000000000E+00  0.00000000000E+00  0.25064912182E+04  0.25064912182E+04  0.25500000000E-02 0. -1.
         -2   -1    0    0    0  501 -0.00000000000E+00 -0.00000000000E+00 -0.93554835993E+03  0.93554835993E+03  0.25500000000E-02 0.  1.
    8880023    1    1    2    0    0  0.43661809931E+03 -0.79444162741E+03 -0.46111559892E+03  0.12116974316E+04  0.65864270000E+03 0.  0.
    8880022    1    1    2    0    0 -0.43661809931E+03  0.79444162741E+03  0.20320584572E+04  0.22303421465E+04  0.15294330000E+03 0.  0.
<mgrwt>
<rscale>  0 0.10664358E+04</rscale>
<asrwt>0</asrwt>
<pdfrwt beam="1">  1        2 0.38561403E+00 0.11205280E+04</pdfrwt>
<pdfrwt beam="2">  1       -2 0.14393052E+00 0.11205280E+04</pdfrwt>
<totfact> 0.11399420E+00</totfact>
</mgrwt>
</event>
<event>
 4    1  0.2701205E-007  0.6874237E+03  0.7818608E-02  0.1005402E+00
         -2   -1    0    0    0  501 -0.00000000000E+00  0.00000000000E+00  0.22994404053E+04  0.22994404053E+04  0.25500000000E-02 0.  1.
          2   -1    0    0  501    0  0.00000000000E+00 -0.00000000000E+00 -0.13738620356E+04  0.13738620356E+04  0.25500000000E-02 0. -1.
    8880023    1    1    2    0    0 -0.10159963905E+03 -0.16857844029E+03 -0.12804118173E+04  0.14532741673E+04  0.65864270000E+03 0. -1.
    8880022    1    1    2    0    0  0.10159963905E+03  0.16857844029E+03  0.22059901870E+04  0.22200282735E+04  0.15294330000E+03 0.  0.
<mgrwt>
<rscale>  0 0.53343749E+03</rscale>
<asrwt>0</asrwt>
<pdfrwt beam="1">  1        2 0.21136339E+00 0.68742373E+03</pdfrwt>
<pdfrwt beam="2">  1       -2 0.35376006E+00 0.68742373E+03</pdfrwt>
<totfact> 0.23893708E-01</totfact>
</mgrwt>
</event>
<event>
 4    1  0.2701205E-007  0.6802572E+03  0.7818608E-02  0.1009179E+00
         -2   -1    0    0    0  501 -0.00000000000E+00  0.00000000000E+00  0.13775767703E+03  0.13775767706E+03  0.25500000000E-02 0.  1.
          2   -1    0    0  501    0  0.00000000000E+00 -0.00000000000E+00 -0.16375080654E+04  0.16375080654E+04  0.25500000000E-02 0. -1.
    8880023    1    1    2    0    0 -0.15273907598E+03  0.74903078305E+02 -0.13176107898E+04  0.14828513399E+04  0.65864270000E+03 0. -1.
    8880022    1    1    2    0    0  0.15273907598E+03 -0.74903078305E+02 -0.18213959861E+03  0.29241440264E+03  0.15294330000E+03 0.  0.
<mgrwt>
<rscale>  0 0.51802428E+03</rscale>
<asrwt>0</asrwt>
<pdfrwt beam="1">  1        2 0.25192430E+00 0.68025723E+03</pdfrwt>
<pdfrwt beam="2">  1       -2 0.21193490E-01 0.68025723E+03</pdfrwt>
<totfact> 0.20934996E+02</totfact>
</mgrwt>
</event>
<event>
 4    1  0.2701205E-007  0.8107658E+03  0.7818608E-02  0.9687984E-01
         -2   -1    0    0    0  501 -0.00000000000E+00  0.00000000000E+00  0.78704442961E+03  0.78704442961E+03  0.25500000000E-02 0.  1.
          2   -1    0    0  501    0  0.00000000000E+00 -0.00000000000E+00 -0.86759526331E+03  0.86759526332E+03  0.25500000000E-02 0. -1.
    8880023    1    1    2    0    0  0.45377690121E+03 -0.13273090333E+03 -0.54302280413E+03  0.97581501364E+03  0.65864270000E+03 0. -1.
    8880022    1    1    2    0    0 -0.45377690121E+03  0.13273090333E+03  0.46247197043E+03  0.67882467929E+03  0.15294330000E+03 0.  0.
<mgrwt>
<rscale>  0 0.71736746E+03</rscale>
<asrwt>0</asrwt>
<pdfrwt beam="1">  1        2 0.13347619E+00 0.81076580E+03</pdfrwt>
<pdfrwt beam="2">  1       -2 0.12108376E+00 0.81076580E+03</pdfrwt>
<totfact> 0.16170859E+01</totfact>
</mgrwt>
</event>
<event>
 4    1  0.2701205E-007  0.9661459E+03  0.7818608E-02  0.9427255E-01
         -2   -1    0    0    0  501 -0.00000000000E+00  0.00000000000E+00  0.57428215282E+03  0.57428215283E+03  0.25500000000E-02 0.  1.
          2   -1    0    0  501    0  0.00000000000E+00 -0.00000000000E+00 -0.16764522266E+04  0.16764522266E+04  0.25500000000E-02 0. -1.
    8880023    1    1    2    0    0 -0.16579084910E+02 -0.70664896340E+03 -0.11780526347E+04  0.15235635332E+04  0.65864270000E+03 0. -1.
    8880022    1    1    2    0    0  0.16579084910E+02  0.70664896340E+03  0.75882560849E+02  0.72717084622E+03  0.15294330000E+03 0.  0.
<mgrwt>
<rscale>  0 0.89866274E+03</rscale>
<asrwt>0</asrwt>
<pdfrwt beam="1">  1        2 0.25791573E+00 0.96614586E+03</pdfrwt>
<pdfrwt beam="2">  1       -2 0.88351101E-01 0.96614586E+03</pdfrwt>
<totfact> 0.11162314E+01</totfact>
</mgrwt>
</event>
<event>
 4    1  0.2701205E-007  0.1060260E+04  0.7818608E-02  0.9306648E-01
         -2   -1    0    0    0  501 -0.00000000000E+00  0.00000000000E+00  0.10934382409E+04  0.10934382409E+04  0.25500000000E-02 0.  1.
          2   -1    0    0  501    0  0.00000000000E+00 -0.00000000000E+00 -0.24058828928E+04  0.24058828928E+04  0.25500000000E-02 0. -1.
    8880023    1    1    2    0    0  0.63303427830E+03 -0.53815327277E+03 -0.20948284071E+04  0.23478623477E+04  0.65864270000E+03 0.  0.
    8880022    1    1    2    0    0 -0.63303427830E+03  0.53815327277E+03  0.78238375513E+03  0.11514587860E+04  0.15294330000E+03 0.  0.
<mgrwt>
<rscale>  0 0.10017314E+04</rscale>
<asrwt>0</asrwt>
<pdfrwt beam="1">  1        2 0.37013583E+00 0.10602601E+04</pdfrwt>
<pdfrwt beam="2">  1       -2 0.16822127E+00 0.10602601E+04</pdfrwt>
<totfact> 0.86107442E-01</totfact>
</mgrwt>
</event>
<event>
 4    1  0.2701205E-007  0.9387514E+03  0.7818608E-02  0.9466486E-01
         -2   -1    0    0    0  501 -0.00000000000E+00  0.00000000000E+00  0.66962592460E+03  0.66962592461E+03  0.25500000000E-02 0.  1.
          2   -1    0    0  501    0  0.00000000000E+00 -0.00000000000E+00 -0.21344916073E+04  0.21344916073E+04  0.25500000000E-02 0. -1.
    8880023    1    1    2    0    0 -0.63739423298E+03 -0.20291026309E+03 -0.18078097308E+04  0.20370150250E+04  0.65864270000E+03 0.  0.
    8880022    1    1    2    0    0  0.63739423298E+03  0.20291026309E+03  0.34294404802E+03  0.76710250697E+03  0.15294330000E+03 0.  0.
<mgrwt>
<rscale>  0 0.86800377E+03</rscale>
<asrwt>0</asrwt>
<pdfrwt beam="1">  1        2 0.32838332E+00 0.93875140E+03</pdfrwt>
<pdfrwt beam="2">  1       -2 0.10301937E+00 0.93875140E+03</pdfrwt>
<totfact> 0.43687466E+00</totfact>
</mgrwt>
</event>
<event>
 4    1  0.2701205E-007  0.1088690E+04  0.7818608E-02  0.9273754E-01
         -2   -1    0    0    0  501 -0.00000000000E+00  0.00000000000E+00  0.51867109989E+03  0.51867109990E+03  0.25500000000E-02 0.  1.
          2   -1    0    0  501    0  0.00000000000E+00 -0.00000000000E+00 -0.25834306996E+04  0.25834306996E+04  0.25500000000E-02 0. -1.
    8880023    1    1    2    0    0 -0.51686179183E+03 -0.69590913062E+03 -0.19240206586E+04  0.22106789298E+04  0.65864270000E+03 0.  1.
    8880022    1    1    2    0    0  0.51686179183E+03  0.69590913062E+03 -0.14073894111E+03  0.89142286963E+03  0.15294330000E+03 0.  0.
<mgrwt>
<rscale>  0 0.10323543E+04</rscale>
<asrwt>0</asrwt>
<pdfrwt beam="1">  1        2 0.39745087E+00 0.10886900E+04</pdfrwt>
<pdfrwt beam="2">  1       -2 0.79795556E-01 0.10886900E+04</pdfrwt>
<totfact> 0.43282891E+00</totfact>
</mgrwt>
</event>
<event>
 4    1  0.2701205E-007  0.6788738E+03  0.7818608E-02  0.1009968E+00
         -2   -1    0    0    0  501 -0.00000000000E+00  0.00000000000E+00  0.63437285085E+03  0.63437285085E+03  0.25500000000E-02 0.  1.
          2   -1    0    0  501    0  0.00000000000E+00 -0.00000000000E+00 -0.17750038765E+04  0.17750038765E+04  0.25500000000E-02 0. -1.
    8880023    1    1    2    0    0 -0.16428734545E+03 -0.83160876063E+01 -0.16870907931E+04  0.18185557565E+04  0.65864270000E+03 0. -1.
    8880022    1    1    2    0    0  0.16428734545E+03  0.83160876063E+01  0.54645976742E+03  0.59082097086E+03  0.15294330000E+03 0.  0.
<mgrwt>
<rscale>  0 0.51487367E+03</rscale>
<asrwt>0</asrwt>
<pdfrwt beam="1">  1        2 0.27307752E+00 0.67887384E+03</pdfrwt>
<pdfrwt beam="2">  1       -2 0.97595824E-01 0.67887384E+03</pdfrwt>
<totfact> 0.81215458E+00</totfact>
</mgrwt>
</event>
<event>
 4    1  0.2701205E-007  0.7133717E+03  0.7818608E-02  0.9945687E-01
          2   -1    0    0  501    0  0.00000000000E+00  0.00000000000E+00  0.19454146475E+04  0.19454146475E+04  0.25500000000E-02 0. -1.
         -2   -1    0    0    0  501 -0.00000000000E+00 -0.00000000000E+00 -0.66133660500E+03  0.66133660500E+03  0.25500000000E-02 0.  1.
    8880023    1    1    2    0    0  0.36329658546E+02  0.27160480401E+03  0.18371829361E+04  0.19708222549E+04  0.65864270000E+03 0. -1.
    8880022    1    1    2    0    0 -0.36329658546E+02 -0.27160480401E+03 -0.55310489357E+03  0.63592899758E+03  0.15294330000E+03 0.  0.
<mgrwt>
<rscale>  0 0.58097279E+03</rscale>
<asrwt>0</asrwt>
<pdfrwt beam="1">  1        2 0.29929456E+00 0.71337173E+03</pdfrwt>
<pdfrwt beam="2">  1       -2 0.10174409E+00 0.71337173E+03</pdfrwt>
<totfact> 0.59114853E+00</totfact>
</mgrwt>
</event>
<event>
 4    1  0.2701205E-007  0.7851916E+03  0.7818608E-02  0.9743780E-01
         -2   -1    0    0    0  501 -0.00000000000E+00  0.00000000000E+00  0.36161195917E+04  0.36161195917E+04  0.25500000000E-02 0.  1.
          2   -1    0    0  501    0  0.00000000000E+00 -0.00000000000E+00 -0.49557540099E+03  0.49557540100E+03  0.25500000000E-02 0. -1.
    8880023    1    1    2    0    0 -0.43548014798E+02 -0.42522848352E+03 -0.15878823453E+03  0.80108651373E+03  0.65864270000E+03 0. -1.
    8880022    1    1    2    0    0  0.43548014798E+02  0.42522848352E+03  0.32793324252E+04  0.33106084790E+04  0.15294330000E+03 0.  0.
<mgrwt>
<rscale>  0 0.68468913E+03</rscale>
<asrwt>0</asrwt>
<pdfrwt beam="1">  1        2 0.76242370E-01 0.78519163E+03</pdfrwt>
<pdfrwt beam="2">  1       -2 0.55632609E+00 0.78519163E+03</pdfrwt>
<totfact> 0.50735221E-02</totfact>
</mgrwt>
</event>
<event>
 4    1  0.2701205E-007  0.1148220E+04  0.7818608E-02  0.9209177E-01
          2   -1    0    0  501    0  0.00000000000E+00  0.00000000000E+00  0.14281875005E+04  0.14281875005E+04  0.25500000000E-02 0. -1.
         -2   -1    0    0    0  501 -0.00000000000E+00 -0.00000000000E+00 -0.81165365476E+03  0.81165365476E+03  0.25500000000E-02 0.  1.
    8880023    1    1    2    0    0  0.23214249916E+03  0.91143226677E+03  0.91440767091E+02  0.11518552587E+04  0.65864270000E+03 0.  0.
    8880022    1    1    2    0    0 -0.23214249916E+03 -0.91143226677E+03  0.52509307860E+03  0.10879858965E+04  0.15294330000E+03 0.  0.
<mgrwt>
<rscale>  0 0.10959204E+04</rscale>
<asrwt>0</asrwt>
<pdfrwt beam="1">  1        2 0.21972115E+00 0.11482200E+04</pdfrwt>
<pdfrwt beam="2">  1       -2 0.12486979E+00 0.11482200E+04</pdfrwt>
<totfact> 0.65627085E+00</totfact>
</mgrwt>
</event>
<event>
 4    1  0.2701205E-007  0.8681761E+03  0.7818608E-02  0.9579182E-01
         -2   -1    0    0    0  501 -0.00000000000E+00  0.00000000000E+00  0.52273297056E+03  0.52273297056E+03  0.25500000000E-02 0.  1.
          2   -1    0    0  501    0  0.00000000000E+00 -0.00000000000E+00 -0.20416590595E+04  0.20416590595E+04  0.25500000000E-02 0. -1.
    8880023    1    1    2    0    0  0.42208050223E+03 -0.37652027360E+03 -0.17348400037E+04  0.19399483270E+04  0.65864270000E+03 0.  0.
    8880022    1    1    2    0    0 -0.42208050223E+03  0.37652027360E+03  0.21591391468E+03  0.62444370312E+03  0.15294330000E+03 0.  0.
<mgrwt>
<rscale>  0 0.78689510E+03</rscale>
<asrwt>0</asrwt>
<pdfrwt beam="1">  1        2 0.31410139E+00 0.86817606E+03</pdfrwt>
<pdfrwt beam="2">  1       -2 0.80420458E-01 0.86817606E+03</pdfrwt>
<totfact> 0.88171474E+00</totfact>
</mgrwt>
</event>
<event>
 4    1  0.2701205E-007  0.7294007E+03  0.7818608E-02  0.9891973E-01
          2   -1    0    0  501    0  0.00000000000E+00  0.00000000000E+00  0.92071359294E+03  0.92071359294E+03  0.25500000000E-02 0. -1.
         -2   -1    0    0    0  501 -0.00000000000E+00 -0.00000000000E+00 -0.76646467280E+03  0.76646467280E+03  0.25500000000E-02 0.  1.
    8880023    1    1    2    0    0  0.10973183485E+02 -0.31320077545E+03  0.71850928095E+03  0.10238559125E+04  0.65864270000E+03 0. -1.
    8880022    1    1    2    0    0 -0.10973183485E+02  0.31320077545E+03 -0.56426036082E+03  0.66332235324E+03  0.15294330000E+03 0.  0.
<mgrwt>
<rscale>  0 0.60651891E+03</rscale>
<asrwt>0</asrwt>
<pdfrwt beam="1">  1        2 0.14164824E+00 0.72940067E+03</pdfrwt>
<pdfrwt beam="2">  1       -2 0.11791764E+00 0.72940067E+03</pdfrwt>
<totfact> 0.16031739E+01</totfact>
</mgrwt>
</event>
<event>
 4    1  0.2701205E-007  0.2215380E+04  0.7818608E-02  0.8522046E-01
         -2   -1    0    0    0  501 -0.00000000000E+00  0.00000000000E+00  0.14606418418E+04  0.14606418418E+04  0.25500000000E-02 0.  1.
          2   -1    0    0  501    0  0.00000000000E+00 -0.00000000000E+00 -0.43471574772E+04  0.43471574772E+04  0.25500000000E-02 0. -1.
    8880023    1    1    2    0    0  0.13461625033E+04 -0.16315472783E+04 -0.29462477530E+04  0.36862292434E+04  0.65864270000E+03 0.  0.
    8880022    1    1    2    0    0 -0.13461625033E+04  0.16315472783E+04  0.59732117539E+02  0.21215700756E+04  0.15294330000E+03 0.  0.
<mgrwt>
<rscale>  0 0.21913287E+04</rscale>
<asrwt>0</asrwt>
<pdfrwt beam="1">  1        2 0.66879345E+00 0.22153804E+04</pdfrwt>
<pdfrwt beam="2">  1       -2 0.22471413E+00 0.22153804E+04</pdfrwt>
<totfact> 0.13848782E-02</totfact>
</mgrwt>
</event>
<event>
 4    1  0.2701205E-007  0.7306829E+03  0.7818608E-02  0.9887969E-01
         -2   -1    0    0    0  501 -0.00000000000E+00  0.00000000000E+00  0.51136662719E+03  0.51136662720E+03  0.25500000000E-02 0.  1.
          2   -1    0    0  501    0  0.00000000000E+00 -0.00000000000E+00 -0.81764533597E+03  0.81764533597E+03  0.25500000000E-02 0. -1.
    8880023    1    1    2    0    0  0.53488686634E+02 -0.31181117952E+03 -0.53862080081E+03  0.90774986896E+03  0.65864270000E+03 0. -1.
    8880022    1    1    2    0    0 -0.53488686634E+02  0.31181117952E+03  0.23234209203E+03  0.42126209421E+03  0.15294330000E+03 0.  0.
<mgrwt>
<rscale>  0 0.60847928E+03</rscale>
<asrwt>0</asrwt>
<pdfrwt beam="1">  1        2 0.12579159E+00 0.73068287E+03</pdfrwt>
<pdfrwt beam="2">  1       -2 0.78671789E-01 0.73068287E+03</pdfrwt>
<totfact> 0.48757213E+01</totfact>
</mgrwt>
</event>
<event>
 4    1  0.2701205E-007  0.8486906E+03  0.7818608E-02  0.9614006E-01
          2   -1    0    0  501    0  0.00000000000E+00  0.00000000000E+00  0.15281566465E+04  0.15281566465E+04  0.25500000000E-02 0. -1.
         -2   -1    0    0    0  501 -0.00000000000E+00 -0.00000000000E+00 -0.59029903858E+03  0.59029903859E+03  0.25500000000E-02 0.  1.
    8880023    1    1    2    0    0 -0.49591229304E+03 -0.20133687424E+03  0.12264374481E+04  0.14914504885E+04  0.65864270000E+03 0. -1.
    8880022    1    1    2    0    0  0.49591229304E+03  0.20133687424E+03 -0.28857984021E+03  0.62700519655E+03  0.15294330000E+03 0.  0.
<mgrwt>
<rscale>  0 0.76376059E+03</rscale>
<asrwt>0</asrwt>
<pdfrwt beam="1">  1        2 0.23510102E+00 0.84869061E+03</pdfrwt>
<pdfrwt beam="2">  1       -2 0.90815238E-01 0.84869061E+03</pdfrwt>
<totfact> 0.12825001E+01</totfact>
</mgrwt>
</event>
<event>
 4    1  0.2701205E-007  0.8646424E+03  0.7818608E-02  0.9585358E-01
          2   -1    0    0  501    0  0.00000000000E+00  0.00000000000E+00  0.33637474060E+04  0.33637474060E+04  0.25500000000E-02 0. -1.
         -2   -1    0    0    0  501 -0.00000000000E+00 -0.00000000000E+00 -0.54677254254E+03  0.54677254255E+03  0.25500000000E-02 0.  1.
    8880023    1    1    2    0    0  0.31319523088E+03 -0.46444051937E+03  0.31325093268E+04  0.32496493869E+04  0.65864270000E+03 0.  0.
    8880022    1    1    2    0    0 -0.31319523088E+03  0.46444051937E+03 -0.31553446338E+03  0.66087056166E+03  0.15294330000E+03 0.  0.
<mgrwt>
<rscale>  0 0.78272894E+03</rscale>
<asrwt>0</asrwt>
<pdfrwt beam="1">  1        2 0.51749961E+00 0.86464239E+03</pdfrwt>
<pdfrwt beam="2">  1       -2 0.84118851E-01 0.86464239E+03</pdfrwt>
<totfact> 0.13151346E+00</totfact>
</mgrwt>
</event>
<event>
 4    1  0.2701205E-007  0.9441012E+03  0.7818608E-02  0.9458652E-01
         -2   -1    0    0    0  501 -0.00000000000E+00  0.00000000000E+00  0.23749268594E+03  0.23749268595E+03  0.25500000000E-02 0.  1.
          2   -1    0    0  501    0  0.00000000000E+00 -0.00000000000E+00 -0.29059677118E+04  0.29059677118E+04  0.25500000000E-02 0. -1.
    8880023    1    1    2    0    0 -0.66125629697E+03 -0.14232733273E+03 -0.12698821337E+04  0.15823804219E+04  0.65864270000E+03 0. -1.
    8880022    1    1    2    0    0  0.66125629697E+03  0.14232733273E+03 -0.13985928922E+04  0.15610799758E+04  0.15294330000E+03 0.  0.
<mgrwt>
<rscale>  0 0.87402076E+03</rscale>
<asrwt>0</asrwt>
<pdfrwt beam="1">  1        2 0.44707193E+00 0.94410125E+03</pdfrwt>
<pdfrwt beam="2">  1       -2 0.36537338E-01 0.94410125E+03</pdfrwt>
<totfact> 0.14443469E+01</totfact>
</mgrwt>
</event>
<event>
 4    1  0.3878928E-007  0.7049454E+03  0.7818608E-02  0.9977273E-01
         -2   -1    0    0    0  501 -0.00000000000E+00  0.00000000000E+00  0.16329522990E+04  0.16329522990E+04  0.25500000000E-02 0.  1.
          2   -1    0    0  501    0  0.00000000000E+00 -0.00000000000E+00 -0.23480604200E+04  0.23480604200E+04  0.25500000000E-02 0. -1.
    8880023    1    1    2    0    0  0.47327371758E+01 -0.25122771758E+03 -0.22811458740E+04  0.23875875837E+04  0.65864270000E+03 0. -1.
    8880022    1    1    2    0    0 -0.47327371758E+01  0.25122771758E+03  0.15660377531E+04  0.15934251353E+04  0.15294330000E+03 0.  0.
<mgrwt>
<rscale>  0 0.56658108E+03</rscale>
<asrwt>0</asrwt>
<pdfrwt beam="1">  1        2 0.36124006E+00 0.70494537E+03</pdfrwt>
<pdfrwt beam="2">  1       -2 0.25122343E+00 0.70494537E+03</pdfrwt>
<totfact> 0.28939842E-01</totfact>
</mgrwt>
</event>
<event>
 4    1  0.2701205E-007  0.1248635E+04  0.7818608E-02  0.9111237E-01
         -2   -1    0    0    0  501 -0.00000000000E+00  0.00000000000E+00  0.75104676020E+03  0.75104676020E+03  0.25500000000E-02 0.  1.
          2   -1    0    0  501    0  0.00000000000E+00 -0.00000000000E+00 -0.18819443518E+04  0.18819443518E+04  0.25500000000E-02 0. -1.
    8880023    1    1    2    0    0  0.98002072343E+03  0.40600209923E+03 -0.89311938389E+03  0.15351712488E+04  0.65864270000E+03 0. -1.
    8880022    1    1    2    0    0 -0.98002072343E+03 -0.40600209923E+03 -0.23777820766E+03  0.10978198632E+04  0.15294330000E+03 0.  0.
<mgrwt>
<rscale>  0 0.12018519E+04</rscale>
<asrwt>0</asrwt>
<pdfrwt beam="1">  1        2 0.28952990E+00 0.12486347E+04</pdfrwt>
<pdfrwt beam="2">  1       -2 0.11554566E+00 0.12486347E+04</pdfrwt>
<totfact> 0.44006850E+00</totfact>
</mgrwt>
</event>
<event>
 4    1  0.2701205E-007  0.8556211E+03  0.7818608E-02  0.9601401E-01
         -2   -1    0    0    0  501 -0.00000000000E+00  0.00000000000E+00  0.74603289733E+03  0.74603289734E+03  0.25500000000E-02 0.  1.
          2   -1    0    0  501    0  0.00000000000E+00 -0.00000000000E+00 -0.10639332726E+04  0.10639332726E+04  0.25500000000E-02 0. -1.
    8880023    1    1    2    0    0  0.14369620412E+03 -0.52690483561E+03 -0.71711348058E+03  0.11163956535E+04  0.65864270000E+03 0. -1.
    8880022    1    1    2    0    0 -0.14369620412E+03  0.52690483561E+03  0.39921310528E+03  0.69357051647E+03  0.15294330000E+03 0.  0.
<mgrwt>
<rscale>  0 0.77203550E+03</rscale>
<asrwt>0</asrwt>
<pdfrwt beam="1">  1        2 0.16368204E+00 0.85562113E+03</pdfrwt>
<pdfrwt beam="2">  1       -2 0.11477429E+00 0.85562113E+03</pdfrwt>
<totfact> 0.13676904E+01</totfact>
</mgrwt>
</event>
<event>
 4    1  0.2701205E-007  0.8711602E+03  0.7818608E-02  0.9574012E-01
         -2   -1    0    0    0  501 -0.00000000000E+00  0.00000000000E+00  0.26256687532E+03  0.26256687533E+03  0.25500000000E-02 0.  1.
          2   -1    0    0  501    0  0.00000000000E+00 -0.00000000000E+00 -0.33149962210E+04  0.33149962210E+04  0.25500000000E-02 0. -1.
    8880023    1    1    2    0    0 -0.43525949697E+03  0.36831927872E+03 -0.28055290863E+04  0.29376714556E+04  0.65864270000E+03 0.  1.
    8880022    1    1    2    0    0  0.43525949697E+03 -0.36831927872E+03 -0.24690025940E+03  0.63989164074E+03  0.15294330000E+03 0.  0.
<mgrwt>
<rscale>  0 0.79040398E+03</rscale>
<asrwt>0</asrwt>
<pdfrwt beam="1">  1        2 0.50999939E+00 0.87116022E+03</pdfrwt>
<pdfrwt beam="2">  1       -2 0.40394906E-01 0.87116022E+03</pdfrwt>
<totfact> 0.66438730E+00</totfact>
</mgrwt>
</event>
<event>
 4    1  0.2701205E-007  0.6597944E+03  0.7818608E-02  0.1024368E+00
         -2   -1    0    0    0  501 -0.00000000000E+00  0.00000000000E+00  0.10343456604E+03  0.10343456607E+03  0.25500000000E-02 0.  1.
          2   -1    0    0  501    0  0.00000000000E+00 -0.00000000000E+00 -0.22016296142E+04  0.22016296142E+04  0.25500000000E-02 0. -1.
    8880023    1    1    2    0    0 -0.16796273749E+01 -0.38930476852E+02 -0.20274452941E+04  0.21321029595E+04  0.65864270000E+03 0. -1.
    8880022    1    1    2    0    0  0.16796273749E+01  0.38930476852E+02 -0.70749754092E+02  0.17296122078E+03  0.15294330000E+03 0.  0.
<mgrwt>
<rscale>  0 0.46142731E+03</rscale>
<asrwt>0</asrwt>
<pdfrwt beam="1">  1        2 0.33871221E+00 0.65979437E+03</pdfrwt>
<pdfrwt beam="2">  1       -2 0.15913012E-01 0.65979437E+03</pdfrwt>
<totfact> 0.16965412E+02</totfact>
</mgrwt>
</event>
<event>
 4    1  0.2701205E-007  0.7540554E+03  0.7818608E-02  0.9820748E-01
          2   -1    0    0  501    0  0.00000000000E+00  0.00000000000E+00  0.27609681310E+04  0.27609681310E+04  0.25500000000E-02 0. -1.
         -2   -1    0    0    0  501 -0.00000000000E+00 -0.00000000000E+00 -0.13404252241E+03  0.13404252243E+03  0.25500000000E-02 0.  1.
    8880023    1    1    2    0    0 -0.18863858597E+03 -0.31496787269E+03  0.21236705474E+04  0.22535696300E+04  0.65864270000E+03 0. -1.
    8880022    1    1    2    0    0  0.18863858597E+03  0.31496787269E+03  0.50325506115E+03  0.64144102342E+03  0.15294330000E+03 0.  0.
<mgrwt>
<rscale>  0 0.64260883E+03</rscale>
<asrwt>0</asrwt>
<pdfrwt beam="1">  1        2 0.42476432E+00 0.75405536E+03</pdfrwt>
<pdfrwt beam="2">  1       -2 0.20621927E-01 0.75405536E+03</pdfrwt>
<totfact> 0.51697514E+01</totfact>
</mgrwt>
</event>
<event>
 4    1  0.2701205E-007  0.8916636E+03  0.7818608E-02  0.9539549E-01
         -2   -1    0    0    0  501 -0.00000000000E+00  0.00000000000E+00  0.20408690405E+04  0.20408690405E+04  0.25500000000E-02 0.  1.
          2   -1    0    0  501    0  0.00000000000E+00 -0.00000000000E+00 -0.74694977861E+03  0.74694977861E+03  0.25500000000E-02 0. -1.
    8880023    1    1    2    0    0 -0.48856231462E+03  0.35008665627E+03 -0.40492979330E+03  0.97930186660E+03  0.65864270000E+03 0. -1.
    8880022    1    1    2    0    0  0.48856231462E+03 -0.35008665627E+03  0.16988490552E+04  0.18085169525E+04  0.15294330000E+03 0.  0.
<mgrwt>
<rscale>  0 0.81429799E+03</rscale>
<asrwt>0</asrwt>
<pdfrwt beam="1">  1        2 0.11491535E+00 0.89166362E+03</pdfrwt>
<pdfrwt beam="2">  1       -2 0.31397985E+00 0.89166362E+03</pdfrwt>
<totfact> 0.10056133E+00</totfact>
</mgrwt>
</event>
<event>
 4    1  0.2701205E-007  0.7227979E+03  0.7818608E-02  0.9913230E-01
         -2   -1    0    0    0  501 -0.00000000000E+00  0.00000000000E+00  0.25746104275E+03  0.25746104276E+03  0.25500000000E-02 0.  1.
          2   -1    0    0  501    0  0.00000000000E+00 -0.00000000000E+00 -0.26081246561E+04  0.26081246561E+04  0.25500000000E-02 0. -1.
    8880023    1    1    2    0    0  0.22887924667E+03 -0.19037038932E+03 -0.24184051253E+04  0.25241077930E+04  0.65864270000E+03 0.  0.
    8880022    1    1    2    0    0 -0.22887924667E+03  0.19037038932E+03  0.67741511950E+02  0.34147790579E+03  0.15294330000E+03 0.  0.
<mgrwt>
<rscale>  0 0.59624364E+03</rscale>
<asrwt>0</asrwt>
<pdfrwt beam="1">  1        2 0.40124993E+00 0.72279790E+03</pdfrwt>
<pdfrwt beam="2">  1       -2 0.39609393E-01 0.72279790E+03</pdfrwt>
<totfact> 0.19113387E+01</totfact>
</mgrwt>
</event>
<event>
 4    1  0.2701205E-007  0.8344997E+03  0.7818608E-02  0.9640640E-01
          2   -1    0    0  501    0  0.00000000000E+00  0.00000000000E+00  0.15869897054E+04  0.15869897054E+04  0.25500000000E-02 0. -1.
         -2   -1    0    0    0  501 -0.00000000000E+00 -0.00000000000E+00 -0.76686432560E+03  0.76686432561E+03  0.25500000000E-02 0.  1.
    8880023    1    1    2    0    0 -0.55653227266E+01 -0.51239489754E+03  0.13589415461E+04  0.15947137160E+04  0.65864270000E+03 0. -1.
    8880022    1    1    2    0    0  0.55653227266E+01  0.51239489754E+03 -0.53881616631E+03  0.75914031505E+03  0.15294330000E+03 0.  0.
<mgrwt>
<rscale>  0 0.74663769E+03</rscale>
<asrwt>0</asrwt>
<pdfrwt beam="1">  1        2 0.24415226E+00 0.83449968E+03</pdfrwt>
<pdfrwt beam="2">  1       -2 0.11797913E+00 0.83449968E+03</pdfrwt>
<totfact> 0.63733493E+00</totfact>
</mgrwt>
</event>
<event>
 4    1  0.2701205E-007  0.8988038E+03  0.7818608E-02  0.9527955E-01
          2   -1    0    0  501    0  0.00000000000E+00  0.00000000000E+00  0.41976520784E+03  0.41976520785E+03  0.25500000000E-02 0. -1.
         -2   -1    0    0    0  501 -0.00000000000E+00 -0.00000000000E+00 -0.28078254099E+04  0.28078254099E+04  0.25500000000E-02 0.  1.
    8880023    1    1    2    0    0 -0.47002927518E+03  0.39129336071E+03 -0.16111123595E+03  0.91312926263E+03  0.65864270000E+03 0. -1.
    8880022    1    1    2    0    0  0.47002927518E+03 -0.39129336071E+03 -0.22269489661E+04  0.23144613551E+04  0.15294330000E+03 0.  0.
<mgrwt>
<rscale>  0 0.82253843E+03</rscale>
<asrwt>0</asrwt>
<pdfrwt beam="1">  1        2 0.64579265E-01 0.89880377E+03</pdfrwt>
<pdfrwt beam="2">  1       -2 0.43197313E+00 0.89880377E+03</pdfrwt>
<totfact> 0.35715491E-01</totfact>
</mgrwt>
</event>
<event>
 4    1  0.2701205E-007  0.7002443E+03  0.7818608E-02  0.9996189E-01
         -2   -1    0    0    0  501 -0.00000000000E+00  0.00000000000E+00  0.40968807150E+03  0.40968807151E+03  0.25500000000E-02 0.  1.
          2   -1    0    0  501    0  0.00000000000E+00 -0.00000000000E+00 -0.10983094090E+04  0.10983094090E+04  0.25500000000E-02 0. -1.
    8880023    1    1    2    0    0  0.23623600911E+03 -0.26916070035E+02 -0.91049091655E+03  0.11486234554E+04  0.65864270000E+03 0. -1.
    8880022    1    1    2    0    0 -0.23623600911E+03  0.26916070035E+02  0.22186957905E+03  0.35937402515E+03  0.15294330000E+03 0.  0.
<mgrwt>
<rscale>  0 0.55817653E+03</rscale>
<asrwt>0</asrwt>
<pdfrwt beam="1">  1        2 0.16897068E+00 0.70024434E+03</pdfrwt>
<pdfrwt beam="2">  1       -2 0.63028935E-01 0.70024434E+03</pdfrwt>
<totfact> 0.52011157E+01</totfact>
</mgrwt>
</event>
<event>
 4    1  0.2701205E-007  0.7707455E+03  0.7818608E-02  0.9778043E-01
          2   -1    0    0  501    0  0.00000000000E+00  0.00000000000E+00  0.24003408061E+04  0.24003408061E+04  0.25500000000E-02 0. -1.
         -2   -1    0    0    0  501 -0.00000000000E+00 -0.00000000000E+00 -0.32421749206E+03  0.32421749207E+03  0.25500000000E-02 0.  1.
    8880023    1    1    2    0    0  0.34794611897E+03  0.19791888769E+03  0.21551379466E+04  0.22888137021E+04  0.65864270000E+03 0. -1.
    8880022    1    1    2    0    0 -0.34794611897E+03 -0.19791888769E+03 -0.79014632584E+02  0.43574459605E+03  0.15294330000E+03 0.  0.
<mgrwt>
<rscale>  0 0.66554313E+03</rscale>
<asrwt>0</asrwt>
<pdfrwt beam="1">  1        2 0.36928320E+00 0.77074548E+03</pdfrwt>
<pdfrwt beam="2">  1       -2 0.49879614E-01 0.77074548E+03</pdfrwt>
<totfact> 0.15732166E+01</totfact>
</mgrwt>
</event>
<event>
 4    1  0.2701205E-007  0.7123654E+03  0.7818608E-02  0.9949320E-01
         -2   -1    0    0    0  501 -0.00000000000E+00  0.00000000000E+00  0.55324401132E+03  0.55324401133E+03  0.25500000000E-02 0.  1.
          2   -1    0    0  501    0  0.00000000000E+00 -0.00000000000E+00 -0.10089220169E+04  0.10089220169E+04  0.25500000000E-02 0. -1.
    8880023    1    1    2    0    0 -0.26956848985E+03 -0.31416817957E+02 -0.81775387509E+03  0.10845209973E+04  0.65864270000E+03 0. -1.
    8880022    1    1    2    0    0  0.26956848985E+03  0.31416817957E+02  0.36207586955E+03  0.47764503085E+03  0.15294330000E+03 0.  0.
<mgrwt>
<rscale>  0 0.57929423E+03</rscale>
<asrwt>0</asrwt>
<pdfrwt beam="1">  1        2 0.15521877E+00 0.71236535E+03</pdfrwt>
<pdfrwt beam="2">  1       -2 0.85114463E-01 0.71236535E+03</pdfrwt>
<totfact> 0.30458180E+01</totfact>
</mgrwt>
</event>
<event>
 4    1  0.2701205E-007  0.9205521E+03  0.7818608E-02  0.9493813E-01
         -2   -1    0    0    0  501 -0.00000000000E+00  0.00000000000E+00  0.14430502785E+04  0.14430502785E+04  0.25500000000E-02 0.  1.
          2   -1    0    0  501    0  0.00000000000E+00 -0.00000000000E+00 -0.97082799131E+03  0.97082799132E+03  0.25500000000E-02 0. -1.
    8880023    1    1    2    0    0 -0.38288606593E+03 -0.51672448049E+03 -0.63920674265E+03  0.11207146802E+04  0.65864270000E+03 0. -1.
    8880022    1    1    2    0    0  0.38288606593E+03  0.51672448049E+03  0.11114290298E+04  0.12931635896E+04  0.15294330000E+03 0.  0.
<mgrwt>
<rscale>  0 0.84741501E+03</rscale>
<asrwt>0</asrwt>
<pdfrwt beam="1">  1        2 0.14935815E+00 0.92055208E+03</pdfrwt>
<pdfrwt beam="2">  1       -2 0.22200773E+00 0.92055208E+03</pdfrwt>
<totfact> 0.25340105E+00</totfact>
</mgrwt>
</event>
<event>
 4    1  0.2701205E-007  0.8740718E+03  0.7818608E-02  0.9569007E-01
          2   -1    0    0  501    0  0.00000000000E+00  0.00000000000E+00  0.10495465649E+04  0.10495465649E+04  0.25500000000E-02 0. -1.
         -2   -1    0    0    0  501 -0.00000000000E+00 -0.00000000000E+00 -0.10738117240E+04  0.10738117240E+04  0.25500000000E-02 0.  1.
    8880023    1    1    2    0    0  0.45392774243E+03 -0.35233628285E+03  0.74678910245E+03  0.11496501300E+04  0.65864270000E+03 0. -1.
    8880022    1    1    2    0    0 -0.45392774243E+03  0.35233628285E+03 -0.77105426151E+03  0.97370815893E+03  0.15294330000E+03 0.  0.
<mgrwt>
<rscale>  0 0.79381944E+03</rscale>
<asrwt>0</asrwt>
<pdfrwt beam="1">  1        2 0.16146870E+00 0.87407177E+03</pdfrwt>
<pdfrwt beam="2">  1       -2 0.16520180E+00 0.87407177E+03</pdfrwt>
<totfact> 0.54298737E+00</totfact>
</mgrwt>
</event>
<event>
 4    1  0.2701205E-007  0.9994930E+03  0.7818608E-02  0.9382221E-01
          2   -1    0    0  501    0  0.00000000000E+00  0.00000000000E+00  0.37749791153E+04  0.37749791153E+04  0.25500000000E-02 0. -1.
         -2   -1    0    0    0  501 -0.00000000000E+00 -0.00000000000E+00 -0.13406333193E+04  0.13406333193E+04  0.25500000000E-02 0.  1.
    8880023    1    1    2    0    0  0.75088153631E+03  0.36782771712E+02  0.35910872870E+04  0.37275855675E+04  0.65864270000E+03 0. -1.
    8880022    1    1    2    0    0 -0.75088153631E+03 -0.36782771712E+02 -0.11567414910E+04  0.13880268671E+04  0.15294330000E+03 0.  0.
<mgrwt>
<rscale>  0 0.93553356E+03</rscale>
<asrwt>0</asrwt>
<pdfrwt beam="1">  1        2 0.58076601E+00 0.99949300E+03</pdfrwt>
<pdfrwt beam="2">  1       -2 0.20625128E+00 0.99949300E+03</pdfrwt>
<totfact> 0.64680788E-02</totfact>
</mgrwt>
</event>
<event>
 4    1  0.2701205E-007  0.8190821E+03  0.7818608E-02  0.9670961E-01
         -2   -1    0    0    0  501 -0.00000000000E+00  0.00000000000E+00  0.16281738382E+04  0.16281738382E+04  0.25500000000E-02 0.  1.
          2   -1    0    0  501    0  0.00000000000E+00 -0.00000000000E+00 -0.20176389830E+04  0.20176389830E+04  0.25500000000E-02 0. -1.
    8880023    1    1    2    0    0 -0.11936071274E+03  0.47205749250E+03 -0.18905389351E+04  0.20603477686E+04  0.65864270000E+03 0.  0.
    8880022    1    1    2    0    0  0.11936071274E+03 -0.47205749250E+03  0.15010737904E+04  0.15854650526E+04  0.15294330000E+03 0.  1.
<mgrwt>
<rscale>  0 0.72772404E+03</rscale>
<asrwt>0</asrwt>
<pdfrwt beam="1">  1        2 0.31040600E+00 0.81908209E+03</pdfrwt>
<pdfrwt beam="2">  1       -2 0.25048828E+00 0.81908209E+03</pdfrwt>
<totfact> 0.43290645E-01</totfact>
</mgrwt>
</event>
<event>
 4    1  0.2701205E-007  0.1025171E+04  0.7818608E-02  0.9349343E-01
          2   -1    0    0  501    0  0.00000000000E+00  0.00000000000E+00  0.26574884806E+04  0.26574884806E+04  0.25500000000E-02 0. -1.
         -2   -1    0    0    0  501 -0.00000000000E+00 -0.00000000000E+00 -0.41970216920E+03  0.41970216921E+03  0.25500000000E-02 0.  1.
    8880023    1    1    2    0    0 -0.46316310196E+03  0.63454280191E+03  0.19913811922E+04  0.22397709449E+04  0.65864270000E+03 0.  1.
    8880022    1    1    2    0    0  0.46316310196E+03 -0.63454280191E+03  0.24640511920E+03  0.83741970496E+03  0.15294330000E+03 0.  0.
<mgrwt>
<rscale>  0 0.96364435E+03</rscale>
<asrwt>0</asrwt>
<pdfrwt beam="1">  1        2 0.40884439E+00 0.10251706E+04</pdfrwt>
<pdfrwt beam="2">  1       -2 0.64569564E-01 0.10251706E+04</pdfrwt>
<totfact> 0.63033900E+00</totfact>
</mgrwt>
</event>
<event>
 4    1  0.2701205E-007  0.7147798E+03  0.7818608E-02  0.9940662E-01
          2   -1    0    0  501    0  0.00000000000E+00  0.00000000000E+00  0.93150369924E+03  0.93150369925E+03  0.25500000000E-02 0. -1.
         -2   -1    0    0    0  501 -0.00000000000E+00 -0.00000000000E+00 -0.38358033251E+03  0.38358033252E+03  0.25500000000E-02 0.  1.
    8880023    1    1    2    0    0  0.23927255930E+03  0.14088499028E+03  0.66584058318E+03  0.97685916415E+03  0.65864270000E+03 0.  0.
    8880022    1    1    2    0    0 -0.23927255930E+03 -0.14088499028E+03 -0.11791721645E+03  0.33822486761E+03  0.15294330000E+03 0.  0.
<mgrwt>
<rscale>  0 0.58330462E+03</rscale>
<asrwt>0</asrwt>
<pdfrwt beam="1">  1        2 0.14330826E+00 0.71477979E+03</pdfrwt>
<pdfrwt beam="2">  1       -2 0.59012360E-01 0.71477979E+03</pdfrwt>
<totfact> 0.76164528E+01</totfact>
</mgrwt>
</event>
<event>
 4    1  0.2701205E-007  0.1815005E+04  0.7818608E-02  0.8714281E-01
         -2   -1    0    0    0  501 -0.00000000000E+00  0.00000000000E+00  0.13075944445E+04  0.13075944445E+04  0.25500000000E-02 0.  1.
          2   -1    0    0  501    0  0.00000000000E+00 -0.00000000000E+00 -0.29880631058E+04  0.29880631058E+04  0.25500000000E-02 0. -1.
    8880023    1    1    2    0    0 -0.15725828589E+04 -0.62242791467E+03 -0.18467549861E+04  0.25893527265E+04  0.65864270000E+03 0. -1.
    8880022    1    1    2    0    0  0.15725828589E+04  0.62242791467E+03  0.16628632492E+03  0.17063048238E+04  0.15294330000E+03 0.  0.
<mgrwt>
<rscale>  0 0.17850669E+04</rscale>
<asrwt>0</asrwt>
<pdfrwt beam="1">  1        2 0.45970201E+00 0.18150051E+04</pdfrwt>
<pdfrwt beam="2">  1       -2 0.20116838E+00 0.18150051E+04</pdfrwt>
<totfact> 0.21057470E-01</totfact>
</mgrwt>
</event>
<event>
 4    1  0.2701205E-007  0.7504093E+03  0.7818608E-02  0.9830601E-01
         -2   -1    0    0    0  501 -0.00000000000E+00  0.00000000000E+00  0.48220155497E+03  0.48220155498E+03  0.25500000000E-02 0.  1.
          2   -1    0    0  501    0  0.00000000000E+00 -0.00000000000E+00 -0.20700342976E+04  0.20700342976E+04  0.25500000000E-02 0. -1.
    8880023    1    1    2    0    0  0.27974440709E+03  0.22593562207E+03 -0.19059509702E+04  0.20483562058E+04  0.65864270000E+03 0. -1.
    8880022    1    1    2    0    0 -0.27974440709E+03 -0.22593562207E+03  0.31811822765E+03  0.50387964674E+03  0.15294330000E+03 0.  0.
<mgrwt>
<rscale>  0 0.63745849E+03</rscale>
<asrwt>0</asrwt>
<pdfrwt beam="1">  1        2 0.31846681E+00 0.75040925E+03</pdfrwt>
<pdfrwt beam="2">  1       -2 0.74184856E-01 0.75040925E+03</pdfrwt>
<totfact> 0.10360216E+01</totfact>
</mgrwt>
</event>
<event>
 4    1  0.3387997E-007  0.8666418E+03  0.7818608E-02  0.9581856E-01
         -2   -1    0    0    0  501 -0.00000000000E+00  0.00000000000E+00  0.22090428455E+04  0.22090428455E+04  0.25500000000E-02 0.  1.
          2   -1    0    0  501    0  0.00000000000E+00 -0.00000000000E+00 -0.19466647187E+04  0.19466647187E+04  0.25500000000E-02 0. -1.
    8880023    1    1    2    0    0 -0.35373921948E+03 -0.43832225472E+03 -0.18078164072E+04  0.20048112636E+04  0.65864270000E+03 0. -1.
    8880022    1    1    2    0    0  0.35373921948E+03  0.43832225472E+03  0.20701945340E+04  0.21508963006E+04  0.15294330000E+03 0.  0.
<mgrwt>
<rscale>  0 0.78508775E+03</rscale>
<asrwt>0</asrwt>
<pdfrwt beam="1">  1        2 0.29948688E+00 0.86664182E+03</pdfrwt>
<pdfrwt beam="2">  1       -2 0.33985274E+00 0.86664182E+03</pdfrwt>
<totfact> 0.13466939E-01</totfact>
</mgrwt>
</event>
<event>
 4    1  0.2701205E-007  0.6701342E+03  0.7818608E-02  0.1015567E+00
         -2   -1    0    0    0  501 -0.00000000000E+00  0.00000000000E+00  0.98106455707E+03  0.98106455708E+03  0.25500000000E-02 0.  1.
          2   -1    0    0  501    0  0.00000000000E+00 -0.00000000000E+00 -0.50645061521E+03  0.50645061522E+03  0.25500000000E-02 0. -1.
    8880023    1    1    2    0    0  0.12356759700E+03 -0.80549495080E+00 -0.26618599888E+03  0.72106504014E+03  0.65864270000E+03 0. -1.
    8880022    1    1    2    0    0 -0.12356759700E+03  0.80549495080E+00  0.74079994074E+03  0.76645013215E+03  0.15294330000E+03 0.  0.
<mgrwt>
<rscale>  0 0.49320880E+03</rscale>
<asrwt>0</asrwt>
<pdfrwt beam="1">  1        2 0.77915480E-01 0.67013417E+03</pdfrwt>
<pdfrwt beam="2">  1       -2 0.15093301E+00 0.67013417E+03</pdfrwt>
<totfact> 0.18263514E+01</totfact>
</mgrwt>
</event>
<event>
 4    1  0.2701205E-007  0.1241251E+04  0.7818608E-02  0.9118030E-01
         -2   -1    0    0    0  501 -0.00000000000E+00  0.00000000000E+00  0.92285859740E+03  0.92285859740E+03  0.25500000000E-02 0.  1.
          2   -1    0    0  501    0  0.00000000000E+00 -0.00000000000E+00 -0.22725103734E+04  0.22725103734E+04  0.25500000000E-02 0. -1.
    8880023    1    1    2    0    0  0.10542869652E+03  0.10467949227E+04 -0.16738737646E+04  0.20838806123E+04  0.65864270000E+03 0.  0.
    8880022    1    1    2    0    0 -0.10542869652E+03 -0.10467949227E+04  0.32422198857E+03  0.11114883585E+04  0.15294330000E+03 0.  0.
<mgrwt>
<rscale>  0 0.11941074E+04</rscale>
<asrwt>0</asrwt>
<pdfrwt beam="1">  1        2 0.34961698E+00 0.12412514E+04</pdfrwt>
<pdfrwt beam="2">  1       -2 0.14197825E+00 0.12412514E+04</pdfrwt>
<totfact> 0.15805230E+00</totfact>
</mgrwt>
</event>
<event>
 4    1  0.2701205E-007  0.9159667E+03  0.7818608E-02  0.9500871E-01
         -2   -1    0    0    0  501 -0.00000000000E+00  0.00000000000E+00  0.25770272961E+03  0.25770272962E+03  0.25500000000E-02 0.  1.
          2   -1    0    0  501    0  0.00000000000E+00 -0.00000000000E+00 -0.25174778540E+04  0.25174778540E+04  0.25500000000E-02 0. -1.
    8880023    1    1    2    0    0 -0.20805087894E+03 -0.60158092666E+03 -0.16128934285E+04  0.18548369733E+04  0.65864270000E+03 0.  0.
    8880022    1    1    2    0    0  0.20805087894E+03  0.60158092666E+03 -0.64688169586E+03  0.92034361029E+03  0.15294330000E+03 0.  0.
<mgrwt>
<rscale>  0 0.84219624E+03</rscale>
<asrwt>0</asrwt>
<pdfrwt beam="1">  1        2 0.38730427E+00 0.91596669E+03</pdfrwt>
<pdfrwt beam="2">  1       -2 0.39646576E-01 0.91596669E+03</pdfrwt>
<totfact> 0.20924329E+01</totfact>
</mgrwt>
</event>
<event>
 4    1  0.2701205E-007  0.1594845E+04  0.7818608E-02  0.8845412E-01
         -2   -1    0    0    0  501 -0.00000000000E+00  0.00000000000E+00  0.13031744786E+04  0.13031744786E+04  0.25500000000E-02 0.  1.
          2   -1    0    0  501    0  0.00000000000E+00 -0.00000000000E+00 -0.26746750848E+04  0.26746750848E+04  0.25500000000E-02 0. -1.
    8880023    1    1    2    0    0 -0.62886716755E+03  0.13092920569E+04 -0.18485022284E+04  0.24414115383E+04  0.65864270000E+03 0.  0.
    8880022    1    1    2    0    0  0.62886716755E+03 -0.13092920569E+04  0.47700162208E+03  0.15364380251E+04  0.15294330000E+03 0.  0.
<mgrwt>
<rscale>  0 0.15601469E+04</rscale>
<asrwt>0</asrwt>
<pdfrwt beam="1">  1        2 0.41148848E+00 0.15948448E+04</pdfrwt>
<pdfrwt beam="2">  1       -2 0.20048838E+00 0.15948448E+04</pdfrwt>
<totfact> 0.33771079E-01</totfact>
</mgrwt>
</event>
<event>
 4    1  0.2701205E-007  0.8235918E+03  0.7818608E-02  0.9661932E-01
          2   -1    0    0  501    0  0.00000000000E+00  0.00000000000E+00  0.25348279877E+04  0.25348279877E+04  0.25500000000E-02 0. -1.
         -2   -1    0    0    0  501 -0.00000000000E+00 -0.00000000000E+00 -0.24517091746E+03  0.24517091747E+03  0.25500000000E-02 0.  1.
    8880023    1    1    2    0    0  0.38269830452E+03 -0.31310575618E+03  0.20507401977E+04  0.22099408978E+04  0.65864270000E+03 0. -1.
    8880022    1    1    2    0    0 -0.38269830452E+03  0.31310575618E+03  0.23891687255E+03  0.57005800743E+03  0.15294330000E+03 0.  0.
<mgrwt>
<rscale>  0 0.73329297E+03</rscale>
<asrwt>0</asrwt>
<pdfrwt beam="1">  1        2 0.38997355E+00 0.82359178E+03</pdfrwt>
<pdfrwt beam="2">  1       -2 0.37718602E-01 0.82359178E+03</pdfrwt>
<totfact> 0.22803068E+01</totfact>
</mgrwt>
</event>
<event>
 4    1  0.2701205E-007  0.7801776E+03  0.7818608E-02  0.9755420E-01
          2   -1    0    0  501    0  0.00000000000E+00  0.00000000000E+00  0.27104670942E+04  0.27104670942E+04  0.25500000000E-02 0. -1.
         -2   -1    0    0    0  501 -0.00000000000E+00 -0.00000000000E+00 -0.20049285267E+03  0.20049285269E+03  0.25500000000E-02 0.  1.
    8880023    1    1    2    0    0  0.89846589203E+02 -0.40840479559E+03  0.22800549943E+04  0.24098398017E+04  0.65864270000E+03 0.  0.
    8880022    1    1    2    0    0 -0.89846589203E+02  0.40840479559E+03  0.22991924727E+03  0.50112014521E+03  0.15294330000E+03 0.  0.
<mgrwt>
<rscale>  0 0.67810836E+03</rscale>
<asrwt>0</asrwt>
<pdfrwt beam="1">  1        2 0.41699492E+00 0.78017760E+03</pdfrwt>
<pdfrwt beam="2">  1       -2 0.30845056E-01 0.78017760E+03</pdfrwt>
<totfact> 0.26616768E+01</totfact>
</mgrwt>
</event>
<event>
 4    1  0.2701205E-007  0.1133789E+04  0.7818608E-02  0.9224337E-01
          2   -1    0    0  501    0  0.00000000000E+00  0.00000000000E+00  0.24180727408E+04  0.24180727408E+04  0.25500000000E-02 0. -1.
         -2   -1    0    0    0  501 -0.00000000000E+00 -0.00000000000E+00 -0.78458625877E+03  0.78458625877E+03  0.25500000000E-02 0.  1.
    8880023    1    1    2    0    0  0.95900339780E+02 -0.91786208674E+03  0.19152651451E+04  0.22256950527E+04  0.65864270000E+03 0.  0.
    8880022    1    1    2    0    0 -0.95900339780E+02  0.91786208674E+03 -0.28177866307E+03  0.97696394684E+03  0.15294330000E+03 0.  0.
<mgrwt>
<rscale>  0 0.10805725E+04</rscale>
<asrwt>0</asrwt>
<pdfrwt beam="1">  1        2 0.37201119E+00 0.11337892E+04</pdfrwt>
<pdfrwt beam="2">  1       -2 0.12070558E+00 0.11337892E+04</pdfrwt>
<totfact> 0.20062997E+00</totfact>
</mgrwt>
</event>
<event>
 4    1  0.2701205E-007  0.1004554E+04  0.7818608E-02  0.9375624E-01
          2   -1    0    0  501    0  0.00000000000E+00  0.00000000000E+00  0.22934847136E+04  0.22934847136E+04  0.25500000000E-02 0. -1.
         -2   -1    0    0    0  501 -0.00000000000E+00 -0.00000000000E+00 -0.73025078741E+03  0.73025078742E+03  0.25500000000E-02 0.  1.
    8880023    1    1    2    0    0 -0.47637561133E+03  0.59024110112E+03  0.19236481461E+04  0.21701499204E+04  0.65864270000E+03 0.  0.
    8880022    1    1    2    0    0  0.47637561133E+03 -0.59024110112E+03 -0.36041421995E+03  0.85358558064E+03  0.15294330000E+03 0.  0.
<mgrwt>
<rscale>  0 0.94109179E+03</rscale>
<asrwt>0</asrwt>
<pdfrwt beam="1">  1        2 0.35284380E+00 0.10045539E+04</pdfrwt>
<pdfrwt beam="2">  1       -2 0.11234628E+00 0.10045539E+04</pdfrwt>
<totfact> 0.28635889E+00</totfact>
</mgrwt>
</event>
<event>
 4    1  0.2701205E-007  0.6651666E+03  0.7818608E-02  0.1019394E+00
         -2   -1    0    0    0  501 -0.00000000000E+00  0.00000000000E+00  0.35812969425E+03  0.35812969426E+03  0.25500000000E-02 0.  1.
          2   -1    0    0  501    0  0.00000000000E+00 -0.00000000000E+00 -0.71206665940E+03  0.71206665940E+03  0.25500000000E-02 0. -1.
    8880023    1    1    2    0    0  0.28959542773E+02 -0.88304482620E+02 -0.50568129317E+03  0.83555976046E+03  0.65864270000E+03 0. -1.
    8880022    1    1    2    0    0 -0.28959542773E+02  0.88304482620E+02  0.15174432803E+03  0.23463659321E+03  0.15294330000E+03 0.  0.
<mgrwt>
<rscale>  0 0.47905901E+03</rscale>
<asrwt>0</asrwt>
<pdfrwt beam="1">  1        2 0.10954872E+00 0.66516655E+03</pdfrwt>
<pdfrwt beam="2">  1       -2 0.55096876E-01 0.66516655E+03</pdfrwt>
<totfact> 0.12624237E+02</totfact>
</mgrwt>
</event>
<event>
 4    1  0.2701205E-007  0.1052636E+04  0.7818608E-02  0.9315719E-01
         -2   -1    0    0    0  501 -0.00000000000E+00  0.00000000000E+00  0.63480536959E+03  0.63480536959E+03  0.25500000000E-02 0.  1.
          2   -1    0    0  501    0  0.00000000000E+00 -0.00000000000E+00 -0.17217920483E+04  0.17217920483E+04  0.25500000000E-02 0. -1.
    8880023    1    1    2    0    0 -0.82049641320E+03 -0.31904375718E+02 -0.10982970876E+04  0.15212820094E+04  0.65864270000E+03 0.  0.
    8880022    1    1    2    0    0  0.82049641320E+03  0.31904375718E+02  0.11310408898E+02  0.83531540847E+03  0.15294330000E+03 0.  0.
<mgrwt>
<rscale>  0 0.99348501E+03</rscale>
<asrwt>0</asrwt>
<pdfrwt beam="1">  1        2 0.26489108E+00 0.10526360E+04</pdfrwt>
<pdfrwt beam="2">  1       -2 0.97662365E-01 0.10526360E+04</pdfrwt>
<totfact> 0.82630830E+00</totfact>
</mgrwt>
</event>
<event>
 4    1  0.2701205E-007  0.1057402E+04  0.7818608E-02  0.9310035E-01
          2   -1    0    0  501    0  0.00000000000E+00  0.00000000000E+00  0.24151821490E+04  0.24151821490E+04  0.25500000000E-02 0. -1.
         -2   -1    0    0    0  501 -0.00000000000E+00 -0.00000000000E+00 -0.13144896321E+04  0.13144896321E+04  0.25500000000E-02 0.  1.
    8880023    1    1    2    0    0 -0.74961556661E+03 -0.34980858984E+03  0.21433351286E+04  0.23899759888E+04  0.65864270000E+03 0.  0.
    8880022    1    1    2    0    0  0.74961556661E+03  0.34980858984E+03 -0.10426426117E+04  0.13396957923E+04  0.15294330000E+03 0.  0.
<mgrwt>
<rscale>  0 0.99864220E+03</rscale>
<asrwt>0</asrwt>
<pdfrwt beam="1">  1        2 0.37156648E+00 0.10574024E+04</pdfrwt>
<pdfrwt beam="2">  1       -2 0.20222918E+00 0.10574024E+04</pdfrwt>
<totfact> 0.49896058E-01</totfact>
</mgrwt>
</event>
<event>
 4    1  0.2701205E-007  0.9422507E+03  0.7818608E-02  0.9461352E-01
          2   -1    0    0  501    0  0.00000000000E+00  0.00000000000E+00  0.18671838243E+04  0.18671838243E+04  0.25500000000E-02 0. -1.
         -2   -1    0    0    0  501 -0.00000000000E+00 -0.00000000000E+00 -0.48401374608E+03  0.48401374608E+03  0.25500000000E-02 0.  1.
    8880023    1    1    2    0    0 -0.37760335442E+03  0.55806983358E+03  0.13667190715E+04  0.16600474268E+04  0.65864270000E+03 0. -1.
    8880022    1    1    2    0    0  0.37760335442E+03 -0.55806983358E+03  0.16451006736E+02  0.69115014364E+03  0.15294330000E+03 0.  0.
<mgrwt>
<rscale>  0 0.87194120E+03</rscale>
<asrwt>0</asrwt>
<pdfrwt beam="1">  1        2 0.28725905E+00 0.94225073E+03</pdfrwt>
<pdfrwt beam="2">  1       -2 0.74463653E-01 0.94225073E+03</pdfrwt>
<totfact> 0.12940987E+01</totfact>
</mgrwt>
</event>
<event>
 4    1  0.2701205E-007  0.7784169E+03  0.7818608E-02  0.9759569E-01
          2   -1    0    0  501    0  0.00000000000E+00  0.00000000000E+00  0.82820825294E+03  0.82820825295E+03  0.25500000000E-02 0. -1.
         -2   -1    0    0    0  501 -0.00000000000E+00 -0.00000000000E+00 -0.74479514436E+03  0.74479514436E+03  0.25500000000E-02 0.  1.
    8880023    1    1    2    0    0 -0.98946931789E+02 -0.40290461948E+03  0.53222071464E+03  0.94296962998E+03  0.65864270000E+03 0. -1.
    8880022    1    1    2    0    0  0.98946931789E+02  0.40290461948E+03 -0.44880760605E+03  0.63003376733E+03  0.15294330000E+03 0.  0.
<mgrwt>
<rscale>  0 0.67578180E+03</rscale>
<asrwt>0</asrwt>
<pdfrwt beam="1">  1        2 0.12741665E+00 0.77841688E+03</pdfrwt>
<pdfrwt beam="2">  1       -2 0.11458387E+00 0.77841688E+03</pdfrwt>
<totfact> 0.19795654E+01</totfact>
</mgrwt>
</event>
<event>
 4    1  0.2701205E-007  0.1171555E+04  0.7818608E-02  0.9185281E-01
         -2   -1    0    0    0  501 -0.00000000000E+00  0.00000000000E+00  0.20964094367E+04  0.20964094367E+04  0.25500000000E-02 0.  1.
          2   -1    0    0  501    0  0.00000000000E+00 -0.00000000000E+00 -0.13645395593E+04  0.13645395593E+04  0.25500000000E-02 0. -1.
    8880023    1    1    2    0    0 -0.90598019977E+03 -0.34340971175E+03 -0.95376367624E+03  0.15106970937E+04  0.65864270000E+03 0.  0.
    8880022    1    1    2    0    0  0.90598019977E+03  0.34340971175E+03  0.16856335536E+04  0.19502519024E+04  0.15294330000E+03 0.  0.
<mgrwt>
<rscale>  0 0.11206648E+04</rscale>
<asrwt>0</asrwt>
<pdfrwt beam="1">  1        2 0.20992916E+00 0.11715548E+04</pdfrwt>
<pdfrwt beam="2">  1       -2 0.32252453E+00 0.11715548E+04</pdfrwt>
<totfact> 0.34396270E-01</totfact>
</mgrwt>
</event>
<event>
 4    1  0.2701205E-007  0.1299763E+04  0.7818608E-02  0.9065765E-01
          2   -1    0    0  501    0  0.00000000000E+00  0.00000000000E+00  0.44627990530E+04  0.44627990530E+04  0.25500000000E-02 0. -1.
         -2   -1    0    0    0  501 -0.00000000000E+00 -0.00000000000E+00 -0.11291680722E+04  0.11291680722E+04  0.25500000000E-02 0.  1.
    8880023    1    1    2    0    0  0.73816597932E+03 -0.84302120241E+03  0.40498652077E+04  0.42533271880E+04  0.65864270000E+03 0.  0.
    8880022    1    1    2    0    0 -0.73816597932E+03  0.84302120241E+03 -0.71623422694E+03  0.13386399372E+04  0.15294330000E+03 0.  0.
<mgrwt>
<rscale>  0 0.12553230E+04</rscale>
<asrwt>0</asrwt>
<pdfrwt beam="1">  1        2 0.68658448E+00 0.12997630E+04</pdfrwt>
<pdfrwt beam="2">  1       -2 0.17371816E+00 0.12997630E+04</pdfrwt>
<totfact> 0.26871888E-02</totfact>
</mgrwt>
</event>
<event>
 4    1  0.4253898E-007  0.1183539E+04  0.7818608E-02  0.9173292E-01
          2   -1    0    0  501    0  0.00000000000E+00  0.00000000000E+00  0.25047323173E+04  0.25047323173E+04  0.25500000000E-02 0. -1.
         -2   -1    0    0    0  501 -0.00000000000E+00 -0.00000000000E+00 -0.20032657852E+04  0.20032657852E+04  0.25500000000E-02 0.  1.
    8880023    1    1    2    0    0 -0.44966254832E+03 -0.87450483736E+03  0.22236258641E+04  0.25189833877E+04  0.65864270000E+03 0.  0.
    8880022    1    1    2    0    0  0.44966254832E+03  0.87450483736E+03 -0.17221593320E+04  0.19890147148E+04  0.15294330000E+03 0.  0.
<mgrwt>
<rscale>  0 0.11333406E+04</rscale>
<asrwt>0</asrwt>
<pdfrwt beam="1">  1        2 0.38534344E+00 0.11835393E+04</pdfrwt>
<pdfrwt beam="2">  1       -2 0.30819473E+00 0.11835393E+04</pdfrwt>
<totfact> 0.96458339E-02</totfact>
</mgrwt>
</event>
<event>
 4    1  0.2701205E-007  0.7290930E+03  0.7818608E-02  0.9892939E-01
          2   -1    0    0  501    0  0.00000000000E+00  0.00000000000E+00  0.22685026520E+04  0.22685026520E+04  0.25500000000E-02 0. -1.
         -2   -1    0    0    0  501 -0.00000000000E+00 -0.00000000000E+00 -0.57249016369E+03  0.57249016370E+03  0.25500000000E-02 0.  1.
    8880023    1    1    2    0    0  0.21892150788E+03 -0.22324828727E+03  0.21492328204E+04  0.22695326274E+04  0.65864270000E+03 0. -1.
    8880022    1    1    2    0    0 -0.21892150788E+03  0.22324828727E+03 -0.45322033208E+03  0.57146018829E+03  0.15294330000E+03 0.  0.
<mgrwt>
<rscale>  0 0.60604692E+03</rscale>
<asrwt>0</asrwt>
<pdfrwt beam="1">  1        2 0.34900041E+00 0.72909302E+03</pdfrwt>
<pdfrwt beam="2">  1       -2 0.88075410E-01 0.72909302E+03</pdfrwt>
<totfact> 0.54926960E+00</totfact>
</mgrwt>
</event>
<event>
 4    1  0.2701205E-007  0.6748833E+03  0.7818608E-02  0.1012380E+00
          2   -1    0    0  501    0  0.00000000000E+00  0.00000000000E+00  0.65331321270E+03  0.65331321270E+03  0.25500000000E-02 0. -1.
         -2   -1    0    0    0  501 -0.00000000000E+00 -0.00000000000E+00 -0.45161563926E+03  0.45161563926E+03  0.25500000000E-02 0.  1.
    8880023    1    1    2    0    0  0.14014884726E+03  0.44894290675E+02  0.42443961824E+03  0.79725553778E+03  0.65864270000E+03 0. -1.
    8880022    1    1    2    0    0 -0.14014884726E+03 -0.44894290675E+02 -0.22274204480E+03  0.30767331418E+03  0.15294330000E+03 0.  0.
<mgrwt>
<rscale>  0 0.50539618E+03</rscale>
<asrwt>0</asrwt>
<pdfrwt beam="1">  1        2 0.10050972E+00 0.67488325E+03</pdfrwt>
<pdfrwt beam="2">  1       -2 0.69479330E-01 0.67488325E+03</pdfrwt>
<totfact> 0.85856182E+01</totfact>
</mgrwt>
</event>
<event>
 4    1  0.2701205E-007  0.1219927E+04  0.7818608E-02  0.9137991E-01
         -2   -1    0    0    0  501 -0.00000000000E+00  0.00000000000E+00  0.16320051823E+04  0.16320051823E+04  0.25500000000E-02 0.  1.
          2   -1    0    0  501    0  0.00000000000E+00 -0.00000000000E+00 -0.12070690144E+04  0.12070690144E+04  0.25500000000E-02 0. -1.
    8880023    1    1    2    0    0 -0.72883625761E+03 -0.72333193304E+03 -0.61797529411E+03  0.13675214975E+04  0.65864270000E+03 0. -1.
    8880022    1    1    2    0    0  0.72883625761E+03  0.72333193304E+03  0.10429114620E+04  0.14715526992E+04  0.15294330000E+03 0.  0.
<mgrwt>
<rscale>  0 0.11717036E+04</rscale>
<asrwt>0</asrwt>
<pdfrwt beam="1">  1        2 0.18570293E+00 0.12199269E+04</pdfrwt>
<pdfrwt beam="2">  1       -2 0.25107772E+00 0.12199269E+04</pdfrwt>
<totfact> 0.11521375E+00</totfact>
</mgrwt>
</event>
<event>
 4    1  0.2701205E-007  0.7984216E+03  0.7818608E-02  0.9714219E-01
          2   -1    0    0  501    0  0.00000000000E+00  0.00000000000E+00  0.30547575769E+04  0.30547575769E+04  0.25500000000E-02 0. -1.
         -2   -1    0    0    0  501 -0.00000000000E+00 -0.00000000000E+00 -0.81396152943E+03  0.81396152943E+03  0.25500000000E-02 0.  1.
    8880023    1    1    2    0    0  0.26803398526E+02  0.45049793409E+03  0.29266372710E+04  0.30335923808E+04  0.65864270000E+03 0. -1.
    8880022    1    1    2    0    0 -0.26803398526E+02 -0.45049793409E+03 -0.68584122351E+03  0.83512672551E+03  0.15294330000E+03 0.  0.
<mgrwt>
<rscale>  0 0.70176453E+03</rscale>
<asrwt>0</asrwt>
<pdfrwt beam="1">  1        2 0.46996270E+00 0.79842158E+03</pdfrwt>
<pdfrwt beam="2">  1       -2 0.12522485E+00 0.79842158E+03</pdfrwt>
<totfact> 0.81296498E-01</totfact>
</mgrwt>
</event>
<event>
 4    1  0.2701205E-007  0.9186627E+03  0.7818608E-02  0.9496713E-01
         -2   -1    0    0    0  501 -0.00000000000E+00  0.00000000000E+00  0.57297332643E+03  0.57297332644E+03  0.25500000000E-02 0.  1.
          2   -1    0    0  501    0  0.00000000000E+00 -0.00000000000E+00 -0.13495063103E+04  0.13495063103E+04  0.25500000000E-02 0. -1.
    8880023    1    1    2    0    0 -0.21244685528E+03 -0.60415005869E+03 -0.86049107403E+03  0.12587239787E+04  0.65864270000E+03 0.  0.
    8880022    1    1    2    0    0  0.21244685528E+03  0.60415005869E+03  0.83958090141E+02  0.66375565809E+03  0.15294330000E+03 0.  0.
<mgrwt>
<rscale>  0 0.84526626E+03</rscale>
<asrwt>0</asrwt>
<pdfrwt beam="1">  1        2 0.20761635E+00 0.91866271E+03</pdfrwt>
<pdfrwt beam="2">  1       -2 0.88149743E-01 0.91866271E+03</pdfrwt>
<totfact> 0.17206859E+01</totfact>
</mgrwt>
</event>
<event>
 4    1  0.2701205E-007  0.1257419E+04  0.7818608E-02  0.9103232E-01
          2   -1    0    0  501    0  0.00000000000E+00  0.00000000000E+00  0.32079563445E+04  0.32079563445E+04  0.25500000000E-02 0. -1.
         -2   -1    0    0    0  501 -0.00000000000E+00 -0.00000000000E+00 -0.10367881703E+04  0.10367881703E+04  0.25500000000E-02 0.  1.
    8880023    1    1    2    0    0 -0.91582862347E+03 -0.55547340997E+03  0.27455227810E+04  0.30197679255E+04  0.65864270000E+03 0.  0.
    8880022    1    1    2    0    0  0.91582862347E+03  0.55547340997E+03 -0.57435460686E+03  0.12249765892E+04  0.15294330000E+03 0.  0.
<mgrwt>
<rscale>  0 0.12110583E+04</rscale>
<asrwt>0</asrwt>
<pdfrwt beam="1">  1        2 0.49353174E+00 0.12574192E+04</pdfrwt>
<pdfrwt beam="2">  1       -2 0.15950587E+00 0.12574192E+04</pdfrwt>
<totfact> 0.31879272E-01</totfact>
</mgrwt>
</event>
<event>
 4    1  0.2701205E-007  0.8416011E+03  0.7818608E-02  0.9627169E-01
          2   -1    0    0  501    0  0.00000000000E+00  0.00000000000E+00  0.27460692000E+04  0.27460692000E+04  0.25500000000E-02 0. -1.
         -2   -1    0    0    0  501 -0.00000000000E+00 -0.00000000000E+00 -0.40155655246E+03  0.40155655247E+03  0.25500000000E-02 0.  1.
    8880023    1    1    2    0    0  0.34476251633E+03  0.39448826147E+03  0.24510797199E+04  0.25915408893E+04  0.65864270000E+03 0. -1.
    8880022    1    1    2    0    0 -0.34476251633E+03 -0.39448826147E+03 -0.10656707241E+03  0.55608486317E+03  0.15294330000E+03 0.  0.
<mgrwt>
<rscale>  0 0.75523787E+03</rscale>
<asrwt>0</asrwt>
<pdfrwt beam="1">  1        2 0.42247218E+00 0.84160109E+03</pdfrwt>
<pdfrwt beam="2">  1       -2 0.61777932E-01 0.84160109E+03</pdfrwt>
<totfact> 0.63128657E+00</totfact>
</mgrwt>
</event>
<event>
 4    1  0.2701205E-007  0.7173541E+03  0.7818608E-02  0.9931642E-01
         -2   -1    0    0    0  501 -0.00000000000E+00  0.00000000000E+00  0.63984494554E+03  0.63984494555E+03  0.25500000000E-02 0.  1.
          2   -1    0    0  501    0  0.00000000000E+00 -0.00000000000E+00 -0.16510809925E+04  0.16510809925E+04  0.25500000000E-02 0. -1.
    8880023    1    1    2    0    0  0.26660542349E+03  0.98530641198E+02 -0.15243670922E+04  0.16847231159E+04  0.65864270000E+03 0. -1.
    8880022    1    1    2    0    0 -0.26660542349E+03 -0.98530641198E+02  0.51313104521E+03  0.60620282221E+03  0.15294330000E+03 0.  0.
<mgrwt>
<rscale>  0 0.58751967E+03</rscale>
<asrwt>0</asrwt>
<pdfrwt beam="1">  1        2 0.25401246E+00 0.71735413E+03</pdfrwt>
<pdfrwt beam="2">  1       -2 0.98437685E-01 0.71735413E+03</pdfrwt>
<totfact> 0.92439710E+00</totfact>
</mgrwt>
</event>
<event>
 4    1  0.2701205E-007  0.1219262E+04  0.7818608E-02  0.9138622E-01
         -2   -1    0    0    0  501 -0.00000000000E+00  0.00000000000E+00  0.76245935092E+03  0.76245935092E+03  0.25500000000E-02 0.  1.
          2   -1    0    0  501    0  0.00000000000E+00 -0.00000000000E+00 -0.17015893284E+04  0.17015893284E+04  0.25500000000E-02 0. -1.
    8880023    1    1    2    0    0  0.69839713754E+03 -0.75168601219E+03 -0.33872942329E+03  0.12654399437E+04  0.65864270000E+03 0. -1.
    8880022    1    1    2    0    0 -0.69839713754E+03  0.75168601219E+03 -0.60040055419E+03  0.11986087356E+04  0.15294330000E+03 0.  0.
<mgrwt>
<rscale>  0 0.11710046E+04</rscale>
<asrwt>0</asrwt>
<pdfrwt beam="1">  1        2 0.26178297E+00 0.12192623E+04</pdfrwt>
<pdfrwt beam="2">  1       -2 0.11730144E+00 0.12192623E+04</pdfrwt>
<totfact> 0.53529113E+00</totfact>
</mgrwt>
</event>
<event>
 4    1  0.2701205E-007  0.6620042E+03  0.7818608E-02  0.1022191E+00
         -2   -1    0    0    0  501 -0.00000000000E+00  0.00000000000E+00  0.10919342847E+04  0.10919342847E+04  0.25500000000E-02 0.  1.
          2   -1    0    0  501    0  0.00000000000E+00 -0.00000000000E+00 -0.70009983183E+03  0.70009983184E+03  0.25500000000E-02 0. -1.
    8880023    1    1    2    0    0  0.35830713423E+02  0.56174118536E+02 -0.53446952968E+03  0.85082739497E+03  0.65864270000E+03 0. -1.
    8880022    1    1    2    0    0 -0.35830713423E+02 -0.56174118536E+02  0.92630398259E+03  0.94120672160E+03  0.15294330000E+03 0.  0.
<mgrwt>
<rscale>  0 0.46904198E+03</rscale>
<asrwt>0</asrwt>
<pdfrwt beam="1">  1        2 0.10770767E+00 0.66200421E+03</pdfrwt>
<pdfrwt beam="2">  1       -2 0.16798989E+00 0.66200421E+03</pdfrwt>
<totfact> 0.92739994E+00</totfact>
</mgrwt>
</event>
<event>
 4    1  0.2701205E-007  0.1174427E+04  0.7818608E-02  0.9182391E-01
          2   -1    0    0  501    0  0.00000000000E+00  0.00000000000E+00  0.34749438602E+04  0.34749438602E+04  0.25500000000E-02 0. -1.
         -2   -1    0    0    0  501 -0.00000000000E+00 -0.00000000000E+00 -0.58227012594E+03  0.58227012595E+03  0.25500000000E-02 0.  1.
    8880023    1    1    2    0    0 -0.36855205504E+03 -0.89979896765E+03  0.28379833610E+04  0.30713887027E+04  0.65864270000E+03 0.  0.
    8880022    1    1    2    0    0  0.36855205504E+03  0.89979896765E+03  0.54690373208E+02  0.98582528340E+03  0.15294330000E+03 0.  0.
<mgrwt>
<rscale>  0 0.11237047E+04</rscale>
<asrwt>0</asrwt>
<pdfrwt beam="1">  1        2 0.53460674E+00 0.11744271E+04</pdfrwt>
<pdfrwt beam="2">  1       -2 0.89580021E-01 0.11744271E+04</pdfrwt>
<totfact> 0.90889860E-01</totfact>
</mgrwt>
</event>
<event>
 4    1  0.2701205E-007  0.1256310E+04  0.7818608E-02  0.9104239E-01
         -2   -1    0    0    0  501 -0.00000000000E+00  0.00000000000E+00  0.11210723727E+04  0.11210723727E+04  0.25500000000E-02 0.  1.
          2   -1    0    0  501    0  0.00000000000E+00 -0.00000000000E+00 -0.19028142443E+04  0.19028142443E+04  0.25500000000E-02 0. -1.
    8880023    1    1    2    0    0 -0.16729551262E+03 -0.10566531131E+04 -0.13151075098E+04  0.18187417515E+04  0.65864270000E+03 0.  0.
    8880022    1    1    2    0    0  0.16729551262E+03  0.10566531131E+04  0.53336563817E+03  0.12051448655E+04  0.15294330000E+03 0.  0.
<mgrwt>
<rscale>  0 0.12098959E+04</rscale>
<asrwt>0</asrwt>
<pdfrwt beam="1">  1        2 0.29274065E+00 0.12563096E+04</pdfrwt>
<pdfrwt beam="2">  1       -2 0.17247267E+00 0.12563096E+04</pdfrwt>
<totfact> 0.14950586E+00</totfact>
</mgrwt>
</event>
<event>
 4    1  0.2701205E-007  0.8872223E+03  0.7818608E-02  0.9546863E-01
         -2   -1    0    0    0  501 -0.00000000000E+00  0.00000000000E+00  0.23254542887E+04  0.23254542887E+04  0.25500000000E-02 0.  1.
          2   -1    0    0  501    0  0.00000000000E+00 -0.00000000000E+00 -0.41061884666E+03  0.41061884667E+03  0.25500000000E-02 0. -1.
    8880023    1    1    2    0    0  0.48259535045E+03  0.34706629720E+03  0.19281520304E+03  0.90793237398E+03  0.65864270000E+03 0. -1.
    8880022    1    1    2    0    0 -0.48259535045E+03 -0.34706629720E+03  0.17220202390E+04  0.18281407614E+04  0.15294330000E+03 0.  0.
<mgrwt>
<rscale>  0 0.80915232E+03</rscale>
<asrwt>0</asrwt>
<pdfrwt beam="1">  1        2 0.63172132E-01 0.88722235E+03</pdfrwt>
<pdfrwt beam="2">  1       -2 0.35776219E+00 0.88722235E+03</pdfrwt>
<totfact> 0.11074293E+00</totfact>
</mgrwt>
</event>
<event>
 4    1  0.2701205E-007  0.1054741E+04  0.7818608E-02  0.9313204E-01
         -2   -1    0    0    0  501 -0.00000000000E+00  0.00000000000E+00  0.34941268399E+03  0.34941268400E+03  0.25500000000E-02 0.  1.
          2   -1    0    0  501    0  0.00000000000E+00 -0.00000000000E+00 -0.29256167732E+04  0.29256167732E+04  0.25500000000E-02 0. -1.
    8880023    1    1    2    0    0 -0.64630536931E+03 -0.51084047042E+03 -0.19906385119E+04  0.22528028116E+04  0.65864270000E+03 0. -1.
    8880022    1    1    2    0    0  0.64630536931E+03  0.51084047042E+03 -0.58556557729E+03  0.10222266456E+04  0.15294330000E+03 0.  0.
<mgrwt>
<rscale>  0 0.99576351E+03</rscale>
<asrwt>0</asrwt>
<pdfrwt beam="1">  1        2 0.45009487E+00 0.10547411E+04</pdfrwt>
<pdfrwt beam="2">  1       -2 0.53755800E-01 0.10547411E+04</pdfrwt>
<totfact> 0.64026828E+00</totfact>
</mgrwt>
</event>
<event>
 4    1  0.2701205E-007  0.1045698E+04  0.7818608E-02  0.9324071E-01
          2   -1    0    0  501    0  0.00000000000E+00  0.00000000000E+00  0.66060202487E+03  0.66060202487E+03  0.25500000000E-02 0. -1.
         -2   -1    0    0    0  501 -0.00000000000E+00 -0.00000000000E+00 -0.15457332445E+04  0.15457332446E+04  0.25500000000E-02 0.  1.
    8880023    1    1    2    0    0 -0.78581411936E+03  0.20535545326E+03 -0.73990030042E+02  0.10483126553E+04  0.65864270000E+03 0.  0.
    8880022    1    1    2    0    0  0.78581411936E+03 -0.20535545326E+03 -0.81114118964E+03  0.11580226142E+04  0.15294330000E+03 0.  0.
<mgrwt>
<rscale>  0 0.98596763E+03</rscale>
<asrwt>0</asrwt>
<pdfrwt beam="1">  1        2 0.10163108E+00 0.10456983E+04</pdfrwt>
<pdfrwt beam="2">  1       -2 0.23780511E+00 0.10456983E+04</pdfrwt>
<totfact> 0.33425305E+00</totfact>
</mgrwt>
</event>
<event>
 4    1  0.2701205E-007  0.6693035E+03  0.7818608E-02  0.1016167E+00
          2   -1    0    0  501    0  0.00000000000E+00  0.00000000000E+00  0.22939882859E+04  0.22939882859E+04  0.25500000000E-02 0. -1.
         -2   -1    0    0    0  501 -0.00000000000E+00 -0.00000000000E+00 -0.25390659146E+03  0.25390659148E+03  0.25500000000E-02 0.  1.
    8880023    1    1    2    0    0  0.11176460456E+03 -0.40811949270E+02  0.21981741238E+04  0.22978112688E+04  0.65864270000E+03 0. -1.
    8880022    1    1    2    0    0 -0.11176460456E+03  0.40811949270E+02 -0.15809242940E+03  0.25008360859E+03  0.15294330000E+03 0.  0.
<mgrwt>
<rscale>  0 0.49095482E+03</rscale>
<asrwt>0</asrwt>
<pdfrwt beam="1">  1        2 0.35292128E+00 0.66930348E+03</pdfrwt>
<pdfrwt beam="2">  1       -2 0.39062552E-01 0.66930348E+03</pdfrwt>
<totfact> 0.29759642E+01</totfact>
</mgrwt>
</event>
<event>
 4    1  0.2701205E-007  0.1042908E+04  0.7818608E-02  0.9327456E-01
         -2   -1    0    0    0  501 -0.00000000000E+00  0.00000000000E+00  0.94164709310E+03  0.94164709311E+03  0.25500000000E-02 0.  1.
          2   -1    0    0  501    0  0.00000000000E+00 -0.00000000000E+00 -0.21967733032E+04  0.21967733032E+04  0.25500000000E-02 0. -1.
    8880023    1    1    2    0    0  0.80636452464E+03  0.60185449122E+02 -0.18494991941E+04  0.21232765976E+04  0.65864270000E+03 0. -1.
    8880022    1    1    2    0    0 -0.80636452464E+03 -0.60185449122E+02  0.59437298398E+03  0.10151437987E+04  0.15294330000E+03 0.  0.
<mgrwt>
<rscale>  0 0.98294000E+03</rscale>
<asrwt>0</asrwt>
<pdfrwt beam="1">  1        2 0.33796512E+00 0.10429076E+04</pdfrwt>
<pdfrwt beam="2">  1       -2 0.14486878E+00 0.10429076E+04</pdfrwt>
<totfact> 0.16941127E+00</totfact>
</mgrwt>
</event>
<event>
 4    1  0.2701205E-007  0.2102273E+04  0.7818608E-02  0.8571525E-01
          2   -1    0    0  501    0  0.00000000000E+00  0.00000000000E+00  0.35558663685E+04  0.35558663685E+04  0.25500000000E-02 0. -1.
         -2   -1    0    0    0  501 -0.00000000000E+00 -0.00000000000E+00 -0.18552772913E+04  0.18552772913E+04  0.25500000000E-02 0.  1.
    8880023    1    1    2    0    0 -0.18755084573E+04 -0.68425897541E+03 -0.76303614275E+03  0.22364652200E+04  0.65864270000E+03 0.  0.
    8880022    1    1    2    0    0  0.18755084573E+04  0.68425897541E+03  0.24636252199E+04  0.31746784398E+04  0.15294330000E+03 0.  0.
<mgrwt>
<rscale>  0 0.20768168E+04</rscale>
<asrwt>0</asrwt>
<pdfrwt beam="1">  1        2 0.54705636E+00 0.21022732E+04</pdfrwt>
<pdfrwt beam="2">  1       -2 0.28542728E+00 0.21022732E+04</pdfrwt>
<totfact> 0.25369135E-02</totfact>
</mgrwt>
</event>
<event>
 4    1  0.2701205E-007  0.6877676E+03  0.7818608E-02  0.1005232E+00
          2   -1    0    0  501    0  0.00000000000E+00  0.00000000000E+00  0.22759974423E+04  0.22759974423E+04  0.25500000000E-02 0. -1.
         -2   -1    0    0    0  501 -0.00000000000E+00 -0.00000000000E+00 -0.23954987354E+03  0.23954987355E+03  0.25500000000E-02 0.  1.
    8880023    1    1    2    0    0  0.17529226959E+03 -0.92123129612E+02  0.21377081494E+04  0.22456224948E+04  0.65864270000E+03 0. -1.
    8880022    1    1    2    0    0 -0.17529226959E+03  0.92123129612E+02 -0.10126058069E+03  0.26992482102E+03  0.15294330000E+03 0.  0.
<mgrwt>
<rscale>  0 0.53414359E+03</rscale>
<asrwt>0</asrwt>
<pdfrwt beam="1">  1        2 0.35015346E+00 0.68776759E+03</pdfrwt>
<pdfrwt beam="2">  1       -2 0.36853826E-01 0.68776759E+03</pdfrwt>
<totfact> 0.33970231E+01</totfact>
</mgrwt>
</event>
<event>
 4    1  0.2701205E-007  0.1162425E+04  0.7818608E-02  0.9194542E-01
          2   -1    0    0  501    0  0.00000000000E+00  0.00000000000E+00  0.23914671852E+04  0.23914671852E+04  0.25500000000E-02 0. -1.
         -2   -1    0    0    0  501 -0.00000000000E+00 -0.00000000000E+00 -0.78694503296E+03  0.78694503296E+03  0.25500000000E-02 0.  1.
    8880023    1    1    2    0    0  0.87600635200E+03  0.38734401604E+03  0.18435590634E+04  0.21794363358E+04  0.65864270000E+03 0.  0.
    8880022    1    1    2    0    0 -0.87600635200E+03 -0.38734401604E+03 -0.23903691117E+03  0.99897588230E+03  0.15294330000E+03 0.  0.
<mgrwt>
<rscale>  0 0.11109942E+04</rscale>
<asrwt>0</asrwt>
<pdfrwt beam="1">  1        2 0.36791803E+00 0.11624254E+04</pdfrwt>
<pdfrwt beam="2">  1       -2 0.12106847E+00 0.11624254E+04</pdfrwt>
<totfact> 0.20545391E+00</totfact>
</mgrwt>
</event>
<event>
 4    1  0.2931459E-007  0.1101220E+04  0.7818608E-02  0.9259699E-01
         -2   -1    0    0    0  501 -0.00000000000E+00  0.00000000000E+00  0.14682147300E+04  0.14682147300E+04  0.25500000000E-02 0.  1.
          2   -1    0    0  501    0  0.00000000000E+00 -0.00000000000E+00 -0.41367969930E+04  0.41367969930E+04  0.25500000000E-02 0. -1.
    8880023    1    1    2    0    0  0.53955004740E+03  0.69839844681E+03 -0.39168106209E+04  0.40686718092E+04  0.65864270000E+03 0. -1.
    8880022    1    1    2    0    0 -0.53955004740E+03 -0.69839844681E+03  0.12482283579E+04  0.15363399138E+04  0.15294330000E+03 0.  0.
<mgrwt>
<rscale>  0 0.10457920E+04</rscale>
<asrwt>0</asrwt>
<pdfrwt beam="1">  1        2 0.63643030E+00 0.11012197E+04</pdfrwt>
<pdfrwt beam="2">  1       -2 0.22587919E+00 0.11012197E+04</pdfrwt>
<totfact> 0.24669715E-02</totfact>
</mgrwt>
</event>
<event>
 4    1  0.2701205E-007  0.1221269E+04  0.7818608E-02  0.9136720E-01
         -2   -1    0    0    0  501 -0.00000000000E+00  0.00000000000E+00  0.85998682901E+03  0.85998682901E+03  0.25500000000E-02 0.  1.
          2   -1    0    0  501    0  0.00000000000E+00 -0.00000000000E+00 -0.23207070158E+04  0.23207070158E+04  0.25500000000E-02 0. -1.
    8880023    1    1    2    0    0  0.99654548419E+03 -0.25413338455E+03 -0.17196465337E+04  0.21091896753E+04  0.65864270000E+03 0. -1.
    8880022    1    1    2    0    0 -0.99654548419E+03  0.25413338455E+03  0.25892634691E+03  0.10715041695E+04  0.15294330000E+03 0.  0.
<mgrwt>
<rscale>  0 0.11731148E+04</rscale>
<asrwt>0</asrwt>
<pdfrwt beam="1">  1        2 0.35703185E+00 0.12212686E+04</pdfrwt>
<pdfrwt beam="2">  1       -2 0.13230567E+00 0.12212686E+04</pdfrwt>
<totfact> 0.17868287E+00</totfact>
</mgrwt>
</event>
<event>
 4    1  0.2701205E-007  0.6647285E+03  0.7818608E-02  0.1019762E+00
         -2   -1    0    0    0  501 -0.00000000000E+00  0.00000000000E+00  0.16155886864E+03  0.16155886866E+03  0.25500000000E-02 0.  1.
          2   -1    0    0  501    0  0.00000000000E+00 -0.00000000000E+00 -0.37618563130E+04  0.37618563130E+04  0.25500000000E-02 0. -1.
    8880023    1    1    2    0    0  0.39506744623E+02 -0.80579018487E+02 -0.36723361974E+04  0.37320124751E+04  0.65864270000E+03 0.  0.
    8880022    1    1    2    0    0 -0.39506744623E+02  0.80579018487E+02  0.72038753121E+02  0.19140270650E+03  0.15294330000E+03 0.  1.
<mgrwt>
<rscale>  0 0.47772491E+03</rscale>
<asrwt>0</asrwt>
<pdfrwt beam="1">  1        2 0.57874706E+00 0.66472849E+03</pdfrwt>
<pdfrwt beam="2">  1       -2 0.24855213E-01 0.66472849E+03</pdfrwt>
<totfact> 0.84503852E+00</totfact>
</mgrwt>
</event>
<event>
 4    1  0.2701205E-007  0.6714683E+03  0.7818608E-02  0.1014631E+00
         -2   -1    0    0    0  501 -0.00000000000E+00  0.00000000000E+00  0.42609822074E+03  0.42609822074E+03  0.25500000000E-02 0.  1.
          2   -1    0    0  501    0  0.00000000000E+00 -0.00000000000E+00 -0.94615178756E+03  0.94615178757E+03  0.25500000000E-02 0. -1.
    8880023    1    1    2    0    0  0.12675991181E+03  0.31487173846E+02 -0.78923804694E+03  0.10362270110E+04  0.65864270000E+03 0. -1.
    8880022    1    1    2    0    0 -0.12675991181E+03 -0.31487173846E+02  0.26918448012E+03  0.33602299729E+03  0.15294330000E+03 0.  0.
<mgrwt>
<rscale>  0 0.49674733E+03</rscale>
<asrwt>0</asrwt>
<pdfrwt beam="1">  1        2 0.14556181E+00 0.67146833E+03</pdfrwt>
<pdfrwt beam="2">  1       -2 0.65553573E-01 0.67146833E+03</pdfrwt>
<totfact> 0.59800075E+01</totfact>
</mgrwt>
</event>
<event>
 4    1  0.2701205E-007  0.9472241E+03  0.7818608E-02  0.9454119E-01
         -2   -1    0    0    0  501 -0.00000000000E+00  0.00000000000E+00  0.31184120803E+03  0.31184120804E+03  0.25500000000E-02 0.  1.
          2   -1    0    0  501    0  0.00000000000E+00 -0.00000000000E+00 -0.37321463184E+04  0.37321463184E+04  0.25500000000E-02 0. -1.
    8880023    1    1    2    0    0 -0.35785170656E+03 -0.57910739908E+03 -0.31606185875E+04  0.32995065215E+04  0.65864270000E+03 0. -1.
    8880022    1    1    2    0    0  0.35785170656E+03  0.57910739908E+03 -0.25968652291E+03  0.74448100497E+03  0.15294330000E+03 0.  0.
<mgrwt>
<rscale>  0 0.87752606E+03</rscale>
<asrwt>0</asrwt>
<pdfrwt beam="1">  1        2 0.57417633E+00 0.94722407E+03</pdfrwt>
<pdfrwt beam="2">  1       -2 0.47975573E-01 0.94722407E+03</pdfrwt>
<totfact> 0.23979163E+00</totfact>
</mgrwt>
</event>
<event>
 4    1  0.2701205E-007  0.7015017E+03  0.7818608E-02  0.9991028E-01
         -2   -1    0    0    0  501 -0.00000000000E+00  0.00000000000E+00  0.21232442685E+03  0.21232442687E+03  0.25500000000E-02 0.  1.
          2   -1    0    0  501    0  0.00000000000E+00 -0.00000000000E+00 -0.30917873295E+04  0.30917873295E+04  0.25500000000E-02 0. -1.
    8880023    1    1    2    0    0  0.23918333413E+03 -0.32950063694E+02 -0.29309263901E+04  0.30137076972E+04  0.65864270000E+03 0. -1.
    8880022    1    1    2    0    0 -0.23918333413E+03  0.32950063694E+02  0.51463487407E+02  0.29040405916E+03  0.15294330000E+03 0.  0.
<mgrwt>
<rscale>  0 0.56045403E+03</rscale>
<asrwt>0</asrwt>
<pdfrwt beam="1">  1        2 0.47565956E+00 0.70150166E+03</pdfrwt>
<pdfrwt beam="2">  1       -2 0.32665299E-01 0.70150166E+03</pdfrwt>
<totfact> 0.14283061E+01</totfact>
</mgrwt>
</event>
<event>
 4    1  0.2701205E-007  0.1148452E+04  0.7818608E-02  0.9208936E-01
         -2   -1    0    0    0  501 -0.00000000000E+00  0.00000000000E+00  0.70721283432E+03  0.70721283432E+03  0.25500000000E-02 0.  1.
          2   -1    0    0  501    0  0.00000000000E+00 -0.00000000000E+00 -0.23138258970E+04  0.23138258970E+04  0.25500000000E-02 0. -1.
    8880023    1    1    2    0    0 -0.80019605139E+03 -0.49479108390E+03 -0.17125741811E+04  0.20620020537E+04  0.65864270000E+03 0.  0.
    8880022    1    1    2    0    0  0.80019605139E+03  0.49479108390E+03  0.10596111845E+03  0.95903667761E+03  0.15294330000E+03 0.  0.
<mgrwt>
<rscale>  0 0.10961669E+04</rscale>
<asrwt>0</asrwt>
<pdfrwt beam="1">  1        2 0.35597321E+00 0.11484521E+04</pdfrwt>
<pdfrwt beam="2">  1       -2 0.10880198E+00 0.11484521E+04</pdfrwt>
<totfact> 0.29618315E+00</totfact>
</mgrwt>
</event>
<event>
 4    1  0.2701205E-007  0.7421801E+03  0.7818608E-02  0.9853642E-01
         -2   -1    0    0    0  501 -0.00000000000E+00  0.00000000000E+00  0.11905662896E+04  0.11905662896E+04  0.25500000000E-02 0.  1.
          2   -1    0    0  501    0  0.00000000000E+00 -0.00000000000E+00 -0.35657703866E+03  0.35657703867E+03  0.25500000000E-02 0. -1.
    8880023    1    1    2    0    0 -0.94655590113E+02 -0.32872696973E+03  0.13544054610E+03  0.75443717377E+03  0.65864270000E+03 0.  0.
    8880022    1    1    2    0    0  0.94655590113E+02  0.32872696973E+03  0.69854870488E+03  0.79270615456E+03  0.15294330000E+03 0.  0.
<mgrwt>
<rscale>  0 0.62561593E+03</rscale>
<asrwt>0</asrwt>
<pdfrwt beam="1">  1        2 0.54858006E-01 0.74218010E+03</pdfrwt>
<pdfrwt beam="2">  1       -2 0.18316405E+00 0.74218010E+03</pdfrwt>
<totfact> 0.15864516E+01</totfact>
</mgrwt>
</event>
<event>
 4    1  0.2701205E-007  0.1594221E+04  0.7818608E-02  0.8845818E-01
          2   -1    0    0  501    0  0.00000000000E+00  0.00000000000E+00  0.24409257048E+04  0.24409257048E+04  0.25500000000E-02 0. -1.
         -2   -1    0    0    0  501 -0.00000000000E+00 -0.00000000000E+00 -0.10925207486E+04  0.10925207486E+04  0.25500000000E-02 0.  1.
    8880023    1    1    2    0    0  0.14455719954E+04  0.13435637570E+03  0.13257412223E+04  0.20734343550E+04  0.65864270000E+03 0.  0.
    8880022    1    1    2    0    0 -0.14455719954E+04 -0.13435637570E+03  0.22663733909E+02  0.14600120984E+04  0.15294330000E+03 0.  0.
<mgrwt>
<rscale>  0 0.15595073E+04</rscale>
<asrwt>0</asrwt>
<pdfrwt beam="1">  1        2 0.37552702E+00 0.15942209E+04</pdfrwt>
<pdfrwt beam="2">  1       -2 0.16808012E+00 0.15942209E+04</pdfrwt>
<totfact> 0.77335678E-01</totfact>
</mgrwt>
</event>
<event>
 4    1  0.2701205E-007  0.7712387E+03  0.7818608E-02  0.9776835E-01
          2   -1    0    0  501    0  0.00000000000E+00  0.00000000000E+00  0.40248064543E+03  0.40248064544E+03  0.25500000000E-02 0. -1.
         -2   -1    0    0    0  501 -0.00000000000E+00 -0.00000000000E+00 -0.13128836971E+04  0.13128836971E+04  0.25500000000E-02 0.  1.
    8880023    1    1    2    0    0  0.27114514067E+03 -0.29576887529E+03 -0.73506784661E+02  0.77473374042E+03  0.65864270000E+03 0. -1.
    8880022    1    1    2    0    0 -0.27114514067E+03  0.29576887529E+03 -0.83689626698E+03  0.94063060210E+03  0.15294330000E+03 0.  0.
<mgrwt>
<rscale>  0 0.66620662E+03</rscale>
<asrwt>0</asrwt>
<pdfrwt beam="1">  1        2 0.61920100E-01 0.77123869E+03</pdfrwt>
<pdfrwt beam="2">  1       -2 0.20198210E+00 0.77123869E+03</pdfrwt>
<totfact> 0.10363259E+01</totfact>
</mgrwt>
</event>
<event>
 4    1  0.2701205E-007  0.1194578E+04  0.7818608E-02  0.9162411E-01
         -2   -1    0    0    0  501 -0.00000000000E+00  0.00000000000E+00  0.10769492744E+04  0.10769492744E+04  0.25500000000E-02 0.  1.
          2   -1    0    0  501    0  0.00000000000E+00 -0.00000000000E+00 -0.11878238535E+04  0.11878238535E+04  0.25500000000E-02 0. -1.
    8880023    1    1    2    0    0  0.41316811495E+03 -0.90691658883E+03 -0.31641255213E+03  0.12357721067E+04  0.65864270000E+03 0.  0.
    8880022    1    1    2    0    0 -0.41316811495E+03  0.90691658883E+03  0.20553797295E+03  0.10290010212E+04  0.15294330000E+03 0.  0.
<mgrwt>
<rscale>  0 0.11449972E+04</rscale>
<asrwt>0</asrwt>
<pdfrwt beam="1">  1        2 0.18274213E+00 0.11945777E+04</pdfrwt>
<pdfrwt beam="2">  1       -2 0.16568450E+00 0.11945777E+04</pdfrwt>
<totfact> 0.42878635E+00</totfact>
</mgrwt>
</event>
<event>
 4    1  0.2701205E-007  0.8163766E+03  0.7818608E-02  0.9676445E-01
         -2   -1    0    0    0  501 -0.00000000000E+00  0.00000000000E+00  0.53286568144E+03  0.53286568144E+03  0.25500000000E-02 0.  1.
          2   -1    0    0  501    0  0.00000000000E+00 -0.00000000000E+00 -0.26765477351E+04  0.26765477351E+04  0.25500000000E-02 0. -1.
    8880023    1    1    2    0    0 -0.39192704024E+03  0.28116504230E+03 -0.24739409190E+04  0.26051592010E+04  0.65864270000E+03 0. -1.
    8880022    1    1    2    0    0  0.39192704024E+03 -0.28116504230E+03  0.33025886529E+03  0.60425421554E+03  0.15294330000E+03 0.  0.
<mgrwt>
<rscale>  0 0.72436756E+03</rscale>
<asrwt>0</asrwt>
<pdfrwt beam="1">  1        2 0.41177657E+00 0.81637662E+03</pdfrwt>
<pdfrwt beam="2">  1       -2 0.81979337E-01 0.81637662E+03</pdfrwt>
<totfact> 0.37416070E+00</totfact>
</mgrwt>
</event>
<event>
 4    1  0.2701205E-007  0.1540801E+04  0.7818608E-02  0.8881350E-01
         -2   -1    0    0    0  501 -0.00000000000E+00  0.00000000000E+00  0.12147238061E+04  0.12147238061E+04  0.25500000000E-02 0.  1.
          2   -1    0    0  501    0  0.00000000000E+00 -0.00000000000E+00 -0.37678433358E+04  0.37678433358E+04  0.25500000000E-02 0. -1.
    8880023    1    1    2    0    0 -0.91709143503E+03  0.10484273544E+04 -0.31130858670E+04  0.34735242102E+04  0.65864270000E+03 0.  0.
    8880022    1    1    2    0    0  0.91709143503E+03 -0.10484273544E+04  0.55996633729E+03  0.15090429317E+04  0.15294330000E+03 0.  0.
<mgrwt>
<rscale>  0 0.15046754E+04</rscale>
<asrwt>0</asrwt>
<pdfrwt beam="1">  1        2 0.57966820E+00 0.15408007E+04</pdfrwt>
<pdfrwt beam="2">  1       -2 0.18688059E+00 0.15408007E+04</pdfrwt>
<totfact> 0.80064610E-02</totfact>
</mgrwt>
</event>
<event>
 4    1  0.2701205E-007  0.1359883E+04  0.7818608E-02  0.9015499E-01
         -2   -1    0    0    0  501 -0.00000000000E+00  0.00000000000E+00  0.16760989762E+04  0.16760989762E+04  0.25500000000E-02 0.  1.
          2   -1    0    0  501    0  0.00000000000E+00 -0.00000000000E+00 -0.14858498105E+04  0.14858498105E+04  0.25500000000E-02 0. -1.
    8880023    1    1    2    0    0  0.20336520501E+03  0.11722257616E+04  0.10229903945E+04  0.17017021467E+04  0.65864270000E+03 0.  0.
    8880022    1    1    2    0    0 -0.20336520501E+03 -0.11722257616E+04 -0.83274122877E+03  0.14602466400E+04  0.15294330000E+03 0.  0.
<mgrwt>
<rscale>  0 0.13178879E+04</rscale>
<asrwt>0</asrwt>
<pdfrwt beam="1">  1        2 0.22859228E+00 0.13598827E+04</pdfrwt>
<pdfrwt beam="2">  1       -2 0.25786138E+00 0.13598827E+04</pdfrwt>
<totfact> 0.70952052E-01</totfact>
</mgrwt>
</event>
<event>
 4    1  0.2701205E-007  0.1192025E+04  0.7818608E-02  0.9164914E-01
         -2   -1    0    0    0  501 -0.00000000000E+00  0.00000000000E+00  0.13659197200E+04  0.13659197201E+04  0.25500000000E-02 0.  1.
          2   -1    0    0  501    0  0.00000000000E+00 -0.00000000000E+00 -0.19309264608E+04  0.19309264608E+04  0.25500000000E-02 0. -1.
    8880023    1    1    2    0    0 -0.46279519126E+02 -0.99245699462E+03 -0.15054798040E+04  0.19202584010E+04  0.65864270000E+03 0. -1.
    8880022    1    1    2    0    0  0.46279519126E+02  0.99245699462E+03  0.94047306323E+03  0.13765877799E+04  0.15294330000E+03 0.  0.
<mgrwt>
<rscale>  0 0.11423027E+04</rscale>
<asrwt>0</asrwt>
<pdfrwt beam="1">  1        2 0.29706561E+00 0.11920247E+04</pdfrwt>
<pdfrwt beam="2">  1       -2 0.21014150E+00 0.11920247E+04</pdfrwt>
<totfact> 0.81074890E-01</totfact>
</mgrwt>
</event>
<event>
 4    1  0.2701205E-007  0.8721115E+03  0.7818608E-02  0.9572372E-01
          2   -1    0    0  501    0  0.00000000000E+00  0.00000000000E+00  0.17078576432E+04  0.17078576432E+04  0.25500000000E-02 0. -1.
         -2   -1    0    0    0  501 -0.00000000000E+00 -0.00000000000E+00 -0.76656186129E+03  0.76656186129E+03  0.25500000000E-02 0.  1.
    8880023    1    1    2    0    0  0.53853549657E+03 -0.19169688197E+03  0.14513317581E+04  0.16932047289E+04  0.65864270000E+03 0. -1.
    8880022    1    1    2    0    0 -0.53853549657E+03  0.19169688197E+03 -0.51003597617E+03  0.78121477561E+03  0.15294330000E+03 0.  0.
<mgrwt>
<rscale>  0 0.79152071E+03</rscale>
<asrwt>0</asrwt>
<pdfrwt beam="1">  1        2 0.26274733E+00 0.87211145E+03</pdfrwt>
<pdfrwt beam="2">  1       -2 0.11793260E+00 0.87211145E+03</pdfrwt>
<totfact> 0.54443651E+00</totfact>
</mgrwt>
</event>
<event>
 4    1  0.3290876E-007  0.6962212E+03  0.7818608E-02  0.1001325E+00
          2   -1    0    0  501    0  0.00000000000E+00  0.00000000000E+00  0.22334302550E+04  0.22334302550E+04  0.25500000000E-02 0. -1.
         -2   -1    0    0    0  501 -0.00000000000E+00 -0.00000000000E+00 -0.12928161483E+04  0.12928161483E+04  0.25500000000E-02 0.  1.
    8880023    1    1    2    0    0  0.21598578973E+03 -0.65298342974E+02  0.21638027247E+04  0.22730521712E+04  0.65864270000E+03 0. -1.
    8880022    1    1    2    0    0 -0.21598578973E+03  0.65298342974E+02 -0.12231886181E+04  0.12531942321E+04  0.15294330000E+03 0.  0.
<mgrwt>
<rscale>  0 0.55072902E+03</rscale>
<asrwt>0</asrwt>
<pdfrwt beam="1">  1        2 0.34360465E+00 0.69622119E+03</pdfrwt>
<pdfrwt beam="2">  1       -2 0.19889479E+00 0.69622119E+03</pdfrwt>
<totfact> 0.71084607E-01</totfact>
</mgrwt>
</event>
<event>
 4    1  0.2701205E-007  0.1050488E+04  0.7818608E-02  0.9318295E-01
          2   -1    0    0  501    0  0.00000000000E+00  0.00000000000E+00  0.33595781229E+04  0.33595781229E+04  0.25500000000E-02 0. -1.
         -2   -1    0    0    0  501 -0.00000000000E+00 -0.00000000000E+00 -0.41140200719E+03  0.41140200720E+03  0.25500000000E-02 0.  1.
    8880023    1    1    2    0    0  0.44321930921E+03 -0.68794704307E+03  0.27078217802E+04  0.29044489133E+04  0.65864270000E+03 0.  1.
    8880022    1    1    2    0    0 -0.44321930921E+03  0.68794704307E+03  0.24035433549E+03  0.86653121682E+03  0.15294330000E+03 0.  0.
<mgrwt>
<rscale>  0 0.99115880E+03</rscale>
<asrwt>0</asrwt>
<pdfrwt beam="1">  1        2 0.51685816E+00 0.10504878E+04</pdfrwt>
<pdfrwt beam="2">  1       -2 0.63292618E-01 0.10504878E+04</pdfrwt>
<totfact> 0.24045130E+00</totfact>
</mgrwt>
</event>
<event>
 4    1  0.2701205E-007  0.1035097E+04  0.7818608E-02  0.9337015E-01
          2   -1    0    0  501    0  0.00000000000E+00  0.00000000000E+00  0.26375624921E+04  0.26375624921E+04  0.25500000000E-02 0. -1.
         -2   -1    0    0    0  501 -0.00000000000E+00 -0.00000000000E+00 -0.67856557974E+03  0.67856557974E+03  0.25500000000E-02 0.  1.
    8880023    1    1    2    0    0  0.40950605984E+03 -0.68550701793E+03 -0.15919225556E+03  0.10472666638E+04  0.65864270000E+03 0.  0.
    8880022    1    1    2    0    0 -0.40950605984E+03  0.68550701793E+03  0.21181891679E+04  0.22688614080E+04  0.15294330000E+03 0.  0.
<mgrwt>
<rscale>  0 0.97445423E+03</rscale>
<asrwt>0</asrwt>
<pdfrwt beam="1">  1        2 0.40577885E+00 0.10350968E+04</pdfrwt>
<pdfrwt beam="2">  1       -2 0.10439470E+00 0.10350968E+04</pdfrwt>
<totfact> 0.21682223E+00</totfact>
</mgrwt>
</event>
<event>
 4    1  0.2701205E-007  0.1977369E+04  0.7818608E-02  0.8630289E-01
         -2   -1    0    0    0  501 -0.00000000000E+00  0.00000000000E+00  0.19642897254E+04  0.19642897254E+04  0.25500000000E-02 0.  1.
          2   -1    0    0  501    0  0.00000000000E+00 -0.00000000000E+00 -0.19742696781E+04  0.19742696781E+04  0.25500000000E-02 0. -1.
    8880023    1    1    2    0    0  0.92613528712E+03 -0.16181632052E+04 -0.42461433191E+03  0.20224456151E+04  0.65864270000E+03 0.  0.
    8880022    1    1    2    0    0 -0.92613528712E+03  0.16181632052E+04  0.41463437926E+03  0.19161137885E+04  0.15294330000E+03 0.  0.
<mgrwt>
<rscale>  0 0.19501484E+04</rscale>
<asrwt>0</asrwt>
<pdfrwt beam="1">  1        2 0.30373380E+00 0.19773692E+04</pdfrwt>
<pdfrwt beam="2">  1       -2 0.30219842E+00 0.19773692E+04</pdfrwt>
<totfact> 0.19000939E-01</totfact>
</mgrwt>
</event>
<event>
 4    1  0.2701205E-007  0.8277047E+03  0.7818608E-02  0.9653815E-01
          2   -1    0    0  501    0  0.00000000000E+00  0.00000000000E+00  0.18096217873E+04  0.18096217873E+04  0.25500000000E-02 0. -1.
         -2   -1    0    0    0  501 -0.00000000000E+00 -0.00000000000E+00 -0.37950205290E+03  0.37950205291E+03  0.25500000000E-02 0.  1.
    8880023    1    1    2    0    0  0.33899698344E+03 -0.36927745065E+03  0.14444953724E+04  0.16648308856E+04  0.65864270000E+03 0.  0.
    8880022    1    1    2    0    0 -0.33899698344E+03  0.36927745065E+03 -0.14375637995E+02  0.52429295467E+03  0.15294330000E+03 0.  1.
<mgrwt>
<rscale>  0 0.73834481E+03</rscale>
<asrwt>0</asrwt>
<pdfrwt beam="1">  1        2 0.27840335E+00 0.82770466E+03</pdfrwt>
<pdfrwt beam="2">  1       -2 0.58384932E-01 0.82770466E+03</pdfrwt>
<totfact> 0.23846010E+01</totfact>
</mgrwt>
</event>
<event>
 4    1  0.2701205E-007  0.1351107E+04  0.7818608E-02  0.9022636E-01
         -2   -1    0    0    0  501 -0.00000000000E+00  0.00000000000E+00  0.17107562265E+04  0.17107562265E+04  0.25500000000E-02 0.  1.
          2   -1    0    0  501    0  0.00000000000E+00 -0.00000000000E+00 -0.14484250355E+04  0.14484250355E+04  0.25500000000E-02 0. -1.
    8880023    1    1    2    0    0 -0.48392360575E+03 -0.10758703462E+04 -0.79499041119E+03  0.15676412275E+04  0.65864270000E+03 0. -1.
    8880022    1    1    2    0    0  0.48392360575E+03  0.10758703462E+04  0.10573216022E+04  0.15915400345E+04  0.15294330000E+03 0.  0.
<mgrwt>
<rscale>  0 0.13087735E+04</rscale>
<asrwt>0</asrwt>
<pdfrwt beam="1">  1        2 0.22283462E+00 0.13511067E+04</pdfrwt>
<pdfrwt beam="2">  1       -2 0.26319326E+00 0.13511067E+04</pdfrwt>
<totfact> 0.69210431E-01</totfact>
</mgrwt>
</event>
<event>
 4    1  0.2701205E-007  0.7335355E+03  0.7818608E-02  0.9879194E-01
          2   -1    0    0  501    0  0.00000000000E+00  0.00000000000E+00  0.83988596520E+03  0.83988596521E+03  0.25500000000E-02 0. -1.
         -2   -1    0    0    0  501 -0.00000000000E+00 -0.00000000000E+00 -0.36900988720E+03  0.36900988720E+03  0.25500000000E-02 0.  1.
    8880023    1    1    2    0    0  0.24488673381E+03  0.21046267771E+03  0.42741046975E+03  0.84897230050E+03  0.65864270000E+03 0. -1.
    8880022    1    1    2    0    0 -0.24488673381E+03 -0.21046267771E+03  0.43465608263E+02  0.35992355191E+03  0.15294330000E+03 0.  1.
<mgrwt>
<rscale>  0 0.61280297E+03</rscale>
<asrwt>0</asrwt>
<pdfrwt beam="1">  1        2 0.12921322E+00 0.73353545E+03</pdfrwt>
<pdfrwt beam="2">  1       -2 0.56770753E-01 0.73353545E+03</pdfrwt>
<totfact> 0.95177062E+01</totfact>
</mgrwt>
</event>
<event>
 4    1  0.2701205E-007  0.9241451E+03  0.7818608E-02  0.9488332E-01
          2   -1    0    0  501    0  0.00000000000E+00  0.00000000000E+00  0.27974707047E+04  0.27974707047E+04  0.25500000000E-02 0. -1.
         -2   -1    0    0    0  501 -0.00000000000E+00 -0.00000000000E+00 -0.39160994568E+03  0.39160994569E+03  0.25500000000E-02 0.  1.
    8880023    1    1    2    0    0 -0.34999403407E+03  0.54565386471E+03  0.23446711273E+04  0.25202235745E+04  0.65864270000E+03 0. -1.
    8880022    1    1    2    0    0  0.34999403407E+03 -0.54565386471E+03  0.61189631724E+02  0.66885707592E+03  0.15294330000E+03 0.  0.
<mgrwt>
<rscale>  0 0.85149520E+03</rscale>
<asrwt>0</asrwt>
<pdfrwt beam="1">  1        2 0.43038011E+00 0.92414510E+03</pdfrwt>
<pdfrwt beam="2">  1       -2 0.60247684E-01 0.92414510E+03</pdfrwt>
<totfact> 0.61301596E+00</totfact>
</mgrwt>
</event>
<event>
 4    1  0.2701205E-007  0.8248114E+03  0.7818608E-02  0.9659513E-01
         -2   -1    0    0    0  501 -0.00000000000E+00  0.00000000000E+00  0.71626045343E+03  0.71626045344E+03  0.25500000000E-02 0.  1.
          2   -1    0    0  501    0  0.00000000000E+00 -0.00000000000E+00 -0.80212538369E+03  0.80212538369E+03  0.25500000000E-02 0. -1.
    8880023    1    1    2    0    0  0.49263167910E+03  0.61787528659E+02 -0.39429707349E+03  0.91421226112E+03  0.65864270000E+03 0.  0.
    8880022    1    1    2    0    0 -0.49263167910E+03 -0.61787528659E+02  0.30843214324E+03  0.60417357601E+03  0.15294330000E+03 0.  0.
<mgrwt>
<rscale>  0 0.73479369E+03</rscale>
<asrwt>0</asrwt>
<pdfrwt beam="1">  1        2 0.12340390E+00 0.82481142E+03</pdfrwt>
<pdfrwt beam="2">  1       -2 0.11019392E+00 0.82481142E+03</pdfrwt>
<totfact> 0.22627203E+01</totfact>
</mgrwt>
</event>
<event>
 4    1  0.2952283E-007  0.8956536E+03  0.7818608E-02  0.9533045E-01
         -2   -1    0    0    0  501 -0.00000000000E+00  0.00000000000E+00  0.95847252377E+03  0.95847252377E+03  0.25500000000E-02 0.  1.
          2   -1    0    0  501    0  0.00000000000E+00 -0.00000000000E+00 -0.19565039905E+04  0.19565039905E+04  0.25500000000E-02 0. -1.
    8880023    1    1    2    0    0  0.35948485916E+02  0.60588196907E+03 -0.17322924638E+04  0.19501365697E+04  0.65864270000E+03 0.  0.
    8880022    1    1    2    0    0 -0.35948485916E+02 -0.60588196907E+03  0.73426099699E+03  0.96483994465E+03  0.15294330000E+03 0.  0.
<mgrwt>
<rscale>  0 0.81890765E+03</rscale>
<asrwt>0</asrwt>
<pdfrwt beam="1">  1        2 0.30100061E+00 0.89565365E+03</pdfrwt>
<pdfrwt beam="2">  1       -2 0.14745731E+00 0.89565365E+03</pdfrwt>
<totfact> 0.22412260E+00</totfact>
</mgrwt>
</event>
<event>
 4    1  0.2701205E-007  0.8896648E+03  0.7818608E-02  0.9542831E-01
         -2   -1    0    0    0  501 -0.00000000000E+00  0.00000000000E+00  0.10619840179E+04  0.10619840179E+04  0.25500000000E-02 0.  1.
          2   -1    0    0  501    0  0.00000000000E+00 -0.00000000000E+00 -0.86224273782E+03  0.86224273783E+03  0.25500000000E-02 0. -1.
    8880023    1    1    2    0    0  0.27377241494E+03  0.53173488088E+03 -0.47596844324E+03  0.10089843824E+04  0.65864270000E+03 0.  0.
    8880022    1    1    2    0    0 -0.27377241494E+03 -0.53173488088E+03  0.67570972334E+03  0.91524237334E+03  0.15294330000E+03 0.  0.
<mgrwt>
<rscale>  0 0.81198414E+03</rscale>
<asrwt>0</asrwt>
<pdfrwt beam="1">  1        2 0.13265273E+00 0.88966484E+03</pdfrwt>
<pdfrwt beam="2">  1       -2 0.16338216E+00 0.88966484E+03</pdfrwt>
<totfact> 0.74191470E+00</totfact>
</mgrwt>
</event>
<event>
 4    1  0.2701205E-007  0.7397768E+03  0.7818608E-02  0.9860598E-01
          2   -1    0    0  501    0  0.00000000000E+00  0.00000000000E+00  0.13242250251E+04  0.13242250251E+04  0.25500000000E-02 0. -1.
         -2   -1    0    0    0  501 -0.00000000000E+00 -0.00000000000E+00 -0.41974198264E+03  0.41974198265E+03  0.25500000000E-02 0.  1.
    8880023    1    1    2    0    0 -0.87641585370E+02 -0.32523604000E+03  0.10999407808E+04  0.13255713699E+04  0.65864270000E+03 0. -1.
    8880022    1    1    2    0    0  0.87641585370E+02  0.32523604000E+03 -0.19545773839E+03  0.41839563778E+03  0.15294330000E+03 0.  0.
<mgrwt>
<rscale>  0 0.62209485E+03</rscale>
<asrwt>0</asrwt>
<pdfrwt beam="1">  1        2 0.20372692E+00 0.73977681E+03</pdfrwt>
<pdfrwt beam="2">  1       -2 0.64575691E-01 0.73977681E+03</pdfrwt>
<totfact> 0.36184363E+01</totfact>
</mgrwt>
</event>
<event>
 4    1  0.3020425E-007  0.1021436E+04  0.7818608E-02  0.9354034E-01
         -2   -1    0    0    0  501 -0.00000000000E+00  0.00000000000E+00  0.29543291892E+04  0.29543291892E+04  0.25500000000E-02 0.  1.
          2   -1    0    0  501    0  0.00000000000E+00 -0.00000000000E+00 -0.20005818095E+04  0.20005818095E+04  0.25500000000E-02 0. -1.
    8880023    1    1    2    0    0  0.64066874538E+03 -0.44616783317E+03 -0.18103356350E+04  0.20786167262E+04  0.65864270000E+03 0. -1.
    8880022    1    1    2    0    0 -0.64066874538E+03  0.44616783317E+03  0.27640830147E+04  0.28762942725E+04  0.15294330000E+03 0.  0.
<mgrwt>
<rscale>  0 0.95956982E+03</rscale>
<asrwt>0</asrwt>
<pdfrwt beam="1">  1        2 0.30778182E+00 0.10214364E+04</pdfrwt>
<pdfrwt beam="2">  1       -2 0.45451218E+00 0.10214364E+04</pdfrwt>
<totfact> 0.22045440E-02</totfact>
</mgrwt>
</event>
<event>
 4    1  0.2701205E-007  0.1401603E+04  0.7818608E-02  0.8982438E-01
         -2   -1    0    0    0  501 -0.00000000000E+00  0.00000000000E+00  0.62621303527E+03  0.62621303528E+03  0.25500000000E-02 0.  1.
          2   -1    0    0  501    0  0.00000000000E+00 -0.00000000000E+00 -0.30738266732E+04  0.30738266732E+04  0.25500000000E-02 0. -1.
    8880023    1    1    2    0    0 -0.77481021202E+03 -0.96454589367E+03 -0.18405455149E+04  0.23134601022E+04  0.65864270000E+03 0.  0.
    8880022    1    1    2    0    0  0.77481021202E+03  0.96454589367E+03 -0.60706812306E+03  0.13865796063E+04  0.15294330000E+03 0.  0.
<mgrwt>
<rscale>  0 0.13611392E+04</rscale>
<asrwt>0</asrwt>
<pdfrwt beam="1">  1        2 0.47289640E+00 0.14016026E+04</pdfrwt>
<pdfrwt beam="2">  1       -2 0.96340469E-01 0.14016026E+04</pdfrwt>
<totfact> 0.13657479E+00</totfact>
</mgrwt>
</event>
<event>
 4    1  0.2701205E-007  0.9503974E+03  0.7818608E-02  0.9449543E-01
         -2   -1    0    0    0  501 -0.00000000000E+00  0.00000000000E+00  0.40886022200E+03  0.40886022201E+03  0.25500000000E-02 0.  1.
          2   -1    0    0  501    0  0.00000000000E+00 -0.00000000000E+00 -0.40231614550E+04  0.40231614550E+04  0.25500000000E-02 0. -1.
    8880023    1    1    2    0    0  0.47131869026E+03 -0.49729633813E+03 -0.36068459888E+04  0.37299588669E+04  0.65864270000E+03 0. -1.
    8880022    1    1    2    0    0 -0.47131869026E+03  0.49729633813E+03 -0.74552442532E+01  0.70206281014E+03  0.15294330000E+03 0.  0.
<mgrwt>
<rscale>  0 0.88108293E+03</rscale>
<asrwt>0</asrwt>
<pdfrwt beam="1">  1        2 0.61894789E+00 0.95039737E+03</pdfrwt>
<pdfrwt beam="2">  1       -2 0.62901575E-01 0.95039737E+03</pdfrwt>
<totfact> 0.81746758E-01</totfact>
</mgrwt>
</event>
<event>
 4    1  0.2701205E-007  0.8897983E+03  0.7818608E-02  0.9542611E-01
          2   -1    0    0  501    0  0.00000000000E+00  0.00000000000E+00  0.28324257381E+04  0.28324257381E+04  0.25500000000E-02 0. -1.
         -2   -1    0    0    0  501 -0.00000000000E+00 -0.00000000000E+00 -0.54346190833E+03  0.54346190833E+03  0.25500000000E-02 0.  1.
    8880023    1    1    2    0    0 -0.21152430231E+03 -0.55963224076E+03  0.25535056395E+04  0.27040954186E+04  0.65864270000E+03 0. -1.
    8880022    1    1    2    0    0  0.21152430231E+03  0.55963224076E+03 -0.26454180971E+03  0.67179222790E+03  0.15294330000E+03 0.  0.
<mgrwt>
<rscale>  0 0.81213872E+03</rscale>
<asrwt>0</asrwt>
<pdfrwt beam="1">  1        2 0.43575780E+00 0.88979828E+03</pdfrwt>
<pdfrwt beam="2">  1       -2 0.83609525E-01 0.88979828E+03</pdfrwt>
<totfact> 0.28600590E+00</totfact>
</mgrwt>
</event>
<event>
 4    1  0.2701205E-007  0.1166423E+04  0.7818608E-02  0.9190473E-01
         -2   -1    0    0    0  501 -0.00000000000E+00  0.00000000000E+00  0.32354514553E+03  0.32354514554E+03  0.25500000000E-02 0.  1.
          2   -1    0    0  501    0  0.00000000000E+00 -0.00000000000E+00 -0.37292980191E+04  0.37292980191E+04  0.25500000000E-02 0. -1.
    8880023    1    1    2    0    0  0.30650534661E+03 -0.91257156859E+03 -0.13958464955E+04  0.18190464647E+04  0.65864270000E+03 0.  0.
    8880022    1    1    2    0    0 -0.30650534661E+03  0.91257156859E+03 -0.20099063781E+04  0.22337967000E+04  0.15294330000E+03 0.  0.
<mgrwt>
<rscale>  0 0.11152304E+04</rscale>
<asrwt>0</asrwt>
<pdfrwt beam="1">  1        2 0.57373813E+00 0.11664230E+04</pdfrwt>
<pdfrwt beam="2">  1       -2 0.49776179E-01 0.11664230E+04</pdfrwt>
<totfact> 0.21592520E+00</totfact>
</mgrwt>
</event>
<event>
 4    1  0.2701205E-007  0.2213221E+04  0.7818608E-02  0.8522960E-01
          2   -1    0    0  501    0  0.00000000000E+00  0.00000000000E+00  0.34588723570E+04  0.34588723570E+04  0.25500000000E-02 0. -1.
         -2   -1    0    0    0  501 -0.00000000000E+00 -0.00000000000E+00 -0.17690355599E+04  0.17690355599E+04  0.25500000000E-02 0.  1.
    8880023    1    1    2    0    0 -0.57108093464E+03  0.20343069221E+04  0.21216196268E+04  0.30658796673E+04  0.65864270000E+03 0.  0.
    8880022    1    1    2    0    0  0.57108093464E+03 -0.20343069221E+04 -0.43178282970E+03  0.21620282496E+04  0.15294330000E+03 0.  0.
<mgrwt>
<rscale>  0 0.21891442E+04</rscale>
<asrwt>0</asrwt>
<pdfrwt beam="1">  1        2 0.53213420E+00 0.22132212E+04</pdfrwt>
<pdfrwt beam="2">  1       -2 0.27215932E+00 0.22132212E+04</pdfrwt>
<totfact> 0.35388346E-02</totfact>
</mgrwt>
</event>
<event>
 4    1  0.2701205E-007  0.7507176E+03  0.7818608E-02  0.9829760E-01
         -2   -1    0    0    0  501 -0.00000000000E+00  0.00000000000E+00  0.32888363354E+03  0.32888363355E+03  0.25500000000E-02 0.  1.
          2   -1    0    0  501    0  0.00000000000E+00 -0.00000000000E+00 -0.22566883240E+04  0.22566883240E+04  0.25500000000E-02 0. -1.
    8880023    1    1    2    0    0  0.31050526489E+03 -0.18262856131E+03 -0.20438615480E+04  0.21773715678E+04  0.65864270000E+03 0. -1.
    8880022    1    1    2    0    0 -0.31050526489E+03  0.18262856131E+03  0.11605685755E+03  0.40820038967E+03  0.15294330000E+03 0.  0.
<mgrwt>
<rscale>  0 0.63789623E+03</rscale>
<asrwt>0</asrwt>
<pdfrwt beam="1">  1        2 0.34718281E+00 0.75071760E+03</pdfrwt>
<pdfrwt beam="2">  1       -2 0.50597483E-01 0.75071760E+03</pdfrwt>
<totfact> 0.18428018E+01</totfact>
</mgrwt>
</event>
<event>
 4    1  0.2701205E-007  0.6681543E+03  0.7818608E-02  0.1017022E+00
         -2   -1    0    0    0  501 -0.00000000000E+00  0.00000000000E+00  0.13754072739E+03  0.13754072741E+03  0.25500000000E-02 0.  1.
          2   -1    0    0  501    0  0.00000000000E+00 -0.00000000000E+00 -0.25539311718E+04  0.25539311718E+04  0.25500000000E-02 0. -1.
    8880023    1    1    2    0    0 -0.13697419888E+02 -0.11150042977E+03 -0.24107416508E+04  0.25016205704E+04  0.65864270000E+03 0. -1.
    8880022    1    1    2    0    0  0.13697419888E+02  0.11150042977E+03 -0.56487935782E+01  0.18985132877E+03  0.15294330000E+03 0.  0.
<mgrwt>
<rscale>  0 0.48776755E+03</rscale>
<asrwt>0</asrwt>
<pdfrwt beam="1">  1        2 0.39291245E+00 0.66815430E+03</pdfrwt>
<pdfrwt beam="2">  1       -2 0.21160114E-01 0.66815430E+03</pdfrwt>
<totfact> 0.65870767E+01</totfact>
</mgrwt>
</event>
<event>
 4    1  0.2701205E-007  0.7899061E+03  0.7818608E-02  0.9733062E-01
         -2   -1    0    0    0  501 -0.00000000000E+00  0.00000000000E+00  0.34111086417E+03  0.34111086418E+03  0.25500000000E-02 0.  1.
          2   -1    0    0  501    0  0.00000000000E+00 -0.00000000000E+00 -0.44623360958E+04  0.44623360958E+04  0.25500000000E-02 0. -1.
    8880023    1    1    2    0    0  0.23756605007E+03 -0.36565529902E+03 -0.42507665620E+04  0.43235365150E+04  0.65864270000E+03 0. -1.
    8880022    1    1    2    0    0 -0.23756605007E+03  0.36565529902E+03  0.12954133041E+03  0.47991044493E+03  0.15294330000E+03 0.  0.
<mgrwt>
<rscale>  0 0.69081975E+03</rscale>
<asrwt>0</asrwt>
<pdfrwt beam="1">  1        2 0.68651320E+00 0.78990609E+03</pdfrwt>
<pdfrwt beam="2">  1       -2 0.52478598E-01 0.78990609E+03</pdfrwt>
<totfact> 0.51741658E-01</totfact>
</mgrwt>
</event>
<event>
 4    1  0.2701205E-007  0.7028679E+03  0.7818608E-02  0.9985506E-01
         -2   -1    0    0    0  501 -0.00000000000E+00  0.00000000000E+00  0.58616315228E+03  0.58616315228E+03  0.25500000000E-02 0.  1.
          2   -1    0    0  501    0  0.00000000000E+00 -0.00000000000E+00 -0.59370644787E+03  0.59370644787E+03  0.25500000000E-02 0. -1.
    8880023    1    1    2    0    0 -0.24375720868E+03  0.28203493008E+02 -0.30396530419E+03  0.76577942399E+03  0.65864270000E+03 0. -1.
    8880022    1    1    2    0    0  0.24375720868E+03 -0.28203493008E+02  0.29642200860E+03  0.41409017616E+03  0.15294330000E+03 0.  0.
<mgrwt>
<rscale>  0 0.56290366E+03</rscale>
<asrwt>0</asrwt>
<pdfrwt beam="1">  1        2 0.91339453E-01 0.70286785E+03</pdfrwt>
<pdfrwt beam="2">  1       -2 0.90178947E-01 0.70286785E+03</pdfrwt>
<totfact> 0.53668944E+01</totfact>
</mgrwt>
</event>
<event>
 4    1  0.2701205E-007  0.6754185E+03  0.7818608E-02  0.1012044E+00
          2   -1    0    0  501    0  0.00000000000E+00  0.00000000000E+00  0.26532036009E+04  0.26532036009E+04  0.25500000000E-02 0. -1.
         -2   -1    0    0    0  501 -0.00000000000E+00 -0.00000000000E+00 -0.20885683519E+03  0.20885683521E+03  0.25500000000E-02 0.  1.
    8880023    1    1    2    0    0 -0.14327227013E+03  0.43046579050E+02  0.25395926081E+04  0.26278738121E+04  0.65864270000E+03 0. -1.
    8880022    1    1    2    0    0  0.14327227013E+03 -0.43046579050E+02 -0.95245842334E+02  0.23418662398E+03  0.15294330000E+03 0.  0.
<mgrwt>
<rscale>  0 0.50670388E+03</rscale>
<asrwt>0</asrwt>
<pdfrwt beam="1">  1        2 0.40818518E+00 0.67541851E+03</pdfrwt>
<pdfrwt beam="2">  1       -2 0.32131820E-01 0.67541851E+03</pdfrwt>
<totfact> 0.27057543E+01</totfact>
</mgrwt>
</event>
<event>
 4    1  0.2701205E-007  0.7311538E+03  0.7818608E-02  0.9886508E-01
          2   -1    0    0  501    0  0.00000000000E+00  0.00000000000E+00  0.22775929852E+04  0.22775929852E+04  0.25500000000E-02 0. -1.
         -2   -1    0    0    0  501 -0.00000000000E+00 -0.00000000000E+00 -0.23051266410E+03  0.23051266411E+03  0.25500000000E-02 0.  1.
    8880023    1    1    2    0    0 -0.17052211479E+02 -0.31699349321E+03  0.20273674309E+04  0.21551808645E+04  0.65864270000E+03 0. -1.
    8880022    1    1    2    0    0  0.17052211479E+02  0.31699349321E+03  0.19712890179E+02  0.35292478477E+03  0.15294330000E+03 0.  0.
<mgrwt>
<rscale>  0 0.60919658E+03</rscale>
<asrwt>0</asrwt>
<pdfrwt beam="1">  1        2 0.35039894E+00 0.73115379E+03</pdfrwt>
<pdfrwt beam="2">  1       -2 0.35463485E-01 0.73115379E+03</pdfrwt>
<totfact> 0.36263026E+01</totfact>
</mgrwt>
</event>
<event>
 4    1  0.2701205E-007  0.7109271E+03  0.7818608E-02  0.9954574E-01
         -2   -1    0    0    0  501 -0.00000000000E+00  0.00000000000E+00  0.31529015926E+03  0.31529015927E+03  0.25500000000E-02 0.  1.
          2   -1    0    0  501    0  0.00000000000E+00 -0.00000000000E+00 -0.10630467711E+04  0.10630467711E+04  0.25500000000E-02 0. -1.
    8880023    1    1    2    0    0 -0.22132140413E+03 -0.15041265939E+03 -0.79501014484E+03  0.10665169800E+04  0.65864270000E+03 0. -1.
    8880022    1    1    2    0    0  0.22132140413E+03  0.15041265939E+03  0.47253533001E+02  0.31181995034E+03  0.15294330000E+03 0.  0.
<mgrwt>
<rscale>  0 0.57687744E+03</rscale>
<asrwt>0</asrwt>
<pdfrwt beam="1">  1        2 0.16354566E+00 0.71092710E+03</pdfrwt>
<pdfrwt beam="2">  1       -2 0.48506179E-01 0.71092710E+03</pdfrwt>
<totfact> 0.94076204E+01</totfact>
</mgrwt>
</event>
<event>
 4    1  0.2701205E-007  0.8496945E+03  0.7818608E-02  0.9612165E-01
         -2   -1    0    0    0  501 -0.00000000000E+00  0.00000000000E+00  0.13131617181E+03  0.13131617183E+03  0.25500000000E-02 0.  1.
          2   -1    0    0  501    0  0.00000000000E+00 -0.00000000000E+00 -0.42322648149E+04  0.42322648149E+04  0.25500000000E-02 0. -1.
    8880023    1    1    2    0    0 -0.26565214950E+03 -0.46647554774E+03 -0.17245932882E+04  0.19225510961E+04  0.65864270000E+03 0. -1.
    8880022    1    1    2    0    0  0.26565214950E+03  0.46647554774E+03 -0.23763553549E+04  0.24410298907E+04  0.15294330000E+03 0.  0.
<mgrwt>
<rscale>  0 0.76496257E+03</rscale>
<asrwt>0</asrwt>
<pdfrwt beam="1">  1        2 0.65111756E+00 0.84969448E+03</pdfrwt>
<pdfrwt beam="2">  1       -2 0.20202491E-01 0.84969448E+03</pdfrwt>
<totfact> 0.49928353E+00</totfact>
</mgrwt>
</event>
<event>
 4    1  0.2701205E-007  0.7380475E+03  0.7818608E-02  0.9865671E-01
         -2   -1    0    0    0  501 -0.00000000000E+00  0.00000000000E+00  0.44901780046E+03  0.44901780047E+03  0.25500000000E-02 0.  1.
          2   -1    0    0  501    0  0.00000000000E+00 -0.00000000000E+00 -0.10184643223E+04  0.10184643223E+04  0.25500000000E-02 0. -1.
    8880023    1    1    2    0    0  0.44320790120E+02 -0.33005997233E+03 -0.75577735562E+03  0.10563680870E+04  0.65864270000E+03 0.  0.
    8880022    1    1    2    0    0 -0.44320790120E+02  0.33005997233E+03  0.18633083377E+03  0.41111403576E+03  0.15294330000E+03 0.  0.
<mgrwt>
<rscale>  0 0.61954228E+03</rscale>
<asrwt>0</asrwt>
<pdfrwt beam="1">  1        2 0.15668682E+00 0.73804751E+03</pdfrwt>
<pdfrwt beam="2">  1       -2 0.69079662E-01 0.73804751E+03</pdfrwt>
<totfact> 0.47689855E+01</totfact>
</mgrwt>
</event>
<event>
 4    1  0.2701205E-007  0.7037850E+03  0.7818608E-02  0.9981847E-01
         -2   -1    0    0    0  501 -0.00000000000E+00  0.00000000000E+00  0.25072509133E+03  0.25072509134E+03  0.25500000000E-02 0.  1.
          2   -1    0    0  501    0  0.00000000000E+00 -0.00000000000E+00 -0.12039405799E+04  0.12039405799E+04  0.25500000000E-02 0. -1.
    8880023    1    1    2    0    0 -0.24651304587E+03 -0.27100798436E+02 -0.35274301561E+03  0.78723629006E+03  0.65864270000E+03 0.  1.
    8880022    1    1    2    0    0  0.24651304587E+03  0.27100798436E+02 -0.60047247294E+03  0.66742938116E+03  0.15294330000E+03 0.  0.
<mgrwt>
<rscale>  0 0.56453405E+03</rscale>
<asrwt>0</asrwt>
<pdfrwt beam="1">  1        2 0.18522163E+00 0.70378501E+03</pdfrwt>
<pdfrwt beam="2">  1       -2 0.38573091E-01 0.70378501E+03</pdfrwt>
<totfact> 0.12174691E+02</totfact>
</mgrwt>
</event>
<event>
 4    1  0.2701205E-007  0.6933517E+03  0.7818608E-02  0.1002599E+00
          2   -1    0    0  501    0  0.00000000000E+00  0.00000000000E+00  0.11300608228E+04  0.11300608229E+04  0.25500000000E-02 0. -1.
         -2   -1    0    0    0  501 -0.00000000000E+00 -0.00000000000E+00 -0.94398773450E+03  0.94398773450E+03  0.25500000000E-02 0.  1.
    8880023    1    1    2    0    0 -0.17278423236E+03 -0.13066000325E+03  0.10006536915E+04  0.12173924774E+04  0.65864270000E+03 0. -1.
    8880022    1    1    2    0    0  0.17278423236E+03  0.13066000325E+03 -0.81458060312E+03  0.85665608000E+03  0.15294330000E+03 0.  0.
<mgrwt>
<rscale>  0 0.54525365E+03</rscale>
<asrwt>0</asrwt>
<pdfrwt beam="1">  1        2 0.17385551E+00 0.69335174E+03</pdfrwt>
<pdfrwt beam="2">  1       -2 0.14522888E+00 0.69335174E+03</pdfrwt>
<totfact> 0.70031947E+00</totfact>
</mgrwt>
</event>
<event>
 4    1  0.2701205E-007  0.2188905E+04  0.7818608E-02  0.8533334E-01
          2   -1    0    0  501    0  0.00000000000E+00  0.00000000000E+00  0.16846556135E+04  0.16846556135E+04  0.25500000000E-02 0. -1.
         -2   -1    0    0    0  501 -0.00000000000E+00 -0.00000000000E+00 -0.31632971873E+04  0.31632971873E+04  0.25500000000E-02 0.  1.
    8880023    1    1    2    0    0 -0.11218243295E+04 -0.17603996955E+04  0.15272920108E+03  0.21942272739E+04  0.65864270000E+03 0.  0.
    8880022    1    1    2    0    0  0.11218243295E+04  0.17603996955E+04 -0.16313707749E+04  0.26537255269E+04  0.15294330000E+03 0.  0.
<mgrwt>
<rscale>  0 0.21645396E+04</rscale>
<asrwt>0</asrwt>
<pdfrwt beam="1">  1        2 0.25917779E+00 0.21889055E+04</pdfrwt>
<pdfrwt beam="2">  1       -2 0.48666110E+00 0.21889055E+04</pdfrwt>
<totfact> 0.17360304E-02</totfact>
</mgrwt>
</event>
<event>
 4    1  0.2701205E-007  0.6824747E+03  0.7818608E-02  0.1007957E+00
          2   -1    0    0  501    0  0.00000000000E+00  0.00000000000E+00  0.14065128753E+04  0.14065128753E+04  0.25500000000E-02 0. -1.
         -2   -1    0    0    0  501 -0.00000000000E+00 -0.00000000000E+00 -0.38846771896E+03  0.38846771897E+03  0.25500000000E-02 0.  1.
    8880023    1    1    2    0    0 -0.17257279786E+03 -0.46692163223E+02  0.12752590649E+04  0.14463946272E+04  0.65864270000E+03 0. -1.
    8880022    1    1    2    0    0  0.17257279786E+03  0.46692163223E+02 -0.25721390857E+03  0.34858596708E+03  0.15294330000E+03 0.  0.
<mgrwt>
<rscale>  0 0.52294709E+03</rscale>
<asrwt>0</asrwt>
<pdfrwt beam="1">  1        2 0.21638660E+00 0.68247471E+03</pdfrwt>
<pdfrwt beam="2">  1       -2 0.59764264E-01 0.68247471E+03</pdfrwt>
<totfact> 0.38552949E+01</totfact>
</mgrwt>
</event>
<event>
 4    1  0.2701205E-007  0.8428991E+03  0.7818608E-02  0.9624738E-01
         -2   -1    0    0    0  501 -0.00000000000E+00  0.00000000000E+00  0.74833525224E+03  0.74833525224E+03  0.25500000000E-02 0.  1.
          2   -1    0    0  501    0  0.00000000000E+00 -0.00000000000E+00 -0.16787850344E+04  0.16787850344E+04  0.25500000000E-02 0. -1.
    8880023    1    1    2    0    0 -0.43592235732E+03 -0.29434747350E+03 -0.14467433089E+04  0.16743790326E+04  0.65864270000E+03 0.  0.
    8880022    1    1    2    0    0  0.43592235732E+03  0.29434747350E+03  0.51629352673E+03  0.75274125403E+03  0.15294330000E+03 0.  0.
<mgrwt>
<rscale>  0 0.75680290E+03</rscale>
<asrwt>0</asrwt>
<pdfrwt beam="1">  1        2 0.25827462E+00 0.84289913E+03</pdfrwt>
<pdfrwt beam="2">  1       -2 0.11512850E+00 0.84289913E+03</pdfrwt>
<totfact> 0.60155363E+00</totfact>
</mgrwt>
</event>
<event>
 4    1  0.2701205E-007  0.1154332E+04  0.7818608E-02  0.9202846E-01
          2   -1    0    0  501    0  0.00000000000E+00  0.00000000000E+00  0.28185842374E+04  0.28185842374E+04  0.25500000000E-02 0. -1.
         -2   -1    0    0    0  501 -0.00000000000E+00 -0.00000000000E+00 -0.82863809205E+03  0.82863809205E+03  0.25500000000E-02 0.  1.
    8880023    1    1    2    0    0  0.39657983923E+03 -0.86104358261E+03  0.23527961475E+04  0.26207120288E+04  0.65864270000E+03 0. -1.
    8880022    1    1    2    0    0 -0.39657983923E+03  0.86104358261E+03 -0.36285000222E+03  0.10265103006E+04  0.15294330000E+03 0.  0.
<mgrwt>
<rscale>  0 0.11024098E+04</rscale>
<asrwt>0</asrwt>
<pdfrwt beam="1">  1        2 0.43362834E+00 0.11543318E+04</pdfrwt>
<pdfrwt beam="2">  1       -2 0.12748279E+00 0.11543318E+04</pdfrwt>
<totfact> 0.10181689E+00</totfact>
</mgrwt>
</event>
<event>
 4    1  0.2701205E-007  0.7046729E+03  0.7818608E-02  0.9978342E-01
          2   -1    0    0  501    0  0.00000000000E+00  0.00000000000E+00  0.25946717272E+04  0.25946717272E+04  0.25500000000E-02 0. -1.
         -2   -1    0    0    0  501 -0.00000000000E+00 -0.00000000000E+00 -0.69206086086E+03  0.69206086086E+03  0.25500000000E-02 0.  1.
    8880023    1    1    2    0    0  0.19510132342E+02 -0.24974602857E+03  0.25127392746E+04  0.26096786378E+04  0.65864270000E+03 0. -1.
    8880022    1    1    2    0    0 -0.19510132342E+02  0.24974602857E+03 -0.61012840825E+03  0.67705395030E+03  0.15294330000E+03 0.  0.
<mgrwt>
<rscale>  0 0.56610200E+03</rscale>
<asrwt>0</asrwt>
<pdfrwt beam="1">  1        2 0.39918027E+00 0.70467292E+03</pdfrwt>
<pdfrwt beam="2">  1       -2 0.10647090E+00 0.70467292E+03</pdfrwt>
<totfact> 0.23170820E+00</totfact>
</mgrwt>
</event>
<event>
 4    1  0.2701205E-007  0.9361426E+03  0.7818608E-02  0.9470339E-01
          2   -1    0    0  501    0  0.00000000000E+00  0.00000000000E+00  0.28773681963E+04  0.28773681963E+04  0.25500000000E-02 0. -1.
         -2   -1    0    0    0  501 -0.00000000000E+00 -0.00000000000E+00 -0.10785713706E+04  0.10785713706E+04  0.25500000000E-02 0.  1.
    8880023    1    1    2    0    0 -0.56948339956E+03 -0.34386251833E+03  0.26814324097E+04  0.28401483673E+04  0.65864270000E+03 0. -1.
    8880022    1    1    2    0    0  0.56948339956E+03  0.34386251833E+03 -0.88263558407E+03  0.11157911996E+04  0.15294330000E+03 0.  0.
<mgrwt>
<rscale>  0 0.86506407E+03</rscale>
<asrwt>0</asrwt>
<pdfrwt beam="1">  1        2 0.44267203E+00 0.93614261E+03</pdfrwt>
<pdfrwt beam="2">  1       -2 0.16593406E+00 0.93614261E+03</pdfrwt>
<totfact> 0.48491754E-01</totfact>
</mgrwt>
</event>
<event>
 4    1  0.2701205E-007  0.1357314E+04  0.7818608E-02  0.9017581E-01
         -2   -1    0    0    0  501 -0.00000000000E+00  0.00000000000E+00  0.74932969167E+03  0.74932969167E+03  0.25500000000E-02 0.  1.
          2   -1    0    0  501    0  0.00000000000E+00 -0.00000000000E+00 -0.24239957507E+04  0.24239957507E+04  0.25500000000E-02 0. -1.
    8880023    1    1    2    0    0  0.11800002958E+04 -0.12685002766E+03 -0.13911063242E+04  0.19435736773E+04  0.65864270000E+03 0.  0.
    8880022    1    1    2    0    0 -0.11800002958E+04  0.12685002766E+03 -0.28355973486E+03  0.12297517651E+04  0.15294330000E+03 0. -1.
<mgrwt>
<rscale>  0 0.13152210E+04</rscale>
<asrwt>0</asrwt>
<pdfrwt beam="1">  1        2 0.37292242E+00 0.13573142E+04</pdfrwt>
<pdfrwt beam="2">  1       -2 0.11528149E+00 0.13573142E+04</pdfrwt>
<totfact> 0.21755448E+00</totfact>
</mgrwt>
</event>
<event>
 4    1  0.2701205E-007  0.7472471E+03  0.7818608E-02  0.9839318E-01
         -2   -1    0    0    0  501 -0.00000000000E+00  0.00000000000E+00  0.82723252314E+03  0.82723252315E+03  0.25500000000E-02 0.  1.
          2   -1    0    0  501    0  0.00000000000E+00 -0.00000000000E+00 -0.84340067134E+03  0.84340067134E+03  0.25500000000E-02 0. -1.
    8880023    1    1    2    0    0  0.20853445573E+03 -0.28474785183E+03 -0.60897510583E+03  0.96396516749E+03  0.65864270000E+03 0. -1.
    8880022    1    1    2    0    0 -0.20853445573E+03  0.28474785183E+03  0.59280695764E+03  0.70666802700E+03  0.15294330000E+03 0.  0.
<mgrwt>
<rscale>  0 0.63294512E+03</rscale>
<asrwt>0</asrwt>
<pdfrwt beam="1">  1        2 0.12975395E+00 0.74724706E+03</pdfrwt>
<pdfrwt beam="2">  1       -2 0.12726654E+00 0.74724706E+03</pdfrwt>
<totfact> 0.14931211E+01</totfact>
</mgrwt>
</event>
<event>
 4    1  0.2701205E-007  0.7609357E+03  0.7818608E-02  0.9802691E-01
          2   -1    0    0  501    0  0.00000000000E+00  0.00000000000E+00  0.38124626204E+04  0.38124626204E+04  0.25500000000E-02 0. -1.
         -2   -1    0    0    0  501 -0.00000000000E+00 -0.00000000000E+00 -0.28981793203E+03  0.28981793204E+03  0.25500000000E-02 0.  1.
    8880023    1    1    2    0    0  0.36793907405E+03 -0.99165213126E+02  0.36041952424E+04  0.36836458100E+04  0.65864270000E+03 0. -1.
    8880022    1    1    2    0    0 -0.36793907405E+03  0.99165213126E+02 -0.81550554048E+02  0.41863474245E+03  0.15294330000E+03 0.  0.
<mgrwt>
<rscale>  0 0.65218322E+03</rscale>
<asrwt>0</asrwt>
<pdfrwt beam="1">  1        2 0.58653262E+00 0.76093568E+03</pdfrwt>
<pdfrwt beam="2">  1       -2 0.44587381E-01 0.76093568E+03</pdfrwt>
<totfact> 0.25152044E+00</totfact>
</mgrwt>
</event>
<event>
 4    1  0.2701205E-007  0.7709317E+03  0.7818608E-02  0.9777587E-01
          2   -1    0    0  501    0  0.00000000000E+00  0.00000000000E+00  0.32431029043E+04  0.32431029043E+04  0.25500000000E-02 0. -1.
         -2   -1    0    0    0  501 -0.00000000000E+00 -0.00000000000E+00 -0.31498561862E+03  0.31498561863E+03  0.25500000000E-02 0.  1.
    8880023    1    1    2    0    0  0.21805405728E+03 -0.33612187642E+03  0.30222468485E+04  0.31190241594E+04  0.65864270000E+03 0.  0.
    8880022    1    1    2    0    0 -0.21805405728E+03  0.33612187642E+03 -0.94129562785E+02  0.43906436352E+03  0.15294330000E+03 0.  0.
<mgrwt>
<rscale>  0 0.66579374E+03</rscale>
<asrwt>0</asrwt>
<pdfrwt beam="1">  1        2 0.49893892E+00 0.77093171E+03</pdfrwt>
<pdfrwt beam="2">  1       -2 0.48459325E-01 0.77093171E+03</pdfrwt>
<totfact> 0.52431843E+00</totfact>
</mgrwt>
</event>
<event>
 4    1  0.2701205E-007  0.7676860E+03  0.7818608E-02  0.9785601E-01
         -2   -1    0    0    0  501 -0.00000000000E+00  0.00000000000E+00  0.60699715420E+03  0.60699715421E+03  0.25500000000E-02 0.  1.
          2   -1    0    0  501    0  0.00000000000E+00 -0.00000000000E+00 -0.94670487628E+03  0.94670487628E+03  0.25500000000E-02 0. -1.
    8880023    1    1    2    0    0 -0.11742965580E+03  0.37648615407E+03 -0.66849740197E+03  0.10179540908E+04  0.65864270000E+03 0.  0.
    8880022    1    1    2    0    0  0.11742965580E+03 -0.37648615407E+03  0.32878967989E+03  0.53574793969E+03  0.15294330000E+03 0.  0.
<mgrwt>
<rscale>  0 0.66141043E+03</rscale>
<asrwt>0</asrwt>
<pdfrwt beam="1">  1        2 0.14564690E+00 0.76768597E+03</pdfrwt>
<pdfrwt beam="2">  1       -2 0.93384178E-01 0.76768597E+03</pdfrwt>
<totfact> 0.26839190E+01</totfact>
</mgrwt>
</event>
<event>
 4    1  0.2701205E-007  0.1018097E+04  0.7818608E-02  0.9358255E-01
          2   -1    0    0  501    0  0.00000000000E+00  0.00000000000E+00  0.15790375660E+04  0.15790375660E+04  0.25500000000E-02 0. -1.
         -2   -1    0    0    0  501 -0.00000000000E+00 -0.00000000000E+00 -0.10517813244E+04  0.10517813244E+04  0.25500000000E-02 0.  1.
    8880023    1    1    2    0    0  0.65515937034E+03 -0.41650549212E+03  0.12130853296E+04  0.15836972086E+04  0.65864270000E+03 0. -1.
    8880022    1    1    2    0    0 -0.65515937034E+03  0.41650549212E+03 -0.68582908792E+03  0.10471216817E+04  0.15294330000E+03 0.  0.
<mgrwt>
<rscale>  0 0.95592193E+03</rscale>
<asrwt>0</asrwt>
<pdfrwt beam="1">  1        2 0.24292886E+00 0.10180967E+04</pdfrwt>
<pdfrwt beam="2">  1       -2 0.16181251E+00 0.10180967E+04</pdfrwt>
<totfact> 0.27732891E+00</totfact>
</mgrwt>
</event>
<event>
 4    1  0.2701205E-007  0.8735643E+03  0.7818608E-02  0.9569876E-01
          2   -1    0    0  501    0  0.00000000000E+00  0.00000000000E+00  0.13345614159E+04  0.13345614159E+04  0.25500000000E-02 0. -1.
         -2   -1    0    0    0  501 -0.00000000000E+00 -0.00000000000E+00 -0.50509888750E+03  0.50509888751E+03  0.25500000000E-02 0.  1.
    8880023    1    1    2    0    0 -0.50974337131E+03 -0.26356411927E+03  0.88458721865E+03  0.12432252826E+04  0.65864270000E+03 0. -1.
    8880022    1    1    2    0    0  0.50974337131E+03  0.26356411927E+03 -0.55124690271E+02  0.59643502081E+03  0.15294330000E+03 0.  0.
<mgrwt>
<rscale>  0 0.79322468E+03</rscale>
<asrwt>0</asrwt>
<pdfrwt beam="1">  1        2 0.20531713E+00 0.87356428E+03</pdfrwt>
<pdfrwt beam="2">  1       -2 0.77707524E-01 0.87356428E+03</pdfrwt>
<totfact> 0.23470515E+01</totfact>
</mgrwt>
</event>
<event>
 4    1  0.2701205E-007  0.8058937E+03  0.7818608E-02  0.9698195E-01
         -2   -1    0    0    0  501 -0.00000000000E+00  0.00000000000E+00  0.24270249103E+03  0.24270249105E+03  0.25500000000E-02 0.  1.
          2   -1    0    0  501    0  0.00000000000E+00 -0.00000000000E+00 -0.18735113951E+04  0.18735113951E+04  0.25500000000E-02 0. -1.
    8880023    1    1    2    0    0  0.42027706675E+03  0.19753880873E+03 -0.12870451036E+04  0.15185353795E+04  0.65864270000E+03 0. -1.
    8880022    1    1    2    0    0 -0.42027706675E+03 -0.19753880873E+03 -0.34376380044E+03  0.59767850664E+03  0.15294330000E+03 0.  0.
<mgrwt>
<rscale>  0 0.71124381E+03</rscale>
<asrwt>0</asrwt>
<pdfrwt beam="1">  1        2 0.28823251E+00 0.80589367E+03</pdfrwt>
<pdfrwt beam="2">  1       -2 0.37338846E-01 0.80589367E+03</pdfrwt>
<totfact> 0.54233582E+01</totfact>
</mgrwt>
</event>
<event>
 4    1  0.2701205E-007  0.1157576E+04  0.7818608E-02  0.9199507E-01
         -2   -1    0    0    0  501 -0.00000000000E+00  0.00000000000E+00  0.18448669685E+04  0.18448669685E+04  0.25500000000E-02 0.  1.
          2   -1    0    0  501    0  0.00000000000E+00 -0.00000000000E+00 -0.73666893199E+03  0.73666893200E+03  0.25500000000E-02 0. -1.
    8880023    1    1    2    0    0  0.56333101684E+03  0.76735249105E+03  0.11292685028E+04  0.16171670408E+04  0.65864270000E+03 0.  1.
    8880022    1    1    2    0    0 -0.56333101684E+03 -0.76735249105E+03 -0.21070466293E+02  0.96436885973E+03  0.15294330000E+03 0.  0.
<mgrwt>
<rscale>  0 0.11058519E+04</rscale>
<asrwt>0</asrwt>
<pdfrwt beam="1">  1        2 0.11333368E+00 0.11575759E+04</pdfrwt>
<pdfrwt beam="2">  1       -2 0.28382568E+00 0.11575759E+04</pdfrwt>
<totfact> 0.15080449E+00</totfact>
</mgrwt>
</event>
<event>
 4    1  0.2701205E-007  0.1045492E+04  0.7818608E-02  0.9324321E-01
          2   -1    0    0  501    0  0.00000000000E+00  0.00000000000E+00  0.10967052237E+04  0.10967052237E+04  0.25500000000E-02 0. -1.
         -2   -1    0    0    0  501 -0.00000000000E+00 -0.00000000000E+00 -0.17654893152E+04  0.17654893152E+04  0.25500000000E-02 0.  1.
    8880023    1    1    2    0    0  0.75086482577E+03 -0.30894150214E+03  0.70366868928E+03  0.12602391316E+04  0.65864270000E+03 0. -1.
    8880022    1    1    2    0    0 -0.75086482577E+03  0.30894150214E+03 -0.13724527808E+04  0.16019554073E+04  0.15294330000E+03 0.  0.
<mgrwt>
<rscale>  0 0.98574366E+03</rscale>
<asrwt>0</asrwt>
<pdfrwt beam="1">  1        2 0.16872388E+00 0.10454918E+04</pdfrwt>
<pdfrwt beam="2">  1       -2 0.27161374E+00 0.10454918E+04</pdfrwt>
<totfact> 0.10302924E+00</totfact>
</mgrwt>
</event>
<event>
 4    1  0.2701205E-007  0.1046626E+04  0.7818608E-02  0.9322949E-01
         -2   -1    0    0    0  501 -0.00000000000E+00  0.00000000000E+00  0.76717293696E+03  0.76717293697E+03  0.25500000000E-02 0.  1.
          2   -1    0    0  501    0  0.00000000000E+00 -0.00000000000E+00 -0.23992972924E+04  0.23992972924E+04  0.25500000000E-02 0. -1.
    8880023    1    1    2    0    0  0.19143695663E+03  0.79054830545E+03 -0.20026592562E+04  0.22596612654E+04  0.65864270000E+03 0. -1.
    8880022    1    1    2    0    0 -0.19143695663E+03 -0.79054830545E+03  0.37053490069E+03  0.90680896404E+03  0.15294330000E+03 0.  0.
<mgrwt>
<rscale>  0 0.98697309E+03</rscale>
<asrwt>0</asrwt>
<pdfrwt beam="1">  1        2 0.36912266E+00 0.10466255E+04</pdfrwt>
<pdfrwt beam="2">  1       -2 0.11802661E+00 0.10466255E+04</pdfrwt>
<totfact> 0.21991051E+00</totfact>
</mgrwt>
</event>
<event>
 4    1  0.2701205E-007  0.1895988E+04  0.7818608E-02  0.8671219E-01
          2   -1    0    0  501    0  0.00000000000E+00  0.00000000000E+00  0.23082171247E+04  0.23082171247E+04  0.25500000000E-02 0. -1.
         -2   -1    0    0    0  501 -0.00000000000E+00 -0.00000000000E+00 -0.15546444763E+04  0.15546444763E+04  0.25500000000E-02 0.  1.
    8880023    1    1    2    0    0  0.17382081721E+03  0.17693910978E+04 -0.70497263265E+02  0.18972977109E+04  0.65864270000E+03 0. -1.
    8880022    1    1    2    0    0 -0.17382081721E+03 -0.17693910978E+04  0.82406991165E+03  0.19655638900E+04  0.15294330000E+03 0.  0.
<mgrwt>
<rscale>  0 0.18674725E+04</rscale>
<asrwt>0</asrwt>
<pdfrwt beam="1">  1        2 0.35511033E+00 0.18959875E+04</pdfrwt>
<pdfrwt beam="2">  1       -2 0.23917607E+00 0.18959875E+04</pdfrwt>
<totfact> 0.30275805E-01</totfact>
</mgrwt>
</event>
<event>
 4    1  0.2701205E-007  0.9959136E+03  0.7818608E-02  0.9386924E-01
         -2   -1    0    0    0  501 -0.00000000000E+00  0.00000000000E+00  0.75226114934E+03  0.75226114934E+03  0.25500000000E-02 0.  1.
          2   -1    0    0  501    0  0.00000000000E+00 -0.00000000000E+00 -0.11445565872E+04  0.11445565872E+04  0.25500000000E-02 0. -1.
    8880023    1    1    2    0    0 -0.71325442633E+03  0.22204017162E+03 -0.52030075623E+03  0.11236355271E+04  0.65864270000E+03 0. -1.
    8880022    1    1    2    0    0  0.71325442633E+03 -0.22204017162E+03  0.12800531838E+03  0.77318220947E+03  0.15294330000E+03 0.  0.
<mgrwt>
<rscale>  0 0.93159682E+03</rscale>
<asrwt>0</asrwt>
<pdfrwt beam="1">  1        2 0.17608563E+00 0.99591361E+03</pdfrwt>
<pdfrwt beam="2">  1       -2 0.11573248E+00 0.99591361E+03</pdfrwt>
<totfact> 0.11796811E+01</totfact>
</mgrwt>
</event>
<event>
 4    1  0.2701205E-007  0.7212414E+03  0.7818608E-02  0.9918408E-01
          2   -1    0    0  501    0  0.00000000000E+00  0.00000000000E+00  0.25075284518E+04  0.25075284518E+04  0.25500000000E-02 0. -1.
         -2   -1    0    0    0  501 -0.00000000000E+00 -0.00000000000E+00 -0.19075394179E+03  0.19075394181E+03  0.25500000000E-02 0.  1.
    8880023    1    1    2    0    0 -0.68760115653E+02 -0.28574640097E+03  0.22467097534E+04  0.23596385065E+04  0.65864270000E+03 0.  0.
    8880022    1    1    2    0    0  0.68760115653E+02  0.28574640097E+03  0.70064756694E+02  0.33864388717E+03  0.15294330000E+03 0.  0.
<mgrwt>
<rscale>  0 0.59377410E+03</rscale>
<asrwt>0</asrwt>
<pdfrwt beam="1">  1        2 0.38577360E+00 0.72124141E+03</pdfrwt>
<pdfrwt beam="2">  1       -2 0.29346761E-01 0.72124141E+03</pdfrwt>
<totfact> 0.38519823E+01</totfact>
</mgrwt>
</event>
<event>
 4    1  0.2701205E-007  0.1401506E+04  0.7818608E-02  0.8982513E-01
          2   -1    0    0  501    0  0.00000000000E+00  0.00000000000E+00  0.18100554070E+04  0.18100554070E+04  0.25500000000E-02 0. -1.
         -2   -1    0    0    0  501 -0.00000000000E+00 -0.00000000000E+00 -0.11965373360E+04  0.11965373360E+04  0.25500000000E-02 0.  1.
    8880023    1    1    2    0    0  0.60625855440E+03 -0.10783600226E+04  0.97668067995E+03  0.17082520686E+04  0.65864270000E+03 0.  0.
    8880022    1    1    2    0    0 -0.60625855440E+03  0.10783600226E+04 -0.36316260886E+03  0.12983406744E+04  0.15294330000E+03 0.  0.
<mgrwt>
<rscale>  0 0.13610395E+04</rscale>
<asrwt>0</asrwt>
<pdfrwt beam="1">  1        2 0.27847006E+00 0.14015063E+04</pdfrwt>
<pdfrwt beam="2">  1       -2 0.18408267E+00 0.14015063E+04</pdfrwt>
<totfact> 0.13759048E+00</totfact>
</mgrwt>
</event>
<event>
 4    1  0.2701205E-007  0.8641171E+03  0.7818608E-02  0.9586281E-01
          2   -1    0    0  501    0  0.00000000000E+00  0.00000000000E+00  0.68282392860E+03  0.68282392861E+03  0.25500000000E-02 0. -1.
         -2   -1    0    0    0  501 -0.00000000000E+00 -0.00000000000E+00 -0.16421286502E+04  0.16421286502E+04  0.25500000000E-02 0.  1.
    8880023    1    1    2    0    0  0.50913585368E+03 -0.23166551486E+03  0.31911534009E+03  0.92115852860E+03  0.65864270000E+03 0.  0.
    8880022    1    1    2    0    0 -0.50913585368E+03  0.23166551486E+03 -0.12784200617E+04  0.14037940502E+04  0.15294330000E+03 0.  0.
<mgrwt>
<rscale>  0 0.78210863E+03</rscale>
<asrwt>0</asrwt>
<pdfrwt beam="1">  1        2 0.10504984E+00 0.86411714E+03</pdfrwt>
<pdfrwt beam="2">  1       -2 0.25263518E+00 0.86411714E+03</pdfrwt>
<totfact> 0.26565938E+00</totfact>
</mgrwt>
</event>
<event>
 4    1  0.2701205E-007  0.8980652E+03  0.7818608E-02  0.9529145E-01
         -2   -1    0    0    0  501 -0.00000000000E+00  0.00000000000E+00  0.33483511645E+04  0.33483511645E+04  0.25500000000E-02 0.  1.
          2   -1    0    0  501    0  0.00000000000E+00 -0.00000000000E+00 -0.47806411778E+03  0.47806411779E+03  0.25500000000E-02 0. -1.
    8880023    1    1    2    0    0 -0.14797787809E+03 -0.59229502512E+03  0.10430915065E+02  0.89812574812E+03  0.65864270000E+03 0. -1.
    8880022    1    1    2    0    0  0.14797787809E+03  0.59229502512E+03  0.28598561316E+04  0.29282895341E+04  0.15294330000E+03 0.  0.
<mgrwt>
<rscale>  0 0.82168780E+03</rscale>
<asrwt>0</asrwt>
<pdfrwt beam="1">  1        2 0.73548323E-01 0.89806517E+03</pdfrwt>
<pdfrwt beam="2">  1       -2 0.51513097E+00 0.89806517E+03</pdfrwt>
<totfact> 0.88714919E-02</totfact>
</mgrwt>
</event>
<event>
 4    1  0.2701205E-007  0.9174344E+03  0.7818608E-02  0.9498604E-01
          2   -1    0    0  501    0  0.00000000000E+00  0.00000000000E+00  0.20499688330E+04  0.20499688330E+04  0.25500000000E-02 0. -1.
         -2   -1    0    0    0  501 -0.00000000000E+00 -0.00000000000E+00 -0.43335173433E+03  0.43335173434E+03  0.25500000000E-02 0.  1.
    8880023    1    1    2    0    0  0.24632314624E+03  0.58923728141E+03  0.15782022753E+04  0.18254885084E+04  0.65864270000E+03 0. -1.
    8880022    1    1    2    0    0 -0.24632314624E+03 -0.58923728141E+03  0.38414823407E+02  0.65783205900E+03  0.15294330000E+03 0.  1.
<mgrwt>
<rscale>  0 0.84386812E+03</rscale>
<asrwt>0</asrwt>
<pdfrwt beam="1">  1        2 0.31537982E+00 0.91743440E+03</pdfrwt>
<pdfrwt beam="2">  1       -2 0.66669497E-01 0.91743440E+03</pdfrwt>
<totfact> 0.13125262E+01</totfact>
</mgrwt>
</event>
<event>
 4    1  0.2701205E-007  0.2156548E+04  0.7818608E-02  0.8547369E-01
         -2   -1    0    0    0  501 -0.00000000000E+00  0.00000000000E+00  0.33765389266E+04  0.33765389266E+04  0.25500000000E-02 0.  1.
          2   -1    0    0  501    0  0.00000000000E+00 -0.00000000000E+00 -0.23892847304E+04  0.23892847304E+04  0.25500000000E-02 0. -1.
    8880023    1    1    2    0    0 -0.10970970911E+04  0.17358764044E+04 -0.14321314370E+04  0.25887641024E+04  0.65864270000E+03 0.  0.
    8880022    1    1    2    0    0  0.10970970911E+04 -0.17358764044E+04  0.24193856332E+04  0.31770595546E+04  0.15294330000E+03 0.  0.
<mgrwt>
<rscale>  0 0.21317863E+04</rscale>
<asrwt>0</asrwt>
<pdfrwt beam="1">  1        2 0.36758227E+00 0.21565480E+04</pdfrwt>
<pdfrwt beam="2">  1       -2 0.51946753E+00 0.21565480E+04</pdfrwt>
<totfact> 0.43374052E-03</totfact>
</mgrwt>
</event>
<event>
 4    1  0.2701205E-007  0.7920330E+03  0.7818608E-02  0.9728295E-01
          2   -1    0    0  501    0  0.00000000000E+00  0.00000000000E+00  0.23804215014E+04  0.23804215014E+04  0.25500000000E-02 0. -1.
         -2   -1    0    0    0  501 -0.00000000000E+00 -0.00000000000E+00 -0.17709086919E+03  0.17709086921E+03  0.25500000000E-02 0.  1.
    8880023    1    1    2    0    0  0.43504319130E+03 -0.65142519950E+02  0.16775699852E+04  0.18551434952E+04  0.65864270000E+03 0.  0.
    8880022    1    1    2    0    0 -0.43504319130E+03  0.65142519950E+02  0.52576064696E+03  0.70236887538E+03  0.15294330000E+03 0.  0.
<mgrwt>
<rscale>  0 0.69356850E+03</rscale>
<asrwt>0</asrwt>
<pdfrwt beam="1">  1        2 0.36621870E+00 0.79203304E+03</pdfrwt>
<pdfrwt beam="2">  1       -2 0.27244748E-01 0.79203304E+03</pdfrwt>
<totfact> 0.51596897E+01</totfact>
</mgrwt>
</event>
<event>
 4    1  0.2701205E-007  0.1447933E+04  0.7818608E-02  0.8947305E-01
          2   -1    0    0  501    0  0.00000000000E+00  0.00000000000E+00  0.21317115439E+04  0.21317115439E+04  0.25500000000E-02 0. -1.
         -2   -1    0    0    0  501 -0.00000000000E+00 -0.00000000000E+00 -0.12376825885E+04  0.12376825885E+04  0.25500000000E-02 0.  1.
    8880023    1    1    2    0    0 -0.11604395001E+04  0.56220940674E+03  0.13632622027E+04  0.19887164931E+04  0.65864270000E+03 0.  0.
    8880022    1    1    2    0    0  0.11604395001E+04 -0.56220940674E+03 -0.46923324731E+03  0.13806776393E+04  0.15294330000E+03 0.  0.
<mgrwt>
<rscale>  0 0.14090339E+04</rscale>
<asrwt>0</asrwt>
<pdfrwt beam="1">  1        2 0.32795562E+00 0.14479328E+04</pdfrwt>
<pdfrwt beam="2">  1       -2 0.19041271E+00 0.14479328E+04</pdfrwt>
<totfact> 0.82092504E-01</totfact>
</mgrwt>
</event>
<event>
 4    1  0.2701205E-007  0.8904887E+03  0.7818608E-02  0.9541476E-01
          2   -1    0    0  501    0  0.00000000000E+00  0.00000000000E+00  0.14284084007E+04  0.14284084007E+04  0.25500000000E-02 0. -1.
         -2   -1    0    0    0  501 -0.00000000000E+00 -0.00000000000E+00 -0.11736930604E+04  0.11736930604E+04  0.25500000000E-02 0.  1.
    8880023    1    1    2    0    0 -0.19187855465E+03 -0.56775220794E+03  0.11866395947E+04  0.14836049620E+04  0.65864270000E+03 0.  0.
    8880022    1    1    2    0    0  0.19187855465E+03  0.56775220794E+03 -0.93192425440E+03  0.11184964990E+04  0.15294330000E+03 0.  0.
<mgrwt>
<rscale>  0 0.81293827E+03</rscale>
<asrwt>0</asrwt>
<pdfrwt beam="1">  1        2 0.21975514E+00 0.89048872E+03</pdfrwt>
<pdfrwt beam="2">  1       -2 0.18056816E+00 0.89048872E+03</pdfrwt>
<totfact> 0.25213566E+00</totfact>
</mgrwt>
</event>
<event>
 4    1  0.2701205E-007  0.6978576E+03  0.7818608E-02  0.1000621E+00
          2   -1    0    0  501    0  0.00000000000E+00  0.00000000000E+00  0.19285848569E+04  0.19285848569E+04  0.25500000000E-02 0. -1.
         -2   -1    0    0    0  501 -0.00000000000E+00 -0.00000000000E+00 -0.12868433336E+03  0.12868433339E+03  0.25500000000E-02 0.  1.
    8880023    1    1    2    0    0  0.22770615280E+03 -0.36672711535E+02  0.14657420556E+04  0.16233930392E+04  0.65864270000E+03 0. -1.
    8880022    1    1    2    0    0 -0.22770615280E+03  0.36672711535E+02  0.33415846789E+03  0.43387615107E+03  0.15294330000E+03 0.  0.
<mgrwt>
<rscale>  0 0.55378886E+03</rscale>
<asrwt>0</asrwt>
<pdfrwt beam="1">  1        2 0.29670535E+00 0.69785757E+03</pdfrwt>
<pdfrwt beam="2">  1       -2 0.19797590E-01 0.69785757E+03</pdfrwt>
<totfact> 0.16350027E+02</totfact>
</mgrwt>
</event>
<event>
 4    1  0.2701205E-007  0.7375089E+03  0.7818608E-02  0.9867264E-01
         -2   -1    0    0    0  501 -0.00000000000E+00  0.00000000000E+00  0.31170044278E+03  0.31170044279E+03  0.25500000000E-02 0.  1.
          2   -1    0    0  501    0  0.00000000000E+00 -0.00000000000E+00 -0.23408852980E+04  0.23408852980E+04  0.25500000000E-02 0. -1.
    8880023    1    1    2    0    0 -0.32103513661E+03 -0.83937799177E+02 -0.21458369905E+04  0.22690384988E+04  0.65864270000E+03 0. -1.
    8880022    1    1    2    0    0  0.32103513661E+03  0.83937799177E+02  0.11665213535E+03  0.38354724190E+03  0.15294330000E+03 0.  0.
<mgrwt>
<rscale>  0 0.61874386E+03</rscale>
<asrwt>0</asrwt>
<pdfrwt beam="1">  1        2 0.36013619E+00 0.73750886E+03</pdfrwt>
<pdfrwt beam="2">  1       -2 0.47953916E-01 0.73750886E+03</pdfrwt>
<totfact> 0.18486906E+01</totfact>
</mgrwt>
</event>
<event>
 4    1  0.2701205E-007  0.1470921E+04  0.7818608E-02  0.8930447E-01
          2   -1    0    0  501    0  0.00000000000E+00  0.00000000000E+00  0.27969272184E+04  0.27969272184E+04  0.25500000000E-02 0. -1.
         -2   -1    0    0    0  501 -0.00000000000E+00 -0.00000000000E+00 -0.12221359241E+04  0.12221359241E+04  0.25500000000E-02 0.  1.
    8880023    1    1    2    0    0 -0.79775282905E+03 -0.10456522218E+04  0.21256583452E+04  0.25849626210E+04  0.65864270000E+03 0.  0.
    8880022    1    1    2    0    0  0.79775282905E+03  0.10456522218E+04 -0.55086705086E+03  0.14341005215E+04  0.15294330000E+03 0.  0.
<mgrwt>
<rscale>  0 0.14327506E+04</rscale>
<asrwt>0</asrwt>
<pdfrwt beam="1">  1        2 0.43029649E+00 0.14709209E+04</pdfrwt>
<pdfrwt beam="2">  1       -2 0.18802091E+00 0.14709209E+04</pdfrwt>
<totfact> 0.35086778E-01</totfact>
</mgrwt>
</event>
<event>
 4    1  0.2701205E-007  0.1325368E+04  0.7818608E-02  0.9043957E-01
         -2   -1    0    0    0  501 -0.00000000000E+00  0.00000000000E+00  0.81023868213E+03  0.81023868213E+03  0.25500000000E-02 0.  1.
          2   -1    0    0  501    0  0.00000000000E+00 -0.00000000000E+00 -0.23146729438E+04  0.23146729438E+04  0.25500000000E-02 0. -1.
    8880023    1    1    2    0    0  0.83597916152E+03 -0.78989144438E+03 -0.14484439497E+04  0.19633109112E+04  0.65864270000E+03 0. -1.
    8880022    1    1    2    0    0 -0.83597916152E+03  0.78989144438E+03 -0.55990311966E+02  0.11616007147E+04  0.15294330000E+03 0.  0.
<mgrwt>
<rscale>  0 0.12820066E+04</rscale>
<asrwt>0</asrwt>
<pdfrwt beam="1">  1        2 0.35610353E+00 0.13253678E+04</pdfrwt>
<pdfrwt beam="2">  1       -2 0.12465211E+00 0.13253678E+04</pdfrwt>
<totfact> 0.20718884E+00</totfact>
</mgrwt>
</event>
<event>
 4    1  0.2701205E-007  0.1010357E+04  0.7818608E-02  0.9368131E-01
         -2   -1    0    0    0  501 -0.00000000000E+00  0.00000000000E+00  0.10593506183E+04  0.10593506183E+04  0.25500000000E-02 0.  1.
          2   -1    0    0  501    0  0.00000000000E+00 -0.00000000000E+00 -0.16031262913E+04  0.16031262913E+04  0.25500000000E-02 0. -1.
    8880023    1    1    2    0    0  0.48818771953E+03 -0.59049425567E+03 -0.12514089188E+04  0.16083672478E+04  0.65864270000E+03 0. -1.
    8880022    1    1    2    0    0 -0.48818771953E+03  0.59049425567E+03  0.70763324579E+03  0.10541096618E+04  0.15294330000E+03 0.  0.
<mgrwt>
<rscale>  0 0.94745395E+03</rscale>
<asrwt>0</asrwt>
<pdfrwt beam="1">  1        2 0.24663481E+00 0.10103568E+04</pdfrwt>
<pdfrwt beam="2">  1       -2 0.16297702E+00 0.10103568E+04</pdfrwt>
<totfact> 0.26390603E+00</totfact>
</mgrwt>
</event>
<event>
 4    1  0.2701205E-007  0.1750200E+04  0.7818608E-02  0.8750596E-01
         -2   -1    0    0    0  501 -0.00000000000E+00  0.00000000000E+00  0.18421115700E+04  0.18421115700E+04  0.25500000000E-02 0.  1.
          2   -1    0    0  501    0  0.00000000000E+00 -0.00000000000E+00 -0.22342097965E+04  0.22342097965E+04  0.25500000000E-02 0. -1.
    8880023    1    1    2    0    0 -0.34136065555E+03  0.15852006348E+04 -0.13287671676E+04  0.21974577451E+04  0.65864270000E+03 0.  0.
    8880022    1    1    2    0    0  0.34136065555E+03 -0.15852006348E+04  0.93666894110E+03  0.18788636214E+04  0.15294330000E+03 0.  0.
<mgrwt>
<rscale>  0 0.17190097E+04</rscale>
<asrwt>0</asrwt>
<pdfrwt beam="1">  1        2 0.34372458E+00 0.17501995E+04</pdfrwt>
<pdfrwt beam="2">  1       -2 0.28340178E+00 0.17501995E+04</pdfrwt>
<totfact> 0.18073310E-01</totfact>
</mgrwt>
</event>
<event>
 4    1  0.2701205E-007  0.2151080E+04  0.7818608E-02  0.8549767E-01
         -2   -1    0    0    0  501 -0.00000000000E+00  0.00000000000E+00  0.15417560586E+04  0.15417560586E+04  0.25500000000E-02 0.  1.
          2   -1    0    0  501    0  0.00000000000E+00 -0.00000000000E+00 -0.47553809082E+04  0.47553809082E+04  0.25500000000E-02 0. -1.
    8880023    1    1    2    0    0  0.18181904286E+04 -0.94208169912E+03 -0.36133102957E+04  0.42051344641E+04  0.65864270000E+03 0.  0.
    8880022    1    1    2    0    0 -0.18181904286E+04  0.94208169912E+03  0.39968544603E+03  0.20920025026E+04  0.15294330000E+03 0.  0.
<mgrwt>
<rscale>  0 0.21262500E+04</rscale>
<asrwt>0</asrwt>
<pdfrwt beam="1">  1        2 0.73159706E+00 0.21510799E+04</pdfrwt>
<pdfrwt beam="2">  1       -2 0.23719324E+00 0.21510799E+04</pdfrwt>
<totfact> 0.45351144E-03</totfact>
</mgrwt>
</event>
<event>
 4    1  0.2701205E-007  0.7590971E+03  0.7818608E-02  0.9807451E-01
         -2   -1    0    0    0  501 -0.00000000000E+00  0.00000000000E+00  0.44728510193E+03  0.44728510194E+03  0.25500000000E-02 0.  1.
          2   -1    0    0  501    0  0.00000000000E+00 -0.00000000000E+00 -0.76981265633E+03  0.76981265633E+03  0.25500000000E-02 0. -1.
    8880023    1    1    2    0    0 -0.12697428895E+03  0.35538103064E+03 -0.27393006155E+03  0.80701055252E+03  0.65864270000E+03 0.  1.
    8880022    1    1    2    0    0  0.12697428895E+03 -0.35538103064E+03 -0.48597492844E+02  0.41008720575E+03  0.15294330000E+03 0. -1.
<mgrwt>
<rscale>  0 0.64964224E+03</rscale>
<asrwt>0</asrwt>
<pdfrwt beam="1">  1        2 0.11843272E+00 0.75909706E+03</pdfrwt>
<pdfrwt beam="2">  1       -2 0.68813093E-01 0.75909706E+03</pdfrwt>
<totfact> 0.70797026E+01</totfact>
</mgrwt>
</event>
<event>
 4    1  0.2701205E-007  0.1221912E+04  0.7818608E-02  0.9136111E-01
          2   -1    0    0  501    0  0.00000000000E+00  0.00000000000E+00  0.15141700511E+04  0.15141700511E+04  0.25500000000E-02 0. -1.
         -2   -1    0    0    0  501 -0.00000000000E+00 -0.00000000000E+00 -0.16052951216E+04  0.16052951216E+04  0.25500000000E-02 0.  1.
    8880023    1    1    2    0    0 -0.96850952227E+03  0.34820580800E+03  0.10240279565E+04  0.15942714453E+04  0.65864270000E+03 0.  0.
    8880022    1    1    2    0    0  0.96850952227E+03 -0.34820580800E+03 -0.11151530270E+04  0.15251937274E+04  0.15294330000E+03 0.  0.
<mgrwt>
<rscale>  0 0.11737912E+04</rscale>
<asrwt>0</asrwt>
<pdfrwt beam="1">  1        2 0.23294924E+00 0.12219117E+04</pdfrwt>
<pdfrwt beam="2">  1       -2 0.24696848E+00 0.12219117E+04</pdfrwt>
<totfact> 0.81003116E-01</totfact>
</mgrwt>
</event>
<event>
 4    1  0.2701205E-007  0.1147198E+04  0.7818608E-02  0.9210241E-01
         -2   -1    0    0    0  501 -0.00000000000E+00  0.00000000000E+00  0.14780345289E+04  0.14780345289E+04  0.25500000000E-02 0.  1.
          2   -1    0    0  501    0  0.00000000000E+00 -0.00000000000E+00 -0.89280219617E+03  0.89280219617E+03  0.25500000000E-02 0. -1.
    8880023    1    1    2    0    0  0.93912412604E+03  0.17273694565E+02 -0.16502629053E+03  0.11590066382E+04  0.65864270000E+03 0.  0.
    8880022    1    1    2    0    0 -0.93912412604E+03 -0.17273694565E+02  0.75025862330E+03  0.12118300869E+04  0.15294330000E+03 0.  0.
<mgrwt>
<rscale>  0 0.10948344E+04</rscale>
<asrwt>0</asrwt>
<pdfrwt beam="1">  1        2 0.13735419E+00 0.11471978E+04</pdfrwt>
<pdfrwt beam="2">  1       -2 0.22738992E+00 0.11471978E+04</pdfrwt>
<totfact> 0.25780766E+00</totfact>
</mgrwt>
</event>
<event>
 4    1  0.2701205E-007  0.9385745E+03  0.7818608E-02  0.9466747E-01
          2   -1    0    0  501    0  0.00000000000E+00  0.00000000000E+00  0.22680250146E+04  0.22680250146E+04  0.25500000000E-02 0. -1.
         -2   -1    0    0    0  501 -0.00000000000E+00 -0.00000000000E+00 -0.32851607662E+03  0.32851607663E+03  0.25500000000E-02 0.  1.
    8880023    1    1    2    0    0  0.65787374713E+03 -0.11964159715E+03  0.66868361771E+03  0.11524148410E+04  0.65864270000E+03 0.  0.
    8880022    1    1    2    0    0 -0.65787374713E+03  0.11964159715E+03  0.12708253203E+04  0.14441262502E+04  0.15294330000E+03 0.  0.
<mgrwt>
<rscale>  0 0.86780461E+03</rscale>
<asrwt>0</asrwt>
<pdfrwt beam="1">  1        2 0.34892693E+00 0.93857455E+03</pdfrwt>
<pdfrwt beam="2">  1       -2 0.50540934E-01 0.93857455E+03</pdfrwt>
<totfact> 0.17761666E+01</totfact>
</mgrwt>
</event>
<event>
 4    1  0.2701205E-007  0.8079412E+03  0.7818608E-02  0.9693881E-01
         -2   -1    0    0    0  501 -0.00000000000E+00  0.00000000000E+00  0.92921212252E+03  0.92921212252E+03  0.25500000000E-02 0.  1.
          2   -1    0    0  501    0  0.00000000000E+00 -0.00000000000E+00 -0.87924350268E+03  0.87924350269E+03  0.25500000000E-02 0. -1.
    8880023    1    1    2    0    0 -0.28787303633E+03  0.36890099711E+03 -0.59044232776E+03  0.10006953479E+04  0.65864270000E+03 0. -1.
    8880022    1    1    2    0    0  0.28787303633E+03 -0.36890099711E+03  0.64041094759E+03  0.80776027727E+03  0.15294330000E+03 0.  0.
<mgrwt>
<rscale>  0 0.71382264E+03</rscale>
<asrwt>0</asrwt>
<pdfrwt beam="1">  1        2 0.13526823E+00 0.80794123E+03</pdfrwt>
<pdfrwt beam="2">  1       -2 0.14295571E+00 0.80794123E+03</pdfrwt>
<totfact> 0.10406600E+01</totfact>
</mgrwt>
</event>
<event>
 4    1  0.2701205E-007  0.1038860E+04  0.7818608E-02  0.9332395E-01
          2   -1    0    0  501    0  0.00000000000E+00  0.00000000000E+00  0.24548466970E+04  0.24548466970E+04  0.25500000000E-02 0. -1.
         -2   -1    0    0    0  501 -0.00000000000E+00 -0.00000000000E+00 -0.40967284066E+03  0.40967284067E+03  0.25500000000E-02 0.  1.
    8880023    1    1    2    0    0  0.58415984675E+03 -0.55152223601E+03  0.16653552460E+04  0.19628137469E+04  0.65864270000E+03 0.  0.
    8880022    1    1    2    0    0 -0.58415984675E+03  0.55152223601E+03  0.37981861038E+03  0.90170579080E+03  0.15294330000E+03 0.  0.
<mgrwt>
<rscale>  0 0.97854465E+03</rscale>
<asrwt>0</asrwt>
<pdfrwt beam="1">  1        2 0.37766872E+00 0.10388598E+04</pdfrwt>
<pdfrwt beam="2">  1       -2 0.63026591E-01 0.10388598E+04</pdfrwt>
<totfact> 0.86741378E+00</totfact>
</mgrwt>
</event>
<event>
 4    1  0.2701205E-007  0.6667426E+03  0.7818608E-02  0.1018114E+00
         -2   -1    0    0    0  501 -0.00000000000E+00  0.00000000000E+00  0.63489367692E+03  0.63489367692E+03  0.25500000000E-02 0.  1.
          2   -1    0    0  501    0  0.00000000000E+00 -0.00000000000E+00 -0.31650592319E+04  0.31650592319E+04  0.25500000000E-02 0. -1.
    8880023    1    1    2    0    0  0.73130884645E+02  0.73398257355E+02 -0.31155585412E+04  0.31861027385E+04  0.65864270000E+03 0. -1.
    8880022    1    1    2    0    0 -0.73130884645E+02 -0.73398257355E+02  0.58539298613E+03  0.61385017039E+03  0.15294330000E+03 0.  0.
<mgrwt>
<rscale>  0 0.48373335E+03</rscale>
<asrwt>0</asrwt>
<pdfrwt beam="1">  1        2 0.48693218E+00 0.66674256E+03</pdfrwt>
<pdfrwt beam="2">  1       -2 0.97675953E-01 0.66674256E+03</pdfrwt>
<totfact> 0.13075222E+00</totfact>
</mgrwt>
</event>
<event>
 4    1  0.2701205E-007  0.1000888E+04  0.7818608E-02  0.9380397E-01
         -2   -1    0    0    0  501 -0.00000000000E+00  0.00000000000E+00  0.17574447869E+04  0.17574447869E+04  0.25500000000E-02 0.  1.
          2   -1    0    0  501    0  0.00000000000E+00 -0.00000000000E+00 -0.79662542383E+03  0.79662542383E+03  0.25500000000E-02 0. -1.
    8880023    1    1    2    0    0  0.73318724629E+03  0.17436326968E+03 -0.32800369334E+03  0.10532628908E+04  0.65864270000E+03 0.  0.
    8880022    1    1    2    0    0 -0.73318724629E+03 -0.17436326968E+03  0.12888230564E+04  0.15008073200E+04  0.15294330000E+03 0.  0.
<mgrwt>
<rscale>  0 0.93706630E+03</rscale>
<asrwt>0</asrwt>
<pdfrwt beam="1">  1        2 0.12255776E+00 0.10008878E+04</pdfrwt>
<pdfrwt beam="2">  1       -2 0.27037612E+00 0.10008878E+04</pdfrwt>
<totfact> 0.16702393E+00</totfact>
</mgrwt>
</event>
<event>
 4    1  0.2877765E-007  0.1120846E+04  0.7818608E-02  0.9238194E-01
          2   -1    0    0  501    0  0.00000000000E+00  0.00000000000E+00  0.24679592304E+04  0.24679592304E+04  0.25500000000E-02 0. -1.
         -2   -1    0    0    0  501 -0.00000000000E+00 -0.00000000000E+00 -0.18263777318E+04  0.18263777318E+04  0.25500000000E-02 0.  1.
    8880023    1    1    2    0    0 -0.81587158144E+03  0.39603058969E+03  0.22089537703E+04  0.24770493800E+04  0.65864270000E+03 0. -1.
    8880022    1    1    2    0    0  0.81587158144E+03 -0.39603058969E+03 -0.15673722717E+04  0.18172875822E+04  0.15294330000E+03 0.  0.
<mgrwt>
<rscale>  0 0.10667756E+04</rscale>
<asrwt>0</asrwt>
<pdfrwt beam="1">  1        2 0.37968604E+00 0.11208465E+04</pdfrwt>
<pdfrwt beam="2">  1       -2 0.28098119E+00 0.11208465E+04</pdfrwt>
<totfact> 0.14977267E-01</totfact>
</mgrwt>
</event>
<event>
 4    1  0.2701205E-007  0.6686542E+03  0.7818608E-02  0.1016647E+00
         -2   -1    0    0    0  501 -0.00000000000E+00  0.00000000000E+00  0.19021480574E+04  0.19021480574E+04  0.25500000000E-02 0.  1.
          2   -1    0    0  501    0  0.00000000000E+00 -0.00000000000E+00 -0.15983901158E+03  0.15983901160E+03  0.25500000000E-02 0. -1.
    8880023    1    1    2    0    0  0.85432804744E+02 -0.77391708920E+02  0.58348085681E+03  0.88743921328E+03  0.65864270000E+03 0.  0.
    8880022    1    1    2    0    0 -0.85432804744E+02  0.77391708920E+02  0.11588281890E+04  0.11745478557E+04  0.15294330000E+03 0.  1.
<mgrwt>
<rscale>  0 0.48916423E+03</rscale>
<asrwt>0</asrwt>
<pdfrwt beam="1">  1        2 0.24590616E-01 0.66865421E+03</pdfrwt>
<pdfrwt beam="2">  1       -2 0.29263817E+00 0.66865421E+03</pdfrwt>
<totfact> 0.82425078E+00</totfact>
</mgrwt>
</event>
<event>
 4    1  0.2701205E-007  0.6771751E+03  0.7818608E-02  0.1010969E+00
          2   -1    0    0  501    0  0.00000000000E+00  0.00000000000E+00  0.31642701436E+03  0.31642701437E+03  0.25500000000E-02 0. -1.
         -2   -1    0    0    0  501 -0.00000000000E+00 -0.00000000000E+00 -0.63633384110E+03  0.63633384111E+03  0.25500000000E-02 0.  1.
    8880023    1    1    2    0    0  0.96799372657E+02 -0.12403922438E+03 -0.22365805096E+03  0.71315424541E+03  0.65864270000E+03 0. -1.
    8880022    1    1    2    0    0 -0.96799372657E+02  0.12403922438E+03 -0.96248775785E+02  0.23960661006E+03  0.15294330000E+03 0.  1.
<mgrwt>
<rscale>  0 0.51091356E+03</rscale>
<asrwt>0</asrwt>
<pdfrwt beam="1">  1        2 0.48681079E-01 0.67717505E+03</pdfrwt>
<pdfrwt beam="2">  1       -2 0.97897514E-01 0.67717505E+03</pdfrwt>
<totfact> 0.91067219E+01</totfact>
</mgrwt>
</event>
<event>
 4    1  0.2701205E-007  0.7338137E+03  0.7818608E-02  0.9878348E-01
         -2   -1    0    0    0  501 -0.00000000000E+00  0.00000000000E+00  0.50460111429E+03  0.50460111430E+03  0.25500000000E-02 0.  1.
          2   -1    0    0  501    0  0.00000000000E+00 -0.00000000000E+00 -0.11870107305E+04  0.11870107305E+04  0.25500000000E-02 0. -1.
    8880023    1    1    2    0    0 -0.28688044195E+03 -0.14957256575E+03 -0.98131474466E+03  0.12253412483E+04  0.65864270000E+03 0. -1.
    8880022    1    1    2    0    0  0.28688044195E+03  0.14957256575E+03  0.29890512842E+03  0.46627059655E+03  0.15294330000E+03 0.  0.
<mgrwt>
<rscale>  0 0.61322202E+03</rscale>
<asrwt>0</asrwt>
<pdfrwt beam="1">  1        2 0.18261704E+00 0.73381370E+03</pdfrwt>
<pdfrwt beam="2">  1       -2 0.77630941E-01 0.73381370E+03</pdfrwt>
<totfact> 0.29093400E+01</totfact>
</mgrwt>
</event>
<event>
 4    1  0.2701205E-007  0.6776113E+03  0.7818608E-02  0.1010708E+00
          2   -1    0    0  501    0  0.00000000000E+00  0.00000000000E+00  0.25596544060E+04  0.25596544060E+04  0.25500000000E-02 0. -1.
         -2   -1    0    0    0  501 -0.00000000000E+00 -0.00000000000E+00 -0.28942667856E+03  0.28942667857E+03  0.25500000000E-02 0.  1.
    8880023    1    1    2    0    0  0.15761285834E+01 -0.15919921495E+03  0.24639142761E+04  0.25553924631E+04  0.65864270000E+03 0. -1.
    8880022    1    1    2    0    0 -0.15761285834E+01  0.15919921495E+03 -0.19368654868E+03  0.29368862146E+03  0.15294330000E+03 0.  0.
<mgrwt>
<rscale>  0 0.51194055E+03</rscale>
<asrwt>0</asrwt>
<pdfrwt beam="1">  1        2 0.39379301E+00 0.67761130E+03</pdfrwt>
<pdfrwt beam="2">  1       -2 0.44527179E-01 0.67761130E+03</pdfrwt>
<totfact> 0.16310614E+01</totfact>
</mgrwt>
</event>
<event>
 4    1  0.2701205E-007  0.1368044E+04  0.7818608E-02  0.9008919E-01
          2   -1    0    0  501    0  0.00000000000E+00  0.00000000000E+00  0.12164379074E+04  0.12164379074E+04  0.25500000000E-02 0. -1.
         -2   -1    0    0    0  501 -0.00000000000E+00 -0.00000000000E+00 -0.14768862899E+04  0.14768862899E+04  0.25500000000E-02 0.  1.
    8880023    1    1    2    0    0 -0.69343602239E+03 -0.97820341140E+03  0.23294394189E+03  0.13877350315E+04  0.65864270000E+03 0.  0.
    8880022    1    1    2    0    0  0.69343602239E+03  0.97820341140E+03 -0.49339232438E+03  0.13055891659E+04  0.15294330000E+03 0.  0.
<mgrwt>
<rscale>  0 0.13263592E+04</rscale>
<asrwt>0</asrwt>
<pdfrwt beam="1">  1        2 0.18714429E+00 0.13680445E+04</pdfrwt>
<pdfrwt beam="2">  1       -2 0.22721328E+00 0.13680445E+04</pdfrwt>
<totfact> 0.15747518E+00</totfact>
</mgrwt>
</event>
<event>
 4    1  0.2701205E-007  0.8906874E+03  0.7818608E-02  0.9541150E-01
          2   -1    0    0  501    0  0.00000000000E+00  0.00000000000E+00  0.29351219161E+04  0.29351219161E+04  0.25500000000E-02 0. -1.
         -2   -1    0    0    0  501 -0.00000000000E+00 -0.00000000000E+00 -0.33996017388E+03  0.33996017389E+03  0.25500000000E-02 0.  1.
    8880023    1    1    2    0    0 -0.46717673510E+03 -0.37584536204E+03  0.24937424328E+04  0.26480323573E+04  0.65864270000E+03 0. -1.
    8880022    1    1    2    0    0  0.46717673510E+03  0.37584536204E+03  0.10141930949E+03  0.62704973275E+03  0.15294330000E+03 0.  0.
<mgrwt>
<rscale>  0 0.81316828E+03</rscale>
<asrwt>0</asrwt>
<pdfrwt beam="1">  1        2 0.45155720E+00 0.89068740E+03</pdfrwt>
<pdfrwt beam="2">  1       -2 0.52301567E-01 0.89068740E+03</pdfrwt>
<totfact> 0.68434591E+00</totfact>
</mgrwt>
</event>
<event>
 4    1  0.2701205E-007  0.8304996E+03  0.7818608E-02  0.9648361E-01
         -2   -1    0    0    0  501 -0.00000000000E+00  0.00000000000E+00  0.63662779208E+03  0.63662779209E+03  0.25500000000E-02 0.  1.
          2   -1    0    0  501    0  0.00000000000E+00 -0.00000000000E+00 -0.11169538664E+04  0.11169538664E+04  0.25500000000E-02 0. -1.
    8880023    1    1    2    0    0  0.27429734695E+01  0.50587727941E+03 -0.78564662387E+03  0.11432279605E+04  0.65864270000E+03 0. -1.
    8880022    1    1    2    0    0 -0.27429734695E+01 -0.50587727941E+03  0.30532054954E+03  0.61035369804E+03  0.15294330000E+03 0.  0.
<mgrwt>
<rscale>  0 0.74176369E+03</rscale>
<asrwt>0</asrwt>
<pdfrwt beam="1">  1        2 0.17183906E+00 0.83049958E+03</pdfrwt>
<pdfrwt beam="2">  1       -2 0.97942738E-01 0.83049958E+03</pdfrwt>
<totfact> 0.18627400E+01</totfact>
</mgrwt>
</event>
<event>
 4    1  0.2948144E-007  0.8548691E+03  0.7818608E-02  0.9602756E-01
          2   -1    0    0  501    0  0.00000000000E+00  0.00000000000E+00  0.23949537896E+04  0.23949537896E+04  0.25500000000E-02 0. -1.
         -2   -1    0    0    0  501 -0.00000000000E+00 -0.00000000000E+00 -0.11770529343E+04  0.11770529343E+04  0.25500000000E-02 0.  1.
    8880023    1    1    2    0    0 -0.26620949399E+03  0.47552444659E+03  0.22433503785E+04  0.24007128360E+04  0.65864270000E+03 0. -1.
    8880022    1    1    2    0    0  0.26620949399E+03 -0.47552444659E+03 -0.10254495232E+04  0.11712938878E+04  0.15294330000E+03 0.  0.
<mgrwt>
<rscale>  0 0.77114020E+03</rscale>
<asrwt>0</asrwt>
<pdfrwt beam="1">  1        2 0.36845443E+00 0.85486911E+03</pdfrwt>
<pdfrwt beam="2">  1       -2 0.18108507E+00 0.85486911E+03</pdfrwt>
<totfact> 0.73456703E-01</totfact>
</mgrwt>
</event>
<event>
 4    1  0.2701205E-007  0.8670857E+03  0.7818608E-02  0.9581081E-01
          2   -1    0    0  501    0  0.00000000000E+00  0.00000000000E+00  0.18765033956E+04  0.18765033957E+04  0.25500000000E-02 0. -1.
         -2   -1    0    0    0  501 -0.00000000000E+00 -0.00000000000E+00 -0.62730413941E+03  0.62730413941E+03  0.25500000000E-02 0.  1.
    8880023    1    1    2    0    0 -0.54051367577E+03 -0.16084899045E+03  0.16017449542E+04  0.18213798440E+04  0.65864270000E+03 0. -1.
    8880022    1    1    2    0    0  0.54051367577E+03  0.16084899045E+03 -0.35254569795E+03  0.68242769110E+03  0.15294330000E+03 0.  0.
<mgrwt>
<rscale>  0 0.78561090E+03</rscale>
<asrwt>0</asrwt>
<pdfrwt beam="1">  1        2 0.28869282E+00 0.86708572E+03</pdfrwt>
<pdfrwt beam="2">  1       -2 0.96508332E-01 0.86708572E+03</pdfrwt>
<totfact> 0.71385555E+00</totfact>
</mgrwt>
</event>
<event>
 4    1  0.2701205E-007  0.1057937E+04  0.7818608E-02  0.9309400E-01
         -2   -1    0    0    0  501 -0.00000000000E+00  0.00000000000E+00  0.11381937544E+04  0.11381937544E+04  0.25500000000E-02 0.  1.
          2   -1    0    0  501    0  0.00000000000E+00 -0.00000000000E+00 -0.14441229402E+04  0.14441229402E+04  0.25500000000E-02 0. -1.
    8880023    1    1    2    0    0 -0.47117864654E+03 -0.68074293906E+03 -0.10265464575E+04  0.14741194327E+04  0.65864270000E+03 0. -1.
    8880022    1    1    2    0    0  0.47117864654E+03  0.68074293906E+03  0.72061727168E+03  0.11081972619E+04  0.15294330000E+03 0.  0.
<mgrwt>
<rscale>  0 0.99922019E+03</rscale>
<asrwt>0</asrwt>
<pdfrwt beam="1">  1        2 0.22217276E+00 0.10579369E+04</pdfrwt>
<pdfrwt beam="2">  1       -2 0.17510673E+00 0.10579369E+04</pdfrwt>
<totfact> 0.26394657E+00</totfact>
</mgrwt>
</event>
<event>
 4    1  0.2701205E-007  0.6656683E+03  0.7818608E-02  0.1018979E+00
         -2   -1    0    0    0  501 -0.00000000000E+00  0.00000000000E+00  0.25677238313E+03  0.25677238314E+03  0.25500000000E-02 0.  1.
          2   -1    0    0  501    0  0.00000000000E+00 -0.00000000000E+00 -0.74932957208E+03  0.74932957209E+03  0.25500000000E-02 0. -1.
    8880023    1    1    2    0    0  0.53109862341E+02 -0.80519872492E+02 -0.48771885671E+03  0.82521754513E+03  0.65864270000E+03 0. -1.
    8880022    1    1    2    0    0 -0.53109862341E+02  0.80519872492E+02 -0.48383322466E+01  0.18088441010E+03  0.15294330000E+03 0.  0.
<mgrwt>
<rscale>  0 0.48056800E+03</rscale>
<asrwt>0</asrwt>
<pdfrwt beam="1">  1        2 0.11528147E+00 0.66566832E+03</pdfrwt>
<pdfrwt beam="2">  1       -2 0.39503444E-01 0.66566832E+03</pdfrwt>
<totfact> 0.23050013E+02</totfact>
</mgrwt>
</event>
<event>
 4    1  0.2701205E-007  0.8328303E+03  0.7818608E-02  0.9643850E-01
         -2   -1    0    0    0  501 -0.00000000000E+00  0.00000000000E+00  0.33873394251E+03  0.33873394252E+03  0.25500000000E-02 0.  1.
          2   -1    0    0  501    0  0.00000000000E+00 -0.00000000000E+00 -0.21225754265E+04  0.21225754265E+04  0.25500000000E-02 0. -1.
    8880023    1    1    2    0    0 -0.19303094313E+02 -0.50933635239E+03 -0.17379333232E+04  0.19271789153E+04  0.65864270000E+03 0. -1.
    8880022    1    1    2    0    0  0.19303094313E+02  0.50933635239E+03 -0.45908160726E+02  0.53413045369E+03  0.15294330000E+03 0.  0.
<mgrwt>
<rscale>  0 0.74460630E+03</rscale>
<asrwt>0</asrwt>
<pdfrwt beam="1">  1        2 0.32655005E+00 0.83283032E+03</pdfrwt>
<pdfrwt beam="2">  1       -2 0.52112916E-01 0.83283032E+03</pdfrwt>
<totfact> 0.20340700E+01</totfact>
</mgrwt>
</event>
<event>
 4    1  0.2701205E-007  0.1550538E+04  0.7818608E-02  0.8874749E-01
         -2   -1    0    0    0  501 -0.00000000000E+00  0.00000000000E+00  0.21276071809E+04  0.21276071809E+04  0.25500000000E-02 0.  1.
          2   -1    0    0  501    0  0.00000000000E+00 -0.00000000000E+00 -0.11827410286E+04  0.11827410286E+04  0.25500000000E-02 0. -1.
    8880023    1    1    2    0    0 -0.10956509355E+04  0.87744418718E+03 -0.10004606236E+03  0.15537627538E+04  0.65864270000E+03 0.  0.
    8880022    1    1    2    0    0  0.10956509355E+04 -0.87744418718E+03  0.10449122147E+04  0.17565854558E+04  0.15294330000E+03 0.  0.
<mgrwt>
<rscale>  0 0.15146796E+04</rscale>
<asrwt>0</asrwt>
<pdfrwt beam="1">  1        2 0.18196016E+00 0.15505384E+04</pdfrwt>
<pdfrwt beam="2">  1       -2 0.32732418E+00 0.15505384E+04</pdfrwt>
<totfact> 0.39355445E-01</totfact>
</mgrwt>
</event>
<event>
 4    1  0.2701205E-007  0.1438521E+04  0.7818608E-02  0.8954315E-01
         -2   -1    0    0    0  501 -0.00000000000E+00  0.00000000000E+00  0.20975777273E+04  0.20975777273E+04  0.25500000000E-02 0.  1.
          2   -1    0    0  501    0  0.00000000000E+00 -0.00000000000E+00 -0.99400853978E+03  0.99400853978E+03  0.25500000000E-02 0. -1.
    8880023    1    1    2    0    0 -0.12558088159E+04  0.24181690657E+03  0.70097808257E+02  0.14402274499E+04  0.65864270000E+03 0. -1.
    8880022    1    1    2    0    0  0.12558088159E+04 -0.24181690657E+03  0.10334713792E+04  0.16513588172E+04  0.15294330000E+03 0.  0.
<mgrwt>
<rscale>  0 0.13993145E+04</rscale>
<asrwt>0</asrwt>
<pdfrwt beam="1">  1        2 0.15292439E+00 0.14385206E+04</pdfrwt>
<pdfrwt beam="2">  1       -2 0.32270426E+00 0.14385206E+04</pdfrwt>
<totfact> 0.55888303E-01</totfact>
</mgrwt>
</event>
<event>
 4    1  0.2701205E-007  0.6614450E+03  0.7818608E-02  0.1022722E+00
          2   -1    0    0  501    0  0.00000000000E+00  0.00000000000E+00  0.20078600947E+04  0.20078600947E+04  0.25500000000E-02 0. -1.
         -2   -1    0    0    0  501 -0.00000000000E+00 -0.00000000000E+00 -0.44612298543E+03  0.44612298544E+03  0.25500000000E-02 0.  1.
    8880023    1    1    2    0    0 -0.21869501188E+02 -0.56754339769E+02  0.19355977967E+04  0.20454946509E+04  0.65864270000E+03 0. -1.
    8880022    1    1    2    0    0  0.21869501188E+02  0.56754339769E+02 -0.37386068744E+03  0.40848842920E+03  0.15294330000E+03 0.  0.
<mgrwt>
<rscale>  0 0.46716836E+03</rscale>
<asrwt>0</asrwt>
<pdfrwt beam="1">  1        2 0.30890156E+00 0.66144504E+03</pdfrwt>
<pdfrwt beam="2">  1       -2 0.68634305E-01 0.66144504E+03</pdfrwt>
<totfact> 0.13472286E+01</totfact>
</mgrwt>
</event>
<event>
 4    1  0.2701205E-007  0.1393691E+04  0.7818608E-02  0.8988600E-01
         -2   -1    0    0    0  501 -0.00000000000E+00  0.00000000000E+00  0.11477412128E+04  0.11477412128E+04  0.25500000000E-02 0.  1.
          2   -1    0    0  501    0  0.00000000000E+00 -0.00000000000E+00 -0.19294051596E+04  0.19294051596E+04  0.25500000000E-02 0. -1.
    8880023    1    1    2    0    0 -0.11840652074E+04  0.32642764552E+03 -0.11267821548E+04  0.17922091546E+04  0.65864270000E+03 0.  0.
    8880022    1    1    2    0    0  0.11840652074E+04 -0.32642764552E+03  0.34511820799E+03  0.12849372178E+04  0.15294330000E+03 0.  0.
<mgrwt>
<rscale>  0 0.13529470E+04</rscale>
<asrwt>0</asrwt>
<pdfrwt beam="1">  1        2 0.29683156E+00 0.13936914E+04</pdfrwt>
<pdfrwt beam="2">  1       -2 0.17657557E+00 0.13936914E+04</pdfrwt>
<totfact> 0.13326260E+00</totfact>
</mgrwt>
</event>
<event>
 4    1  0.2701205E-007  0.6728533E+03  0.7818608E-02  0.1013695E+00
         -2   -1    0    0    0  501 -0.00000000000E+00  0.00000000000E+00  0.36252049872E+03  0.36252049872E+03  0.25500000000E-02 0.  1.
          2   -1    0    0  501    0  0.00000000000E+00 -0.00000000000E+00 -0.12300486158E+04  0.12300486158E+04  0.25500000000E-02 0. -1.
    8880023    1    1    2    0    0 -0.46669317835E+02 -0.12939578254E+03 -0.10954241701E+04  0.12855682061E+04  0.65864270000E+03 0. -1.
    8880022    1    1    2    0    0  0.46669317835E+02  0.12939578254E+03  0.22789605304E+03  0.30700090843E+03  0.15294330000E+03 0.  0.
<mgrwt>
<rscale>  0 0.50032180E+03</rscale>
<asrwt>0</asrwt>
<pdfrwt beam="1">  1        2 0.18923825E+00 0.67285325E+03</pdfrwt>
<pdfrwt beam="2">  1       -2 0.55772385E-01 0.67285325E+03</pdfrwt>
<totfact> 0.56288482E+01</totfact>
</mgrwt>
</event>
<event>
 4    1  0.2701205E-007  0.1753013E+04  0.7818608E-02  0.8748983E-01
         -2   -1    0    0    0  501 -0.00000000000E+00  0.00000000000E+00  0.99133488412E+03  0.99133488412E+03  0.25500000000E-02 0.  1.
          2   -1    0    0  501    0  0.00000000000E+00 -0.00000000000E+00 -0.48648139849E+04  0.48648139849E+04  0.25500000000E-02 0. -1.
    8880023    1    1    2    0    0  0.16004564878E+04 -0.27889940273E+03 -0.38431806181E+04  0.42241085824E+04  0.65864270000E+03 0.  0.
    8880022    1    1    2    0    0 -0.16004564878E+04  0.27889940273E+03 -0.30298482645E+02  0.16320402866E+04  0.15294330000E+03 0.  0.
<mgrwt>
<rscale>  0 0.17218802E+04</rscale>
<asrwt>0</asrwt>
<pdfrwt beam="1">  1        2 0.74843291E+00 0.17530134E+04</pdfrwt>
<pdfrwt beam="2">  1       -2 0.15251306E+00 0.17530134E+04</pdfrwt>
<totfact> 0.13555557E-02</totfact>
</mgrwt>
</event>
<event>
 4    1  0.2701205E-007  0.1190471E+04  0.7818608E-02  0.9166441E-01
         -2   -1    0    0    0  501 -0.00000000000E+00  0.00000000000E+00  0.17239432400E+04  0.17239432400E+04  0.25500000000E-02 0.  1.
          2   -1    0    0  501    0  0.00000000000E+00 -0.00000000000E+00 -0.88256084565E+03  0.88256084565E+03  0.25500000000E-02 0. -1.
    8880023    1    1    2    0    0  0.19504459546E+03  0.97230074857E+03  0.10433637373E+04  0.15829811226E+04  0.65864270000E+03 0.  1.
    8880022    1    1    2    0    0 -0.19504459546E+03 -0.97230074857E+03 -0.20198134301E+03  0.10235229630E+04  0.15294330000E+03 0.  0.
<mgrwt>
<rscale>  0 0.11406626E+04</rscale>
<asrwt>0</asrwt>
<pdfrwt beam="1">  1        2 0.13577859E+00 0.11904711E+04</pdfrwt>
<pdfrwt beam="2">  1       -2 0.26522204E+00 0.11904711E+04</pdfrwt>
<totfact> 0.15270380E+00</totfact>
</mgrwt>
</event>
<event>
 4    1  0.2701205E-007  0.7438991E+03  0.7818608E-02  0.9848732E-01
          2   -1    0    0  501    0  0.00000000000E+00  0.00000000000E+00  0.15003853750E+04  0.15003853750E+04  0.25500000000E-02 0. -1.
         -2   -1    0    0    0  501 -0.00000000000E+00 -0.00000000000E+00 -0.38241133424E+03  0.38241133425E+03  0.25500000000E-02 0.  1.
    8880023    1    1    2    0    0 -0.15996986852E+03 -0.30657014928E+03  0.12727745034E+04  0.14742254774E+04  0.65864270000E+03 0. -1.
    8880022    1    1    2    0    0  0.15996986852E+03  0.30657014928E+03 -0.15480046267E+03  0.40857123188E+03  0.15294330000E+03 0.  0.
<mgrwt>
<rscale>  0 0.62811633E+03</rscale>
<asrwt>0</asrwt>
<pdfrwt beam="1">  1        2 0.23082852E+00 0.74389907E+03</pdfrwt>
<pdfrwt beam="2">  1       -2 0.58832512E-01 0.74389907E+03</pdfrwt>
<totfact> 0.35060680E+01</totfact>
</mgrwt>
</event>
<event>
 4    1  0.2701205E-007  0.8211094E+03  0.7818608E-02  0.9666885E-01
          2   -1    0    0  501    0  0.00000000000E+00  0.00000000000E+00  0.37594600130E+03  0.37594600131E+03  0.25500000000E-02 0. -1.
         -2   -1    0    0    0  501 -0.00000000000E+00 -0.00000000000E+00 -0.24804245117E+04  0.24804245117E+04  0.25500000000E-02 0.  1.
    8880023    1    1    2    0    0 -0.47015180482E+03 -0.13916782488E+03 -0.14894163583E+03  0.83450837036E+03  0.65864270000E+03 0. -1.
    8880022    1    1    2    0    0  0.47015180482E+03  0.13916782488E+03 -0.19555368746E+04  0.20218621426E+04  0.15294330000E+03 0.  0.
<mgrwt>
<rscale>  0 0.73023145E+03</rscale>
<asrwt>0</asrwt>
<pdfrwt beam="1">  1        2 0.57837848E-01 0.82110938E+03</pdfrwt>
<pdfrwt beam="2">  1       -2 0.38160376E+00 0.82110938E+03</pdfrwt>
<totfact> 0.87286727E-01</totfact>
</mgrwt>
</event>
<event>
 4    1  0.2701205E-007  0.1430599E+04  0.7818608E-02  0.8960264E-01
          2   -1    0    0  501    0  0.00000000000E+00  0.00000000000E+00  0.13063443895E+04  0.13063443895E+04  0.25500000000E-02 0. -1.
         -2   -1    0    0    0  501 -0.00000000000E+00 -0.00000000000E+00 -0.23493903063E+04  0.23493903063E+04  0.25500000000E-02 0.  1.
    8880023    1    1    2    0    0 -0.33555807863E+03  0.12248283203E+04 -0.16966466358E+04  0.22192844908E+04  0.65864270000E+03 0.  0.
    8880022    1    1    2    0    0  0.33555807863E+03 -0.12248283203E+04  0.65360071900E+03  0.14364502049E+04  0.15294330000E+03 0.  0.
<mgrwt>
<rscale>  0 0.13911305E+04</rscale>
<asrwt>0</asrwt>
<pdfrwt beam="1">  1        2 0.20097606E+00 0.14305991E+04</pdfrwt>
<pdfrwt beam="2">  1       -2 0.36144466E+00 0.14305991E+04</pdfrwt>
<totfact> 0.20552317E-01</totfact>
</mgrwt>
</event>
<event>
 4    1  0.2701205E-007  0.8397453E+03  0.7818608E-02  0.9630661E-01
          2   -1    0    0  501    0  0.00000000000E+00  0.00000000000E+00  0.19779978698E+04  0.19779978698E+04  0.25500000000E-02 0. -1.
         -2   -1    0    0    0  501 -0.00000000000E+00 -0.00000000000E+00 -0.72855396878E+03  0.72855396879E+03  0.25500000000E-02 0.  1.
    8880023    1    1    2    0    0 -0.35348134185E+03  0.38263930529E+03  0.17670523794E+04  0.19564371227E+04  0.65864270000E+03 0.  0.
    8880022    1    1    2    0    0  0.35348134185E+03 -0.38263930529E+03 -0.51760847846E+03  0.75011471588E+03  0.15294330000E+03 0.  0.
<mgrwt>
<rscale>  0 0.75299666E+03</rscale>
<asrwt>0</asrwt>
<pdfrwt beam="1">  1        2 0.30430736E+00 0.83974526E+03</pdfrwt>
<pdfrwt beam="2">  1       -2 0.11208523E+00 0.83974526E+03</pdfrwt>
<totfact> 0.44052462E+00</totfact>
</mgrwt>
</event>
<event>
 4    1  0.2701205E-007  0.9137457E+03  0.7818608E-02  0.9504316E-01
          2   -1    0    0  501    0  0.00000000000E+00  0.00000000000E+00  0.30256944053E+04  0.30256944053E+04  0.25500000000E-02 0. -1.
         -2   -1    0    0    0  501 -0.00000000000E+00 -0.00000000000E+00 -0.25986049564E+03  0.25986049565E+03  0.25500000000E-02 0.  1.
    8880023    1    1    2    0    0  0.61024710683E+03 -0.16946830982E+03  0.23270898156E+04  0.25000556505E+04  0.65864270000E+03 0.  0.
    8880022    1    1    2    0    0 -0.61024710683E+03  0.16946830982E+03  0.43874409411E+03  0.78549925051E+03  0.15294330000E+03 0.  0.
<mgrwt>
<rscale>  0 0.83966365E+03</rscale>
<asrwt>0</asrwt>
<pdfrwt beam="1">  1        2 0.46549147E+00 0.91374572E+03</pdfrwt>
<pdfrwt beam="2">  1       -2 0.39978536E-01 0.91374572E+03</pdfrwt>
<totfact> 0.10289525E+01</totfact>
</mgrwt>
</event>
<event>
 4    1  0.2701205E-007  0.8306261E+03  0.7818608E-02  0.9648115E-01
         -2   -1    0    0    0  501 -0.00000000000E+00  0.00000000000E+00  0.59430724173E+03  0.59430724174E+03  0.25500000000E-02 0.  1.
          2   -1    0    0  501    0  0.00000000000E+00 -0.00000000000E+00 -0.93609889267E+03  0.93609889267E+03  0.25500000000E-02 0. -1.
    8880023    1    1    2    0    0  0.21692719801E+03  0.45724400319E+03 -0.51108176976E+03  0.97526625561E+03  0.65864270000E+03 0. -1.
    8880022    1    1    2    0    0 -0.21692719801E+03 -0.45724400319E+03  0.16929011882E+03  0.55513987880E+03  0.15294330000E+03 0.  0.
<mgrwt>
<rscale>  0 0.74191817E+03</rscale>
<asrwt>0</asrwt>
<pdfrwt beam="1">  1        2 0.14401521E+00 0.83062609E+03</pdfrwt>
<pdfrwt beam="2">  1       -2 0.91431884E-01 0.83062609E+03</pdfrwt>
<totfact> 0.28484962E+01</totfact>
</mgrwt>
</event>
<event>
 4    1  0.2701205E-007  0.1037039E+04  0.7818608E-02  0.9334627E-01
         -2   -1    0    0    0  501 -0.00000000000E+00  0.00000000000E+00  0.10265033577E+04  0.10265033578E+04  0.25500000000E-02 0.  1.
          2   -1    0    0  501    0  0.00000000000E+00 -0.00000000000E+00 -0.94942928638E+03  0.94942928638E+03  0.25500000000E-02 0. -1.
    8880023    1    1    2    0    0 -0.41602313433E+02 -0.79994257583E+03 -0.29700878897E+03  0.10787322671E+04  0.65864270000E+03 0. -1.
    8880022    1    1    2    0    0  0.41602313433E+02  0.79994257583E+03  0.37408286035E+03  0.89720037702E+03  0.15294330000E+03 0.  1.
<mgrwt>
<rscale>  0 0.97656553E+03</rscale>
<asrwt>0</asrwt>
<pdfrwt beam="1">  1        2 0.14606604E+00 0.10370386E+04</pdfrwt>
<pdfrwt beam="2">  1       -2 0.15792359E+00 0.10370386E+04</pdfrwt>
<totfact> 0.70063394E+00</totfact>
</mgrwt>
</event>
<event>
 4    1  0.2701205E-007  0.7028550E+03  0.7818608E-02  0.9985557E-01
         -2   -1    0    0    0  501 -0.00000000000E+00  0.00000000000E+00  0.67090654920E+03  0.67090654920E+03  0.25500000000E-02 0.  1.
          2   -1    0    0  501    0  0.00000000000E+00 -0.00000000000E+00 -0.11170173864E+04  0.11170173864E+04  0.25500000000E-02 0. -1.
    8880023    1    1    2    0    0 -0.14282825307E+03  0.19948709496E+03 -0.96505750203E+03  0.11938765428E+04  0.65864270000E+03 0. -1.
    8880022    1    1    2    0    0  0.14282825307E+03 -0.19948709496E+03  0.51894666484E+03  0.59404739280E+03  0.15294330000E+03 0.  0.
<mgrwt>
<rscale>  0 0.56288082E+03</rscale>
<asrwt>0</asrwt>
<pdfrwt beam="1">  1        2 0.17184883E+00 0.70285505E+03</pdfrwt>
<pdfrwt beam="2">  1       -2 0.10321639E+00 0.70285505E+03</pdfrwt>
<totfact> 0.16675151E+01</totfact>
</mgrwt>
</event>
<event>
 4    1  0.2701205E-007  0.7274577E+03  0.7818608E-02  0.9898115E-01
         -2   -1    0    0    0  501 -0.00000000000E+00  0.00000000000E+00  0.60660433635E+03  0.60660433636E+03  0.25500000000E-02 0.  1.
          2   -1    0    0  501    0  0.00000000000E+00 -0.00000000000E+00 -0.70702434601E+03  0.70702434602E+03  0.25500000000E-02 0. -1.
    8880023    1    1    2    0    0 -0.13472336832E+03  0.27791014671E+03 -0.42306319662E+03  0.84153259605E+03  0.65864270000E+03 0. -1.
    8880022    1    1    2    0    0  0.13472336832E+03 -0.27791014671E+03  0.32264318696E+03  0.47209608632E+03  0.15294330000E+03 0.  0.
<mgrwt>
<rscale>  0 0.60352730E+03</rscale>
<asrwt>0</asrwt>
<pdfrwt beam="1">  1        2 0.10877298E+00 0.72745766E+03</pdfrwt>
<pdfrwt beam="2">  1       -2 0.93323744E-01 0.72745766E+03</pdfrwt>
<totfact> 0.39896762E+01</totfact>
</mgrwt>
</event>
<event>
 4    1  0.2701205E-007  0.6631048E+03  0.7818608E-02  0.1021179E+00
         -2   -1    0    0    0  501 -0.00000000000E+00  0.00000000000E+00  0.75042982820E+03  0.75042982820E+03  0.25500000000E-02 0.  1.
          2   -1    0    0  501    0  0.00000000000E+00 -0.00000000000E+00 -0.26564385520E+04  0.26564385520E+04  0.25500000000E-02 0. -1.
    8880023    1    1    2    0    0 -0.76525638696E+02 -0.64477109609E+01 -0.26045663133E+04  0.26876520669E+04  0.65864270000E+03 0. -1.
    8880022    1    1    2    0    0  0.76525638696E+02  0.64477109609E+01  0.69855758951E+03  0.71921631324E+03  0.15294330000E+03 0.  0.
<mgrwt>
<rscale>  0 0.47263451E+03</rscale>
<asrwt>0</asrwt>
<pdfrwt beam="1">  1        2 0.40868285E+00 0.66310478E+03</pdfrwt>
<pdfrwt beam="2">  1       -2 0.11545074E+00 0.66310478E+03</pdfrwt>
<totfact> 0.17715074E+00</totfact>
</mgrwt>
</event>
<event>
 4    1  0.2701205E-007  0.9431274E+03  0.7818608E-02  0.9460072E-01
          2   -1    0    0  501    0  0.00000000000E+00  0.00000000000E+00  0.14122380250E+04  0.14122380250E+04  0.25500000000E-02 0. -1.
         -2   -1    0    0    0  501 -0.00000000000E+00 -0.00000000000E+00 -0.12679232611E+04  0.12679232611E+04  0.25500000000E-02 0.  1.
    8880023    1    1    2    0    0  0.52114066061E+02 -0.67302543114E+03  0.11324373926E+04  0.14737380233E+04  0.65864270000E+03 0.  0.
    8880022    1    1    2    0    0 -0.52114066061E+02  0.67302543114E+03 -0.98812262872E+03  0.12064232629E+04  0.15294330000E+03 0.  0.
<mgrwt>
<rscale>  0 0.87292661E+03</rscale>
<asrwt>0</asrwt>
<pdfrwt beam="1">  1        2 0.21726739E+00 0.94312741E+03</pdfrwt>
<pdfrwt beam="2">  1       -2 0.19506512E+00 0.94312741E+03</pdfrwt>
<totfact> 0.20419947E+00</totfact>
</mgrwt>
</event>
<event>
 4    1  0.2701205E-007  0.1828783E+04  0.7818608E-02  0.8706780E-01
         -2   -1    0    0    0  501 -0.00000000000E+00  0.00000000000E+00  0.14122161100E+04  0.14122161100E+04  0.25500000000E-02 0.  1.
          2   -1    0    0  501    0  0.00000000000E+00 -0.00000000000E+00 -0.25531803134E+04  0.25531803134E+04  0.25500000000E-02 0. -1.
    8880023    1    1    2    0    0  0.14797943817E+04  0.84902631991E+03 -0.13020383764E+04  0.22449390289E+04  0.65864270000E+03 0.  0.
    8880022    1    1    2    0    0 -0.14797943817E+04 -0.84902631991E+03  0.16107417298E+03  0.17204573945E+04  0.15294330000E+03 0.  0.
<mgrwt>
<rscale>  0 0.17990974E+04</rscale>
<asrwt>0</asrwt>
<pdfrwt beam="1">  1        2 0.39279697E+00 0.18287830E+04</pdfrwt>
<pdfrwt beam="2">  1       -2 0.21726402E+00 0.18287830E+04</pdfrwt>
<totfact> 0.30247576E-01</totfact>
</mgrwt>
</event>
<event>
 4    1  0.2701205E-007  0.7807183E+03  0.7818608E-02  0.9754152E-01
         -2   -1    0    0    0  501 -0.00000000000E+00  0.00000000000E+00  0.21998830873E+03  0.21998830875E+03  0.25500000000E-02 0.  1.
          2   -1    0    0  501    0  0.00000000000E+00 -0.00000000000E+00 -0.28841492539E+04  0.28841492539E+04  0.25500000000E-02 0. -1.
    8880023    1    1    2    0    0 -0.45160366914E+01  0.41915444767E+03 -0.25154180757E+04  0.26337898829E+04  0.65864270000E+03 0.  0.
    8880022    1    1    2    0    0  0.45160366914E+01 -0.41915444767E+03 -0.14874286946E+03  0.47034767972E+03  0.15294330000E+03 0.  0.
<mgrwt>
<rscale>  0 0.67882113E+03</rscale>
<asrwt>0</asrwt>
<pdfrwt beam="1">  1        2 0.44371524E+00 0.78071829E+03</pdfrwt>
<pdfrwt beam="2">  1       -2 0.33844357E-01 0.78071829E+03</pdfrwt>
<totfact> 0.17643968E+01</totfact>
</mgrwt>
</event>
<event>
 4    1  0.2701205E-007  0.2118163E+04  0.7818608E-02  0.8564371E-01
          2   -1    0    0  501    0  0.00000000000E+00  0.00000000000E+00  0.27630200005E+04  0.27630200005E+04  0.25500000000E-02 0. -1.
         -2   -1    0    0    0  501 -0.00000000000E+00 -0.00000000000E+00 -0.25498035459E+04  0.25498035459E+04  0.25500000000E-02 0.  1.
    8880023    1    1    2    0    0 -0.18160191738E+04  0.86883676189E+03  0.17724052919E+04  0.27618895132E+04  0.65864270000E+03 0.  0.
    8880022    1    1    2    0    0  0.18160191738E+04 -0.86883676189E+03 -0.15591888373E+04  0.25509340332E+04  0.15294330000E+03 0.  0.
<mgrwt>
<rscale>  0 0.20929138E+04</rscale>
<asrwt>0</asrwt>
<pdfrwt beam="1">  1        2 0.42508000E+00 0.21181627E+04</pdfrwt>
<pdfrwt beam="2">  1       -2 0.39227747E+00 0.21181627E+04</pdfrwt>
<totfact> 0.17642720E-02</totfact>
</mgrwt>
</event>
<event>
 4    1  0.2701205E-007  0.1518922E+04  0.7818608E-02  0.8896389E-01
          2   -1    0    0  501    0  0.00000000000E+00  0.00000000000E+00  0.20900000030E+04  0.20900000030E+04  0.25500000000E-02 0. -1.
         -2   -1    0    0    0  501 -0.00000000000E+00 -0.00000000000E+00 -0.11403864565E+04  0.11403864565E+04  0.25500000000E-02 0.  1.
    8880023    1    1    2    0    0 -0.13653002911E+04  0.96276428521E+02  0.10546693903E+04  0.18491759691E+04  0.65864270000E+03 0.  0.
    8880022    1    1    2    0    0  0.13653002911E+04 -0.96276428521E+02 -0.10505584375E+03  0.13812104904E+04  0.15294330000E+03 0.  0.
<mgrwt>
<rscale>  0 0.14821823E+04</rscale>
<asrwt>0</asrwt>
<pdfrwt beam="1">  1        2 0.32153846E+00 0.15189221E+04</pdfrwt>
<pdfrwt beam="2">  1       -2 0.17544407E+00 0.15189221E+04</pdfrwt>
<totfact> 0.10909566E+00</totfact>
</mgrwt>
</event>
<event>
 4    1  0.2701205E-007  0.1035825E+04  0.7818608E-02  0.9336119E-01
         -2   -1    0    0    0  501 -0.00000000000E+00  0.00000000000E+00  0.92394336470E+03  0.92394336470E+03  0.25500000000E-02 0.  1.
          2   -1    0    0  501    0  0.00000000000E+00 -0.00000000000E+00 -0.10031725417E+04  0.10031725417E+04  0.25500000000E-02 0. -1.
    8880023    1    1    2    0    0 -0.79937094077E+03  0.11332685482E+02 -0.30976112729E+03  0.10811496164E+04  0.65864270000E+03 0. -1.
    8880022    1    1    2    0    0  0.79937094077E+03 -0.11332685482E+02  0.23053195032E+03  0.84596629001E+03  0.15294330000E+03 0.  0.
<mgrwt>
<rscale>  0 0.97524568E+03</rscale>
<asrwt>0</asrwt>
<pdfrwt beam="1">  1        2 0.15433424E+00 0.10358246E+04</pdfrwt>
<pdfrwt beam="2">  1       -2 0.14214513E+00 0.10358246E+04</pdfrwt>
<totfact> 0.85532620E+00</totfact>
</mgrwt>
</event>
<event>
 4    1  0.2701205E-007  0.1246764E+04  0.7818608E-02  0.9112953E-01
          2   -1    0    0  501    0  0.00000000000E+00  0.00000000000E+00  0.38600153086E+04  0.38600153086E+04  0.25500000000E-02 0. -1.
         -2   -1    0    0    0  501 -0.00000000000E+00 -0.00000000000E+00 -0.63835676506E+03  0.63835676506E+03  0.25500000000E-02 0.  1.
    8880023    1    1    2    0    0  0.46992819510E+03  0.94856591708E+03  0.31936951372E+04  0.34284265551E+04  0.65864270000E+03 0.  1.
    8880022    1    1    2    0    0 -0.46992819510E+03 -0.94856591708E+03  0.27963406281E+02  0.10699455186E+04  0.15294330000E+03 0.  0.
<mgrwt>
<rscale>  0 0.11998901E+04</rscale>
<asrwt>0</asrwt>
<pdfrwt beam="1">  1        2 0.59384850E+00 0.12467638E+04</pdfrwt>
<pdfrwt beam="2">  1       -2 0.98208734E-01 0.12467638E+04</pdfrwt>
<totfact> 0.38165983E-01</totfact>
</mgrwt>
</event>
<event>
 4    1  0.2701205E-007  0.7044955E+03  0.7818608E-02  0.9979039E-01
          2   -1    0    0  501    0  0.00000000000E+00  0.00000000000E+00  0.17725002752E+04  0.17725002753E+04  0.25500000000E-02 0. -1.
         -2   -1    0    0    0  501 -0.00000000000E+00 -0.00000000000E+00 -0.14753256484E+03  0.14753256486E+03  0.25500000000E-02 0.  1.
    8880023    1    1    2    0    0  0.23507361979E+03 -0.85112357585E+02  0.13250652468E+04  0.15007037798E+04  0.65864270000E+03 0.  0.
    8880022    1    1    2    0    0 -0.23507361979E+03  0.85112357585E+02  0.29990246365E+03  0.41932906035E+03  0.15294330000E+03 0.  0.
<mgrwt>
<rscale>  0 0.56578951E+03</rscale>
<asrwt>0</asrwt>
<pdfrwt beam="1">  1        2 0.27269233E+00 0.70449551E+03</pdfrwt>
<pdfrwt beam="2">  1       -2 0.22697319E-01 0.70449551E+03</pdfrwt>
<totfact> 0.15615402E+02</totfact>
</mgrwt>
</event>
<event>
 4    1  0.2701205E-007  0.1093492E+04  0.7818608E-02  0.9268337E-01
         -2   -1    0    0    0  501 -0.00000000000E+00  0.00000000000E+00  0.72148691426E+03  0.72148691426E+03  0.25500000000E-02 0.  1.
          2   -1    0    0  501    0  0.00000000000E+00 -0.00000000000E+00 -0.22758650181E+04  0.22758650181E+04  0.25500000000E-02 0. -1.
    8880023    1    1    2    0    0  0.13024211176E+03  0.86310597106E+03 -0.17743926263E+04  0.20842730923E+04  0.65864270000E+03 0. -1.
    8880022    1    1    2    0    0 -0.13024211176E+03 -0.86310597106E+03  0.22001452247E+03  0.91307884001E+03  0.15294330000E+03 0.  0.
<mgrwt>
<rscale>  0 0.10375085E+04</rscale>
<asrwt>0</asrwt>
<pdfrwt beam="1">  1        2 0.35013308E+00 0.10934922E+04</pdfrwt>
<pdfrwt beam="2">  1       -2 0.11099799E+00 0.10934922E+04</pdfrwt>
<totfact> 0.29827115E+00</totfact>
</mgrwt>
</event>
<event>
 4    1  0.2701205E-007  0.6836504E+03  0.7818608E-02  0.1007330E+00
          2   -1    0    0  501    0  0.00000000000E+00  0.00000000000E+00  0.10570110441E+04  0.10570110441E+04  0.25500000000E-02 0. -1.
         -2   -1    0    0    0  501 -0.00000000000E+00 -0.00000000000E+00 -0.26904249330E+03  0.26904249331E+03  0.25500000000E-02 0.  1.
    8880023    1    1    2    0    0 -0.18199054560E+03  0.21145955506E+02  0.83872696334E+03  0.10820539891E+04  0.65864270000E+03 0. -1.
    8880022    1    1    2    0    0  0.18199054560E+03 -0.21145955506E+02 -0.50758412503E+02  0.24399954831E+03  0.15294330000E+03 0.  0.
<mgrwt>
<rscale>  0 0.52549817E+03</rscale>
<asrwt>0</asrwt>
<pdfrwt beam="1">  1        2 0.16261708E+00 0.68365043E+03</pdfrwt>
<pdfrwt beam="2">  1       -2 0.41391153E-01 0.68365043E+03</pdfrwt>
<totfact> 0.13039817E+02</totfact>
</mgrwt>
</event>
<event>
 4    1  0.2701205E-007  0.9872641E+03  0.7818608E-02  0.9398413E-01
          2   -1    0    0  501    0  0.00000000000E+00  0.00000000000E+00  0.69375289489E+03  0.69375289489E+03  0.25500000000E-02 0. -1.
         -2   -1    0    0    0  501 -0.00000000000E+00 -0.00000000000E+00 -0.17540501816E+04  0.17540501816E+04  0.25500000000E-02 0.  1.
    8880023    1    1    2    0    0 -0.73533420319E+03 -0.12795919162E+02  0.17440284450E+03  0.10025500907E+04  0.65864270000E+03 0. -1.
    8880022    1    1    2    0    0  0.73533420319E+03  0.12795919162E+02 -0.12347001312E+04  0.14452529858E+04  0.15294330000E+03 0.  0.
<mgrwt>
<rscale>  0 0.92206394E+03</rscale>
<asrwt>0</asrwt>
<pdfrwt beam="1">  1        2 0.10673122E+00 0.98726406E+03</pdfrwt>
<pdfrwt beam="2">  1       -2 0.26985387E+00 0.98726406E+03</pdfrwt>
<totfact> 0.20173406E+00</totfact>
</mgrwt>
</event>
<event>
 4    1  0.2701205E-007  0.6862499E+03  0.7818608E-02  0.1005988E+00
         -2   -1    0    0    0  501 -0.00000000000E+00  0.00000000000E+00  0.25449565621E+03  0.25449565622E+03  0.25500000000E-02 0.  1.
          2   -1    0    0  501    0  0.00000000000E+00 -0.00000000000E+00 -0.12534128474E+04  0.12534128474E+04  0.25500000000E-02 0. -1.
    8880023    1    1    2    0    0 -0.19268829131E+03 -0.42180394378E-01 -0.10521859793E+04  0.12561983604E+04  0.65864270000E+03 0. -1.
    8880022    1    1    2    0    0  0.19268829131E+03  0.42180394378E-01  0.53268788118E+02  0.25171014320E+03  0.15294330000E+03 0.  0.
<mgrwt>
<rscale>  0 0.53100608E+03</rscale>
<asrwt>0</asrwt>
<pdfrwt beam="1">  1        2 0.19283274E+00 0.68624994E+03</pdfrwt>
<pdfrwt beam="2">  1       -2 0.39153179E-01 0.68624994E+03</pdfrwt>
<totfact> 0.11080790E+02</totfact>
</mgrwt>
</event>
<event>
 4    1  0.2701205E-007  0.1445338E+04  0.7818608E-02  0.8949231E-01
         -2   -1    0    0    0  501 -0.00000000000E+00  0.00000000000E+00  0.15029044733E+04  0.15029044733E+04  0.25500000000E-02 0.  1.
          2   -1    0    0  501    0  0.00000000000E+00 -0.00000000000E+00 -0.31501623199E+04  0.31501623199E+04  0.25500000000E-02 0. -1.
    8880023    1    1    2    0    0  0.39750450026E+03  0.12235944232E+04 -0.26474653560E+04  0.30163017352E+04  0.65864270000E+03 0.  0.
    8880022    1    1    2    0    0 -0.39750450026E+03 -0.12235944232E+04  0.10002075094E+04  0.16367650580E+04  0.15294330000E+03 0.  0.
<mgrwt>
<rscale>  0 0.14063554E+04</rscale>
<asrwt>0</asrwt>
<pdfrwt beam="1">  1        2 0.48464035E+00 0.14453385E+04</pdfrwt>
<pdfrwt beam="2">  1       -2 0.23121607E+00 0.14453385E+04</pdfrwt>
<totfact> 0.11145741E-01</totfact>
</mgrwt>
</event>
<event>
 4    1  0.2701205E-007  0.1017055E+04  0.7818608E-02  0.9359577E-01
          2   -1    0    0  501    0  0.00000000000E+00  0.00000000000E+00  0.15488047783E+04  0.15488047784E+04  0.25500000000E-02 0. -1.
         -2   -1    0    0    0  501 -0.00000000000E+00 -0.00000000000E+00 -0.77765958041E+03  0.77765958042E+03  0.25500000000E-02 0.  1.
    8880023    1    1    2    0    0  0.21822501822E+03  0.74361855793E+03  0.10752207888E+04  0.14800340095E+04  0.65864270000E+03 0.  0.
    8880022    1    1    2    0    0 -0.21822501822E+03 -0.74361855793E+03 -0.30407559084E+03  0.84643034931E+03  0.15294330000E+03 0.  0.
<mgrwt>
<rscale>  0 0.95478344E+03</rscale>
<asrwt>0</asrwt>
<pdfrwt beam="1">  1        2 0.23827766E+00 0.10170550E+04</pdfrwt>
<pdfrwt beam="2">  1       -2 0.11963994E+00 0.10170550E+04</pdfrwt>
<totfact> 0.63266310E+00</totfact>
</mgrwt>
</event>
<event>
 4    1  0.2701205E-007  0.9361219E+03  0.7818608E-02  0.9470369E-01
         -2   -1    0    0    0  501 -0.00000000000E+00  0.00000000000E+00  0.47548400971E+03  0.47548400972E+03  0.25500000000E-02 0.  1.
          2   -1    0    0  501    0  0.00000000000E+00 -0.00000000000E+00 -0.20521646690E+04  0.20521646690E+04  0.25500000000E-02 0. -1.
    8880023    1    1    2    0    0  0.66496404461E+03 -0.18351486727E+02 -0.15898158879E+04  0.18449495173E+04  0.65864270000E+03 0. -1.
    8880022    1    1    2    0    0 -0.66496404461E+03  0.18351486727E+02  0.13135228665E+02  0.68269916137E+03  0.15294330000E+03 0.  0.
<mgrwt>
<rscale>  0 0.86504069E+03</rscale>
<asrwt>0</asrwt>
<pdfrwt beam="1">  1        2 0.31571764E+00 0.93612187E+03</pdfrwt>
<pdfrwt beam="2">  1       -2 0.73151388E-01 0.93612187E+03</pdfrwt>
<totfact> 0.10659641E+01</totfact>
</mgrwt>
</event>
<event>
 4    1  0.2701205E-007  0.6755832E+03  0.7818608E-02  0.1011941E+00
          2   -1    0    0  501    0  0.00000000000E+00  0.00000000000E+00  0.83511846033E+03  0.83511846033E+03  0.25500000000E-02 0. -1.
         -2   -1    0    0    0  501 -0.00000000000E+00 -0.00000000000E+00 -0.10429861302E+04  0.10429861302E+04  0.25500000000E-02 0.  1.
    8880023    1    1    2    0    0 -0.14209115130E+03  0.49118371279E+02  0.68365848591E+03  0.96114600415E+03  0.65864270000E+03 0. -1.
    8880022    1    1    2    0    0  0.14209115130E+03 -0.49118371279E+02 -0.89152615579E+03  0.91695858639E+03  0.15294330000E+03 0.  0.
<mgrwt>
<rscale>  0 0.50710395E+03</rscale>
<asrwt>0</asrwt>
<pdfrwt beam="1">  1        2 0.12847976E+00 0.67558324E+03</pdfrwt>
<pdfrwt beam="2">  1       -2 0.16045940E+00 0.67558324E+03</pdfrwt>
<totfact> 0.83446178E+00</totfact>
</mgrwt>
</event>
<event>
 4    1  0.2701205E-007  0.7220069E+03  0.7818608E-02  0.9915853E-01
          2   -1    0    0  501    0  0.00000000000E+00  0.00000000000E+00  0.21335607237E+04  0.21335607237E+04  0.25500000000E-02 0. -1.
         -2   -1    0    0    0  501 -0.00000000000E+00 -0.00000000000E+00 -0.26581477940E+03  0.26581477941E+03  0.25500000000E-02 0.  1.
    8880023    1    1    2    0    0  0.29362884221E+03  0.35578382283E+02  0.19299972569E+04  0.20606269279E+04  0.65864270000E+03 0.  0.
    8880022    1    1    2    0    0 -0.29362884221E+03 -0.35578382283E+02 -0.62251312565E+02  0.33874857520E+03  0.15294330000E+03 0. -1.
<mgrwt>
<rscale>  0 0.59499098E+03</rscale>
<asrwt>0</asrwt>
<pdfrwt beam="1">  1        2 0.32824012E+00 0.72200687E+03</pdfrwt>
<pdfrwt beam="2">  1       -2 0.40894580E-01 0.72200687E+03</pdfrwt>
<totfact> 0.33097460E+01</totfact>
</mgrwt>
</event>
<event>
 4    1  0.2701205E-007  0.8140958E+03  0.7818608E-02  0.9681108E-01
          2   -1    0    0  501    0  0.00000000000E+00  0.00000000000E+00  0.12429144417E+04  0.12429144417E+04  0.25500000000E-02 0. -1.
         -2   -1    0    0    0  501 -0.00000000000E+00 -0.00000000000E+00 -0.51296350616E+03  0.51296350617E+03  0.25500000000E-02 0.  1.
    8880023    1    1    2    0    0  0.36306388879E+03 -0.31165093549E+03  0.91115588115E+03  0.12218661706E+04  0.65864270000E+03 0.  0.
    8880022    1    1    2    0    0 -0.36306388879E+03  0.31165093549E+03 -0.18120494559E+03  0.53401177726E+03  0.15294330000E+03 0.  0.
<mgrwt>
<rscale>  0 0.72152843E+03</rscale>
<asrwt>0</asrwt>
<pdfrwt beam="1">  1        2 0.19121761E+00 0.81409576E+03</pdfrwt>
<pdfrwt beam="2">  1       -2 0.78917463E-01 0.81409576E+03</pdfrwt>
<totfact> 0.25777633E+01</totfact>
</mgrwt>
</event>
<event>
 4    1  0.2701205E-007  0.7085702E+03  0.7818608E-02  0.9963349E-01
         -2   -1    0    0    0  501 -0.00000000000E+00  0.00000000000E+00  0.48548124171E+03  0.48548124172E+03  0.25500000000E-02 0.  1.
          2   -1    0    0  501    0  0.00000000000E+00 -0.00000000000E+00 -0.13242260155E+04  0.13242260155E+04  0.25500000000E-02 0. -1.
    8880023    1    1    2    0    0  0.25808703631E+03  0.40651546764E+02 -0.11656724009E+04  0.13641348244E+04  0.65864270000E+03 0. -1.
    8880022    1    1    2    0    0 -0.25808703631E+03 -0.40651546764E+02  0.32692762709E+03  0.44557243287E+03  0.15294330000E+03 0.  0.
<mgrwt>
<rscale>  0 0.57286930E+03</rscale>
<asrwt>0</asrwt>
<pdfrwt beam="1">  1        2 0.20372708E+00 0.70857016E+03</pdfrwt>
<pdfrwt beam="2">  1       -2 0.74689422E-01 0.70857016E+03</pdfrwt>
<totfact> 0.26447568E+01</totfact>
</mgrwt>
</event>
<event>
 4    1  0.2701205E-007  0.1180296E+04  0.7818608E-02  0.9176518E-01
         -2   -1    0    0    0  501 -0.00000000000E+00  0.00000000000E+00  0.61874980662E+03  0.61874980662E+03  0.25500000000E-02 0.  1.
          2   -1    0    0  501    0  0.00000000000E+00 -0.00000000000E+00 -0.34853306962E+04  0.34853306962E+04  0.25500000000E-02 0. -1.
    8880023    1    1    2    0    0 -0.94823503310E+03 -0.24523260230E+03 -0.28802264200E+04  0.31126842345E+04  0.65864270000E+03 0.  0.
    8880022    1    1    2    0    0  0.94823503310E+03  0.24523260230E+03  0.13645530434E+02  0.99139626827E+03  0.15294330000E+03 0.  0.
<mgrwt>
<rscale>  0 0.11299124E+04</rscale>
<asrwt>0</asrwt>
<pdfrwt beam="1">  1        2 0.53620471E+00 0.11802961E+04</pdfrwt>
<pdfrwt beam="2">  1       -2 0.95192280E-01 0.11802961E+04</pdfrwt>
<totfact> 0.77506446E-01</totfact>
</mgrwt>
</event>
<event>
 4    1  0.2701205E-007  0.8747220E+03  0.7818608E-02  0.9567894E-01
          2   -1    0    0  501    0  0.00000000000E+00  0.00000000000E+00  0.53765922641E+03  0.53765922641E+03  0.25500000000E-02 0. -1.
         -2   -1    0    0    0  501 -0.00000000000E+00 -0.00000000000E+00 -0.16957806878E+04  0.16957806878E+04  0.25500000000E-02 0.  1.
    8880023    1    1    2    0    0 -0.16683051101E+03  0.55090467027E+03  0.60759684757E+02  0.87682969879E+03  0.65864270000E+03 0. -1.
    8880022    1    1    2    0    0  0.16683051101E+03 -0.55090467027E+03 -0.12188811462E+04  0.13566102155E+04  0.15294330000E+03 0.  0.
<mgrwt>
<rscale>  0 0.79458114E+03</rscale>
<asrwt>0</asrwt>
<pdfrwt beam="1">  1        2 0.82716805E-01 0.87472200E+03</pdfrwt>
<pdfrwt beam="2">  1       -2 0.26088933E+00 0.87472200E+03</pdfrwt>
<totfact> 0.31633643E+00</totfact>
</mgrwt>
</event>
<event>
 4    1  0.2701205E-007  0.1210146E+04  0.7818608E-02  0.9147322E-01
         -2   -1    0    0    0  501 -0.00000000000E+00  0.00000000000E+00  0.76981334423E+03  0.76981334423E+03  0.25500000000E-02 0.  1.
          2   -1    0    0  501    0  0.00000000000E+00 -0.00000000000E+00 -0.31678193379E+04  0.31678193379E+04  0.25500000000E-02 0. -1.
    8880023    1    1    2    0    0 -0.96049169159E+03 -0.32878512627E+03  0.12223128407E+03  0.12163036800E+04  0.65864270000E+03 0.  0.
    8880022    1    1    2    0    0  0.96049169159E+03  0.32878512627E+03 -0.25202372778E+04  0.27213290022E+04  0.15294330000E+03 0.  0.
<mgrwt>
<rscale>  0 0.11614094E+04</rscale>
<asrwt>0</asrwt>
<pdfrwt beam="1">  1        2 0.48735681E+00 0.12101463E+04</pdfrwt>
<pdfrwt beam="2">  1       -2 0.11843282E+00 0.12101463E+04</pdfrwt>
<totfact> 0.73889131E-01</totfact>
</mgrwt>
</event>
<event>
 4    1  0.2701205E-007  0.8774198E+03  0.7818608E-02  0.9563298E-01
          2   -1    0    0  501    0  0.00000000000E+00  0.00000000000E+00  0.22874942300E+04  0.22874942300E+04  0.25500000000E-02 0. -1.
         -2   -1    0    0    0  501 -0.00000000000E+00 -0.00000000000E+00 -0.34203539358E+03  0.34203539359E+03  0.25500000000E-02 0.  1.
    8880023    1    1    2    0    0  0.94898699933E+02 -0.57188250719E+03  0.18150028674E+04  0.20159615523E+04  0.65864270000E+03 0. -1.
    8880022    1    1    2    0    0 -0.94898699933E+02  0.57188250719E+03  0.13045596902E+03  0.61356807132E+03  0.15294330000E+03 0.  0.
<mgrwt>
<rscale>  0 0.79773739E+03</rscale>
<asrwt>0</asrwt>
<pdfrwt beam="1">  1        2 0.35192220E+00 0.87741984E+03</pdfrwt>
<pdfrwt beam="2">  1       -2 0.52620828E-01 0.87741984E+03</pdfrwt>
<totfact> 0.16064889E+01</totfact>
</mgrwt>
</event>
<event>
 4    1  0.2701205E-007  0.7077391E+03  0.7818608E-02  0.9966494E-01
         -2   -1    0    0    0  501 -0.00000000000E+00  0.00000000000E+00  0.12633242722E+04  0.12633242722E+04  0.25500000000E-02 0.  1.
          2   -1    0    0  501    0  0.00000000000E+00 -0.00000000000E+00 -0.38014074332E+03  0.38014074333E+03  0.25500000000E-02 0. -1.
    8880023    1    1    2    0    0 -0.17053569597E+02 -0.25844449804E+03 -0.28729588639E+01  0.70774489963E+03  0.65864270000E+03 0.  0.
    8880022    1    1    2    0    0  0.17053569597E+02  0.25844449804E+03  0.88605648772E+03  0.93572011587E+03  0.15294330000E+03 0.  0.
<mgrwt>
<rscale>  0 0.57144123E+03</rscale>
<asrwt>0</asrwt>
<pdfrwt beam="1">  1        2 0.58483191E-01 0.70773907E+03</pdfrwt>
<pdfrwt beam="2">  1       -2 0.19435758E+00 0.70773907E+03</pdfrwt>
<totfact> 0.12472740E+01</totfact>
</mgrwt>
</event>
<event>
 4    1  0.2701205E-007  0.9956944E+03  0.7818608E-02  0.9387212E-01
         -2   -1    0    0    0  501 -0.00000000000E+00  0.00000000000E+00  0.16444388858E+04  0.16444388858E+04  0.25500000000E-02 0.  1.
          2   -1    0    0  501    0  0.00000000000E+00 -0.00000000000E+00 -0.13754780947E+04  0.13754780947E+04  0.25500000000E-02 0. -1.
    8880023    1    1    2    0    0 -0.29549781482E+03 -0.68576832802E+03 -0.10809683134E+04  0.14696597766E+04  0.65864270000E+03 0. -1.
    8880022    1    1    2    0    0  0.29549781482E+03  0.68576832802E+03  0.13499291044E+04  0.15502572039E+04  0.15294330000E+03 0.  0.
<mgrwt>
<rscale>  0 0.93135559E+03</rscale>
<asrwt>0</asrwt>
<pdfrwt beam="1">  1        2 0.21161202E+00 0.99569441E+03</pdfrwt>
<pdfrwt beam="2">  1       -2 0.25299060E+00 0.99569441E+03</pdfrwt>
<totfact> 0.91937510E-01</totfact>
</mgrwt>
</event>
<event>
 4    1  0.2701205E-007  0.8257611E+03  0.7818608E-02  0.9657637E-01
          2   -1    0    0  501    0  0.00000000000E+00  0.00000000000E+00  0.18948828884E+04  0.18948828884E+04  0.25500000000E-02 0. -1.
         -2   -1    0    0    0  501 -0.00000000000E+00 -0.00000000000E+00 -0.24929837858E+03  0.24929837859E+03  0.25500000000E-02 0.  1.
    8880023    1    1    2    0    0  0.40629360498E+03  0.28809140546E+03  0.12108096361E+04  0.14655856619E+04  0.65864270000E+03 0. -1.
    8880022    1    1    2    0    0 -0.40629360498E+03 -0.28809140546E+03  0.43477487370E+03  0.67859560503E+03  0.15294330000E+03 0. -1.
<mgrwt>
<rscale>  0 0.73596066E+03</rscale>
<asrwt>0</asrwt>
<pdfrwt beam="1">  1        2 0.29152044E+00 0.82576108E+03</pdfrwt>
<pdfrwt beam="2">  1       -2 0.38353598E-01 0.82576108E+03</pdfrwt>
<totfact> 0.50022043E+01</totfact>
</mgrwt>
</event>
<event>
 4    1  0.2701205E-007  0.1512021E+04  0.7818608E-02  0.8901194E-01
          2   -1    0    0  501    0  0.00000000000E+00  0.00000000000E+00  0.12292748978E+04  0.12292748978E+04  0.25500000000E-02 0. -1.
         -2   -1    0    0    0  501 -0.00000000000E+00 -0.00000000000E+00 -0.22656556845E+04  0.22656556845E+04  0.25500000000E-02 0.  1.
    8880023    1    1    2    0    0 -0.80534845487E+03  0.10971829801E+04  0.34371105639E+03  0.15505947640E+04  0.65864270000E+03 0.  0.
    8880022    1    1    2    0    0  0.80534845487E+03 -0.10971829801E+04 -0.13800918431E+04  0.19443358182E+04  0.15294330000E+03 0.  0.
<mgrwt>
<rscale>  0 0.14750825E+04</rscale>
<asrwt>0</asrwt>
<pdfrwt beam="1">  1        2 0.18911921E+00 0.15120208E+04</pdfrwt>
<pdfrwt beam="2">  1       -2 0.34856241E+00 0.15120208E+04</pdfrwt>
<totfact> 0.27289789E-01</totfact>
</mgrwt>
</event>
<event>
 4    1  0.2701205E-007  0.8657990E+03  0.7818608E-02  0.9583330E-01
         -2   -1    0    0    0  501 -0.00000000000E+00  0.00000000000E+00  0.95267734528E+03  0.95267734528E+03  0.25500000000E-02 0.  1.
          2   -1    0    0  501    0  0.00000000000E+00 -0.00000000000E+00 -0.25850932561E+04  0.25850932561E+04  0.25500000000E-02 0. -1.
    8880023    1    1    2    0    0  0.41129954455E+03  0.38292350590E+03 -0.24131347012E+04  0.25637525269E+04  0.65864270000E+03 0. -1.
    8880022    1    1    2    0    0 -0.41129954455E+03 -0.38292350590E+03  0.78071879040E+03  0.97401807448E+03  0.15294330000E+03 0.  0.
<mgrwt>
<rscale>  0 0.78409394E+03</rscale>
<asrwt>0</asrwt>
<pdfrwt beam="1">  1        2 0.39770665E+00 0.86579901E+03</pdfrwt>
<pdfrwt beam="2">  1       -2 0.14656575E+00 0.86579901E+03</pdfrwt>
<totfact> 0.10196254E+00</totfact>
</mgrwt>
</event>
<event>
 4    1  0.2701205E-007  0.1896810E+04  0.7818608E-02  0.8670794E-01
          2   -1    0    0  501    0  0.00000000000E+00  0.00000000000E+00  0.26055610849E+04  0.26055610849E+04  0.25500000000E-02 0. -1.
         -2   -1    0    0    0  501 -0.00000000000E+00 -0.00000000000E+00 -0.15787918076E+04  0.15787918076E+04  0.25500000000E-02 0.  1.
    8880023    1    1    2    0    0 -0.24673574317E+03  0.17615899350E+04 -0.35123576591E+03  0.19290553117E+04  0.65864270000E+03 0.  1.
    8880022    1    1    2    0    0  0.24673574317E+03 -0.17615899350E+04  0.13780050432E+04  0.22552975808E+04  0.15294330000E+03 0.  0.
<mgrwt>
<rscale>  0 0.18683086E+04</rscale>
<asrwt>0</asrwt>
<pdfrwt beam="1">  1        2 0.40085555E+00 0.18968099E+04</pdfrwt>
<pdfrwt beam="2">  1       -2 0.24289105E+00 0.18968099E+04</pdfrwt>
<totfact> 0.19296720E-01</totfact>
</mgrwt>
</event>
<event>
 4    1  0.2797651E-007  0.1654749E+04  0.7818608E-02  0.8807448E-01
          2   -1    0    0  501    0  0.00000000000E+00  0.00000000000E+00  0.25760187474E+04  0.25760187474E+04  0.25500000000E-02 0. -1.
         -2   -1    0    0    0  501 -0.00000000000E+00 -0.00000000000E+00 -0.17061134534E+04  0.17061134534E+04  0.25500000000E-02 0.  1.
    8880023    1    1    2    0    0  0.34854423772E+03 -0.14774648074E+04  0.18396114952E+04  0.24743415291E+04  0.65864270000E+03 0.  0.
    8880022    1    1    2    0    0 -0.34854423772E+03  0.14774648074E+04 -0.96970620127E+03  0.18077906717E+04  0.15294330000E+03 0.  0.
<mgrwt>
<rscale>  0 0.16214996E+04</rscale>
<asrwt>0</asrwt>
<pdfrwt beam="1">  1        2 0.39631058E+00 0.16547494E+04</pdfrwt>
<pdfrwt beam="2">  1       -2 0.26247899E+00 0.16547494E+04</pdfrwt>
<totfact> 0.15595191E-01</totfact>
</mgrwt>
</event>
<event>
 4    1  0.2701205E-007  0.1261349E+04  0.7818608E-02  0.9099678E-01
          2   -1    0    0  501    0  0.00000000000E+00  0.00000000000E+00  0.20812202105E+04  0.20812202105E+04  0.25500000000E-02 0. -1.
         -2   -1    0    0    0  501 -0.00000000000E+00 -0.00000000000E+00 -0.91303241714E+03  0.91303241715E+03  0.25500000000E-02 0.  1.
    8880023    1    1    2    0    0  0.10397821066E+04  0.27575974188E+03  0.13987840891E+04  0.18835066760E+04  0.65864270000E+03 0.  0.
    8880022    1    1    2    0    0 -0.10397821066E+04 -0.27575974188E+03 -0.23059629573E+03  0.11107459516E+04  0.15294330000E+03 0.  0.
<mgrwt>
<rscale>  0 0.12151738E+04</rscale>
<asrwt>0</asrwt>
<pdfrwt beam="1">  1        2 0.32018772E+00 0.12613487E+04</pdfrwt>
<pdfrwt beam="2">  1       -2 0.14046653E+00 0.12613487E+04</pdfrwt>
<totfact> 0.20749376E+00</totfact>
</mgrwt>
</event>
<event>
 4    1  0.2701205E-007  0.1058362E+04  0.7818608E-02  0.9308896E-01
         -2   -1    0    0    0  501 -0.00000000000E+00  0.00000000000E+00  0.47834211977E+03  0.47834211978E+03  0.25500000000E-02 0.  1.
          2   -1    0    0  501    0  0.00000000000E+00 -0.00000000000E+00 -0.24097799512E+04  0.24097799512E+04  0.25500000000E-02 0. -1.
    8880023    1    1    2    0    0 -0.52025810775E+03 -0.64471083634E+03 -0.17200202464E+04  0.20195545092E+04  0.65864270000E+03 0.  0.
    8880022    1    1    2    0    0  0.52025810775E+03  0.64471083634E+03 -0.21141758502E+03  0.86856756182E+03  0.15294330000E+03 0.  0.
<mgrwt>
<rscale>  0 0.99968012E+03</rscale>
<asrwt>0</asrwt>
<pdfrwt beam="1">  1        2 0.37073537E+00 0.10583623E+04</pdfrwt>
<pdfrwt beam="2">  1       -2 0.73591096E-01 0.10583623E+04</pdfrwt>
<totfact> 0.65477270E+00</totfact>
</mgrwt>
</event>
<event>
 4    1  0.2701205E-007  0.1003552E+04  0.7818608E-02  0.9376925E-01
          2   -1    0    0  501    0  0.00000000000E+00  0.00000000000E+00  0.24987501312E+04  0.24987501312E+04  0.25500000000E-02 0. -1.
         -2   -1    0    0    0  501 -0.00000000000E+00 -0.00000000000E+00 -0.94718457112E+03  0.94718457113E+03  0.25500000000E-02 0.  1.
    8880023    1    1    2    0    0 -0.74671909613E+03 -0.12537044178E+03  0.22124018768E+04  0.24293701709E+04  0.65864270000E+03 0.  0.
    8880022    1    1    2    0    0  0.74671909613E+03  0.12537044178E+03 -0.66083631672E+03  0.10165645315E+04  0.15294330000E+03 0.  0.
<mgrwt>
<rscale>  0 0.93999258E+03</rscale>
<asrwt>0</asrwt>
<pdfrwt beam="1">  1        2 0.38442309E+00 0.10035524E+04</pdfrwt>
<pdfrwt beam="2">  1       -2 0.14572071E+00 0.10035524E+04</pdfrwt>
<totfact> 0.11338118E+00</totfact>
</mgrwt>
</event>
<event>
 4    1  0.2701205E-007  0.1621017E+04  0.7818608E-02  0.8828594E-01
         -2   -1    0    0    0  501 -0.00000000000E+00  0.00000000000E+00  0.13176177250E+04  0.13176177250E+04  0.25500000000E-02 0.  1.
          2   -1    0    0  501    0  0.00000000000E+00 -0.00000000000E+00 -0.32554592405E+04  0.32554592405E+04  0.25500000000E-02 0. -1.
    8880023    1    1    2    0    0  0.14810831607E+04 -0.16679154043E+02 -0.25015900563E+04  0.29808804973E+04  0.65864270000E+03 0.  0.
    8880022    1    1    2    0    0 -0.14810831607E+04  0.16679154043E+02  0.56374854074E+03  0.15921964682E+04  0.15294330000E+03 0.  1.
<mgrwt>
<rscale>  0 0.15869679E+04</rscale>
<asrwt>0</asrwt>
<pdfrwt beam="1">  1        2 0.50083988E+00 0.16210169E+04</pdfrwt>
<pdfrwt beam="2">  1       -2 0.20271042E+00 0.16210169E+04</pdfrwt>
<totfact> 0.14166465E-01</totfact>
</mgrwt>
</event>
<event>
 4    1  0.2701205E-007  0.8082787E+03  0.7818608E-02  0.9693174E-01
         -2   -1    0    0    0  501 -0.00000000000E+00  0.00000000000E+00  0.12759396545E+03  0.12759396547E+03  0.25500000000E-02 0.  1.
          2   -1    0    0  501    0  0.00000000000E+00 -0.00000000000E+00 -0.33455527104E+04  0.33455527104E+04  0.25500000000E-02 0. -1.
    8880023    1    1    2    0    0  0.25865561896E+03 -0.39064239931E+03 -0.18400630142E+04  0.20097627511E+04  0.65864270000E+03 0.  0.
    8880022    1    1    2    0    0 -0.25865561896E+03  0.39064239931E+03 -0.13778957308E+04  0.14633839248E+04  0.15294330000E+03 0.  1.
<mgrwt>
<rscale>  0 0.71424689E+03</rscale>
<asrwt>0</asrwt>
<pdfrwt beam="1">  1        2 0.51470035E+00 0.80827868E+03</pdfrwt>
<pdfrwt beam="2">  1       -2 0.19629843E-01 0.80827868E+03</pdfrwt>
<totfact> 0.24267068E+01</totfact>
</mgrwt>
</event>
<event>
 4    1  0.2701205E-007  0.8134904E+03  0.7818608E-02  0.9682352E-01
          2   -1    0    0  501    0  0.00000000000E+00  0.00000000000E+00  0.20368232008E+04  0.20368232008E+04  0.25500000000E-02 0. -1.
         -2   -1    0    0    0  501 -0.00000000000E+00 -0.00000000000E+00 -0.80483371681E+03  0.80483371681E+03  0.25500000000E-02 0.  1.
    8880023    1    1    2    0    0 -0.20626265603E+03 -0.43059511238E+03  0.18646845494E+04  0.20344078031E+04  0.65864270000E+03 0. -1.
    8880022    1    1    2    0    0  0.20626265603E+03  0.43059511238E+03 -0.63269506544E+03  0.80724911454E+03  0.15294330000E+03 0.  0.
<mgrwt>
<rscale>  0 0.72077344E+03</rscale>
<asrwt>0</asrwt>
<pdfrwt beam="1">  1        2 0.31335741E+00 0.81349041E+03</pdfrwt>
<pdfrwt beam="2">  1       -2 0.12382057E+00 0.81349041E+03</pdfrwt>
<totfact> 0.32123789E+00</totfact>
</mgrwt>
</event>
<event>
 4    1  0.2701205E-007  0.1035578E+04  0.7818608E-02  0.9336422E-01
          2   -1    0    0  501    0  0.00000000000E+00  0.00000000000E+00  0.17393050590E+04  0.17393050590E+04  0.25500000000E-02 0. -1.
         -2   -1    0    0    0  501 -0.00000000000E+00 -0.00000000000E+00 -0.68830061535E+03  0.68830061535E+03  0.25500000000E-02 0.  1.
    8880023    1    1    2    0    0 -0.13846123644E+03  0.78704557273E+03  0.12162071038E+04  0.15973672631E+04  0.65864270000E+03 0.  0.
    8880022    1    1    2    0    0  0.13846123644E+03 -0.78704557273E+03 -0.16520266019E+03  0.83023841124E+03  0.15294330000E+03 0.  0.
<mgrwt>
<rscale>  0 0.97497792E+03</rscale>
<asrwt>0</asrwt>
<pdfrwt beam="1">  1        2 0.26758539E+00 0.10355783E+04</pdfrwt>
<pdfrwt beam="2">  1       -2 0.10589240E+00 0.10355783E+04</pdfrwt>
<totfact> 0.66706465E+00</totfact>
</mgrwt>
</event>
<event>
 4    1  0.2701205E-007  0.7756411E+03  0.7818608E-02  0.9766177E-01
         -2   -1    0    0    0  501 -0.00000000000E+00  0.00000000000E+00  0.69154434023E+03  0.69154434024E+03  0.25500000000E-02 0.  1.
          2   -1    0    0  501    0  0.00000000000E+00 -0.00000000000E+00 -0.10584625052E+04  0.10584625052E+04  0.25500000000E-02 0. -1.
    8880023    1    1    2    0    0 -0.34564171803E+03 -0.21986537199E+03 -0.81418587584E+03  0.11245078149E+04  0.65864270000E+03 0. -1.
    8880022    1    1    2    0    0  0.34564171803E+03  0.21986537199E+03  0.44726771087E+03  0.62549903057E+03  0.15294330000E+03 0.  0.
<mgrwt>
<rscale>  0 0.67209675E+03</rscale>
<asrwt>0</asrwt>
<pdfrwt beam="1">  1        2 0.16284039E+00 0.77564114E+03</pdfrwt>
<pdfrwt beam="2">  1       -2 0.10639144E+00 0.77564114E+03</pdfrwt>
<totfact> 0.16707704E+01</totfact>
</mgrwt>
</event>
<event>
 4    1  0.2701205E-007  0.1073600E+04  0.7818608E-02  0.9291035E-01
          2   -1    0    0  501    0  0.00000000000E+00  0.00000000000E+00  0.15548938561E+04  0.15548938561E+04  0.25500000000E-02 0. -1.
         -2   -1    0    0    0  501 -0.00000000000E+00 -0.00000000000E+00 -0.13789782638E+04  0.13789782638E+04  0.25500000000E-02 0.  1.
    8880023    1    1    2    0    0  0.84349067256E+03  0.85612517089E+02  0.11903488237E+04  0.16029805196E+04  0.65864270000E+03 0.  0.
    8880022    1    1    2    0    0 -0.84349067256E+03 -0.85612517089E+02 -0.10144332314E+04  0.13308916003E+04  0.15294330000E+03 0.  0.
<mgrwt>
<rscale>  0 0.10161240E+04</rscale>
<asrwt>0</asrwt>
<pdfrwt beam="1">  1        2 0.23921444E+00 0.10735997E+04</pdfrwt>
<pdfrwt beam="2">  1       -2 0.21215050E+00 0.10735997E+04</pdfrwt>
<totfact> 0.12915908E+00</totfact>
</mgrwt>
</event>
<event>
 4    1  0.2701205E-007  0.7613859E+03  0.7818608E-02  0.9801533E-01
          2   -1    0    0  501    0  0.00000000000E+00  0.00000000000E+00  0.33862565865E+03  0.33862565866E+03  0.25500000000E-02 0. -1.
         -2   -1    0    0    0  501 -0.00000000000E+00 -0.00000000000E+00 -0.14724143234E+04  0.14724143234E+04  0.25500000000E-02 0.  1.
    8880023    1    1    2    0    0  0.38165566123E+03  0.15401726186E+02 -0.19487258460E+03  0.78592861471E+03  0.65864270000E+03 0. -1.
    8880022    1    1    2    0    0 -0.38165566123E+03 -0.15401726186E+02 -0.93891608018E+03  0.10251113674E+04  0.15294330000E+03 0.  0.
<mgrwt>
<rscale>  0 0.65280354E+03</rscale>
<asrwt>0</asrwt>
<pdfrwt beam="1">  1        2 0.52096256E-01 0.76138588E+03</pdfrwt>
<pdfrwt beam="2">  1       -2 0.22652528E+00 0.76138588E+03</pdfrwt>
<totfact> 0.88057031E+00</totfact>
</mgrwt>
</event>
<event>
 4    1  0.2701205E-007  0.1299961E+04  0.7818608E-02  0.9065593E-01
          2   -1    0    0  501    0  0.00000000000E+00  0.00000000000E+00  0.29466650540E+04  0.29466650540E+04  0.25500000000E-02 0. -1.
         -2   -1    0    0    0  501 -0.00000000000E+00 -0.00000000000E+00 -0.19319539331E+04  0.19319539331E+04  0.25500000000E-02 0.  1.
    8880023    1    1    2    0    0  0.53533433428E+03  0.98463499424E+03 -0.15811991668E+04  0.20469709164E+04  0.65864270000E+03 0.  0.
    8880022    1    1    2    0    0 -0.53533433428E+03 -0.98463499424E+03  0.25959102877E+04  0.28316480707E+04  0.15294330000E+03 0.  0.
<mgrwt>
<rscale>  0 0.12555297E+04</rscale>
<asrwt>0</asrwt>
<pdfrwt beam="1">  1        2 0.45333308E+00 0.12999612E+04</pdfrwt>
<pdfrwt beam="2">  1       -2 0.29722368E+00 0.12999612E+04</pdfrwt>
<totfact> 0.60285150E-02</totfact>
</mgrwt>
</event>
<event>
 4    1  0.4520003E-007  0.1428376E+04  0.7818608E-02  0.8961942E-01
          2   -1    0    0  501    0  0.00000000000E+00  0.00000000000E+00  0.19357900106E+04  0.19357900106E+04  0.25500000000E-02 0. -1.
         -2   -1    0    0    0  501 -0.00000000000E+00 -0.00000000000E+00 -0.20066228592E+04  0.20066228592E+04  0.25500000000E-02 0.  1.
    8880023    1    1    2    0    0 -0.77861219957E+03  0.10001049384E+04  0.13963816792E+04  0.19975331900E+04  0.65864270000E+03 0.  0.
    8880022    1    1    2    0    0  0.77861219957E+03 -0.10001049384E+04 -0.14672145278E+04  0.19448796797E+04  0.15294330000E+03 0.  0.
<mgrwt>
<rscale>  0 0.13888326E+04</rscale>
<asrwt>0</asrwt>
<pdfrwt beam="1">  1        2 0.29781385E+00 0.14283757E+04</pdfrwt>
<pdfrwt beam="2">  1       -2 0.30871121E+00 0.14283757E+04</pdfrwt>
<totfact> 0.19300968E-01</totfact>
</mgrwt>
</event>
<event>
 4    1  0.2701205E-007  0.7258311E+03  0.7818608E-02  0.9903328E-01
         -2   -1    0    0    0  501 -0.00000000000E+00  0.00000000000E+00  0.70095523282E+03  0.70095523282E+03  0.25500000000E-02 0.  1.
          2   -1    0    0  501    0  0.00000000000E+00 -0.00000000000E+00 -0.11346798059E+04  0.11346798059E+04  0.25500000000E-02 0. -1.
    8880023    1    1    2    0    0  0.16204414977E+03  0.25838401667E+03 -0.96300914063E+03  0.12059093738E+04  0.65864270000E+03 0. -1.
    8880022    1    1    2    0    0 -0.16204414977E+03 -0.25838401667E+03  0.52928456759E+03  0.62972566491E+03  0.15294330000E+03 0.  0.
<mgrwt>
<rscale>  0 0.60100284E+03</rscale>
<asrwt>0</asrwt>
<pdfrwt beam="1">  1        2 0.17456612E+00 0.72583112E+03</pdfrwt>
<pdfrwt beam="2">  1       -2 0.10783927E+00 0.72583112E+03</pdfrwt>
<totfact> 0.14604980E+01</totfact>
</mgrwt>
</event>
<event>
 4    1  0.2701205E-007  0.7939097E+03  0.7818608E-02  0.9724123E-01
         -2   -1    0    0    0  501 -0.00000000000E+00  0.00000000000E+00  0.56231927263E+03  0.56231927263E+03  0.25500000000E-02 0.  1.
          2   -1    0    0  501    0  0.00000000000E+00 -0.00000000000E+00 -0.25693252595E+04  0.25693252595E+04  0.25500000000E-02 0. -1.
    8880023    1    1    2    0    0  0.24554685016E+03 -0.36903806360E+03 -0.23949195356E+04  0.25230798910E+04  0.65864270000E+03 0. -1.
    8880022    1    1    2    0    0 -0.24554685016E+03  0.36903806360E+03  0.38791354880E+03  0.60856464108E+03  0.15294330000E+03 0.  0.
<mgrwt>
<rscale>  0 0.69598527E+03</rscale>
<asrwt>0</asrwt>
<pdfrwt beam="1">  1        2 0.39528080E+00 0.79390966E+03</pdfrwt>
<pdfrwt beam="2">  1       -2 0.86510659E-01 0.79390966E+03</pdfrwt>
<totfact> 0.38325328E+00</totfact>
</mgrwt>
</event>
<event>
 4    1  0.2701205E-007  0.8474231E+03  0.7818608E-02  0.9616339E-01
          2   -1    0    0  501    0  0.00000000000E+00  0.00000000000E+00  0.25397409007E+04  0.25397409007E+04  0.25500000000E-02 0. -1.
         -2   -1    0    0    0  501 -0.00000000000E+00 -0.00000000000E+00 -0.70407127067E+03  0.70407127067E+03  0.25500000000E-02 0.  1.
    8880023    1    1    2    0    0  0.90760745551E+02  0.52543149274E+03  0.23433378679E+04  0.24918584100E+04  0.65864270000E+03 0.  0.
    8880022    1    1    2    0    0 -0.90760745551E+02 -0.52543149274E+03 -0.50766823782E+03  0.75195376134E+03  0.15294330000E+03 0.  1.
<mgrwt>
<rscale>  0 0.76224131E+03</rscale>
<asrwt>0</asrwt>
<pdfrwt beam="1">  1        2 0.39072937E+00 0.84742314E+03</pdfrwt>
<pdfrwt beam="2">  1       -2 0.10831866E+00 0.84742314E+03</pdfrwt>
<totfact> 0.23257350E+00</totfact>
</mgrwt>
</event>
<event>
 4    1  0.2701205E-007  0.1763435E+04  0.7818608E-02  0.8743037E-01
         -2   -1    0    0    0  501 -0.00000000000E+00  0.00000000000E+00  0.25651936053E+04  0.25651936053E+04  0.25500000000E-02 0.  1.
          2   -1    0    0  501    0  0.00000000000E+00 -0.00000000000E+00 -0.26406874897E+04  0.26406874897E+04  0.25500000000E-02 0. -1.
    8880023    1    1    2    0    0 -0.16277354229E+04 -0.16238969067E+03 -0.20059947648E+04  0.26709021363E+04  0.65864270000E+03 0.  0.
    8880022    1    1    2    0    0  0.16277354229E+04  0.16238969067E+03  0.19305008805E+04  0.25349789587E+04  0.15294330000E+03 0.  0.
<mgrwt>
<rscale>  0 0.17325098E+04</rscale>
<asrwt>0</asrwt>
<pdfrwt beam="1">  1        2 0.40625961E+00 0.17634351E+04</pdfrwt>
<pdfrwt beam="2">  1       -2 0.39464517E+00 0.17634351E+04</pdfrwt>
<totfact> 0.21004162E-02</totfact>
</mgrwt>
</event>
<event>
 4    1  0.2701205E-007  0.6806816E+03  0.7818608E-02  0.1008941E+00
         -2   -1    0    0    0  501 -0.00000000000E+00  0.00000000000E+00  0.92880090662E+03  0.92880090663E+03  0.25500000000E-02 0.  1.
          2   -1    0    0  501    0  0.00000000000E+00 -0.00000000000E+00 -0.17798744779E+04  0.17798744779E+04  0.25500000000E-02 0. -1.
    8880023    1    1    2    0    0  0.11145232470E+03 -0.13075044234E+03 -0.16989063704E+04  0.18301940773E+04  0.65864270000E+03 0.  0.
    8880022    1    1    2    0    0 -0.11145232470E+03  0.13075044234E+03  0.84783279914E+03  0.87848130723E+03  0.15294330000E+03 0.  0.
<mgrwt>
<rscale>  0 0.51897827E+03</rscale>
<asrwt>0</asrwt>
<pdfrwt beam="1">  1        2 0.27382684E+00 0.68068165E+03</pdfrwt>
<pdfrwt beam="2">  1       -2 0.14289245E+00 0.68068165E+03</pdfrwt>
<totfact> 0.31502591E+00</totfact>
</mgrwt>
</event>
<event>
 4    1  0.2701205E-007  0.8187045E+03  0.7818608E-02  0.9671723E-01
         -2   -1    0    0    0  501 -0.00000000000E+00  0.00000000000E+00  0.22402340939E+04  0.22402340939E+04  0.25500000000E-02 0.  1.
          2   -1    0    0  501    0  0.00000000000E+00 -0.00000000000E+00 -0.48094124649E+03  0.48094124650E+03  0.25500000000E-02 0. -1.
    8880023    1    1    2    0    0 -0.24382582779E+03  0.42073256740E+03 -0.70468769611E+02  0.82173169667E+03  0.65864270000E+03 0.  0.
    8880022    1    1    2    0    0  0.24382582779E+03 -0.42073256740E+03  0.18297616170E+04  0.18994436437E+04  0.15294330000E+03 0.  0.
<mgrwt>
<rscale>  0 0.72725637E+03</rscale>
<asrwt>0</asrwt>
<pdfrwt beam="1">  1        2 0.73990960E-01 0.81870455E+03</pdfrwt>
<pdfrwt beam="2">  1       -2 0.34465141E+00 0.81870455E+03</pdfrwt>
<totfact> 0.11271690E+00</totfact>
</mgrwt>
</event>
<event>
 4    1  0.2701205E-007  0.7257604E+03  0.7818608E-02  0.9903556E-01
         -2   -1    0    0    0  501 -0.00000000000E+00  0.00000000000E+00  0.96251525247E+02  0.96251525281E+02  0.25500000000E-02 0.  1.
          2   -1    0    0  501    0  0.00000000000E+00 -0.00000000000E+00 -0.33584433309E+04  0.33584433309E+04  0.25500000000E-02 0. -1.
    8880023    1    1    2    0    0  0.20400555632E+03 -0.22649423261E+03 -0.27115280501E+04  0.28069756816E+04  0.65864270000E+03 0.  0.
    8880022    1    1    2    0    0 -0.20400555632E+03  0.22649423261E+03 -0.55066375557E+03  0.64771917458E+03  0.15294330000E+03 0.  0.
<mgrwt>
<rscale>  0 0.60089261E+03</rscale>
<asrwt>0</asrwt>
<pdfrwt beam="1">  1        2 0.51668350E+00 0.72576037E+03</pdfrwt>
<pdfrwt beam="2">  1       -2 0.14807930E-01 0.72576037E+03</pdfrwt>
<totfact> 0.39120630E+01</totfact>
</mgrwt>
</event>
<event>
 4    1  0.2701205E-007  0.7342686E+03  0.7818608E-02  0.9876968E-01
          2   -1    0    0  501    0  0.00000000000E+00  0.00000000000E+00  0.33820760929E+04  0.33820760929E+04  0.25500000000E-02 0. -1.
         -2   -1    0    0    0  501 -0.00000000000E+00 -0.00000000000E+00 -0.27896331432E+03  0.27896331434E+03  0.25500000000E-02 0.  1.
    8880023    1    1    2    0    0 -0.21697377149E+02  0.32383543419E+03  0.32050207607E+04  0.32880554204E+04  0.65864270000E+03 0.  0.
    8880022    1    1    2    0    0  0.21697377149E+02 -0.32383543419E+03 -0.10190798214E+03  0.37298398686E+03  0.15294330000E+03 0.  0.
<mgrwt>
<rscale>  0 0.61390611E+03</rscale>
<asrwt>0</asrwt>
<pdfrwt beam="1">  1        2 0.52031937E+00 0.73426860E+03</pdfrwt>
<pdfrwt beam="2">  1       -2 0.42917435E-01 0.73426860E+03</pdfrwt>
<totfact> 0.54639058E+00</totfact>
</mgrwt>
</event>
<event>
 4    1  0.2701205E-007  0.1304035E+04  0.7818608E-02  0.9062083E-01
         -2   -1    0    0    0  501 -0.00000000000E+00  0.00000000000E+00  0.11087408254E+04  0.11087408254E+04  0.25500000000E-02 0.  1.
          2   -1    0    0  501    0  0.00000000000E+00 -0.00000000000E+00 -0.18366428495E+04  0.18366428495E+04  0.25500000000E-02 0. -1.
    8880023    1    1    2    0    0 -0.69415785402E+02  0.11233335931E+04  0.38044544579E+03  0.13583982686E+04  0.65864270000E+03 0.  0.
    8880022    1    1    2    0    0  0.69415785402E+02 -0.11233335931E+04 -0.11083474700E+04  0.15869854063E+04  0.15294330000E+03 0.  0.
<mgrwt>
<rscale>  0 0.12597790E+04</rscale>
<asrwt>0</asrwt>
<pdfrwt beam="1">  1        2 0.28256044E+00 0.13040349E+04</pdfrwt>
<pdfrwt beam="2">  1       -2 0.17057551E+00 0.13040349E+04</pdfrwt>
<totfact> 0.16697016E+00</totfact>
</mgrwt>
</event>
<event>
 4    1  0.2701205E-007  0.8692941E+03  0.7818608E-02  0.9577240E-01
          2   -1    0    0  501    0  0.00000000000E+00  0.00000000000E+00  0.13695843098E+04  0.13695843098E+04  0.25500000000E-02 0. -1.
         -2   -1    0    0    0  501 -0.00000000000E+00 -0.00000000000E+00 -0.11410272111E+04  0.11410272111E+04  0.25500000000E-02 0.  1.
    8880023    1    1    2    0    0 -0.52250793573E+03  0.22101473893E+03  0.11354495698E+04  0.14300062900E+04  0.65864270000E+03 0.  0.
    8880022    1    1    2    0    0  0.52250793573E+03 -0.22101473893E+03 -0.90689247110E+03  0.10806052308E+04  0.15294330000E+03 0.  0.
<mgrwt>
<rscale>  0 0.78821074E+03</rscale>
<asrwt>0</asrwt>
<pdfrwt beam="1">  1        2 0.21070528E+00 0.86929412E+03</pdfrwt>
<pdfrwt beam="2">  1       -2 0.17554265E+00 0.86929412E+03</pdfrwt>
<totfact> 0.29591042E+00</totfact>
</mgrwt>
</event>
<event>
 4    1  0.2701205E-007  0.8434154E+03  0.7818608E-02  0.9623774E-01
         -2   -1    0    0    0  501 -0.00000000000E+00  0.00000000000E+00  0.53693445443E+03  0.53693445443E+03  0.25500000000E-02 0.  1.
          2   -1    0    0  501    0  0.00000000000E+00 -0.00000000000E+00 -0.31491450758E+04  0.31491450758E+04  0.25500000000E-02 0. -1.
    8880023    1    1    2    0    0 -0.11744334212E+02  0.52668904038E+03 -0.29321400034E+04  0.30510317075E+04  0.65864270000E+03 0. -1.
    8880022    1    1    2    0    0  0.11744334212E+02 -0.52668904038E+03  0.31992938201E+03  0.63504782271E+03  0.15294330000E+03 0.  0.
<mgrwt>
<rscale>  0 0.75742474E+03</rscale>
<asrwt>0</asrwt>
<pdfrwt beam="1">  1        2 0.48448385E+00 0.84341537E+03</pdfrwt>
<pdfrwt beam="2">  1       -2 0.82605303E-01 0.84341537E+03</pdfrwt>
<totfact> 0.18945749E+00</totfact>
</mgrwt>
</event>
<event>
 4    1  0.2701205E-007  0.8090360E+03  0.7818608E-02  0.9691588E-01
         -2   -1    0    0    0  501 -0.00000000000E+00  0.00000000000E+00  0.98819704100E+03  0.98819704100E+03  0.25500000000E-02 0.  1.
          2   -1    0    0  501    0  0.00000000000E+00 -0.00000000000E+00 -0.20887004818E+04  0.20887004818E+04  0.25500000000E-02 0. -1.
    8880023    1    1    2    0    0 -0.46715575495E+03 -0.49944783057E+02 -0.19404808847E+04  0.21023808529E+04  0.65864270000E+03 0. -1.
    8880022    1    1    2    0    0  0.46715575495E+03  0.49944783057E+02  0.83997744384E+03  0.97451666990E+03  0.15294330000E+03 0.  0.
<mgrwt>
<rscale>  0 0.71519823E+03</rscale>
<asrwt>0</asrwt>
<pdfrwt beam="1">  1        2 0.32133854E+00 0.80903596E+03</pdfrwt>
<pdfrwt beam="2">  1       -2 0.15203031E+00 0.80903596E+03</pdfrwt>
<totfact> 0.17740848E+00</totfact>
</mgrwt>
</event>
<event>
 4    1  0.2701205E-007  0.1350423E+04  0.7818608E-02  0.9023195E-01
         -2   -1    0    0    0  501 -0.00000000000E+00  0.00000000000E+00  0.12526194337E+04  0.12526194337E+04  0.25500000000E-02 0.  1.
          2   -1    0    0  501    0  0.00000000000E+00 -0.00000000000E+00 -0.17005360194E+04  0.17005360194E+04  0.25500000000E-02 0. -1.
    8880023    1    1    2    0    0  0.11729411206E+04 -0.11850066268E+03 -0.96193065828E+03  0.16579970075E+04  0.65864270000E+03 0.  0.
    8880022    1    1    2    0    0 -0.11729411206E+04  0.11850066268E+03  0.51401407261E+03  0.12951584456E+04  0.15294330000E+03 0.  0.
<mgrwt>
<rscale>  0 0.13080637E+04</rscale>
<asrwt>0</asrwt>
<pdfrwt beam="1">  1        2 0.26162093E+00 0.13504234E+04</pdfrwt>
<pdfrwt beam="2">  1       -2 0.19271068E+00 0.13504234E+04</pdfrwt>
<totfact> 0.13909392E+00</totfact>
</mgrwt>
</event>
<event>
 4    1  0.2701205E-007  0.1268606E+04  0.7818608E-02  0.9093156E-01
         -2   -1    0    0    0  501 -0.00000000000E+00  0.00000000000E+00  0.14293847002E+04  0.14293847002E+04  0.25500000000E-02 0.  1.
          2   -1    0    0  501    0  0.00000000000E+00 -0.00000000000E+00 -0.17482381652E+04  0.17482381652E+04  0.25500000000E-02 0. -1.
    8880023    1    1    2    0    0 -0.31689925543E+03 -0.10368825710E+04  0.88766098989E+03  0.15483225902E+04  0.65864270000E+03 0.  1.
    8880022    1    1    2    0    0  0.31689925543E+03  0.10368825710E+04 -0.12065144549E+04  0.16293002752E+04  0.15294330000E+03 0.  0.
<mgrwt>
<rscale>  0 0.12227701E+04</rscale>
<asrwt>0</asrwt>
<pdfrwt beam="1">  1        2 0.26895972E+00 0.12686059E+04</pdfrwt>
<pdfrwt beam="2">  1       -2 0.21990534E+00 0.12686059E+04</pdfrwt>
<totfact> 0.87833259E-01</totfact>
</mgrwt>
</event>
<event>
 4    1  0.2701205E-007  0.9901836E+03  0.7818608E-02  0.9394515E-01
         -2   -1    0    0    0  501 -0.00000000000E+00  0.00000000000E+00  0.65013140665E+03  0.65013140665E+03  0.25500000000E-02 0.  1.
          2   -1    0    0  501    0  0.00000000000E+00 -0.00000000000E+00 -0.35858191693E+04  0.35858191693E+04  0.25500000000E-02 0. -1.
    8880023    1    1    2    0    0 -0.73873717415E+03 -0.30343105902E+02 -0.32652942605E+04  0.34121269218E+04  0.65864270000E+03 0. -1.
    8880022    1    1    2    0    0  0.73873717415E+03  0.30343105902E+02  0.32960649792E+03  0.82382365409E+03  0.15294330000E+03 0.  0.
<mgrwt>
<rscale>  0 0.92528480E+03</rscale>
<asrwt>0</asrwt>
<pdfrwt beam="1">  1        2 0.55166447E+00 0.99018358E+03</pdfrwt>
<pdfrwt beam="2">  1       -2 0.10002022E+00 0.99018358E+03</pdfrwt>
<totfact> 0.60577814E-01</totfact>
</mgrwt>
</event>
<event>
 4    1  0.2701205E-007  0.7590247E+03  0.7818608E-02  0.9807639E-01
         -2   -1    0    0    0  501 -0.00000000000E+00  0.00000000000E+00  0.46899070898E+03  0.46899070899E+03  0.25500000000E-02 0.  1.
          2   -1    0    0  501    0  0.00000000000E+00 -0.00000000000E+00 -0.13125301362E+04  0.13125301362E+04  0.25500000000E-02 0. -1.
    8880023    1    1    2    0    0  0.24263502964E+03  0.28885379180E+03 -0.10729352141E+04  0.13142710719E+04  0.65864270000E+03 0.  0.
    8880022    1    1    2    0    0 -0.24263502964E+03 -0.28885379180E+03  0.22939578680E+03  0.46724977331E+03  0.15294330000E+03 0.  0.
<mgrwt>
<rscale>  0 0.64954197E+03</rscale>
<asrwt>0</asrwt>
<pdfrwt beam="1">  1        2 0.20192771E+00 0.75902469E+03</pdfrwt>
<pdfrwt beam="2">  1       -2 0.72152417E-01 0.75902469E+03</pdfrwt>
<totfact> 0.28822990E+01</totfact>
</mgrwt>
</event>
<event>
 4    1  0.2701205E-007  0.1178099E+04  0.7818608E-02  0.9178711E-01
          2   -1    0    0  501    0  0.00000000000E+00  0.00000000000E+00  0.82041058148E+03  0.82041058149E+03  0.25500000000E-02 0. -1.
         -2   -1    0    0    0  501 -0.00000000000E+00 -0.00000000000E+00 -0.16184624844E+04  0.16184624844E+04  0.25500000000E-02 0.  1.
    8880023    1    1    2    0    0 -0.88308605652E+03 -0.41745310515E+03 -0.15888051786E+02  0.11782065671E+04  0.65864270000E+03 0. -1.
    8880022    1    1    2    0    0  0.88308605652E+03  0.41745310515E+03 -0.78216385114E+03  0.12606664988E+04  0.15294330000E+03 0.  1.
<mgrwt>
<rscale>  0 0.11275895E+04</rscale>
<asrwt>0</asrwt>
<pdfrwt beam="1">  1        2 0.12621701E+00 0.11780994E+04</pdfrwt>
<pdfrwt beam="2">  1       -2 0.24899423E+00 0.11780994E+04</pdfrwt>
<totfact> 0.21239217E+00</totfact>
</mgrwt>
</event>
<event>
 4    1  0.2701205E-007  0.7065024E+03  0.7818608E-02  0.9971226E-01
         -2   -1    0    0    0  501 -0.00000000000E+00  0.00000000000E+00  0.19945211800E+03  0.19945211802E+03  0.25500000000E-02 0.  1.
          2   -1    0    0  501    0  0.00000000000E+00 -0.00000000000E+00 -0.29686268022E+04  0.29686268023E+04  0.25500000000E-02 0. -1.
    8880023    1    1    2    0    0  0.25073537598E+02  0.25437509817E+03 -0.27816281696E+04  0.28699478834E+04  0.65864270000E+03 0. -1.
    8880022    1    1    2    0    0 -0.25073537598E+02 -0.25437509817E+03  0.12453485377E+02  0.29813103691E+03  0.15294330000E+03 0.  0.
<mgrwt>
<rscale>  0 0.56930133E+03</rscale>
<asrwt>0</asrwt>
<pdfrwt beam="1">  1        2 0.45671178E+00 0.70650236E+03</pdfrwt>
<pdfrwt beam="2">  1       -2 0.30684943E-01 0.70650236E+03</pdfrwt>
<totfact> 0.19093195E+01</totfact>
</mgrwt>
</event>
<event>
 4    1  0.2701205E-007  0.7004439E+03  0.7818608E-02  0.9995365E-01
         -2   -1    0    0    0  501 -0.00000000000E+00  0.00000000000E+00  0.28485761486E+03  0.28485761487E+03  0.25500000000E-02 0.  1.
          2   -1    0    0  501    0  0.00000000000E+00 -0.00000000000E+00 -0.15494910094E+04  0.15494910094E+04  0.25500000000E-02 0. -1.
    8880023    1    1    2    0    0  0.21445632434E+03 -0.10401870596E+03 -0.13647245475E+04  0.15339800204E+04  0.65864270000E+03 0. -1.
    8880022    1    1    2    0    0 -0.21445632434E+03  0.10401870596E+03  0.10009115300E+03  0.30036860382E+03  0.15294330000E+03 0.  0.
<mgrwt>
<rscale>  0 0.55853947E+03</rscale>
<asrwt>0</asrwt>
<pdfrwt beam="1">  1        2 0.23838323E+00 0.70044387E+03</pdfrwt>
<pdfrwt beam="2">  1       -2 0.43824249E-01 0.70044387E+03</pdfrwt>
<totfact> 0.60363755E+01</totfact>
</mgrwt>
</event>
<event>
 4    1  0.2701205E-007  0.8580715E+03  0.7818608E-02  0.9597003E-01
         -2   -1    0    0    0  501 -0.00000000000E+00  0.00000000000E+00  0.77041220562E+03  0.77041220562E+03  0.25500000000E-02 0.  1.
          2   -1    0    0  501    0  0.00000000000E+00 -0.00000000000E+00 -0.16439926957E+04  0.16439926957E+04  0.25500000000E-02 0. -1.
    8880023    1    1    2    0    0 -0.31431552710E+03 -0.45131164554E+03 -0.13972838543E+04  0.16397221801E+04  0.65864270000E+03 0.  0.
    8880022    1    1    2    0    0  0.31431552710E+03  0.45131164554E+03  0.52370336421E+03  0.77468272129E+03  0.15294330000E+03 0.  0.
<mgrwt>
<rscale>  0 0.77494848E+03</rscale>
<asrwt>0</asrwt>
<pdfrwt beam="1">  1        2 0.25292195E+00 0.85807148E+03</pdfrwt>
<pdfrwt beam="2">  1       -2 0.11852495E+00 0.85807148E+03</pdfrwt>
<totfact> 0.58420098E+00</totfact>
</mgrwt>
</event>
<event>
 4    1  0.2701205E-007  0.1606088E+04  0.7818608E-02  0.8838142E-01
          2   -1    0    0  501    0  0.00000000000E+00  0.00000000000E+00  0.83247132278E+03  0.83247132278E+03  0.25500000000E-02 0. -1.
         -2   -1    0    0    0  501 -0.00000000000E+00 -0.00000000000E+00 -0.30265432580E+04  0.30265432580E+04  0.25500000000E-02 0.  1.
    8880023    1    1    2    0    0  0.22073690293E+03  0.14480969082E+04 -0.16115327851E+04  0.22752049489E+04  0.65864270000E+03 0.  0.
    8880022    1    1    2    0    0 -0.22073690293E+03 -0.14480969082E+04 -0.58253915015E+03  0.15838096319E+04  0.15294330000E+03 0.  0.
<mgrwt>
<rscale>  0 0.15716724E+04</rscale>
<asrwt>0</asrwt>
<pdfrwt beam="1">  1        2 0.12807251E+00 0.16060883E+04</pdfrwt>
<pdfrwt beam="2">  1       -2 0.46562203E+00 0.16060883E+04</pdfrwt>
<totfact> 0.83983171E-02</totfact>
</mgrwt>
</event>
<event>
 4    1  0.2701205E-007  0.7044552E+03  0.7818608E-02  0.9979198E-01
         -2   -1    0    0    0  501 -0.00000000000E+00  0.00000000000E+00  0.49377426626E+03  0.49377426627E+03  0.25500000000E-02 0.  1.
          2   -1    0    0  501    0  0.00000000000E+00 -0.00000000000E+00 -0.90471580004E+03  0.90471580004E+03  0.25500000000E-02 0. -1.
    8880023    1    1    2    0    0  0.22142970182E+02  0.24891075041E+03 -0.69558983941E+03  0.99000116351E+03  0.65864270000E+03 0. -1.
    8880022    1    1    2    0    0 -0.22142970182E+02 -0.24891075041E+03  0.28464830564E+03  0.40848890280E+03  0.15294330000E+03 0.  0.
<mgrwt>
<rscale>  0 0.56571839E+03</rscale>
<asrwt>0</asrwt>
<pdfrwt beam="1">  1        2 0.13918705E+00 0.70445516E+03</pdfrwt>
<pdfrwt beam="2">  1       -2 0.75965272E-01 0.70445516E+03</pdfrwt>
<totfact> 0.46021488E+01</totfact>
</mgrwt>
</event>
<event>
 4    1  0.3397834E-007  0.9091301E+03  0.7818608E-02  0.9511531E-01
         -2   -1    0    0    0  501 -0.00000000000E+00  0.00000000000E+00  0.16406177750E+04  0.16406177750E+04  0.25500000000E-02 0.  1.
          2   -1    0    0  501    0  0.00000000000E+00 -0.00000000000E+00 -0.24088744897E+04  0.24088744897E+04  0.25500000000E-02 0. -1.
    8880023    1    1    2    0    0  0.23925099355E+03 -0.57919457363E+03 -0.22536320002E+04  0.24300976916E+04  0.65864270000E+03 0.  0.
    8880022    1    1    2    0    0 -0.23925099355E+03  0.57919457363E+03  0.14853752855E+04  0.16193945732E+04  0.15294330000E+03 0.  0.
<mgrwt>
<rscale>  0 0.83439007E+03</rscale>
<asrwt>0</asrwt>
<pdfrwt beam="1">  1        2 0.37059607E+00 0.90913013E+03</pdfrwt>
<pdfrwt beam="2">  1       -2 0.25240274E+00 0.90913013E+03</pdfrwt>
<totfact> 0.25091888E-01</totfact>
</mgrwt>
</event>
<event>
 4    1  0.2701205E-007  0.1140292E+04  0.7818608E-02  0.9217469E-01
          2   -1    0    0  501    0  0.00000000000E+00  0.00000000000E+00  0.67411050424E+03  0.67411050425E+03  0.25500000000E-02 0. -1.
         -2   -1    0    0    0  501 -0.00000000000E+00 -0.00000000000E+00 -0.25596091959E+04  0.25596091959E+04  0.25500000000E-02 0.  1.
    8880023    1    1    2    0    0 -0.92709727316E+03 -0.83337869186E+02 -0.16788463143E+02  0.11404151056E+04  0.65864270000E+03 0.  0.
    8880022    1    1    2    0    0  0.92709727316E+03  0.83337869186E+02 -0.18687102285E+04  0.20933045946E+04  0.15294330000E+03 0.  0.
<mgrwt>
<rscale>  0 0.10874926E+04</rscale>
<asrwt>0</asrwt>
<pdfrwt beam="1">  1        2 0.10370931E+00 0.11402915E+04</pdfrwt>
<pdfrwt beam="2">  1       -2 0.39378603E+00 0.11402915E+04</pdfrwt>
<totfact> 0.34941354E-01</totfact>
</mgrwt>
</event>
<event>
 4    1  0.2701205E-007  0.6691828E+03  0.7818608E-02  0.1016256E+00
          2   -1    0    0  501    0  0.00000000000E+00  0.00000000000E+00  0.29142284705E+04  0.29142284705E+04  0.25500000000E-02 0. -1.
         -2   -1    0    0    0  501 -0.00000000000E+00 -0.00000000000E+00 -0.42578469377E+03  0.42578469378E+03  0.25500000000E-02 0.  1.
    8880023    1    1    2    0    0 -0.73009175655E+02 -0.93086720518E+02  0.28513431389E+04  0.29288160372E+04  0.65864270000E+03 0. -1.
    8880022    1    1    2    0    0  0.73009175655E+02  0.93086720518E+02 -0.36289936219E+03  0.41119712713E+03  0.15294330000E+03 0.  0.
<mgrwt>
<rscale>  0 0.49062409E+03</rscale>
<asrwt>0</asrwt>
<pdfrwt beam="1">  1        2 0.44834283E+00 0.66918285E+03</pdfrwt>
<pdfrwt beam="2">  1       -2 0.65505339E-01 0.66918285E+03</pdfrwt>
<totfact> 0.45703231E+00</totfact>
</mgrwt>
</event>
<event>
 4    1  0.2701205E-007  0.6917632E+03  0.7818608E-02  0.1003326E+00
          2   -1    0    0  501    0  0.00000000000E+00  0.00000000000E+00  0.19260575138E+03  0.19260575140E+03  0.25500000000E-02 0. -1.
         -2   -1    0    0    0  501 -0.00000000000E+00 -0.00000000000E+00 -0.15305222493E+04  0.15305222493E+04  0.25500000000E-02 0.  1.
    8880023    1    1    2    0    0 -0.12288103351E+03 -0.17212331777E+03 -0.52237011466E+03  0.86683731338E+03  0.65864270000E+03 0.  0.
    8880022    1    1    2    0    0  0.12288103351E+03  0.17212331777E+03 -0.81554638326E+03  0.85629068732E+03  0.15294330000E+03 0.  0.
<mgrwt>
<rscale>  0 0.54215781E+03</rscale>
<asrwt>0</asrwt>
<pdfrwt beam="1">  1        2 0.29631655E-01 0.69176325E+03</pdfrwt>
<pdfrwt beam="2">  1       -2 0.23546495E+00 0.69176325E+03</pdfrwt>
<totfact> 0.14674395E+01</totfact>
</mgrwt>
</event>
<event>
 4    1  0.2701205E-007  0.2114468E+04  0.7818608E-02  0.8566029E-01
         -2   -1    0    0    0  501 -0.00000000000E+00  0.00000000000E+00  0.22897716991E+04  0.22897716991E+04  0.25500000000E-02 0.  1.
          2   -1    0    0  501    0  0.00000000000E+00 -0.00000000000E+00 -0.22758111109E+04  0.22758111109E+04  0.25500000000E-02 0. -1.
    8880023    1    1    2    0    0 -0.75338487077E+03  0.18626794452E+04 -0.96620265293E+03  0.23247626227E+04  0.65864270000E+03 0.  0.
    8880022    1    1    2    0    0  0.75338487077E+03 -0.18626794452E+04  0.98016324112E+03  0.22408201872E+04  0.15294330000E+03 0.  0.
<mgrwt>
<rscale>  0 0.20891709E+04</rscale>
<asrwt>0</asrwt>
<pdfrwt beam="1">  1        2 0.35012479E+00 0.21144677E+04</pdfrwt>
<pdfrwt beam="2">  1       -2 0.35227257E+00 0.21144677E+04</pdfrwt>
<totfact> 0.61687684E-02</totfact>
</mgrwt>
</event>
<event>
 4    1  0.2701205E-007  0.9682222E+03  0.7818608E-02  0.9424367E-01
          2   -1    0    0  501    0  0.00000000000E+00  0.00000000000E+00  0.83848338662E+03  0.83848338662E+03  0.25500000000E-02 0. -1.
         -2   -1    0    0    0  501 -0.00000000000E+00 -0.00000000000E+00 -0.10192093559E+04  0.10192093559E+04  0.25500000000E-02 0.  1.
    8880023    1    1    2    0    0 -0.74252383866E+02 -0.70578370547E+03  0.26750288656E+03  0.10044959213E+04  0.65864270000E+03 0. -1.
    8880022    1    1    2    0    0  0.74252383866E+02  0.70578370547E+03 -0.44822885580E+03  0.85319682114E+03  0.15294330000E+03 0. -1.
<mgrwt>
<rscale>  0 0.90097199E+03</rscale>
<asrwt>0</asrwt>
<pdfrwt beam="1">  1        2 0.12899744E+00 0.96822222E+03</pdfrwt>
<pdfrwt beam="2">  1       -2 0.15680144E+00 0.96822222E+03</pdfrwt>
<totfact> 0.85565585E+00</totfact>
</mgrwt>
</event>
<event>
 4    1  0.2701205E-007  0.6635165E+03  0.7818608E-02  0.1020812E+00
          2   -1    0    0  501    0  0.00000000000E+00  0.00000000000E+00  0.18562005164E+04  0.18562005164E+04  0.25500000000E-02 0. -1.
         -2   -1    0    0    0  501 -0.00000000000E+00 -0.00000000000E+00 -0.10627243951E+03  0.10627243954E+03  0.25500000000E-02 0.  1.
    8880023    1    1    2    0    0 -0.26231825852E+02 -0.75867276176E+02  0.16058931698E+04  0.17375692882E+04  0.65864270000E+03 0. -1.
    8880022    1    1    2    0    0  0.26231825852E+02  0.75867276176E+02  0.14403490708E+03  0.22490366772E+03  0.15294330000E+03 0.  0.
<mgrwt>
<rscale>  0 0.47394796E+03</rscale>
<asrwt>0</asrwt>
<pdfrwt beam="1">  1        2 0.28556927E+00 0.66351651E+03</pdfrwt>
<pdfrwt beam="2">  1       -2 0.16349608E-01 0.66351651E+03</pdfrwt>
<totfact> 0.24977432E+02</totfact>
</mgrwt>
</event>
<event>
 4    1  0.2701205E-007  0.7247946E+03  0.7818608E-02  0.9906684E-01
          2   -1    0    0  501    0  0.00000000000E+00  0.00000000000E+00  0.17017455833E+04  0.17017455833E+04  0.25500000000E-02 0. -1.
         -2   -1    0    0    0  501 -0.00000000000E+00 -0.00000000000E+00 -0.21511342214E+03  0.21511342216E+03  0.25500000000E-02 0.  1.
    8880023    1    1    2    0    0 -0.24148440854E+03  0.18221501610E+03  0.13846372173E+04  0.15628651450E+04  0.65864270000E+03 0. -1.
    8880022    1    1    2    0    0  0.24148440854E+03 -0.18221501610E+03  0.10199494386E+03  0.35399386047E+03  0.15294330000E+03 0.  0.
<mgrwt>
<rscale>  0 0.59938425E+03</rscale>
<asrwt>0</asrwt>
<pdfrwt beam="1">  1        2 0.26180702E+00 0.72479462E+03</pdfrwt>
<pdfrwt beam="2">  1       -2 0.33094371E-01 0.72479462E+03</pdfrwt>
<totfact> 0.85440814E+01</totfact>
</mgrwt>
</event>
<event>
 4    1  0.2701205E-007  0.7992155E+03  0.7818608E-02  0.9712495E-01
          2   -1    0    0  501    0  0.00000000000E+00  0.00000000000E+00  0.15001214461E+04  0.15001214461E+04  0.25500000000E-02 0. -1.
         -2   -1    0    0    0  501 -0.00000000000E+00 -0.00000000000E+00 -0.10272968748E+04  0.10272968748E+04  0.25500000000E-02 0.  1.
    8880023    1    1    2    0    0  0.14979303609E+03 -0.42719701131E+03  0.13267598224E+04  0.15488825238E+04  0.65864270000E+03 0. -1.
    8880022    1    1    2    0    0 -0.14979303609E+03  0.42719701131E+03 -0.85393525103E+03  0.97853579705E+03  0.15294330000E+03 0.  0.
<mgrwt>
<rscale>  0 0.70277704E+03</rscale>
<asrwt>0</asrwt>
<pdfrwt beam="1">  1        2 0.23078791E+00 0.79921552E+03</pdfrwt>
<pdfrwt beam="2">  1       -2 0.15804567E+00 0.79921552E+03</pdfrwt>
<totfact> 0.33699498E+00</totfact>
</mgrwt>
</event>
<event>
 4    1  0.2701205E-007  0.6703498E+03  0.7818608E-02  0.1015413E+00
          2   -1    0    0  501    0  0.00000000000E+00  0.00000000000E+00  0.16632686343E+04  0.16632686343E+04  0.25500000000E-02 0. -1.
         -2   -1    0    0    0  501 -0.00000000000E+00 -0.00000000000E+00 -0.65186959898E+03  0.65186959898E+03  0.25500000000E-02 0.  1.
    8880023    1    1    2    0    0  0.10823651838E+03  0.61995676808E+02  0.15783570842E+04  0.17148119137E+04  0.65864270000E+03 0. -1.
    8880022    1    1    2    0    0 -0.10823651838E+03 -0.61995676808E+02 -0.56695804885E+03  0.60032631962E+03  0.15294330000E+03 0.  0.
<mgrwt>
<rscale>  0 0.49378728E+03</rscale>
<asrwt>0</asrwt>
<pdfrwt beam="1">  1        2 0.25588748E+00 0.67034977E+03</pdfrwt>
<pdfrwt beam="2">  1       -2 0.10028763E+00 0.67034977E+03</pdfrwt>
<totfact> 0.87757899E+00</totfact>
</mgrwt>
</event>
<event>
 4    1  0.2701205E-007  0.1574581E+04  0.7818608E-02  0.8858691E-01
          2   -1    0    0  501    0  0.00000000000E+00  0.00000000000E+00  0.13067468941E+04  0.13067468941E+04  0.25500000000E-02 0. -1.
         -2   -1    0    0    0  501 -0.00000000000E+00 -0.00000000000E+00 -0.22468368579E+04  0.22468368579E+04  0.25500000000E-02 0.  1.
    8880023    1    1    2    0    0  0.11598327402E+04  0.83682998163E+03 -0.13324135242E+04  0.20626760311E+04  0.65864270000E+03 0.  0.
    8880022    1    1    2    0    0 -0.11598327402E+04 -0.83682998163E+03  0.39232356031E+03  0.14909077210E+04  0.15294330000E+03 0.  0.
<mgrwt>
<rscale>  0 0.15393627E+04</rscale>
<asrwt>0</asrwt>
<pdfrwt beam="1">  1        2 0.20103798E+00 0.15745814E+04</pdfrwt>
<pdfrwt beam="2">  1       -2 0.34566721E+00 0.15745814E+04</pdfrwt>
<totfact> 0.25422570E-01</totfact>
</mgrwt>
</event>
<event>
 4    1  0.2701205E-007  0.8672750E+03  0.7818608E-02  0.9580751E-01
          2   -1    0    0  501    0  0.00000000000E+00  0.00000000000E+00  0.15995673639E+04  0.15995673639E+04  0.25500000000E-02 0. -1.
         -2   -1    0    0    0  501 -0.00000000000E+00 -0.00000000000E+00 -0.56467325484E+03  0.56467325484E+03  0.25500000000E-02 0.  1.
    8880023    1    1    2    0    0  0.18203018833E+03  0.53406058434E+03  0.12668797025E+04  0.15353013007E+04  0.65864270000E+03 0.  0.
    8880022    1    1    2    0    0 -0.18203018833E+03 -0.53406058434E+03 -0.23198559339E+03  0.62893931803E+03  0.15294330000E+03 0.  0.
<mgrwt>
<rscale>  0 0.78583390E+03</rscale>
<asrwt>0</asrwt>
<pdfrwt beam="1">  1        2 0.24608729E+00 0.86727499E+03</pdfrwt>
<pdfrwt beam="2">  1       -2 0.86872809E-01 0.86727499E+03</pdfrwt>
<totfact> 0.12938183E+01</totfact>
</mgrwt>
</event>
<event>
 4    1  0.2701205E-007  0.1496701E+04  0.7818608E-02  0.8911969E-01
         -2   -1    0    0    0  501 -0.00000000000E+00  0.00000000000E+00  0.21752484996E+04  0.21752484996E+04  0.25500000000E-02 0.  1.
          2   -1    0    0  501    0  0.00000000000E+00 -0.00000000000E+00 -0.99009820132E+03  0.99009820133E+03  0.25500000000E-02 0. -1.
    8880023    1    1    2    0    0  0.13315136573E+04  0.18268803814E+03  0.24151641732E+03  0.15160619793E+04  0.65864270000E+03 0.  0.
    8880022    1    1    2    0    0 -0.13315136573E+04 -0.18268803814E+03  0.94363388101E+03  0.16492847217E+04  0.15294330000E+03 0.  0.
<mgrwt>
<rscale>  0 0.14593136E+04</rscale>
<asrwt>0</asrwt>
<pdfrwt beam="1">  1        2 0.15232280E+00 0.14967010E+04</pdfrwt>
<pdfrwt beam="2">  1       -2 0.33465361E+00 0.14967010E+04</pdfrwt>
<totfact> 0.47124253E-01</totfact>
</mgrwt>
</event>
<event>
 4    1  0.2701205E-007  0.1041545E+04  0.7818608E-02  0.9329115E-01
          2   -1    0    0  501    0  0.00000000000E+00  0.00000000000E+00  0.15878936972E+04  0.15878936972E+04  0.25500000000E-02 0. -1.
         -2   -1    0    0    0  501 -0.00000000000E+00 -0.00000000000E+00 -0.13256540493E+04  0.13256540493E+04  0.25500000000E-02 0.  1.
    8880023    1    1    2    0    0 -0.39592295609E+02 -0.80587710510E+03 -0.97624016456E+03  0.14275365227E+04  0.65864270000E+03 0.  1.
    8880022    1    1    2    0    0  0.39592295609E+02  0.80587710510E+03  0.12384798125E+04  0.14860112239E+04  0.15294330000E+03 0.  0.
<mgrwt>
<rscale>  0 0.98146077E+03</rscale>
<asrwt>0</asrwt>
<pdfrwt beam="1">  1        2 0.24429134E+00 0.10415448E+04</pdfrwt>
<pdfrwt beam="2">  1       -2 0.20394678E+00 0.10415448E+04</pdfrwt>
<totfact> 0.14038452E+00</totfact>
</mgrwt>
</event>
<event>
 4    1  0.2701205E-007  0.7445765E+03  0.7818608E-02  0.9846811E-01
         -2   -1    0    0    0  501 -0.00000000000E+00  0.00000000000E+00  0.11266261358E+04  0.11266261358E+04  0.25500000000E-02 0.  1.
          2   -1    0    0  501    0  0.00000000000E+00 -0.00000000000E+00 -0.12189369337E+04  0.12189369337E+04  0.25500000000E-02 0. -1.
    8880023    1    1    2    0    0 -0.13431543186E+03  0.32022385058E+03 -0.10661509510E+04  0.13004122448E+04  0.65864270000E+03 0. -1.
    8880022    1    1    2    0    0  0.13431543186E+03 -0.32022385058E+03  0.97384015312E+03  0.10451508248E+04  0.15294330000E+03 0.  0.
<mgrwt>
<rscale>  0 0.62909771E+03</rscale>
<asrwt>0</asrwt>
<pdfrwt beam="1">  1        2 0.18752876E+00 0.74457649E+03</pdfrwt>
<pdfrwt beam="2">  1       -2 0.17332710E+00 0.74457649E+03</pdfrwt>
<totfact> 0.38171164E+00</totfact>
</mgrwt>
</event>
<event>
 4    1  0.2701205E-007  0.1024731E+04  0.7818608E-02  0.9349893E-01
          2   -1    0    0  501    0  0.00000000000E+00  0.00000000000E+00  0.33700994523E+04  0.33700994523E+04  0.25500000000E-02 0. -1.
         -2   -1    0    0    0  501 -0.00000000000E+00 -0.00000000000E+00 -0.60161279753E+03  0.60161279753E+03  0.25500000000E-02 0.  1.
    8880023    1    1    2    0    0  0.11477620400E+03  0.77658924376E+03  0.29742951722E+04  0.31458713273E+04  0.65864270000E+03 0.  0.
    8880022    1    1    2    0    0 -0.11477620400E+03 -0.77658924376E+03 -0.20580851737E+03  0.82584092255E+03  0.15294330000E+03 0.  0.
<mgrwt>
<rscale>  0 0.96316542E+03</rscale>
<asrwt>0</asrwt>
<pdfrwt beam="1">  1        2 0.51847683E+00 0.10247315E+04</pdfrwt>
<pdfrwt beam="2">  1       -2 0.92555817E-01 0.10247315E+04</pdfrwt>
<totfact> 0.10151720E+00</totfact>
</mgrwt>
</event>
<event>
 4    1  0.2701205E-007  0.8946194E+03  0.7818608E-02  0.9534725E-01
          2   -1    0    0  501    0  0.00000000000E+00  0.00000000000E+00  0.15143294379E+04  0.15143294379E+04  0.25500000000E-02 0. -1.
         -2   -1    0    0    0  501 -0.00000000000E+00 -0.00000000000E+00 -0.81659596414E+03  0.81659596415E+03  0.25500000000E-02 0.  1.
    8880023    1    1    2    0    0  0.30336543494E+03  0.52393036668E+03  0.12227666210E+04  0.15150914270E+04  0.65864270000E+03 0.  0.
    8880022    1    1    2    0    0 -0.30336543494E+03 -0.52393036668E+03 -0.52503314725E+03  0.81583397513E+03  0.15294330000E+03 0.  0.
<mgrwt>
<rscale>  0 0.81771393E+03</rscale>
<asrwt>0</asrwt>
<pdfrwt beam="1">  1        2 0.23297376E+00 0.89461937E+03</pdfrwt>
<pdfrwt beam="2">  1       -2 0.12563015E+00 0.89461937E+03</pdfrwt>
<totfact> 0.59339314E+00</totfact>
</mgrwt>
</event>
<event>
 4    1  0.2701205E-007  0.1194434E+04  0.7818608E-02  0.9162552E-01
         -2   -1    0    0    0  501 -0.00000000000E+00  0.00000000000E+00  0.87472940876E+03  0.87472940877E+03  0.25500000000E-02 0.  1.
          2   -1    0    0  501    0  0.00000000000E+00 -0.00000000000E+00 -0.25097048158E+04  0.25097048158E+04  0.25500000000E-02 0. -1.
    8880023    1    1    2    0    0 -0.96917432273E+03  0.23143660270E+03 -0.19855449612E+04  0.23171233822E+04  0.65864270000E+03 0.  0.
    8880022    1    1    2    0    0  0.96917432273E+03 -0.23143660270E+03  0.35056955420E+03  0.10673108424E+04  0.15294330000E+03 0.  0.
<mgrwt>
<rscale>  0 0.11448453E+04</rscale>
<asrwt>0</asrwt>
<pdfrwt beam="1">  1        2 0.38610843E+00 0.11944337E+04</pdfrwt>
<pdfrwt beam="2">  1       -2 0.13457376E+00 0.11944337E+04</pdfrwt>
<totfact> 0.13392423E+00</totfact>
</mgrwt>
</event>
<event>
 4    1  0.2701205E-007  0.1266533E+04  0.7818608E-02  0.9095013E-01
          2   -1    0    0  501    0  0.00000000000E+00  0.00000000000E+00  0.29608216083E+04  0.29608216083E+04  0.25500000000E-02 0. -1.
         -2   -1    0    0    0  501 -0.00000000000E+00 -0.00000000000E+00 -0.78618543997E+03  0.78618543998E+03  0.25500000000E-02 0.  1.
    8880023    1    1    2    0    0 -0.10529470436E+04  0.24819043062E+03  0.23216024608E+04  0.26446066170E+04  0.65864270000E+03 0. -1.
    8880022    1    1    2    0    0  0.10529470436E+04 -0.24819043062E+03 -0.14696629254E+03  0.11024004312E+04  0.15294330000E+03 0.  0.
<mgrwt>
<rscale>  0 0.12206011E+04</rscale>
<asrwt>0</asrwt>
<pdfrwt beam="1">  1        2 0.45551102E+00 0.12665331E+04</pdfrwt>
<pdfrwt beam="2">  1       -2 0.12095160E+00 0.12665331E+04</pdfrwt>
<totfact> 0.93845222E-01</totfact>
</mgrwt>
</event>
<event>
 4    1  0.2701205E-007  0.7333188E+03  0.7818608E-02  0.9879854E-01
         -2   -1    0    0    0  501 -0.00000000000E+00  0.00000000000E+00  0.63026657168E+03  0.63026657169E+03  0.25500000000E-02 0.  1.
          2   -1    0    0  501    0  0.00000000000E+00 -0.00000000000E+00 -0.72534258403E+03  0.72534258404E+03  0.25500000000E-02 0. -1.
    8880023    1    1    2    0    0  0.30296373869E+03  0.11026890254E+03 -0.44339616557E+03  0.85694610317E+03  0.65864270000E+03 0. -1.
    8880022    1    1    2    0    0 -0.30296373869E+03 -0.11026890254E+03  0.34832015322E+03  0.49866305256E+03  0.15294330000E+03 0.  0.
<mgrwt>
<rscale>  0 0.61247636E+03</rscale>
<asrwt>0</asrwt>
<pdfrwt beam="1">  1        2 0.11159117E+00 0.73331880E+03</pdfrwt>
<pdfrwt beam="2">  1       -2 0.96964088E-01 0.73331880E+03</pdfrwt>
<totfact> 0.35299296E+01</totfact>
</mgrwt>
</event>
<event>
 4    1  0.2701205E-007  0.9557162E+03  0.7818608E-02  0.9441937E-01
          2   -1    0    0  501    0  0.00000000000E+00  0.00000000000E+00  0.54925526375E+03  0.54925526376E+03  0.25500000000E-02 0. -1.
         -2   -1    0    0    0  501 -0.00000000000E+00 -0.00000000000E+00 -0.18231077695E+04  0.18231077695E+04  0.25500000000E-02 0.  1.
    8880023    1    1    2    0    0  0.54129206046E+03 -0.43195615247E+03 -0.48958906303E+02  0.95696937942E+03  0.65864270000E+03 0. -1.
    8880022    1    1    2    0    0 -0.54129206046E+03  0.43195615247E+03 -0.12248935994E+04  0.14153936539E+04  0.15294330000E+03 0.  0.
<mgrwt>
<rscale>  0 0.88703343E+03</rscale>
<asrwt>0</asrwt>
<pdfrwt beam="1">  1        2 0.84500811E-01 0.95571618E+03</pdfrwt>
<pdfrwt beam="2">  1       -2 0.28047812E+00 0.95571618E+03</pdfrwt>
<totfact> 0.23268331E+00</totfact>
</mgrwt>
</event>
<event>
 4    1  0.2701205E-007  0.6872978E+03  0.7818608E-02  0.1005464E+00
          2   -1    0    0  501    0  0.00000000000E+00  0.00000000000E+00  0.63697057626E+03  0.63697057626E+03  0.25500000000E-02 0. -1.
         -2   -1    0    0    0  501 -0.00000000000E+00 -0.00000000000E+00 -0.19614694871E+04  0.19614694871E+04  0.25500000000E-02 0.  1.
    8880023    1    1    2    0    0  0.16153399323E+03 -0.11169081727E+03  0.44025852646E+03  0.81621433828E+03  0.65864270000E+03 0. -1.
    8880022    1    1    2    0    0 -0.16153399323E+03  0.11169081727E+03 -0.17647574373E+04  0.17822257250E+04  0.15294330000E+03 0.  0.
<mgrwt>
<rscale>  0 0.53317822E+03</rscale>
<asrwt>0</asrwt>
<pdfrwt beam="1">  1        2 0.97995474E-01 0.68729781E+03</pdfrwt>
<pdfrwt beam="2">  1       -2 0.30176453E+00 0.68729781E+03</pdfrwt>
<totfact> 0.15074298E+00</totfact>
</mgrwt>
</event>
<event>
 4    1  0.2701205E-007  0.1034671E+04  0.7818608E-02  0.9337541E-01
          2   -1    0    0  501    0  0.00000000000E+00  0.00000000000E+00  0.70187888855E+03  0.70187888855E+03  0.25500000000E-02 0. -1.
         -2   -1    0    0    0  501 -0.00000000000E+00 -0.00000000000E+00 -0.23064598992E+04  0.23064598992E+04  0.25500000000E-02 0.  1.
    8880023    1    1    2    0    0 -0.69044463484E+03 -0.40002382055E+03  0.17749864846E+03  0.10497851339E+04  0.65864270000E+03 0. -1.
    8880022    1    1    2    0    0  0.69044463484E+03  0.40002382055E+03 -0.17820796591E+04  0.19585536539E+04  0.15294330000E+03 0.  0.
<mgrwt>
<rscale>  0 0.97399064E+03</rscale>
<asrwt>0</asrwt>
<pdfrwt beam="1">  1        2 0.10798137E+00 0.10346705E+04</pdfrwt>
<pdfrwt beam="2">  1       -2 0.35483998E+00 0.10346705E+04</pdfrwt>
<totfact> 0.59704610E-01</totfact>
</mgrwt>
</event>
<event>
 4    1  0.2701205E-007  0.1162697E+04  0.7818608E-02  0.9194265E-01
          2   -1    0    0  501    0  0.00000000000E+00  0.00000000000E+00  0.27318291141E+04  0.27318291141E+04  0.25500000000E-02 0. -1.
         -2   -1    0    0    0  501 -0.00000000000E+00 -0.00000000000E+00 -0.44763120277E+03  0.44763120278E+03  0.25500000000E-02 0.  1.
    8880023    1    1    2    0    0  0.60040957125E+03 -0.74670094083E+03  0.81927867155E+03  0.14223507641E+04  0.65864270000E+03 0.  0.
    8880022    1    1    2    0    0 -0.60040957125E+03  0.74670094083E+03  0.14649192398E+04  0.17571095528E+04  0.15294330000E+03 0.  0.
<mgrwt>
<rscale>  0 0.11112820E+04</rscale>
<asrwt>0</asrwt>
<pdfrwt beam="1">  1        2 0.42028140E+00 0.11626969E+04</pdfrwt>
<pdfrwt beam="2">  1       -2 0.68866339E-01 0.11626969E+04</pdfrwt>
<totfact> 0.48731681E+00</totfact>
</mgrwt>
</event>
<event>
 4    1  0.2701205E-007  0.7477623E+03  0.7818608E-02  0.9837887E-01
         -2   -1    0    0    0  501 -0.00000000000E+00  0.00000000000E+00  0.84192343250E+03  0.84192343250E+03  0.25500000000E-02 0.  1.
          2   -1    0    0  501    0  0.00000000000E+00 -0.00000000000E+00 -0.86762732667E+03  0.86762732667E+03  0.25500000000E-02 0. -1.
    8880023    1    1    2    0    0  0.34468057767E+03  0.80830577961E+02 -0.63998675543E+03  0.98424160466E+03  0.65864270000E+03 0.  0.
    8880022    1    1    2    0    0 -0.34468057767E+03 -0.80830577961E+02  0.61428286126E+03  0.72530915451E+03  0.15294330000E+03 0.  0.
<mgrwt>
<rscale>  0 0.63368362E+03</rscale>
<asrwt>0</asrwt>
<pdfrwt beam="1">  1        2 0.13348113E+00 0.74776232E+03</pdfrwt>
<pdfrwt beam="2">  1       -2 0.12952668E+00 0.74776232E+03</pdfrwt>
<totfact> 0.13741322E+01</totfact>
</mgrwt>
</event>
<event>
 4    1  0.2701205E-007  0.1293975E+04  0.7818608E-02  0.9070780E-01
          2   -1    0    0  501    0  0.00000000000E+00  0.00000000000E+00  0.20443674940E+04  0.20443674940E+04  0.25500000000E-02 0. -1.
         -2   -1    0    0    0  501 -0.00000000000E+00 -0.00000000000E+00 -0.14162515923E+04  0.14162515923E+04  0.25500000000E-02 0.  1.
    8880023    1    1    2    0    0 -0.10730630984E+03  0.11086242390E+04  0.15411313211E+04  0.20123265895E+04  0.65864270000E+03 0. -1.
    8880022    1    1    2    0    0  0.10730630984E+03 -0.11086242390E+04 -0.91301541936E+03  0.14482924968E+04  0.15294330000E+03 0.  0.
<mgrwt>
<rscale>  0 0.12492833E+04</rscale>
<asrwt>0</asrwt>
<pdfrwt beam="1">  1        2 0.31451808E+00 0.12939755E+04</pdfrwt>
<pdfrwt beam="2">  1       -2 0.21788486E+00 0.12939755E+04</pdfrwt>
<totfact> 0.61787011E-01</totfact>
</mgrwt>
</event>
<event>
 4    1  0.2701205E-007  0.7900645E+03  0.7818608E-02  0.9732705E-01
          2   -1    0    0  501    0  0.00000000000E+00  0.00000000000E+00  0.20976235977E+04  0.20976235977E+04  0.25500000000E-02 0. -1.
         -2   -1    0    0    0  501 -0.00000000000E+00 -0.00000000000E+00 -0.69798283568E+03  0.69798283568E+03  0.25500000000E-02 0.  1.
    8880023    1    1    2    0    0  0.10043876741E+03  0.42462198947E+03  0.19338964914E+04  0.20890566353E+04  0.65864270000E+03 0. -1.
    8880022    1    1    2    0    0 -0.10043876741E+03 -0.42462198947E+03 -0.53425572929E+03  0.70654979813E+03  0.15294330000E+03 0.  0.
<mgrwt>
<rscale>  0 0.69102488E+03</rscale>
<asrwt>0</asrwt>
<pdfrwt beam="1">  1        2 0.32271133E+00 0.79006455E+03</pdfrwt>
<pdfrwt beam="2">  1       -2 0.10738197E+00 0.79006455E+03</pdfrwt>
<totfact> 0.42353005E+00</totfact>
</mgrwt>
</event>
<event>
 4    1  0.2701205E-007  0.1112263E+04  0.7818608E-02  0.9247524E-01
          2   -1    0    0  501    0  0.00000000000E+00  0.00000000000E+00  0.31876134691E+04  0.31876134691E+04  0.25500000000E-02 0. -1.
         -2   -1    0    0    0  501 -0.00000000000E+00 -0.00000000000E+00 -0.77670403847E+03  0.77670403848E+03  0.25500000000E-02 0.  1.
    8880023    1    1    2    0    0  0.41472612129E+03 -0.79455671851E+03  0.27713688383E+04  0.29862373615E+04  0.65864270000E+03 0.  0.
    8880022    1    1    2    0    0 -0.41472612129E+03  0.79455671851E+03 -0.36045940771E+03  0.97808014612E+03  0.15294330000E+03 0.  0.
<mgrwt>
<rscale>  0 0.10576079E+04</rscale>
<asrwt>0</asrwt>
<pdfrwt beam="1">  1        2 0.49040207E+00 0.11122627E+04</pdfrwt>
<pdfrwt beam="2">  1       -2 0.11949293E+00 0.11122627E+04</pdfrwt>
<totfact> 0.71202568E-01</totfact>
</mgrwt>
</event>
<event>
 4    1  0.2701205E-007  0.1051882E+04  0.7818608E-02  0.9316622E-01
         -2   -1    0    0    0  501 -0.00000000000E+00  0.00000000000E+00  0.16672117792E+04  0.16672117792E+04  0.25500000000E-02 0.  1.
          2   -1    0    0  501    0  0.00000000000E+00 -0.00000000000E+00 -0.86347989976E+03  0.86347989976E+03  0.25500000000E-02 0. -1.
    8880023    1    1    2    0    0  0.64185221926E+03 -0.51056019848E+03 -0.34851932489E+03  0.11081163809E+04  0.65864270000E+03 0.  0.
    8880022    1    1    2    0    0 -0.64185221926E+03  0.51056019848E+03  0.11522512044E+04  0.14225752980E+04  0.15294330000E+03 0.  0.
<mgrwt>
<rscale>  0 0.99266892E+03</rscale>
<asrwt>0</asrwt>
<pdfrwt beam="1">  1        2 0.13284306E+00 0.10518822E+04</pdfrwt>
<pdfrwt beam="2">  1       -2 0.25649412E+00 0.10518822E+04</pdfrwt>
<totfact> 0.18059884E+00</totfact>
</mgrwt>
</event>
<event>
 4    1  0.2701205E-007  0.1139353E+04  0.7818608E-02  0.9218457E-01
         -2   -1    0    0    0  501 -0.00000000000E+00  0.00000000000E+00  0.16630169294E+04  0.16630169294E+04  0.25500000000E-02 0.  1.
          2   -1    0    0  501    0  0.00000000000E+00 -0.00000000000E+00 -0.11734815342E+04  0.11734815342E+04  0.25500000000E-02 0. -1.
    8880023    1    1    2    0    0  0.87197489364E+03 -0.32245047988E+03 -0.68603867547E+03  0.13299525546E+04  0.65864270000E+03 0.  0.
    8880022    1    1    2    0    0 -0.87197489364E+03  0.32245047988E+03  0.11755740707E+04  0.15065459090E+04  0.15294330000E+03 0.  0.
<mgrwt>
<rscale>  0 0.10864940E+04</rscale>
<asrwt>0</asrwt>
<pdfrwt beam="1">  1        2 0.18053562E+00 0.11393528E+04</pdfrwt>
<pdfrwt beam="2">  1       -2 0.25584876E+00 0.11393528E+04</pdfrwt>
<totfact> 0.11392248E+00</totfact>
</mgrwt>
</event>
<event>
 4    1  0.2701205E-007  0.1111825E+04  0.7818608E-02  0.9248003E-01
         -2   -1    0    0    0  501 -0.00000000000E+00  0.00000000000E+00  0.41636915405E+03  0.41636915406E+03  0.25500000000E-02 0.  1.
          2   -1    0    0  501    0  0.00000000000E+00 -0.00000000000E+00 -0.29937275994E+04  0.29937275994E+04  0.25500000000E-02 0. -1.
    8880023    1    1    2    0    0  0.86958781876E+03  0.21485214970E+03 -0.21175455003E+04  0.23916842544E+04  0.65864270000E+03 0.  0.
    8880022    1    1    2    0    0 -0.86958781876E+03 -0.21485214970E+03 -0.45981294510E+03  0.10184124991E+04  0.15294330000E+03 0.  0.
<mgrwt>
<rscale>  0 0.10571399E+04</rscale>
<asrwt>0</asrwt>
<pdfrwt beam="1">  1        2 0.46057346E+00 0.11118249E+04</pdfrwt>
<pdfrwt beam="2">  1       -2 0.64056795E-01 0.11118249E+04</pdfrwt>
<totfact> 0.39851656E+00</totfact>
</mgrwt>
</event>
<event>
 4    1  0.2701205E-007  0.1128124E+04  0.7818608E-02  0.9230371E-01
          2   -1    0    0  501    0  0.00000000000E+00  0.00000000000E+00  0.12604093606E+04  0.12604093606E+04  0.25500000000E-02 0. -1.
         -2   -1    0    0    0  501 -0.00000000000E+00 -0.00000000000E+00 -0.12740582101E+04  0.12740582101E+04  0.25500000000E-02 0.  1.
    8880023    1    1    2    0    0  0.84016171113E+03 -0.36466613779E+03 -0.74546951106E+03  0.13521790159E+04  0.65864270000E+03 0.  0.
    8880022    1    1    2    0    0 -0.84016171113E+03  0.36466613779E+03  0.73182066158E+03  0.11822885547E+04  0.15294330000E+03 0.  0.
<mgrwt>
<rscale>  0 0.10745370E+04</rscale>
<asrwt>0</asrwt>
<pdfrwt beam="1">  1        2 0.19390913E+00 0.11281238E+04</pdfrwt>
<pdfrwt beam="2">  1       -2 0.19600895E+00 0.11281238E+04</pdfrwt>
<totfact> 0.24102497E+00</totfact>
</mgrwt>
</event>
<event>
 4    1  0.2701205E-007  0.9382447E+03  0.7818608E-02  0.9467233E-01
         -2   -1    0    0    0  501 -0.00000000000E+00  0.00000000000E+00  0.59357469485E+03  0.59357469486E+03  0.25500000000E-02 0.  1.
          2   -1    0    0  501    0  0.00000000000E+00 -0.00000000000E+00 -0.22160652724E+04  0.22160652724E+04  0.25500000000E-02 0. -1.
    8880023    1    1    2    0    0  0.52396442105E+03  0.41467349155E+03 -0.18607655359E+04  0.20839269193E+04  0.65864270000E+03 0.  0.
    8880022    1    1    2    0    0 -0.52396442105E+03 -0.41467349155E+03  0.23827495839E+03  0.72571304793E+03  0.15294330000E+03 0.  0.
<mgrwt>
<rscale>  0 0.86743304E+03</rscale>
<asrwt>0</asrwt>
<pdfrwt beam="1">  1        2 0.34093311E+00 0.93824465E+03</pdfrwt>
<pdfrwt beam="2">  1       -2 0.91319185E-01 0.93824465E+03</pdfrwt>
<totfact> 0.52320803E+00</totfact>
</mgrwt>
</event>
<event>
 4    1  0.2701205E-007  0.8463672E+03  0.7818608E-02  0.9618289E-01
         -2   -1    0    0    0  501 -0.00000000000E+00  0.00000000000E+00  0.22257988733E+03  0.22257988734E+03  0.25500000000E-02 0.  1.
          2   -1    0    0  501    0  0.00000000000E+00 -0.00000000000E+00 -0.25009855056E+04  0.25009855056E+04  0.25500000000E-02 0. -1.
    8880023    1    1    2    0    0  0.29411170402E+03  0.44274763056E+03 -0.18125524014E+04  0.20004208489E+04  0.65864270000E+03 0.  0.
    8880022    1    1    2    0    0 -0.29411170402E+03 -0.44274763056E+03 -0.46585321686E+03  0.72314454398E+03  0.15294330000E+03 0.  0.
<mgrwt>
<rscale>  0 0.76097410E+03</rscale>
<asrwt>0</asrwt>
<pdfrwt beam="1">  1        2 0.38476698E+00 0.84636716E+03</pdfrwt>
<pdfrwt beam="2">  1       -2 0.34243061E-01 0.84636716E+03</pdfrwt>
<totfact> 0.28603988E+01</totfact>
</mgrwt>
</event>
<event>
 4    1  0.3027640E-007  0.1293928E+04  0.7818608E-02  0.9070821E-01
         -2   -1    0    0    0  501 -0.00000000000E+00  0.00000000000E+00  0.14463820709E+04  0.14463820709E+04  0.25500000000E-02 0.  1.
          2   -1    0    0  501    0  0.00000000000E+00 -0.00000000000E+00 -0.39700353365E+04  0.39700353365E+04  0.25500000000E-02 0. -1.
    8880023    1    1    2    0    0 -0.78312073985E+03  0.79193497607E+03 -0.36211144414E+04  0.38453503226E+04  0.65864270000E+03 0.  0.
    8880022    1    1    2    0    0  0.78312073985E+03 -0.79193497607E+03  0.10974611758E+04  0.15710670848E+04  0.15294330000E+03 0.  1.
<mgrwt>
<rscale>  0 0.12492336E+04</rscale>
<asrwt>0</asrwt>
<pdfrwt beam="1">  1        2 0.61077466E+00 0.12939279E+04</pdfrwt>
<pdfrwt beam="2">  1       -2 0.22252032E+00 0.12939279E+04</pdfrwt>
<totfact> 0.34029049E-02</totfact>
</mgrwt>
</event>
<event>
 4    1  0.2701205E-007  0.1147160E+04  0.7818608E-02  0.9210281E-01
         -2   -1    0    0    0  501 -0.00000000000E+00  0.00000000000E+00  0.71362438376E+03  0.71362438377E+03  0.25500000000E-02 0.  1.
          2   -1    0    0  501    0  0.00000000000E+00 -0.00000000000E+00 -0.26022765594E+04  0.26022765594E+04  0.25500000000E-02 0. -1.
    8880023    1    1    2    0    0  0.89800581292E+03  0.27522856048E+03 -0.20515070316E+04  0.23504587866E+04  0.65864270000E+03 0.  0.
    8880022    1    1    2    0    0 -0.89800581292E+03 -0.27522856048E+03  0.16285485597E+03  0.96544215656E+03  0.15294330000E+03 0.  0.
<mgrwt>
<rscale>  0 0.10947939E+04</rscale>
<asrwt>0</asrwt>
<pdfrwt beam="1">  1        2 0.40035024E+00 0.11471597E+04</pdfrwt>
<pdfrwt beam="2">  1       -2 0.10978837E+00 0.11471597E+04</pdfrwt>
<totfact> 0.19821974E+00</totfact>
</mgrwt>
</event>
<event>
 4    1  0.2701205E-007  0.8014049E+03  0.7818608E-02  0.9707766E-01
          2   -1    0    0  501    0  0.00000000000E+00  0.00000000000E+00  0.10622521841E+04  0.10622521841E+04  0.25500000000E-02 0. -1.
         -2   -1    0    0    0  501 -0.00000000000E+00 -0.00000000000E+00 -0.83572779063E+03  0.83572779064E+03  0.25500000000E-02 0.  1.
    8880023    1    1    2    0    0 -0.45650590567E+03 -0.64841884668E+01  0.81137555928E+03  0.11404298273E+04  0.65864270000E+03 0. -1.
    8880022    1    1    2    0    0  0.45650590567E+03  0.64841884668E+01 -0.58485116583E+03  0.75755014739E+03  0.15294330000E+03 0.  0.
<mgrwt>
<rscale>  0 0.70556257E+03</rscale>
<asrwt>0</asrwt>
<pdfrwt beam="1">  1        2 0.16342341E+00 0.80140495E+03</pdfrwt>
<pdfrwt beam="2">  1       -2 0.12857351E+00 0.80140495E+03</pdfrwt>
<totfact> 0.10394014E+01</totfact>
</mgrwt>
</event>
<event>
 4    1  0.2701205E-007  0.9736832E+03  0.7818608E-02  0.9416828E-01
          2   -1    0    0  501    0  0.00000000000E+00  0.00000000000E+00  0.17315673960E+04  0.17315673960E+04  0.25500000000E-02 0. -1.
         -2   -1    0    0    0  501 -0.00000000000E+00 -0.00000000000E+00 -0.87100737723E+03  0.87100737723E+03  0.25500000000E-02 0.  1.
    8880023    1    1    2    0    0  0.28274219116E+03  0.65901873060E+03  0.13907597680E+04  0.16977254703E+04  0.65864270000E+03 0.  0.
    8880022    1    1    2    0    0 -0.28274219116E+03 -0.65901873060E+03 -0.53019974921E+03  0.90484930294E+03  0.15294330000E+03 0.  0.
<mgrwt>
<rscale>  0 0.90703650E+03</rscale>
<asrwt>0</asrwt>
<pdfrwt beam="1">  1        2 0.26639498E+00 0.97368323E+03</pdfrwt>
<pdfrwt beam="2">  1       -2 0.13400114E+00 0.97368323E+03</pdfrwt>
<totfact> 0.37807046E+00</totfact>
</mgrwt>
</event>
<event>
 4    1  0.2701205E-007  0.6882809E+03  0.7818608E-02  0.1004981E+00
          2   -1    0    0  501    0  0.00000000000E+00  0.00000000000E+00  0.23983348459E+04  0.23983348459E+04  0.25500000000E-02 0. -1.
         -2   -1    0    0    0  501 -0.00000000000E+00 -0.00000000000E+00 -0.48357876316E+03  0.48357876317E+03  0.25500000000E-02 0.  1.
    8880023    1    1    2    0    0 -0.19114529754E+03  0.58171403698E+02  0.23116724061E+04  0.24119618480E+04  0.65864270000E+03 0. -1.
    8880022    1    1    2    0    0  0.19114529754E+03 -0.58171403698E+02 -0.39691632333E+03  0.46995176106E+03  0.15294330000E+03 0.  0.
<mgrwt>
<rscale>  0 0.53519264E+03</rscale>
<asrwt>0</asrwt>
<pdfrwt beam="1">  1        2 0.36897460E+00 0.68828093E+03</pdfrwt>
<pdfrwt beam="2">  1       -2 0.74396731E-01 0.68828093E+03</pdfrwt>
<totfact> 0.68531679E+00</totfact>
</mgrwt>
</event>
<event>
 4    1  0.2701205E-007  0.1321338E+04  0.7818608E-02  0.9047349E-01
         -2   -1    0    0    0  501 -0.00000000000E+00  0.00000000000E+00  0.22261886867E+04  0.22261886867E+04  0.25500000000E-02 0.  1.
          2   -1    0    0  501    0  0.00000000000E+00 -0.00000000000E+00 -0.79049898280E+03  0.79049898281E+03  0.25500000000E-02 0. -1.
    8880023    1    1    2    0    0 -0.98349911941E+03 -0.58724200326E+03  0.22029285948E+03  0.13395756188E+04  0.65864270000E+03 0.  0.
    8880022    1    1    2    0    0  0.98349911941E+03  0.58724200326E+03  0.12153968445E+04  0.16771120508E+04  0.15294330000E+03 0.  0.
<mgrwt>
<rscale>  0 0.12778107E+04</rscale>
<asrwt>0</asrwt>
<pdfrwt beam="1">  1        2 0.12161523E+00 0.13213379E+04</pdfrwt>
<pdfrwt beam="2">  1       -2 0.34249056E+00 0.13213379E+04</pdfrwt>
<totfact> 0.58956022E-01</totfact>
</mgrwt>
</event>
<event>
 4    1  0.2701205E-007  0.7304544E+03  0.7818608E-02  0.9888679E-01
         -2   -1    0    0    0  501 -0.00000000000E+00  0.00000000000E+00  0.29200621641E+03  0.29200621642E+03  0.25500000000E-02 0.  1.
          2   -1    0    0  501    0  0.00000000000E+00 -0.00000000000E+00 -0.26481510948E+04  0.26481510948E+04  0.25500000000E-02 0. -1.
    8880023    1    1    2    0    0 -0.11620949067E+03  0.29368146663E+03 -0.24664244783E+04  0.25723167307E+04  0.65864270000E+03 0. -1.
    8880022    1    1    2    0    0  0.11620949067E+03 -0.29368146663E+03  0.11027959986E+03  0.36784058058E+03  0.15294330000E+03 0.  0.
<mgrwt>
<rscale>  0 0.60813078E+03</rscale>
<asrwt>0</asrwt>
<pdfrwt beam="1">  1        2 0.40740784E+00 0.73045442E+03</pdfrwt>
<pdfrwt beam="2">  1       -2 0.44924035E-01 0.73045442E+03</pdfrwt>
<totfact> 0.14128373E+01</totfact>
</mgrwt>
</event>
<event>
 4    1  0.2701205E-007  0.7866192E+03  0.7818608E-02  0.9740512E-01
         -2   -1    0    0    0  501 -0.00000000000E+00  0.00000000000E+00  0.35319376064E+03  0.35319376065E+03  0.25500000000E-02 0.  1.
          2   -1    0    0  501    0  0.00000000000E+00 -0.00000000000E+00 -0.11883771378E+04  0.11883771378E+04  0.25500000000E-02 0. -1.
    8880023    1    1    2    0    0 -0.36064638739E+03  0.23429427266E+03 -0.72998844372E+03  0.10731509480E+04  0.65864270000E+03 0. -1.
    8880022    1    1    2    0    0  0.36064638739E+03 -0.23429427266E+03 -0.10519493342E+03  0.46841995044E+03  0.15294330000E+03 0.  0.
<mgrwt>
<rscale>  0 0.68655122E+03</rscale>
<asrwt>0</asrwt>
<pdfrwt beam="1">  1        2 0.18282725E+00 0.78661924E+03</pdfrwt>
<pdfrwt beam="2">  1       -2 0.54337502E-01 0.78661924E+03</pdfrwt>
<totfact> 0.62206017E+01</totfact>
</mgrwt>
</event>
<event>
 4    1  0.2701205E-007  0.1448013E+04  0.7818608E-02  0.8947246E-01
          2   -1    0    0  501    0  0.00000000000E+00  0.00000000000E+00  0.18151408137E+04  0.18151408137E+04  0.25500000000E-02 0. -1.
         -2   -1    0    0    0  501 -0.00000000000E+00 -0.00000000000E+00 -0.19311545849E+04  0.19311545849E+04  0.25500000000E-02 0.  1.
    8880023    1    1    2    0    0  0.12698758879E+04  0.22438077978E+03  0.12124352735E+04  0.18885817440E+04  0.65864270000E+03 0.  0.
    8880022    1    1    2    0    0 -0.12698758879E+04 -0.22438077978E+03 -0.13284490447E+04  0.18577136546E+04  0.15294330000E+03 0.  0.
<mgrwt>
<rscale>  0 0.14091167E+04</rscale>
<asrwt>0</asrwt>
<pdfrwt beam="1">  1        2 0.27925243E+00 0.14480130E+04</pdfrwt>
<pdfrwt beam="2">  1       -2 0.29710070E+00 0.14480130E+04</pdfrwt>
<totfact> 0.26463337E-01</totfact>
</mgrwt>
</event>
<event>
 4    1  0.2701205E-007  0.7094626E+03  0.7818608E-02  0.9960002E-01
         -2   -1    0    0    0  501 -0.00000000000E+00  0.00000000000E+00  0.48062937721E+03  0.48062937721E+03  0.25500000000E-02 0.  1.
          2   -1    0    0  501    0  0.00000000000E+00 -0.00000000000E+00 -0.60289087576E+03  0.60289087577E+03  0.25500000000E-02 0. -1.
    8880023    1    1    2    0    0 -0.25759533810E+03 -0.56317360854E+02 -0.25109636900E+03  0.75258660374E+03  0.65864270000E+03 0.  0.
    8880022    1    1    2    0    0  0.25759533810E+03  0.56317360854E+02  0.12883487044E+03  0.33093364924E+03  0.15294330000E+03 0.  0.
<mgrwt>
<rscale>  0 0.57439414E+03</rscale>
<asrwt>0</asrwt>
<pdfrwt beam="1">  1        2 0.92752442E-01 0.70946262E+03</pdfrwt>
<pdfrwt beam="2">  1       -2 0.73942981E-01 0.70946262E+03</pdfrwt>
<totfact> 0.82417521E+01</totfact>
</mgrwt>
</event>
<event>
 4    1  0.2701205E-007  0.1135871E+04  0.7818608E-02  0.9222131E-01
          2   -1    0    0  501    0  0.00000000000E+00  0.00000000000E+00  0.15987138372E+04  0.15987138372E+04  0.25500000000E-02 0. -1.
         -2   -1    0    0    0  501 -0.00000000000E+00 -0.00000000000E+00 -0.96585919567E+03  0.96585919567E+03  0.25500000000E-02 0.  1.
    8880023    1    1    2    0    0  0.72092273757E+03  0.58022651877E+03  0.10418474291E+04  0.15413139454E+04  0.65864270000E+03 0.  0.
    8880022    1    1    2    0    0 -0.72092273757E+03 -0.58022651877E+03 -0.40899278760E+03  0.10232590874E+04  0.15294330000E+03 0.  0.
<mgrwt>
<rscale>  0 0.10827887E+04</rscale>
<asrwt>0</asrwt>
<pdfrwt beam="1">  1        2 0.24595597E+00 0.11358709E+04</pdfrwt>
<pdfrwt beam="2">  1       -2 0.14859373E+00 0.11358709E+04</pdfrwt>
<totfact> 0.33577045E+00</totfact>
</mgrwt>
</event>
<event>
 4    1  0.2701205E-007  0.7052927E+03  0.7818608E-02  0.9975915E-01
          2   -1    0    0  501    0  0.00000000000E+00  0.00000000000E+00  0.27275245705E+04  0.27275245705E+04  0.25500000000E-02 0. -1.
         -2   -1    0    0    0  501 -0.00000000000E+00 -0.00000000000E+00 -0.43170606118E+03  0.43170606119E+03  0.25500000000E-02 0.  1.
    8880023    1    1    2    0    0 -0.80154881353E+02 -0.23917111114E+03  0.26244817665E+04  0.27175986412E+04  0.65864270000E+03 0. -1.
    8880022    1    1    2    0    0  0.80154881353E+02  0.23917111114E+03 -0.32866325720E+03  0.44163199053E+03  0.15294330000E+03 0.  0.
<mgrwt>
<rscale>  0 0.56719055E+03</rscale>
<asrwt>0</asrwt>
<pdfrwt beam="1">  1        2 0.41961915E+00 0.70529273E+03</pdfrwt>
<pdfrwt beam="2">  1       -2 0.66416319E-01 0.70529273E+03</pdfrwt>
<totfact> 0.56784840E+00</totfact>
</mgrwt>
</event>
<event>
 4    1  0.2701205E-007  0.1036965E+04  0.7818608E-02  0.9334718E-01
         -2   -1    0    0    0  501 -0.00000000000E+00  0.00000000000E+00  0.62966225018E+03  0.62966225018E+03  0.25500000000E-02 0.  1.
          2   -1    0    0  501    0  0.00000000000E+00 -0.00000000000E+00 -0.24758992250E+04  0.24758992250E+04  0.25500000000E-02 0. -1.
    8880023    1    1    2    0    0 -0.72690674486E+03  0.33629152310E+03 -0.20211256617E+04  0.22716171664E+04  0.65864270000E+03 0. -1.
    8880022    1    1    2    0    0  0.72690674486E+03 -0.33629152310E+03  0.17488868689E+03  0.83394430872E+03  0.15294330000E+03 0.  0.
<mgrwt>
<rscale>  0 0.97648510E+03</rscale>
<asrwt>0</asrwt>
<pdfrwt beam="1">  1        2 0.38090757E+00 0.10369646E+04</pdfrwt>
<pdfrwt beam="2">  1       -2 0.96871117E-01 0.10369646E+04</pdfrwt>
<totfact> 0.32113242E+00</totfact>
</mgrwt>
</event>
<event>
 4    1  0.2701205E-007  0.1044845E+04  0.7818608E-02  0.9325105E-01
          2   -1    0    0  501    0  0.00000000000E+00  0.00000000000E+00  0.23532346492E+04  0.23532346492E+04  0.25500000000E-02 0. -1.
         -2   -1    0    0    0  501 -0.00000000000E+00 -0.00000000000E+00 -0.53590030589E+03  0.53590030590E+03  0.25500000000E-02 0.  1.
    8880023    1    1    2    0    0 -0.81107284476E+03  0.71354592929E+01  0.18655221399E+03  0.10613679895E+04  0.65864270000E+03 0.  1.
    8880022    1    1    2    0    0  0.81107284476E+03 -0.71354592929E+01  0.16307821293E+04  0.18277669656E+04  0.15294330000E+03 0.  0.
<mgrwt>
<rscale>  0 0.98504172E+03</rscale>
<asrwt>0</asrwt>
<pdfrwt beam="1">  1        2 0.36203610E+00 0.10448446E+04</pdfrwt>
<pdfrwt beam="2">  1       -2 0.82446201E-01 0.10448446E+04</pdfrwt>
<totfact> 0.54694027E+00</totfact>
</mgrwt>
</event>
<event>
 4    1  0.2701205E-007  0.1549130E+04  0.7818608E-02  0.8875701E-01
         -2   -1    0    0    0  501 -0.00000000000E+00  0.00000000000E+00  0.71658254541E+03  0.71658254541E+03  0.25500000000E-02 0.  1.
          2   -1    0    0  501    0  0.00000000000E+00 -0.00000000000E+00 -0.40611324617E+04  0.40611324617E+04  0.25500000000E-02 0. -1.
    8880023    1    1    2    0    0  0.41377182315E+03 -0.13396960900E+04 -0.29187706709E+04  0.33043948267E+04  0.65864270000E+03 0.  0.
    8880022    1    1    2    0    0 -0.41377182315E+03  0.13396960900E+04 -0.42577924533E+03  0.14733201804E+04  0.15294330000E+03 0.  0.
<mgrwt>
<rscale>  0 0.15132326E+04</rscale>
<asrwt>0</asrwt>
<pdfrwt beam="1">  1        2 0.62478960E+00 0.15491297E+04</pdfrwt>
<pdfrwt beam="2">  1       -2 0.11024347E+00 0.15491297E+04</pdfrwt>
<totfact> 0.19183640E-01</totfact>
</mgrwt>
</event>
<event>
 4    1  0.2701205E-007  0.1259417E+04  0.7818608E-02  0.9101423E-01
          2   -1    0    0  501    0  0.00000000000E+00  0.00000000000E+00  0.24771537969E+04  0.24771537969E+04  0.25500000000E-02 0. -1.
         -2   -1    0    0    0  501 -0.00000000000E+00 -0.00000000000E+00 -0.10257846312E+04  0.10257846312E+04  0.25500000000E-02 0.  1.
    8880023    1    1    2    0    0 -0.89516128426E+02  0.10697228224E+04  0.19405395548E+04  0.23134009648E+04  0.65864270000E+03 0.  0.
    8880022    1    1    2    0    0  0.89516128426E+02 -0.10697228224E+04 -0.48917038908E+03  0.11895374633E+04  0.15294330000E+03 0.  0.
<mgrwt>
<rscale>  0 0.12131505E+04</rscale>
<asrwt>0</asrwt>
<pdfrwt beam="1">  1        2 0.38110058E+00 0.12594166E+04</pdfrwt>
<pdfrwt beam="2">  1       -2 0.15781302E+00 0.12594166E+04</pdfrwt>
<totfact> 0.90989420E-01</totfact>
</mgrwt>
</event>
<event>
 4    1  0.2701205E-007  0.7358059E+03  0.7818608E-02  0.9872337E-01
          2   -1    0    0  501    0  0.00000000000E+00  0.00000000000E+00  0.82243375149E+03  0.82243375150E+03  0.25500000000E-02 0. -1.
         -2   -1    0    0    0  501 -0.00000000000E+00 -0.00000000000E+00 -0.70646390927E+03  0.70646390927E+03  0.25500000000E-02 0.  1.
    8880023    1    1    2    0    0 -0.26843186361E+03  0.18853224864E+03  0.58248116913E+03  0.93845329817E+03  0.65864270000E+03 0. -1.
    8880022    1    1    2    0    0  0.26843186361E+03 -0.18853224864E+03 -0.46651132691E+03  0.59044436260E+03  0.15294330000E+03 0.  0.
<mgrwt>
<rscale>  0 0.61620883E+03</rscale>
<asrwt>0</asrwt>
<pdfrwt beam="1">  1        2 0.12652827E+00 0.73580587E+03</pdfrwt>
<pdfrwt beam="2">  1       -2 0.10868676E+00 0.73580587E+03</pdfrwt>
<totfact> 0.22811076E+01</totfact>
</mgrwt>
</event>
<event>
 4    1  0.2701205E-007  0.6677829E+03  0.7818608E-02  0.1017305E+00
         -2   -1    0    0    0  501 -0.00000000000E+00  0.00000000000E+00  0.48653607801E+03  0.48653607802E+03  0.25500000000E-02 0.  1.
          2   -1    0    0  501    0  0.00000000000E+00 -0.00000000000E+00 -0.26974052989E+04  0.26974052989E+04  0.25500000000E-02 0. -1.
    8880023    1    1    2    0    0  0.10929924466E+03 -0.13324188321E+02 -0.26358102211E+04  0.27190861676E+04  0.65864270000E+03 0. -1.
    8880022    1    1    2    0    0 -0.10929924466E+03  0.13324188321E+02  0.42494100026E+03  0.46485520928E+03  0.15294330000E+03 0.  0.
<mgrwt>
<rscale>  0 0.48671951E+03</rscale>
<asrwt>0</asrwt>
<pdfrwt beam="1">  1        2 0.41498543E+00 0.66778295E+03</pdfrwt>
<pdfrwt beam="2">  1       -2 0.74851705E-01 0.66778295E+03</pdfrwt>
<totfact> 0.45887781E+00</totfact>
</mgrwt>
</event>
<event>
 4    1  0.2701205E-007  0.9686793E+03  0.7818608E-02  0.9423733E-01
         -2   -1    0    0    0  501 -0.00000000000E+00  0.00000000000E+00  0.50614903860E+03  0.50614903860E+03  0.25500000000E-02 0.  1.
          2   -1    0    0  501    0  0.00000000000E+00 -0.00000000000E+00 -0.15716301837E+04  0.15716301838E+04  0.25500000000E-02 0. -1.
    8880023    1    1    2    0    0 -0.27697129632E+03 -0.65407669044E+03 -0.92169009366E+03  0.13371059236E+04  0.65864270000E+03 0.  0.
    8880022    1    1    2    0    0  0.27697129632E+03  0.65407669044E+03 -0.14379105150E+03  0.74067329874E+03  0.15294330000E+03 0.  0.
<mgrwt>
<rscale>  0 0.90148010E+03</rscale>
<asrwt>0</asrwt>
<pdfrwt beam="1">  1        2 0.24178926E+00 0.96867932E+03</pdfrwt>
<pdfrwt beam="2">  1       -2 0.77869084E-01 0.96867932E+03</pdfrwt>
<totfact> 0.17003223E+01</totfact>
</mgrwt>
</event>
<event>
 4    1  0.2701205E-007  0.1460680E+04  0.7818608E-02  0.8937912E-01
         -2   -1    0    0    0  501 -0.00000000000E+00  0.00000000000E+00  0.22389412752E+04  0.22389412752E+04  0.25500000000E-02 0.  1.
          2   -1    0    0  501    0  0.00000000000E+00 -0.00000000000E+00 -0.16128896275E+04  0.16128896275E+04  0.25500000000E-02 0. -1.
    8880023    1    1    2    0    0  0.13021109866E+04 -0.65434477665E+02 -0.99392383815E+03  0.17667680931E+04  0.65864270000E+03 0.  0.
    8880022    1    1    2    0    0 -0.13021109866E+04  0.65434477665E+02  0.16199754859E+04  0.20850628097E+04  0.15294330000E+03 0.  0.
<mgrwt>
<rscale>  0 0.14221884E+04</rscale>
<asrwt>0</asrwt>
<pdfrwt beam="1">  1        2 0.24813687E+00 0.14606796E+04</pdfrwt>
<pdfrwt beam="2">  1       -2 0.34445250E+00 0.14606796E+04</pdfrwt>
<totfact> 0.17487504E-01</totfact>
</mgrwt>
</event>
<event>
 4    1  0.2701205E-007  0.1823625E+04  0.7818608E-02  0.8709580E-01
         -2   -1    0    0    0  501 -0.00000000000E+00  0.00000000000E+00  0.11452542524E+04  0.11452542524E+04  0.25500000000E-02 0.  1.
          2   -1    0    0  501    0  0.00000000000E+00 -0.00000000000E+00 -0.41845290313E+04  0.41845290313E+04  0.25500000000E-02 0. -1.
    8880023    1    1    2    0    0  0.76440882929E+03  0.15190376792E+04 -0.31272521151E+04  0.36201260098E+04  0.65864270000E+03 0.  0.
    8880022    1    1    2    0    0 -0.76440882929E+03 -0.15190376792E+04  0.87977336214E+02  0.17096572738E+04  0.15294330000E+03 0.  0.
<mgrwt>
<rscale>  0 0.17938449E+04</rscale>
<asrwt>0</asrwt>
<pdfrwt beam="1">  1        2 0.64377369E+00 0.18236246E+04</pdfrwt>
<pdfrwt beam="2">  1       -2 0.17619296E+00 0.18236246E+04</pdfrwt>
<totfact> 0.42520305E-02</totfact>
</mgrwt>
</event>
<event>
 4    1  0.2701205E-007  0.7612699E+03  0.7818608E-02  0.9801831E-01
         -2   -1    0    0    0  501 -0.00000000000E+00  0.00000000000E+00  0.45971308788E+03  0.45971308789E+03  0.25500000000E-02 0.  1.
          2   -1    0    0  501    0  0.00000000000E+00 -0.00000000000E+00 -0.20839203112E+04  0.20839203112E+04  0.25500000000E-02 0. -1.
    8880023    1    1    2    0    0 -0.14774929484E+03  0.35198269403E+03  0.10294488123E+03  0.76819888431E+03  0.65864270000E+03 0.  1.
    8880022    1    1    2    0    0  0.14774929484E+03 -0.35198269403E+03 -0.17271521045E+04  0.17754345147E+04  0.15294330000E+03 0.  0.
<mgrwt>
<rscale>  0 0.65264382E+03</rscale>
<asrwt>0</asrwt>
<pdfrwt beam="1">  1        2 0.32060312E+00 0.76126991E+03</pdfrwt>
<pdfrwt beam="2">  1       -2 0.70725091E-01 0.76126991E+03</pdfrwt>
<totfact> 0.11289730E+01</totfact>
</mgrwt>
</event>
<event>
 4    1  0.2701205E-007  0.1070022E+04  0.7818608E-02  0.9295191E-01
          2   -1    0    0  501    0  0.00000000000E+00  0.00000000000E+00  0.12244233467E+04  0.12244233467E+04  0.25500000000E-02 0. -1.
         -2   -1    0    0    0  501 -0.00000000000E+00 -0.00000000000E+00 -0.93402707123E+03  0.93402707124E+03  0.25500000000E-02 0.  1.
    8880023    1    1    2    0    0  0.53276246428E+03  0.65368208520E+03  0.62410209102E+03  0.12387290818E+04  0.65864270000E+03 0.  0.
    8880022    1    1    2    0    0 -0.53276246428E+03 -0.65368208520E+03 -0.33370581553E+03  0.91972133615E+03  0.15294330000E+03 0.  0.
<mgrwt>
<rscale>  0 0.10122679E+04</rscale>
<asrwt>0</asrwt>
<pdfrwt beam="1">  1        2 0.18837282E+00 0.10700216E+04</pdfrwt>
<pdfrwt beam="2">  1       -2 0.14369647E+00 0.10700216E+04</pdfrwt>
<totfact> 0.60521419E+00</totfact>
</mgrwt>
</event>
<event>
 4    1  0.2701205E-007  0.9893895E+03  0.7818608E-02  0.9395573E-01
          2   -1    0    0  501    0  0.00000000000E+00  0.00000000000E+00  0.24918647715E+04  0.24918647715E+04  0.25500000000E-02 0. -1.
         -2   -1    0    0    0  501 -0.00000000000E+00 -0.00000000000E+00 -0.80001319013E+03  0.80001319014E+03  0.25500000000E-02 0.  1.
    8880023    1    1    2    0    0 -0.47102750514E+03 -0.56851951109E+03  0.21797710551E+04  0.23938031256E+04  0.65864270000E+03 0. -1.
    8880022    1    1    2    0    0  0.47102750514E+03  0.56851951109E+03 -0.48791947381E+03  0.89807483599E+03  0.15294330000E+03 0.  0.
<mgrwt>
<rscale>  0 0.92440907E+03</rscale>
<asrwt>0</asrwt>
<pdfrwt beam="1">  1        2 0.38336382E+00 0.98938948E+03</pdfrwt>
<pdfrwt beam="2">  1       -2 0.12307895E+00 0.98938948E+03</pdfrwt>
<totfact> 0.17688792E+00</totfact>
</mgrwt>
</event>
<event>
 4    1  0.2909180E-007  0.1456586E+04  0.7818608E-02  0.8940916E-01
          2   -1    0    0  501    0  0.00000000000E+00  0.00000000000E+00  0.25422970862E+04  0.25422970862E+04  0.25500000000E-02 0. -1.
         -2   -1    0    0    0  501 -0.00000000000E+00 -0.00000000000E+00 -0.16992697566E+04  0.16992697566E+04  0.25500000000E-02 0.  1.
    8880023    1    1    2    0    0  0.12552525900E+04  0.33492506100E+03  0.20142460590E+04  0.24857254984E+04  0.65864270000E+03 0.  0.
    8880022    1    1    2    0    0 -0.12552525900E+04 -0.33492506100E+03 -0.11712187295E+04  0.17558413443E+04  0.15294330000E+03 0.  0.
<mgrwt>
<rscale>  0 0.14179653E+04</rscale>
<asrwt>0</asrwt>
<pdfrwt beam="1">  1        2 0.39112263E+00 0.14565864E+04</pdfrwt>
<pdfrwt beam="2">  1       -2 0.26142612E+00 0.14565864E+04</pdfrwt>
<totfact> 0.16965505E-01</totfact>
</mgrwt>
</event>
<event>
 4    1  0.2701205E-007  0.1117943E+04  0.7818608E-02  0.9241337E-01
          2   -1    0    0  501    0  0.00000000000E+00  0.00000000000E+00  0.69053789852E+03  0.69053789853E+03  0.25500000000E-02 0. -1.
         -2   -1    0    0    0  501 -0.00000000000E+00 -0.00000000000E+00 -0.18091861273E+04  0.18091861273E+04  0.25500000000E-02 0.  1.
    8880023    1    1    2    0    0  0.93928342285E+02 -0.89842269802E+03 -0.88997845571E+02  0.11214796925E+04  0.65864270000E+03 0.  0.
    8880022    1    1    2    0    0 -0.93928342285E+02  0.89842269802E+03 -0.10296503832E+04  0.13782443333E+04  0.15294330000E+03 0.  0.
<mgrwt>
<rscale>  0 0.10636760E+04</rscale>
<asrwt>0</asrwt>
<pdfrwt beam="1">  1        2 0.10623660E+00 0.11179428E+04</pdfrwt>
<pdfrwt beam="2">  1       -2 0.27833632E+00 0.11179428E+04</pdfrwt>
<totfact> 0.17767753E+00</totfact>
</mgrwt>
</event>
<event>
 4    1  0.2701205E-007  0.1126788E+04  0.7818608E-02  0.9231801E-01
         -2   -1    0    0    0  501 -0.00000000000E+00  0.00000000000E+00  0.11290149103E+04  0.11290149103E+04  0.25500000000E-02 0.  1.
          2   -1    0    0  501    0  0.00000000000E+00 -0.00000000000E+00 -0.12568404589E+04  0.12568404589E+04  0.25500000000E-02 0. -1.
    8880023    1    1    2    0    0  0.19342326966E+03 -0.89354812810E+03 -0.67103814467E+03  0.13114660561E+04  0.65864270000E+03 0.  0.
    8880022    1    1    2    0    0 -0.19342326966E+03  0.89354812810E+03  0.54321259613E+03  0.10743893131E+04  0.15294330000E+03 0.  0.
<mgrwt>
<rscale>  0 0.10731130E+04</rscale>
<asrwt>0</asrwt>
<pdfrwt beam="1">  1        2 0.19336007E+00 0.11267879E+04</pdfrwt>
<pdfrwt beam="2">  1       -2 0.17369460E+00 0.11267879E+04</pdfrwt>
<totfact> 0.34401400E+00</totfact>
</mgrwt>
</event>
<event>
 4    1  0.2701205E-007  0.1362583E+04  0.7818608E-02  0.9013316E-01
         -2   -1    0    0    0  501 -0.00000000000E+00  0.00000000000E+00  0.10958024734E+04  0.10958024734E+04  0.25500000000E-02 0.  1.
          2   -1    0    0  501    0  0.00000000000E+00 -0.00000000000E+00 -0.26160418257E+04  0.26160418257E+04  0.25500000000E-02 0. -1.
    8880023    1    1    2    0    0 -0.11653709129E+04  0.25442694307E+03 -0.19975280698E+04  0.24180055893E+04  0.65864270000E+03 0.  0.
    8880022    1    1    2    0    0  0.11653709129E+04 -0.25442694307E+03  0.47728871750E+03  0.12938387097E+04  0.15294330000E+03 0.  0.
<mgrwt>
<rscale>  0 0.13206913E+04</rscale>
<asrwt>0</asrwt>
<pdfrwt beam="1">  1        2 0.40246797E+00 0.13625831E+04</pdfrwt>
<pdfrwt beam="2">  1       -2 0.16858500E+00 0.13625831E+04</pdfrwt>
<totfact> 0.62224407E-01</totfact>
</mgrwt>
</event>
<event>
 4    1  0.2701205E-007  0.7824644E+03  0.7818608E-02  0.9750080E-01
         -2   -1    0    0    0  501 -0.00000000000E+00  0.00000000000E+00  0.74388082966E+03  0.74388082966E+03  0.25500000000E-02 0.  1.
          2   -1    0    0  501    0  0.00000000000E+00 -0.00000000000E+00 -0.15111823420E+04  0.15111823420E+04  0.25500000000E-02 0. -1.
    8880023    1    1    2    0    0 -0.19937560101E+03 -0.37241059491E+03 -0.13250797530E+04  0.15388589408E+04  0.65864270000E+03 0. -1.
    8880022    1    1    2    0    0  0.19937560101E+03  0.37241059491E+03  0.55777824071E+03  0.71620423086E+03  0.15294330000E+03 0.  0.
<mgrwt>
<rscale>  0 0.68111769E+03</rscale>
<asrwt>0</asrwt>
<pdfrwt beam="1">  1        2 0.23248959E+00 0.78246437E+03</pdfrwt>
<pdfrwt beam="2">  1       -2 0.11444320E+00 0.78246437E+03</pdfrwt>
<totfact> 0.76183730E+00</totfact>
</mgrwt>
</event>
<event>
 4    1  0.2701205E-007  0.1263853E+04  0.7818608E-02  0.9097421E-01
          2   -1    0    0  501    0  0.00000000000E+00  0.00000000000E+00  0.38841276216E+04  0.38841276216E+04  0.25500000000E-02 0. -1.
         -2   -1    0    0    0  501 -0.00000000000E+00 -0.00000000000E+00 -0.50416049373E+03  0.50416049374E+03  0.25500000000E-02 0.  1.
    8880023    1    1    2    0    0  0.38446581118E+03 -0.10078193436E+04  0.29638555817E+04  0.32220744723E+04  0.65864270000E+03 0.  0.
    8880022    1    1    2    0    0 -0.38446581118E+03  0.10078193436E+04  0.41611154609E+03  0.11662136430E+04  0.15294330000E+03 0.  0.
<mgrwt>
<rscale>  0 0.12177956E+04</rscale>
<asrwt>0</asrwt>
<pdfrwt beam="1">  1        2 0.59755810E+00 0.12638528E+04</pdfrwt>
<pdfrwt beam="2">  1       -2 0.77563153E-01 0.12638528E+04</pdfrwt>
<totfact> 0.62914943E-01</totfact>
</mgrwt>
</event>
<event>
 4    1  0.2701205E-007  0.7647475E+03  0.7818608E-02  0.9792968E-01
          2   -1    0    0  501    0  0.00000000000E+00  0.00000000000E+00  0.70840938640E+03  0.70840938640E+03  0.25500000000E-02 0. -1.
         -2   -1    0    0    0  501 -0.00000000000E+00 -0.00000000000E+00 -0.11945968078E+04  0.11945968078E+04  0.25500000000E-02 0.  1.
    8880023    1    1    2    0    0 -0.16483228255E+03 -0.35193588376E+03  0.44334322959E+03  0.88396378497E+03  0.65864270000E+03 0. -1.
    8880022    1    1    2    0    0  0.16483228255E+03  0.35193588376E+03 -0.92953065098E+03  0.10190424092E+04  0.15294330000E+03 0.  0.
<mgrwt>
<rscale>  0 0.65741279E+03</rscale>
<asrwt>0</asrwt>
<pdfrwt beam="1">  1        2 0.10898606E+00 0.76474751E+03</pdfrwt>
<pdfrwt beam="2">  1       -2 0.18378412E+00 0.76474751E+03</pdfrwt>
<totfact> 0.70088398E+00</totfact>
</mgrwt>
</event>
<event>
 4    1  0.2701205E-007  0.9886348E+03  0.7818608E-02  0.9396580E-01
          2   -1    0    0  501    0  0.00000000000E+00  0.00000000000E+00  0.19120188365E+04  0.19120188365E+04  0.25500000000E-02 0. -1.
         -2   -1    0    0    0  501 -0.00000000000E+00 -0.00000000000E+00 -0.43337192072E+03  0.43337192072E+03  0.25500000000E-02 0.  1.
    8880023    1    1    2    0    0  0.73196984826E+03  0.88366671333E+02  0.11695947774E+04  0.15314537789E+04  0.65864270000E+03 0. -1.
    8880022    1    1    2    0    0 -0.73196984826E+03 -0.88366671333E+02  0.30905213833E+03  0.81393697827E+03  0.15294330000E+03 0.  0.
<mgrwt>
<rscale>  0 0.92357655E+03</rscale>
<asrwt>0</asrwt>
<pdfrwt beam="1">  1        2 0.29415674E+00 0.98863478E+03</pdfrwt>
<pdfrwt beam="2">  1       -2 0.66672604E-01 0.98863478E+03</pdfrwt>
<totfact> 0.15504484E+01</totfact>
</mgrwt>
</event>
<event>
 4    1  0.2701205E-007  0.8570546E+03  0.7818608E-02  0.9598824E-01
         -2   -1    0    0    0  501 -0.00000000000E+00  0.00000000000E+00  0.36512531871E+03  0.36512531871E+03  0.25500000000E-02 0.  1.
          2   -1    0    0  501    0  0.00000000000E+00 -0.00000000000E+00 -0.18759916104E+04  0.18759916104E+04  0.25500000000E-02 0. -1.
    8880023    1    1    2    0    0  0.45693904439E+02  0.54648378964E+03 -0.14284873850E+04  0.16658688065E+04  0.65864270000E+03 0.  0.
    8880022    1    1    2    0    0 -0.45693904439E+02 -0.54648378964E+03 -0.82378906691E+02  0.57524812257E+03  0.15294330000E+03 0.  0.
<mgrwt>
<rscale>  0 0.77374046E+03</rscale>
<asrwt>0</asrwt>
<pdfrwt beam="1">  1        2 0.28861409E+00 0.85705465E+03</pdfrwt>
<pdfrwt beam="2">  1       -2 0.56173127E-01 0.85705465E+03</pdfrwt>
<totfact> 0.23701247E+01</totfact>
</mgrwt>
</event>
<event>
 4    1  0.2701205E-007  0.7012666E+03  0.7818608E-02  0.9991987E-01
          2   -1    0    0  501    0  0.00000000000E+00  0.00000000000E+00  0.51833707988E+03  0.51833707988E+03  0.25500000000E-02 0. -1.
         -2   -1    0    0    0  501 -0.00000000000E+00 -0.00000000000E+00 -0.12481150189E+04  0.12481150189E+04  0.25500000000E-02 0.  1.
    8880023    1    1    2    0    0  0.16341607349E+03  0.17680451826E+03  0.25116011722E+03  0.74488674407E+03  0.65864270000E+03 0.  0.
    8880022    1    1    2    0    0 -0.16341607349E+03 -0.17680451826E+03 -0.98093805623E+03  0.10215653547E+04  0.15294330000E+03 0.  0.
<mgrwt>
<rscale>  0 0.56002997E+03</rscale>
<asrwt>0</asrwt>
<pdfrwt beam="1">  1        2 0.79744167E-01 0.70126661E+03</pdfrwt>
<pdfrwt beam="2">  1       -2 0.19201769E+00 0.70126661E+03</pdfrwt>
<totfact> 0.90828686E+00</totfact>
</mgrwt>
</event>
<event>
 4    1  0.2701205E-007  0.8712749E+03  0.7818608E-02  0.9573814E-01
          2   -1    0    0  501    0  0.00000000000E+00  0.00000000000E+00  0.38144014319E+04  0.38144014319E+04  0.25500000000E-02 0. -1.
         -2   -1    0    0    0  501 -0.00000000000E+00 -0.00000000000E+00 -0.27895959481E+03  0.27895959482E+03  0.25500000000E-02 0.  1.
    8880023    1    1    2    0    0  0.36561211570E+03  0.43776424092E+03  0.33690055277E+04  0.34798445657E+04  0.65864270000E+03 0.  0.
    8880022    1    1    2    0    0 -0.36561211570E+03 -0.43776424092E+03  0.16643630937E+03  0.61351646096E+03  0.15294330000E+03 0.  0.
<mgrwt>
<rscale>  0 0.79053866E+03</rscale>
<asrwt>0</asrwt>
<pdfrwt beam="1">  1        2 0.58683098E+00 0.87127490E+03</pdfrwt>
<pdfrwt beam="2">  1       -2 0.42916861E-01 0.87127490E+03</pdfrwt>
<totfact> 0.26426269E+00</totfact>
</mgrwt>
</event>
<event>
 4    1  0.2701205E-007  0.1423490E+04  0.7818608E-02  0.8965642E-01
          2   -1    0    0  501    0  0.00000000000E+00  0.00000000000E+00  0.22639516460E+04  0.22639516460E+04  0.25500000000E-02 0. -1.
         -2   -1    0    0    0  501 -0.00000000000E+00 -0.00000000000E+00 -0.10331428098E+04  0.10331428098E+04  0.25500000000E-02 0.  1.
    8880023    1    1    2    0    0  0.49211222763E+02 -0.12609881718E+04  0.14214728121E+04  0.20116928383E+04  0.65864270000E+03 0.  0.
    8880022    1    1    2    0    0 -0.49211222763E+02  0.12609881718E+04 -0.19066397587E+03  0.12854016176E+04  0.15294330000E+03 0.  0.
<mgrwt>
<rscale>  0 0.13837822E+04</rscale>
<asrwt>0</asrwt>
<pdfrwt beam="1">  1        2 0.34830025E+00 0.14234898E+04</pdfrwt>
<pdfrwt beam="2">  1       -2 0.15894505E+00 0.14234898E+04</pdfrwt>
<totfact> 0.11583973E+00</totfact>
</mgrwt>
</event>
<event>
 4    1  0.2701205E-007  0.9137237E+03  0.7818608E-02  0.9504350E-01
          2   -1    0    0  501    0  0.00000000000E+00  0.00000000000E+00  0.97643122642E+03  0.97643122642E+03  0.25500000000E-02 0. -1.
         -2   -1    0    0    0  501 -0.00000000000E+00 -0.00000000000E+00 -0.13644507449E+04  0.13644507449E+04  0.25500000000E-02 0.  1.
    8880023    1    1    2    0    0  0.47970448926E+03 -0.41347832397E+03  0.64579205425E+03  0.11189004893E+04  0.65864270000E+03 0. -1.
    8880022    1    1    2    0    0 -0.47970448926E+03  0.41347832397E+03 -0.10338115727E+04  0.12219814820E+04  0.15294330000E+03 0.  0.
<mgrwt>
<rscale>  0 0.83963848E+03</rscale>
<asrwt>0</asrwt>
<pdfrwt beam="1">  1        2 0.15022019E+00 0.91372366E+03</pdfrwt>
<pdfrwt beam="2">  1       -2 0.20991550E+00 0.91372366E+03</pdfrwt>
<totfact> 0.30000278E+00</totfact>
</mgrwt>
</event>
<event>
 4    1  0.2701205E-007  0.2417980E+04  0.7818608E-02  0.8440972E-01
          2   -1    0    0  501    0  0.00000000000E+00  0.00000000000E+00  0.29788230049E+04  0.29788230049E+04  0.25500000000E-02 0. -1.
         -2   -1    0    0    0  501 -0.00000000000E+00 -0.00000000000E+00 -0.29139095455E+04  0.29139095455E+04  0.25500000000E-02 0.  1.
    8880023    1    1    2    0    0  0.41224840143E+03 -0.22897314108E+04  0.17764524407E+04  0.30004019995E+04  0.65864270000E+03 0.  0.
    8880022    1    1    2    0    0 -0.41224840143E+03  0.22897314108E+04 -0.17115389813E+04  0.28923305509E+04  0.15294330000E+03 0.  0.
<mgrwt>
<rscale>  0 0.23960816E+04</rscale>
<asrwt>0</asrwt>
<pdfrwt beam="1">  1        2 0.45828046E+00 0.24179803E+04</pdfrwt>
<pdfrwt beam="2">  1       -2 0.44829378E+00 0.24179803E+04</pdfrwt>
<totfact> 0.53534643E-03</totfact>
</mgrwt>
</event>
<event>
 4    1  0.2701205E-007  0.7835272E+03  0.7818608E-02  0.9747616E-01
          2   -1    0    0  501    0  0.00000000000E+00  0.00000000000E+00  0.31696685348E+04  0.31696685348E+04  0.25500000000E-02 0. -1.
         -2   -1    0    0    0  501 -0.00000000000E+00 -0.00000000000E+00 -0.44459515853E+03  0.44459515853E+03  0.25500000000E-02 0.  1.
    8880023    1    1    2    0    0  0.40619907785E+03  0.12291013216E+03  0.29901086688E+04  0.30910620584E+04  0.65864270000E+03 0. -1.
    8880022    1    1    2    0    0 -0.40619907785E+03 -0.12291013216E+03 -0.26503529256E+03  0.52320163489E+03  0.15294330000E+03 0.  0.
<mgrwt>
<rscale>  0 0.68251168E+03</rscale>
<asrwt>0</asrwt>
<pdfrwt beam="1">  1        2 0.48764130E+00 0.78352715E+03</pdfrwt>
<pdfrwt beam="2">  1       -2 0.68399257E-01 0.78352715E+03</pdfrwt>
<totfact> 0.28287990E+00</totfact>
</mgrwt>
</event>
<event>
 4    1  0.2701205E-007  0.8179334E+03  0.7818608E-02  0.9673283E-01
         -2   -1    0    0    0  501 -0.00000000000E+00  0.00000000000E+00  0.68066322937E+03  0.68066322937E+03  0.25500000000E-02 0.  1.
          2   -1    0    0  501    0  0.00000000000E+00 -0.00000000000E+00 -0.10279850587E+04  0.10279850587E+04  0.25500000000E-02 0. -1.
    8880023    1    1    2    0    0  0.35552890124E+03  0.32985458531E+03 -0.71075881819E+03  0.10836019338E+04  0.65864270000E+03 0.  0.
    8880022    1    1    2    0    0 -0.35552890124E+03 -0.32985458531E+03  0.36343698887E+03  0.62504635425E+03  0.15294330000E+03 0.  0.
<mgrwt>
<rscale>  0 0.72630041E+03</rscale>
<asrwt>0</asrwt>
<pdfrwt beam="1">  1        2 0.15815155E+00 0.81793340E+03</pdfrwt>
<pdfrwt beam="2">  1       -2 0.10471742E+00 0.81793340E+03</pdfrwt>
<totfact> 0.18059774E+01</totfact>
</mgrwt>
</event>
<event>
 4    1  0.2701205E-007  0.1408477E+04  0.7818608E-02  0.8977124E-01
          2   -1    0    0  501    0  0.00000000000E+00  0.00000000000E+00  0.15737592748E+04  0.15737592748E+04  0.25500000000E-02 0. -1.
         -2   -1    0    0    0  501 -0.00000000000E+00 -0.00000000000E+00 -0.13125305629E+04  0.13125305629E+04  0.25500000000E-02 0.  1.
    8880023    1    1    2    0    0 -0.36346610042E+03  0.11907516242E+04  0.67979782837E+03  0.15639476751E+04  0.65864270000E+03 0.  0.
    8880022    1    1    2    0    0  0.36346610042E+03 -0.11907516242E+04 -0.41856911653E+03  0.13223421626E+04  0.15294330000E+03 0.  0.
<mgrwt>
<rscale>  0 0.13682542E+04</rscale>
<asrwt>0</asrwt>
<pdfrwt beam="1">  1        2 0.24211681E+00 0.14084769E+04</pdfrwt>
<pdfrwt beam="2">  1       -2 0.20192778E+00 0.14084769E+04</pdfrwt>
<totfact> 0.14150049E+00</totfact>
</mgrwt>
</event>
<event>
 4    1  0.2701205E-007  0.9694128E+03  0.7818608E-02  0.9422717E-01
         -2   -1    0    0    0  501 -0.00000000000E+00  0.00000000000E+00  0.75477368790E+03  0.75477368791E+03  0.25500000000E-02 0.  1.
          2   -1    0    0  501    0  0.00000000000E+00 -0.00000000000E+00 -0.22315694217E+04  0.22315694217E+04  0.25500000000E-02 0. -1.
    8880023    1    1    2    0    0  0.62320760145E+03  0.34287500341E+03 -0.19083245789E+04  0.21404354434E+04  0.65864270000E+03 0.  0.
    8880022    1    1    2    0    0 -0.62320760145E+03 -0.34287500341E+03  0.43152884518E+03  0.84590766618E+03  0.15294330000E+03 0.  0.
<mgrwt>
<rscale>  0 0.90229526E+03</rscale>
<asrwt>0</asrwt>
<pdfrwt beam="1">  1        2 0.34331837E+00 0.96941281E+03</pdfrwt>
<pdfrwt beam="2">  1       -2 0.11611903E+00 0.96941281E+03</pdfrwt>
<totfact> 0.28738963E+00</totfact>
</mgrwt>
</event>
<event>
 4    1  0.2701205E-007  0.6949639E+03  0.7818608E-02  0.1001877E+00
          2   -1    0    0  501    0  0.00000000000E+00  0.00000000000E+00  0.17295465372E+04  0.17295465372E+04  0.25500000000E-02 0. -1.
         -2   -1    0    0    0  501 -0.00000000000E+00 -0.00000000000E+00 -0.33937075771E+03  0.33937075771E+03  0.25500000000E-02 0.  1.
    8880023    1    1    2    0    0  0.21708565133E+03  0.45149389469E+02  0.15888636551E+04  0.17342037274E+04  0.65864270000E+03 0.  0.
    8880022    1    1    2    0    0 -0.21708565133E+03 -0.45149389469E+02 -0.19868787557E+03  0.33471356754E+03  0.15294330000E+03 0.  0.
<mgrwt>
<rscale>  0 0.54834778E+03</rscale>
<asrwt>0</asrwt>
<pdfrwt beam="1">  1        2 0.26608408E+00 0.69496392E+03</pdfrwt>
<pdfrwt beam="2">  1       -2 0.52210886E-01 0.69496392E+03</pdfrwt>
<totfact> 0.33809210E+01</totfact>
</mgrwt>
</event>
<event>
 4    1  0.2701205E-007  0.9106600E+03  0.7818608E-02  0.9509131E-01
          2   -1    0    0  501    0  0.00000000000E+00  0.00000000000E+00  0.16726963956E+04  0.16726963956E+04  0.25500000000E-02 0. -1.
         -2   -1    0    0    0  501 -0.00000000000E+00 -0.00000000000E+00 -0.54466569922E+03  0.54466569922E+03  0.25500000000E-02 0.  1.
    8880023    1    1    2    0    0  0.41048291978E+03 -0.47644014987E+03  0.12621678174E+04  0.15563962379E+04  0.65864270000E+03 0.  0.
    8880022    1    1    2    0    0 -0.41048291978E+03  0.47644014987E+03 -0.13413712096E+03  0.66096585697E+03  0.15294330000E+03 0.  0.
<mgrwt>
<rscale>  0 0.83613962E+03</rscale>
<asrwt>0</asrwt>
<pdfrwt beam="1">  1        2 0.25733790E+00 0.91066001E+03</pdfrwt>
<pdfrwt beam="2">  1       -2 0.83794724E-01 0.91066001E+03</pdfrwt>
<totfact> 0.12738870E+01</totfact>
</mgrwt>
</event>
<event>
 4    1  0.2701205E-007  0.6870131E+03  0.7818608E-02  0.1005606E+00
         -2   -1    0    0    0  501 -0.00000000000E+00  0.00000000000E+00  0.94242018340E+03  0.94242018340E+03  0.25500000000E-02 0.  1.
          2   -1    0    0  501    0  0.00000000000E+00 -0.00000000000E+00 -0.27138871311E+04  0.27138871311E+04  0.25500000000E-02 0. -1.
    8880023    1    1    2    0    0 -0.19435031902E+03  0.20117910074E+02 -0.26530043721E+04  0.27405144009E+04  0.65864270000E+03 0. -1.
    8880022    1    1    2    0    0  0.19435031902E+03 -0.20117910074E+02  0.88153742445E+03  0.91579291357E+03  0.15294330000E+03 0.  0.
<mgrwt>
<rscale>  0 0.53259063E+03</rscale>
<asrwt>0</asrwt>
<pdfrwt beam="1">  1        2 0.41752109E+00 0.68701309E+03</pdfrwt>
<pdfrwt beam="2">  1       -2 0.14498772E+00 0.68701309E+03</pdfrwt>
<totfact> 0.91768196E-01</totfact>
</mgrwt>
</event>
<event>
 4    1  0.2701205E-007  0.7261255E+03  0.7818608E-02  0.9902379E-01
         -2   -1    0    0    0  501 -0.00000000000E+00  0.00000000000E+00  0.11140008369E+04  0.11140008369E+04  0.25500000000E-02 0.  1.
          2   -1    0    0  501    0  0.00000000000E+00 -0.00000000000E+00 -0.73947307021E+03  0.73947307021E+03  0.25500000000E-02 0. -1.
    8880023    1    1    2    0    0  0.11666085799E+03 -0.28255661935E+03 -0.52180957641E+03  0.89417192934E+03  0.65864270000E+03 0. -1.
    8880022    1    1    2    0    0 -0.11666085799E+03  0.28255661935E+03  0.89633734309E+03  0.95930197777E+03  0.15294330000E+03 0.  0.
<mgrwt>
<rscale>  0 0.60146109E+03</rscale>
<asrwt>0</asrwt>
<pdfrwt beam="1">  1        2 0.11376509E+00 0.72612547E+03</pdfrwt>
<pdfrwt beam="2">  1       -2 0.17138474E+00 0.72612547E+03</pdfrwt>
<totfact> 0.81203561E+00</totfact>
</mgrwt>
</event>
<event>
 4    1  0.2701205E-007  0.7817320E+03  0.7818608E-02  0.9751784E-01
         -2   -1    0    0    0  501 -0.00000000000E+00  0.00000000000E+00  0.24984139910E+04  0.24984139910E+04  0.25500000000E-02 0.  1.
          2   -1    0    0  501    0  0.00000000000E+00 -0.00000000000E+00 -0.29720847625E+03  0.29720847626E+03  0.25500000000E-02 0. -1.
    8880023    1    1    2    0    0 -0.13488921696E+03 -0.39887300742E+03  0.29187770017E+03  0.83444447090E+03  0.65864270000E+03 0. -1.
    8880022    1    1    2    0    0  0.13488921696E+03  0.39887300742E+03  0.19093278146E+04  0.19611779964E+04  0.15294330000E+03 0.  0.
<mgrwt>
<rscale>  0 0.68015545E+03</rscale>
<asrwt>0</asrwt>
<pdfrwt beam="1">  1        2 0.45724378E-01 0.78173204E+03</pdfrwt>
<pdfrwt beam="2">  1       -2 0.38437141E+00 0.78173204E+03</pdfrwt>
<totfact> 0.10966901E+00</totfact>
</mgrwt>
</event>
<event>
 4    1  0.2701205E-007  0.7022838E+03  0.7818608E-02  0.9987856E-01
          2   -1    0    0  501    0  0.00000000000E+00  0.00000000000E+00  0.20642198425E+04  0.20642198425E+04  0.25500000000E-02 0. -1.
         -2   -1    0    0    0  501 -0.00000000000E+00 -0.00000000000E+00 -0.19720134991E+03  0.19720134993E+03  0.25500000000E-02 0.  1.
    8880023    1    1    2    0    0 -0.20163195759E+03  0.13688272069E+03  0.18435019313E+04  0.19727396946E+04  0.65864270000E+03 0. -1.
    8880022    1    1    2    0    0  0.20163195759E+03 -0.13688272069E+03  0.23516561295E+02  0.28868149787E+03  0.15294330000E+03 0.  0.
<mgrwt>
<rscale>  0 0.56185956E+03</rscale>
<asrwt>0</asrwt>
<pdfrwt beam="1">  1        2 0.31757229E+00 0.70228380E+03</pdfrwt>
<pdfrwt beam="2">  1       -2 0.30338669E-01 0.70228380E+03</pdfrwt>
<totfact> 0.63969938E+01</totfact>
</mgrwt>
</event>
<event>
 4    1  0.2701205E-007  0.7710250E+03  0.7818608E-02  0.9777358E-01
         -2   -1    0    0    0  501 -0.00000000000E+00  0.00000000000E+00  0.11861921602E+03  0.11861921605E+03  0.25500000000E-02 0.  1.
          2   -1    0    0  501    0  0.00000000000E+00 -0.00000000000E+00 -0.33408622326E+04  0.33408622326E+04  0.25500000000E-02 0. -1.
    8880023    1    1    2    0    0  0.20771838857E+03 -0.34281538428E+03 -0.15246999581E+04  0.17085635736E+04  0.65864270000E+03 0.  0.
    8880022    1    1    2    0    0 -0.20771838857E+03  0.34281538428E+03 -0.16975430585E+04  0.17509178750E+04  0.15294330000E+03 0.  0.
<mgrwt>
<rscale>  0 0.66591922E+03</rscale>
<asrwt>0</asrwt>
<pdfrwt beam="1">  1        2 0.51397873E+00 0.77102498E+03</pdfrwt>
<pdfrwt beam="2">  1       -2 0.18249113E-01 0.77102498E+03</pdfrwt>
<totfact> 0.27909628E+01</totfact>
</mgrwt>
</event>
<event>
 4    1  0.2701205E-007  0.1154154E+04  0.7818608E-02  0.9203030E-01
         -2   -1    0    0    0  501 -0.00000000000E+00  0.00000000000E+00  0.63884460001E+03  0.63884460002E+03  0.25500000000E-02 0.  1.
          2   -1    0    0  501    0  0.00000000000E+00 -0.00000000000E+00 -0.35388053442E+04  0.35388053442E+04  0.25500000000E-02 0. -1.
    8880023    1    1    2    0    0 -0.53313337487E+02  0.94626578392E+03 -0.29981372160E+04  0.32126154793E+04  0.65864270000E+03 0. -1.
    8880022    1    1    2    0    0  0.53313337487E+02 -0.94626578392E+03  0.98176471830E+02  0.96503446488E+03  0.15294330000E+03 0.  0.
<mgrwt>
<rscale>  0 0.11022212E+04</rscale>
<asrwt>0</asrwt>
<pdfrwt beam="1">  1        2 0.54443158E+00 0.11541540E+04</pdfrwt>
<pdfrwt beam="2">  1       -2 0.98283787E-01 0.11541540E+04</pdfrwt>
<totfact> 0.66259454E-01</totfact>
</mgrwt>
</event>
<event>
 4    1  0.2701205E-007  0.9240422E+03  0.7818608E-02  0.9488489E-01
         -2   -1    0    0    0  501 -0.00000000000E+00  0.00000000000E+00  0.65366776681E+03  0.65366776681E+03  0.25500000000E-02 0.  1.
          2   -1    0    0  501    0  0.00000000000E+00 -0.00000000000E+00 -0.21601044163E+04  0.21601044163E+04  0.25500000000E-02 0. -1.
    8880023    1    1    2    0    0  0.54872690146E+03 -0.34488058747E+03 -0.18474279993E+04  0.20656341038E+04  0.65864270000E+03 0. -1.
    8880022    1    1    2    0    0 -0.54872690146E+03  0.34488058747E+03  0.34099134983E+03  0.74813807928E+03  0.15294330000E+03 0.  0.
<mgrwt>
<rscale>  0 0.85137848E+03</rscale>
<asrwt>0</asrwt>
<pdfrwt beam="1">  1        2 0.33232375E+00 0.92404223E+03</pdfrwt>
<pdfrwt beam="2">  1       -2 0.10056427E+00 0.92404223E+03</pdfrwt>
<totfact> 0.44886763E+00</totfact>
</mgrwt>
</event>
<event>
 4    1  0.2701205E-007  0.1458651E+04  0.7818608E-02  0.8939400E-01
          2   -1    0    0  501    0  0.00000000000E+00  0.00000000000E+00  0.76497246647E+03  0.76497246648E+03  0.25500000000E-02 0. -1.
         -2   -1    0    0    0  501 -0.00000000000E+00 -0.00000000000E+00 -0.32837775503E+04  0.32837775503E+04  0.25500000000E-02 0.  1.
    8880023    1    1    2    0    0 -0.11532317947E+04  0.60324837227E+03 -0.32665518536E+03  0.14947795782E+04  0.65864270000E+03 0.  0.
    8880022    1    1    2    0    0  0.11532317947E+04 -0.60324837227E+03 -0.21921498984E+04  0.25539704386E+04  0.15294330000E+03 0.  0.
<mgrwt>
<rscale>  0 0.14200954E+04</rscale>
<asrwt>0</asrwt>
<pdfrwt beam="1">  1        2 0.11768807E+00 0.14586509E+04</pdfrwt>
<pdfrwt beam="2">  1       -2 0.50519654E+00 0.14586509E+04</pdfrwt>
<totfact> 0.53142232E-02</totfact>
</mgrwt>
</event>
<event>
 4    1  0.2701205E-007  0.1146601E+04  0.7818608E-02  0.9210863E-01
          2   -1    0    0  501    0  0.00000000000E+00  0.00000000000E+00  0.14860133430E+04  0.14860133430E+04  0.25500000000E-02 0. -1.
         -2   -1    0    0    0  501 -0.00000000000E+00 -0.00000000000E+00 -0.94401928373E+03  0.94401928374E+03  0.25500000000E-02 0.  1.
    8880023    1    1    2    0    0 -0.78970321175E+03 -0.50720175613E+03  0.85348473596E+03  0.14293813994E+04  0.65864270000E+03 0.  0.
    8880022    1    1    2    0    0  0.78970321175E+03  0.50720175613E+03 -0.31149067674E+03  0.10006512273E+04  0.15294330000E+03 0.  0.
<mgrwt>
<rscale>  0 0.10942008E+04</rscale>
<asrwt>0</asrwt>
<pdfrwt beam="1">  1        2 0.22861744E+00 0.11466015E+04</pdfrwt>
<pdfrwt beam="2">  1       -2 0.14523374E+00 0.11466015E+04</pdfrwt>
<totfact> 0.41230132E+00</totfact>
</mgrwt>
</event>
<event>
 4    1  0.2701205E-007  0.8618035E+03  0.7818608E-02  0.9590363E-01
         -2   -1    0    0    0  501 -0.00000000000E+00  0.00000000000E+00  0.28264791813E+03  0.28264791814E+03  0.25500000000E-02 0.  1.
          2   -1    0    0  501    0  0.00000000000E+00 -0.00000000000E+00 -0.36099900549E+04  0.36099900549E+04  0.25500000000E-02 0. -1.
    8880023    1    1    2    0    0 -0.43197990830E+03 -0.34969760323E+03 -0.31840971665E+04  0.32986633697E+04  0.65864270000E+03 0. -1.
    8880022    1    1    2    0    0  0.43197990830E+03  0.34969760323E+03 -0.14324497031E+03  0.59397460334E+03  0.15294330000E+03 0.  0.
<mgrwt>
<rscale>  0 0.77937291E+03</rscale>
<asrwt>0</asrwt>
<pdfrwt beam="1">  1        2 0.55538305E+00 0.86180349E+03</pdfrwt>
<pdfrwt beam="2">  1       -2 0.43484298E-01 0.86180349E+03</pdfrwt>
<totfact> 0.36284132E+00</totfact>
</mgrwt>
</event>
<event>
 4    1  0.2701205E-007  0.2452604E+04  0.7818608E-02  0.8427975E-01
         -2   -1    0    0    0  501 -0.00000000000E+00  0.00000000000E+00  0.25788488089E+04  0.25788488089E+04  0.25500000000E-02 0.  1.
          2   -1    0    0  501    0  0.00000000000E+00 -0.00000000000E+00 -0.26559063139E+04  0.26559063139E+04  0.25500000000E-02 0. -1.
    8880023    1    1    2    0    0 -0.22686343303E+04 -0.65936076158E+03 -0.10593432558E+04  0.26716056368E+04  0.65864270000E+03 0.  0.
    8880022    1    1    2    0    0  0.22686343303E+04  0.65936076158E+03  0.98228575082E+03  0.25631494860E+04  0.15294330000E+03 0.  0.
<mgrwt>
<rscale>  0 0.24310346E+04</rscale>
<asrwt>0</asrwt>
<pdfrwt beam="1">  1        2 0.40860097E+00 0.24526044E+04</pdfrwt>
<pdfrwt beam="2">  1       -2 0.39674597E+00 0.24526044E+04</pdfrwt>
<totfact> 0.18509465E-02</totfact>
</mgrwt>
</event>
<event>
 4    1  0.2701205E-007  0.1147424E+04  0.7818608E-02  0.9210006E-01
         -2   -1    0    0    0  501 -0.00000000000E+00  0.00000000000E+00  0.86820901632E+03  0.86820901632E+03  0.25500000000E-02 0.  1.
          2   -1    0    0  501    0  0.00000000000E+00 -0.00000000000E+00 -0.17908636047E+04  0.17908636047E+04  0.25500000000E-02 0. -1.
    8880023    1    1    2    0    0 -0.93846109240E+03 -0.45410111537E+02 -0.12072217626E+04  0.16655227079E+04  0.65864270000E+03 0.  0.
    8880022    1    1    2    0    0  0.93846109240E+03  0.45410111537E+02  0.28456717422E+03  0.99354991311E+03  0.15294330000E+03 0.  0.
<mgrwt>
<rscale>  0 0.10950746E+04</rscale>
<asrwt>0</asrwt>
<pdfrwt beam="1">  1        2 0.27551748E+00 0.11474239E+04</pdfrwt>
<pdfrwt beam="2">  1       -2 0.13357062E+00 0.11474239E+04</pdfrwt>
<totfact> 0.34655016E+00</totfact>
</mgrwt>
</event>
<event>
 4    1  0.3526744E-007  0.1503204E+04  0.7818608E-02  0.8907377E-01
         -2   -1    0    0    0  501 -0.00000000000E+00  0.00000000000E+00  0.19925489321E+04  0.19925489321E+04  0.25500000000E-02 0.  1.
          2   -1    0    0  501    0  0.00000000000E+00 -0.00000000000E+00 -0.21225179440E+04  0.21225179440E+04  0.25500000000E-02 0. -1.
    8880023    1    1    2    0    0  0.13489226877E+04 -0.78861465854E+02 -0.15428644953E+04  0.21540781335E+04  0.65864270000E+03 0. -1.
    8880022    1    1    2    0    0 -0.13489226877E+04  0.78861465854E+02  0.14128954835E+04  0.19609887426E+04  0.15294330000E+03 0.  0.
<mgrwt>
<rscale>  0 0.14660085E+04</rscale>
<asrwt>0</asrwt>
<pdfrwt beam="1">  1        2 0.32654122E+00 0.15032038E+04</pdfrwt>
<pdfrwt beam="2">  1       -2 0.30654599E+00 0.15032038E+04</pdfrwt>
<totfact> 0.15507092E-01</totfact>
</mgrwt>
</event>
<event>
 4    1  0.2701205E-007  0.1026893E+04  0.7818608E-02  0.9347189E-01
         -2   -1    0    0    0  501 -0.00000000000E+00  0.00000000000E+00  0.90036495895E+03  0.90036495895E+03  0.25500000000E-02 0.  1.
          2   -1    0    0  501    0  0.00000000000E+00 -0.00000000000E+00 -0.13418977585E+04  0.13418977585E+04  0.25500000000E-02 0. -1.
    8880023    1    1    2    0    0  0.76191046243E+03 -0.20047738148E+03 -0.85793268873E+03  0.13381171241E+04  0.65864270000E+03 0.  0.
    8880022    1    1    2    0    0 -0.76191046243E+03  0.20047738148E+03  0.41639988917E+03  0.90414559334E+03  0.15294330000E+03 0.  0.
<mgrwt>
<rscale>  0 0.96552206E+03</rscale>
<asrwt>0</asrwt>
<pdfrwt beam="1">  1        2 0.20644581E+00 0.10268929E+04</pdfrwt>
<pdfrwt beam="2">  1       -2 0.13851769E+00 0.10268929E+04</pdfrwt>
<totfact> 0.57097360E+00</totfact>
</mgrwt>
</event>
<event>
 4    1  0.2701205E-007  0.7882887E+03  0.7818608E-02  0.9736715E-01
         -2   -1    0    0    0  501 -0.00000000000E+00  0.00000000000E+00  0.49477423201E+03  0.49477423201E+03  0.25500000000E-02 0.  1.
          2   -1    0    0  501    0  0.00000000000E+00 -0.00000000000E+00 -0.14781983189E+04  0.14781983189E+04  0.25500000000E-02 0. -1.
    8880023    1    1    2    0    0 -0.39343969169E+03 -0.18109141734E+03 -0.12229123566E+04  0.14549617626E+04  0.65864270000E+03 0. -1.
    8880022    1    1    2    0    0  0.39343969169E+03  0.18109141734E+03  0.23948826973E+03  0.51801078829E+03  0.15294330000E+03 0.  0.
<mgrwt>
<rscale>  0 0.68872252E+03</rscale>
<asrwt>0</asrwt>
<pdfrwt beam="1">  1        2 0.22741512E+00 0.78828872E+03</pdfrwt>
<pdfrwt beam="2">  1       -2 0.76119113E-01 0.78828872E+03</pdfrwt>
<totfact> 0.20560524E+01</totfact>
</mgrwt>
</event>
<event>
 4    1  0.2701205E-007  0.1514855E+04  0.7818608E-02  0.8899217E-01
          2   -1    0    0  501    0  0.00000000000E+00  0.00000000000E+00  0.10032174510E+04  0.10032174510E+04  0.25500000000E-02 0. -1.
         -2   -1    0    0    0  501 -0.00000000000E+00 -0.00000000000E+00 -0.34455775445E+04  0.34455775445E+04  0.25500000000E-02 0.  1.
    8880023    1    1    2    0    0 -0.23417006597E+03 -0.13439265620E+04 -0.26578712789E+04  0.30592587607E+04  0.65864270000E+03 0.  1.
    8880022    1    1    2    0    0  0.23417006597E+03  0.13439265620E+04  0.21551118541E+03  0.13895362348E+04  0.15294330000E+03 0.  0.
<mgrwt>
<rscale>  0 0.14779981E+04</rscale>
<asrwt>0</asrwt>
<pdfrwt beam="1">  1        2 0.15434115E+00 0.15148546E+04</pdfrwt>
<pdfrwt beam="2">  1       -2 0.53008885E+00 0.15148546E+04</pdfrwt>
<totfact> 0.25532209E-02</totfact>
</mgrwt>
</event>
<event>
 4    1  0.2701205E-007  0.8273086E+03  0.7818608E-02  0.9654592E-01
         -2   -1    0    0    0  501 -0.00000000000E+00  0.00000000000E+00  0.37199160253E+03  0.37199160254E+03  0.25500000000E-02 0.  1.
          2   -1    0    0  501    0  0.00000000000E+00 -0.00000000000E+00 -0.16449567920E+04  0.16449567920E+04  0.25500000000E-02 0. -1.
    8880023    1    1    2    0    0 -0.41829969114E+03 -0.27505386579E+03 -0.12423212074E+04  0.14925821415E+04  0.65864270000E+03 0. -1.
    8880022    1    1    2    0    0  0.41829969114E+03  0.27505386579E+03 -0.30643982155E+02  0.52436625306E+03  0.15294330000E+03 0.  0.
<mgrwt>
<rscale>  0 0.73785938E+03</rscale>
<asrwt>0</asrwt>
<pdfrwt beam="1">  1        2 0.25307027E+00 0.82730857E+03</pdfrwt>
<pdfrwt beam="2">  1       -2 0.57229478E-01 0.82730857E+03</pdfrwt>
<totfact> 0.30619274E+01</totfact>
</mgrwt>
</event>
<event>
 4    1  0.2701205E-007  0.1091393E+04  0.7818608E-02  0.9270700E-01
         -2   -1    0    0    0  501 -0.00000000000E+00  0.00000000000E+00  0.63670394295E+03  0.63670394295E+03  0.25500000000E-02 0.  1.
          2   -1    0    0  501    0  0.00000000000E+00 -0.00000000000E+00 -0.21920184860E+04  0.21920184860E+04  0.25500000000E-02 0. -1.
    8880023    1    1    2    0    0  0.65485250786E+03  0.57314552231E+03 -0.16081920361E+04  0.19435584447E+04  0.65864270000E+03 0.  1.
    8880022    1    1    2    0    0 -0.65485250786E+03 -0.57314552231E+03  0.52877493002E+02  0.88516398428E+03  0.15294330000E+03 0.  0.
<mgrwt>
<rscale>  0 0.10352557E+04</rscale>
<asrwt>0</asrwt>
<pdfrwt beam="1">  1        2 0.33723361E+00 0.10913926E+04</pdfrwt>
<pdfrwt beam="2">  1       -2 0.97954454E-01 0.10913926E+04</pdfrwt>
<totfact> 0.44908248E+00</totfact>
</mgrwt>
</event>
<event>
 4    1  0.2701205E-007  0.1455501E+04  0.7818608E-02  0.8941714E-01
         -2   -1    0    0    0  501 -0.00000000000E+00  0.00000000000E+00  0.16997360740E+04  0.16997360740E+04  0.25500000000E-02 0.  1.
          2   -1    0    0  501    0  0.00000000000E+00 -0.00000000000E+00 -0.12484695208E+04  0.12484695208E+04  0.25500000000E-02 0. -1.
    8880023    1    1    2    0    0 -0.13921789997E+03  0.12904620718E+04 -0.23130641639E+03  0.14737662117E+04  0.65864270000E+03 0.  0.
    8880022    1    1    2    0    0  0.13921789997E+03 -0.12904620718E+04  0.68257296964E+03  0.14744393830E+04  0.15294330000E+03 0.  0.
<mgrwt>
<rscale>  0 0.14168456E+04</rscale>
<asrwt>0</asrwt>
<pdfrwt beam="1">  1        2 0.19207224E+00 0.14555014E+04</pdfrwt>
<pdfrwt beam="2">  1       -2 0.26149786E+00 0.14555014E+04</pdfrwt>
<totfact> 0.91725299E-01</totfact>
</mgrwt>
</event>
<event>
 4    1  0.4134005E-007  0.8928986E+03  0.7818608E-02  0.9537529E-01
          2   -1    0    0  501    0  0.00000000000E+00  0.00000000000E+00  0.21023324248E+04  0.21023324248E+04  0.25500000000E-02 0. -1.
         -2   -1    0    0    0  501 -0.00000000000E+00 -0.00000000000E+00 -0.14522394416E+04  0.14522394416E+04  0.25500000000E-02 0.  1.
    8880023    1    1    2    0    0 -0.36967524797E+03 -0.47623310857E+03  0.19327687413E+04  0.21290521310E+04  0.65864270000E+03 0. -1.
    8880022    1    1    2    0    0  0.36967524797E+03  0.47623310857E+03 -0.12826757581E+04  0.14255197355E+04  0.15294330000E+03 0.  0.
<mgrwt>
<rscale>  0 0.81572611E+03</rscale>
<asrwt>0</asrwt>
<pdfrwt beam="1">  1        2 0.32343575E+00 0.89289863E+03</pdfrwt>
<pdfrwt beam="2">  1       -2 0.22342146E+00 0.89289863E+03</pdfrwt>
<totfact> 0.56226582E-01</totfact>
</mgrwt>
</event>
<event>
 4    1  0.2701205E-007  0.1046200E+04  0.7818608E-02  0.9323463E-01
         -2   -1    0    0    0  501 -0.00000000000E+00  0.00000000000E+00  0.19936038251E+04  0.19936038251E+04  0.25500000000E-02 0.  1.
          2   -1    0    0  501    0  0.00000000000E+00 -0.00000000000E+00 -0.89680395459E+03  0.89680395459E+03  0.25500000000E-02 0. -1.
    8880023    1    1    2    0    0 -0.13548691936E+03  0.80147838402E+03 -0.44802481808E+03  0.11380952286E+04  0.65864270000E+03 0.  0.
    8880022    1    1    2    0    0  0.13548691936E+03 -0.80147838402E+03  0.15448246886E+04  0.17523125511E+04  0.15294330000E+03 0.  0.
<mgrwt>
<rscale>  0 0.98651175E+03</rscale>
<asrwt>0</asrwt>
<pdfrwt beam="1">  1        2 0.13796984E+00 0.10462000E+04</pdfrwt>
<pdfrwt beam="2">  1       -2 0.30670828E+00 0.10462000E+04</pdfrwt>
<totfact> 0.85089947E-01</totfact>
</mgrwt>
</event>
<event>
 4    1  0.2701205E-007  0.7109318E+03  0.7818608E-02  0.9954557E-01
         -2   -1    0    0    0  501 -0.00000000000E+00  0.00000000000E+00  0.14633720109E+04  0.14633720109E+04  0.25500000000E-02 0.  1.
          2   -1    0    0  501    0  0.00000000000E+00 -0.00000000000E+00 -0.72255340535E+03  0.72255340535E+03  0.25500000000E-02 0. -1.
    8880023    1    1    2    0    0  0.26507526016E+03  0.36727142322E+02 -0.52458489759E+03  0.88352322979E+03  0.65864270000E+03 0. -1.
    8880022    1    1    2    0    0 -0.26507526016E+03 -0.36727142322E+02  0.12654035032E+04  0.13024021865E+04  0.15294330000E+03 0.  0.
<mgrwt>
<rscale>  0 0.57688533E+03</rscale>
<asrwt>0</asrwt>
<pdfrwt beam="1">  1        2 0.11116206E+00 0.71093177E+03</pdfrwt>
<pdfrwt beam="2">  1       -2 0.22513415E+00 0.71093177E+03</pdfrwt>
<totfact> 0.37227360E+00</totfact>
</mgrwt>
</event>
<event>
 4    1  0.2701205E-007  0.8661828E+03  0.7818608E-02  0.9582659E-01
          2   -1    0    0  501    0  0.00000000000E+00  0.00000000000E+00  0.25818129872E+04  0.25818129872E+04  0.25500000000E-02 0. -1.
         -2   -1    0    0    0  501 -0.00000000000E+00 -0.00000000000E+00 -0.71784427240E+03  0.71784427240E+03  0.25500000000E-02 0.  1.
    8880023    1    1    2    0    0  0.43337344601E+02  0.56087815891E+03  0.23727395655E+04  0.25258989858E+04  0.65864270000E+03 0. -1.
    8880022    1    1    2    0    0 -0.43337344601E+02 -0.56087815891E+03 -0.50877085075E+03  0.77375827374E+03  0.15294330000E+03 0.  0.
<mgrwt>
<rscale>  0 0.78454657E+03</rscale>
<asrwt>0</asrwt>
<pdfrwt beam="1">  1        2 0.39720200E+00 0.86618280E+03</pdfrwt>
<pdfrwt beam="2">  1       -2 0.11043758E+00 0.86618280E+03</pdfrwt>
<totfact> 0.20923088E+00</totfact>
</mgrwt>
</event>
<event>
 4    1  0.2701205E-007  0.7131693E+03  0.7818608E-02  0.9946415E-01
         -2   -1    0    0    0  501 -0.00000000000E+00  0.00000000000E+00  0.55179956882E+03  0.55179956882E+03  0.25500000000E-02 0.  1.
          2   -1    0    0  501    0  0.00000000000E+00 -0.00000000000E+00 -0.25470217867E+04  0.25470217867E+04  0.25500000000E-02 0. -1.
    8880023    1    1    2    0    0  0.57047967270E+02 -0.26748028795E+03 -0.24471124236E+04  0.25489153762E+04  0.65864270000E+03 0. -1.
    8880022    1    1    2    0    0 -0.57047967270E+02  0.26748028795E+03  0.45189020574E+03  0.54990597930E+03  0.15294330000E+03 0.  0.
<mgrwt>
<rscale>  0 0.58063589E+03</rscale>
<asrwt>0</asrwt>
<pdfrwt beam="1">  1        2 0.39184950E+00 0.71316925E+03</pdfrwt>
<pdfrwt beam="2">  1       -2 0.84892242E-01 0.71316925E+03</pdfrwt>
<totfact> 0.41820097E+00</totfact>
</mgrwt>
</event>
<event>
 4    1  0.2701205E-007  0.8382707E+03  0.7818608E-02  0.9633450E-01
          2   -1    0    0  501    0  0.00000000000E+00  0.00000000000E+00  0.28616336438E+04  0.28616336438E+04  0.25500000000E-02 0. -1.
         -2   -1    0    0    0  501 -0.00000000000E+00 -0.00000000000E+00 -0.30123010751E+03  0.30123010752E+03  0.25500000000E-02 0.  1.
    8880023    1    1    2    0    0 -0.41681993451E+03 -0.30846172570E+03  0.24780548771E+04  0.26159995555E+04  0.65864270000E+03 0.  0.
    8880022    1    1    2    0    0  0.41681993451E+03  0.30846172570E+03  0.82348659203E+02  0.54686419586E+03  0.15294330000E+03 0.  0.
<mgrwt>
<rscale>  0 0.75121271E+03</rscale>
<asrwt>0</asrwt>
<pdfrwt beam="1">  1        2 0.44025131E+00 0.83827066E+03</pdfrwt>
<pdfrwt beam="2">  1       -2 0.46343095E-01 0.83827066E+03</pdfrwt>
<totfact> 0.97720687E+00</totfact>
</mgrwt>
</event>
<event>
 4    1  0.2701205E-007  0.8536178E+03  0.7818608E-02  0.9605019E-01
         -2   -1    0    0    0  501 -0.00000000000E+00  0.00000000000E+00  0.77079218817E+03  0.77079218818E+03  0.25500000000E-02 0.  1.
          2   -1    0    0  501    0  0.00000000000E+00 -0.00000000000E+00 -0.11957087812E+04  0.11957087812E+04  0.25500000000E-02 0. -1.
    8880023    1    1    2    0    0 -0.25125395762E+03 -0.48137778039E+03 -0.89160524802E+03  0.12343513451E+04  0.65864270000E+03 0. -1.
    8880022    1    1    2    0    0  0.25125395762E+03  0.48137778039E+03  0.46668865495E+03  0.73214962429E+03  0.15294330000E+03 0.  0.
<mgrwt>
<rscale>  0 0.76964907E+03</rscale>
<asrwt>0</asrwt>
<pdfrwt beam="1">  1        2 0.18395520E+00 0.85361779E+03</pdfrwt>
<pdfrwt beam="2">  1       -2 0.11858341E+00 0.85361779E+03</pdfrwt>
<totfact> 0.10497725E+01</totfact>
</mgrwt>
</event>
<event>
 4    1  0.2701205E-007  0.1100584E+04  0.7818608E-02  0.9260406E-01
          2   -1    0    0  501    0  0.00000000000E+00  0.00000000000E+00  0.20100794532E+04  0.20100794532E+04  0.25500000000E-02 0. -1.
         -2   -1    0    0    0  501 -0.00000000000E+00 -0.00000000000E+00 -0.81356017524E+03  0.81356017525E+03  0.25500000000E-02 0.  1.
    8880023    1    1    2    0    0 -0.60987802750E+03  0.63680773962E+03 -0.24443716751E+03  0.11274018985E+04  0.65864270000E+03 0.  0.
    8880022    1    1    2    0    0  0.60987802750E+03 -0.63680773962E+03  0.14409564455E+04  0.16962377299E+04  0.15294330000E+03 0.  0.
<mgrwt>
<rscale>  0 0.10451112E+04</rscale>
<asrwt>0</asrwt>
<pdfrwt beam="1">  1        2 0.30924299E+00 0.11005842E+04</pdfrwt>
<pdfrwt beam="2">  1       -2 0.12516311E+00 0.11005842E+04</pdfrwt>
<totfact> 0.31099276E+00</totfact>
</mgrwt>
</event>
<event>
 4    1  0.2701205E-007  0.1147503E+04  0.7818608E-02  0.9209924E-01
          2   -1    0    0  501    0  0.00000000000E+00  0.00000000000E+00  0.26765384930E+04  0.26765384930E+04  0.25500000000E-02 0. -1.
         -2   -1    0    0    0  501 -0.00000000000E+00 -0.00000000000E+00 -0.45808718299E+03  0.45808718300E+03  0.25500000000E-02 0.  1.
    8880023    1    1    2    0    0 -0.32743023702E+03 -0.88076202413E+03  0.16987130725E+04  0.20499728321E+04  0.65864270000E+03 0. -1.
    8880022    1    1    2    0    0  0.32743023702E+03  0.88076202413E+03  0.51973823745E+03  0.10846528439E+04  0.15294330000E+03 0.  0.
<mgrwt>
<rscale>  0 0.10951584E+04</rscale>
<asrwt>0</asrwt>
<pdfrwt beam="1">  1        2 0.41177515E+00 0.11475027E+04</pdfrwt>
<pdfrwt beam="2">  1       -2 0.70474952E-01 0.11475027E+04</pdfrwt>
<totfact> 0.50025735E+00</totfact>
</mgrwt>
</event>
<event>
 4    1  0.2701205E-007  0.7909931E+03  0.7818608E-02  0.9730620E-01
          2   -1    0    0  501    0  0.00000000000E+00  0.00000000000E+00  0.14307888447E+04  0.14307888448E+04  0.25500000000E-02 0. -1.
         -2   -1    0    0    0  501 -0.00000000000E+00 -0.00000000000E+00 -0.45841330217E+03  0.45841330218E+03  0.25500000000E-02 0.  1.
    8880023    1    1    2    0    0 -0.33758543428E+03  0.27909835252E+03  0.11471508476E+04  0.13934220787E+04  0.65864270000E+03 0. -1.
    8880022    1    1    2    0    0  0.33758543428E+03 -0.27909835252E+03 -0.17477530506E+03  0.49578006827E+03  0.15294330000E+03 0.  0.
<mgrwt>
<rscale>  0 0.69222578E+03</rscale>
<asrwt>0</asrwt>
<pdfrwt beam="1">  1        2 0.22012136E+00 0.79099306E+03</pdfrwt>
<pdfrwt beam="2">  1       -2 0.70525124E-01 0.79099306E+03</pdfrwt>
<totfact> 0.25862746E+01</totfact>
</mgrwt>
</event>
<event>
 4    1  0.2701205E-007  0.1047014E+04  0.7818608E-02  0.9322480E-01
          2   -1    0    0  501    0  0.00000000000E+00  0.00000000000E+00  0.17154780233E+04  0.17154780233E+04  0.25500000000E-02 0. -1.
         -2   -1    0    0    0  501 -0.00000000000E+00 -0.00000000000E+00 -0.10475745278E+04  0.10475745278E+04  0.25500000000E-02 0.  1.
    8880023    1    1    2    0    0  0.73352595827E+03  0.35265794332E+03  0.13371488917E+04  0.16982948276E+04  0.65864270000E+03 0. -1.
    8880022    1    1    2    0    0 -0.73352595827E+03 -0.35265794332E+03 -0.66924539627E+03  0.10647577236E+04  0.15294330000E+03 0.  0.
<mgrwt>
<rscale>  0 0.98739422E+03</rscale>
<asrwt>0</asrwt>
<pdfrwt beam="1">  1        2 0.26391969E+00 0.10470139E+04</pdfrwt>
<pdfrwt beam="2">  1       -2 0.16116531E+00 0.10470139E+04</pdfrwt>
<totfact> 0.23468135E+00</totfact>
</mgrwt>
</event>
<event>
 4    1  0.2701205E-007  0.1371710E+04  0.7818608E-02  0.9005983E-01
         -2   -1    0    0    0  501 -0.00000000000E+00  0.00000000000E+00  0.14854382057E+04  0.14854382057E+04  0.25500000000E-02 0.  1.
          2   -1    0    0  501    0  0.00000000000E+00 -0.00000000000E+00 -0.29177743951E+04  0.29177743951E+04  0.25500000000E-02 0. -1.
    8880023    1    1    2    0    0  0.11937187091E+04  0.15104040253E+03 -0.24579495399E+04  0.28148008289E+04  0.65864270000E+03 0.  0.
    8880022    1    1    2    0    0 -0.11937187091E+04 -0.15104040253E+03  0.10256133504E+04  0.15884117719E+04  0.15294330000E+03 0.  0.
<mgrwt>
<rscale>  0 0.13301619E+04</rscale>
<asrwt>0</asrwt>
<pdfrwt beam="1">  1        2 0.44888837E+00 0.13717098E+04</pdfrwt>
<pdfrwt beam="2">  1       -2 0.22852895E+00 0.13717098E+04</pdfrwt>
<totfact> 0.16371625E-01</totfact>
</mgrwt>
</event>
<event>
 4    1  0.2701205E-007  0.1026526E+04  0.7818608E-02  0.9347647E-01
          2   -1    0    0  501    0  0.00000000000E+00  0.00000000000E+00  0.41798442117E+04  0.41798442117E+04  0.25500000000E-02 0. -1.
         -2   -1    0    0    0  501 -0.00000000000E+00 -0.00000000000E+00 -0.20785214653E+03  0.20785214654E+03  0.25500000000E-02 0.  1.
    8880023    1    1    2    0    0 -0.48775786775E+03  0.61809226333E+03  0.17971372714E+04  0.20696517490E+04  0.65864270000E+03 0.  0.
    8880022    1    1    2    0    0  0.48775786775E+03 -0.61809226333E+03  0.21748547938E+04  0.23180446093E+04  0.15294330000E+03 0.  0.
<mgrwt>
<rscale>  0 0.96512235E+03</rscale>
<asrwt>0</asrwt>
<pdfrwt beam="1">  1        2 0.64305291E+00 0.10265262E+04</pdfrwt>
<pdfrwt beam="2">  1       -2 0.31977255E-01 0.10265262E+04</pdfrwt>
<totfact> 0.23261378E+00</totfact>
</mgrwt>
</event>
<event>
 4    1  0.2701205E-007  0.7628627E+03  0.7818608E-02  0.9797752E-01
          2   -1    0    0  501    0  0.00000000000E+00  0.00000000000E+00  0.13008636094E+04  0.13008636094E+04  0.25500000000E-02 0. -1.
         -2   -1    0    0    0  501 -0.00000000000E+00 -0.00000000000E+00 -0.10581855961E+04  0.10581855961E+04  0.25500000000E-02 0.  1.
    8880023    1    1    2    0    0 -0.31644216085E+03  0.21912014019E+03  0.11394562037E+04  0.13712475792E+04  0.65864270000E+03 0. -1.
    8880022    1    1    2    0    0  0.31644216085E+03 -0.21912014019E+03 -0.89677819040E+03  0.98780162624E+03  0.15294330000E+03 0.  0.
<mgrwt>
<rscale>  0 0.65483329E+03</rscale>
<asrwt>0</asrwt>
<pdfrwt beam="1">  1        2 0.20013286E+00 0.76286269E+03</pdfrwt>
<pdfrwt beam="2">  1       -2 0.16279778E+00 0.76286269E+03</pdfrwt>
<totfact> 0.40542889E+00</totfact>
</mgrwt>
</event>
<event>
 4    1  0.2701205E-007  0.8908044E+03  0.7818608E-02  0.9540958E-01
          2   -1    0    0  501    0  0.00000000000E+00  0.00000000000E+00  0.27203952786E+04  0.27203952786E+04  0.25500000000E-02 0. -1.
         -2   -1    0    0    0  501 -0.00000000000E+00 -0.00000000000E+00 -0.53666459618E+03  0.53666459618E+03  0.25500000000E-02 0.  1.
    8880023    1    1    2    0    0  0.53823343038E+03 -0.26462634162E+03  0.24321158678E+04  0.25901197128E+04  0.65864270000E+03 0. -1.
    8880022    1    1    2    0    0 -0.53823343038E+03  0.26462634162E+03 -0.24838518538E+03  0.66694016193E+03  0.15294330000E+03 0.  0.
<mgrwt>
<rscale>  0 0.81330375E+03</rscale>
<asrwt>0</asrwt>
<pdfrwt beam="1">  1        2 0.41852235E+00 0.89080443E+03</pdfrwt>
<pdfrwt beam="2">  1       -2 0.82563785E-01 0.89080443E+03</pdfrwt>
<totfact> 0.34279493E+00</totfact>
</mgrwt>
</event>
<event>
 4    1  0.2701205E-007  0.9123530E+03  0.7818608E-02  0.9506485E-01
         -2   -1    0    0    0  501 -0.00000000000E+00  0.00000000000E+00  0.92761670661E+03  0.92761670661E+03  0.25500000000E-02 0.  1.
          2   -1    0    0  501    0  0.00000000000E+00 -0.00000000000E+00 -0.74836516929E+03  0.74836516930E+03  0.25500000000E-02 0. -1.
    8880023    1    1    2    0    0 -0.62843191897E+03  0.60424473807E+02  0.39120175999E+03  0.99268666612E+03  0.65864270000E+03 0.  1.
    8880022    1    1    2    0    0  0.62843191897E+03 -0.60424473807E+02 -0.21195022267E+03  0.68329520979E+03  0.15294330000E+03 0.  0.
<mgrwt>
<rscale>  0 0.83807388E+03</rscale>
<asrwt>0</asrwt>
<pdfrwt beam="1">  1        2 0.11513310E+00 0.91235300E+03</pdfrwt>
<pdfrwt beam="2">  1       -2 0.14271026E+00 0.91235300E+03</pdfrwt>
<totfact> 0.12843429E+01</totfact>
</mgrwt>
</event>
<event>
 4    1  0.2701205E-007  0.7324395E+03  0.7818608E-02  0.9882544E-01
         -2   -1    0    0    0  501 -0.00000000000E+00  0.00000000000E+00  0.65404841245E+03  0.65404841246E+03  0.25500000000E-02 0.  1.
          2   -1    0    0  501    0  0.00000000000E+00 -0.00000000000E+00 -0.25171733981E+04  0.25171733981E+04  0.25500000000E-02 0. -1.
    8880023    1    1    2    0    0 -0.31996431178E+03 -0.16742421490E+02 -0.24102037981E+04  0.25190375194E+04  0.65864270000E+03 0. -1.
    8880022    1    1    2    0    0  0.31996431178E+03  0.16742421490E+02  0.54707881249E+03  0.65218429112E+03  0.15294330000E+03 0.  0.
<mgrwt>
<rscale>  0 0.61114788E+03</rscale>
<asrwt>0</asrwt>
<pdfrwt beam="1">  1        2 0.38725744E+00 0.73243954E+03</pdfrwt>
<pdfrwt beam="2">  1       -2 0.10062283E+00 0.73243954E+03</pdfrwt>
<totfact> 0.29197275E+00</totfact>
</mgrwt>
</event>
<event>
 4    1  0.2701205E-007  0.8192415E+03  0.7818608E-02  0.9670639E-01
         -2   -1    0    0    0  501 -0.00000000000E+00  0.00000000000E+00  0.75883932503E+03  0.75883932504E+03  0.25500000000E-02 0.  1.
          2   -1    0    0  501    0  0.00000000000E+00 -0.00000000000E+00 -0.16052067614E+04  0.16052067614E+04  0.25500000000E-02 0. -1.
    8880023    1    1    2    0    0 -0.20159406403E+03  0.44351585910E+03 -0.13929825256E+04  0.16160312518E+04  0.65864270000E+03 0.  0.
    8880022    1    1    2    0    0  0.20159406403E+03 -0.44351585910E+03  0.54661508928E+03  0.74801483459E+03  0.15294330000E+03 0.  0.
<mgrwt>
<rscale>  0 0.72792149E+03</rscale>
<asrwt>0</asrwt>
<pdfrwt beam="1">  1        2 0.24695489E+00 0.81924153E+03</pdfrwt>
<pdfrwt beam="2">  1       -2 0.11674451E+00 0.81924153E+03</pdfrwt>
<totfact> 0.64032062E+00</totfact>
</mgrwt>
</event>
<event>
 4    1  0.2701205E-007  0.7877827E+03  0.7818608E-02  0.9737863E-01
         -2   -1    0    0    0  501 -0.00000000000E+00  0.00000000000E+00  0.13783608304E+04  0.13783608304E+04  0.25500000000E-02 0.  1.
          2   -1    0    0  501    0  0.00000000000E+00 -0.00000000000E+00 -0.18577006222E+04  0.18577006222E+04  0.25500000000E-02 0. -1.
    8880023    1    1    2    0    0  0.40826047041E+03 -0.14182628676E+03 -0.17316758955E+04  0.19024465619E+04  0.65864270000E+03 0.  0.
    8880022    1    1    2    0    0 -0.40826047041E+03  0.14182628676E+03  0.12523361037E+04  0.13336148908E+04  0.15294330000E+03 0.  0.
<mgrwt>
<rscale>  0 0.68806505E+03</rscale>
<asrwt>0</asrwt>
<pdfrwt beam="1">  1        2 0.28580010E+00 0.78778266E+03</pdfrwt>
<pdfrwt beam="2">  1       -2 0.21205551E+00 0.78778266E+03</pdfrwt>
<totfact> 0.92103314E-01</totfact>
</mgrwt>
</event>
<event>
 4    1  0.2701205E-007  0.8448773E+03  0.7818608E-02  0.9621051E-01
          2   -1    0    0  501    0  0.00000000000E+00  0.00000000000E+00  0.11813647857E+04  0.11813647857E+04  0.25500000000E-02 0. -1.
         -2   -1    0    0    0  501 -0.00000000000E+00 -0.00000000000E+00 -0.77198389173E+03  0.77198389174E+03  0.25500000000E-02 0.  1.
    8880023    1    1    2    0    0  0.46727118848E+03  0.24832463201E+03  0.88650012650E+03  0.12246224590E+04  0.65864270000E+03 0. -1.
    8880022    1    1    2    0    0 -0.46727118848E+03 -0.24832463201E+03 -0.47711923253E+03  0.72872621848E+03  0.15294330000E+03 0.  0.
<mgrwt>
<rscale>  0 0.75918398E+03</rscale>
<asrwt>0</asrwt>
<pdfrwt beam="1">  1        2 0.18174843E+00 0.84487732E+03</pdfrwt>
<pdfrwt beam="2">  1       -2 0.11876675E+00 0.84487732E+03</pdfrwt>
<totfact> 0.10675841E+01</totfact>
</mgrwt>
</event>
<event>
 4    1  0.2701205E-007  0.6647772E+03  0.7818608E-02  0.1019721E+00
         -2   -1    0    0    0  501 -0.00000000000E+00  0.00000000000E+00  0.16667716541E+04  0.16667716541E+04  0.25500000000E-02 0.  1.
          2   -1    0    0  501    0  0.00000000000E+00 -0.00000000000E+00 -0.19214346124E+03  0.19214346126E+03  0.25500000000E-02 0. -1.
    8880023    1    1    2    0    0  0.29725861981E+01  0.90054142989E+02  0.41316069132E+03  0.78270719177E+03  0.65864270000E+03 0. -1.
    8880022    1    1    2    0    0 -0.29725861981E+01 -0.90054142989E+02  0.10614675016E+04  0.10762079236E+04  0.15294330000E+03 0.  0.
<mgrwt>
<rscale>  0 0.47787419E+03</rscale>
<asrwt>0</asrwt>
<pdfrwt beam="1">  1        2 0.29560533E-01 0.66477725E+03</pdfrwt>
<pdfrwt beam="2">  1       -2 0.25642640E+00 0.66477725E+03</pdfrwt>
<totfact> 0.11013556E+01</totfact>
</mgrwt>
</event>
<event>
 4    1  0.2701205E-007  0.1253516E+04  0.7818608E-02  0.9106779E-01
          2   -1    0    0  501    0  0.00000000000E+00  0.00000000000E+00  0.84085787290E+03  0.84085787290E+03  0.25500000000E-02 0. -1.
         -2   -1    0    0    0  501 -0.00000000000E+00 -0.00000000000E+00 -0.18162322653E+04  0.18162322653E+04  0.25500000000E-02 0.  1.
    8880023    1    1    2    0    0 -0.10338541864E+04 -0.26198590594E+03 -0.79819466221E+02  0.12560543169E+04  0.65864270000E+03 0.  0.
    8880022    1    1    2    0    0  0.10338541864E+04  0.26198590594E+03 -0.89555492614E+03  0.14010358212E+04  0.15294330000E+03 0.  0.
<mgrwt>
<rscale>  0 0.12069682E+04</rscale>
<asrwt>0</asrwt>
<pdfrwt beam="1">  1        2 0.12936275E+00 0.12535156E+04</pdfrwt>
<pdfrwt beam="2">  1       -2 0.27942035E+00 0.12535156E+04</pdfrwt>
<totfact> 0.13303280E+00</totfact>
</mgrwt>
</event>
<event>
 4    1  0.2701205E-007  0.1313455E+04  0.7818608E-02  0.9054027E-01
          2   -1    0    0  501    0  0.00000000000E+00  0.00000000000E+00  0.10505327960E+04  0.10505327960E+04  0.25500000000E-02 0. -1.
         -2   -1    0    0    0  501 -0.00000000000E+00 -0.00000000000E+00 -0.17107561244E+04  0.17107561244E+04  0.25500000000E-02 0.  1.
    8880023    1    1    2    0    0  0.51120188345E+03  0.10149016770E+04  0.19901622122E+03  0.13284466275E+04  0.65864270000E+03 0.  0.
    8880022    1    1    2    0    0 -0.51120188345E+03 -0.10149016770E+04 -0.85923954967E+03  0.14328422929E+04  0.15294330000E+03 0.  0.
<mgrwt>
<rscale>  0 0.12695987E+04</rscale>
<asrwt>0</asrwt>
<pdfrwt beam="1">  1        2 0.16162043E+00 0.13134546E+04</pdfrwt>
<pdfrwt beam="2">  1       -2 0.26319325E+00 0.13134546E+04</pdfrwt>
<totfact> 0.12016018E+00</totfact>
</mgrwt>
</event>
<event>
 4    1  0.2701205E-007  0.7974102E+03  0.7818608E-02  0.9716424E-01
         -2   -1    0    0    0  501 -0.00000000000E+00  0.00000000000E+00  0.50178363585E+03  0.50178363585E+03  0.25500000000E-02 0.  1.
          2   -1    0    0  501    0  0.00000000000E+00 -0.00000000000E+00 -0.26087351819E+04  0.26087351819E+04  0.25500000000E-02 0. -1.
    8880023    1    1    2    0    0 -0.32314039960E+03 -0.31246305989E+03 -0.24158637348E+04  0.25440638107E+04  0.65864270000E+03 0. -1.
    8880022    1    1    2    0    0  0.32314039960E+03  0.31246305989E+03  0.30891218873E+03  0.56645500705E+03  0.15294330000E+03 0.  0.
<mgrwt>
<rscale>  0 0.70047287E+03</rscale>
<asrwt>0</asrwt>
<pdfrwt beam="1">  1        2 0.40134387E+00 0.79741024E+03</pdfrwt>
<pdfrwt beam="2">  1       -2 0.77197484E-01 0.79741024E+03</pdfrwt>
<totfact> 0.47033943E+00</totfact>
</mgrwt>
</event>
<event>
 4    1  0.2701205E-007  0.7397408E+03  0.7818608E-02  0.9860703E-01
          2   -1    0    0  501    0  0.00000000000E+00  0.00000000000E+00  0.21876483252E+04  0.21876483252E+04  0.25500000000E-02 0. -1.
         -2   -1    0    0    0  501 -0.00000000000E+00 -0.00000000000E+00 -0.33772687974E+03  0.33772687975E+03  0.25500000000E-02 0.  1.
    8880023    1    1    2    0    0 -0.14780711753E+03  0.30258765656E+03  0.19952653059E+04  0.21279802821E+04  0.65864270000E+03 0. -1.
    8880022    1    1    2    0    0  0.14780711753E+03 -0.30258765656E+03 -0.14534386045E+03  0.39739492281E+03  0.15294330000E+03 0.  0.
<mgrwt>
<rscale>  0 0.62204184E+03</rscale>
<asrwt>0</asrwt>
<pdfrwt beam="1">  1        2 0.33656129E+00 0.73974079E+03</pdfrwt>
<pdfrwt beam="2">  1       -2 0.51957981E-01 0.73974079E+03</pdfrwt>
<totfact> 0.19085850E+01</totfact>
</mgrwt>
</event>
<event>
 4    1  0.2701205E-007  0.1013551E+04  0.7818608E-02  0.9364039E-01
          2   -1    0    0  501    0  0.00000000000E+00  0.00000000000E+00  0.13315318697E+04  0.13315318697E+04  0.25500000000E-02 0. -1.
         -2   -1    0    0    0  501 -0.00000000000E+00 -0.00000000000E+00 -0.12164579545E+04  0.12164579545E+04  0.25500000000E-02 0.  1.
    8880023    1    1    2    0    0  0.29701086763E+03  0.71081693589E+03  0.95885568721E+03  0.13952385484E+04  0.65864270000E+03 0.  0.
    8880022    1    1    2    0    0 -0.29701086763E+03 -0.71081693589E+03 -0.84378177201E+03  0.11527512757E+04  0.15294330000E+03 0.  0.
<mgrwt>
<rscale>  0 0.95095144E+03</rscale>
<asrwt>0</asrwt>
<pdfrwt beam="1">  1        2 0.20485106E+00 0.10135514E+04</pdfrwt>
<pdfrwt beam="2">  1       -2 0.18714738E+00 0.10135514E+04</pdfrwt>
<totfact> 0.25431056E+00</totfact>
</mgrwt>
</event>
<event>
 4    1  0.2701205E-007  0.1061242E+04  0.7818608E-02  0.9305488E-01
          2   -1    0    0  501    0  0.00000000000E+00  0.00000000000E+00  0.10494940376E+04  0.10494940376E+04  0.25500000000E-02 0. -1.
         -2   -1    0    0    0  501 -0.00000000000E+00 -0.00000000000E+00 -0.10508940273E+04  0.10508940273E+04  0.25500000000E-02 0.  1.
    8880023    1    1    2    0    0  0.62096444351E+03  0.55392009290E+03  0.43675892074E+03  0.11476030980E+04  0.65864270000E+03 0.  0.
    8880022    1    1    2    0    0 -0.62096444351E+03 -0.55392009290E+03 -0.43815891042E+03  0.95278496693E+03  0.15294330000E+03 0.  0.
<mgrwt>
<rscale>  0 0.10027923E+04</rscale>
<asrwt>0</asrwt>
<pdfrwt beam="1">  1        2 0.16146062E+00 0.10612420E+04</pdfrwt>
<pdfrwt beam="2">  1       -2 0.16167601E+00 0.10612420E+04</pdfrwt>
<totfact> 0.56505237E+00</totfact>
</mgrwt>
</event>
<event>
 4    1  0.2701205E-007  0.7556148E+03  0.7818608E-02  0.9816595E-01
         -2   -1    0    0    0  501 -0.00000000000E+00  0.00000000000E+00  0.39293415005E+03  0.39293415006E+03  0.25500000000E-02 0.  1.
          2   -1    0    0  501    0  0.00000000000E+00 -0.00000000000E+00 -0.15063320273E+04  0.15063320273E+04  0.25500000000E-02 0. -1.
    8880023    1    1    2    0    0  0.59886699385E+02  0.36545471832E+03 -0.12628376958E+04  0.14716361032E+04  0.65864270000E+03 0. -1.
    8880022    1    1    2    0    0 -0.59886699385E+02 -0.36545471832E+03  0.14943981863E+03  0.42763007414E+03  0.15294330000E+03 0.  0.
<mgrwt>
<rscale>  0 0.64479498E+03</rscale>
<asrwt>0</asrwt>
<pdfrwt beam="1">  1        2 0.23174339E+00 0.75561483E+03</pdfrwt>
<pdfrwt beam="2">  1       -2 0.60451409E-01 0.75561483E+03</pdfrwt>
<totfact> 0.32815282E+01</totfact>
</mgrwt>
</event>
<event>
 4    1  0.2701205E-007  0.1019709E+04  0.7818608E-02  0.9356215E-01
          2   -1    0    0  501    0  0.00000000000E+00  0.00000000000E+00  0.31213892807E+04  0.31213892807E+04  0.25500000000E-02 0. -1.
         -2   -1    0    0    0  501 -0.00000000000E+00 -0.00000000000E+00 -0.10708041358E+04  0.10708041358E+04  0.25500000000E-02 0.  1.
    8880023    1    1    2    0    0 -0.70045134101E+03  0.33965309576E+03  0.28735424920E+04  0.30491069129E+04  0.65864270000E+03 0. -1.
    8880022    1    1    2    0    0  0.70045134101E+03 -0.33965309576E+03 -0.82295734715E+03  0.11430865037E+04  0.15294330000E+03 0.  0.
<mgrwt>
<rscale>  0 0.95768350E+03</rscale>
<asrwt>0</asrwt>
<pdfrwt beam="1">  1        2 0.48021374E+00 0.10197090E+04</pdfrwt>
<pdfrwt beam="2">  1       -2 0.16473910E+00 0.10197090E+04</pdfrwt>
<totfact> 0.34445324E-01</totfact>
</mgrwt>
</event>
<event>
 4    1  0.2701205E-007  0.1047571E+04  0.7818608E-02  0.9321807E-01
          2   -1    0    0  501    0  0.00000000000E+00  0.00000000000E+00  0.16721626905E+04  0.16721626905E+04  0.25500000000E-02 0. -1.
         -2   -1    0    0    0  501 -0.00000000000E+00 -0.00000000000E+00 -0.98726136318E+03  0.98726136319E+03  0.25500000000E-02 0.  1.
    8880023    1    1    2    0    0 -0.18435334621E+03 -0.79347912740E+03  0.12689357578E+04  0.16454797007E+04  0.65864270000E+03 0. -1.
    8880022    1    1    2    0    0  0.18435334621E+03  0.79347912740E+03 -0.58403443048E+03  0.10139443529E+04  0.15294330000E+03 0.  0.
<mgrwt>
<rscale>  0 0.98799838E+03</rscale>
<asrwt>0</asrwt>
<pdfrwt beam="1">  1        2 0.25725579E+00 0.10475712E+04</pdfrwt>
<pdfrwt beam="2">  1       -2 0.15188637E+00 0.10475712E+04</pdfrwt>
<totfact> 0.29111241E+00</totfact>
</mgrwt>
</event>
<event>
 4    1  0.2701205E-007  0.9527083E+03  0.7818608E-02  0.9446228E-01
          2   -1    0    0  501    0  0.00000000000E+00  0.00000000000E+00  0.20375637045E+04  0.20375637045E+04  0.25500000000E-02 0. -1.
         -2   -1    0    0    0  501 -0.00000000000E+00 -0.00000000000E+00 -0.43473306917E+03  0.43473306917E+03  0.25500000000E-02 0.  1.
    8880023    1    1    2    0    0  0.57897637301E+03 -0.37232958138E+03  0.14745894942E+04  0.17555817669E+04  0.65864270000E+03 0.  0.
    8880022    1    1    2    0    0 -0.57897637301E+03  0.37232958138E+03  0.12824114119E+03  0.71671500681E+03  0.15294330000E+03 0.  0.
<mgrwt>
<rscale>  0 0.88367006E+03</rscale>
<asrwt>0</asrwt>
<pdfrwt beam="1">  1        2 0.31347134E+00 0.95270833E+03</pdfrwt>
<pdfrwt beam="2">  1       -2 0.66882011E-01 0.95270833E+03</pdfrwt>
<totfact> 0.13187243E+01</totfact>
</mgrwt>
</event>
<event>
 4    1  0.2701205E-007  0.1613964E+04  0.7818608E-02  0.8833090E-01
         -2   -1    0    0    0  501 -0.00000000000E+00  0.00000000000E+00  0.17919208982E+04  0.17919208982E+04  0.25500000000E-02 0.  1.
          2   -1    0    0  501    0  0.00000000000E+00 -0.00000000000E+00 -0.27925434632E+04  0.27925434632E+04  0.25500000000E-02 0. -1.
    8880023    1    1    2    0    0  0.14156938472E+04 -0.40851083071E+03 -0.21649065585E+04  0.27003149411E+04  0.65864270000E+03 0.  0.
    8880022    1    1    2    0    0 -0.14156938472E+04  0.40851083071E+03  0.11642839935E+04  0.18841494204E+04  0.15294330000E+03 0.  0.
<mgrwt>
<rscale>  0 0.15797429E+04</rscale>
<asrwt>0</asrwt>
<pdfrwt beam="1">  1        2 0.42962207E+00 0.16139642E+04</pdfrwt>
<pdfrwt beam="2">  1       -2 0.27568014E+00 0.16139642E+04</pdfrwt>
<totfact> 0.96766174E-02</totfact>
</mgrwt>
</event>
<event>
 4    1  0.2701205E-007  0.1402848E+04  0.7818608E-02  0.8981473E-01
          2   -1    0    0  501    0  0.00000000000E+00  0.00000000000E+00  0.21324958470E+04  0.21324958470E+04  0.25500000000E-02 0. -1.
         -2   -1    0    0    0  501 -0.00000000000E+00 -0.00000000000E+00 -0.11149096204E+04  0.11149096204E+04  0.25500000000E-02 0.  1.
    8880023    1    1    2    0    0 -0.12381979846E+04  0.32235312488E+02  0.13593714214E+04  0.19534262802E+04  0.65864270000E+03 0.  0.
    8880022    1    1    2    0    0  0.12381979846E+04 -0.32235312488E+02 -0.34178519473E+03  0.12939791872E+04  0.15294330000E+03 0.  0.
<mgrwt>
<rscale>  0 0.13624288E+04</rscale>
<asrwt>0</asrwt>
<pdfrwt beam="1">  1        2 0.32807629E+00 0.14028484E+04</pdfrwt>
<pdfrwt beam="2">  1       -2 0.17152456E+00 0.14028484E+04</pdfrwt>
<totfact> 0.11139594E+00</totfact>
</mgrwt>
</event>
<event>
 4    1  0.2701205E-007  0.1012728E+04  0.7818608E-02  0.9365092E-01
          2   -1    0    0  501    0  0.00000000000E+00  0.00000000000E+00  0.96073852940E+03  0.96073852940E+03  0.25500000000E-02 0. -1.
         -2   -1    0    0    0  501 -0.00000000000E+00 -0.00000000000E+00 -0.11361944081E+04  0.11361944081E+04  0.25500000000E-02 0.  1.
    8880023    1    1    2    0    0 -0.53719575423E-01 -0.76929054314E+03  0.43581656376E+03  0.11025217577E+04  0.65864270000E+03 0. -1.
    8880022    1    1    2    0    0  0.53719575423E-01  0.76929054314E+03 -0.61127244250E+03  0.99441117986E+03  0.15294330000E+03 0.  0.
<mgrwt>
<rscale>  0 0.95005039E+03</rscale>
<asrwt>0</asrwt>
<pdfrwt beam="1">  1        2 0.14780593E+00 0.10127281E+04</pdfrwt>
<pdfrwt beam="2">  1       -2 0.17479914E+00 0.10127281E+04</pdfrwt>
<totfact> 0.52130626E+00</totfact>
</mgrwt>
</event>
<event>
 4    1  0.2701205E-007  0.7886809E+03  0.7818608E-02  0.9735827E-01
          2   -1    0    0  501    0  0.00000000000E+00  0.00000000000E+00  0.11439621805E+04  0.11439621805E+04  0.25500000000E-02 0. -1.
         -2   -1    0    0    0  501 -0.00000000000E+00 -0.00000000000E+00 -0.50304672105E+03  0.50304672105E+03  0.25500000000E-02 0.  1.
    8880023    1    1    2    0    0  0.34332341093E+03  0.26520998216E+03  0.83424555698E+03  0.11480344745E+04  0.65864270000E+03 0. -1.
    8880022    1    1    2    0    0 -0.34332341093E+03 -0.26520998216E+03 -0.19333009757E+03  0.49897442697E+03  0.15294330000E+03 0.  0.
<mgrwt>
<rscale>  0 0.68923158E+03</rscale>
<asrwt>0</asrwt>
<pdfrwt beam="1">  1        2 0.17599418E+00 0.78868086E+03</pdfrwt>
<pdfrwt beam="2">  1       -2 0.77391804E-01 0.78868086E+03</pdfrwt>
<totfact> 0.30913213E+01</totfact>
</mgrwt>
</event>
<event>
 4    1  0.2701205E-007  0.8787366E+03  0.7818608E-02  0.9561066E-01
         -2   -1    0    0    0  501 -0.00000000000E+00  0.00000000000E+00  0.15548129545E+03  0.15548129547E+03  0.25500000000E-02 0.  1.
          2   -1    0    0  501    0  0.00000000000E+00 -0.00000000000E+00 -0.40267922858E+04  0.40267922858E+04  0.25500000000E-02 0. -1.
    8880023    1    1    2    0    0  0.70881955854E+02 -0.57735913890E+03 -0.29811406720E+04  0.31079539474E+04  0.65864270000E+03 0. -1.
    8880022    1    1    2    0    0 -0.70881955854E+02  0.57735913890E+03 -0.89017031837E+03  0.10743196338E+04  0.15294330000E+03 0.  0.
<mgrwt>
<rscale>  0 0.79927556E+03</rscale>
<asrwt>0</asrwt>
<pdfrwt beam="1">  1        2 0.61950643E+00 0.87873661E+03</pdfrwt>
<pdfrwt beam="2">  1       -2 0.23920202E-01 0.87873661E+03</pdfrwt>
<totfact> 0.54405847E+00</totfact>
</mgrwt>
</event>
<event>
 4    1  0.2701205E-007  0.8402885E+03  0.7818608E-02  0.9629637E-01
          2   -1    0    0  501    0  0.00000000000E+00  0.00000000000E+00  0.20607364378E+04  0.20607364378E+04  0.25500000000E-02 0. -1.
         -2   -1    0    0    0  501 -0.00000000000E+00 -0.00000000000E+00 -0.27968778679E+03  0.27968778680E+03  0.25500000000E-02 0.  1.
    8880023    1    1    2    0    0  0.49429910016E+03 -0.16716133266E+03  0.15210210032E+04  0.17376966392E+04  0.65864270000E+03 0.  0.
    8880022    1    1    2    0    0 -0.49429910016E+03  0.16716133266E+03  0.26002764784E+03  0.60272758541E+03  0.15294330000E+03 0.  0.
<mgrwt>
<rscale>  0 0.75365313E+03</rscale>
<asrwt>0</asrwt>
<pdfrwt beam="1">  1        2 0.31703636E+00 0.84028847E+03</pdfrwt>
<pdfrwt beam="2">  1       -2 0.43028892E-01 0.84028847E+03</pdfrwt>
<totfact> 0.32342978E+01</totfact>
</mgrwt>
</event>
<event>
 4    1  0.2701205E-007  0.7721363E+03  0.7818608E-02  0.9774644E-01
          2   -1    0    0  501    0  0.00000000000E+00  0.00000000000E+00  0.20589509020E+04  0.20589509020E+04  0.25500000000E-02 0. -1.
         -2   -1    0    0    0  501 -0.00000000000E+00 -0.00000000000E+00 -0.49413385459E+03  0.49413385460E+03  0.25500000000E-02 0.  1.
    8880023    1    1    2    0    0  0.11420689541E+02  0.40280751132E+03  0.18712130647E+04  0.20242610659E+04  0.65864270000E+03 0. -1.
    8880022    1    1    2    0    0 -0.11420689541E+02 -0.40280751132E+03 -0.30639601732E+03  0.52882369063E+03  0.15294330000E+03 0.  0.
<mgrwt>
<rscale>  0 0.66741227E+03</rscale>
<asrwt>0</asrwt>
<pdfrwt beam="1">  1        2 0.31676167E+00 0.77213634E+03</pdfrwt>
<pdfrwt beam="2">  1       -2 0.76020595E-01 0.77213634E+03</pdfrwt>
<totfact> 0.99191597E+00</totfact>
</mgrwt>
</event>
<event>
 4    1  0.2701205E-007  0.1124489E+04  0.7818608E-02  0.9234269E-01
          2   -1    0    0  501    0  0.00000000000E+00  0.00000000000E+00  0.18094243456E+04  0.18094243456E+04  0.25500000000E-02 0. -1.
         -2   -1    0    0    0  501 -0.00000000000E+00 -0.00000000000E+00 -0.93491216850E+03  0.93491216851E+03  0.25500000000E-02 0.  1.
    8880023    1    1    2    0    0 -0.91075138846E+03 -0.34589934209E+02  0.13068592324E+04  0.17240521497E+04  0.65864270000E+03 0.  0.
    8880022    1    1    2    0    0  0.91075138846E+03  0.34589934209E+02 -0.43234705531E+03  0.10202843645E+04  0.15294330000E+03 0.  0.
<mgrwt>
<rscale>  0 0.10706613E+04</rscale>
<asrwt>0</asrwt>
<pdfrwt beam="1">  1        2 0.27837297E+00 0.11244887E+04</pdfrwt>
<pdfrwt beam="2">  1       -2 0.14383264E+00 0.11244887E+04</pdfrwt>
<totfact> 0.27991594E+00</totfact>
</mgrwt>
</event>
<event>
 4    1  0.2701205E-007  0.8014938E+03  0.7818608E-02  0.9707575E-01
          2   -1    0    0  501    0  0.00000000000E+00  0.00000000000E+00  0.17548795112E+04  0.17548795113E+04  0.25500000000E-02 0. -1.
         -2   -1    0    0    0  501 -0.00000000000E+00 -0.00000000000E+00 -0.10517493012E+04  0.10517493012E+04  0.25500000000E-02 0.  1.
    8880023    1    1    2    0    0  0.16062480739E+03  0.42752991968E+03  0.15994892840E+04  0.17890663311E+04  0.65864270000E+03 0.  0.
    8880022    1    1    2    0    0 -0.16062480739E+03 -0.42752991968E+03 -0.89635907401E+03  0.10175624814E+04  0.15294330000E+03 0.  0.
<mgrwt>
<rscale>  0 0.70567545E+03</rscale>
<asrwt>0</asrwt>
<pdfrwt beam="1">  1        2 0.26998146E+00 0.80149383E+03</pdfrwt>
<pdfrwt beam="2">  1       -2 0.16180758E+00 0.80149383E+03</pdfrwt>
<totfact> 0.22866570E+00</totfact>
</mgrwt>
</event>
<event>
 4    1  0.2701205E-007  0.7790173E+03  0.7818608E-02  0.9758150E-01
         -2   -1    0    0    0  501 -0.00000000000E+00  0.00000000000E+00  0.66477269538E+03  0.66477269538E+03  0.25500000000E-02 0.  1.
          2   -1    0    0  501    0  0.00000000000E+00 -0.00000000000E+00 -0.97486718746E+03  0.97486718746E+03  0.25500000000E-02 0. -1.
    8880023    1    1    2    0    0  0.28679674887E+03  0.30133937939E+03 -0.70150893144E+03  0.10483237973E+04  0.65864270000E+03 0. -1.
    8880022    1    1    2    0    0 -0.28679674887E+03 -0.30133937939E+03  0.39141443935E+03  0.59131608559E+03  0.15294330000E+03 0.  0.
<mgrwt>
<rscale>  0 0.67657616E+03</rscale>
<asrwt>0</asrwt>
<pdfrwt beam="1">  1        2 0.14997957E+00 0.77901733E+03</pdfrwt>
<pdfrwt beam="2">  1       -2 0.10227272E+00 0.77901733E+03</pdfrwt>
<totfact> 0.20744696E+01</totfact>
</mgrwt>
</event>
<event>
 4    1  0.2701205E-007  0.1407839E+04  0.7818608E-02  0.8977616E-01
          2   -1    0    0  501    0  0.00000000000E+00  0.00000000000E+00  0.15893469644E+04  0.15893469644E+04  0.25500000000E-02 0. -1.
         -2   -1    0    0    0  501 -0.00000000000E+00 -0.00000000000E+00 -0.11861876136E+04  0.11861876136E+04  0.25500000000E-02 0.  1.
    8880023    1    1    2    0    0 -0.40565324730E+03  0.11762844955E+04 -0.12877821136E+03  0.14137163101E+04  0.65864270000E+03 0.  0.
    8880022    1    1    2    0    0  0.40565324730E+03 -0.11762844955E+04  0.53193756216E+03  0.13618182678E+04  0.15294330000E+03 0.  0.
<mgrwt>
<rscale>  0 0.13675939E+04</rscale>
<asrwt>0</asrwt>
<pdfrwt beam="1">  1        2 0.24451492E+00 0.14078388E+04</pdfrwt>
<pdfrwt beam="2">  1       -2 0.18249040E+00 0.14078388E+04</pdfrwt>
<totfact> 0.18734464E+00</totfact>
</mgrwt>
</event>
<event>
 4    1  0.2701205E-007  0.1953525E+04  0.7818608E-02  0.8642052E-01
          2   -1    0    0  501    0  0.00000000000E+00  0.00000000000E+00  0.38433237472E+04  0.38433237472E+04  0.25500000000E-02 0. -1.
         -2   -1    0    0    0  501 -0.00000000000E+00 -0.00000000000E+00 -0.10623724855E+04  0.10623724855E+04  0.25500000000E-02 0.  1.
    8880023    1    1    2    0    0  0.96062718433E+03  0.15683251405E+04  0.22616540987E+04  0.29885343903E+04  0.65864270000E+03 0.  0.
    8880022    1    1    2    0    0 -0.96062718433E+03 -0.15683251405E+04  0.51929716295E+03  0.19171618424E+04  0.15294330000E+03 0.  0.
<mgrwt>
<rscale>  0 0.19259376E+04</rscale>
<asrwt>0</asrwt>
<pdfrwt beam="1">  1        2 0.59128057E+00 0.19535246E+04</pdfrwt>
<pdfrwt beam="2">  1       -2 0.16344192E+00 0.19535246E+04</pdfrwt>
<totfact> 0.97952018E-02</totfact>
</mgrwt>
</event>
<event>
 4    1  0.2701205E-007  0.1680804E+04  0.7818608E-02  0.8791505E-01
          2   -1    0    0  501    0  0.00000000000E+00  0.00000000000E+00  0.38938978920E+04  0.38938978920E+04  0.25500000000E-02 0. -1.
         -2   -1    0    0    0  501 -0.00000000000E+00 -0.00000000000E+00 -0.11617327187E+04  0.11617327187E+04  0.25500000000E-02 0.  1.
    8880023    1    1    2    0    0 -0.15416434634E+04 -0.12093817969E+03  0.30379343209E+04  0.34719080857E+04  0.65864270000E+03 0. -1.
    8880022    1    1    2    0    0  0.15416434634E+04  0.12093817969E+03 -0.30576914751E+03  0.15837225250E+04  0.15294330000E+03 0.  0.
<mgrwt>
<rscale>  0 0.16481443E+04</rscale>
<asrwt>0</asrwt>
<pdfrwt beam="1">  1        2 0.59906122E+00 0.16808036E+04</pdfrwt>
<pdfrwt beam="2">  1       -2 0.17872811E+00 0.16808036E+04</pdfrwt>
<totfact> 0.71741567E-02</totfact>
</mgrwt>
</event>
<event>
 4    1  0.2701205E-007  0.1050548E+04  0.7818608E-02  0.9318223E-01
         -2   -1    0    0    0  501 -0.00000000000E+00  0.00000000000E+00  0.27974324026E+04  0.27974324026E+04  0.25500000000E-02 0.  1.
          2   -1    0    0  501    0  0.00000000000E+00 -0.00000000000E+00 -0.17572249686E+04  0.17572249686E+04  0.25500000000E-02 0. -1.
    8880023    1    1    2    0    0  0.43571740492E+03 -0.69281442066E+03 -0.15283126001E+04  0.18545595402E+04  0.65864270000E+03 0. -1.
    8880022    1    1    2    0    0 -0.43571740492E+03  0.69281442066E+03  0.25685200341E+04  0.27000978310E+04  0.15294330000E+03 0.  0.
<mgrwt>
<rscale>  0 0.99122427E+03</rscale>
<asrwt>0</asrwt>
<pdfrwt beam="1">  1        2 0.27034230E+00 0.10505483E+04</pdfrwt>
<pdfrwt beam="2">  1       -2 0.43037421E+00 0.10505483E+04</pdfrwt>
<totfact> 0.43147595E-02</totfact>
</mgrwt>
</event>
<event>
 4    1  0.2701205E-007  0.1295227E+04  0.7818608E-02  0.9069693E-01
         -2   -1    0    0    0  501 -0.00000000000E+00  0.00000000000E+00  0.86641805981E+03  0.86641805982E+03  0.25500000000E-02 0.  1.
          2   -1    0    0  501    0  0.00000000000E+00 -0.00000000000E+00 -0.19409558957E+04  0.19409558957E+04  0.25500000000E-02 0. -1.
    8880023    1    1    2    0    0 -0.93022476202E+03 -0.61521106468E+03 -0.67523591763E+02  0.12969858919E+04  0.65864270000E+03 0.  0.
    8880022    1    1    2    0    0  0.93022476202E+03  0.61521106468E+03 -0.10070142442E+04  0.15103880637E+04  0.15294330000E+03 0.  0.
<mgrwt>
<rscale>  0 0.12505896E+04</rscale>
<asrwt>0</asrwt>
<pdfrwt beam="1">  1        2 0.29860860E+00 0.12952270E+04</pdfrwt>
<pdfrwt beam="2">  1       -2 0.13329509E+00 0.12952270E+04</pdfrwt>
<totfact> 0.28340624E+00</totfact>
</mgrwt>
</event>
<event>
 4    1  0.2701205E-007  0.1079072E+04  0.7818608E-02  0.9284722E-01
          2   -1    0    0  501    0  0.00000000000E+00  0.00000000000E+00  0.10775412261E+04  0.10775412261E+04  0.25500000000E-02 0. -1.
         -2   -1    0    0    0  501 -0.00000000000E+00 -0.00000000000E+00 -0.13367757729E+04  0.13367757729E+04  0.25500000000E-02 0.  1.
    8880023    1    1    2    0    0 -0.46668163074E+03  0.71609712837E+03  0.56417917336E+03  0.12176597175E+04  0.65864270000E+03 0.  0.
    8880022    1    1    2    0    0  0.46668163074E+03 -0.71609712837E+03 -0.82341372013E+03  0.11966572815E+04  0.15294330000E+03 0.  0.
<mgrwt>
<rscale>  0 0.10220162E+04</rscale>
<asrwt>0</asrwt>
<pdfrwt beam="1">  1        2 0.16577557E+00 0.10790723E+04</pdfrwt>
<pdfrwt beam="2">  1       -2 0.20565781E+00 0.10790723E+04</pdfrwt>
<totfact> 0.27035811E+00</totfact>
</mgrwt>
</event>
<event>
 4    1  0.2701205E-007  0.7290027E+03  0.7818608E-02  0.9893224E-01
          2   -1    0    0  501    0  0.00000000000E+00  0.00000000000E+00  0.33689767975E+04  0.33689767975E+04  0.25500000000E-02 0. -1.
         -2   -1    0    0    0  501 -0.00000000000E+00 -0.00000000000E+00 -0.32433185298E+03  0.32433185299E+03  0.25500000000E-02 0.  1.
    8880023    1    1    2    0    0  0.31203889247E+03 -0.16322179259E+02  0.32215649834E+04  0.33030176858E+04  0.65864270000E+03 0. -1.
    8880022    1    1    2    0    0 -0.31203889247E+03  0.16322179259E+02 -0.17692003890E+03  0.39029096470E+03  0.15294330000E+03 0.  0.
<mgrwt>
<rscale>  0 0.60590819E+03</rscale>
<asrwt>0</asrwt>
<pdfrwt beam="1">  1        2 0.51830411E+00 0.72900267E+03</pdfrwt>
<pdfrwt beam="2">  1       -2 0.49897210E-01 0.72900267E+03</pdfrwt>
<totfact> 0.41255324E+00</totfact>
</mgrwt>
</event>
<event>
 4    1  0.2701205E-007  0.1358897E+04  0.7818608E-02  0.9016298E-01
         -2   -1    0    0    0  501 -0.00000000000E+00  0.00000000000E+00  0.18331890880E+04  0.18331890880E+04  0.25500000000E-02 0.  1.
          2   -1    0    0  501    0  0.00000000000E+00 -0.00000000000E+00 -0.19643354347E+04  0.19643354347E+04  0.25500000000E-02 0. -1.
    8880023    1    1    2    0    0  0.78459310964E+03  0.89286271634E+03 -0.14691812542E+04  0.20012730803E+04  0.65864270000E+03 0.  0.
    8880022    1    1    2    0    0 -0.78459310964E+03 -0.89286271634E+03  0.13380349075E+04  0.17962514425E+04  0.15294330000E+03 0.  0.
<mgrwt>
<rscale>  0 0.13168643E+04</rscale>
<asrwt>0</asrwt>
<pdfrwt beam="1">  1        2 0.30220545E+00 0.13588968E+04</pdfrwt>
<pdfrwt beam="2">  1       -2 0.28202909E+00 0.13588968E+04</pdfrwt>
<totfact> 0.27310143E-01</totfact>
</mgrwt>
</event>
<event>
 4    1  0.2701205E-007  0.8198580E+03  0.7818608E-02  0.9669397E-01
          2   -1    0    0  501    0  0.00000000000E+00  0.00000000000E+00  0.13594440592E+04  0.13594440592E+04  0.25500000000E-02 0. -1.
         -2   -1    0    0    0  501 -0.00000000000E+00 -0.00000000000E+00 -0.53410655211E+03  0.53410655211E+03  0.25500000000E-02 0.  1.
    8880023    1    1    2    0    0  0.48112782856E+03  0.82903269150E+02  0.10521943582E+04  0.13338965901E+04  0.65864270000E+03 0.  0.
    8880022    1    1    2    0    0 -0.48112782856E+03 -0.82903269150E+02 -0.22685685115E+03  0.55965402115E+03  0.15294330000E+03 0.  0.
<mgrwt>
<rscale>  0 0.72868449E+03</rscale>
<asrwt>0</asrwt>
<pdfrwt beam="1">  1        2 0.20914524E+00 0.81985800E+03</pdfrwt>
<pdfrwt beam="2">  1       -2 0.82170238E-01 0.81985800E+03</pdfrwt>
<totfact> 0.20138466E+01</totfact>
</mgrwt>
</event>
<event>
 4    1  0.2701205E-007  0.8351233E+03  0.7818608E-02  0.9639445E-01
          2   -1    0    0  501    0  0.00000000000E+00  0.00000000000E+00  0.18719022429E+04  0.18719022429E+04  0.25500000000E-02 0. -1.
         -2   -1    0    0    0  501 -0.00000000000E+00 -0.00000000000E+00 -0.38221540281E+03  0.38221540282E+03  0.25500000000E-02 0.  1.
    8880023    1    1    2    0    0  0.50686092756E+03 -0.81931526704E+02  0.15016483224E+04  0.17182487204E+04  0.65864270000E+03 0. -1.
    8880022    1    1    2    0    0 -0.50686092756E+03  0.81931526704E+02 -0.11961482335E+02  0.53586892523E+03  0.15294330000E+03 0.  0.
<mgrwt>
<rscale>  0 0.74739562E+03</rscale>
<asrwt>0</asrwt>
<pdfrwt beam="1">  1        2 0.28798495E+00 0.83512333E+03</pdfrwt>
<pdfrwt beam="2">  1       -2 0.58802371E-01 0.83512333E+03</pdfrwt>
<totfact> 0.21700123E+01</totfact>
</mgrwt>
</event>
<event>
 4    1  0.2701205E-007  0.9744287E+03  0.7818608E-02  0.9415805E-01
          2   -1    0    0  501    0  0.00000000000E+00  0.00000000000E+00  0.12755163365E+04  0.12755163365E+04  0.25500000000E-02 0. -1.
         -2   -1    0    0    0  501 -0.00000000000E+00 -0.00000000000E+00 -0.11541269956E+04  0.11541269956E+04  0.25500000000E-02 0.  1.
    8880023    1    1    2    0    0 -0.60679899322E+03  0.38405212009E+03  0.92329354113E+03  0.13423793124E+04  0.65864270000E+03 0. -1.
    8880022    1    1    2    0    0  0.60679899322E+03 -0.38405212009E+03 -0.80190420018E+03  0.10872640196E+04  0.15294330000E+03 0. -1.
<mgrwt>
<rscale>  0 0.90786333E+03</rscale>
<asrwt>0</asrwt>
<pdfrwt beam="1">  1        2 0.19623328E+00 0.97442868E+03</pdfrwt>
<pdfrwt beam="2">  1       -2 0.17755800E+00 0.97442868E+03</pdfrwt>
<totfact> 0.32039897E+00</totfact>
</mgrwt>
</event>
<event>
 4    1  0.2701205E-007  0.1002075E+04  0.7818608E-02  0.9378848E-01
          2   -1    0    0  501    0  0.00000000000E+00  0.00000000000E+00  0.11022301590E+04  0.11022301590E+04  0.25500000000E-02 0. -1.
         -2   -1    0    0    0  501 -0.00000000000E+00 -0.00000000000E+00 -0.17072293109E+04  0.17072293109E+04  0.25500000000E-02 0.  1.
    8880023    1    1    2    0    0 -0.43694398666E+03  0.61597363099E+03  0.74934002721E+03  0.12512650575E+04  0.65864270000E+03 0.  0.
    8880022    1    1    2    0    0  0.43694398666E+03 -0.61597363099E+03 -0.13543391791E+04  0.15581944123E+04  0.15294330000E+03 0.  0.
<mgrwt>
<rscale>  0 0.93837015E+03</rscale>
<asrwt>0</asrwt>
<pdfrwt beam="1">  1        2 0.16957387E+00 0.10020747E+04</pdfrwt>
<pdfrwt beam="2">  1       -2 0.26265066E+00 0.10020747E+04</pdfrwt>
<totfact> 0.11650772E+00</totfact>
</mgrwt>
</event>
<event>
 4    1  0.2701205E-007  0.1100345E+04  0.7818608E-02  0.9260672E-01
         -2   -1    0    0    0  501 -0.00000000000E+00  0.00000000000E+00  0.37947460205E+03  0.37947460206E+03  0.25500000000E-02 0.  1.
          2   -1    0    0  501    0  0.00000000000E+00 -0.00000000000E+00 -0.32525260296E+04  0.32525260296E+04  0.25500000000E-02 0. -1.
    8880023    1    1    2    0    0  0.76920038859E+03  0.43044179487E+03 -0.23521037311E+04  0.25967578910E+04  0.65864270000E+03 0.  0.
    8880022    1    1    2    0    0 -0.76920038859E+03 -0.43044179487E+03 -0.52094769649E+03  0.10352427407E+04  0.15294330000E+03 0.  0.
<mgrwt>
<rscale>  0 0.10448552E+04</rscale>
<asrwt>0</asrwt>
<pdfrwt beam="1">  1        2 0.50038860E+00 0.11003452E+04</pdfrwt>
<pdfrwt beam="2">  1       -2 0.58380710E-01 0.11003452E+04</pdfrwt>
<totfact> 0.33346720E+00</totfact>
</mgrwt>
</event>
<event>
 4    1  0.2701205E-007  0.7863687E+03  0.7818608E-02  0.9741084E-01
         -2   -1    0    0    0  501 -0.00000000000E+00  0.00000000000E+00  0.37194795191E+03  0.37194795191E+03  0.25500000000E-02 0.  1.
          2   -1    0    0  501    0  0.00000000000E+00 -0.00000000000E+00 -0.18404757577E+04  0.18404757577E+04  0.25500000000E-02 0. -1.
    8880023    1    1    2    0    0  0.38318963717E+03  0.19424525844E+03 -0.15602994925E+04  0.17472579177E+04  0.65864270000E+03 0.  0.
    8880022    1    1    2    0    0 -0.38318963717E+03 -0.19424525844E+03  0.91771686704E+02  0.46516579190E+03  0.15294330000E+03 0.  0.
<mgrwt>
<rscale>  0 0.68622479E+03</rscale>
<asrwt>0</asrwt>
<pdfrwt beam="1">  1        2 0.28315011E+00 0.78636870E+03</pdfrwt>
<pdfrwt beam="2">  1       -2 0.57222763E-01 0.78636870E+03</pdfrwt>
<totfact> 0.24045202E+01</totfact>
</mgrwt>
</event>
<event>
 4    1  0.2701205E-007  0.2633561E+04  0.7818608E-02  0.8363611E-01
          2   -1    0    0  501    0  0.00000000000E+00  0.00000000000E+00  0.43206981606E+04  0.43206981606E+04  0.25500000000E-02 0. -1.
         -2   -1    0    0    0  501 -0.00000000000E+00 -0.00000000000E+00 -0.26096976795E+04  0.26096976795E+04  0.25500000000E-02 0.  1.
    8880023    1    1    2    0    0 -0.18679080401E+04 -0.17357281118E+04  0.30635805217E+04  0.40399465769E+04  0.65864270000E+03 0.  0.
    8880022    1    1    2    0    0  0.18679080401E+04  0.17357281118E+04 -0.13525800406E+04  0.28904492633E+04  0.15294330000E+03 0.  0.
<mgrwt>
<rscale>  0 0.26135568E+04</rscale>
<asrwt>0</asrwt>
<pdfrwt beam="1">  1        2 0.66472278E+00 0.26335608E+04</pdfrwt>
<pdfrwt beam="2">  1       -2 0.40149196E+00 0.26335608E+04</pdfrwt>
<totfact> 0.10768035E-03</totfact>
</mgrwt>
</event>
<event>
 4    1  0.2701205E-007  0.1432814E+04  0.7818608E-02  0.8958596E-01
         -2   -1    0    0    0  501 -0.00000000000E+00  0.00000000000E+00  0.25227668681E+04  0.25227668681E+04  0.25500000000E-02 0.  1.
          2   -1    0    0  501    0  0.00000000000E+00 -0.00000000000E+00 -0.12422862122E+04  0.12422862122E+04  0.25500000000E-02 0. -1.
    8880023    1    1    2    0    0 -0.12390992100E+04  0.28944403852E+03 -0.54639357604E+03  0.15334604168E+04  0.65864270000E+03 0.  0.
    8880022    1    1    2    0    0  0.12390992100E+04 -0.28944403852E+03  0.18268742319E+04  0.22315926635E+04  0.15294330000E+03 0.  0.
<mgrwt>
<rscale>  0 0.13934188E+04</rscale>
<asrwt>0</asrwt>
<pdfrwt beam="1">  1        2 0.19112096E+00 0.14328136E+04</pdfrwt>
<pdfrwt beam="2">  1       -2 0.38811798E+00 0.14328136E+04</pdfrwt>
<totfact> 0.15118603E-01</totfact>
</mgrwt>
</event>
<event>
 4    1  0.2701205E-007  0.1311298E+04  0.7818608E-02  0.9055864E-01
          2   -1    0    0  501    0  0.00000000000E+00  0.00000000000E+00  0.23859937091E+04  0.23859937091E+04  0.25500000000E-02 0. -1.
         -2   -1    0    0    0  501 -0.00000000000E+00 -0.00000000000E+00 -0.11407184717E+04  0.11407184717E+04  0.25500000000E-02 0.  1.
    8880023    1    1    2    0    0 -0.10046678589E+04 -0.52567578029E+03  0.18224850999E+04  0.22452070458E+04  0.65864270000E+03 0. -1.
    8880022    1    1    2    0    0  0.10046678589E+04  0.52567578029E+03 -0.57720986249E+03  0.12815051350E+04  0.15294330000E+03 0.  0.
<mgrwt>
<rscale>  0 0.12673513E+04</rscale>
<asrwt>0</asrwt>
<pdfrwt beam="1">  1        2 0.36707595E+00 0.13112981E+04</pdfrwt>
<pdfrwt beam="2">  1       -2 0.17549515E+00 0.13112981E+04</pdfrwt>
<totfact> 0.75892164E-01</totfact>
</mgrwt>
</event>
<event>
 4    1  0.2701205E-007  0.1127495E+04  0.7818608E-02  0.9231044E-01
         -2   -1    0    0    0  501 -0.00000000000E+00  0.00000000000E+00  0.10474161483E+04  0.10474161483E+04  0.25500000000E-02 0.  1.
          2   -1    0    0  501    0  0.00000000000E+00 -0.00000000000E+00 -0.21398775676E+04  0.21398775676E+04  0.25500000000E-02 0. -1.
    8880023    1    1    2    0    0  0.68336003481E+02  0.91256002399E+03 -0.17275601249E+04  0.20629371774E+04  0.65864270000E+03 0. -1.
    8880022    1    1    2    0    0 -0.68336003481E+02 -0.91256002399E+03  0.63509870554E+03  0.11243565384E+04  0.15294330000E+03 0.  0.
<mgrwt>
<rscale>  0 0.10738672E+04</rscale>
<asrwt>0</asrwt>
<pdfrwt beam="1">  1        2 0.32921193E+00 0.11274954E+04</pdfrwt>
<pdfrwt beam="2">  1       -2 0.16114095E+00 0.11274954E+04</pdfrwt>
<totfact> 0.13545313E+00</totfact>
</mgrwt>
</event>
<event>
 4    1  0.2701205E-007  0.8169568E+03  0.7818608E-02  0.9675264E-01
         -2   -1    0    0    0  501 -0.00000000000E+00  0.00000000000E+00  0.60553955060E+03  0.60553955060E+03  0.25500000000E-02 0.  1.
          2   -1    0    0  501    0  0.00000000000E+00 -0.00000000000E+00 -0.14495650552E+04  0.14495650552E+04  0.25500000000E-02 0. -1.
    8880023    1    1    2    0    0 -0.46469087450E+03 -0.13293088565E+03 -0.11884913552E+04  0.14421962893E+04  0.65864270000E+03 0.  0.
    8880022    1    1    2    0    0  0.46469087450E+03  0.13293088565E+03  0.34446585060E+03  0.61290831651E+03  0.15294330000E+03 0.  0.
<mgrwt>
<rscale>  0 0.72508837E+03</rscale>
<asrwt>0</asrwt>
<pdfrwt beam="1">  1        2 0.22301001E+00 0.81695681E+03</pdfrwt>
<pdfrwt beam="2">  1       -2 0.93159931E-01 0.81695681E+03</pdfrwt>
<totfact> 0.13426187E+01</totfact>
</mgrwt>
</event>
<event>
 4    1  0.2701205E-007  0.1091492E+04  0.7818608E-02  0.9270588E-01
         -2   -1    0    0    0  501 -0.00000000000E+00  0.00000000000E+00  0.29293226549E+04  0.29293226549E+04  0.25500000000E-02 0.  1.
          2   -1    0    0  501    0  0.00000000000E+00 -0.00000000000E+00 -0.13833342034E+04  0.13833342034E+04  0.25500000000E-02 0. -1.
    8880023    1    1    2    0    0 -0.85565739227E+03 -0.15935978961E+03 -0.10839127379E+04  0.15382529522E+04  0.65864270000E+03 0. -1.
    8880022    1    1    2    0    0  0.85565739227E+03  0.15935978961E+03  0.26299011894E+04  0.27744039061E+04  0.15294330000E+03 0.  0.
<mgrwt>
<rscale>  0 0.10353626E+04</rscale>
<asrwt>0</asrwt>
<pdfrwt beam="1">  1        2 0.21282065E+00 0.10914922E+04</pdfrwt>
<pdfrwt beam="2">  1       -2 0.45066503E+00 0.10914922E+04</pdfrwt>
<totfact> 0.50877633E-02</totfact>
</mgrwt>
</event>
<event>
 4    1  0.2701205E-007  0.1364554E+04  0.7818608E-02  0.9011727E-01
         -2   -1    0    0    0  501 -0.00000000000E+00  0.00000000000E+00  0.89324904598E+03  0.89324904599E+03  0.25500000000E-02 0.  1.
          2   -1    0    0  501    0  0.00000000000E+00 -0.00000000000E+00 -0.29098340665E+04  0.29098340665E+04  0.25500000000E-02 0. -1.
    8880023    1    1    2    0    0 -0.93836208209E+03  0.74004913553E+03 -0.21955524871E+04  0.25850448835E+04  0.65864270000E+03 0.  0.
    8880022    1    1    2    0    0  0.93836208209E+03 -0.74004913553E+03  0.17896746656E+03  0.12180382290E+04  0.15294330000E+03 0.  0.
<mgrwt>
<rscale>  0 0.13227365E+04</rscale>
<asrwt>0</asrwt>
<pdfrwt beam="1">  1        2 0.44766678E+00 0.13645535E+04</pdfrwt>
<pdfrwt beam="2">  1       -2 0.13742293E+00 0.13645535E+04</pdfrwt>
<totfact> 0.71972004E-01</totfact>
</mgrwt>
</event>
<event>
 4    1  0.2701205E-007  0.9598868E+03  0.7818608E-02  0.9436030E-01
         -2   -1    0    0    0  501 -0.00000000000E+00  0.00000000000E+00  0.12004017814E+04  0.12004017814E+04  0.25500000000E-02 0.  1.
          2   -1    0    0  501    0  0.00000000000E+00 -0.00000000000E+00 -0.61978687699E+03  0.61978687700E+03  0.25500000000E-02 0. -1.
    8880023    1    1    2    0    0  0.36559310978E+03  0.59490689185E+03  0.11418569421E+03  0.96665459753E+03  0.65864270000E+03 0.  0.
    8880022    1    1    2    0    0 -0.36559310978E+03 -0.59490689185E+03  0.46642921016E+03  0.85353406083E+03  0.15294330000E+03 0.  0.
<mgrwt>
<rscale>  0 0.89168987E+03</rscale>
<asrwt>0</asrwt>
<pdfrwt beam="1">  1        2 0.95351827E-01 0.95988684E+03</pdfrwt>
<pdfrwt beam="2">  1       -2 0.18467720E+00 0.95988684E+03</pdfrwt>
<totfact> 0.80040739E+00</totfact>
</mgrwt>
</event>
<event>
 4    1  0.2701205E-007  0.1032696E+04  0.7818608E-02  0.9339979E-01
         -2   -1    0    0    0  501 -0.00000000000E+00  0.00000000000E+00  0.81743172737E+03  0.81743172738E+03  0.25500000000E-02 0.  1.
          2   -1    0    0  501    0  0.00000000000E+00 -0.00000000000E+00 -0.25542652747E+04  0.25542652747E+04  0.25500000000E-02 0. -1.
    8880023    1    1    2    0    0  0.41263801010E+03 -0.67998534428E+03 -0.22059357294E+04  0.24356955565E+04  0.65864270000E+03 0.  0.
    8880022    1    1    2    0    0 -0.41263801010E+03  0.67998534428E+03  0.46910218205E+03  0.93600144553E+03  0.15294330000E+03 0.  1.
<mgrwt>
<rscale>  0 0.97184212E+03</rscale>
<asrwt>0</asrwt>
<pdfrwt beam="1">  1        2 0.39296388E+00 0.10326957E+04</pdfrwt>
<pdfrwt beam="2">  1       -2 0.12575873E+00 0.10326957E+04</pdfrwt>
<totfact> 0.15330888E+00</totfact>
</mgrwt>
</event>
<event>
 4    1  0.2701205E-007  0.1047375E+04  0.7818608E-02  0.9322043E-01
          2   -1    0    0  501    0  0.00000000000E+00  0.00000000000E+00  0.14324884819E+04  0.14324884819E+04  0.25500000000E-02 0. -1.
         -2   -1    0    0    0  501 -0.00000000000E+00 -0.00000000000E+00 -0.10737135879E+04  0.10737135879E+04  0.25500000000E-02 0.  1.
    8880023    1    1    2    0    0 -0.31524044681E+03  0.75087154180E+03  0.10079365380E+04  0.14535924059E+04  0.65864270000E+03 0. -1.
    8880022    1    1    2    0    0  0.31524044681E+03 -0.75087154180E+03 -0.64916164402E+03  0.10526096640E+04  0.15294330000E+03 0.  0.
<mgrwt>
<rscale>  0 0.98778588E+03</rscale>
<asrwt>0</asrwt>
<pdfrwt beam="1">  1        2 0.22038284E+00 0.10473752E+04</pdfrwt>
<pdfrwt beam="2">  1       -2 0.16518671E+00 0.10473752E+04</pdfrwt>
<totfact> 0.31574633E+00</totfact>
</mgrwt>
</event>
<event>
 4    1  0.2701205E-007  0.1292507E+04  0.7818608E-02  0.9072057E-01
          2   -1    0    0  501    0  0.00000000000E+00  0.00000000000E+00  0.19729811876E+04  0.19729811876E+04  0.25500000000E-02 0. -1.
         -2   -1    0    0    0  501 -0.00000000000E+00 -0.00000000000E+00 -0.11282644625E+04  0.11282644625E+04  0.25500000000E-02 0.  1.
    8880023    1    1    2    0    0 -0.80296962445E+03  0.76941855205E+03  0.13510810459E+04  0.18697580926E+04  0.65864270000E+03 0.  0.
    8880022    1    1    2    0    0  0.80296962445E+03 -0.76941855205E+03 -0.50636432082E+03  0.12314875576E+04  0.15294330000E+03 0.  0.
<mgrwt>
<rscale>  0 0.12477508E+04</rscale>
<asrwt>0</asrwt>
<pdfrwt beam="1">  1        2 0.30353556E+00 0.12925074E+04</pdfrwt>
<pdfrwt beam="2">  1       -2 0.17357915E+00 0.12925074E+04</pdfrwt>
<totfact> 0.13372654E+00</totfact>
</mgrwt>
</event>
<event>
 4    1  0.2701205E-007  0.6750131E+03  0.7818608E-02  0.1012298E+00
          2   -1    0    0  501    0  0.00000000000E+00  0.00000000000E+00  0.54193467689E+03  0.54193467689E+03  0.25500000000E-02 0. -1.
         -2   -1    0    0    0  501 -0.00000000000E+00 -0.00000000000E+00 -0.62890759104E+03  0.62890759104E+03  0.25500000000E-02 0.  1.
    8880023    1    1    2    0    0  0.13698968542E+03  0.55374493836E+02  0.29264276501E+03  0.73571903785E+03  0.65864270000E+03 0. -1.
    8880022    1    1    2    0    0 -0.13698968542E+03 -0.55374493836E+02 -0.37961567916E+03  0.43512323008E+03  0.15294330000E+03 0.  0.
<mgrwt>
<rscale>  0 0.50571458E+03</rscale>
<asrwt>0</asrwt>
<pdfrwt beam="1">  1        2 0.83374565E-01 0.67501312E+03</pdfrwt>
<pdfrwt beam="2">  1       -2 0.96755014E-01 0.67501312E+03</pdfrwt>
<totfact> 0.50891751E+01</totfact>
</mgrwt>
</event>
<event>
 4    1  0.2701205E-007  0.9869599E+03  0.7818608E-02  0.9398820E-01
         -2   -1    0    0    0  501 -0.00000000000E+00  0.00000000000E+00  0.12063912710E+04  0.12063912710E+04  0.25500000000E-02 0.  1.
          2   -1    0    0  501    0  0.00000000000E+00 -0.00000000000E+00 -0.22807183115E+04  0.22807183115E+04  0.25500000000E-02 0. -1.
    8880023    1    1    2    0    0  0.48238335318E+03 -0.55460433077E+03 -0.20386461327E+04  0.22649874004E+04  0.65864270000E+03 0. -1.
    8880022    1    1    2    0    0 -0.48238335318E+03  0.55460433077E+03  0.96431909233E+03  0.12221221821E+04  0.15294330000E+03 0.  0.
<mgrwt>
<rscale>  0 0.92172820E+03</rscale>
<asrwt>0</asrwt>
<pdfrwt beam="1">  1        2 0.35087974E+00 0.98695991E+03</pdfrwt>
<pdfrwt beam="2">  1       -2 0.18559866E+00 0.98695991E+03</pdfrwt>
<totfact> 0.77498352E-01</totfact>
</mgrwt>
</event>
<event>
 4    1  0.2701205E-007  0.6950441E+03  0.7818608E-02  0.1001842E+00
         -2   -1    0    0    0  501 -0.00000000000E+00  0.00000000000E+00  0.28624941679E+03  0.28624941680E+03  0.25500000000E-02 0.  1.
          2   -1    0    0  501    0  0.00000000000E+00 -0.00000000000E+00 -0.20067871760E+04  0.20067871760E+04  0.25500000000E-02 0. -1.
    8880023    1    1    2    0    0 -0.21468449347E+03  0.56450587782E+02 -0.18627916411E+04  0.19882351483E+04  0.65864270000E+03 0.  0.
    8880022    1    1    2    0    0  0.21468449347E+03 -0.56450587782E+02  0.14225388192E+03  0.30480144444E+03  0.15294330000E+03 0.  0.
<mgrwt>
<rscale>  0 0.54850045E+03</rscale>
<asrwt>0</asrwt>
<pdfrwt beam="1">  1        2 0.30873648E+00 0.69504410E+03</pdfrwt>
<pdfrwt beam="2">  1       -2 0.44038373E-01 0.69504410E+03</pdfrwt>
<totfact> 0.33675017E+01</totfact>
</mgrwt>
</event>
<event>
 4    1  0.2701205E-007  0.8238336E+03  0.7818608E-02  0.9661452E-01
          2   -1    0    0  501    0  0.00000000000E+00  0.00000000000E+00  0.62143938052E+03  0.62143938053E+03  0.25500000000E-02 0. -1.
         -2   -1    0    0    0  501 -0.00000000000E+00 -0.00000000000E+00 -0.22720292855E+04  0.22720292855E+04  0.25500000000E-02 0.  1.
    8880023    1    1    2    0    0  0.36789579582E+03 -0.33097471842E+03  0.29887157205E+03  0.87637092812E+03  0.65864270000E+03 0. -1.
    8880022    1    1    2    0    0 -0.36789579582E+03  0.33097471842E+03 -0.19494614770E+04  0.20170977379E+04  0.15294330000E+03 0.  0.
<mgrwt>
<rscale>  0 0.73359069E+03</rscale>
<asrwt>0</asrwt>
<pdfrwt beam="1">  1        2 0.95606060E-01 0.82383359E+03</pdfrwt>
<pdfrwt beam="2">  1       -2 0.34954296E+00 0.82383359E+03</pdfrwt>
<totfact> 0.77483211E-01</totfact>
</mgrwt>
</event>
<event>
 4    1  0.2701205E-007  0.8756065E+03  0.7818608E-02  0.9566384E-01
          2   -1    0    0  501    0  0.00000000000E+00  0.00000000000E+00  0.19548655851E+04  0.19548655851E+04  0.25500000000E-02 0. -1.
         -2   -1    0    0    0  501 -0.00000000000E+00 -0.00000000000E+00 -0.10212165721E+04  0.10212165721E+04  0.25500000000E-02 0.  1.
    8880023    1    1    2    0    0  0.45530456017E+02  0.57515525524E+03  0.17546790223E+04  0.19610163864E+04  0.65864270000E+03 0. -1.
    8880022    1    1    2    0    0 -0.45530456017E+02 -0.57515525524E+03 -0.82103000922E+03  0.10150657708E+04  0.15294330000E+03 0.  0.
<mgrwt>
<rscale>  0 0.79561669E+03</rscale>
<asrwt>0</asrwt>
<pdfrwt beam="1">  1        2 0.30074855E+00 0.87560653E+03</pdfrwt>
<pdfrwt beam="2">  1       -2 0.15711024E+00 0.87560653E+03</pdfrwt>
<totfact> 0.19023498E+00</totfact>
</mgrwt>
</event>
<event>
 4    1  0.2701205E-007  0.1845783E+04  0.7818608E-02  0.8697625E-01
         -2   -1    0    0    0  501 -0.00000000000E+00  0.00000000000E+00  0.17183945020E+04  0.17183945020E+04  0.25500000000E-02 0.  1.
          2   -1    0    0  501    0  0.00000000000E+00 -0.00000000000E+00 -0.30600500241E+04  0.30600500241E+04  0.25500000000E-02 0. -1.
    8880023    1    1    2    0    0 -0.15056681295E+03 -0.17176830180E+04  0.81102383700E+03  0.20161039621E+04  0.65864270000E+03 0.  0.
    8880022    1    1    2    0    0  0.15056681295E+03  0.17176830180E+04 -0.21526793591E+04  0.27623405640E+04  0.15294330000E+03 0.  0.
<mgrwt>
<rscale>  0 0.18164031E+04</rscale>
<asrwt>0</asrwt>
<pdfrwt beam="1">  1        2 0.47077693E+00 0.18457832E+04</pdfrwt>
<pdfrwt beam="2">  1       -2 0.26436839E+00 0.18457832E+04</pdfrwt>
<totfact> 0.75467154E-02</totfact>
</mgrwt>
</event>
<event>
 4    1  0.3287616E-007  0.8843275E+03  0.7818608E-02  0.9551674E-01
         -2   -1    0    0    0  501 -0.00000000000E+00  0.00000000000E+00  0.16620343485E+04  0.16620343485E+04  0.25500000000E-02 0.  1.
          2   -1    0    0  501    0  0.00000000000E+00 -0.00000000000E+00 -0.25452280675E+04  0.25452280675E+04  0.25500000000E-02 0. -1.
    8880023    1    1    2    0    0  0.30999269765E+03  0.50212490174E+03 -0.24079281604E+04  0.25651809140E+04  0.65864270000E+03 0.  0.
    8880022    1    1    2    0    0 -0.30999269765E+03 -0.50212490174E+03  0.15247344414E+04  0.16420815020E+04  0.15294330000E+03 0.  0.
<mgrwt>
<rscale>  0 0.80578972E+03</rscale>
<asrwt>0</asrwt>
<pdfrwt beam="1">  1        2 0.39157355E+00 0.88432748E+03</pdfrwt>
<pdfrwt beam="2">  1       -2 0.25569759E+00 0.88432748E+03</pdfrwt>
<totfact> 0.20149796E-01</totfact>
</mgrwt>
</event>
<event>
 4    1  0.2701205E-007  0.7490140E+03  0.7818608E-02  0.9834427E-01
          2   -1    0    0  501    0  0.00000000000E+00  0.00000000000E+00  0.34539241676E+04  0.34539241677E+04  0.25500000000E-02 0. -1.
         -2   -1    0    0    0  501 -0.00000000000E+00 -0.00000000000E+00 -0.23889676376E+03  0.23889676377E+03  0.25500000000E-02 0.  1.
    8880023    1    1    2    0    0  0.14446713861E+03  0.32609976973E+03  0.32187259013E+04  0.33047266828E+04  0.65864270000E+03 0. -1.
    8880022    1    1    2    0    0 -0.14446713861E+03 -0.32609976973E+03 -0.36984973770E+01  0.38809424867E+03  0.15294330000E+03 0.  0.
<mgrwt>
<rscale>  0 0.63547261E+03</rscale>
<asrwt>0</asrwt>
<pdfrwt beam="1">  1        2 0.53137290E+00 0.74901403E+03</pdfrwt>
<pdfrwt beam="2">  1       -2 0.36753352E-01 0.74901403E+03</pdfrwt>
<totfact> 0.65968689E+00</totfact>
</mgrwt>
</event>
<event>
 4    1  0.2701205E-007  0.7528694E+03  0.7818608E-02  0.9823930E-01
          2   -1    0    0  501    0  0.00000000000E+00  0.00000000000E+00  0.16114161675E+04  0.16114161675E+04  0.25500000000E-02 0. -1.
         -2   -1    0    0    0  501 -0.00000000000E+00 -0.00000000000E+00 -0.31731760510E+03  0.31731760511E+03  0.25500000000E-02 0.  1.
    8880023    1    1    2    0    0 -0.35266514570E+01 -0.36467756207E+03  0.13334573328E+04  0.15313134317E+04  0.65864270000E+03 0.  0.
    8880022    1    1    2    0    0  0.35266514570E+01  0.36467756207E+03 -0.39358770373E+02  0.39742034091E+03  0.15294330000E+03 0.  0.
<mgrwt>
<rscale>  0 0.64093973E+03</rscale>
<asrwt>0</asrwt>
<pdfrwt beam="1">  1        2 0.24791019E+00 0.75286942E+03</pdfrwt>
<pdfrwt beam="2">  1       -2 0.48818092E-01 0.75286942E+03</pdfrwt>
<totfact> 0.44690641E+01</totfact>
</mgrwt>
</event>
<event>
 4    1  0.2701205E-007  0.9283272E+03  0.7818608E-02  0.9482007E-01
          2   -1    0    0  501    0  0.00000000000E+00  0.00000000000E+00  0.92216058720E+03  0.92216058720E+03  0.25500000000E-02 0. -1.
         -2   -1    0    0    0  501 -0.00000000000E+00 -0.00000000000E+00 -0.11406999294E+04  0.11406999294E+04  0.25500000000E-02 0.  1.
    8880023    1    1    2    0    0 -0.38834113033E+03 -0.52647153424E+03  0.52033406405E+03  0.10642080879E+04  0.65864270000E+03 0. -1.
    8880022    1    1    2    0    0  0.38834113033E+03  0.52647153424E+03 -0.73887340622E+03  0.99865242868E+03  0.15294330000E+03 0.  0.
<mgrwt>
<rscale>  0 0.85623448E+03</rscale>
<asrwt>0</asrwt>
<pdfrwt beam="1">  1        2 0.14187086E+00 0.92832716E+03</pdfrwt>
<pdfrwt beam="2">  1       -2 0.17549230E+00 0.92832716E+03</pdfrwt>
<totfact> 0.55150224E+00</totfact>
</mgrwt>
</event>
<event>
 4    1  0.2701205E-007  0.9053297E+03  0.7818608E-02  0.9517529E-01
         -2   -1    0    0    0  501 -0.00000000000E+00  0.00000000000E+00  0.42524390903E+03  0.42524390904E+03  0.25500000000E-02 0.  1.
          2   -1    0    0  501    0  0.00000000000E+00 -0.00000000000E+00 -0.25764345404E+04  0.25764345404E+04  0.25500000000E-02 0. -1.
    8880023    1    1    2    0    0 -0.51355112538E+03 -0.34939514385E+03 -0.21808531822E+04  0.23613010256E+04  0.65864270000E+03 0. -1.
    8880022    1    1    2    0    0  0.51355112538E+03  0.34939514385E+03  0.29662550906E+02  0.64037742377E+03  0.15294330000E+03 0.  0.
<mgrwt>
<rscale>  0 0.83003707E+03</rscale>
<asrwt>0</asrwt>
<pdfrwt beam="1">  1        2 0.39637454E+00 0.90532974E+03</pdfrwt>
<pdfrwt beam="2">  1       -2 0.65422141E-01 0.90532974E+03</pdfrwt>
<totfact> 0.69399741E+00</totfact>
</mgrwt>
</event>
<event>
 4    1  0.2701205E-007  0.7542685E+03  0.7818608E-02  0.9820178E-01
         -2   -1    0    0    0  501 -0.00000000000E+00  0.00000000000E+00  0.13130630568E+04  0.13130630568E+04  0.25500000000E-02 0.  1.
          2   -1    0    0  501    0  0.00000000000E+00 -0.00000000000E+00 -0.26085994528E+03  0.26085994529E+03  0.25500000000E-02 0. -1.
    8880023    1    1    2    0    0  0.35644655081E+03  0.89758511264E+02  0.55229676867E+03  0.93485435276E+03  0.65864270000E+03 0. -1.
    8880022    1    1    2    0    0 -0.35644655081E+03 -0.89758511264E+02  0.49990634288E+03  0.63906864936E+03  0.15294330000E+03 0.  1.
<mgrwt>
<rscale>  0 0.64290817E+03</rscale>
<asrwt>0</asrwt>
<pdfrwt beam="1">  1        2 0.40132299E-01 0.75426848E+03</pdfrwt>
<pdfrwt beam="2">  1       -2 0.20200970E+00 0.75426848E+03</pdfrwt>
<totfact> 0.16837521E+01</totfact>
</mgrwt>
</event>
<event>
 4    1  0.2701205E-007  0.7092593E+03  0.7818608E-02  0.9960762E-01
          2   -1    0    0  501    0  0.00000000000E+00  0.00000000000E+00  0.71705114750E+03  0.71705114750E+03  0.25500000000E-02 0. -1.
         -2   -1    0    0    0  501 -0.00000000000E+00 -0.00000000000E+00 -0.73825259935E+03  0.73825259935E+03  0.25500000000E-02 0.  1.
    8880023    1    1    2    0    0 -0.22344992485E+03 -0.13895561381E+03  0.48880865745E+03  0.86138414276E+03  0.65864270000E+03 0.  0.
    8880022    1    1    2    0    0  0.22344992485E+03  0.13895561381E+03 -0.51001010930E+03  0.59391960410E+03  0.15294330000E+03 0.  0.
<mgrwt>
<rscale>  0 0.57404751E+03</rscale>
<asrwt>0</asrwt>
<pdfrwt beam="1">  1        2 0.11031556E+00 0.70925929E+03</pdfrwt>
<pdfrwt beam="2">  1       -2 0.11357732E+00 0.70925929E+03</pdfrwt>
<totfact> 0.24577509E+01</totfact>
</mgrwt>
</event>
<event>
 4    1  0.2701205E-007  0.9583674E+03  0.7818608E-02  0.9438176E-01
         -2   -1    0    0    0  501 -0.00000000000E+00  0.00000000000E+00  0.45635463200E+03  0.45635463201E+03  0.25500000000E-02 0.  1.
          2   -1    0    0  501    0  0.00000000000E+00 -0.00000000000E+00 -0.22617959478E+04  0.22617959478E+04  0.25500000000E-02 0. -1.
    8880023    1    1    2    0    0  0.54268458031E+03 -0.43606339128E+03 -0.22501717070E+03  0.98442915860E+03  0.65864270000E+03 0.  0.
    8880022    1    1    2    0    0 -0.54268458031E+03  0.43606339128E+03 -0.15804241451E+04  0.17337214212E+04  0.15294330000E+03 0.  0.
<mgrwt>
<rscale>  0 0.88999439E+03</rscale>
<asrwt>0</asrwt>
<pdfrwt beam="1">  1        2 0.34796860E+00 0.95836738E+03</pdfrwt>
<pdfrwt beam="2">  1       -2 0.70208406E-01 0.95836738E+03</pdfrwt>
<totfact> 0.89063220E+00</totfact>
</mgrwt>
</event>
<event>
 4    1  0.2701205E-007  0.1528959E+04  0.7818608E-02  0.8889453E-01
          2   -1    0    0  501    0  0.00000000000E+00  0.00000000000E+00  0.43940584926E+04  0.43940584926E+04  0.25500000000E-02 0. -1.
         -2   -1    0    0    0  501 -0.00000000000E+00 -0.00000000000E+00 -0.11959681709E+04  0.11959681709E+04  0.25500000000E-02 0.  1.
    8880023    1    1    2    0    0 -0.95909233265E+03  0.99199150695E+03 -0.52495576243E+03  0.16165685915E+04  0.65864270000E+03 0.  1.
    8880022    1    1    2    0    0  0.95909233265E+03 -0.99199150695E+03  0.37230460841E+04  0.39734580720E+04  0.15294330000E+03 0.  0.
<mgrwt>
<rscale>  0 0.14925038E+04</rscale>
<asrwt>0</asrwt>
<pdfrwt beam="1">  1        2 0.67600902E+00 0.15289589E+04</pdfrwt>
<pdfrwt beam="2">  1       -2 0.18399510E+00 0.15289589E+04</pdfrwt>
<totfact> 0.25415325E-02</totfact>
</mgrwt>
</event>
<event>
 4    1  0.2845162E-007  0.8398898E+03  0.7818608E-02  0.9630388E-01
          2   -1    0    0  501    0  0.00000000000E+00  0.00000000000E+00  0.16817366103E+04  0.16817366103E+04  0.25500000000E-02 0. -1.
         -2   -1    0    0    0  501 -0.00000000000E+00 -0.00000000000E+00 -0.13604717285E+04  0.13604717285E+04  0.25500000000E-02 0.  1.
    8880023    1    1    2    0    0  0.25384427443E+02 -0.52053845105E+03  0.15141512211E+04  0.17314932211E+04  0.65864270000E+03 0. -1.
    8880022    1    1    2    0    0 -0.25384427443E+02  0.52053845105E+03 -0.11928863393E+04  0.13107151177E+04  0.15294330000E+03 0.  0.
<mgrwt>
<rscale>  0 0.75317136E+03</rscale>
<asrwt>0</asrwt>
<pdfrwt beam="1">  1        2 0.25872871E+00 0.83988979E+03</pdfrwt>
<pdfrwt beam="2">  1       -2 0.20930334E+00 0.83988979E+03</pdfrwt>
<totfact> 0.11857890E+00</totfact>
</mgrwt>
</event>
<event>
 4    1  0.2701205E-007  0.1556808E+04  0.7818608E-02  0.8870530E-01
         -2   -1    0    0    0  501 -0.00000000000E+00  0.00000000000E+00  0.15575830343E+04  0.15575830343E+04  0.25500000000E-02 0.  1.
          2   -1    0    0  501    0  0.00000000000E+00 -0.00000000000E+00 -0.22830541811E+04  0.22830541811E+04  0.25500000000E-02 0. -1.
    8880023    1    1    2    0    0 -0.14083848172E+04  0.79319657069E+02 -0.15522560199E+04  0.21984422573E+04  0.65864270000E+03 0. -1.
    8880022    1    1    2    0    0  0.14083848172E+04 -0.79319657069E+02  0.82678487307E+03  0.16421949582E+04  0.15294330000E+03 0.  0.
<mgrwt>
<rscale>  0 0.15211179E+04</rscale>
<asrwt>0</asrwt>
<pdfrwt beam="1">  1        2 0.35123911E+00 0.15568075E+04</pdfrwt>
<pdfrwt beam="2">  1       -2 0.23962816E+00 0.15568075E+04</pdfrwt>
<totfact> 0.32153911E-01</totfact>
</mgrwt>
</event>
<event>
 4    1  0.2736236E-007  0.1076495E+04  0.7818608E-02  0.9287688E-01
         -2   -1    0    0    0  501 -0.00000000000E+00  0.00000000000E+00  0.10865617550E+04  0.10865617550E+04  0.25500000000E-02 0.  1.
          2   -1    0    0  501    0  0.00000000000E+00 -0.00000000000E+00 -0.19646821121E+04  0.19646821121E+04  0.25500000000E-02 0. -1.
    8880023    1    1    2    0    0 -0.84967275162E+03  0.55565660939E+02 -0.15973312728E+04  0.19262161688E+04  0.65864270000E+03 0.  0.
    8880022    1    1    2    0    0  0.84967275162E+03 -0.55565660939E+02  0.71921091572E+03  0.11250276982E+04  0.15294330000E+03 0.  0.
<mgrwt>
<rscale>  0 0.10192422E+04</rscale>
<asrwt>0</asrwt>
<pdfrwt beam="1">  1        2 0.30225879E+00 0.10764950E+04</pdfrwt>
<pdfrwt beam="2">  1       -2 0.16716335E+00 0.10764950E+04</pdfrwt>
<totfact> 0.15406753E+00</totfact>
</mgrwt>
</event>
<event>
 4    1  0.2701205E-007  0.7250949E+03  0.7818608E-02  0.9905709E-01
          2   -1    0    0  501    0  0.00000000000E+00  0.00000000000E+00  0.18093640906E+04  0.18093640906E+04  0.25500000000E-02 0. -1.
         -2   -1    0    0    0  501 -0.00000000000E+00 -0.00000000000E+00 -0.37990871007E+03  0.37990871008E+03  0.25500000000E-02 0.  1.
    8880023    1    1    2    0    0 -0.14219369052E+03  0.26783091148E+03  0.16375947559E+04  0.17909436712E+04  0.65864270000E+03 0. -1.
    8880022    1    1    2    0    0  0.14219369052E+03 -0.26783091148E+03 -0.20813937536E+03  0.39832912944E+03  0.15294330000E+03 0.  0.
<mgrwt>
<rscale>  0 0.59985401E+03</rscale>
<asrwt>0</asrwt>
<pdfrwt beam="1">  1        2 0.27836370E+00 0.72509492E+03</pdfrwt>
<pdfrwt beam="2">  1       -2 0.58447494E-01 0.72509492E+03</pdfrwt>
<totfact> 0.24105510E+01</totfact>
</mgrwt>
</event>
<event>
 4    1  0.2701205E-007  0.8094824E+03  0.7818608E-02  0.9690656E-01
         -2   -1    0    0    0  501 -0.00000000000E+00  0.00000000000E+00  0.12256621586E+03  0.12256621588E+03  0.25500000000E-02 0.  1.
          2   -1    0    0  501    0  0.00000000000E+00 -0.00000000000E+00 -0.47827455799E+04  0.47827455799E+04  0.25500000000E-02 0. -1.
    8880023    1    1    2    0    0  0.38889690355E+03  0.26497317913E+03 -0.39954879109E+04  0.40766635180E+04  0.65864270000E+03 0. -1.
    8880022    1    1    2    0    0 -0.38889690355E+03 -0.26497317913E+03 -0.66469145316E+03  0.82864827772E+03  0.15294330000E+03 0.  0.
<mgrwt>
<rscale>  0 0.71575861E+03</rscale>
<asrwt>0</asrwt>
<pdfrwt beam="1">  1        2 0.73580687E+00 0.80948242E+03</pdfrwt>
<pdfrwt beam="2">  1       -2 0.18856345E-01 0.80948242E+03</pdfrwt>
<totfact> 0.16739026E+00</totfact>
</mgrwt>
</event>
<event>
 4    1  0.4329918E-007  0.1649664E+04  0.7818608E-02  0.8810599E-01
         -2   -1    0    0    0  501 -0.00000000000E+00  0.00000000000E+00  0.18891999314E+04  0.18891999314E+04  0.25500000000E-02 0.  1.
          2   -1    0    0  501    0  0.00000000000E+00 -0.00000000000E+00 -0.30912644626E+04  0.30912644626E+04  0.25500000000E-02 0. -1.
    8880023    1    1    2    0    0 -0.11810064832E+04  0.94488344731E+03 -0.24907800095E+04  0.29875368290E+04  0.65864270000E+03 0.  0.
    8880022    1    1    2    0    0  0.11810064832E+04 -0.94488344731E+03  0.12887154782E+04  0.19929275650E+04  0.15294330000E+03 0.  0.
<mgrwt>
<rscale>  0 0.16162963E+04</rscale>
<asrwt>0</asrwt>
<pdfrwt beam="1">  1        2 0.47557915E+00 0.16496640E+04</pdfrwt>
<pdfrwt beam="2">  1       -2 0.29064614E+00 0.16496640E+04</pdfrwt>
<totfact> 0.50987986E-02</totfact>
</mgrwt>
</event>
<event>
 4    1  0.2701205E-007  0.7737482E+03  0.7818608E-02  0.9770733E-01
         -2   -1    0    0    0  501 -0.00000000000E+00  0.00000000000E+00  0.84771810493E+03  0.84771810493E+03  0.25500000000E-02 0.  1.
          2   -1    0    0  501    0  0.00000000000E+00 -0.00000000000E+00 -0.85958059360E+03  0.85958059360E+03  0.25500000000E-02 0. -1.
    8880023    1    1    2    0    0 -0.76636612005E+02  0.39875170221E+03 -0.59809500279E+03  0.97795906302E+03  0.65864270000E+03 0. -1.
    8880022    1    1    2    0    0  0.76636612005E+02 -0.39875170221E+03  0.58623251412E+03  0.72933963552E+03  0.15294330000E+03 0.  0.
<mgrwt>
<rscale>  0 0.66957115E+03</rscale>
<asrwt>0</asrwt>
<pdfrwt beam="1">  1        2 0.13224317E+00 0.77374821E+03</pdfrwt>
<pdfrwt beam="2">  1       -2 0.13041817E+00 0.77374821E+03</pdfrwt>
<totfact> 0.13640685E+01</totfact>
</mgrwt>
</event>
<event>
 4    1  0.2701205E-007  0.7233203E+03  0.7818608E-02  0.9911507E-01
         -2   -1    0    0    0  501 -0.00000000000E+00  0.00000000000E+00  0.17336154090E+03  0.17336154092E+03  0.25500000000E-02 0.  1.
          2   -1    0    0  501    0  0.00000000000E+00 -0.00000000000E+00 -0.27814636300E+04  0.27814636300E+04  0.25500000000E-02 0. -1.
    8880023    1    1    2    0    0 -0.23820855447E+03 -0.18066186686E+03 -0.24992359308E+04  0.26018017737E+04  0.65864270000E+03 0. -1.
    8880022    1    1    2    0    0  0.23820855447E+03  0.18066186686E+03 -0.10886615831E+03  0.35302339724E+03  0.15294330000E+03 0.  0.
<mgrwt>
<rscale>  0 0.59706821E+03</rscale>
<asrwt>0</asrwt>
<pdfrwt beam="1">  1        2 0.42791745E+00 0.72332028E+03</pdfrwt>
<pdfrwt beam="2">  1       -2 0.26671008E-01 0.72332028E+03</pdfrwt>
<totfact> 0.31886772E+01</totfact>
</mgrwt>
</event>
<event>
 4    1  0.2701205E-007  0.7899543E+03  0.7818608E-02  0.9732953E-01
         -2   -1    0    0    0  501 -0.00000000000E+00  0.00000000000E+00  0.41866022896E+03  0.41866022897E+03  0.25500000000E-02 0.  1.
          2   -1    0    0  501    0  0.00000000000E+00 -0.00000000000E+00 -0.16016573038E+04  0.16016573038E+04  0.25500000000E-02 0. -1.
    8880023    1    1    2    0    0  0.42787673769E+03  0.84492924224E+02 -0.13199480706E+04  0.15382752264E+04  0.65864270000E+03 0.  1.
    8880022    1    1    2    0    0 -0.42787673769E+03 -0.84492924224E+02  0.13695099572E+03  0.48204230638E+03  0.15294330000E+03 0.  0.
<mgrwt>
<rscale>  0 0.69088214E+03</rscale>
<asrwt>0</asrwt>
<pdfrwt beam="1">  1        2 0.24640881E+00 0.78995428E+03</pdfrwt>
<pdfrwt beam="2">  1       -2 0.64409267E-01 0.78995428E+03</pdfrwt>
<totfact> 0.25286276E+01</totfact>
</mgrwt>
</event>
<event>
 4    1  0.2701205E-007  0.1032543E+04  0.7818608E-02  0.9340167E-01
          2   -1    0    0  501    0  0.00000000000E+00  0.00000000000E+00  0.21121578330E+04  0.21121578330E+04  0.25500000000E-02 0. -1.
         -2   -1    0    0    0  501 -0.00000000000E+00 -0.00000000000E+00 -0.93034333647E+03  0.93034333647E+03  0.25500000000E-02 0.  1.
    8880023    1    1    2    0    0 -0.63791099589E+03 -0.47476817090E+03  0.17648253976E+04  0.20446892539E+04  0.65864270000E+03 0.  0.
    8880022    1    1    2    0    0  0.63791099589E+03  0.47476817090E+03 -0.58301090116E+03  0.99781191547E+03  0.15294330000E+03 0.  0.
<mgrwt>
<rscale>  0 0.97167616E+03</rscale>
<asrwt>0</asrwt>
<pdfrwt beam="1">  1        2 0.32494736E+00 0.10325432E+04</pdfrwt>
<pdfrwt beam="2">  1       -2 0.14312975E+00 0.10325432E+04</pdfrwt>
<totfact> 0.19513250E+00</totfact>
</mgrwt>
</event>
<event>
 4    1  0.2701205E-007  0.8569093E+03  0.7818608E-02  0.9599085E-01
          2   -1    0    0  501    0  0.00000000000E+00  0.00000000000E+00  0.15733209823E+04  0.15733209823E+04  0.25500000000E-02 0. -1.
         -2   -1    0    0    0  501 -0.00000000000E+00 -0.00000000000E+00 -0.63621222060E+03  0.63621222061E+03  0.25500000000E-02 0.  1.
    8880023    1    1    2    0    0 -0.30647138503E+03  0.45448722576E+03  0.12835288071E+04  0.15432886163E+04  0.65864270000E+03 0.  0.
    8880022    1    1    2    0    0  0.30647138503E+03 -0.45448722576E+03 -0.34642004546E+03  0.66624458657E+03  0.15294330000E+03 0.  0.
<mgrwt>
<rscale>  0 0.77356769E+03</rscale>
<asrwt>0</asrwt>
<pdfrwt beam="1">  1        2 0.24204938E+00 0.85690930E+03</pdfrwt>
<pdfrwt beam="2">  1       -2 0.97878804E-01 0.85690930E+03</pdfrwt>
<totfact> 0.10150321E+01</totfact>
</mgrwt>
</event>
<event>
 4    1  0.2701205E-007  0.7006629E+03  0.7818608E-02  0.9994462E-01
         -2   -1    0    0    0  501 -0.00000000000E+00  0.00000000000E+00  0.21751036388E+03  0.21751036390E+03  0.25500000000E-02 0.  1.
          2   -1    0    0  501    0  0.00000000000E+00 -0.00000000000E+00 -0.20530362109E+04  0.20530362109E+04  0.25500000000E-02 0. -1.
    8880023    1    1    2    0    0  0.13573552958E+03 -0.19670819609E+03 -0.18581902549E+04  0.19859001682E+04  0.65864270000E+03 0. -1.
    8880022    1    1    2    0    0 -0.13573552958E+03  0.19670819609E+03  0.22664407868E+02  0.28464640661E+03  0.15294330000E+03 0.  0.
<mgrwt>
<rscale>  0 0.55893717E+03</rscale>
<asrwt>0</asrwt>
<pdfrwt beam="1">  1        2 0.31585171E+00 0.70066287E+03</pdfrwt>
<pdfrwt beam="2">  1       -2 0.33463134E-01 0.70066287E+03</pdfrwt>
<totfact> 0.54007584E+01</totfact>
</mgrwt>
</event>
<event>
 4    1  0.2701205E-007  0.7262470E+03  0.7818608E-02  0.9901988E-01
         -2   -1    0    0    0  501 -0.00000000000E+00  0.00000000000E+00  0.10539665908E+03  0.10539665911E+03  0.25500000000E-02 0.  1.
          2   -1    0    0  501    0  0.00000000000E+00 -0.00000000000E+00 -0.29912544963E+04  0.29912544963E+04  0.25500000000E-02 0. -1.
    8880023    1    1    2    0    0  0.27857967844E+03  0.12656189864E+03 -0.23608826151E+04  0.24700610276E+04  0.65864270000E+03 0. -1.
    8880022    1    1    2    0    0 -0.27857967844E+03 -0.12656189864E+03 -0.52497522209E+03  0.62659012780E+03  0.15294330000E+03 0. -1.
<mgrwt>
<rscale>  0 0.60165015E+03</rscale>
<asrwt>0</asrwt>
<pdfrwt beam="1">  1        2 0.46019293E+00 0.72624704E+03</pdfrwt>
<pdfrwt beam="2">  1       -2 0.16214873E-01 0.72624704E+03</pdfrwt>
<totfact> 0.57281445E+01</totfact>
</mgrwt>
</event>
<event>
 4    1  0.2701205E-007  0.1100001E+04  0.7818608E-02  0.9261055E-01
          2   -1    0    0  501    0  0.00000000000E+00  0.00000000000E+00  0.30578070197E+04  0.30578070197E+04  0.25500000000E-02 0. -1.
         -2   -1    0    0    0  501 -0.00000000000E+00 -0.00000000000E+00 -0.39136198705E+03  0.39136198705E+03  0.25500000000E-02 0.  1.
    8880023    1    1    2    0    0  0.10825128457E+03 -0.87434159894E+03  0.21538152321E+04  0.24184544305E+04  0.65864270000E+03 0.  0.
    8880022    1    1    2    0    0 -0.10825128457E+03  0.87434159894E+03  0.51262980060E+03  0.10307145763E+04  0.15294330000E+03 0.  0.
<mgrwt>
<rscale>  0 0.10444862E+04</rscale>
<asrwt>0</asrwt>
<pdfrwt beam="1">  1        2 0.47043185E+00 0.11000008E+04</pdfrwt>
<pdfrwt beam="2">  1       -2 0.60209537E-01 0.11000008E+04</pdfrwt>
<totfact> 0.41574532E+00</totfact>
</mgrwt>
</event>
<event>
 4    1  0.2701205E-007  0.7456837E+03  0.7818608E-02  0.9843690E-01
         -2   -1    0    0    0  501 -0.00000000000E+00  0.00000000000E+00  0.57213757086E+03  0.57213757087E+03  0.25500000000E-02 0.  1.
          2   -1    0    0  501    0  0.00000000000E+00 -0.00000000000E+00 -0.34086159744E+04  0.34086159744E+04  0.25500000000E-02 0. -1.
    8880023    1    1    2    0    0  0.32005293347E+03 -0.14071278110E+03 -0.32983714592E+04  0.33816118133E+04  0.65864270000E+03 0.  0.
    8880022    1    1    2    0    0 -0.32005293347E+03  0.14071278110E+03  0.46189305570E+03  0.59914173190E+03  0.15294330000E+03 0.  0.
<mgrwt>
<rscale>  0 0.63069692E+03</rscale>
<asrwt>0</asrwt>
<pdfrwt beam="1">  1        2 0.52440244E+00 0.74568370E+03</pdfrwt>
<pdfrwt beam="2">  1       -2 0.88021167E-01 0.74568370E+03</pdfrwt>
<totfact> 0.11355934E+00</totfact>
</mgrwt>
</event>
<event>
 4    1  0.2701205E-007  0.7848005E+03  0.7818608E-02  0.9744679E-01
         -2   -1    0    0    0  501 -0.00000000000E+00  0.00000000000E+00  0.60978687211E+03  0.60978687211E+03  0.25500000000E-02 0.  1.
          2   -1    0    0  501    0  0.00000000000E+00 -0.00000000000E+00 -0.16131176365E+04  0.16131176365E+04  0.25500000000E-02 0. -1.
    8880023    1    1    2    0    0 -0.30483382144E+02  0.42564350593E+03 -0.14101400249E+04  0.16138174391E+04  0.65864270000E+03 0. -1.
    8880022    1    1    2    0    0  0.30483382144E+02 -0.42564350593E+03  0.40680926053E+03  0.60908706947E+03  0.15294330000E+03 0.  0.
<mgrwt>
<rscale>  0 0.68417809E+03</rscale>
<asrwt>0</asrwt>
<pdfrwt beam="1">  1        2 0.24817194E+00 0.78480051E+03</pdfrwt>
<pdfrwt beam="2">  1       -2 0.93813366E-01 0.78480051E+03</pdfrwt>
<totfact> 0.10755190E+01</totfact>
</mgrwt>
</event>
<event>
 4    1  0.2701205E-007  0.8646519E+03  0.7818608E-02  0.9585341E-01
         -2   -1    0    0    0  501 -0.00000000000E+00  0.00000000000E+00  0.45824103521E+03  0.45824103522E+03  0.25500000000E-02 0.  1.
          2   -1    0    0  501    0  0.00000000000E+00 -0.00000000000E+00 -0.20276714042E+04  0.20276714042E+04  0.25500000000E-02 0. -1.
    8880023    1    1    2    0    0  0.19390283817E+03  0.52556108148E+03 -0.16849383941E+04  0.18938427494E+04  0.65864270000E+03 0.  0.
    8880022    1    1    2    0    0 -0.19390283817E+03 -0.52556108148E+03  0.11550802514E+03  0.59206969007E+03  0.15294330000E+03 0.  0.
<mgrwt>
<rscale>  0 0.78274021E+03</rscale>
<asrwt>0</asrwt>
<pdfrwt beam="1">  1        2 0.31194944E+00 0.86465193E+03</pdfrwt>
<pdfrwt beam="2">  1       -2 0.70498622E-01 0.86465193E+03</pdfrwt>
<totfact> 0.12032188E+01</totfact>
</mgrwt>
</event>
<event>
 4    1  0.2701205E-007  0.6877692E+03  0.7818608E-02  0.1005231E+00
          2   -1    0    0  501    0  0.00000000000E+00  0.00000000000E+00  0.17609294086E+04  0.17609294086E+04  0.25500000000E-02 0. -1.
         -2   -1    0    0    0  501 -0.00000000000E+00 -0.00000000000E+00 -0.14365251212E+03  0.14365251214E+03  0.25500000000E-02 0.  1.
    8880023    1    1    2    0    0 -0.12252598637E+03 -0.15557514408E+03  0.14463786588E+04  0.16015734993E+04  0.65864270000E+03 0.  0.
    8880022    1    1    2    0    0  0.12252598637E+03  0.15557514408E+03  0.17089823764E+03  0.30300842140E+03  0.15294330000E+03 0.  0.
<mgrwt>
<rscale>  0 0.53414685E+03</rscale>
<asrwt>0</asrwt>
<pdfrwt beam="1">  1        2 0.27091222E+00 0.68776918E+03</pdfrwt>
<pdfrwt beam="2">  1       -2 0.22100386E-01 0.68776918E+03</pdfrwt>
<totfact> 0.16637310E+02</totfact>
</mgrwt>
</event>
<event>
 4    1  0.2701205E-007  0.7814608E+03  0.7818608E-02  0.9752417E-01
          2   -1    0    0  501    0  0.00000000000E+00  0.00000000000E+00  0.20307450623E+04  0.20307450623E+04  0.25500000000E-02 0. -1.
         -2   -1    0    0    0  501 -0.00000000000E+00 -0.00000000000E+00 -0.77763090829E+03  0.77763090829E+03  0.25500000000E-02 0.  1.
    8880023    1    1    2    0    0 -0.35747488123E+03  0.22154565102E+03  0.18812676229E+04  0.20371177780E+04  0.65864270000E+03 0. -1.
    8880022    1    1    2    0    0  0.35747488123E+03 -0.22154565102E+03 -0.62815346887E+03  0.77125819261E+03  0.15294330000E+03 0.  0.
<mgrwt>
<rscale>  0 0.67979870E+03</rscale>
<asrwt>0</asrwt>
<pdfrwt beam="1">  1        2 0.31242231E+00 0.78146079E+03</pdfrwt>
<pdfrwt beam="2">  1       -2 0.11963553E+00 0.78146079E+03</pdfrwt>
<totfact> 0.35455301E+00</totfact>
</mgrwt>
</event>
<event>
 4    1  0.2701205E-007  0.1514248E+04  0.7818608E-02  0.8899640E-01
          2   -1    0    0  501    0  0.00000000000E+00  0.00000000000E+00  0.32445697720E+04  0.32445697720E+04  0.25500000000E-02 0. -1.
         -2   -1    0    0    0  501 -0.00000000000E+00 -0.00000000000E+00 -0.10106134519E+04  0.10106134519E+04  0.25500000000E-02 0.  1.
    8880023    1    1    2    0    0 -0.11796851044E+04  0.68372513568E+03  0.24360521518E+04  0.28683265677E+04  0.65864270000E+03 0. -1.
    8880022    1    1    2    0    0  0.11796851044E+04 -0.68372513568E+03 -0.20209583166E+03  0.13868566562E+04  0.15294330000E+03 0.  0.
<mgrwt>
<rscale>  0 0.14773741E+04</rscale>
<asrwt>0</asrwt>
<pdfrwt beam="1">  1        2 0.49916458E+00 0.15142481E+04</pdfrwt>
<pdfrwt beam="2">  1       -2 0.15547899E+00 0.15142481E+04</pdfrwt>
<totfact> 0.31277678E-01</totfact>
</mgrwt>
</event>
<event>
 4    1  0.2701205E-007  0.8864843E+03  0.7818608E-02  0.9548086E-01
          2   -1    0    0  501    0  0.00000000000E+00  0.00000000000E+00  0.13046651263E+04  0.13046651263E+04  0.25500000000E-02 0. -1.
         -2   -1    0    0    0  501 -0.00000000000E+00 -0.00000000000E+00 -0.10440096595E+04  0.10440096595E+04  0.25500000000E-02 0.  1.
    8880023    1    1    2    0    0  0.35665653741E+03  0.47417331529E+03  0.10340176748E+04  0.13620010928E+04  0.65864270000E+03 0.  0.
    8880022    1    1    2    0    0 -0.35665653741E+03 -0.47417331529E+03 -0.77336220800E+03  0.98667369297E+03  0.15294330000E+03 0.  0.
<mgrwt>
<rscale>  0 0.80829568E+03</rscale>
<asrwt>0</asrwt>
<pdfrwt beam="1">  1        2 0.20071771E+00 0.88648431E+03</pdfrwt>
<pdfrwt beam="2">  1       -2 0.16061687E+00 0.88648431E+03</pdfrwt>
<totfact> 0.41149612E+00</totfact>
</mgrwt>
</event>
<event>
 4    1  0.2701205E-007  0.9752329E+03  0.7818608E-02  0.9414703E-01
          2   -1    0    0  501    0  0.00000000000E+00  0.00000000000E+00  0.16673915787E+04  0.16673915787E+04  0.25500000000E-02 0. -1.
         -2   -1    0    0    0  501 -0.00000000000E+00 -0.00000000000E+00 -0.62969227197E+03  0.62969227198E+03  0.25500000000E-02 0.  1.
    8880023    1    1    2    0    0 -0.12952245160E+03  0.70745520134E+03  0.11977542212E+04  0.15445692953E+04  0.65864270000E+03 0. -1.
    8880022    1    1    2    0    0  0.12952245160E+03 -0.70745520134E+03 -0.16005491448E+03  0.75251455537E+03  0.15294330000E+03 0.  0.
<mgrwt>
<rscale>  0 0.90875504E+03</rscale>
<asrwt>0</asrwt>
<pdfrwt beam="1">  1        2 0.25652178E+00 0.97523286E+03</pdfrwt>
<pdfrwt beam="2">  1       -2 0.96875734E-01 0.97523286E+03</pdfrwt>
<totfact> 0.91008009E+00</totfact>
</mgrwt>
</event>
<event>
 4    1  0.2701205E-007  0.7660063E+03  0.7818608E-02  0.9789799E-01
         -2   -1    0    0    0  501 -0.00000000000E+00  0.00000000000E+00  0.27854516967E+04  0.27854516967E+04  0.25500000000E-02 0.  1.
          2   -1    0    0  501    0  0.00000000000E+00 -0.00000000000E+00 -0.24363442402E+03  0.24363442404E+03  0.25500000000E-02 0. -1.
    8880023    1    1    2    0    0  0.15265406696E+03 -0.36007239276E+03  0.43516091440E+03  0.88098275799E+03  0.65864270000E+03 0. -1.
    8880022    1    1    2    0    0 -0.15265406696E+03  0.36007239276E+03  0.21066563583E+04  0.21481033627E+04  0.15294330000E+03 0.  0.
<mgrwt>
<rscale>  0 0.65912876E+03</rscale>
<asrwt>0</asrwt>
<pdfrwt beam="1">  1        2 0.37482221E-01 0.76600627E+03</pdfrwt>
<pdfrwt beam="2">  1       -2 0.42853101E+00 0.76600627E+03</pdfrwt>
<totfact> 0.70764249E-01</totfact>
</mgrwt>
</event>
<event>
 4    1  0.2701205E-007  0.8659454E+03  0.7818608E-02  0.9583074E-01
          2   -1    0    0  501    0  0.00000000000E+00  0.00000000000E+00  0.97025961430E+03  0.97025961430E+03  0.25500000000E-02 0. -1.
         -2   -1    0    0    0  501 -0.00000000000E+00 -0.00000000000E+00 -0.62494957940E+03  0.62494957941E+03  0.25500000000E-02 0.  1.
    8880023    1    1    2    0    0 -0.56074309418E+03  0.40229214197E+02  0.48989935865E+03  0.99491848671E+03  0.65864270000E+03 0.  0.
    8880022    1    1    2    0    0  0.56074309418E+03 -0.40229214197E+02 -0.14458932375E+03  0.60029070699E+03  0.15294330000E+03 0.  0.
<mgrwt>
<rscale>  0 0.78426659E+03</rscale>
<asrwt>0</asrwt>
<pdfrwt beam="1">  1        2 0.14927071E+00 0.86594539E+03</pdfrwt>
<pdfrwt beam="2">  1       -2 0.96146089E-01 0.86594539E+03</pdfrwt>
<totfact> 0.23984047E+01</totfact>
</mgrwt>
</event>
<event>
 4    1  0.2701205E-007  0.1288520E+04  0.7818608E-02  0.9075537E-01
         -2   -1    0    0    0  501 -0.00000000000E+00  0.00000000000E+00  0.18135282569E+04  0.18135282569E+04  0.25500000000E-02 0.  1.
          2   -1    0    0  501    0  0.00000000000E+00 -0.00000000000E+00 -0.81591897800E+03  0.81591897800E+03  0.25500000000E-02 0. -1.
    8880023    1    1    2    0    0  0.10788176687E+04  0.25025258933E+03  0.34086287969E+03  0.13328434378E+04  0.65864270000E+03 0.  0.
    8880022    1    1    2    0    0 -0.10788176687E+04 -0.25025258933E+03  0.65674639919E+03  0.12966037971E+04  0.15294330000E+03 0.  0.
<mgrwt>
<rscale>  0 0.12435874E+04</rscale>
<asrwt>0</asrwt>
<pdfrwt beam="1">  1        2 0.12552600E+00 0.12885201E+04</pdfrwt>
<pdfrwt beam="2">  1       -2 0.27900435E+00 0.12885201E+04</pdfrwt>
<totfact> 0.13894842E+00</totfact>
</mgrwt>
</event>
<event>
 4    1  0.3288741E-007  0.8533876E+03  0.7818608E-02  0.9605436E-01
         -2   -1    0    0    0  501 -0.00000000000E+00  0.00000000000E+00  0.23568814103E+04  0.23568814103E+04  0.25500000000E-02 0.  1.
          2   -1    0    0  501    0  0.00000000000E+00 -0.00000000000E+00 -0.29511079533E+04  0.29511079533E+04  0.25500000000E-02 0. -1.
    8880023    1    1    2    0    0  0.74572667540E+02 -0.53749328332E+03 -0.28540480755E+04  0.29789026060E+04  0.65864270000E+03 0. -1.
    8880022    1    1    2    0    0 -0.74572667540E+02  0.53749328332E+03  0.22598215326E+04  0.23290867576E+04  0.15294330000E+03 0.  0.
<mgrwt>
<rscale>  0 0.76937453E+03</rscale>
<asrwt>0</asrwt>
<pdfrwt beam="1">  1        2 0.45401661E+00 0.85338755E+03</pdfrwt>
<pdfrwt beam="2">  1       -2 0.36259714E+00 0.85338755E+03</pdfrwt>
<totfact> 0.26082288E-02</totfact>
</mgrwt>
</event>
<event>
 4    1  0.2701205E-007  0.1106075E+04  0.7818608E-02  0.9254323E-01
          2   -1    0    0  501    0  0.00000000000E+00  0.00000000000E+00  0.18997689869E+04  0.18997689869E+04  0.25500000000E-02 0. -1.
         -2   -1    0    0    0  501 -0.00000000000E+00 -0.00000000000E+00 -0.10048664379E+04  0.10048664379E+04  0.25500000000E-02 0.  1.
    8880023    1    1    2    0    0  0.24683499934E+03  0.85361801938E+03  0.14666600330E+04  0.18369793408E+04  0.65864270000E+03 0.  0.
    8880022    1    1    2    0    0 -0.24683499934E+03 -0.85361801938E+03 -0.57175748413E+03  0.10676560839E+04  0.15294330000E+03 0.  0.
<mgrwt>
<rscale>  0 0.10509899E+04</rscale>
<asrwt>0</asrwt>
<pdfrwt beam="1">  1        2 0.29227215E+00 0.11060748E+04</pdfrwt>
<pdfrwt beam="2">  1       -2 0.15459484E+00 0.11060748E+04</pdfrwt>
<totfact> 0.20643157E+00</totfact>
</mgrwt>
</event>
<event>
 4    1  0.2701205E-007  0.8078741E+03  0.7818608E-02  0.9694022E-01
          2   -1    0    0  501    0  0.00000000000E+00  0.00000000000E+00  0.14023480631E+04  0.14023480631E+04  0.25500000000E-02 0. -1.
         -2   -1    0    0    0  501 -0.00000000000E+00 -0.00000000000E+00 -0.69252836171E+03  0.69252836172E+03  0.25500000000E-02 0.  1.
    8880023    1    1    2    0    0  0.10837784271E+03 -0.45508747400E+03  0.11695080908E+04  0.14214111814E+04  0.65864270000E+03 0. -1.
    8880022    1    1    2    0    0 -0.10837784271E+03  0.45508747400E+03 -0.45968838941E+03  0.67346524346E+03  0.15294330000E+03 0.  0.
<mgrwt>
<rscale>  0 0.71373822E+03</rscale>
<asrwt>0</asrwt>
<pdfrwt beam="1">  1        2 0.21574585E+00 0.80787411E+03</pdfrwt>
<pdfrwt beam="2">  1       -2 0.10654283E+00 0.80787411E+03</pdfrwt>
<totfact> 0.10396690E+01</totfact>
</mgrwt>
</event>
<event>
 4    1  0.2701205E-007  0.9742089E+03  0.7818608E-02  0.9416106E-01
          2   -1    0    0  501    0  0.00000000000E+00  0.00000000000E+00  0.28592705561E+04  0.28592705561E+04  0.25500000000E-02 0. -1.
         -2   -1    0    0    0  501 -0.00000000000E+00 -0.00000000000E+00 -0.31916299110E+03  0.31916299111E+03  0.25500000000E-02 0.  1.
    8880023    1    1    2    0    0 -0.86145483200E+01 -0.71777338325E+03  0.21191200544E+04  0.23323277753E+04  0.65864270000E+03 0.  0.
    8880022    1    1    2    0    0  0.86145483200E+01  0.71777338325E+03  0.42098751056E+03  0.84610577188E+03  0.15294330000E+03 0.  0.
<mgrwt>
<rscale>  0 0.90761962E+03</rscale>
<asrwt>0</asrwt>
<pdfrwt beam="1">  1        2 0.43988779E+00 0.97420893E+03</pdfrwt>
<pdfrwt beam="2">  1       -2 0.49101997E-01 0.97420893E+03</pdfrwt>
<totfact> 0.85514046E+00</totfact>
</mgrwt>
</event>
<event>
 4    1  0.4221249E-007  0.1505741E+04  0.7818608E-02  0.8905593E-01
         -2   -1    0    0    0  501 -0.00000000000E+00  0.00000000000E+00  0.14943899377E+04  0.14943899377E+04  0.25500000000E-02 0.  1.
          2   -1    0    0  501    0  0.00000000000E+00 -0.00000000000E+00 -0.27879851350E+04  0.27879851350E+04  0.25500000000E-02 0. -1.
    8880023    1    1    2    0    0 -0.73693747099E+03 -0.11359438791E+04 -0.21853443709E+04  0.26538623850E+04  0.65864270000E+03 0.  0.
    8880022    1    1    2    0    0  0.73693747099E+03  0.11359438791E+04  0.89174917356E+03  0.16285126877E+04  0.15294330000E+03 0.  0.
<mgrwt>
<rscale>  0 0.14686199E+04</rscale>
<asrwt>0</asrwt>
<pdfrwt beam="1">  1        2 0.42892079E+00 0.15057409E+04</pdfrwt>
<pdfrwt beam="2">  1       -2 0.22990614E+00 0.15057409E+04</pdfrwt>
<totfact> 0.18901477E-01</totfact>
</mgrwt>
</event>
<event>
 4    1  0.2701205E-007  0.9113178E+03  0.7818608E-02  0.9508102E-01
          2   -1    0    0  501    0  0.00000000000E+00  0.00000000000E+00  0.62855255117E+03  0.62855255118E+03  0.25500000000E-02 0. -1.
         -2   -1    0    0    0  501 -0.00000000000E+00 -0.00000000000E+00 -0.18868465217E+04  0.18868465217E+04  0.25500000000E-02 0.  1.
    8880023    1    1    2    0    0 -0.12581834702E+03 -0.61713827012E+03 -0.15551641537E+04  0.18025081559E+04  0.65864270000E+03 0.  0.
    8880022    1    1    2    0    0  0.12581834702E+03  0.61713827012E+03  0.29687018315E+03  0.71289091700E+03  0.15294330000E+03 0.  0.
<mgrwt>
<rscale>  0 0.83689136E+03</rscale>
<asrwt>0</asrwt>
<pdfrwt beam="1">  1        2 0.96700394E-01 0.91131779E+03</pdfrwt>
<pdfrwt beam="2">  1       -2 0.29028408E+00 0.91131779E+03</pdfrwt>
<totfact> 0.17345825E+00</totfact>
</mgrwt>
</event>
<event>
 4    1  0.2701205E-007  0.9046480E+03  0.7818608E-02  0.9518611E-01
          2   -1    0    0  501    0  0.00000000000E+00  0.00000000000E+00  0.20235415782E+04  0.20235415782E+04  0.25500000000E-02 0. -1.
         -2   -1    0    0    0  501 -0.00000000000E+00 -0.00000000000E+00 -0.10204206048E+04  0.10204206048E+04  0.25500000000E-02 0.  1.
    8880023    1    1    2    0    0  0.61233643424E+03 -0.98091571165E+02  0.18048665876E+04  0.20188936253E+04  0.65864270000E+03 0. -1.
    8880022    1    1    2    0    0 -0.61233643424E+03  0.98091571165E+02 -0.80174561424E+03  0.10250685577E+04  0.15294330000E+03 0.  0.
<mgrwt>
<rscale>  0 0.82925519E+03</rscale>
<asrwt>0</asrwt>
<pdfrwt beam="1">  1        2 0.31131409E+00 0.90464804E+03</pdfrwt>
<pdfrwt beam="2">  1       -2 0.15698778E+00 0.90464804E+03</pdfrwt>
<totfact> 0.17400728E+00</totfact>
</mgrwt>
</event>
<event>
 4    1  0.2701205E-007  0.9111058E+03  0.7818608E-02  0.9508433E-01
         -2   -1    0    0    0  501 -0.00000000000E+00  0.00000000000E+00  0.61038642031E+03  0.61038642032E+03  0.25500000000E-02 0.  1.
          2   -1    0    0  501    0  0.00000000000E+00 -0.00000000000E+00 -0.22748422532E+04  0.22748422532E+04  0.25500000000E-02 0. -1.
    8880023    1    1    2    0    0  0.11050597048E+03  0.61975158532E+03 -0.19688487824E+04  0.21694421706E+04  0.65864270000E+03 0. -1.
    8880022    1    1    2    0    0 -0.11050597048E+03 -0.61975158532E+03  0.30439294958E+03  0.71578650294E+03  0.15294330000E+03 0.  0.
<mgrwt>
<rscale>  0 0.83664914E+03</rscale>
<asrwt>0</asrwt>
<pdfrwt beam="1">  1        2 0.34997573E+00 0.91110581E+03</pdfrwt>
<pdfrwt beam="2">  1       -2 0.93905604E-01 0.91110581E+03</pdfrwt>
<totfact> 0.45636610E+00</totfact>
</mgrwt>
</event>
<event>
 4    1  0.2701205E-007  0.7825663E+03  0.7818608E-02  0.9749843E-01
          2   -1    0    0  501    0  0.00000000000E+00  0.00000000000E+00  0.51044390320E+03  0.51044390321E+03  0.25500000000E-02 0. -1.
         -2   -1    0    0    0  501 -0.00000000000E+00 -0.00000000000E+00 -0.11428111465E+04  0.11428111465E+04  0.25500000000E-02 0.  1.
    8880023    1    1    2    0    0  0.41183994778E+03  0.94803053075E+02  0.10513755018E+03  0.78959728481E+03  0.65864270000E+03 0. -1.
    8880022    1    1    2    0    0 -0.41183994778E+03 -0.94803053075E+02 -0.73750479343E+03  0.86365776486E+03  0.15294330000E+03 0.  0.
<mgrwt>
<rscale>  0 0.68125148E+03</rscale>
<asrwt>0</asrwt>
<pdfrwt beam="1">  1        2 0.78529831E-01 0.78256627E+03</pdfrwt>
<pdfrwt beam="2">  1       -2 0.17581710E+00 0.78256627E+03</pdfrwt>
<totfact> 0.11806136E+01</totfact>
</mgrwt>
</event>
<event>
 4    1  0.2701205E-007  0.6704887E+03  0.7818608E-02  0.1015315E+00
          2   -1    0    0  501    0  0.00000000000E+00  0.00000000000E+00  0.85552885803E+03  0.85552885803E+03  0.25500000000E-02 0. -1.
         -2   -1    0    0    0  501 -0.00000000000E+00 -0.00000000000E+00 -0.10018049310E+04  0.10018049310E+04  0.25500000000E-02 0.  1.
    8880023    1    1    2    0    0 -0.50382553812E+02  0.11491927684E+03  0.71114558119E+03  0.97738584286E+03  0.65864270000E+03 0. -1.
    8880022    1    1    2    0    0  0.50382553812E+02 -0.11491927684E+03 -0.85742165421E+03  0.87994794621E+03  0.15294330000E+03 0.  0.
<mgrwt>
<rscale>  0 0.49415856E+03</rscale>
<asrwt>0</asrwt>
<pdfrwt beam="1">  1        2 0.13161982E+00 0.67048866E+03</pdfrwt>
<pdfrwt beam="2">  1       -2 0.15412384E+00 0.67048866E+03</pdfrwt>
<totfact> 0.90066166E+00</totfact>
</mgrwt>
</event>
<event>
 4    1  0.2701205E-007  0.1480885E+04  0.7818608E-02  0.8923253E-01
         -2   -1    0    0    0  501 -0.00000000000E+00  0.00000000000E+00  0.16100109757E+04  0.16100109757E+04  0.25500000000E-02 0.  1.
          2   -1    0    0  501    0  0.00000000000E+00 -0.00000000000E+00 -0.21170959351E+04  0.21170959351E+04  0.25500000000E-02 0. -1.
    8880023    1    1    2    0    0 -0.12818115266E+04 -0.34083538127E+03 -0.14656158530E+04  0.20835185580E+04  0.65864270000E+03 0.  0.
    8880022    1    1    2    0    0  0.12818115266E+04  0.34083538127E+03  0.95853089357E+03  0.16435883529E+04  0.15294330000E+03 0.  0.
<mgrwt>
<rscale>  0 0.14430213E+04</rscale>
<asrwt>0</asrwt>
<pdfrwt beam="1">  1        2 0.32570707E+00 0.14808848E+04</pdfrwt>
<pdfrwt beam="2">  1       -2 0.24769400E+00 0.14808848E+04</pdfrwt>
<totfact> 0.35853254E-01</totfact>
</mgrwt>
</event>
<event>
 4    1  0.2701205E-007  0.1800920E+04  0.7818608E-02  0.8722028E-01
         -2   -1    0    0    0  501 -0.00000000000E+00  0.00000000000E+00  0.13000100639E+04  0.13000100639E+04  0.25500000000E-02 0.  1.
          2   -1    0    0  501    0  0.00000000000E+00 -0.00000000000E+00 -0.27494054223E+04  0.27494054223E+04  0.25500000000E-02 0. -1.
    8880023    1    1    2    0    0 -0.15547098863E+04 -0.62640186755E+03  0.40825543523E+02  0.18013825417E+04  0.65864270000E+03 0.  0.
    8880022    1    1    2    0    0  0.15547098863E+04  0.62640186755E+03 -0.14902209019E+04  0.22480329445E+04  0.15294330000E+03 0.  0.
<mgrwt>
<rscale>  0 0.17707187E+04</rscale>
<asrwt>0</asrwt>
<pdfrwt beam="1">  1        2 0.42298545E+00 0.18009199E+04</pdfrwt>
<pdfrwt beam="2">  1       -2 0.20000155E+00 0.18009199E+04</pdfrwt>
<totfact> 0.30058361E-01</totfact>
</mgrwt>
</event>
<event>
 4    1  0.2701205E-007  0.1456509E+04  0.7818608E-02  0.8940973E-01
         -2   -1    0    0    0  501 -0.00000000000E+00  0.00000000000E+00  0.14201753210E+04  0.14201753210E+04  0.25500000000E-02 0.  1.
          2   -1    0    0  501    0  0.00000000000E+00 -0.00000000000E+00 -0.28790848640E+04  0.28790848640E+04  0.25500000000E-02 0. -1.
    8880023    1    1    2    0    0 -0.82777459531E+03 -0.10011980293E+04  0.82011803963E+03  0.16715298621E+04  0.65864270000E+03 0.  1.
    8880022    1    1    2    0    0  0.82777459531E+03  0.10011980293E+04 -0.22790275826E+04  0.26277303229E+04  0.15294330000E+03 0.  0.
<mgrwt>
<rscale>  0 0.14178854E+04</rscale>
<asrwt>0</asrwt>
<pdfrwt beam="1">  1        2 0.44293613E+00 0.14565090E+04</pdfrwt>
<pdfrwt beam="2">  1       -2 0.21848851E+00 0.14565090E+04</pdfrwt>
<totfact> 0.19778134E-01</totfact>
</mgrwt>
</event>
<event>
 4    1  0.2701205E-007  0.9651177E+03  0.7818608E-02  0.9428689E-01
          2   -1    0    0  501    0  0.00000000000E+00  0.00000000000E+00  0.15107043330E+04  0.15107043330E+04  0.25500000000E-02 0. -1.
         -2   -1    0    0    0  501 -0.00000000000E+00 -0.00000000000E+00 -0.54055661698E+03  0.54055661699E+03  0.25500000000E-02 0.  1.
    8880023    1    1    2    0    0 -0.69646214231E+03  0.11217132437E+03  0.18129403038E+03  0.98199778686E+03  0.65864270000E+03 0.  0.
    8880022    1    1    2    0    0  0.69646214231E+03 -0.11217132437E+03  0.78885368567E+03  0.10692631632E+04  0.15294330000E+03 0.  0.
<mgrwt>
<rscale>  0 0.89751851E+03</rscale>
<asrwt>0</asrwt>
<pdfrwt beam="1">  1        2 0.23241605E+00 0.96511768E+03</pdfrwt>
<pdfrwt beam="2">  1       -2 0.83162555E-01 0.96511768E+03</pdfrwt>
<totfact> 0.15856234E+01</totfact>
</mgrwt>
</event>
<event>
 4    1  0.2701205E-007  0.1681644E+04  0.7818608E-02  0.8790996E-01
         -2   -1    0    0    0  501 -0.00000000000E+00  0.00000000000E+00  0.16598144160E+04  0.16598144160E+04  0.25500000000E-02 0.  1.
          2   -1    0    0  501    0  0.00000000000E+00 -0.00000000000E+00 -0.18761422828E+04  0.18761422828E+04  0.25500000000E-02 0. -1.
    8880023    1    1    2    0    0 -0.31549731018E+03  0.15147869013E+04  0.59294834665E+03  0.17831196979E+04  0.65864270000E+03 0.  0.
    8880022    1    1    2    0    0  0.31549731018E+03 -0.15147869013E+04 -0.80927621338E+03  0.17528370009E+04  0.15294330000E+03 0.  0.
<mgrwt>
<rscale>  0 0.16490038E+04</rscale>
<asrwt>0</asrwt>
<pdfrwt beam="1">  1        2 0.28863727E+00 0.16816445E+04</pdfrwt>
<pdfrwt beam="2">  1       -2 0.25535606E+00 0.16816445E+04</pdfrwt>
<totfact> 0.42945058E-01</totfact>
</mgrwt>
</event>
<event>
 4    1  0.2701205E-007  0.7308932E+03  0.7818608E-02  0.9887316E-01
         -2   -1    0    0    0  501 -0.00000000000E+00  0.00000000000E+00  0.23084717221E+03  0.23084717222E+03  0.25500000000E-02 0.  1.
          2   -1    0    0  501    0  0.00000000000E+00 -0.00000000000E+00 -0.17529383431E+04  0.17529383431E+04  0.25500000000E-02 0. -1.
    8880023    1    1    2    0    0  0.26620160620E+03 -0.17184681409E+03 -0.14512242366E+04  0.16248866465E+04  0.65864270000E+03 0.  0.
    8880022    1    1    2    0    0 -0.26620160620E+03  0.17184681409E+03 -0.70866934234E+02  0.35889886882E+03  0.15294330000E+03 0.  0.
<mgrwt>
<rscale>  0 0.60879979E+03</rscale>
<asrwt>0</asrwt>
<pdfrwt beam="1">  1        2 0.26968281E+00 0.73089317E+03</pdfrwt>
<pdfrwt beam="2">  1       -2 0.35514951E-01 0.73089317E+03</pdfrwt>
<totfact> 0.70029112E+01</totfact>
</mgrwt>
</event>
<event>
 4    1  0.2701205E-007  0.6878636E+03  0.7818608E-02  0.1005185E+00
          2   -1    0    0  501    0  0.00000000000E+00  0.00000000000E+00  0.18051650008E+04  0.18051650008E+04  0.25500000000E-02 0. -1.
         -2   -1    0    0    0  501 -0.00000000000E+00 -0.00000000000E+00 -0.25661877237E+03  0.25661877238E+03  0.25500000000E-02 0.  1.
    8880023    1    1    2    0    0  0.67644839926E+01  0.19824310253E+03  0.16529940860E+04  0.17904037926E+04  0.65864270000E+03 0. -1.
    8880022    1    1    2    0    0 -0.67644839926E+01 -0.19824310253E+03 -0.10444785750E+03  0.27137998064E+03  0.15294330000E+03 0.  0.
<mgrwt>
<rscale>  0 0.53434019E+03</rscale>
<asrwt>0</asrwt>
<pdfrwt beam="1">  1        2 0.27771770E+00 0.68786357E+03</pdfrwt>
<pdfrwt beam="2">  1       -2 0.39479810E-01 0.68786357E+03</pdfrwt>
<totfact> 0.53765084E+01</totfact>
</mgrwt>
</event>
<event>
 4    1  0.2701205E-007  0.1465319E+04  0.7818608E-02  0.8934522E-01
          2   -1    0    0  501    0  0.00000000000E+00  0.00000000000E+00  0.26211954428E+04  0.26211954428E+04  0.25500000000E-02 0. -1.
         -2   -1    0    0    0  501 -0.00000000000E+00 -0.00000000000E+00 -0.10711438989E+04  0.10711438989E+04  0.25500000000E-02 0.  1.
    8880023    1    1    2    0    0  0.13088927807E+04  0.12177692266E+02 -0.22402219323E+03  0.14823443449E+04  0.65864270000E+03 0.  1.
    8880022    1    1    2    0    0 -0.13088927807E+04 -0.12177692266E+02  0.17740737371E+04  0.22099949967E+04  0.15294330000E+03 0.  0.
<mgrwt>
<rscale>  0 0.14269735E+04</rscale>
<asrwt>0</asrwt>
<pdfrwt beam="1">  1        2 0.40326084E+00 0.14653187E+04</pdfrwt>
<pdfrwt beam="2">  1       -2 0.16479137E+00 0.14653187E+04</pdfrwt>
<totfact> 0.65061292E-01</totfact>
</mgrwt>
</event>
<event>
 4    1  0.2701205E-007  0.7888840E+03  0.7818608E-02  0.9735367E-01
         -2   -1    0    0    0  501 -0.00000000000E+00  0.00000000000E+00  0.81081461321E+03  0.81081461321E+03  0.25500000000E-02 0.  1.
          2   -1    0    0  501    0  0.00000000000E+00 -0.00000000000E+00 -0.61913508475E+03  0.61913508476E+03  0.25500000000E-02 0. -1.
    8880023    1    1    2    0    0  0.35899489805E+03 -0.24423451644E+03 -0.21287486584E+03  0.81710082035E+03  0.65864270000E+03 0. -1.
    8880022    1    1    2    0    0 -0.35899489805E+03  0.24423451644E+03  0.40455439430E+03  0.61284887762E+03  0.15294330000E+03 0. -1.
<mgrwt>
<rscale>  0 0.68949519E+03</rscale>
<asrwt>0</asrwt>
<pdfrwt beam="1">  1        2 0.95251551E-01 0.78888405E+03</pdfrwt>
<pdfrwt beam="2">  1       -2 0.12474071E+00 0.78888405E+03</pdfrwt>
<totfact> 0.23236321E+01</totfact>
</mgrwt>
</event>
<event>
 4    1  0.2701205E-007  0.9378529E+03  0.7818608E-02  0.9467811E-01
          2   -1    0    0  501    0  0.00000000000E+00  0.00000000000E+00  0.23643740152E+04  0.23643740152E+04  0.25500000000E-02 0. -1.
         -2   -1    0    0    0  501 -0.00000000000E+00 -0.00000000000E+00 -0.38976143999E+03  0.38976143999E+03  0.25500000000E-02 0.  1.
    8880023    1    1    2    0    0 -0.20235063747E+03  0.63624839461E+03  0.36774539773E+03  0.10073751456E+04  0.65864270000E+03 0.  0.
    8880022    1    1    2    0    0  0.20235063747E+03 -0.63624839461E+03  0.16068671775E+04  0.17467603096E+04  0.15294330000E+03 0.  0.
<mgrwt>
<rscale>  0 0.86699169E+03</rscale>
<asrwt>0</asrwt>
<pdfrwt beam="1">  1        2 0.36374985E+00 0.93785287E+03</pdfrwt>
<pdfrwt beam="2">  1       -2 0.59963298E-01 0.93785287E+03</pdfrwt>
<totfact> 0.10988892E+01</totfact>
</mgrwt>
</event>
<event>
 4    1  0.2701205E-007  0.6959384E+03  0.7818608E-02  0.1001449E+00
          2   -1    0    0  501    0  0.00000000000E+00  0.00000000000E+00  0.18737402819E+04  0.18737402819E+04  0.25500000000E-02 0. -1.
         -2   -1    0    0    0  501 -0.00000000000E+00 -0.00000000000E+00 -0.56981339004E+03  0.56981339005E+03  0.25500000000E-02 0.  1.
    8880023    1    1    2    0    0 -0.14204150599E+03 -0.17419591320E+03  0.17711600086E+04  0.19029813420E+04  0.65864270000E+03 0. -1.
    8880022    1    1    2    0    0  0.14204150599E+03  0.17419591320E+03 -0.46723311671E+03  0.54057233000E+03  0.15294330000E+03 0.  0.
<mgrwt>
<rscale>  0 0.55019572E+03</rscale>
<asrwt>0</asrwt>
<pdfrwt beam="1">  1        2 0.28826774E+00 0.69593837E+03</pdfrwt>
<pdfrwt beam="2">  1       -2 0.87663597E-01 0.69593837E+03</pdfrwt>
<totfact> 0.91804618E+00</totfact>
</mgrwt>
</event>
<event>
 4    1  0.2701205E-007  0.1413022E+04  0.7818608E-02  0.8973630E-01
          2   -1    0    0  501    0  0.00000000000E+00  0.00000000000E+00  0.14320275189E+04  0.14320275189E+04  0.25500000000E-02 0. -1.
         -2   -1    0    0    0  501 -0.00000000000E+00 -0.00000000000E+00 -0.13895857141E+04  0.13895857141E+04  0.25500000000E-02 0.  1.
    8880023    1    1    2    0    0 -0.56941819916E+03 -0.11129162093E+04 -0.42917256136E+03  0.14767595837E+04  0.65864270000E+03 0.  1.
    8880022    1    1    2    0    0  0.56941819916E+03  0.11129162093E+04  0.47161436623E+03  0.13448536493E+04  0.15294330000E+03 0.  0.
<mgrwt>
<rscale>  0 0.13729563E+04</rscale>
<asrwt>0</asrwt>
<pdfrwt beam="1">  1        2 0.22031193E+00 0.14130215E+04</pdfrwt>
<pdfrwt beam="2">  1       -2 0.21378242E+00 0.14130215E+04</pdfrwt>
<totfact> 0.14264845E+00</totfact>
</mgrwt>
</event>
<event>
 4    1  0.2701205E-007  0.7911330E+03  0.7818608E-02  0.9730307E-01
         -2   -1    0    0    0  501 -0.00000000000E+00  0.00000000000E+00  0.30990194254E+03  0.30990194255E+03  0.25500000000E-02 0.  1.
          2   -1    0    0  501    0  0.00000000000E+00 -0.00000000000E+00 -0.31100417291E+04  0.31100417291E+04  0.25500000000E-02 0. -1.
    8880023    1    1    2    0    0 -0.40194906782E+03 -0.17469432660E+03 -0.28456036855E+04  0.29535320723E+04  0.65864270000E+03 0. -1.
    8880022    1    1    2    0    0  0.40194906782E+03  0.17469432660E+03  0.45463898971E+02  0.46641159933E+03  0.15294330000E+03 0.  0.
<mgrwt>
<rscale>  0 0.69240656E+03</rscale>
<asrwt>0</asrwt>
<pdfrwt beam="1">  1        2 0.47846794E+00 0.79113296E+03</pdfrwt>
<pdfrwt beam="2">  1       -2 0.47677224E-01 0.79113296E+03</pdfrwt>
<totfact> 0.65558903E+00</totfact>
</mgrwt>
</event>
<event>
 4    1  0.2701205E-007  0.8113288E+03  0.7818608E-02  0.9686816E-01
          2   -1    0    0  501    0  0.00000000000E+00  0.00000000000E+00  0.15560708463E+04  0.15560708463E+04  0.25500000000E-02 0. -1.
         -2   -1    0    0    0  501 -0.00000000000E+00 -0.00000000000E+00 -0.41519530479E+03  0.41519530480E+03  0.25500000000E-02 0.  1.
    8880023    1    1    2    0    0  0.43548763960E+03  0.18653362080E+03  0.10000468270E+03  0.81746890996E+03  0.65864270000E+03 0.  0.
    8880022    1    1    2    0    0 -0.43548763960E+03 -0.18653362080E+03  0.10408708588E+04  0.11537972412E+04  0.15294330000E+03 0.  0.
<mgrwt>
<rscale>  0 0.71807237E+03</rscale>
<asrwt>0</asrwt>
<pdfrwt beam="1">  1        2 0.23939551E+00 0.81132884E+03</pdfrwt>
<pdfrwt beam="2">  1       -2 0.63876202E-01 0.81132884E+03</pdfrwt>
<totfact> 0.27215259E+01</totfact>
</mgrwt>
</event>
<event>
 4    1  0.2701205E-007  0.8139916E+03  0.7818608E-02  0.9681322E-01
          2   -1    0    0  501    0  0.00000000000E+00  0.00000000000E+00  0.17522325270E+04  0.17522325270E+04  0.25500000000E-02 0. -1.
         -2   -1    0    0    0  501 -0.00000000000E+00 -0.00000000000E+00 -0.29603051839E+03  0.29603051840E+03  0.25500000000E-02 0.  1.
    8880023    1    1    2    0    0 -0.43283654773E+03 -0.20353028427E+03  0.12784128447E+04  0.15155598508E+04  0.65864270000E+03 0. -1.
    8880022    1    1    2    0    0  0.43283654773E+03  0.20353028427E+03  0.17778916387E+03  0.53270319454E+03  0.15294330000E+03 0.  0.
<mgrwt>
<rscale>  0 0.72139852E+03</rscale>
<asrwt>0</asrwt>
<pdfrwt beam="1">  1        2 0.26957423E+00 0.81399156E+03</pdfrwt>
<pdfrwt beam="2">  1       -2 0.45543158E-01 0.81399156E+03</pdfrwt>
<totfact> 0.42735049E+01</totfact>
</mgrwt>
</event>
<event>
 4    1  0.2701205E-007  0.6676453E+03  0.7818608E-02  0.1017410E+00
          2   -1    0    0  501    0  0.00000000000E+00  0.00000000000E+00  0.23494402967E+04  0.23494402967E+04  0.25500000000E-02 0. -1.
         -2   -1    0    0    0  501 -0.00000000000E+00 -0.00000000000E+00 -0.20174623846E+04  0.20174623846E+04  0.25500000000E-02 0.  1.
    8880023    1    1    2    0    0 -0.93342833996E+01  0.10887082867E+03  0.22974342250E+04  0.23924786750E+04  0.65864270000E+03 0. -1.
    8880022    1    1    2    0    0  0.93342833996E+01 -0.10887082867E+03 -0.19654563128E+04  0.19744240063E+04  0.15294330000E+03 0.  0.
<mgrwt>
<rscale>  0 0.48632859E+03</rscale>
<asrwt>0</asrwt>
<pdfrwt beam="1">  1        2 0.36145235E+00 0.66764526E+03</pdfrwt>
<pdfrwt beam="2">  1       -2 0.31037883E+00 0.66764526E+03</pdfrwt>
<totfact> 0.12897199E-01</totfact>
</mgrwt>
</event>
<event>
 4    1  0.2701205E-007  0.7563888E+03  0.7818608E-02  0.9814548E-01
         -2   -1    0    0    0  501 -0.00000000000E+00  0.00000000000E+00  0.57665181004E+03  0.57665181005E+03  0.25500000000E-02 0.  1.
          2   -1    0    0  501    0  0.00000000000E+00 -0.00000000000E+00 -0.80713003878E+03  0.80713003878E+03  0.25500000000E-02 0. -1.
    8880023    1    1    2    0    0  0.36698290183E+03  0.60310825787E+02  0.21233487419E+03  0.78562723413E+03  0.65864270000E+03 0.  0.
    8880022    1    1    2    0    0 -0.36698290183E+03 -0.60310825787E+02 -0.44281310293E+03  0.59815461470E+03  0.15294330000E+03 0.  0.
<mgrwt>
<rscale>  0 0.64587641E+03</rscale>
<asrwt>0</asrwt>
<pdfrwt beam="1">  1        2 0.12417385E+00 0.75638882E+03</pdfrwt>
<pdfrwt beam="2">  1       -2 0.88715663E-01 0.75638882E+03</pdfrwt>
<totfact> 0.37687227E+01</totfact>
</mgrwt>
</event>
<event>
 4    1  0.2701205E-007  0.1085128E+04  0.7818608E-02  0.9277798E-01
          2   -1    0    0  501    0  0.00000000000E+00  0.00000000000E+00  0.12282276008E+04  0.12282276008E+04  0.25500000000E-02 0. -1.
         -2   -1    0    0    0  501 -0.00000000000E+00 -0.00000000000E+00 -0.14006304604E+04  0.14006304604E+04  0.25500000000E-02 0.  1.
    8880023    1    1    2    0    0 -0.74533398105E+03  0.43378515247E+03  0.77893120406E+03  0.13357530942E+04  0.65864270000E+03 0.  0.
    8880022    1    1    2    0    0  0.74533398105E+03 -0.43378515247E+03 -0.95133406368E+03  0.12931049669E+04  0.15294330000E+03 0.  0.
<mgrwt>
<rscale>  0 0.10285278E+04</rscale>
<asrwt>0</asrwt>
<pdfrwt beam="1">  1        2 0.18895809E+00 0.10851279E+04</pdfrwt>
<pdfrwt beam="2">  1       -2 0.21548161E+00 0.10851279E+04</pdfrwt>
<totfact> 0.18920002E+00</totfact>
</mgrwt>
</event>
<event>
 4    1  0.2701205E-007  0.1031234E+04  0.7818608E-02  0.9341788E-01
          2   -1    0    0  501    0  0.00000000000E+00  0.00000000000E+00  0.15328030900E+04  0.15328030900E+04  0.25500000000E-02 0. -1.
         -2   -1    0    0    0  501 -0.00000000000E+00 -0.00000000000E+00 -0.75859167088E+03  0.75859167089E+03  0.25500000000E-02 0.  1.
    8880023    1    1    2    0    0  0.79108996315E+03 -0.61726209872E+02 -0.17371868470E+03  0.10457637603E+04  0.65864270000E+03 0.  0.
    8880022    1    1    2    0    0 -0.79108996315E+03  0.61726209872E+02  0.94793010385E+03  0.12456310006E+04  0.15294330000E+03 0.  0.
<mgrwt>
<rscale>  0 0.97025115E+03</rscale>
<asrwt>0</asrwt>
<pdfrwt beam="1">  1        2 0.23581586E+00 0.10312340E+04</pdfrwt>
<pdfrwt beam="2">  1       -2 0.11670641E+00 0.10312340E+04</pdfrwt>
<totfact> 0.68576761E+00</totfact>
</mgrwt>
</event>
<event>
 4    1  0.2701205E-007  0.7412139E+03  0.7818608E-02  0.9856425E-01
          2   -1    0    0  501    0  0.00000000000E+00  0.00000000000E+00  0.17576400319E+04  0.17576400319E+04  0.25500000000E-02 0. -1.
         -2   -1    0    0    0  501 -0.00000000000E+00 -0.00000000000E+00 -0.34590818320E+03  0.34590818321E+03  0.25500000000E-02 0.  1.
    8880023    1    1    2    0    0  0.31684694339E+03 -0.12327164167E+03  0.15401683267E+04  0.17092444425E+04  0.65864270000E+03 0. -1.
    8880022    1    1    2    0    0 -0.31684694339E+03  0.12327164167E+03 -0.12843647807E+03  0.39430377260E+03  0.15294330000E+03 0.  0.
<mgrwt>
<rscale>  0 0.62420398E+03</rscale>
<asrwt>0</asrwt>
<pdfrwt beam="1">  1        2 0.27040616E+00 0.74121393E+03</pdfrwt>
<pdfrwt beam="2">  1       -2 0.53216643E-01 0.74121393E+03</pdfrwt>
<totfact> 0.31198242E+01</totfact>
</mgrwt>
</event>
<event>
 4    1  0.2701205E-007  0.9971790E+03  0.7818608E-02  0.9385258E-01
         -2   -1    0    0    0  501 -0.00000000000E+00  0.00000000000E+00  0.62788301379E+03  0.62788301379E+03  0.25500000000E-02 0.  1.
          2   -1    0    0  501    0  0.00000000000E+00 -0.00000000000E+00 -0.17527409384E+04  0.17527409384E+04  0.25500000000E-02 0. -1.
    8880023    1    1    2    0    0  0.68219688622E+03 -0.30848520350E+03 -0.12576497322E+04  0.16050074042E+04  0.65864270000E+03 0.  0.
    8880022    1    1    2    0    0 -0.68219688622E+03  0.30848520350E+03  0.13279180760E+03  0.77561654800E+03  0.15294330000E+03 0.  0.
<mgrwt>
<rscale>  0 0.93298906E+03</rscale>
<asrwt>0</asrwt>
<pdfrwt beam="1">  1        2 0.26965245E+00 0.99717898E+03</pdfrwt>
<pdfrwt beam="2">  1       -2 0.96597387E-01 0.99717898E+03</pdfrwt>
<totfact> 0.82008892E+00</totfact>
</mgrwt>
</event>
<event>
 4    1  0.2701205E-007  0.6660741E+03  0.7818608E-02  0.1018649E+00
          2   -1    0    0  501    0  0.00000000000E+00  0.00000000000E+00  0.13386217252E+04  0.13386217252E+04  0.25500000000E-02 0. -1.
         -2   -1    0    0    0  501 -0.00000000000E+00 -0.00000000000E+00 -0.52072544814E+03  0.52072544814E+03  0.25500000000E-02 0.  1.
    8880023    1    1    2    0    0 -0.75254757658E+02  0.64662333028E+02  0.12355423363E+04  0.14036451000E+04  0.65864270000E+03 0. -1.
    8880022    1    1    2    0    0  0.75254757658E+02 -0.64662333028E+02 -0.41764605919E+03  0.45570207333E+03  0.15294330000E+03 0.  0.
<mgrwt>
<rscale>  0 0.48177387E+03</rscale>
<asrwt>0</asrwt>
<pdfrwt beam="1">  1        2 0.20594180E+00 0.66607410E+03</pdfrwt>
<pdfrwt beam="2">  1       -2 0.80111608E-01 0.66607410E+03</pdfrwt>
<totfact> 0.22315594E+01</totfact>
</mgrwt>
</event>
<event>
 4    1  0.2701205E-007  0.8019466E+03  0.7818608E-02  0.9706603E-01
          2   -1    0    0  501    0  0.00000000000E+00  0.00000000000E+00  0.13972929029E+04  0.13972929029E+04  0.25500000000E-02 0. -1.
         -2   -1    0    0    0  501 -0.00000000000E+00 -0.00000000000E+00 -0.16297900630E+04  0.16297900630E+04  0.25500000000E-02 0.  1.
    8880023    1    1    2    0    0 -0.40767874301E+03 -0.20762025243E+03  0.12404794552E+04  0.14771281636E+04  0.65864270000E+03 0.  0.
    8880022    1    1    2    0    0  0.40767874301E+03  0.20762025243E+03 -0.14729766153E+04  0.15499548022E+04  0.15294330000E+03 0.  0.
<mgrwt>
<rscale>  0 0.70625019E+03</rscale>
<asrwt>0</asrwt>
<pdfrwt beam="1">  1        2 0.21496814E+00 0.80194659E+03</pdfrwt>
<pdfrwt beam="2">  1       -2 0.25073693E+00 0.80194659E+03</pdfrwt>
<totfact> 0.95156761E-01</totfact>
</mgrwt>
</event>
<event>
 4    1  0.2701205E-007  0.1559855E+04  0.7818608E-02  0.8868487E-01
         -2   -1    0    0    0  501 -0.00000000000E+00  0.00000000000E+00  0.13141084527E+04  0.13141084528E+04  0.25500000000E-02 0.  1.
          2   -1    0    0  501    0  0.00000000000E+00 -0.00000000000E+00 -0.25417067761E+04  0.25417067761E+04  0.25500000000E-02 0. -1.
    8880023    1    1    2    0    0 -0.45570441273E+03  0.13385334072E+04 -0.17466977763E+04  0.23418158599E+04  0.65864270000E+03 0.  1.
    8880022    1    1    2    0    0  0.45570441273E+03 -0.13385334072E+04  0.51909945296E+03  0.15139993689E+04  0.15294330000E+03 0.  0.
<mgrwt>
<rscale>  0 0.15242474E+04</rscale>
<asrwt>0</asrwt>
<pdfrwt beam="1">  1        2 0.39103181E+00 0.15598552E+04</pdfrwt>
<pdfrwt beam="2">  1       -2 0.20217053E+00 0.15598552E+04</pdfrwt>
<totfact> 0.39552725E-01</totfact>
</mgrwt>
</event>
<event>
 4    1  0.2701205E-007  0.9179384E+03  0.7818608E-02  0.9497827E-01
         -2   -1    0    0    0  501 -0.00000000000E+00  0.00000000000E+00  0.18220448846E+04  0.18220448846E+04  0.25500000000E-02 0.  1.
          2   -1    0    0  501    0  0.00000000000E+00 -0.00000000000E+00 -0.66989331233E+03  0.66989331233E+03  0.25500000000E-02 0. -1.
    8880023    1    1    2    0    0  0.32624354184E+03 -0.54987811644E+03 -0.24308295248E+03  0.94957902229E+03  0.65864270000E+03 0. -1.
    8880022    1    1    2    0    0 -0.32624354184E+03  0.54987811644E+03  0.13952345248E+04  0.15423591747E+04  0.15294330000E+03 0.  0.
<mgrwt>
<rscale>  0 0.84444198E+03</rscale>
<asrwt>0</asrwt>
<pdfrwt beam="1">  1        2 0.10306051E+00 0.91793845E+03</pdfrwt>
<pdfrwt beam="2">  1       -2 0.28031460E+00 0.91793845E+03</pdfrwt>
<totfact> 0.18389990E+00</totfact>
</mgrwt>
</event>
<event>
 4    1  0.2701205E-007  0.1191353E+04  0.7818608E-02  0.9165573E-01
          2   -1    0    0  501    0  0.00000000000E+00  0.00000000000E+00  0.14376060275E+04  0.14376060275E+04  0.25500000000E-02 0. -1.
         -2   -1    0    0    0  501 -0.00000000000E+00 -0.00000000000E+00 -0.15084254783E+04  0.15084254783E+04  0.25500000000E-02 0.  1.
    8880023    1    1    2    0    0 -0.24825247753E+03  0.96118866905E+03  0.94261741220E+03  0.15191611969E+04  0.65864270000E+03 0. -1.
    8880022    1    1    2    0    0  0.24825247753E+03 -0.96118866905E+03 -0.10134368630E+04  0.14268703089E+04  0.15294330000E+03 0.  0.
<mgrwt>
<rscale>  0 0.11415942E+04</rscale>
<asrwt>0</asrwt>
<pdfrwt beam="1">  1        2 0.22117016E+00 0.11913535E+04</pdfrwt>
<pdfrwt beam="2">  1       -2 0.23206546E+00 0.11913535E+04</pdfrwt>
<totfact> 0.11107772E+00</totfact>
</mgrwt>
</event>
<event>
 4    1  0.2701205E-007  0.9173332E+03  0.7818608E-02  0.9498760E-01
         -2   -1    0    0    0  501 -0.00000000000E+00  0.00000000000E+00  0.17698663585E+04  0.17698663585E+04  0.25500000000E-02 0.  1.
          2   -1    0    0  501    0  0.00000000000E+00 -0.00000000000E+00 -0.86109572823E+03  0.86109572824E+03  0.25500000000E-02 0. -1.
    8880023    1    1    2    0    0  0.45450471133E+03 -0.44845908626E+03 -0.52291315934E+03  0.10559064652E+04  0.65864270000E+03 0.  0.
    8880022    1    1    2    0    0 -0.45450471133E+03  0.44845908626E+03  0.14316837896E+04  0.15750556216E+04  0.15294330000E+03 0.  0.
<mgrwt>
<rscale>  0 0.84375295E+03</rscale>
<asrwt>0</asrwt>
<pdfrwt beam="1">  1        2 0.13247627E+00 0.91733325E+03</pdfrwt>
<pdfrwt beam="2">  1       -2 0.27228713E+00 0.91733325E+03</pdfrwt>
<totfact> 0.14797492E+00</totfact>
</mgrwt>
</event>
<event>
 4    1  0.2701205E-007  0.6693657E+03  0.7818608E-02  0.1016122E+00
         -2   -1    0    0    0  501 -0.00000000000E+00  0.00000000000E+00  0.14826343629E+04  0.14826343629E+04  0.25500000000E-02 0.  1.
          2   -1    0    0  501    0  0.00000000000E+00 -0.00000000000E+00 -0.59326210901E+03  0.59326210901E+03  0.25500000000E-02 0. -1.
    8880023    1    1    2    0    0 -0.11568193277E+03 -0.29289630482E+02 -0.39482233850E+03  0.77713259954E+03  0.65864270000E+03 0. -1.
    8880022    1    1    2    0    0  0.11568193277E+03  0.29289630482E+02  0.12841945924E+04  0.12987638723E+04  0.15294330000E+03 0.  0.
<mgrwt>
<rscale>  0 0.49112497E+03</rscale>
<asrwt>0</asrwt>
<pdfrwt beam="1">  1        2 0.91271095E-01 0.66936567E+03</pdfrwt>
<pdfrwt beam="2">  1       -2 0.22809759E+00 0.66936567E+03</pdfrwt>
<totfact> 0.45808755E+00</totfact>
</mgrwt>
</event>
<event>
 4    1  0.2701205E-007  0.1240974E+04  0.7818608E-02  0.9118286E-01
         -2   -1    0    0    0  501 -0.00000000000E+00  0.00000000000E+00  0.40305947334E+03  0.40305947335E+03  0.25500000000E-02 0.  1.
          2   -1    0    0  501    0  0.00000000000E+00 -0.00000000000E+00 -0.39720912963E+04  0.39720912963E+04  0.25500000000E-02 0. -1.
    8880023    1    1    2    0    0 -0.81407828065E+03  0.66594502599E+03 -0.28018191658E+04  0.30643444762E+04  0.65864270000E+03 0. -1.
    8880022    1    1    2    0    0  0.81407828065E+03 -0.66594502599E+03 -0.76721265717E+03  0.13108062935E+04  0.15294330000E+03 0.  0.
<mgrwt>
<rscale>  0 0.11938163E+04</rscale>
<asrwt>0</asrwt>
<pdfrwt beam="1">  1        2 0.61109094E+00 0.12409740E+04</pdfrwt>
<pdfrwt beam="2">  1       -2 0.62009153E-01 0.12409740E+04</pdfrwt>
<totfact> 0.88087525E-01</totfact>
</mgrwt>
</event>
<event>
 4    1  0.4216422E-007  0.8111157E+03  0.7818608E-02  0.9687258E-01
          2   -1    0    0  501    0  0.00000000000E+00  0.00000000000E+00  0.30011219796E+04  0.30011219796E+04  0.25500000000E-02 0. -1.
         -2   -1    0    0    0  501 -0.00000000000E+00 -0.00000000000E+00 -0.12110058325E+04  0.12110058325E+04  0.25500000000E-02 0.  1.
    8880023    1    1    2    0    0  0.44408206989E+03 -0.16398053586E+03  0.28917610885E+04  0.30033632647E+04  0.65864270000E+03 0.  0.
    8880022    1    1    2    0    0 -0.44408206989E+03  0.16398053586E+03 -0.11016449414E+04  0.12087645473E+04  0.15294330000E+03 0.  1.
<mgrwt>
<rscale>  0 0.71780562E+03</rscale>
<asrwt>0</asrwt>
<pdfrwt beam="1">  1        2 0.46171107E+00 0.81111572E+03</pdfrwt>
<pdfrwt beam="2">  1       -2 0.18630859E+00 0.81111572E+03</pdfrwt>
<totfact> 0.30190095E-01</totfact>
</mgrwt>
</event>
<event>
 4    1  0.2701205E-007  0.1010140E+04  0.7818608E-02  0.9368410E-01
         -2   -1    0    0    0  501 -0.00000000000E+00  0.00000000000E+00  0.60810238052E+03  0.60810238053E+03  0.25500000000E-02 0.  1.
          2   -1    0    0  501    0  0.00000000000E+00 -0.00000000000E+00 -0.19833759819E+04  0.19833759819E+04  0.25500000000E-02 0. -1.
    8880023    1    1    2    0    0 -0.27713931772E+03  0.71397893800E+03 -0.14920124971E+04  0.18018001063E+04  0.65864270000E+03 0.  0.
    8880022    1    1    2    0    0  0.27713931772E+03 -0.71397893800E+03  0.11673889576E+03  0.78967825608E+03  0.15294330000E+03 0.  0.
<mgrwt>
<rscale>  0 0.94721617E+03</rscale>
<asrwt>0</asrwt>
<pdfrwt beam="1">  1        2 0.30513476E+00 0.10101398E+04</pdfrwt>
<pdfrwt beam="2">  1       -2 0.93554213E-01 0.10101398E+04</pdfrwt>
<totfact> 0.65904116E+00</totfact>
</mgrwt>
</event>
<event>
 4    1  0.2701205E-007  0.1210792E+04  0.7818608E-02  0.9146703E-01
         -2   -1    0    0    0  501 -0.00000000000E+00  0.00000000000E+00  0.15091828231E+04  0.15091828231E+04  0.25500000000E-02 0.  1.
          2   -1    0    0  501    0  0.00000000000E+00 -0.00000000000E+00 -0.19624918448E+04  0.19624918448E+04  0.25500000000E-02 0. -1.
    8880023    1    1    2    0    0  0.71800426134E+03 -0.71880196728E+03 -0.15513479055E+04  0.19679168980E+04  0.65864270000E+03 0. -1.
    8880022    1    1    2    0    0 -0.71800426134E+03  0.71880196728E+03  0.10980388837E+04  0.15037577699E+04  0.15294330000E+03 0.  0.
<mgrwt>
<rscale>  0 0.11620890E+04</rscale>
<asrwt>0</asrwt>
<pdfrwt beam="1">  1        2 0.30192182E+00 0.12107917E+04</pdfrwt>
<pdfrwt beam="2">  1       -2 0.23218197E+00 0.12107917E+04</pdfrwt>
<totfact> 0.56364867E-01</totfact>
</mgrwt>
</event>
<event>
 4    1  0.2701205E-007  0.7110999E+03  0.7818608E-02  0.9953939E-01
          2   -1    0    0  501    0  0.00000000000E+00  0.00000000000E+00  0.21304541405E+04  0.21304541405E+04  0.25500000000E-02 0. -1.
         -2   -1    0    0    0  501 -0.00000000000E+00 -0.00000000000E+00 -0.15199291253E+04  0.15199291253E+04  0.25500000000E-02 0.  1.
    8880023    1    1    2    0    0 -0.15535746574E+03 -0.21844210895E+03  0.20543514597E+04  0.21739418170E+04  0.65864270000E+03 0. -1.
    8880022    1    1    2    0    0  0.15535746574E+03  0.21844210895E+03 -0.14438264445E+04  0.14764414489E+04  0.15294330000E+03 0.  0.
<mgrwt>
<rscale>  0 0.57716899E+03</rscale>
<asrwt>0</asrwt>
<pdfrwt beam="1">  1        2 0.32776217E+00 0.71109993E+03</pdfrwt>
<pdfrwt beam="2">  1       -2 0.23383525E+00 0.71109993E+03</pdfrwt>
<totfact> 0.48609452E-01</totfact>
</mgrwt>
</event>
<event>
 4    1  0.2701205E-007  0.8466705E+03  0.7818608E-02  0.9617728E-01
          2   -1    0    0  501    0  0.00000000000E+00  0.00000000000E+00  0.29551105680E+04  0.29551105680E+04  0.25500000000E-02 0. -1.
         -2   -1    0    0    0  501 -0.00000000000E+00 -0.00000000000E+00 -0.68642258132E+03  0.68642258132E+03  0.25500000000E-02 0.  1.
    8880023    1    1    2    0    0 -0.22386998371E+03 -0.48262093917E+03  0.27688952787E+04  0.28954502259E+04  0.65864270000E+03 0. -1.
    8880022    1    1    2    0    0  0.22386998371E+03  0.48262093917E+03 -0.50020729200E+03  0.74608292335E+03  0.15294330000E+03 0.  0.
<mgrwt>
<rscale>  0 0.76133826E+03</rscale>
<asrwt>0</asrwt>
<pdfrwt beam="1">  1        2 0.45463240E+00 0.84667051E+03</pdfrwt>
<pdfrwt beam="2">  1       -2 0.10560347E+00 0.84667051E+03</pdfrwt>
<totfact> 0.14078577E+00</totfact>
</mgrwt>
</event>
<event>
 4    1  0.2701205E-007  0.1415908E+04  0.7818608E-02  0.8971419E-01
         -2   -1    0    0    0  501 -0.00000000000E+00  0.00000000000E+00  0.14650714736E+04  0.14650714736E+04  0.25500000000E-02 0.  1.
          2   -1    0    0  501    0  0.00000000000E+00 -0.00000000000E+00 -0.18647024092E+04  0.18647024092E+04  0.25500000000E-02 0. -1.
    8880023    1    1    2    0    0  0.12521149010E+04 -0.56512324804E+02 -0.11819337018E+04  0.18443868493E+04  0.65864270000E+03 0. -1.
    8880022    1    1    2    0    0 -0.12521149010E+04  0.56512324804E+02  0.78230276617E+03  0.14853870335E+04  0.15294330000E+03 0.  0.
<mgrwt>
<rscale>  0 0.13759421E+04</rscale>
<asrwt>0</asrwt>
<pdfrwt beam="1">  1        2 0.28687729E+00 0.14159080E+04</pdfrwt>
<pdfrwt beam="2">  1       -2 0.22539561E+00 0.14159080E+04</pdfrwt>
<totfact> 0.68733203E-01</totfact>
</mgrwt>
</event>
<event>
 4    1  0.2701205E-007  0.9441034E+03  0.7818608E-02  0.9458649E-01
         -2   -1    0    0    0  501 -0.00000000000E+00  0.00000000000E+00  0.58115031597E+03  0.58115031598E+03  0.25500000000E-02 0.  1.
          2   -1    0    0  501    0  0.00000000000E+00 -0.00000000000E+00 -0.17972860895E+04  0.17972860895E+04  0.25500000000E-02 0. -1.
    8880023    1    1    2    0    0  0.52364111333E+03 -0.42815995675E+03 -0.13741157353E+04  0.16671908182E+04  0.65864270000E+03 0. -1.
    8880022    1    1    2    0    0 -0.52364111333E+03  0.42815995675E+03  0.15797996171E+03  0.71124558730E+03  0.15294330000E+03 0.  0.
<mgrwt>
<rscale>  0 0.87402314E+03</rscale>
<asrwt>0</asrwt>
<pdfrwt beam="1">  1        2 0.27650555E+00 0.94410337E+03</pdfrwt>
<pdfrwt beam="2">  1       -2 0.89407742E-01 0.94410337E+03</pdfrwt>
<totfact> 0.93395274E+00</totfact>
</mgrwt>
</event>
<event>
 4    1  0.2701205E-007  0.1201271E+04  0.7818608E-02  0.9155888E-01
          2   -1    0    0  501    0  0.00000000000E+00  0.00000000000E+00  0.22313143428E+04  0.22313143428E+04  0.25500000000E-02 0. -1.
         -2   -1    0    0    0  501 -0.00000000000E+00 -0.00000000000E+00 -0.55562302720E+03  0.55562302720E+03  0.25500000000E-02 0.  1.
    8880023    1    1    2    0    0 -0.39693474931E+03  0.92286802507E+03  0.10349229444E+04  0.15855971411E+04  0.65864270000E+03 0.  0.
    8880022    1    1    2    0    0  0.39693474931E+03 -0.92286802507E+03  0.64076837119E+03  0.12013402288E+04  0.15294330000E+03 0.  0.
<mgrwt>
<rscale>  0 0.11520575E+04</rscale>
<asrwt>0</asrwt>
<pdfrwt beam="1">  1        2 0.34327912E+00 0.12012713E+04</pdfrwt>
<pdfrwt beam="2">  1       -2 0.85480467E-01 0.12012713E+04</pdfrwt>
<totfact> 0.57951046E+00</totfact>
</mgrwt>
</event>
<event>
 4    1  0.2701205E-007  0.7168460E+03  0.7818608E-02  0.9933406E-01
          2   -1    0    0  501    0  0.00000000000E+00  0.00000000000E+00  0.54197112842E+03  0.54197112843E+03  0.25500000000E-02 0. -1.
         -2   -1    0    0    0  501 -0.00000000000E+00 -0.00000000000E+00 -0.10103679455E+04  0.10103679455E+04  0.25500000000E-02 0.  1.
    8880023    1    1    2    0    0  0.18266643985E+03 -0.21608101269E+03  0.25484915818E+03  0.76079979757E+03  0.65864270000E+03 0. -1.
    8880022    1    1    2    0    0 -0.18266643985E+03  0.21608101269E+03 -0.72324597527E+03  0.79153927638E+03  0.15294330000E+03 0.  0.
<mgrwt>
<rscale>  0 0.58669254E+03</rscale>
<asrwt>0</asrwt>
<pdfrwt beam="1">  1        2 0.83380174E-01 0.71684604E+03</pdfrwt>
<pdfrwt beam="2">  1       -2 0.15544122E+00 0.71684604E+03</pdfrwt>
<totfact> 0.15530538E+01</totfact>
</mgrwt>
</event>
<event>
 4    1  0.2701205E-007  0.1588431E+04  0.7818608E-02  0.8849591E-01
         -2   -1    0    0    0  501 -0.00000000000E+00  0.00000000000E+00  0.16391757216E+04  0.16391757216E+04  0.25500000000E-02 0.  1.
          2   -1    0    0  501    0  0.00000000000E+00 -0.00000000000E+00 -0.20508641259E+04  0.20508641259E+04  0.25500000000E-02 0. -1.
    8880023    1    1    2    0    0 -0.11071774972E+04 -0.92922527786E+03  0.81750987083E+03  0.17864585700E+04  0.65864270000E+03 0.  1.
    8880022    1    1    2    0    0  0.11071774972E+04  0.92922527786E+03 -0.12291982752E+04  0.19035812775E+04  0.15294330000E+03 0.  0.
<mgrwt>
<rscale>  0 0.15535697E+04</rscale>
<asrwt>0</asrwt>
<pdfrwt beam="1">  1        2 0.31551756E+00 0.15884306E+04</pdfrwt>
<pdfrwt beam="2">  1       -2 0.25218088E+00 0.15884306E+04</pdfrwt>
<totfact> 0.36211555E-01</totfact>
</mgrwt>
</event>
<event>
 4    1  0.2701205E-007  0.7027231E+03  0.7818608E-02  0.9986087E-01
          2   -1    0    0  501    0  0.00000000000E+00  0.00000000000E+00  0.13081465374E+04  0.13081465374E+04  0.25500000000E-02 0. -1.
         -2   -1    0    0    0  501 -0.00000000000E+00 -0.00000000000E+00 -0.35739790941E+03  0.35739790942E+03  0.25500000000E-02 0.  1.
    8880023    1    1    2    0    0  0.19764252860E+02 -0.24416977905E+03  0.11263273437E+04  0.13275665701E+04  0.65864270000E+03 0.  0.
    8880022    1    1    2    0    0 -0.19764252860E+02  0.24416977905E+03 -0.17557871573E+03  0.33797787668E+03  0.15294330000E+03 0.  0.
<mgrwt>
<rscale>  0 0.56264527E+03</rscale>
<asrwt>0</asrwt>
<pdfrwt beam="1">  1        2 0.20125332E+00 0.70272307E+03</pdfrwt>
<pdfrwt beam="2">  1       -2 0.54984293E-01 0.70272307E+03</pdfrwt>
<totfact> 0.52077673E+01</totfact>
</mgrwt>
</event>
<event>
 4    1  0.2701205E-007  0.9336064E+03  0.7818608E-02  0.9474104E-01
          2   -1    0    0  501    0  0.00000000000E+00  0.00000000000E+00  0.12912456771E+04  0.12912456771E+04  0.25500000000E-02 0. -1.
         -2   -1    0    0    0  501 -0.00000000000E+00 -0.00000000000E+00 -0.72825964507E+03  0.72825964507E+03  0.25500000000E-02 0.  1.
    8880023    1    1    2    0    0  0.57799311591E+03  0.32207876956E+03  0.86824069824E+03  0.12749364267E+04  0.65864270000E+03 0.  0.
    8880022    1    1    2    0    0 -0.57799311591E+03 -0.32207876956E+03 -0.30525466619E+03  0.74456889546E+03  0.15294330000E+03 0.  0.
<mgrwt>
<rscale>  0 0.86220260E+03</rscale>
<asrwt>0</asrwt>
<pdfrwt beam="1">  1        2 0.19865318E+00 0.93360644E+03</pdfrwt>
<pdfrwt beam="2">  1       -2 0.11203995E+00 0.93360644E+03</pdfrwt>
<totfact> 0.10510692E+01</totfact>
</mgrwt>
</event>
<event>
 4    1  0.2701205E-007  0.7303146E+03  0.7818608E-02  0.9889115E-01
         -2   -1    0    0    0  501 -0.00000000000E+00  0.00000000000E+00  0.40514869430E+03  0.40514869430E+03  0.25500000000E-02 0.  1.
          2   -1    0    0  501    0  0.00000000000E+00 -0.00000000000E+00 -0.72967066267E+03  0.72967066267E+03  0.25500000000E-02 0. -1.
    8880023    1    1    2    0    0  0.15208450404E+03  0.27644079196E+03 -0.16059891101E+03  0.74776428392E+03  0.65864270000E+03 0. -1.
    8880022    1    1    2    0    0 -0.15208450404E+03 -0.27644079196E+03 -0.16392305737E+03  0.38705507306E+03  0.15294330000E+03 0.  1.
<mgrwt>
<rscale>  0 0.60791732E+03</rscale>
<asrwt>0</asrwt>
<pdfrwt beam="1">  1        2 0.11225703E+00 0.73031460E+03</pdfrwt>
<pdfrwt beam="2">  1       -2 0.62330568E-01 0.73031460E+03</pdfrwt>
<totfact> 0.94053529E+01</totfact>
</mgrwt>
</event>
<event>
 4    1  0.2701205E-007  0.1071877E+04  0.7818608E-02  0.9293032E-01
          2   -1    0    0  501    0  0.00000000000E+00  0.00000000000E+00  0.21515417936E+04  0.21515417936E+04  0.25500000000E-02 0. -1.
         -2   -1    0    0    0  501 -0.00000000000E+00 -0.00000000000E+00 -0.74601005125E+03  0.74601005125E+03  0.25500000000E-02 0.  1.
    8880023    1    1    2    0    0  0.60408117577E+03 -0.59177450607E+03  0.16822689189E+04  0.19947305719E+04  0.65864270000E+03 0.  0.
    8880022    1    1    2    0    0 -0.60408117577E+03  0.59177450607E+03 -0.27673717652E+03  0.90282127292E+03  0.15294330000E+03 0.  0.
<mgrwt>
<rscale>  0 0.10142684E+04</rscale>
<asrwt>0</asrwt>
<pdfrwt beam="1">  1        2 0.33100642E+00 0.10718775E+04</pdfrwt>
<pdfrwt beam="2">  1       -2 0.11477078E+00 0.10718775E+04</pdfrwt>
<totfact> 0.32331429E+00</totfact>
</mgrwt>
</event>
<event>
 4    1  0.2701205E-007  0.6678366E+03  0.7818608E-02  0.1017264E+00
          2   -1    0    0  501    0  0.00000000000E+00  0.00000000000E+00  0.20250941315E+04  0.20250941315E+04  0.25500000000E-02 0. -1.
         -2   -1    0    0    0  501 -0.00000000000E+00 -0.00000000000E+00 -0.81409165841E+03  0.81409165842E+03  0.25500000000E-02 0.  1.
    8880023    1    1    2    0    0 -0.53572031105E+02 -0.96568928387E+02  0.19579873839E+04  0.20687484918E+04  0.65864270000E+03 0. -1.
    8880022    1    1    2    0    0  0.53572031105E+02  0.96568928387E+02 -0.74698491079E+03  0.77043729817E+03  0.15294330000E+03 0.  0.
<mgrwt>
<rscale>  0 0.48687150E+03</rscale>
<asrwt>0</asrwt>
<pdfrwt beam="1">  1        2 0.31155294E+00 0.66783660E+03</pdfrwt>
<pdfrwt beam="2">  1       -2 0.12524487E+00 0.66783660E+03</pdfrwt>
<totfact> 0.32514386E+00</totfact>
</mgrwt>
</event>
<event>
 4    1  0.2701205E-007  0.6826094E+03  0.7818608E-02  0.1007884E+00
          2   -1    0    0  501    0  0.00000000000E+00  0.00000000000E+00  0.95826711552E+03  0.95826711552E+03  0.25500000000E-02 0. -1.
         -2   -1    0    0    0  501 -0.00000000000E+00 -0.00000000000E+00 -0.79702751606E+03  0.79702751606E+03  0.25500000000E-02 0.  1.
    8880023    1    1    2    0    0  0.16328299993E+03 -0.74054746312E+02  0.81339267303E+03  0.10618678309E+04  0.65864270000E+03 0. -1.
    8880022    1    1    2    0    0 -0.16328299993E+03  0.74054746312E+02 -0.65215307357E+03  0.69342680068E+03  0.15294330000E+03 0.  0.
<mgrwt>
<rscale>  0 0.52324142E+03</rscale>
<asrwt>0</asrwt>
<pdfrwt beam="1">  1        2 0.14742571E+00 0.68260944E+03</pdfrwt>
<pdfrwt beam="2">  1       -2 0.12261962E+00 0.68260944E+03</pdfrwt>
<totfact> 0.13821365E+01</totfact>
</mgrwt>
</event>
<event>
 4    1  0.2701205E-007  0.6700842E+03  0.7818608E-02  0.1015603E+00
          2   -1    0    0  501    0  0.00000000000E+00  0.00000000000E+00  0.22186177803E+04  0.22186177803E+04  0.25500000000E-02 0. -1.
         -2   -1    0    0    0  501 -0.00000000000E+00 -0.00000000000E+00 -0.58880212738E+03  0.58880212738E+03  0.25500000000E-02 0.  1.
    8880023    1    1    2    0    0 -0.14291739066E+02  0.12246776018E+03  0.21496682712E+04  0.22516852553E+04  0.65864270000E+03 0. -1.
    8880022    1    1    2    0    0  0.14291739066E+02 -0.12246776018E+03 -0.51985261833E+03  0.55573465241E+03  0.15294330000E+03 0.  0.
<mgrwt>
<rscale>  0 0.49307430E+03</rscale>
<asrwt>0</asrwt>
<pdfrwt beam="1">  1        2 0.34132581E+00 0.67008418E+03</pdfrwt>
<pdfrwt beam="2">  1       -2 0.90584944E-01 0.67008418E+03</pdfrwt>
<totfact> 0.55458090E+00</totfact>
</mgrwt>
</event>
<event>
 4    1  0.2701205E-007  0.7011016E+03  0.7818608E-02  0.9992661E-01
         -2   -1    0    0    0  501 -0.00000000000E+00  0.00000000000E+00  0.15539494925E+03  0.15539494927E+03  0.25500000000E-02 0.  1.
          2   -1    0    0  501    0  0.00000000000E+00 -0.00000000000E+00 -0.22441655207E+04  0.22441655207E+04  0.25500000000E-02 0. -1.
    8880023    1    1    2    0    0 -0.16094557627E+03  0.17840918646E+03 -0.19698666673E+04  0.20909132478E+04  0.65864270000E+03 0. -1.
    8880022    1    1    2    0    0  0.16094557627E+03 -0.17840918646E+03 -0.11890390408E+03  0.30864722217E+03  0.15294330000E+03 0.  0.
<mgrwt>
<rscale>  0 0.55973190E+03</rscale>
<asrwt>0</asrwt>
<pdfrwt beam="1">  1        2 0.34525621E+00 0.70110165E+03</pdfrwt>
<pdfrwt beam="2">  1       -2 0.23906917E-01 0.70110165E+03</pdfrwt>
<totfact> 0.78700740E+01</totfact>
</mgrwt>
</event>
<event>
 4    1  0.2701205E-007  0.7960958E+03  0.7818608E-02  0.9719302E-01
          2   -1    0    0  501    0  0.00000000000E+00  0.00000000000E+00  0.11269708185E+04  0.11269708185E+04  0.25500000000E-02 0. -1.
         -2   -1    0    0    0  501 -0.00000000000E+00 -0.00000000000E+00 -0.62314638870E+03  0.62314638871E+03  0.25500000000E-02 0.  1.
    8880023    1    1    2    0    0  0.28654062364E+03  0.34329687162E+03  0.84977720812E+03  0.11644268035E+04  0.65864270000E+03 0.  0.
    8880022    1    1    2    0    0 -0.28654062364E+03 -0.34329687162E+03 -0.34595277836E+03  0.58569040365E+03  0.15294330000E+03 0.  0.
<mgrwt>
<rscale>  0 0.69879086E+03</rscale>
<asrwt>0</asrwt>
<pdfrwt beam="1">  1        2 0.17338012E+00 0.79609577E+03</pdfrwt>
<pdfrwt beam="2">  1       -2 0.95868677E-01 0.79609577E+03</pdfrwt>
<totfact> 0.19383168E+01</totfact>
</mgrwt>
</event>
<event>
 4    1  0.3705075E-007  0.1089465E+04  0.7818608E-02  0.9272877E-01
         -2   -1    0    0    0  501 -0.00000000000E+00  0.00000000000E+00  0.13800125076E+04  0.13800125076E+04  0.25500000000E-02 0.  1.
          2   -1    0    0  501    0  0.00000000000E+00 -0.00000000000E+00 -0.22069269644E+04  0.22069269644E+04  0.25500000000E-02 0. -1.
    8880023    1    1    2    0    0  0.74923811799E+03 -0.43791125342E+03 -0.19050047513E+04  0.21945335113E+04  0.65864270000E+03 0.  0.
    8880022    1    1    2    0    0 -0.74923811799E+03  0.43791125342E+03  0.10780902945E+04  0.13924059607E+04  0.15294330000E+03 0.  0.
<mgrwt>
<rscale>  0 0.10331866E+04</rscale>
<asrwt>0</asrwt>
<pdfrwt beam="1">  1        2 0.33952723E+00 0.10894651E+04</pdfrwt>
<pdfrwt beam="2">  1       -2 0.21230962E+00 0.10894651E+04</pdfrwt>
<totfact> 0.55974412E-01</totfact>
</mgrwt>
</event>
<event>
 4    1  0.2701205E-007  0.7235740E+03  0.7818608E-02  0.9910673E-01
          2   -1    0    0  501    0  0.00000000000E+00  0.00000000000E+00  0.21962928867E+04  0.21962928867E+04  0.25500000000E-02 0. -1.
         -2   -1    0    0    0  501 -0.00000000000E+00 -0.00000000000E+00 -0.17482341075E+03  0.17482341077E+03  0.25500000000E-02 0.  1.
    8880023    1    1    2    0    0  0.24112083634E+03 -0.17779164157E+03  0.69725716574E+03  0.10048516741E+04  0.65864270000E+03 0.  1.
    8880022    1    1    2    0    0 -0.24112083634E+03  0.17779164157E+03  0.13242123103E+04  0.13662646234E+04  0.15294330000E+03 0.  0.
<mgrwt>
<rscale>  0 0.59746794E+03</rscale>
<asrwt>0</asrwt>
<pdfrwt beam="1">  1        2 0.33789124E+00 0.72357400E+03</pdfrwt>
<pdfrwt beam="2">  1       -2 0.26895907E-01 0.72357400E+03</pdfrwt>
<totfact> 0.67408099E+01</totfact>
</mgrwt>
</event>
<event>
 4    1  0.2701205E-007  0.9698707E+03  0.7818608E-02  0.9422083E-01
          2   -1    0    0  501    0  0.00000000000E+00  0.00000000000E+00  0.24211049517E+04  0.24211049517E+04  0.25500000000E-02 0. -1.
         -2   -1    0    0    0  501 -0.00000000000E+00 -0.00000000000E+00 -0.48646645681E+03  0.48646645682E+03  0.25500000000E-02 0.  1.
    8880023    1    1    2    0    0 -0.40108774417E+03  0.58819005359E+03  0.19514853310E+04  0.21792072231E+04  0.65864270000E+03 0. -1.
    8880022    1    1    2    0    0  0.40108774417E+03 -0.58819005359E+03 -0.16846836172E+02  0.72836418540E+03  0.15294330000E+03 0.  0.
<mgrwt>
<rscale>  0 0.90280398E+03</rscale>
<asrwt>0</asrwt>
<pdfrwt beam="1">  1        2 0.37247768E+00 0.96987067E+03</pdfrwt>
<pdfrwt beam="2">  1       -2 0.74840994E-01 0.96987067E+03</pdfrwt>
<totfact> 0.62843505E+00</totfact>
</mgrwt>
</event>
<event>
 4    1  0.2701205E-007  0.8740095E+03  0.7818608E-02  0.9569113E-01
         -2   -1    0    0    0  501 -0.00000000000E+00  0.00000000000E+00  0.60767794610E+03  0.60767794610E+03  0.25500000000E-02 0.  1.
          2   -1    0    0  501    0  0.00000000000E+00 -0.00000000000E+00 -0.15178977051E+04  0.15178977051E+04  0.25500000000E-02 0. -1.
    8880023    1    1    2    0    0 -0.57451235088E+03  0.42448002476E+01 -0.11834943942E+04  0.14712415325E+04  0.65864270000E+03 0. -1.
    8880022    1    1    2    0    0  0.57451235088E+03 -0.42448002476E+01  0.27327463518E+03  0.65433411870E+03  0.15294330000E+03 0.  1.
<mgrwt>
<rscale>  0 0.79374651E+03</rscale>
<asrwt>0</asrwt>
<pdfrwt beam="1">  1        2 0.23352272E+00 0.87400953E+03</pdfrwt>
<pdfrwt beam="2">  1       -2 0.93488915E-01 0.87400953E+03</pdfrwt>
<totfact> 0.12112167E+01</totfact>
</mgrwt>
</event>
<event>
 4    1  0.2701205E-007  0.7806578E+03  0.7818608E-02  0.9754294E-01
         -2   -1    0    0    0  501 -0.00000000000E+00  0.00000000000E+00  0.20479972259E+03  0.20479972260E+03  0.25500000000E-02 0.  1.
          2   -1    0    0  501    0  0.00000000000E+00 -0.00000000000E+00 -0.28459777947E+04  0.28459777947E+04  0.25500000000E-02 0. -1.
    8880023    1    1    2    0    0  0.25277911535E+03  0.33424398761E+03 -0.24392037664E+04  0.25610821042E+04  0.65864270000E+03 0. -1.
    8880022    1    1    2    0    0 -0.25277911535E+03 -0.33424398761E+03 -0.20197430576E+03  0.48969541310E+03  0.15294330000E+03 0.  1.
<mgrwt>
<rscale>  0 0.67874137E+03</rscale>
<asrwt>0</asrwt>
<pdfrwt beam="1">  1        2 0.43784271E+00 0.78065776E+03</pdfrwt>
<pdfrwt beam="2">  1       -2 0.31507652E-01 0.78065776E+03</pdfrwt>
<totfact> 0.21278841E+01</totfact>
</mgrwt>
</event>
<event>
 4    1  0.2701205E-007  0.9609481E+03  0.7818608E-02  0.9434534E-01
          2   -1    0    0  501    0  0.00000000000E+00  0.00000000000E+00  0.14003254855E+04  0.14003254855E+04  0.25500000000E-02 0. -1.
         -2   -1    0    0    0  501 -0.00000000000E+00 -0.00000000000E+00 -0.56704978145E+03  0.56704978146E+03  0.25500000000E-02 0.  1.
    8880023    1    1    2    0    0 -0.30960107023E+03 -0.62750163812E+03  0.79998669590E+03  0.12503599675E+04  0.65864270000E+03 0. -1.
    8880022    1    1    2    0    0  0.30960107023E+03  0.62750163812E+03  0.33289008151E+02  0.71701529943E+03  0.15294330000E+03 0.  0.
<mgrwt>
<rscale>  0 0.89287349E+03</rscale>
<asrwt>0</asrwt>
<pdfrwt beam="1">  1        2 0.21543469E+00 0.96094814E+03</pdfrwt>
<pdfrwt beam="2">  1       -2 0.87238428E-01 0.96094814E+03</pdfrwt>
<totfact> 0.16415284E+01</totfact>
</mgrwt>
</event>
<event>
 4    1  0.2701205E-007  0.7189500E+03  0.7818608E-02  0.9926155E-01
          2   -1    0    0  501    0  0.00000000000E+00  0.00000000000E+00  0.17390572178E+04  0.17390572178E+04  0.25500000000E-02 0. -1.
         -2   -1    0    0    0  501 -0.00000000000E+00 -0.00000000000E+00 -0.16714162769E+03  0.16714162771E+03  0.25500000000E-02 0.  1.
    8880023    1    1    2    0    0  0.17012751679E+03 -0.23267036430E+03  0.12814060335E+04  0.14693163374E+04  0.65864270000E+03 0. -1.
    8880022    1    1    2    0    0 -0.17012751679E+03  0.23267036430E+03  0.29050955661E+03  0.43688250811E+03  0.15294330000E+03 0.  0.
<mgrwt>
<rscale>  0 0.59010281E+03</rscale>
<asrwt>0</asrwt>
<pdfrwt beam="1">  1        2 0.26754725E+00 0.71894998E+03</pdfrwt>
<pdfrwt beam="2">  1       -2 0.25714098E-01 0.71894998E+03</pdfrwt>
<totfact> 0.13000268E+02</totfact>
</mgrwt>
</event>
<event>
 4    1  0.2701205E-007  0.7052379E+03  0.7818608E-02  0.9976129E-01
          2   -1    0    0  501    0  0.00000000000E+00  0.00000000000E+00  0.12644481463E+04  0.12644481463E+04  0.25500000000E-02 0. -1.
         -2   -1    0    0    0  501 -0.00000000000E+00 -0.00000000000E+00 -0.73539167297E+03  0.73539167297E+03  0.25500000000E-02 0.  1.
    8880023    1    1    2    0    0 -0.23523716293E+03 -0.90629703188E+02  0.11291076395E+04  0.13312567497E+04  0.65864270000E+03 0. -1.
    8880022    1    1    2    0    0  0.23523716293E+03  0.90629703188E+02 -0.60005116613E+03  0.66858306957E+03  0.15294330000E+03 0.  0.
<mgrwt>
<rscale>  0 0.56709442E+03</rscale>
<asrwt>0</asrwt>
<pdfrwt beam="1">  1        2 0.19453048E+00 0.70523788E+03</pdfrwt>
<pdfrwt beam="2">  1       -2 0.11313718E+00 0.70523788E+03</pdfrwt>
<totfact> 0.10926099E+01</totfact>
</mgrwt>
</event>
<event>
 4    1  0.2701205E-007  0.6670908E+03  0.7818608E-02  0.1017840E+00
          2   -1    0    0  501    0  0.00000000000E+00  0.00000000000E+00  0.33568552979E+04  0.33568552979E+04  0.25500000000E-02 0. -1.
         -2   -1    0    0    0  501 -0.00000000000E+00 -0.00000000000E+00 -0.89596141512E+02  0.89596141548E+02  0.25500000000E-02 0.  1.
    8880023    1    1    2    0    0  0.73301952314E+02 -0.76333056841E+02  0.31643284787E+04  0.32338807707E+04  0.65864270000E+03 0.  0.
    8880022    1    1    2    0    0 -0.73301952314E+02  0.76333056841E+02  0.10293067766E+03  0.21257066872E+03  0.15294330000E+03 0.  1.
<mgrwt>
<rscale>  0 0.48474126E+03</rscale>
<asrwt>0</asrwt>
<pdfrwt beam="1">  1        2 0.51643918E+00 0.66709079E+03</pdfrwt>
<pdfrwt beam="2">  1       -2 0.13784024E-01 0.66709079E+03</pdfrwt>
<totfact> 0.44679333E+01</totfact>
</mgrwt>
</event>
<event>
 4    1  0.2701205E-007  0.7667649E+03  0.7818608E-02  0.9787899E-01
         -2   -1    0    0    0  501 -0.00000000000E+00  0.00000000000E+00  0.53480466641E+03  0.53480466641E+03  0.25500000000E-02 0.  1.
          2   -1    0    0  501    0  0.00000000000E+00 -0.00000000000E+00 -0.40705525065E+04  0.40705525065E+04  0.25500000000E-02 0. -1.
    8880023    1    1    2    0    0  0.14843489162E+02  0.39229815904E+03 -0.39445040493E+04  0.40183380366E+04  0.65864270000E+03 0.  0.
    8880022    1    1    2    0    0 -0.14843489162E+02 -0.39229815904E+03  0.40875620927E+03  0.58701913630E+03  0.15294330000E+03 0.  0.
<mgrwt>
<rscale>  0 0.66016039E+03</rscale>
<asrwt>0</asrwt>
<pdfrwt beam="1">  1        2 0.62623883E+00 0.76676488E+03</pdfrwt>
<pdfrwt beam="2">  1       -2 0.82277644E-01 0.76676488E+03</pdfrwt>
<totfact> 0.43238454E-01</totfact>
</mgrwt>
</event>
<event>
 4    1  0.2701205E-007  0.9059386E+03  0.7818608E-02  0.9516565E-01
         -2   -1    0    0    0  501 -0.00000000000E+00  0.00000000000E+00  0.55842711120E+03  0.55842711121E+03  0.25500000000E-02 0.  1.
          2   -1    0    0  501    0  0.00000000000E+00 -0.00000000000E+00 -0.14980963796E+04  0.14980963796E+04  0.25500000000E-02 0. -1.
    8880023    1    1    2    0    0 -0.61474537391E+03  0.94882540805E+02 -0.10708720390E+04  0.14026730558E+04  0.65864270000E+03 0.  0.
    8880022    1    1    2    0    0  0.61474537391E+03 -0.94882540805E+02  0.13120277064E+03  0.65385043498E+03  0.15294330000E+03 0.  0.
<mgrwt>
<rscale>  0 0.83073516E+03</rscale>
<asrwt>0</asrwt>
<pdfrwt beam="1">  1        2 0.23047636E+00 0.90593862E+03</pdfrwt>
<pdfrwt beam="2">  1       -2 0.85911864E-01 0.90593862E+03</pdfrwt>
<totfact> 0.15053451E+01</totfact>
</mgrwt>
</event>
<event>
 4    1  0.2701205E-007  0.1592229E+04  0.7818608E-02  0.8847114E-01
          2   -1    0    0  501    0  0.00000000000E+00  0.00000000000E+00  0.22894859468E+04  0.22894859468E+04  0.25500000000E-02 0. -1.
         -2   -1    0    0    0  501 -0.00000000000E+00 -0.00000000000E+00 -0.14735020659E+04  0.14735020659E+04  0.25500000000E-02 0.  1.
    8880023    1    1    2    0    0 -0.74443899933E+03  0.12438621218E+04  0.14684205745E+04  0.21659758982E+04  0.65864270000E+03 0.  0.
    8880022    1    1    2    0    0  0.74443899933E+03 -0.12438621218E+04 -0.65243669363E+03  0.15970121145E+04  0.15294330000E+03 0.  0.
<mgrwt>
<rscale>  0 0.15574647E+04</rscale>
<asrwt>0</asrwt>
<pdfrwt beam="1">  1        2 0.35222860E+00 0.15922288E+04</pdfrwt>
<pdfrwt beam="2">  1       -2 0.22669263E+00 0.15922288E+04</pdfrwt>
<totfact> 0.38274168E-01</totfact>
</mgrwt>
</event>
<event>
 4    1  0.2701205E-007  0.7834576E+03  0.7818608E-02  0.9747777E-01
          2   -1    0    0  501    0  0.00000000000E+00  0.00000000000E+00  0.14638967825E+04  0.14638967825E+04  0.25500000000E-02 0. -1.
         -2   -1    0    0    0  501 -0.00000000000E+00 -0.00000000000E+00 -0.18387673238E+04  0.18387673239E+04  0.25500000000E-02 0.  1.
    8880023    1    1    2    0    0 -0.30136911095E+03 -0.29861731782E+03  0.13275666682E+04  0.15415054681E+04  0.65864270000E+03 0. -1.
    8880022    1    1    2    0    0  0.30136911095E+03  0.29861731782E+03 -0.17024372095E+04  0.17611586382E+04  0.15294330000E+03 0.  0.
<mgrwt>
<rscale>  0 0.68242057E+03</rscale>
<asrwt>0</asrwt>
<pdfrwt beam="1">  1        2 0.22521489E+00 0.78345762E+03</pdfrwt>
<pdfrwt beam="2">  1       -2 0.28288728E+00 0.78345762E+03</pdfrwt>
<totfact> 0.56085425E-01</totfact>
</mgrwt>
</event>
<event>
 4    1  0.2701205E-007  0.7401596E+03  0.7818608E-02  0.9859482E-01
         -2   -1    0    0    0  501 -0.00000000000E+00  0.00000000000E+00  0.34816022238E+03  0.34816022239E+03  0.25500000000E-02 0.  1.
          2   -1    0    0  501    0  0.00000000000E+00 -0.00000000000E+00 -0.12834050905E+04  0.12834050905E+04  0.25500000000E-02 0. -1.
    8880023    1    1    2    0    0  0.33280543826E+03 -0.57153663906E+02 -0.10112240497E+04  0.12531601199E+04  0.65864270000E+03 0. -1.
    8880022    1    1    2    0    0 -0.33280543826E+03  0.57153663906E+02  0.75979181627E+02  0.37840519300E+03  0.15294330000E+03 0.  0.
<mgrwt>
<rscale>  0 0.62265767E+03</rscale>
<asrwt>0</asrwt>
<pdfrwt beam="1">  1        2 0.19744693E+00 0.74015958E+03</pdfrwt>
<pdfrwt beam="2">  1       -2 0.53563112E-01 0.74015958E+03</pdfrwt>
<totfact> 0.56599699E+01</totfact>
</mgrwt>
</event>
<event>
 4    1  0.2701205E-007  0.2093586E+04  0.7818608E-02  0.8575466E-01
         -2   -1    0    0    0  501 -0.00000000000E+00  0.00000000000E+00  0.23755116553E+04  0.23755116553E+04  0.25500000000E-02 0.  1.
          2   -1    0    0  501    0  0.00000000000E+00 -0.00000000000E+00 -0.21511216076E+04  0.21511216076E+04  0.25500000000E-02 0. -1.
    8880023    1    1    2    0    0 -0.93323723464E+03  0.17545255855E+04 -0.85327280737E+03  0.22607911129E+04  0.65864270000E+03 0.  0.
    8880022    1    1    2    0    0  0.93323723464E+03 -0.17545255855E+04  0.10776628551E+04  0.22658421500E+04  0.15294330000E+03 0.  0.
<mgrwt>
<rscale>  0 0.20680145E+04</rscale>
<asrwt>0</asrwt>
<pdfrwt beam="1">  1        2 0.33094179E+00 0.20935859E+04</pdfrwt>
<pdfrwt beam="2">  1       -2 0.36546333E+00 0.20935859E+04</pdfrwt>
<totfact> 0.59961653E-02</totfact>
</mgrwt>
</event>
<event>
 4    1  0.2701205E-007  0.6652041E+03  0.7818608E-02  0.1019363E+00
          2   -1    0    0  501    0  0.00000000000E+00  0.00000000000E+00  0.12423365578E+04  0.12423365578E+04  0.25500000000E-02 0. -1.
         -2   -1    0    0    0  501 -0.00000000000E+00 -0.00000000000E+00 -0.13377793378E+04  0.13377793378E+04  0.25500000000E-02 0.  1.
    8880023    1    1    2    0    0  0.49986204860E+02  0.78661846477E+02  0.11464039920E+04  0.13254201696E+04  0.65864270000E+03 0. -1.
    8880022    1    1    2    0    0 -0.49986204860E+02 -0.78661846477E+02 -0.12418467720E+04  0.12546957260E+04  0.15294330000E+03 0.  0.
<mgrwt>
<rscale>  0 0.47917267E+03</rscale>
<asrwt>0</asrwt>
<pdfrwt beam="1">  1        2 0.19112870E+00 0.66520411E+03</pdfrwt>
<pdfrwt beam="2">  1       -2 0.20581221E+00 0.66520411E+03</pdfrwt>
<totfact> 0.22745870E+00</totfact>
</mgrwt>
</event>
<event>
 4    1  0.2701205E-007  0.1619191E+04  0.7818608E-02  0.8829756E-01
         -2   -1    0    0    0  501 -0.00000000000E+00  0.00000000000E+00  0.30171909844E+04  0.30171909844E+04  0.25500000000E-02 0.  1.
          2   -1    0    0  501    0  0.00000000000E+00 -0.00000000000E+00 -0.17003961464E+04  0.17003961464E+04  0.25500000000E-02 0. -1.
    8880023    1    1    2    0    0 -0.55150564995E+03 -0.13725197453E+04 -0.10446455228E+04  0.19269310854E+04  0.65864270000E+03 0.  0.
    8880022    1    1    2    0    0  0.55150564995E+03  0.13725197453E+04  0.23614403608E+04  0.27906560454E+04  0.15294330000E+03 0.  0.
<mgrwt>
<rscale>  0 0.15850975E+04</rscale>
<asrwt>0</asrwt>
<pdfrwt beam="1">  1        2 0.26159941E+00 0.16191909E+04</pdfrwt>
<pdfrwt beam="2">  1       -2 0.46418322E+00 0.16191909E+04</pdfrwt>
<totfact> 0.25331494E-02</totfact>
</mgrwt>
</event>
<event>
 4    1  0.2701205E-007  0.1047277E+04  0.7818608E-02  0.9322162E-01
         -2   -1    0    0    0  501 -0.00000000000E+00  0.00000000000E+00  0.14417283818E+04  0.14417283818E+04  0.25500000000E-02 0.  1.
          2   -1    0    0  501    0  0.00000000000E+00 -0.00000000000E+00 -0.75965636294E+03  0.75965636295E+03  0.25500000000E-02 0. -1.
    8880023    1    1    2    0    0  0.78326531959E+03  0.22242854120E+03 -0.11270613651E+03  0.10533242123E+04  0.65864270000E+03 0.  0.
    8880022    1    1    2    0    0 -0.78326531959E+03 -0.22242854120E+03  0.79477815534E+03  0.11480605324E+04  0.15294330000E+03 0.  0.
<mgrwt>
<rscale>  0 0.98767948E+03</rscale>
<asrwt>0</asrwt>
<pdfrwt beam="1">  1        2 0.11687021E+00 0.10472771E+04</pdfrwt>
<pdfrwt beam="2">  1       -2 0.22180436E+00 0.10472771E+04</pdfrwt>
<totfact> 0.35145197E+00</totfact>
</mgrwt>
</event>
<event>
 4    1  0.2701205E-007  0.8236411E+03  0.7818608E-02  0.9661834E-01
         -2   -1    0    0    0  501 -0.00000000000E+00  0.00000000000E+00  0.22172091306E+03  0.22172091308E+03  0.25500000000E-02 0.  1.
          2   -1    0    0  501    0  0.00000000000E+00 -0.00000000000E+00 -0.26414600047E+04  0.26414600047E+04  0.25500000000E-02 0. -1.
    8880023    1    1    2    0    0 -0.48895196420E+03  0.74164627336E+02 -0.20975146852E+04  0.22534312672E+04  0.65864270000E+03 0.  0.
    8880022    1    1    2    0    0  0.48895196420E+03 -0.74164627336E+02 -0.32222440647E+03  0.60974965058E+03  0.15294330000E+03 0.  0.
<mgrwt>
<rscale>  0 0.73335368E+03</rscale>
<asrwt>0</asrwt>
<pdfrwt beam="1">  1        2 0.40637844E+00 0.82364108E+03</pdfrwt>
<pdfrwt beam="2">  1       -2 0.34110912E-01 0.82364108E+03</pdfrwt>
<totfact> 0.24006139E+01</totfact>
</mgrwt>
</event>
<event>
 4    1  0.2701205E-007  0.8645930E+03  0.7818608E-02  0.9585445E-01
          2   -1    0    0  501    0  0.00000000000E+00  0.00000000000E+00  0.81775140431E+03  0.81775140432E+03  0.25500000000E-02 0. -1.
         -2   -1    0    0    0  501 -0.00000000000E+00 -0.00000000000E+00 -0.74085490462E+03  0.74085490462E+03  0.25500000000E-02 0.  1.
    8880023    1    1    2    0    0  0.40751071711E+03  0.38424719752E+03  0.32973681168E+03  0.92533640618E+03  0.65864270000E+03 0. -1.
    8880022    1    1    2    0    0 -0.40751071711E+03 -0.38424719752E+03 -0.25284031198E+03  0.63326990276E+03  0.15294330000E+03 0.  0.
<mgrwt>
<rscale>  0 0.78267065E+03</rscale>
<asrwt>0</asrwt>
<pdfrwt beam="1">  1        2 0.12580791E+00 0.86459303E+03</pdfrwt>
<pdfrwt beam="2">  1       -2 0.11397768E+00 0.86459303E+03</pdfrwt>
<totfact> 0.20242241E+01</totfact>
</mgrwt>
</event>
<event>
 4    1  0.2701205E-007  0.1045101E+04  0.7818608E-02  0.9324794E-01
          2   -1    0    0  501    0  0.00000000000E+00  0.00000000000E+00  0.34031820207E+04  0.34031820207E+04  0.25500000000E-02 0. -1.
         -2   -1    0    0    0  501 -0.00000000000E+00 -0.00000000000E+00 -0.98466080764E+03  0.98466080764E+03  0.25500000000E-02 0.  1.
    8880023    1    1    2    0    0  0.26882453196E+03  0.76561078701E+03  0.31287571152E+04  0.32986903156E+04  0.65864270000E+03 0. -1.
    8880022    1    1    2    0    0 -0.26882453196E+03 -0.76561078701E+03 -0.71023590217E+03  0.10891525127E+04  0.15294330000E+03 0.  0.
<mgrwt>
<rscale>  0 0.98532014E+03</rscale>
<asrwt>0</asrwt>
<pdfrwt beam="1">  1        2 0.52356647E+00 0.10451013E+04</pdfrwt>
<pdfrwt beam="2">  1       -2 0.15148628E+00 0.10451013E+04</pdfrwt>
<totfact> 0.28210661E-01</totfact>
</mgrwt>
</event>
<event>
 4    1  0.2701205E-007  0.1537988E+04  0.7818608E-02  0.8883267E-01
         -2   -1    0    0    0  501 -0.00000000000E+00  0.00000000000E+00  0.14745045733E+04  0.14745045733E+04  0.25500000000E-02 0.  1.
          2   -1    0    0  501    0  0.00000000000E+00 -0.00000000000E+00 -0.15651072041E+04  0.15651072041E+04  0.25500000000E-02 0. -1.
    8880023    1    1    2    0    0 -0.86656407817E+03 -0.10865829703E+04 -0.43751809105E+03  0.15990084863E+04  0.65864270000E+03 0.  0.
    8880022    1    1    2    0    0  0.86656407817E+03  0.10865829703E+04  0.34691546019E+03  0.14406032911E+04  0.15294330000E+03 0.  0.
<mgrwt>
<rscale>  0 0.15017846E+04</rscale>
<asrwt>0</asrwt>
<pdfrwt beam="1">  1        2 0.24078572E+00 0.15379877E+04</pdfrwt>
<pdfrwt beam="2">  1       -2 0.22684686E+00 0.15379877E+04</pdfrwt>
<totfact> 0.97816168E-01</totfact>
</mgrwt>
</event>
<event>
 4    1  0.2701205E-007  0.7136712E+03  0.7818608E-02  0.9944613E-01
          2   -1    0    0  501    0  0.00000000000E+00  0.00000000000E+00  0.10278509298E+04  0.10278509298E+04  0.25500000000E-02 0. -1.
         -2   -1    0    0    0  501 -0.00000000000E+00 -0.00000000000E+00 -0.41008768652E+03  0.41008768653E+03  0.25500000000E-02 0.  1.
    8880023    1    1    2    0    0 -0.19248726241E+03 -0.19612515823E+03  0.80191309209E+03  0.10734948707E+04  0.65864270000E+03 0. -1.
    8880022    1    1    2    0    0  0.19248726241E+03  0.19612515823E+03 -0.18414984883E+03  0.36444374562E+03  0.15294330000E+03 0.  0.
<mgrwt>
<rscale>  0 0.58147040E+03</rscale>
<asrwt>0</asrwt>
<pdfrwt beam="1">  1        2 0.15813091E+00 0.71367123E+03</pdfrwt>
<pdfrwt beam="2">  1       -2 0.63090414E-01 0.71367123E+03</pdfrwt>
<totfact> 0.57320530E+01</totfact>
</mgrwt>
</event>
<event>
 4    1  0.2701205E-007  0.1559179E+04  0.7818608E-02  0.8868940E-01
         -2   -1    0    0    0  501 -0.00000000000E+00  0.00000000000E+00  0.10228375005E+04  0.10228375005E+04  0.25500000000E-02 0.  1.
          2   -1    0    0  501    0  0.00000000000E+00 -0.00000000000E+00 -0.28017640924E+04  0.28017640924E+04  0.25500000000E-02 0. -1.
    8880023    1    1    2    0    0 -0.35499853645E+03 -0.13679196111E+04 -0.15069669053E+02  0.15592515270E+04  0.65864270000E+03 0.  0.
    8880022    1    1    2    0    0  0.35499853645E+03  0.13679196111E+04 -0.17638569229E+04  0.22653500658E+04  0.15294330000E+03 0.  0.
<mgrwt>
<rscale>  0 0.15235527E+04</rscale>
<asrwt>0</asrwt>
<pdfrwt beam="1">  1        2 0.43104063E+00 0.15591787E+04</pdfrwt>
<pdfrwt beam="2">  1       -2 0.15735962E+00 0.15591787E+04</pdfrwt>
<totfact> 0.57102586E-01</totfact>
</mgrwt>
</event>
<event>
 4    1  0.2701205E-007  0.7315655E+03  0.7818608E-02  0.9885234E-01
          2   -1    0    0  501    0  0.00000000000E+00  0.00000000000E+00  0.32622644177E+04  0.32622644177E+04  0.25500000000E-02 0. -1.
         -2   -1    0    0    0  501 -0.00000000000E+00 -0.00000000000E+00 -0.90223855167E+02  0.90223855203E+02  0.25500000000E-02 0.  1.
    8880023    1    1    2    0    0 -0.28330041817E+03  0.14532308976E+03  0.21731883902E+04  0.22930189517E+04  0.65864270000E+03 0. -1.
    8880022    1    1    2    0    0  0.28330041817E+03 -0.14532308976E+03  0.99885217234E+03  0.10594693212E+04  0.15294330000E+03 0.  1.
<mgrwt>
<rscale>  0 0.60982260E+03</rscale>
<asrwt>0</asrwt>
<pdfrwt beam="1">  1        2 0.50188678E+00 0.73156554E+03</pdfrwt>
<pdfrwt beam="2">  1       -2 0.13880595E-01 0.73156554E+03</pdfrwt>
<totfact> 0.50344517E+01</totfact>
</mgrwt>
</event>
<event>
 4    1  0.2701205E-007  0.7535743E+03  0.7818608E-02  0.9822036E-01
         -2   -1    0    0    0  501 -0.00000000000E+00  0.00000000000E+00  0.55853154485E+03  0.55853154485E+03  0.25500000000E-02 0.  1.
          2   -1    0    0  501    0  0.00000000000E+00 -0.00000000000E+00 -0.10867053049E+04  0.10867053049E+04  0.25500000000E-02 0. -1.
    8880023    1    1    2    0    0 -0.35486518123E+03 -0.90192661455E+02 -0.84882495726E+03  0.11350674109E+04  0.65864270000E+03 0.  0.
    8880022    1    1    2    0    0  0.35486518123E+03  0.90192661455E+02  0.32065119721E+03  0.51016943883E+03  0.15294330000E+03 0.  0.
<mgrwt>
<rscale>  0 0.64193247E+03</rscale>
<asrwt>0</asrwt>
<pdfrwt beam="1">  1        2 0.16718543E+00 0.75357430E+03</pdfrwt>
<pdfrwt beam="2">  1       -2 0.85927930E-01 0.75357430E+03</pdfrwt>
<totfact> 0.26540006E+01</totfact>
</mgrwt>
</event>
<event>
 4    1  0.2701205E-007  0.2237723E+04  0.7818608E-02  0.8512653E-01
          2   -1    0    0  501    0  0.00000000000E+00  0.00000000000E+00  0.19649855019E+04  0.19649855019E+04  0.25500000000E-02 0. -1.
         -2   -1    0    0    0  501 -0.00000000000E+00 -0.00000000000E+00 -0.26140862038E+04  0.26140862038E+04  0.25500000000E-02 0.  1.
    8880023    1    1    2    0    0 -0.36571982987E+03  0.21070931499E+04  0.25496831059E+03  0.22522014968E+04  0.65864270000E+03 0.  0.
    8880022    1    1    2    0    0  0.36571982987E+03 -0.21070931499E+04 -0.90406901249E+03  0.23268702089E+04  0.15294330000E+03 0.  0.
<mgrwt>
<rscale>  0 0.22139297E+04</rscale>
<asrwt>0</asrwt>
<pdfrwt beam="1">  1        2 0.30230546E+00 0.22377227E+04</pdfrwt>
<pdfrwt beam="2">  1       -2 0.40216711E+00 0.22377227E+04</pdfrwt>
<totfact> 0.43505877E-02</totfact>
</mgrwt>
</event>
<event>
 4    1  0.2701205E-007  0.1410592E+04  0.7818608E-02  0.8975496E-01
         -2   -1    0    0    0  501 -0.00000000000E+00  0.00000000000E+00  0.19594285979E+04  0.19594285979E+04  0.25500000000E-02 0.  1.
          2   -1    0    0  501    0  0.00000000000E+00 -0.00000000000E+00 -0.22054369870E+04  0.22054369870E+04  0.25500000000E-02 0. -1.
    8880023    1    1    2    0    0 -0.47816025502E+03 -0.11520944599E+04 -0.17222214340E+04  0.22261661546E+04  0.65864270000E+03 0.  0.
    8880022    1    1    2    0    0  0.47816025502E+03  0.11520944599E+04  0.14762130449E+04  0.19386994303E+04  0.15294330000E+03 0.  0.
<mgrwt>
<rscale>  0 0.13704425E+04</rscale>
<asrwt>0</asrwt>
<pdfrwt beam="1">  1        2 0.33929800E+00 0.14105917E+04</pdfrwt>
<pdfrwt beam="2">  1       -2 0.30145055E+00 0.14105917E+04</pdfrwt>
<totfact> 0.15150275E-01</totfact>
</mgrwt>
</event>
<event>
 4    1  0.2701205E-007  0.8027422E+03  0.7818608E-02  0.9704898E-01
          2   -1    0    0  501    0  0.00000000000E+00  0.00000000000E+00  0.95007491768E+03  0.95007491769E+03  0.25500000000E-02 0. -1.
         -2   -1    0    0    0  501 -0.00000000000E+00 -0.00000000000E+00 -0.30349552950E+04  0.30349552950E+04  0.25500000000E-02 0.  1.
    8880023    1    1    2    0    0  0.45594078088E+03 -0.51988287070E+02  0.75634171768E+03  0.11029269141E+04  0.65864270000E+03 0. -1.
    8880022    1    1    2    0    0 -0.45594078088E+03  0.51988287070E+02 -0.28412220950E+04  0.28821032986E+04  0.15294330000E+03 0.  0.
<mgrwt>
<rscale>  0 0.70725914E+03</rscale>
<asrwt>0</asrwt>
<pdfrwt beam="1">  1        2 0.14616537E+00 0.80274217E+03</pdfrwt>
<pdfrwt beam="2">  1       -2 0.46691619E+00 0.80274217E+03</pdfrwt>
<totfact> 0.77045043E-02</totfact>
</mgrwt>
</event>
<event>
 4    1  0.2701205E-007  0.9864633E+03  0.7818608E-02  0.9399486E-01
          2   -1    0    0  501    0  0.00000000000E+00  0.00000000000E+00  0.64392680033E+03  0.64392680033E+03  0.25500000000E-02 0. -1.
         -2   -1    0    0    0  501 -0.00000000000E+00 -0.00000000000E+00 -0.15389041072E+04  0.15389041072E+04  0.25500000000E-02 0.  1.
    8880023    1    1    2    0    0  0.17664195799E+03 -0.71280936074E+03  0.36161453233E+02  0.98712583952E+03  0.65864270000E+03 0. -1.
    8880022    1    1    2    0    0 -0.17664195799E+03  0.71280936074E+03 -0.93113876010E+03  0.11957050680E+04  0.15294330000E+03 0.  0.
<mgrwt>
<rscale>  0 0.92117990E+03</rscale>
<asrwt>0</asrwt>
<pdfrwt beam="1">  1        2 0.99065662E-01 0.98646326E+03</pdfrwt>
<pdfrwt beam="2">  1       -2 0.23675448E+00 0.98646326E+03</pdfrwt>
<totfact> 0.35241420E+00</totfact>
</mgrwt>
</event>
<event>
 4    1  0.2701205E-007  0.8819028E+03  0.7818608E-02  0.9555731E-01
          2   -1    0    0  501    0  0.00000000000E+00  0.00000000000E+00  0.21573350532E+04  0.21573350532E+04  0.25500000000E-02 0. -1.
         -2   -1    0    0    0  501 -0.00000000000E+00 -0.00000000000E+00 -0.61547407390E+03  0.61547407390E+03  0.25500000000E-02 0.  1.
    8880023    1    1    2    0    0 -0.55993986518E+03  0.17438356567E+03  0.18815866247E+04  0.20780088337E+04  0.65864270000E+03 0.  0.
    8880022    1    1    2    0    0  0.55993986518E+03 -0.17438356567E+03 -0.33972564535E+03  0.69480029340E+03  0.15294330000E+03 0.  0.
<mgrwt>
<rscale>  0 0.80296785E+03</rscale>
<asrwt>0</asrwt>
<pdfrwt beam="1">  1        2 0.33189770E+00 0.88190276E+03</pdfrwt>
<pdfrwt beam="2">  1       -2 0.94688318E-01 0.88190276E+03</pdfrwt>
<totfact> 0.52226042E+00</totfact>
</mgrwt>
</event>
<event>
 4    1  0.2701205E-007  0.1000776E+04  0.7818608E-02  0.9380543E-01
          2   -1    0    0  501    0  0.00000000000E+00  0.00000000000E+00  0.48492773260E+03  0.48492773261E+03  0.25500000000E-02 0. -1.
         -2   -1    0    0    0  501 -0.00000000000E+00 -0.00000000000E+00 -0.19070506823E+04  0.19070506823E+04  0.25500000000E-02 0.  1.
    8880023    1    1    2    0    0 -0.34002065176E+03 -0.67240450029E+03 -0.32490676730E+03  0.10521960223E+04  0.65864270000E+03 0.  0.
    8880022    1    1    2    0    0  0.34002065176E+03  0.67240450029E+03 -0.10972161824E+04  0.13397823926E+04  0.15294330000E+03 0.  0.
<mgrwt>
<rscale>  0 0.93694322E+03</rscale>
<asrwt>0</asrwt>
<pdfrwt beam="1">  1        2 0.74604267E-01 0.10007757E+04</pdfrwt>
<pdfrwt beam="2">  1       -2 0.29339241E+00 0.10007757E+04</pdfrwt>
<totfact> 0.22397061E+00</totfact>
</mgrwt>
</event>
<event>
 4    1  0.2701205E-007  0.6929402E+03  0.7818608E-02  0.1002785E+00
          2   -1    0    0  501    0  0.00000000000E+00  0.00000000000E+00  0.10752077635E+04  0.10752077635E+04  0.25500000000E-02 0. -1.
         -2   -1    0    0    0  501 -0.00000000000E+00 -0.00000000000E+00 -0.39575490854E+03  0.39575490855E+03  0.25500000000E-02 0.  1.
    8880023    1    1    2    0    0  0.20915718038E+03  0.51080371936E+02  0.89371443299E+03  0.11308809064E+04  0.65864270000E+03 0. -1.
    8880022    1    1    2    0    0 -0.20915718038E+03 -0.51080371936E+02 -0.21426157801E+03  0.34008176565E+03  0.15294330000E+03 0.  0.
<mgrwt>
<rscale>  0 0.54445623E+03</rscale>
<asrwt>0</asrwt>
<pdfrwt beam="1">  1        2 0.16541658E+00 0.69294021E+03</pdfrwt>
<pdfrwt beam="2">  1       -2 0.60885372E-01 0.69294021E+03</pdfrwt>
<totfact> 0.57874356E+01</totfact>
</mgrwt>
</event>
<event>
 4    1  0.2701205E-007  0.1231276E+04  0.7818608E-02  0.9127304E-01
          2   -1    0    0  501    0  0.00000000000E+00  0.00000000000E+00  0.24677723281E+04  0.24677723281E+04  0.25500000000E-02 0. -1.
         -2   -1    0    0    0  501 -0.00000000000E+00 -0.00000000000E+00 -0.73597035452E+03  0.73597035453E+03  0.25500000000E-02 0.  1.
    8880023    1    1    2    0    0  0.76384539333E+03  0.70623630396E+03  0.17646432091E+04  0.21517447255E+04  0.65864270000E+03 0. -1.
    8880022    1    1    2    0    0 -0.76384539333E+03 -0.70623630396E+03 -0.32841235582E+02  0.10519979571E+04  0.15294330000E+03 0.  0.
<mgrwt>
<rscale>  0 0.11836335E+04</rscale>
<asrwt>0</asrwt>
<pdfrwt beam="1">  1        2 0.37965727E+00 0.12312756E+04</pdfrwt>
<pdfrwt beam="2">  1       -2 0.11322621E+00 0.12312756E+04</pdfrwt>
<totfact> 0.21758334E+00</totfact>
</mgrwt>
</event>
<event>
 4    1  0.2701205E-007  0.8513718E+03  0.7818608E-02  0.9609100E-01
          2   -1    0    0  501    0  0.00000000000E+00  0.00000000000E+00  0.17338326466E+04  0.17338326466E+04  0.25500000000E-02 0. -1.
         -2   -1    0    0    0  501 -0.00000000000E+00 -0.00000000000E+00 -0.30815695200E+03  0.30815695201E+03  0.25500000000E-02 0.  1.
    8880023    1    1    2    0    0 -0.29439915044E+03  0.45205399588E+03  0.11086922005E+04  0.13978670454E+04  0.65864270000E+03 0.  0.
    8880022    1    1    2    0    0  0.29439915044E+03 -0.45205399588E+03  0.31698349410E+03  0.64412255318E+03  0.15294330000E+03 0.  0.
<mgrwt>
<rscale>  0 0.76696827E+03</rscale>
<asrwt>0</asrwt>
<pdfrwt beam="1">  1        2 0.26674348E+00 0.85137176E+03</pdfrwt>
<pdfrwt beam="2">  1       -2 0.47408762E-01 0.85137176E+03</pdfrwt>
<totfact> 0.40191665E+01</totfact>
</mgrwt>
</event>
<event>
 4    1  0.2701205E-007  0.1750576E+04  0.7818608E-02  0.8750380E-01
         -2   -1    0    0    0  501 -0.00000000000E+00  0.00000000000E+00  0.18399278048E+04  0.18399278048E+04  0.25500000000E-02 0.  1.
          2   -1    0    0  501    0  0.00000000000E+00 -0.00000000000E+00 -0.26893153101E+04  0.26893153101E+04  0.25500000000E-02 0. -1.
    8880023    1    1    2    0    0  0.14039788210E+04 -0.81212689664E+03 -0.19056359991E+04  0.25876563515E+04  0.65864270000E+03 0.  0.
    8880022    1    1    2    0    0 -0.14039788210E+04  0.81212689664E+03  0.10562484938E+04  0.19415867634E+04  0.15294330000E+03 0.  0.
<mgrwt>
<rscale>  0 0.17193939E+04</rscale>
<asrwt>0</asrwt>
<pdfrwt beam="1">  1        2 0.41374082E+00 0.17505761E+04</pdfrwt>
<pdfrwt beam="2">  1       -2 0.28306581E+00 0.17505761E+04</pdfrwt>
<totfact> 0.98941982E-02</totfact>
</mgrwt>
</event>
<event>
 4    1  0.2701205E-007  0.1218856E+04  0.7818608E-02  0.9139007E-01
          2   -1    0    0  501    0  0.00000000000E+00  0.00000000000E+00  0.31108984185E+04  0.31108984185E+04  0.25500000000E-02 0. -1.
         -2   -1    0    0    0  501 -0.00000000000E+00 -0.00000000000E+00 -0.65149637285E+03  0.65149637285E+03  0.25500000000E-02 0.  1.
    8880023    1    1    2    0    0 -0.58777566237E+03 -0.84042887019E+03  0.24374921092E+04  0.27252484114E+04  0.65864270000E+03 0.  0.
    8880022    1    1    2    0    0  0.58777566237E+03  0.84042887019E+03  0.21909936450E+02  0.10371463800E+04  0.15294330000E+03 0.  0.
<mgrwt>
<rscale>  0 0.11705776E+04</rscale>
<asrwt>0</asrwt>
<pdfrwt beam="1">  1        2 0.47859975E+00 0.12188565E+04</pdfrwt>
<pdfrwt beam="2">  1       -2 0.10023021E+00 0.12188565E+04</pdfrwt>
<totfact> 0.12043360E+00</totfact>
</mgrwt>
</event>
<event>
 4    1  0.2701205E-007  0.6592569E+03  0.7818608E-02  0.1024931E+00
          2   -1    0    0  501    0  0.00000000000E+00  0.00000000000E+00  0.17926816611E+04  0.17926816611E+04  0.25500000000E-02 0. -1.
         -2   -1    0    0    0  501 -0.00000000000E+00 -0.00000000000E+00 -0.55975311023E+03  0.55975311024E+03  0.25500000000E-02 0.  1.
    8880023    1    1    2    0    0 -0.43015498716E+01 -0.28124895399E+02  0.17195270304E+04  0.18415734923E+04  0.65864270000E+03 0. -1.
    8880022    1    1    2    0    0  0.43015498716E+01  0.28124895399E+02 -0.48659847955E+03  0.51086127901E+03  0.15294330000E+03 0.  0.
<mgrwt>
<rscale>  0 0.45948419E+03</rscale>
<asrwt>0</asrwt>
<pdfrwt beam="1">  1        2 0.27579718E+00 0.65925694E+03</pdfrwt>
<pdfrwt beam="2">  1       -2 0.86115864E-01 0.65925694E+03</pdfrwt>
<totfact> 0.10646130E+01</totfact>
</mgrwt>
</event>
<event>
 4    1  0.2701205E-007  0.1041272E+04  0.7818608E-02  0.9329448E-01
          2   -1    0    0  501    0  0.00000000000E+00  0.00000000000E+00  0.41171460458E+04  0.41171460458E+04  0.25500000000E-02 0. -1.
         -2   -1    0    0    0  501 -0.00000000000E+00 -0.00000000000E+00 -0.21750081158E+03  0.21750081159E+03  0.25500000000E-02 0.  1.
    8880023    1    1    2    0    0  0.26697480553E+03 -0.76102653533E+03  0.25578512964E+04  0.27616752878E+04  0.65864270000E+03 0.  0.
    8880022    1    1    2    0    0 -0.26697480553E+03  0.76102653533E+03  0.13417939378E+04  0.15729715696E+04  0.15294330000E+03 0.  0.
<mgrwt>
<rscale>  0 0.98116441E+03</rscale>
<asrwt>0</asrwt>
<pdfrwt beam="1">  1        2 0.63340708E+00 0.10412719E+04</pdfrwt>
<pdfrwt beam="2">  1       -2 0.33461664E-01 0.10412719E+04</pdfrwt>
<totfact> 0.24026347E+00</totfact>
</mgrwt>
</event>
<event>
 4    1  0.2701205E-007  0.7491830E+03  0.7818608E-02  0.9833962E-01
         -2   -1    0    0    0  501 -0.00000000000E+00  0.00000000000E+00  0.28777818364E+03  0.28777818365E+03  0.25500000000E-02 0.  1.
          2   -1    0    0  501    0  0.00000000000E+00 -0.00000000000E+00 -0.17214301254E+04  0.17214301254E+04  0.25500000000E-02 0. -1.
    8880023    1    1    2    0    0  0.28279226602E+03  0.21792992719E+03 -0.14372480957E+04  0.16207890713E+04  0.65864270000E+03 0.  0.
    8880022    1    1    2    0    0 -0.28279226602E+03 -0.21792992719E+03  0.35961539440E+01  0.38841923772E+03  0.15294330000E+03 0.  0.
<mgrwt>
<rscale>  0 0.63571353E+03</rscale>
<asrwt>0</asrwt>
<pdfrwt beam="1">  1        2 0.26483540E+00 0.74918297E+03</pdfrwt>
<pdfrwt beam="2">  1       -2 0.44273568E-01 0.74918297E+03</pdfrwt>
<totfact> 0.47337284E+01</totfact>
</mgrwt>
</event>
<event>
 4    1  0.2701205E-007  0.7953610E+03  0.7818608E-02  0.9720918E-01
          2   -1    0    0  501    0  0.00000000000E+00  0.00000000000E+00  0.34633344893E+04  0.34633344893E+04  0.25500000000E-02 0. -1.
         -2   -1    0    0    0  501 -0.00000000000E+00 -0.00000000000E+00 -0.30475882772E+03  0.30475882773E+03  0.25500000000E-02 0.  1.
    8880023    1    1    2    0    0 -0.69442328331E+02  0.44041656860E+03  0.31976824774E+04  0.32951134158E+04  0.65864270000E+03 0.  0.
    8880022    1    1    2    0    0  0.69442328331E+02 -0.44041656860E+03 -0.39106815810E+02  0.47297990118E+03  0.15294330000E+03 0.  0.
<mgrwt>
<rscale>  0 0.69784909E+03</rscale>
<asrwt>0</asrwt>
<pdfrwt beam="1">  1        2 0.53282069E+00 0.79536105E+03</pdfrwt>
<pdfrwt beam="2">  1       -2 0.46885974E-01 0.79536105E+03</pdfrwt>
<totfact> 0.39921178E+00</totfact>
</mgrwt>
</event>
<event>
 4    1  0.2701205E-007  0.1272168E+04  0.7818608E-02  0.9089975E-01
          2   -1    0    0  501    0  0.00000000000E+00  0.00000000000E+00  0.57517966383E+03  0.57517966384E+03  0.25500000000E-02 0. -1.
         -2   -1    0    0    0  501 -0.00000000000E+00 -0.00000000000E+00 -0.24627959235E+04  0.24627959235E+04  0.25500000000E-02 0.  1.
    8880023    1    1    2    0    0  0.79582179695E+03  0.74247427057E+03 -0.11446851613E+04  0.17113487954E+04  0.65864270000E+03 0. -1.
    8880022    1    1    2    0    0 -0.79582179695E+03 -0.74247427057E+03 -0.74293109836E+03  0.13266267919E+04  0.15294330000E+03 0.  1.
<mgrwt>
<rscale>  0 0.12264964E+04</rscale>
<asrwt>0</asrwt>
<pdfrwt beam="1">  1        2 0.88489180E-01 0.12721677E+04</pdfrwt>
<pdfrwt beam="2">  1       -2 0.37889168E+00 0.12721677E+04</pdfrwt>
<totfact> 0.52220239E-01</totfact>
</mgrwt>
</event>
<event>
 4    1  0.2701205E-007  0.8608524E+03  0.7818608E-02  0.9592049E-01
          2   -1    0    0  501    0  0.00000000000E+00  0.00000000000E+00  0.94826142655E+03  0.94826142655E+03  0.25500000000E-02 0. -1.
         -2   -1    0    0    0  501 -0.00000000000E+00 -0.00000000000E+00 -0.21677024836E+04  0.21677024836E+04  0.25500000000E-02 0.  1.
    8880023    1    1    2    0    0 -0.35425313777E+03  0.42633487284E+03  0.70170338563E+03  0.11106099932E+04  0.65864270000E+03 0.  0.
    8880022    1    1    2    0    0  0.35425313777E+03 -0.42633487284E+03 -0.19211444426E+04  0.20053539169E+04  0.15294330000E+03 0.  0.
<mgrwt>
<rscale>  0 0.77824678E+03</rscale>
<asrwt>0</asrwt>
<pdfrwt beam="1">  1        2 0.14588637E+00 0.86085244E+03</pdfrwt>
<pdfrwt beam="2">  1       -2 0.33349269E+00 0.86085244E+03</pdfrwt>
<totfact> 0.55482272E-01</totfact>
</mgrwt>
</event>
<event>
 4    1  0.2701205E-007  0.1411943E+04  0.7818608E-02  0.8974458E-01
         -2   -1    0    0    0  501 -0.00000000000E+00  0.00000000000E+00  0.13051068671E+04  0.13051068671E+04  0.25500000000E-02 0.  1.
          2   -1    0    0  501    0  0.00000000000E+00 -0.00000000000E+00 -0.24437216376E+04  0.24437216376E+04  0.25500000000E-02 0. -1.
    8880023    1    1    2    0    0  0.12329248867E+04 -0.19917190325E+03 -0.18313870046E+04  0.23124795761E+04  0.65864270000E+03 0. -1.
    8880022    1    1    2    0    0 -0.12329248867E+04  0.19917190325E+03  0.69277223412E+03  0.14363489286E+04  0.15294330000E+03 0.  0.
<mgrwt>
<rscale>  0 0.13718407E+04</rscale>
<asrwt>0</asrwt>
<pdfrwt beam="1">  1        2 0.37595717E+00 0.14119431E+04</pdfrwt>
<pdfrwt beam="2">  1       -2 0.20078567E+00 0.14119431E+04</pdfrwt>
<totfact> 0.46796591E-01</totfact>
</mgrwt>
</event>
<event>
 4    1  0.2701205E-007  0.8237160E+03  0.7818608E-02  0.9661685E-01
          2   -1    0    0  501    0  0.00000000000E+00  0.00000000000E+00  0.93117510936E+03  0.93117510936E+03  0.25500000000E-02 0. -1.
         -2   -1    0    0    0  501 -0.00000000000E+00 -0.00000000000E+00 -0.13767628299E+04  0.13767628299E+04  0.25500000000E-02 0.  1.
    8880023    1    1    2    0    0 -0.52848569268E+02  0.49183829315E+03  0.68054277246E+03  0.10684786143E+04  0.65864270000E+03 0. -1.
    8880022    1    1    2    0    0  0.52848569268E+02 -0.49183829315E+03 -0.11261304930E+04  0.12394593249E+04  0.15294330000E+03 0.  0.
<mgrwt>
<rscale>  0 0.73344595E+03</rscale>
<asrwt>0</asrwt>
<pdfrwt beam="1">  1        2 0.14325771E+00 0.82371602E+03</pdfrwt>
<pdfrwt beam="2">  1       -2 0.21180967E+00 0.82371602E+03</pdfrwt>
<totfact> 0.31605492E+00</totfact>
</mgrwt>
</event>
<event>
 4    1  0.2701205E-007  0.2250866E+04  0.7818608E-02  0.8507182E-01
          2   -1    0    0  501    0  0.00000000000E+00  0.00000000000E+00  0.42475123829E+04  0.42475123829E+04  0.25500000000E-02 0. -1.
         -2   -1    0    0    0  501 -0.00000000000E+00 -0.00000000000E+00 -0.15635820334E+04  0.15635820334E+04  0.25500000000E-02 0.  1.
    8880023    1    1    2    0    0 -0.97278592480E+03  0.19199671276E+04  0.28676456585E+04  0.36455161576E+04  0.65864270000E+03 0. -1.
    8880022    1    1    2    0    0  0.97278592480E+03 -0.19199671276E+04 -0.18371530897E+03  0.21655782587E+04  0.15294330000E+03 0.  0.
<mgrwt>
<rscale>  0 0.22272222E+04</rscale>
<asrwt>0</asrwt>
<pdfrwt beam="1">  1        2 0.65346346E+00 0.22508657E+04</pdfrwt>
<pdfrwt beam="2">  1       -2 0.24055108E+00 0.22508657E+04</pdfrwt>
<totfact> 0.13472254E-02</totfact>
</mgrwt>
</event>
<event>
 4    1  0.2701205E-007  0.1362749E+04  0.7818608E-02  0.9013182E-01
         -2   -1    0    0    0  501 -0.00000000000E+00  0.00000000000E+00  0.13404071605E+04  0.13404071606E+04  0.25500000000E-02 0.  1.
          2   -1    0    0  501    0  0.00000000000E+00 -0.00000000000E+00 -0.25919665464E+04  0.25919665464E+04  0.25500000000E-02 0. -1.
    8880023    1    1    2    0    0 -0.87034112200E+03  0.81595413105E+03  0.78094035692E+03  0.15706536410E+04  0.65864270000E+03 0.  0.
    8880022    1    1    2    0    0  0.87034112200E+03 -0.81595413105E+03 -0.20324997428E+04  0.23617200660E+04  0.15294330000E+03 0.  0.
<mgrwt>
<rscale>  0 0.13208636E+04</rscale>
<asrwt>0</asrwt>
<pdfrwt beam="1">  1        2 0.39876408E+00 0.13627491E+04</pdfrwt>
<pdfrwt beam="2">  1       -2 0.20621649E+00 0.13627491E+04</pdfrwt>
<totfact> 0.35607806E-01</totfact>
</mgrwt>
</event>
<event>
 4    1  0.2701205E-007  0.1116987E+04  0.7818608E-02  0.9242375E-01
          2   -1    0    0  501    0  0.00000000000E+00  0.00000000000E+00  0.29534853834E+04  0.29534853834E+04  0.25500000000E-02 0. -1.
         -2   -1    0    0    0  501 -0.00000000000E+00 -0.00000000000E+00 -0.62411414088E+03  0.62411414088E+03  0.25500000000E-02 0.  1.
    8880023    1    1    2    0    0 -0.89805608910E+03 -0.85704266931E+02  0.24127861006E+04  0.26587961437E+04  0.65864270000E+03 0.  0.
    8880022    1    1    2    0    0  0.89805608910E+03  0.85704266931E+02 -0.83414858054E+02  0.91880338055E+03  0.15294330000E+03 0.  0.
<mgrwt>
<rscale>  0 0.10626554E+04</rscale>
<asrwt>0</asrwt>
<pdfrwt beam="1">  1        2 0.45438237E+00 0.11169871E+04</pdfrwt>
<pdfrwt beam="2">  1       -2 0.96017559E-01 0.11169871E+04</pdfrwt>
<totfact> 0.16946257E+00</totfact>
</mgrwt>
</event>
<event>
 4    1  0.2701205E-007  0.1051331E+04  0.7818608E-02  0.9317283E-01
          2   -1    0    0  501    0  0.00000000000E+00  0.00000000000E+00  0.21227153867E+04  0.21227153867E+04  0.25500000000E-02 0. -1.
         -2   -1    0    0    0  501 -0.00000000000E+00 -0.00000000000E+00 -0.71634878268E+03  0.71634878269E+03  0.25500000000E-02 0.  1.
    8880023    1    1    2    0    0  0.19999912796E+03  0.79466196602E+03  0.16624807597E+04  0.19670129064E+04  0.65864270000E+03 0.  0.
    8880022    1    1    2    0    0 -0.19999912796E+03 -0.79466196602E+03 -0.25611415570E+03  0.87205126294E+03  0.15294330000E+03 0.  0.
<mgrwt>
<rscale>  0 0.99207234E+03</rscale>
<asrwt>0</asrwt>
<pdfrwt beam="1">  1        2 0.32657159E+00 0.10513313E+04</pdfrwt>
<pdfrwt beam="2">  1       -2 0.11020751E+00 0.10513313E+04</pdfrwt>
<totfact> 0.37133858E+00</totfact>
</mgrwt>
</event>
<event>
 4    1  0.2701205E-007  0.1502087E+04  0.7818608E-02  0.8908164E-01
          2   -1    0    0  501    0  0.00000000000E+00  0.00000000000E+00  0.25702670373E+04  0.25702670373E+04  0.25500000000E-02 0. -1.
         -2   -1    0    0    0  501 -0.00000000000E+00 -0.00000000000E+00 -0.17067955593E+04  0.17067955593E+04  0.25500000000E-02 0.  1.
    8880023    1    1    2    0    0 -0.13085642460E+04 -0.33183329026E+03  0.20031201580E+04  0.25037480489E+04  0.65864270000E+03 0.  0.
    8880022    1    1    2    0    0  0.13085642460E+04  0.33183329026E+03 -0.11396486800E+04  0.17733145477E+04  0.15294330000E+03 0.  0.
<mgrwt>
<rscale>  0 0.14648583E+04</rscale>
<asrwt>0</asrwt>
<pdfrwt beam="1">  1        2 0.39542570E+00 0.15020865E+04</pdfrwt>
<pdfrwt beam="2">  1       -2 0.26258393E+00 0.15020865E+04</pdfrwt>
<totfact> 0.15982385E-01</totfact>
</mgrwt>
</event>
<event>
 4    1  0.2701205E-007  0.6845163E+03  0.7818608E-02  0.1006876E+00
         -2   -1    0    0    0  501 -0.00000000000E+00  0.00000000000E+00  0.49539102806E+03  0.49539102807E+03  0.25500000000E-02 0.  1.
          2   -1    0    0  501    0  0.00000000000E+00 -0.00000000000E+00 -0.15571310408E+04  0.15571310408E+04  0.25500000000E-02 0. -1.
    8880023    1    1    2    0    0 -0.10840311013E+03 -0.15166111858E+03 -0.14454479245E+04  0.15993380624E+04  0.65864270000E+03 0. -1.
    8880022    1    1    2    0    0  0.10840311013E+03  0.15166111858E+03  0.38370791175E+03  0.45318400648E+03  0.15294330000E+03 0.  0.
<mgrwt>
<rscale>  0 0.52735241E+03</rscale>
<asrwt>0</asrwt>
<pdfrwt beam="1">  1        2 0.23955862E+00 0.68451628E+03</pdfrwt>
<pdfrwt beam="2">  1       -2 0.76214005E-01 0.68451628E+03</pdfrwt>
<totfact> 0.18778366E+01</totfact>
</mgrwt>
</event>
<event>
 4    1  0.2701205E-007  0.9897210E+03  0.7818608E-02  0.9395131E-01
          2   -1    0    0  501    0  0.00000000000E+00  0.00000000000E+00  0.10887155401E+04  0.10887155401E+04  0.25500000000E-02 0. -1.
         -2   -1    0    0    0  501 -0.00000000000E+00 -0.00000000000E+00 -0.15131028013E+04  0.15131028013E+04  0.25500000000E-02 0.  1.
    8880023    1    1    2    0    0  0.18005902811E+02  0.73852100301E+03  0.72507761027E+03  0.12269006609E+04  0.65864270000E+03 0.  0.
    8880022    1    1    2    0    0 -0.18005902811E+02 -0.73852100301E+03 -0.11494648715E+04  0.13749176806E+04  0.15294330000E+03 0.  0.
<mgrwt>
<rscale>  0 0.92477472E+03</rscale>
<asrwt>0</asrwt>
<pdfrwt beam="1">  1        2 0.16749470E+00 0.98972102E+03</pdfrwt>
<pdfrwt beam="2">  1       -2 0.23278505E+00 0.98972102E+03</pdfrwt>
<totfact> 0.18114389E+00</totfact>
</mgrwt>
</event>
<event>
 4    1  0.2701205E-007  0.1132496E+04  0.7818608E-02  0.9225710E-01
          2   -1    0    0  501    0  0.00000000000E+00  0.00000000000E+00  0.23939905434E+04  0.23939905434E+04  0.25500000000E-02 0. -1.
         -2   -1    0    0    0  501 -0.00000000000E+00 -0.00000000000E+00 -0.12470284247E+04  0.12470284247E+04  0.25500000000E-02 0.  1.
    8880023    1    1    2    0    0  0.91405910114E+03  0.11503100146E+03  0.20499508221E+04  0.23419745411E+04  0.65864270000E+03 0.  0.
    8880022    1    1    2    0    0 -0.91405910114E+03 -0.11503100146E+03 -0.90298870345E+03  0.12990444270E+04  0.15294330000E+03 0.  0.
<mgrwt>
<rscale>  0 0.10791950E+04</rscale>
<asrwt>0</asrwt>
<pdfrwt beam="1">  1        2 0.36830624E+00 0.11324956E+04</pdfrwt>
<pdfrwt beam="2">  1       -2 0.19185053E+00 0.11324956E+04</pdfrwt>
<totfact> 0.59395986E-01</totfact>
</mgrwt>
</event>
<event>
 4    1  0.2701205E-007  0.1363432E+04  0.7818608E-02  0.9012631E-01
         -2   -1    0    0    0  501 -0.00000000000E+00  0.00000000000E+00  0.33718263414E+04  0.33718263414E+04  0.25500000000E-02 0.  1.
          2   -1    0    0  501    0  0.00000000000E+00 -0.00000000000E+00 -0.70583169646E+03  0.70583169646E+03  0.25500000000E-02 0. -1.
    8880023    1    1    2    0    0 -0.32665854105E+03 -0.11482288441E+04  0.26081000873E+03  0.13881524944E+04  0.65864270000E+03 0.  0.
    8880022    1    1    2    0    0  0.32665854105E+03  0.11482288441E+04  0.24051846362E+04  0.26895055434E+04  0.15294330000E+03 0.  0.
<mgrwt>
<rscale>  0 0.13215720E+04</rscale>
<asrwt>0</asrwt>
<pdfrwt beam="1">  1        2 0.10858949E+00 0.13634315E+04</pdfrwt>
<pdfrwt beam="2">  1       -2 0.51874251E+00 0.13634315E+04</pdfrwt>
<totfact> 0.49310529E-02</totfact>
</mgrwt>
</event>
<event>
 4    1  0.2701205E-007  0.1203996E+04  0.7818608E-02  0.9153248E-01
          2   -1    0    0  501    0  0.00000000000E+00  0.00000000000E+00  0.22481131717E+04  0.22481131717E+04  0.25500000000E-02 0. -1.
         -2   -1    0    0    0  501 -0.00000000000E+00 -0.00000000000E+00 -0.71496029330E+03  0.71496029330E+03  0.25500000000E-02 0.  1.
    8880023    1    1    2    0    0  0.98440941633E+03  0.21617967171E+03  0.15258236100E+04  0.19436417995E+04  0.65864270000E+03 0.  0.
    8880022    1    1    2    0    0 -0.98440941633E+03 -0.21617967171E+03  0.73292683106E+01  0.10194316655E+04  0.15294330000E+03 0.  0.
<mgrwt>
<rscale>  0 0.11549294E+04</rscale>
<asrwt>0</asrwt>
<pdfrwt beam="1">  1        2 0.34586356E+00 0.12039957E+04</pdfrwt>
<pdfrwt beam="2">  1       -2 0.10999389E+00 0.12039957E+04</pdfrwt>
<totfact> 0.31206736E+00</totfact>
</mgrwt>
</event>
<event>
 4    1  0.2701205E-007  0.8472705E+03  0.7818608E-02  0.9616621E-01
          2   -1    0    0  501    0  0.00000000000E+00  0.00000000000E+00  0.80877813847E+03  0.80877813847E+03  0.25500000000E-02 0. -1.
         -2   -1    0    0    0  501 -0.00000000000E+00 -0.00000000000E+00 -0.99308078723E+03  0.99308078723E+03  0.25500000000E-02 0.  1.
    8880023    1    1    2    0    0 -0.53223735389E+03 -0.27936260215E+02 -0.65785646962E+03  0.10726799972E+04  0.65864270000E+03 0.  0.
    8880022    1    1    2    0    0  0.53223735389E+03  0.27936260215E+02  0.47355382086E+03  0.72917892850E+03  0.15294330000E+03 0.  0.
<mgrwt>
<rscale>  0 0.76205818E+03</rscale>
<asrwt>0</asrwt>
<pdfrwt beam="1">  1        2 0.12442741E+00 0.84727047E+03</pdfrwt>
<pdfrwt beam="2">  1       -2 0.15278166E+00 0.84727047E+03</pdfrwt>
<totfact> 0.97434008E+00</totfact>
</mgrwt>
</event>
<event>
 4    1  0.2701205E-007  0.8082414E+03  0.7818608E-02  0.9693252E-01
          2   -1    0    0  501    0  0.00000000000E+00  0.00000000000E+00  0.14458741168E+04  0.14458741168E+04  0.25500000000E-02 0. -1.
         -2   -1    0    0    0  501 -0.00000000000E+00 -0.00000000000E+00 -0.52831934833E+03  0.52831934833E+03  0.25500000000E-02 0.  1.
    8880023    1    1    2    0    0  0.39937768295E+03  0.24482942497E+03  0.11688153647E+04  0.14210501553E+04  0.65864270000E+03 0.  0.
    8880022    1    1    2    0    0 -0.39937768295E+03 -0.24482942497E+03 -0.25126059621E+03  0.55314330981E+03  0.15294330000E+03 0.  1.
<mgrwt>
<rscale>  0 0.71420005E+03</rscale>
<asrwt>0</asrwt>
<pdfrwt beam="1">  1        2 0.22244217E+00 0.80824142E+03</pdfrwt>
<pdfrwt beam="2">  1       -2 0.81279900E-01 0.80824142E+03</pdfrwt>
<totfact> 0.18463028E+01</totfact>
</mgrwt>
</event>
<event>
 4    1  0.2701205E-007  0.1033346E+04  0.7818608E-02  0.9339175E-01
          2   -1    0    0  501    0  0.00000000000E+00  0.00000000000E+00  0.86238924663E+03  0.86238924663E+03  0.25500000000E-02 0. -1.
         -2   -1    0    0    0  501 -0.00000000000E+00 -0.00000000000E+00 -0.15343236249E+04  0.15343236249E+04  0.25500000000E-02 0.  1.
    8880023    1    1    2    0    0  0.70780644574E+03  0.36469665535E+03  0.35108318970E+03  0.10913584321E+04  0.65864270000E+03 0. -1.
    8880022    1    1    2    0    0 -0.70780644574E+03 -0.36469665535E+03 -0.10230175679E+04  0.13053544394E+04  0.15294330000E+03 0.  0.
<mgrwt>
<rscale>  0 0.97254968E+03</rscale>
<asrwt>0</asrwt>
<pdfrwt beam="1">  1        2 0.13267527E+00 0.10333459E+04</pdfrwt>
<pdfrwt beam="2">  1       -2 0.23604979E+00 0.10333459E+04</pdfrwt>
<totfact> 0.24188076E+00</totfact>
</mgrwt>
</event>
<event>
 4    1  0.2701205E-007  0.7220002E+03  0.7818608E-02  0.9915875E-01
         -2   -1    0    0    0  501 -0.00000000000E+00  0.00000000000E+00  0.15300915429E+03  0.15300915431E+03  0.25500000000E-02 0.  1.
          2   -1    0    0  501    0  0.00000000000E+00 -0.00000000000E+00 -0.25731489832E+04  0.25731489832E+04  0.25500000000E-02 0. -1.
    8880023    1    1    2    0    0 -0.23234813149E+03  0.18299850209E+03 -0.22272612567E+04  0.23413622142E+04  0.65864270000E+03 0. -1.
    8880022    1    1    2    0    0  0.23234813149E+03 -0.18299850209E+03 -0.19287857213E+03  0.38479592329E+03  0.15294330000E+03 0.  0.
<mgrwt>
<rscale>  0 0.59498042E+03</rscale>
<asrwt>0</asrwt>
<pdfrwt beam="1">  1        2 0.39586904E+00 0.72200022E+03</pdfrwt>
<pdfrwt beam="2">  1       -2 0.23539872E-01 0.72200022E+03</pdfrwt>
<totfact> 0.52759495E+01</totfact>
</mgrwt>
</event>
<event>
 4    1  0.2701205E-007  0.9932932E+03  0.7818608E-02  0.9390385E-01
          2   -1    0    0  501    0  0.00000000000E+00  0.00000000000E+00  0.27118604675E+04  0.27118604675E+04  0.25500000000E-02 0. -1.
         -2   -1    0    0    0  501 -0.00000000000E+00 -0.00000000000E+00 -0.44932729265E+03  0.44932729266E+03  0.25500000000E-02 0.  1.
    8880023    1    1    2    0    0 -0.62422673706E+03  0.40393324318E+03  0.21824885948E+04  0.23978923573E+04  0.65864270000E+03 0.  0.
    8880022    1    1    2    0    0  0.62422673706E+03 -0.40393324318E+03  0.80044579969E+02  0.76329540285E+03  0.15294330000E+03 0.  0.
<mgrwt>
<rscale>  0 0.92871175E+03</rscale>
<asrwt>0</asrwt>
<pdfrwt beam="1">  1        2 0.41720931E+00 0.99329315E+03</pdfrwt>
<pdfrwt beam="2">  1       -2 0.69127275E-01 0.99329315E+03</pdfrwt>
<totfact> 0.50732999E+00</totfact>
</mgrwt>
</event>
<event>
 4    1  0.2701205E-007  0.7218347E+03  0.7818608E-02  0.9916426E-01
         -2   -1    0    0    0  501 -0.00000000000E+00  0.00000000000E+00  0.15759883625E+03  0.15759883627E+03  0.25500000000E-02 0.  1.
          2   -1    0    0  501    0  0.00000000000E+00 -0.00000000000E+00 -0.19743872341E+04  0.19743872341E+04  0.25500000000E-02 0. -1.
    8880023    1    1    2    0    0 -0.26176103487E+03  0.13680753182E+03 -0.15342565483E+04  0.16955791053E+04  0.65864270000E+03 0.  0.
    8880022    1    1    2    0    0  0.26176103487E+03 -0.13680753182E+03 -0.28253184961E+03  0.43640696511E+03  0.15294330000E+03 0. -1.
<mgrwt>
<rscale>  0 0.59471770E+03</rscale>
<asrwt>0</asrwt>
<pdfrwt beam="1">  1        2 0.30375186E+00 0.72183471E+03</pdfrwt>
<pdfrwt beam="2">  1       -2 0.24245976E-01 0.72183471E+03</pdfrwt>
<totfact> 0.10757278E+02</totfact>
</mgrwt>
</event>
<event>
 4    1  0.2701205E-007  0.1295351E+04  0.7818608E-02  0.9069585E-01
          2   -1    0    0  501    0  0.00000000000E+00  0.00000000000E+00  0.25472971849E+04  0.25472971849E+04  0.25500000000E-02 0. -1.
         -2   -1    0    0    0  501 -0.00000000000E+00 -0.00000000000E+00 -0.11341120049E+04  0.11341120049E+04  0.25500000000E-02 0.  1.
    8880023    1    1    2    0    0  0.10482894026E+04 -0.38106754026E+03  0.20221232044E+04  0.24014403182E+04  0.65864270000E+03 0.  0.
    8880022    1    1    2    0    0 -0.10482894026E+04  0.38106754026E+03 -0.60893802440E+03  0.12799688717E+04  0.15294330000E+03 0.  0.
<mgrwt>
<rscale>  0 0.12507187E+04</rscale>
<asrwt>0</asrwt>
<pdfrwt beam="1">  1        2 0.39189187E+00 0.12953507E+04</pdfrwt>
<pdfrwt beam="2">  1       -2 0.17447877E+00 0.12953507E+04</pdfrwt>
<totfact> 0.62456959E-01</totfact>
</mgrwt>
</event>
<event>
 4    1  0.2701205E-007  0.1335469E+04  0.7818608E-02  0.9035520E-01
         -2   -1    0    0    0  501 -0.00000000000E+00  0.00000000000E+00  0.19693661642E+04  0.19693661642E+04  0.25500000000E-02 0.  1.
          2   -1    0    0  501    0  0.00000000000E+00 -0.00000000000E+00 -0.95129453781E+03  0.95129453782E+03  0.25500000000E-02 0. -1.
    8880023    1    1    2    0    0 -0.11616642540E+04  0.14250372008E+02 -0.48237101561E+02  0.13363397533E+04  0.65864270000E+03 0.  0.
    8880022    1    1    2    0    0  0.11616642540E+04 -0.14250372008E+02  0.10663087279E+04  0.15843209486E+04  0.15294330000E+03 0.  0.
<mgrwt>
<rscale>  0 0.12925176E+04</rscale>
<asrwt>0</asrwt>
<pdfrwt beam="1">  1        2 0.14635301E+00 0.13354689E+04</pdfrwt>
<pdfrwt beam="2">  1       -2 0.30297941E+00 0.13354689E+04</pdfrwt>
<totfact> 0.79642605E-01</totfact>
</mgrwt>
</event>
<event>
 4    1  0.2701205E-007  0.7145181E+03  0.7818608E-02  0.9941591E-01
          2   -1    0    0  501    0  0.00000000000E+00  0.00000000000E+00  0.21651699271E+04  0.21651699271E+04  0.25500000000E-02 0. -1.
         -2   -1    0    0    0  501 -0.00000000000E+00 -0.00000000000E+00 -0.32723681298E+03  0.32723681299E+03  0.25500000000E-02 0.  1.
    8880023    1    1    2    0    0 -0.37453507907E+02  0.27445073846E+03  0.20093035915E+04  0.21325658494E+04  0.65864270000E+03 0. -1.
    8880022    1    1    2    0    0  0.37453507907E+02 -0.27445073846E+03 -0.17137047734E+03  0.35984089069E+03  0.15294330000E+03 0.  0.
<mgrwt>
<rscale>  0 0.58287277E+03</rscale>
<asrwt>0</asrwt>
<pdfrwt beam="1">  1        2 0.33310307E+00 0.71451814E+03</pdfrwt>
<pdfrwt beam="2">  1       -2 0.50344125E-01 0.71451814E+03</pdfrwt>
<totfact> 0.21022986E+01</totfact>
</mgrwt>
</event>
<event>
 4    1  0.2701205E-007  0.8174399E+03  0.7818608E-02  0.9674283E-01
          2   -1    0    0  501    0  0.00000000000E+00  0.00000000000E+00  0.19153312936E+04  0.19153312936E+04  0.25500000000E-02 0. -1.
         -2   -1    0    0    0  501 -0.00000000000E+00 -0.00000000000E+00 -0.47275993934E+03  0.47275993935E+03  0.25500000000E-02 0.  1.
    8880023    1    1    2    0    0  0.32860050108E+03 -0.35555512064E+03  0.16486149971E+04  0.18401465561E+04  0.65864270000E+03 0. -1.
    8880022    1    1    2    0    0 -0.32860050108E+03  0.35555512064E+03 -0.20604364281E+03  0.54794467684E+03  0.15294330000E+03 0.  0.
<mgrwt>
<rscale>  0 0.72568808E+03</rscale>
<asrwt>0</asrwt>
<pdfrwt beam="1">  1        2 0.29466635E+00 0.81743987E+03</pdfrwt>
<pdfrwt beam="2">  1       -2 0.72732299E-01 0.81743987E+03</pdfrwt>
<totfact> 0.13024713E+01</totfact>
</mgrwt>
</event>
<event>
 4    1  0.2701205E-007  0.1602793E+04  0.7818608E-02  0.8840266E-01
          2   -1    0    0  501    0  0.00000000000E+00  0.00000000000E+00  0.31496698200E+04  0.31496698200E+04  0.25500000000E-02 0. -1.
         -2   -1    0    0    0  501 -0.00000000000E+00 -0.00000000000E+00 -0.78613106111E+03  0.78613106111E+03  0.25500000000E-02 0.  1.
    8880023    1    1    2    0    0 -0.14436612008E+04  0.22578386941E+03  0.80375502612E+03  0.17930332865E+04  0.65864270000E+03 0.  1.
    8880022    1    1    2    0    0  0.14436612008E+04 -0.22578386941E+03  0.15597837328E+04  0.21427675946E+04  0.15294330000E+03 0.  0.
<mgrwt>
<rscale>  0 0.15682953E+04</rscale>
<asrwt>0</asrwt>
<pdfrwt beam="1">  1        2 0.48456459E+00 0.16027933E+04</pdfrwt>
<pdfrwt beam="2">  1       -2 0.12094324E+00 0.16027933E+04</pdfrwt>
<totfact> 0.68685465E-01</totfact>
</mgrwt>
</event>
<event>
 4    1  0.2701205E-007  0.9037587E+03  0.7818608E-02  0.9520024E-01
          2   -1    0    0  501    0  0.00000000000E+00  0.00000000000E+00  0.53123858298E+03  0.53123858299E+03  0.25500000000E-02 0. -1.
         -2   -1    0    0    0  501 -0.00000000000E+00 -0.00000000000E+00 -0.17451446706E+04  0.17451446706E+04  0.25500000000E-02 0.  1.
    8880023    1    1    2    0    0  0.50659560564E+03 -0.35542989215E+03  0.17141792055E+01  0.90376028933E+03  0.65864270000E+03 0. -1.
    8880022    1    1    2    0    0 -0.50659560564E+03  0.35542989215E+03 -0.12156202668E+04  0.13726229642E+04  0.15294330000E+03 0.  0.
<mgrwt>
<rscale>  0 0.82823462E+03</rscale>
<asrwt>0</asrwt>
<pdfrwt beam="1">  1        2 0.81729014E-01 0.90375866E+03</pdfrwt>
<pdfrwt beam="2">  1       -2 0.26848379E+00 0.90375866E+03</pdfrwt>
<totfact> 0.28771461E+00</totfact>
</mgrwt>
</event>
<event>
 4    1  0.2701205E-007  0.6708074E+03  0.7818608E-02  0.1015091E+00
         -2   -1    0    0    0  501 -0.00000000000E+00  0.00000000000E+00  0.28572672820E+03  0.28572672821E+03  0.25500000000E-02 0.  1.
          2   -1    0    0  501    0  0.00000000000E+00 -0.00000000000E+00 -0.76926400407E+03  0.76926400407E+03  0.25500000000E-02 0. -1.
    8880023    1    1    2    0    0  0.24965305723E+02  0.12469612525E+03 -0.52497807929E+03  0.85181252640E+03  0.65864270000E+03 0. -1.
    8880022    1    1    2    0    0 -0.24965305723E+02 -0.12469612525E+03  0.41440803412E+02  0.20317820588E+03  0.15294330000E+03 0.  0.
<mgrwt>
<rscale>  0 0.49500659E+03</rscale>
<asrwt>0</asrwt>
<pdfrwt beam="1">  1        2 0.11834831E+00 0.67080742E+03</pdfrwt>
<pdfrwt beam="2">  1       -2 0.43957959E-01 0.67080742E+03</pdfrwt>
<totfact> 0.18061897E+02</totfact>
</mgrwt>
</event>
<event>
 4    1  0.2701205E-007  0.6734568E+03  0.7818608E-02  0.1013297E+00
          2   -1    0    0  501    0  0.00000000000E+00  0.00000000000E+00  0.29935207509E+04  0.29935207509E+04  0.25500000000E-02 0. -1.
         -2   -1    0    0    0  501 -0.00000000000E+00 -0.00000000000E+00 -0.61514080894E+03  0.61514080894E+03  0.25500000000E-02 0.  1.
    8880023    1    1    2    0    0 -0.20518556673E+02  0.13897084498E+03  0.29367212863E+04  0.30129513814E+04  0.65864270000E+03 0.  0.
    8880022    1    1    2    0    0  0.20518556673E+02 -0.13897084498E+03 -0.55834134433E+03  0.59571017847E+03  0.15294330000E+03 0.  1.
<mgrwt>
<rscale>  0 0.50185028E+03</rscale>
<asrwt>0</asrwt>
<pdfrwt beam="1">  1        2 0.46054166E+00 0.67345684E+03</pdfrwt>
<pdfrwt beam="2">  1       -2 0.94637047E-01 0.67345684E+03</pdfrwt>
<totfact> 0.17950092E+00</totfact>
</mgrwt>
</event>
<event>
 4    1  0.2701205E-007  0.1048960E+04  0.7818608E-02  0.9320133E-01
         -2   -1    0    0    0  501 -0.00000000000E+00  0.00000000000E+00  0.17216223263E+04  0.17216223263E+04  0.25500000000E-02 0.  1.
          2   -1    0    0  501    0  0.00000000000E+00 -0.00000000000E+00 -0.16073230706E+04  0.16073230706E+04  0.25500000000E-02 0. -1.
    8880023    1    1    2    0    0  0.24663226856E+03  0.77825418241E+03 -0.13111742727E+04  0.16791352619E+04  0.65864270000E+03 0.  0.
    8880022    1    1    2    0    0 -0.24663226856E+03 -0.77825418241E+03  0.14254735284E+04  0.16498101350E+04  0.15294330000E+03 0.  0.
<mgrwt>
<rscale>  0 0.98950362E+03</rscale>
<asrwt>0</asrwt>
<pdfrwt beam="1">  1        2 0.24728047E+00 0.10489601E+04</pdfrwt>
<pdfrwt beam="2">  1       -2 0.26486497E+00 0.10489601E+04</pdfrwt>
<totfact> 0.57173368E-01</totfact>
</mgrwt>
</event>
<event>
 4    1  0.2701205E-007  0.7445202E+03  0.7818608E-02  0.9846971E-01
         -2   -1    0    0    0  501 -0.00000000000E+00  0.00000000000E+00  0.16815792690E+03  0.16815792692E+03  0.25500000000E-02 0.  1.
          2   -1    0    0  501    0  0.00000000000E+00 -0.00000000000E+00 -0.25957580981E+04  0.25957580981E+04  0.25500000000E-02 0. -1.
    8880023    1    1    2    0    0 -0.15670820543E+03 -0.30974602715E+03 -0.21976270220E+04  0.23203178224E+04  0.65864270000E+03 0.  0.
    8880022    1    1    2    0    0  0.15670820543E+03  0.30974602715E+03 -0.22997314921E+03  0.44359820261E+03  0.15294330000E+03 0.  0.
<mgrwt>
<rscale>  0 0.62901619E+03</rscale>
<asrwt>0</asrwt>
<pdfrwt beam="1">  1        2 0.39934737E+00 0.74452016E+03</pdfrwt>
<pdfrwt beam="2">  1       -2 0.25870452E-01 0.74452016E+03</pdfrwt>
<totfact> 0.43072215E+01</totfact>
</mgrwt>
</event>
<event>
 4    1  0.2701205E-007  0.1305057E+04  0.7818608E-02  0.9061205E-01
         -2   -1    0    0    0  501 -0.00000000000E+00  0.00000000000E+00  0.14997827245E+04  0.14997827245E+04  0.25500000000E-02 0.  1.
          2   -1    0    0  501    0  0.00000000000E+00 -0.00000000000E+00 -0.11792629915E+04  0.11792629915E+04  0.25500000000E-02 0. -1.
    8880023    1    1    2    0    0  0.18171432423E+03 -0.11119102989E+04 -0.36019962643E+03  0.13538532364E+04  0.65864270000E+03 0.  0.
    8880022    1    1    2    0    0 -0.18171432423E+03  0.11119102989E+04  0.68071935942E+03  0.13251924795E+04  0.15294330000E+03 0.  0.
<mgrwt>
<rscale>  0 0.12608453E+04</rscale>
<asrwt>0</asrwt>
<pdfrwt beam="1">  1        2 0.18142508E+00 0.13050574E+04</pdfrwt>
<pdfrwt beam="2">  1       -2 0.23073580E+00 0.13050574E+04</pdfrwt>
<totfact> 0.15854876E+00</totfact>
</mgrwt>
</event>
<event>
 4    1  0.2701205E-007  0.8374801E+03  0.7818608E-02  0.9634950E-01
          2   -1    0    0  501    0  0.00000000000E+00  0.00000000000E+00  0.29524489006E+04  0.29524489006E+04  0.25500000000E-02 0. -1.
         -2   -1    0    0    0  501 -0.00000000000E+00 -0.00000000000E+00 -0.23060651769E+03  0.23060651770E+03  0.25500000000E-02 0.  1.
    8880023    1    1    2    0    0 -0.44711908350E+03  0.26009079076E+03  0.24289270826E+04  0.25692527461E+04  0.65864270000E+03 0. -1.
    8880022    1    1    2    0    0  0.44711908350E+03 -0.26009079076E+03  0.29291530028E+03  0.61380267222E+03  0.15294330000E+03 0.  0.
<mgrwt>
<rscale>  0 0.75025513E+03</rscale>
<asrwt>0</asrwt>
<pdfrwt beam="1">  1        2 0.45422291E+00 0.83748009E+03</pdfrwt>
<pdfrwt beam="2">  1       -2 0.35477926E-01 0.83748009E+03</pdfrwt>
<totfact> 0.14538868E+01</totfact>
</mgrwt>
</event>
<event>
 4    1  0.2701205E-007  0.1024245E+04  0.7818608E-02  0.9350503E-01
          2   -1    0    0  501    0  0.00000000000E+00  0.00000000000E+00  0.47876805470E+04  0.47876805470E+04  0.25500000000E-02 0. -1.
         -2   -1    0    0    0  501 -0.00000000000E+00 -0.00000000000E+00 -0.50520722689E+03  0.50520722689E+03  0.25500000000E-02 0.  1.
    8880023    1    1    2    0    0  0.78381363968E+03 -0.30068053605E+02  0.93656226379E+02  0.10285181596E+04  0.65864270000E+03 0.  1.
    8880022    1    1    2    0    0 -0.78381363968E+03  0.30068053605E+02  0.41888170937E+04  0.42643696143E+04  0.15294330000E+03 0.  0.
<mgrwt>
<rscale>  0 0.96263492E+03</rscale>
<asrwt>0</asrwt>
<pdfrwt beam="1">  1        2 0.73656626E+00 0.10242451E+04</pdfrwt>
<pdfrwt beam="2">  1       -2 0.77724187E-01 0.10242451E+04</pdfrwt>
<totfact> 0.98242427E-02</totfact>
</mgrwt>
</event>
<event>
 4    1  0.2701205E-007  0.7031283E+03  0.7818608E-02  0.9984463E-01
          2   -1    0    0  501    0  0.00000000000E+00  0.00000000000E+00  0.81272582443E+03  0.81272582443E+03  0.25500000000E-02 0. -1.
         -2   -1    0    0    0  501 -0.00000000000E+00 -0.00000000000E+00 -0.54980099722E+03  0.54980099722E+03  0.25500000000E-02 0.  1.
    8880023    1    1    2    0    0 -0.10280865951E+03  0.22362814767E+03  0.59550052280E+03  0.92141752090E+03  0.65864270000E+03 0. -1.
    8880022    1    1    2    0    0  0.10280865951E+03 -0.22362814767E+03 -0.33257569559E+03  0.44110930076E+03  0.15294330000E+03 0.  1.
<mgrwt>
<rscale>  0 0.56336774E+03</rscale>
<asrwt>0</asrwt>
<pdfrwt beam="1">  1        2 0.12503474E+00 0.70312828E+03</pdfrwt>
<pdfrwt beam="2">  1       -2 0.84584769E-01 0.70312828E+03</pdfrwt>
<totfact> 0.41835002E+01</totfact>
</mgrwt>
</event>
<event>
 4    1  0.2701205E-007  0.9480725E+03  0.7818608E-02  0.9452893E-01
         -2   -1    0    0    0  501 -0.00000000000E+00  0.00000000000E+00  0.71178321388E+03  0.71178321388E+03  0.25500000000E-02 0.  1.
          2   -1    0    0  501    0  0.00000000000E+00 -0.00000000000E+00 -0.11873184315E+04  0.11873184315E+04  0.25500000000E-02 0. -1.
    8880023    1    1    2    0    0 -0.23262179203E+03  0.64102912931E+03 -0.68485113150E+03  0.11695565490E+04  0.65864270000E+03 0.  0.
    8880022    1    1    2    0    0  0.23262179203E+03 -0.64102912931E+03  0.20931591392E+03  0.72954509634E+03  0.15294330000E+03 0.  0.
<mgrwt>
<rscale>  0 0.87847754E+03</rscale>
<asrwt>0</asrwt>
<pdfrwt beam="1">  1        2 0.18266437E+00 0.94807249E+03</pdfrwt>
<pdfrwt beam="2">  1       -2 0.10950511E+00 0.94807249E+03</pdfrwt>
<totfact> 0.12779799E+01</totfact>
</mgrwt>
</event>
<event>
 4    1  0.2701205E-007  0.9541659E+03  0.7818608E-02  0.9444145E-01
          2   -1    0    0  501    0  0.00000000000E+00  0.00000000000E+00  0.96091268384E+03  0.96091268384E+03  0.25500000000E-02 0. -1.
         -2   -1    0    0    0  501 -0.00000000000E+00 -0.00000000000E+00 -0.77801651052E+03  0.77801651052E+03  0.25500000000E-02 0.  1.
    8880023    1    1    2    0    0 -0.58640378216E+03 -0.36435275217E+03  0.34294691419E+03  0.10139255969E+04  0.65864270000E+03 0. -1.
    8880022    1    1    2    0    0  0.58640378216E+03  0.36435275217E+03 -0.16005074087E+03  0.72500359751E+03  0.15294330000E+03 0.  0.
<mgrwt>
<rscale>  0 0.88530044E+03</rscale>
<asrwt>0</asrwt>
<pdfrwt beam="1">  1        2 0.14783272E+00 0.95416588E+03</pdfrwt>
<pdfrwt beam="2">  1       -2 0.11969485E+00 0.95416588E+03</pdfrwt>
<totfact> 0.14220791E+01</totfact>
</mgrwt>
</event>
<event>
 4    1  0.2701205E-007  0.9097621E+03  0.7818608E-02  0.9510539E-01
          2   -1    0    0  501    0  0.00000000000E+00  0.00000000000E+00  0.34128514476E+04  0.34128514476E+04  0.25500000000E-02 0. -1.
         -2   -1    0    0    0  501 -0.00000000000E+00 -0.00000000000E+00 -0.66245929418E+03  0.66245929419E+03  0.25500000000E-02 0.  1.
    8880023    1    1    2    0    0  0.61586829917E+03 -0.12067758988E+03  0.31746908637E+04  0.33024731837E+04  0.65864270000E+03 0. -1.
    8880022    1    1    2    0    0 -0.61586829917E+03  0.12067758988E+03 -0.42429871029E+03  0.77283755809E+03  0.15294330000E+03 0.  0.
<mgrwt>
<rscale>  0 0.83511296E+03</rscale>
<asrwt>0</asrwt>
<pdfrwt beam="1">  1        2 0.52505406E+00 0.90976208E+03</pdfrwt>
<pdfrwt beam="2">  1       -2 0.10191682E+00 0.90976208E+03</pdfrwt>
<totfact> 0.77306020E-01</totfact>
</mgrwt>
</event>
<event>
 4    1  0.2701205E-007  0.1465187E+04  0.7818608E-02  0.8934618E-01
          2   -1    0    0  501    0  0.00000000000E+00  0.00000000000E+00  0.16663574204E+04  0.16663574204E+04  0.25500000000E-02 0. -1.
         -2   -1    0    0    0  501 -0.00000000000E+00 -0.00000000000E+00 -0.12372353771E+04  0.12372353771E+04  0.25500000000E-02 0.  1.
    8880023    1    1    2    0    0 -0.12126301492E+04 -0.49243454210E+03 -0.13255154734E+03  0.14711708860E+04  0.65864270000E+03 0.  0.
    8880022    1    1    2    0    0  0.12126301492E+04  0.49243454210E+03  0.56167359066E+03  0.14324219114E+04  0.15294330000E+03 0.  0.
<mgrwt>
<rscale>  0 0.14268381E+04</rscale>
<asrwt>0</asrwt>
<pdfrwt beam="1">  1        2 0.25636268E+00 0.14651873E+04</pdfrwt>
<pdfrwt beam="2">  1       -2 0.19034391E+00 0.14651873E+04</pdfrwt>
<totfact> 0.14913055E+00</totfact>
</mgrwt>
</event>
<event>
 4    1  0.2701205E-007  0.1199404E+04  0.7818608E-02  0.9157702E-01
         -2   -1    0    0    0  501 -0.00000000000E+00  0.00000000000E+00  0.15125515221E+04  0.15125515221E+04  0.25500000000E-02 0.  1.
          2   -1    0    0  501    0  0.00000000000E+00 -0.00000000000E+00 -0.93410871272E+03  0.93410871273E+03  0.25500000000E-02 0. -1.
    8880023    1    1    2    0    0  0.75149022930E+03  0.66334211395E+03 -0.13480032558E+03  0.12069555331E+04  0.65864270000E+03 0.  0.
    8880022    1    1    2    0    0 -0.75149022930E+03 -0.66334211395E+03  0.71324313496E+03  0.12397047017E+04  0.15294330000E+03 0.  0.
<mgrwt>
<rscale>  0 0.11500887E+04</rscale>
<asrwt>0</asrwt>
<pdfrwt beam="1">  1        2 0.14370903E+00 0.11994042E+04</pdfrwt>
<pdfrwt beam="2">  1       -2 0.23270023E+00 0.11994042E+04</pdfrwt>
<totfact> 0.22282332E+00</totfact>
</mgrwt>
</event>
<event>
 4    1  0.2701205E-007  0.1009440E+04  0.7818608E-02  0.9369310E-01
         -2   -1    0    0    0  501 -0.00000000000E+00  0.00000000000E+00  0.14291143780E+04  0.14291143780E+04  0.25500000000E-02 0.  1.
          2   -1    0    0  501    0  0.00000000000E+00 -0.00000000000E+00 -0.11462468227E+04  0.11462468227E+04  0.25500000000E-02 0. -1.
    8880023    1    1    2    0    0 -0.68164325105E+03  0.34716179753E+03 -0.76672961551E+03  0.12676132474E+04  0.65864270000E+03 0. -1.
    8880022    1    1    2    0    0  0.68164325105E+03 -0.34716179753E+03  0.10495971708E+04  0.13077479533E+04  0.15294330000E+03 0.  0.
<mgrwt>
<rscale>  0 0.94644950E+03</rscale>
<asrwt>0</asrwt>
<pdfrwt beam="1">  1        2 0.17634567E+00 0.10094400E+04</pdfrwt>
<pdfrwt beam="2">  1       -2 0.21986375E+00 0.10094400E+04</pdfrwt>
<totfact> 0.20059771E+00</totfact>
</mgrwt>
</event>
<event>
 4    1  0.2701205E-007  0.1327209E+04  0.7818608E-02  0.9042412E-01
         -2   -1    0    0    0  501 -0.00000000000E+00  0.00000000000E+00  0.17552086474E+04  0.17552086474E+04  0.25500000000E-02 0.  1.
          2   -1    0    0  501    0  0.00000000000E+00 -0.00000000000E+00 -0.10029485270E+04  0.10029485270E+04  0.25500000000E-02 0. -1.
    8880023    1    1    2    0    0  0.92913300639E+03 -0.68145832945E+03 -0.78364605890E+02  0.13295205211E+04  0.65864270000E+03 0.  0.
    8880022    1    1    2    0    0 -0.92913300639E+03  0.68145832945E+03  0.83062472624E+03  0.14286366533E+04  0.15294330000E+03 0.  0.
<mgrwt>
<rscale>  0 0.12839232E+04</rscale>
<asrwt>0</asrwt>
<pdfrwt beam="1">  1        2 0.15429977E+00 0.13272090E+04</pdfrwt>
<pdfrwt beam="2">  1       -2 0.27003210E+00 0.13272090E+04</pdfrwt>
<totfact> 0.11696765E+00</totfact>
</mgrwt>
</event>
<event>
 4    1  0.2701205E-007  0.1232689E+04  0.7818608E-02  0.9125983E-01
          2   -1    0    0  501    0  0.00000000000E+00  0.00000000000E+00  0.19560239812E+04  0.19560239812E+04  0.25500000000E-02 0. -1.
         -2   -1    0    0    0  501 -0.00000000000E+00 -0.00000000000E+00 -0.82832667234E+03  0.82832667235E+03  0.25500000000E-02 0.  1.
    8880023    1    1    2    0    0 -0.69355631651E+03 -0.77761912893E+03 -0.11765821419E+02  0.12327451134E+04  0.65864270000E+03 0.  0.
    8880022    1    1    2    0    0  0.69355631651E+03  0.77761912893E+03  0.11394631302E+04  0.15516055401E+04  0.15294330000E+03 0.  0.
<mgrwt>
<rscale>  0 0.11851181E+04</rscale>
<asrwt>0</asrwt>
<pdfrwt beam="1">  1        2 0.30092676E+00 0.12326890E+04</pdfrwt>
<pdfrwt beam="2">  1       -2 0.12743487E+00 0.12326890E+04</pdfrwt>
<totfact> 0.31377432E+00</totfact>
</mgrwt>
</event>
<event>
 4    1  0.2701205E-007  0.9044391E+03  0.7818608E-02  0.9518943E-01
         -2   -1    0    0    0  501 -0.00000000000E+00  0.00000000000E+00  0.48602617568E+03  0.48602617568E+03  0.25500000000E-02 0.  1.
          2   -1    0    0  501    0  0.00000000000E+00 -0.00000000000E+00 -0.25281500019E+04  0.25281500019E+04  0.25500000000E-02 0. -1.
    8880023    1    1    2    0    0 -0.22849203349E+02 -0.61941733100E+03 -0.21807550546E+04  0.23608690626E+04  0.65864270000E+03 0. -1.
    8880022    1    1    2    0    0  0.22849203349E+02  0.61941733100E+03  0.13863122840E+03  0.65330711502E+03  0.15294330000E+03 0.  0.
<mgrwt>
<rscale>  0 0.82901550E+03</rscale>
<asrwt>0</asrwt>
<pdfrwt beam="1">  1        2 0.38894615E+00 0.90443912E+03</pdfrwt>
<pdfrwt beam="2">  1       -2 0.74773259E-01 0.90443912E+03</pdfrwt>
<totfact> 0.55224816E+00</totfact>
</mgrwt>
</event>
<event>
 4    1  0.2701205E-007  0.1044634E+04  0.7818608E-02  0.9325360E-01
          2   -1    0    0  501    0  0.00000000000E+00  0.00000000000E+00  0.89400436873E+03  0.89400436873E+03  0.25500000000E-02 0. -1.
         -2   -1    0    0    0  501 -0.00000000000E+00 -0.00000000000E+00 -0.14363715546E+04  0.14363715546E+04  0.25500000000E-02 0.  1.
    8880023    1    1    2    0    0 -0.80584106040E+03 -0.89833614780E+02  0.36253865346E+03  0.11057551151E+04  0.65864270000E+03 0.  0.
    8880022    1    1    2    0    0  0.80584106040E+03  0.89833614780E+02 -0.90490583935E+03  0.12246208083E+04  0.15294330000E+03 0.  0.
<mgrwt>
<rscale>  0 0.98481320E+03</rscale>
<asrwt>0</asrwt>
<pdfrwt beam="1">  1        2 0.13753913E+00 0.10446340E+04</pdfrwt>
<pdfrwt beam="2">  1       -2 0.22098024E+00 0.10446340E+04</pdfrwt>
<totfact> 0.28524415E+00</totfact>
</mgrwt>
</event>
<event>
 4    1  0.2701205E-007  0.7300885E+03  0.7818608E-02  0.9889820E-01
          2   -1    0    0  501    0  0.00000000000E+00  0.00000000000E+00  0.17623400134E+04  0.17623400134E+04  0.25500000000E-02 0. -1.
         -2   -1    0    0    0  501 -0.00000000000E+00 -0.00000000000E+00 -0.45671548615E+03  0.45671548615E+03  0.25500000000E-02 0.  1.
    8880023    1    1    2    0    0  0.89718464512E+02 -0.30194298446E+03  0.16018634470E+04  0.17603964548E+04  0.65864270000E+03 0. -1.
    8880022    1    1    2    0    0 -0.89718464512E+02  0.30194298446E+03 -0.29623891980E+03  0.45865904478E+03  0.15294330000E+03 0.  0.
<mgrwt>
<rscale>  0 0.60757183E+03</rscale>
<asrwt>0</asrwt>
<pdfrwt beam="1">  1        2 0.27112923E+00 0.73008847E+03</pdfrwt>
<pdfrwt beam="2">  1       -2 0.70263922E-01 0.73008847E+03</pdfrwt>
<totfact> 0.17228531E+01</totfact>
</mgrwt>
</event>
<event>
 4    1  0.2701205E-007  0.6669722E+03  0.7818608E-02  0.1017933E+00
          2   -1    0    0  501    0  0.00000000000E+00  0.00000000000E+00  0.22668716647E+04  0.22668716647E+04  0.25500000000E-02 0. -1.
         -2   -1    0    0    0  501 -0.00000000000E+00 -0.00000000000E+00 -0.28650881518E+03  0.28650881519E+03  0.25500000000E-02 0.  1.
    8880023    1    1    2    0    0 -0.42202390773E+02 -0.96232254699E+02  0.21806354342E+04  0.22803558477E+04  0.65864270000E+03 0.  0.
    8880022    1    1    2    0    0  0.42202390773E+02  0.96232254699E+02 -0.20027258468E+03  0.27302463226E+03  0.15294330000E+03 0.  1.
<mgrwt>
<rscale>  0 0.48439894E+03</rscale>
<asrwt>0</asrwt>
<pdfrwt beam="1">  1        2 0.34874947E+00 0.66697218E+03</pdfrwt>
<pdfrwt beam="2">  1       -2 0.44078282E-01 0.66697218E+03</pdfrwt>
<totfact> 0.24318232E+01</totfact>
</mgrwt>
</event>
<event>
 4    1  0.2701205E-007  0.1562317E+04  0.7818608E-02  0.8866841E-01
          2   -1    0    0  501    0  0.00000000000E+00  0.00000000000E+00  0.16119857571E+04  0.16119857571E+04  0.25500000000E-02 0. -1.
         -2   -1    0    0    0  501 -0.00000000000E+00 -0.00000000000E+00 -0.14334471704E+04  0.14334471704E+04  0.25500000000E-02 0.  1.
    8880023    1    1    2    0    0 -0.15296925661E+03 -0.14084123019E+04  0.37590154141E+03  0.16069029158E+04  0.65864270000E+03 0.  0.
    8880022    1    1    2    0    0  0.15296925661E+03  0.14084123019E+04 -0.19736295478E+03  0.14385300117E+04  0.15294330000E+03 0.  0.
<mgrwt>
<rscale>  0 0.15267750E+04</rscale>
<asrwt>0</asrwt>
<pdfrwt beam="1">  1        2 0.24799781E+00 0.15623172E+04</pdfrwt>
<pdfrwt beam="2">  1       -2 0.22053033E+00 0.15623172E+04</pdfrwt>
<totfact> 0.10068161E+00</totfact>
</mgrwt>
</event>
<event>
 4    1  0.2701205E-007  0.7413560E+03  0.7818608E-02  0.9856015E-01
         -2   -1    0    0    0  501 -0.00000000000E+00  0.00000000000E+00  0.11061476718E+04  0.11061476718E+04  0.25500000000E-02 0.  1.
          2   -1    0    0  501    0  0.00000000000E+00 -0.00000000000E+00 -0.76909578080E+03  0.76909578080E+03  0.25500000000E-02 0. -1.
    8880023    1    1    2    0    0  0.25969640700E+03 -0.21990065167E+03 -0.54328627019E+03  0.91911299526E+03  0.65864270000E+03 0. -1.
    8880022    1    1    2    0    0 -0.25969640700E+03  0.21990065167E+03  0.88033816119E+03  0.95613045735E+03  0.15294330000E+03 0.  0.
<mgrwt>
<rscale>  0 0.62441191E+03</rscale>
<asrwt>0</asrwt>
<pdfrwt beam="1">  1        2 0.11832243E+00 0.74135601E+03</pdfrwt>
<pdfrwt beam="2">  1       -2 0.17017656E+00 0.74135601E+03</pdfrwt>
<totfact> 0.78563227E+00</totfact>
</mgrwt>
</event>
<event>
 4    1  0.2701205E-007  0.1004994E+04  0.7818608E-02  0.9375053E-01
         -2   -1    0    0    0  501 -0.00000000000E+00  0.00000000000E+00  0.20880901350E+04  0.20880901350E+04  0.25500000000E-02 0.  1.
          2   -1    0    0  501    0  0.00000000000E+00 -0.00000000000E+00 -0.20192253330E+04  0.20192253330E+04  0.25500000000E-02 0. -1.
    8880023    1    1    2    0    0  0.28198506677E+03  0.70475978331E+03 -0.18126957332E+04  0.20726499843E+04  0.65864270000E+03 0.  0.
    8880022    1    1    2    0    0 -0.28198506677E+03 -0.70475978331E+03  0.18815605352E+04  0.20346654837E+04  0.15294330000E+03 0.  0.
<mgrwt>
<rscale>  0 0.94157430E+03</rscale>
<asrwt>0</asrwt>
<pdfrwt beam="1">  1        2 0.31065005E+00 0.10049936E+04</pdfrwt>
<pdfrwt beam="2">  1       -2 0.32124464E+00 0.10049936E+04</pdfrwt>
<totfact> 0.15532424E-01</totfact>
</mgrwt>
</event>
<event>
 4    1  0.2701205E-007  0.1444041E+04  0.7818608E-02  0.8950196E-01
          2   -1    0    0  501    0  0.00000000000E+00  0.00000000000E+00  0.26406401349E+04  0.26406401349E+04  0.25500000000E-02 0. -1.
         -2   -1    0    0    0  501 -0.00000000000E+00 -0.00000000000E+00 -0.12520245553E+04  0.12520245553E+04  0.25500000000E-02 0.  1.
    8880023    1    1    2    0    0  0.40660101924E+03  0.12190654306E+04  0.19955764336E+04  0.24632459118E+04  0.65864270000E+03 0. -1.
    8880022    1    1    2    0    0 -0.40660101924E+03 -0.12190654306E+04 -0.60696085402E+03  0.14294187785E+04  0.15294330000E+03 0.  0.
<mgrwt>
<rscale>  0 0.14050159E+04</rscale>
<asrwt>0</asrwt>
<pdfrwt beam="1">  1        2 0.40625233E+00 0.14440412E+04</pdfrwt>
<pdfrwt beam="2">  1       -2 0.19261916E+00 0.14440412E+04</pdfrwt>
<totfact> 0.40597464E-01</totfact>
</mgrwt>
</event>
<event>
 4    1  0.2701205E-007  0.1242084E+04  0.7818608E-02  0.9117261E-01
         -2   -1    0    0    0  501 -0.00000000000E+00  0.00000000000E+00  0.69105261403E+03  0.69105261404E+03  0.25500000000E-02 0.  1.
          2   -1    0    0  501    0  0.00000000000E+00 -0.00000000000E+00 -0.23106764770E+04  0.23106764771E+04  0.25500000000E-02 0. -1.
    8880023    1    1    2    0    0 -0.53198602463E+03 -0.90882017094E+03 -0.14742214023E+04  0.19277194253E+04  0.65864270000E+03 0.  0.
    8880022    1    1    2    0    0  0.53198602463E+03  0.90882017094E+03 -0.14540246070E+03  0.10740096657E+04  0.15294330000E+03 0.  0.
<mgrwt>
<rscale>  0 0.11949814E+04</rscale>
<asrwt>0</asrwt>
<pdfrwt beam="1">  1        2 0.35548868E+00 0.12420843E+04</pdfrwt>
<pdfrwt beam="2">  1       -2 0.10631579E+00 0.12420843E+04</pdfrwt>
<totfact> 0.31127205E+00</totfact>
</mgrwt>
</event>
<event>
 4    1  0.2701205E-007  0.1085301E+04  0.7818608E-02  0.9277600E-01
         -2   -1    0    0    0  501 -0.00000000000E+00  0.00000000000E+00  0.12935977940E+04  0.12935977940E+04  0.25500000000E-02 0.  1.
          2   -1    0    0  501    0  0.00000000000E+00 -0.00000000000E+00 -0.16003797631E+04  0.16003797631E+04  0.25500000000E-02 0. -1.
    8880023    1    1    2    0    0 -0.27856090712E+03  0.81637770144E+03 -0.12170213581E+04  0.16306501534E+04  0.65864270000E+03 0.  0.
    8880022    1    1    2    0    0  0.27856090712E+03 -0.81637770144E+03  0.91023938905E+03  0.12633274036E+04  0.15294330000E+03 0.  0.
<mgrwt>
<rscale>  0 0.10287142E+04</rscale>
<asrwt>0</asrwt>
<pdfrwt beam="1">  1        2 0.24621227E+00 0.10853013E+04</pdfrwt>
<pdfrwt beam="2">  1       -2 0.19901504E+00 0.10853013E+04</pdfrwt>
<totfact> 0.14796378E+00</totfact>
</mgrwt>
</event>
<event>
 4    1  0.2701205E-007  0.9104452E+03  0.7818608E-02  0.9509467E-01
          2   -1    0    0  501    0  0.00000000000E+00  0.00000000000E+00  0.11149846230E+04  0.11149846230E+04  0.25500000000E-02 0. -1.
         -2   -1    0    0    0  501 -0.00000000000E+00 -0.00000000000E+00 -0.14971575250E+04  0.14971575250E+04  0.25500000000E-02 0.  1.
    8880023    1    1    2    0    0  0.13629464404E+03 -0.61361559259E+03  0.83395293740E+03  0.12346611007E+04  0.65864270000E+03 0. -1.
    8880022    1    1    2    0    0 -0.13629464404E+03  0.61361559259E+03 -0.12161258394E+04  0.13774810473E+04  0.15294330000E+03 0.  0.
<mgrwt>
<rscale>  0 0.83589411E+03</rscale>
<asrwt>0</asrwt>
<pdfrwt beam="1">  1        2 0.17153610E+00 0.91044524E+03</pdfrwt>
<pdfrwt beam="2">  1       -2 0.23033193E+00 0.91044524E+03</pdfrwt>
<totfact> 0.18263461E+00</totfact>
</mgrwt>
</event>
<event>
 4    1  0.2701205E-007  0.7885300E+03  0.7818608E-02  0.9736168E-01
         -2   -1    0    0    0  501 -0.00000000000E+00  0.00000000000E+00  0.66396527944E+03  0.66396527945E+03  0.25500000000E-02 0.  1.
          2   -1    0    0  501    0  0.00000000000E+00 -0.00000000000E+00 -0.12810092766E+04  0.12810092766E+04  0.25500000000E-02 0. -1.
    8880023    1    1    2    0    0 -0.25824602363E+03  0.34825042110E+03 -0.10502293906E+04  0.13133016956E+04  0.65864270000E+03 0.  0.
    8880022    1    1    2    0    0  0.25824602363E+03 -0.34825042110E+03  0.43318539344E+03  0.63167286045E+03  0.15294330000E+03 0.  0.
<mgrwt>
<rscale>  0 0.68903579E+03</rscale>
<asrwt>0</asrwt>
<pdfrwt beam="1">  1        2 0.19707835E+00 0.78853001E+03</pdfrwt>
<pdfrwt beam="2">  1       -2 0.10214850E+00 0.78853001E+03</pdfrwt>
<totfact> 0.13530266E+01</totfact>
</mgrwt>
</event>
<event>
 4    1  0.2701205E-007  0.9246570E+03  0.7818608E-02  0.9487555E-01
         -2   -1    0    0    0  501 -0.00000000000E+00  0.00000000000E+00  0.12754267728E+04  0.12754267728E+04  0.25500000000E-02 0.  1.
          2   -1    0    0  501    0  0.00000000000E+00 -0.00000000000E+00 -0.55942493586E+03  0.55942493587E+03  0.25500000000E-02 0. -1.
    8880023    1    1    2    0    0 -0.58141749762E+03 -0.28832965587E+03  0.10521936587E+03  0.93062431637E+03  0.65864270000E+03 0.  0.
    8880022    1    1    2    0    0  0.58141749762E+03  0.28832965587E+03  0.61078247102E+03  0.90422739226E+03  0.15294330000E+03 0.  0.
<mgrwt>
<rscale>  0 0.85207582E+03</rscale>
<asrwt>0</asrwt>
<pdfrwt beam="1">  1        2 0.86065376E-01 0.92465697E+03</pdfrwt>
<pdfrwt beam="2">  1       -2 0.19621950E+00 0.92465697E+03</pdfrwt>
<totfact> 0.76088659E+00</totfact>
</mgrwt>
</event>
<event>
 4    1  0.2701205E-007  0.1360129E+04  0.7818608E-02  0.9015299E-01
         -2   -1    0    0    0  501 -0.00000000000E+00  0.00000000000E+00  0.13357212276E+04  0.13357212276E+04  0.25500000000E-02 0.  1.
          2   -1    0    0  501    0  0.00000000000E+00 -0.00000000000E+00 -0.24345077105E+04  0.24345077105E+04  0.25500000000E-02 0. -1.
    8880023    1    1    2    0    0  0.77400358803E+03  0.90391336619E+03 -0.18932983925E+04  0.23312078280E+04  0.65864270000E+03 0.  0.
    8880022    1    1    2    0    0 -0.77400358803E+03 -0.90391336619E+03  0.79451190959E+03  0.14390211101E+04  0.15294330000E+03 0.  0.
<mgrwt>
<rscale>  0 0.13181438E+04</rscale>
<asrwt>0</asrwt>
<pdfrwt beam="1">  1        2 0.37453965E+00 0.13601291E+04</pdfrwt>
<pdfrwt beam="2">  1       -2 0.20549557E+00 0.13601291E+04</pdfrwt>
<totfact> 0.44400329E-01</totfact>
</mgrwt>
</event>
<event>
 4    1  0.2701205E-007  0.1631830E+04  0.7818608E-02  0.8821752E-01
         -2   -1    0    0    0  501 -0.00000000000E+00  0.00000000000E+00  0.15575182182E+04  0.15575182182E+04  0.25500000000E-02 0.  1.
          2   -1    0    0  501    0  0.00000000000E+00 -0.00000000000E+00 -0.18179836465E+04  0.18179836465E+04  0.25500000000E-02 0. -1.
    8880023    1    1    2    0    0  0.14370475135E+04 -0.40491161754E+03 -0.75128175887E+03  0.17964669387E+04  0.65864270000E+03 0.  0.
    8880022    1    1    2    0    0 -0.14370475135E+04  0.40491161754E+03  0.49081633062E+03  0.15790349260E+04  0.15294330000E+03 0.  0.
<mgrwt>
<rscale>  0 0.15980417E+04</rscale>
<asrwt>0</asrwt>
<pdfrwt beam="1">  1        2 0.27968979E+00 0.16318300E+04</pdfrwt>
<pdfrwt beam="2">  1       -2 0.23961819E+00 0.16318300E+04</pdfrwt>
<totfact> 0.58178697E-01</totfact>
</mgrwt>
</event>
<event>
 4    1  0.2701205E-007  0.9235384E+03  0.7818608E-02  0.9489255E-01
          2   -1    0    0  501    0  0.00000000000E+00  0.00000000000E+00  0.10873703131E+04  0.10873703131E+04  0.25500000000E-02 0. -1.
         -2   -1    0    0    0  501 -0.00000000000E+00 -0.00000000000E+00 -0.83686076148E+03  0.83686076148E+03  0.25500000000E-02 0.  1.
    8880023    1    1    2    0    0 -0.46277613455E+03 -0.45271537158E+03  0.66716001120E+03  0.11393092843E+04  0.65864270000E+03 0. -1.
    8880022    1    1    2    0    0  0.46277613455E+03  0.45271537158E+03 -0.41665045961E+03  0.78492179030E+03  0.15294330000E+03 0.  0.
<mgrwt>
<rscale>  0 0.85080678E+03</rscale>
<asrwt>0</asrwt>
<pdfrwt beam="1">  1        2 0.16728774E+00 0.92353839E+03</pdfrwt>
<pdfrwt beam="2">  1       -2 0.12874781E+00 0.92353839E+03</pdfrwt>
<totfact> 0.98654629E+00</totfact>
</mgrwt>
</event>
<event>
 4    1  0.2701205E-007  0.7837086E+03  0.7818608E-02  0.9747197E-01
          2   -1    0    0  501    0  0.00000000000E+00  0.00000000000E+00  0.39187105103E+04  0.39187105103E+04  0.25500000000E-02 0. -1.
         -2   -1    0    0    0  501 -0.00000000000E+00 -0.00000000000E+00 -0.12542386619E+03  0.12542386621E+03  0.25500000000E-02 0.  1.
    8880023    1    1    2    0    0 -0.30112059383E+03  0.29952512193E+03  0.13627535438E+04  0.15720357305E+04  0.65864270000E+03 0.  1.
    8880022    1    1    2    0    0  0.30112059383E+03 -0.29952512193E+03  0.24305331003E+04  0.24720986460E+04  0.15294330000E+03 0.  0.
<mgrwt>
<rscale>  0 0.68274934E+03</rscale>
<asrwt>0</asrwt>
<pdfrwt beam="1">  1        2 0.60287852E+00 0.78370857E+03</pdfrwt>
<pdfrwt beam="2">  1       -2 0.19295980E-01 0.78370857E+03</pdfrwt>
<totfact> 0.98458165E+00</totfact>
</mgrwt>
</event>
<event>
 4    1  0.2701205E-007  0.7180226E+03  0.7818608E-02  0.9929334E-01
          2   -1    0    0  501    0  0.00000000000E+00  0.00000000000E+00  0.21180164504E+04  0.21180164504E+04  0.25500000000E-02 0. -1.
         -2   -1    0    0    0  501 -0.00000000000E+00 -0.00000000000E+00 -0.97960632396E+03  0.97960632396E+03  0.25500000000E-02 0.  1.
    8880023    1    1    2    0    0  0.74228682505E+02 -0.27610937225E+03  0.20276938873E+04  0.21510692665E+04  0.65864270000E+03 0. -1.
    8880022    1    1    2    0    0 -0.74228682505E+02  0.27610937225E+03 -0.88928376086E+03  0.94655350778E+03  0.15294330000E+03 0.  0.
<mgrwt>
<rscale>  0 0.58860443E+03</rscale>
<asrwt>0</asrwt>
<pdfrwt beam="1">  1        2 0.32584868E+00 0.71802262E+03</pdfrwt>
<pdfrwt beam="2">  1       -2 0.15070867E+00 0.71802262E+03</pdfrwt>
<totfact> 0.17796719E+00</totfact>
</mgrwt>
</event>
<event>
 4    1  0.2701205E-007  0.6749565E+03  0.7818608E-02  0.1012334E+00
          2   -1    0    0  501    0  0.00000000000E+00  0.00000000000E+00  0.17449919308E+04  0.17449919308E+04  0.25500000000E-02 0. -1.
         -2   -1    0    0    0  501 -0.00000000000E+00 -0.00000000000E+00 -0.24188495238E+03  0.24188495239E+03  0.25500000000E-02 0.  1.
    8880023    1    1    2    0    0 -0.72849163895E+02 -0.12825416798E+03  0.16123751498E+04  0.17479473568E+04  0.65864270000E+03 0. -1.
    8880022    1    1    2    0    0  0.72849163895E+02  0.12825416798E+03 -0.10926817137E+03  0.23892952638E+03  0.15294330000E+03 0.  0.
<mgrwt>
<rscale>  0 0.50557596E+03</rscale>
<asrwt>0</asrwt>
<pdfrwt beam="1">  1        2 0.26846030E+00 0.67495655E+03</pdfrwt>
<pdfrwt beam="2">  1       -2 0.37213070E-01 0.67495655E+03</pdfrwt>
<totfact> 0.65092843E+01</totfact>
</mgrwt>
</event>
<event>
 4    1  0.2701205E-007  0.6807840E+03  0.7818608E-02  0.1008884E+00
          2   -1    0    0  501    0  0.00000000000E+00  0.00000000000E+00  0.54358169148E+03  0.54358169149E+03  0.25500000000E-02 0. -1.
         -2   -1    0    0    0  501 -0.00000000000E+00 -0.00000000000E+00 -0.55207667002E+03  0.55207667002E+03  0.25500000000E-02 0.  1.
    8880023    1    1    2    0    0  0.81833484836E+02 -0.15152538002E+03  0.27165678113E+03  0.73298313284E+03  0.65864270000E+03 0. -1.
    8880022    1    1    2    0    0 -0.81833484836E+02  0.15152538002E+03 -0.28015175967E+03  0.36267522867E+03  0.15294330000E+03 0.  0.
<mgrwt>
<rscale>  0 0.51920750E+03</rscale>
<asrwt>0</asrwt>
<pdfrwt beam="1">  1        2 0.83627953E-01 0.68078401E+03</pdfrwt>
<pdfrwt beam="2">  1       -2 0.84934872E-01 0.68078401E+03</pdfrwt>
<totfact> 0.68474700E+01</totfact>
</mgrwt>
</event>
<event>
 4    1  0.2701205E-007  0.1913652E+04  0.7818608E-02  0.8662143E-01
          2   -1    0    0  501    0  0.00000000000E+00  0.00000000000E+00  0.29004554558E+04  0.29004554558E+04  0.25500000000E-02 0. -1.
         -2   -1    0    0    0  501 -0.00000000000E+00 -0.00000000000E+00 -0.13082173029E+04  0.13082173029E+04  0.25500000000E-02 0.  1.
    8880023    1    1    2    0    0  0.12789101982E+04  0.12619997560E+04  0.14478807384E+04  0.23996715438E+04  0.65864270000E+03 0.  0.
    8880022    1    1    2    0    0 -0.12789101982E+04 -0.12619997560E+04  0.14435741454E+03  0.18090012149E+04  0.15294330000E+03 0.  0.
<mgrwt>
<rscale>  0 0.18854290E+04</rscale>
<asrwt>0</asrwt>
<pdfrwt beam="1">  1        2 0.44622392E+00 0.19136522E+04</pdfrwt>
<pdfrwt beam="2">  1       -2 0.20126420E+00 0.19136522E+04</pdfrwt>
<totfact> 0.23605187E-01</totfact>
</mgrwt>
</event>
<event>
 4    1  0.2701205E-007  0.9515709E+03  0.7818608E-02  0.9447858E-01
          2   -1    0    0  501    0  0.00000000000E+00  0.00000000000E+00  0.17540280268E+04  0.17540280268E+04  0.25500000000E-02 0. -1.
         -2   -1    0    0    0  501 -0.00000000000E+00 -0.00000000000E+00 -0.75628260791E+03  0.75628260792E+03  0.25500000000E-02 0.  1.
    8880023    1    1    2    0    0  0.66246155842E+02  0.68358495849E+03  0.14053199345E+04  0.16971774430E+04  0.65864270000E+03 0.  0.
    8880022    1    1    2    0    0 -0.66246155842E+02 -0.68358495849E+03 -0.40757451559E+03  0.81313319168E+03  0.15294330000E+03 0. -1.
<mgrwt>
<rscale>  0 0.88239702E+03</rscale>
<asrwt>0</asrwt>
<pdfrwt beam="1">  1        2 0.26985046E+00 0.95157089E+03</pdfrwt>
<pdfrwt beam="2">  1       -2 0.11635117E+00 0.95157089E+03</pdfrwt>
<totfact> 0.52554091E+00</totfact>
</mgrwt>
</event>
<event>
 4    1  0.2701205E-007  0.9577915E+03  0.7818608E-02  0.9438991E-01
          2   -1    0    0  501    0  0.00000000000E+00  0.00000000000E+00  0.15287294880E+04  0.15287294880E+04  0.25500000000E-02 0. -1.
         -2   -1    0    0    0  501 -0.00000000000E+00 -0.00000000000E+00 -0.50859983105E+03  0.50859983105E+03  0.25500000000E-02 0.  1.
    8880023    1    1    2    0    0 -0.33905636572E+03 -0.60712039394E+03  0.90186975836E+03  0.13155735096E+04  0.65864270000E+03 0.  0.
    8880022    1    1    2    0    0  0.33905636572E+03  0.60712039394E+03  0.11825989862E+03  0.72175580947E+03  0.15294330000E+03 0.  1.
<mgrwt>
<rscale>  0 0.88935153E+03</rscale>
<asrwt>0</asrwt>
<pdfrwt beam="1">  1        2 0.23518915E+00 0.95779152E+03</pdfrwt>
<pdfrwt beam="2">  1       -2 0.78246127E-01 0.95779152E+03</pdfrwt>
<totfact> 0.17792667E+01</totfact>
</mgrwt>
</event>
<event>
 4    1  0.2701205E-007  0.1049891E+04  0.7818608E-02  0.9319012E-01
         -2   -1    0    0    0  501 -0.00000000000E+00  0.00000000000E+00  0.48854963524E+03  0.48854963525E+03  0.25500000000E-02 0.  1.
          2   -1    0    0  501    0  0.00000000000E+00 -0.00000000000E+00 -0.32508067630E+04  0.32508067630E+04  0.25500000000E-02 0. -1.
    8880023    1    1    2    0    0 -0.54030549671E+02 -0.81580734247E+03 -0.27096269141E+04  0.29059162308E+04  0.65864270000E+03 0.  1.
    8880022    1    1    2    0    0  0.54030549671E+02  0.81580734247E+03 -0.52630213619E+02  0.83344016745E+03  0.15294330000E+03 0.  0.
<mgrwt>
<rscale>  0 0.99051226E+03</rscale>
<asrwt>0</asrwt>
<pdfrwt beam="1">  1        2 0.50012410E+00 0.10498910E+04</pdfrwt>
<pdfrwt beam="2">  1       -2 0.75161484E-01 0.10498910E+04</pdfrwt>
<totfact> 0.19469573E+00</totfact>
</mgrwt>
</event>
<event>
 4    1  0.2701205E-007  0.9415204E+03  0.7818608E-02  0.9462421E-01
         -2   -1    0    0    0  501 -0.00000000000E+00  0.00000000000E+00  0.85975968524E+03  0.85975968524E+03  0.25500000000E-02 0.  1.
          2   -1    0    0  501    0  0.00000000000E+00 -0.00000000000E+00 -0.10281021946E+04  0.10281021946E+04  0.25500000000E-02 0. -1.
    8880023    1    1    2    0    0  0.52437317154E+03  0.42152500232E+03 -0.55902184810E+03  0.10949731428E+04  0.65864270000E+03 0.  0.
    8880022    1    1    2    0    0 -0.52437317154E+03 -0.42152500232E+03  0.39067933871E+03  0.79288873704E+03  0.15294330000E+03 0.  0.
<mgrwt>
<rscale>  0 0.87112003E+03</rscale>
<asrwt>0</asrwt>
<pdfrwt beam="1">  1        2 0.15816957E+00 0.94152045E+03</pdfrwt>
<pdfrwt beam="2">  1       -2 0.13227072E+00 0.94152045E+03</pdfrwt>
<totfact> 0.10016652E+01</totfact>
</mgrwt>
</event>
<event>
 4    1  0.2701205E-007  0.1025117E+04  0.7818608E-02  0.9349410E-01
         -2   -1    0    0    0  501 -0.00000000000E+00  0.00000000000E+00  0.11332131209E+04  0.11332131209E+04  0.25500000000E-02 0.  1.
          2   -1    0    0  501    0  0.00000000000E+00 -0.00000000000E+00 -0.17778403558E+04  0.17778403558E+04  0.25500000000E-02 0. -1.
    8880023    1    1    2    0    0  0.48623686183E+03 -0.61695167131E+03 -0.14499398666E+04  0.17757228032E+04  0.65864270000E+03 0.  0.
    8880022    1    1    2    0    0 -0.48623686183E+03  0.61695167131E+03  0.80531263167E+03  0.11353306735E+04  0.15294330000E+03 0.  0.
<mgrwt>
<rscale>  0 0.96358639E+03</rscale>
<asrwt>0</asrwt>
<pdfrwt beam="1">  1        2 0.27351390E+00 0.10251175E+04</pdfrwt>
<pdfrwt beam="2">  1       -2 0.17434048E+00 0.10251175E+04</pdfrwt>
<totfact> 0.17481554E+00</totfact>
</mgrwt>
</event>
<event>
 4    1  0.2701205E-007  0.9012127E+03  0.7818608E-02  0.9524088E-01
         -2   -1    0    0    0  501 -0.00000000000E+00  0.00000000000E+00  0.39211946028E+03  0.39211946028E+03  0.25500000000E-02 0.  1.
          2   -1    0    0  501    0  0.00000000000E+00 -0.00000000000E+00 -0.19190648701E+04  0.19190648701E+04  0.25500000000E-02 0. -1.
    8880023    1    1    2    0    0 -0.43123687012E+03 -0.43864444416E+03 -0.13996264656E+04  0.16646737326E+04  0.65864270000E+03 0.  0.
    8880022    1    1    2    0    0  0.43123687012E+03  0.43864444416E+03 -0.12731894430E+03  0.64651059785E+03  0.15294330000E+03 0.  0.
<mgrwt>
<rscale>  0 0.82531002E+03</rscale>
<asrwt>0</asrwt>
<pdfrwt beam="1">  1        2 0.29524074E+00 0.90121273E+03</pdfrwt>
<pdfrwt beam="2">  1       -2 0.60326072E-01 0.90121273E+03</pdfrwt>
<totfact> 0.19224109E+01</totfact>
</mgrwt>
</event>
<event>
 4    1  0.2701205E-007  0.1175006E+04  0.7818608E-02  0.9181809E-01
         -2   -1    0    0    0  501 -0.00000000000E+00  0.00000000000E+00  0.72482068105E+03  0.72482068106E+03  0.25500000000E-02 0.  1.
          2   -1    0    0  501    0  0.00000000000E+00 -0.00000000000E+00 -0.25359664466E+04  0.25359664466E+04  0.25500000000E-02 0. -1.
    8880023    1    1    2    0    0 -0.26728528737E+03  0.93562154777E+03 -0.19392945104E+04  0.22674881499E+04  0.65864270000E+03 0.  0.
    8880022    1    1    2    0    0  0.26728528737E+03 -0.93562154777E+03  0.12814874482E+03  0.99329897781E+03  0.15294330000E+03 0.  0.
<mgrwt>
<rscale>  0 0.11243173E+04</rscale>
<asrwt>0</asrwt>
<pdfrwt beam="1">  1        2 0.39014868E+00 0.11750061E+04</pdfrwt>
<pdfrwt beam="2">  1       -2 0.11151088E+00 0.11750061E+04</pdfrwt>
<totfact> 0.20775383E+00</totfact>
</mgrwt>
</event>
<event>
 4    1  0.2701205E-007  0.6856936E+03  0.7818608E-02  0.1006270E+00
          2   -1    0    0  501    0  0.00000000000E+00  0.00000000000E+00  0.11850501889E+04  0.11850501889E+04  0.25500000000E-02 0. -1.
         -2   -1    0    0    0  501 -0.00000000000E+00 -0.00000000000E+00 -0.59466307999E+03  0.59466308000E+03  0.25500000000E-02 0.  1.
    8880023    1    1    2    0    0 -0.96200459258E+02 -0.16465411630E+03  0.10529468050E+04  0.12565320079E+04  0.65864270000E+03 0. -1.
    8880022    1    1    2    0    0  0.96200459258E+02  0.16465411630E+03 -0.46255969612E+03  0.52318126101E+03  0.15294330000E+03 0.  0.
<mgrwt>
<rscale>  0 0.52984192E+03</rscale>
<asrwt>0</asrwt>
<pdfrwt beam="1">  1        2 0.18231541E+00 0.68569360E+03</pdfrwt>
<pdfrwt beam="2">  1       -2 0.91486628E-01 0.68569360E+03</pdfrwt>
<totfact> 0.20196789E+01</totfact>
</mgrwt>
</event>
<event>
 4    1  0.2701205E-007  0.6780309E+03  0.7818608E-02  0.1010460E+00
         -2   -1    0    0    0  501 -0.00000000000E+00  0.00000000000E+00  0.22378187155E+03  0.22378187157E+03  0.25500000000E-02 0.  1.
          2   -1    0    0  501    0  0.00000000000E+00 -0.00000000000E+00 -0.37560380857E+04  0.37560380857E+04  0.25500000000E-02 0. -1.
    8880023    1    1    2    0    0 -0.63740147749E+02 -0.14782711092E+03 -0.36609238697E+04  0.37231827040E+04  0.65864270000E+03 0. -1.
    8880022    1    1    2    0    0  0.63740147749E+02  0.14782711092E+03  0.12866765558E+03  0.25663725327E+03  0.15294330000E+03 0.  0.
<mgrwt>
<rscale>  0 0.51292164E+03</rscale>
<asrwt>0</asrwt>
<pdfrwt beam="1">  1        2 0.57785197E+00 0.67803087E+03</pdfrwt>
<pdfrwt beam="2">  1       -2 0.34427983E-01 0.67803087E+03</pdfrwt>
<totfact> 0.46618961E+00</totfact>
</mgrwt>
</event>
<event>
 4    1  0.2701205E-007  0.6684368E+03  0.7818608E-02  0.1016809E+00
         -2   -1    0    0    0  501 -0.00000000000E+00  0.00000000000E+00  0.96760582386E+02  0.96760582420E+02  0.25500000000E-02 0.  1.
          2   -1    0    0  501    0  0.00000000000E+00 -0.00000000000E+00 -0.20149448016E+04  0.20149448016E+04  0.25500000000E-02 0. -1.
    8880023    1    1    2    0    0 -0.91242446224E+02  0.68354571650E+02 -0.16690601153E+04  0.17979347614E+04  0.65864270000E+03 0.  0.
    8880022    1    1    2    0    0  0.91242446224E+02 -0.68354571650E+02 -0.24912410389E+03  0.31377062261E+03  0.15294330000E+03 0.  0.
<mgrwt>
<rscale>  0 0.48855875E+03</rscale>
<asrwt>0</asrwt>
<pdfrwt beam="1">  1        2 0.30999148E+00 0.66843679E+03</pdfrwt>
<pdfrwt beam="2">  1       -2 0.14886245E-01 0.66843679E+03</pdfrwt>
<totfact> 0.23997993E+02</totfact>
</mgrwt>
</event>
<event>
 4    1  0.2701205E-007  0.6660943E+03  0.7818608E-02  0.1018632E+00
         -2   -1    0    0    0  501 -0.00000000000E+00  0.00000000000E+00  0.22542412206E+03  0.22542412207E+03  0.25500000000E-02 0.  1.
          2   -1    0    0  501    0  0.00000000000E+00 -0.00000000000E+00 -0.12353466539E+04  0.12353466539E+04  0.25500000000E-02 0. -1.
    8880023    1    1    2    0    0  0.92335457373E+02  0.36682888783E+02 -0.10770898800E+04  0.12664139477E+04  0.65864270000E+03 0. -1.
    8880022    1    1    2    0    0 -0.92335457373E+02 -0.36682888783E+02  0.67167348187E+02  0.19435682827E+03  0.15294330000E+03 0.  0.
<mgrwt>
<rscale>  0 0.48183372E+03</rscale>
<asrwt>0</asrwt>
<pdfrwt beam="1">  1        2 0.19005333E+00 0.66609435E+03</pdfrwt>
<pdfrwt beam="2">  1       -2 0.34680635E-01 0.66609435E+03</pdfrwt>
<totfact> 0.14352056E+02</totfact>
</mgrwt>
</event>
<event>
 4    1  0.2701205E-007  0.8693543E+03  0.7818608E-02  0.9577136E-01
          2   -1    0    0  501    0  0.00000000000E+00  0.00000000000E+00  0.13243231468E+04  0.13243231468E+04  0.25500000000E-02 0. -1.
         -2   -1    0    0    0  501 -0.00000000000E+00 -0.00000000000E+00 -0.97134347661E+03  0.97134347661E+03  0.25500000000E-02 0.  1.
    8880023    1    1    2    0    0 -0.48842416902E+03  0.28880522864E+03  0.10634957429E+04  0.13736083978E+04  0.65864270000E+03 0. -1.
    8880022    1    1    2    0    0  0.48842416902E+03 -0.28880522864E+03 -0.71051607269E+03  0.92205822568E+03  0.15294330000E+03 0.  0.
<mgrwt>
<rscale>  0 0.78828148E+03</rscale>
<asrwt>0</asrwt>
<pdfrwt beam="1">  1        2 0.20374202E+00 0.86935426E+03</pdfrwt>
<pdfrwt beam="2">  1       -2 0.14943746E+00 0.86935426E+03</pdfrwt>
<totfact> 0.48757041E+00</totfact>
</mgrwt>
</event>
<event>
 4    1  0.2701205E-007  0.8052487E+03  0.7818608E-02  0.9699560E-01
         -2   -1    0    0    0  501 -0.00000000000E+00  0.00000000000E+00  0.15541695414E+03  0.15541695416E+03  0.25500000000E-02 0.  1.
          2   -1    0    0  501    0  0.00000000000E+00 -0.00000000000E+00 -0.29680017362E+04  0.29680017362E+04  0.25500000000E-02 0. -1.
    8880023    1    1    2    0    0  0.15908703553E+03 -0.43509379650E+03 -0.21840434381E+04  0.23277609934E+04  0.65864270000E+03 0. -1.
    8880022    1    1    2    0    0 -0.15908703553E+03  0.43509379650E+03 -0.62854134393E+03  0.79565769692E+03  0.15294330000E+03 0.  1.
<mgrwt>
<rscale>  0 0.71042991E+03</rscale>
<asrwt>0</asrwt>
<pdfrwt beam="1">  1        2 0.45661561E+00 0.80524872E+03</pdfrwt>
<pdfrwt beam="2">  1       -2 0.23910303E-01 0.80524872E+03</pdfrwt>
<totfact> 0.29674784E+01</totfact>
</mgrwt>
</event>
<event>
 4    1  0.2701205E-007  0.8971208E+03  0.7818608E-02  0.9530670E-01
         -2   -1    0    0    0  501 -0.00000000000E+00  0.00000000000E+00  0.38185490348E+03  0.38185490348E+03  0.25500000000E-02 0.  1.
          2   -1    0    0  501    0  0.00000000000E+00 -0.00000000000E+00 -0.19856200318E+04  0.19856200318E+04  0.25500000000E-02 0. -1.
    8880023    1    1    2    0    0 -0.31381439758E+03 -0.52204983462E+03 -0.34580168171E+03  0.96145957549E+03  0.65864270000E+03 0.  1.
    8880022    1    1    2    0    0  0.31381439758E+03  0.52204983462E+03 -0.12579634466E+04  0.14060153598E+04  0.15294330000E+03 0.  0.
<mgrwt>
<rscale>  0 0.82059958E+03</rscale>
<asrwt>0</asrwt>
<pdfrwt beam="1">  1        2 0.30548000E+00 0.89712079E+03</pdfrwt>
<pdfrwt beam="2">  1       -2 0.58746909E-01 0.89712079E+03</pdfrwt>
<totfact> 0.18702256E+01</totfact>
</mgrwt>
</event>
<event>
 4    1  0.2701205E-007  0.9071746E+03  0.7818608E-02  0.9514611E-01
          2   -1    0    0  501    0  0.00000000000E+00  0.00000000000E+00  0.17518487698E+04  0.17518487698E+04  0.25500000000E-02 0. -1.
         -2   -1    0    0    0  501 -0.00000000000E+00 -0.00000000000E+00 -0.67227469668E+03  0.67227469669E+03  0.25500000000E-02 0.  1.
    8880023    1    1    2    0    0  0.25873350517E+03 -0.56763765987E+03  0.14292236298E+04  0.16928218836E+04  0.65864270000E+03 0.  0.
    8880022    1    1    2    0    0 -0.25873350517E+03  0.56763765987E+03 -0.34964955664E+03  0.73130158285E+03  0.15294330000E+03 0.  0.
<mgrwt>
<rscale>  0 0.83215143E+03</rscale>
<asrwt>0</asrwt>
<pdfrwt beam="1">  1        2 0.26951519E+00 0.90717460E+03</pdfrwt>
<pdfrwt beam="2">  1       -2 0.10342688E+00 0.90717460E+03</pdfrwt>
<totfact> 0.70522049E+00</totfact>
</mgrwt>
</event>
<event>
 4    1  0.2701205E-007  0.1583294E+04  0.7818608E-02  0.8852953E-01
          2   -1    0    0  501    0  0.00000000000E+00  0.00000000000E+00  0.21354642667E+04  0.21354642667E+04  0.25500000000E-02 0. -1.
         -2   -1    0    0    0  501 -0.00000000000E+00 -0.00000000000E+00 -0.18270761596E+04  0.18270761596E+04  0.25500000000E-02 0.  1.
    8880023    1    1    2    0    0 -0.92901880212E+03 -0.10999701458E+04  0.14280953285E+04  0.21321999742E+04  0.65864270000E+03 0.  0.
    8880022    1    1    2    0    0  0.92901880212E+03  0.10999701458E+04 -0.11197072214E+04  0.18303404522E+04  0.15294330000E+03 0.  0.
<mgrwt>
<rscale>  0 0.15483015E+04</rscale>
<asrwt>0</asrwt>
<pdfrwt beam="1">  1        2 0.32853296E+00 0.15832942E+04</pdfrwt>
<pdfrwt beam="2">  1       -2 0.28108864E+00 0.15832942E+04</pdfrwt>
<totfact> 0.21613693E-01</totfact>
</mgrwt>
</event>
<event>
 4    1  0.2701205E-007  0.1103510E+04  0.7818608E-02  0.9257158E-01
         -2   -1    0    0    0  501 -0.00000000000E+00  0.00000000000E+00  0.15202326723E+04  0.15202326723E+04  0.25500000000E-02 0.  1.
          2   -1    0    0  501    0  0.00000000000E+00 -0.00000000000E+00 -0.17420885249E+04  0.17420885249E+04  0.25500000000E-02 0. -1.
    8880023    1    1    2    0    0 -0.38353666802E+03 -0.79801274183E+03 -0.13987552235E+04  0.17816428074E+04  0.65864270000E+03 0.  0.
    8880022    1    1    2    0    0  0.38353666802E+03  0.79801274183E+03  0.11768993709E+04  0.14806783898E+04  0.15294330000E+03 0.  1.
<mgrwt>
<rscale>  0 0.10482449E+04</rscale>
<asrwt>0</asrwt>
<pdfrwt beam="1">  1        2 0.26801362E+00 0.11035103E+04</pdfrwt>
<pdfrwt beam="2">  1       -2 0.23388195E+00 0.11035103E+04</pdfrwt>
<totfact> 0.73892320E-01</totfact>
</mgrwt>
</event>
<event>
 4    1  0.2701205E-007  0.8585834E+03  0.7818608E-02  0.9596088E-01
         -2   -1    0    0    0  501 -0.00000000000E+00  0.00000000000E+00  0.83478314028E+03  0.83478314028E+03  0.25500000000E-02 0.  1.
          2   -1    0    0  501    0  0.00000000000E+00 -0.00000000000E+00 -0.30425304158E+04  0.30425304158E+04  0.25500000000E-02 0. -1.
    8880023    1    1    2    0    0 -0.41690487779E+03 -0.35992451381E+03 -0.28739684466E+04  0.29994766495E+04  0.65864270000E+03 0.  0.
    8880022    1    1    2    0    0  0.41690487779E+03  0.35992451381E+03  0.66622117105E+03  0.87783690658E+03  0.15294330000E+03 0.  0.
<mgrwt>
<rscale>  0 0.77555631E+03</rscale>
<asrwt>0</asrwt>
<pdfrwt beam="1">  1        2 0.46808160E+00 0.85858345E+03</pdfrwt>
<pdfrwt beam="2">  1       -2 0.12842818E+00 0.85858345E+03</pdfrwt>
<totfact> 0.76652652E-01</totfact>
</mgrwt>
</event>
<event>
 4    1  0.2701205E-007  0.9393669E+03  0.7818608E-02  0.9465581E-01
          2   -1    0    0  501    0  0.00000000000E+00  0.00000000000E+00  0.10847422934E+04  0.10847422934E+04  0.25500000000E-02 0. -1.
         -2   -1    0    0    0  501 -0.00000000000E+00 -0.00000000000E+00 -0.11936977107E+04  0.11936977107E+04  0.25500000000E-02 0.  1.
    8880023    1    1    2    0    0  0.45357570753E+03  0.49281743442E+03  0.73317657352E+03  0.11916199228E+04  0.65864270000E+03 0. -1.
    8880022    1    1    2    0    0 -0.45357570753E+03 -0.49281743442E+03 -0.84213199081E+03  0.10868200813E+04  0.15294330000E+03 0.  0.
<mgrwt>
<rscale>  0 0.86869680E+03</rscale>
<asrwt>0</asrwt>
<pdfrwt beam="1">  1        2 0.16688343E+00 0.93936689E+03</pdfrwt>
<pdfrwt beam="2">  1       -2 0.18364580E+00 0.93936689E+03</pdfrwt>
<totfact> 0.38039362E+00</totfact>
</mgrwt>
</event>
<event>
 4    1  0.2701205E-007  0.7026897E+03  0.7818608E-02  0.9986221E-01
          2   -1    0    0  501    0  0.00000000000E+00  0.00000000000E+00  0.16898127350E+04  0.16898127350E+04  0.25500000000E-02 0. -1.
         -2   -1    0    0    0  501 -0.00000000000E+00 -0.00000000000E+00 -0.38736306361E+03  0.38736306362E+03  0.25500000000E-02 0.  1.
    8880023    1    1    2    0    0 -0.16937411446E+03 -0.17684728563E+03  0.15468073272E+04  0.16989366282E+04  0.65864270000E+03 0. -1.
    8880022    1    1    2    0    0  0.16937411446E+03  0.17684728563E+03 -0.24435765577E+03  0.37823917041E+03  0.15294330000E+03 0.  0.
<mgrwt>
<rscale>  0 0.56258560E+03</rscale>
<asrwt>0</asrwt>
<pdfrwt beam="1">  1        2 0.25997119E+00 0.70268966E+03</pdfrwt>
<pdfrwt beam="2">  1       -2 0.59594318E-01 0.70268966E+03</pdfrwt>
<totfact> 0.26968939E+01</totfact>
</mgrwt>
</event>
<event>
 4    1  0.2701205E-007  0.1017965E+04  0.7818608E-02  0.9358423E-01
         -2   -1    0    0    0  501 -0.00000000000E+00  0.00000000000E+00  0.75407609806E+03  0.75407609806E+03  0.25500000000E-02 0.  1.
          2   -1    0    0  501    0  0.00000000000E+00 -0.00000000000E+00 -0.26050671624E+04  0.26050671624E+04  0.25500000000E-02 0. -1.
    8880023    1    1    2    0    0 -0.69657408223E+03 -0.34238367289E+03 -0.22526067699E+04  0.24719404316E+04  0.65864270000E+03 0.  0.
    8880022    1    1    2    0    0  0.69657408223E+03  0.34238367289E+03  0.40161570556E+03  0.88720282882E+03  0.15294330000E+03 0.  0.
<mgrwt>
<rscale>  0 0.95577776E+03</rscale>
<asrwt>0</asrwt>
<pdfrwt beam="1">  1        2 0.40077956E+00 0.10179648E+04</pdfrwt>
<pdfrwt beam="2">  1       -2 0.11601171E+00 0.10179648E+04</pdfrwt>
<totfact> 0.17561998E+00</totfact>
</mgrwt>
</event>
<event>
 4    1  0.2701205E-007  0.8073344E+03  0.7818608E-02  0.9695156E-01
          2   -1    0    0  501    0  0.00000000000E+00  0.00000000000E+00  0.22118799162E+04  0.22118799162E+04  0.25500000000E-02 0. -1.
         -2   -1    0    0    0  501 -0.00000000000E+00 -0.00000000000E+00 -0.25272494914E+03  0.25272494915E+03  0.25500000000E-02 0.  1.
    8880023    1    1    2    0    0 -0.49591251781E+02  0.46424055840E+03  0.56225732762E+03  0.98383031923E+03  0.65864270000E+03 0.  1.
    8880022    1    1    2    0    0  0.49591251781E+02 -0.46424055840E+03  0.13968976394E+04  0.14807745461E+04  0.15294330000E+03 0.  0.
<mgrwt>
<rscale>  0 0.71305914E+03</rscale>
<asrwt>0</asrwt>
<pdfrwt beam="1">  1        2 0.34028922E+00 0.80733438E+03</pdfrwt>
<pdfrwt beam="2">  1       -2 0.38880761E-01 0.80733438E+03</pdfrwt>
<totfact> 0.32704446E+01</totfact>
</mgrwt>
</event>
<event>
 4    1  0.2701205E-007  0.1386607E+04  0.7818608E-02  0.8994160E-01
          2   -1    0    0  501    0  0.00000000000E+00  0.00000000000E+00  0.30754198518E+04  0.30754198518E+04  0.25500000000E-02 0. -1.
         -2   -1    0    0    0  501 -0.00000000000E+00 -0.00000000000E+00 -0.57947855754E+03  0.57947855755E+03  0.25500000000E-02 0.  1.
    8880023    1    1    2    0    0 -0.11872346293E+04  0.28167673114E+03  0.16834935689E+04  0.21810155086E+04  0.65864270000E+03 0.  0.
    8880022    1    1    2    0    0  0.11872346293E+04 -0.28167673114E+03  0.81244772539E+03  0.14738829008E+04  0.15294330000E+03 0.  0.
<mgrwt>
<rscale>  0 0.13456070E+04</rscale>
<asrwt>0</asrwt>
<pdfrwt beam="1">  1        2 0.47314151E+00 0.13866067E+04</pdfrwt>
<pdfrwt beam="2">  1       -2 0.89150548E-01 0.13866067E+04</pdfrwt>
<totfact> 0.16370280E+00</totfact>
</mgrwt>
</event>
<event>
 4    1  0.2701205E-007  0.8614131E+03  0.7818608E-02  0.9591055E-01
         -2   -1    0    0    0  501 -0.00000000000E+00  0.00000000000E+00  0.96410703130E+03  0.96410703131E+03  0.25500000000E-02 0.  1.
          2   -1    0    0  501    0  0.00000000000E+00 -0.00000000000E+00 -0.22807791304E+04  0.22807791304E+04  0.25500000000E-02 0. -1.
    8880023    1    1    2    0    0  0.49863621409E+03  0.24409885685E+03 -0.21016489554E+04  0.22713345998E+04  0.65864270000E+03 0.  0.
    8880022    1    1    2    0    0 -0.49863621409E+03 -0.24409885685E+03  0.78497685630E+03  0.97355156199E+03  0.15294330000E+03 0.  0.
<mgrwt>
<rscale>  0 0.77891077E+03</rscale>
<asrwt>0</asrwt>
<pdfrwt beam="1">  1        2 0.35088910E+00 0.86141310E+03</pdfrwt>
<pdfrwt beam="2">  1       -2 0.14832416E+00 0.86141310E+03</pdfrwt>
<totfact> 0.14696835E+00</totfact>
</mgrwt>
</event>
<event>
 4    1  0.2701205E-007  0.7953153E+03  0.7818608E-02  0.9721018E-01
         -2   -1    0    0    0  501 -0.00000000000E+00  0.00000000000E+00  0.15933666371E+04  0.15933666371E+04  0.25500000000E-02 0.  1.
          2   -1    0    0  501    0  0.00000000000E+00 -0.00000000000E+00 -0.51960756182E+03  0.51960756183E+03  0.25500000000E-02 0. -1.
    8880023    1    1    2    0    0 -0.43224110962E+03  0.10901273744E+03 -0.14305780133E+03  0.80807913879E+03  0.65864270000E+03 0.  0.
    8880022    1    1    2    0    0  0.43224110962E+03 -0.10901273744E+03  0.12168168766E+04  0.13048950602E+04  0.15294330000E+03 0.  0.
<mgrwt>
<rscale>  0 0.69779036E+03</rscale>
<asrwt>0</asrwt>
<pdfrwt beam="1">  1        2 0.79939625E-01 0.79531526E+03</pdfrwt>
<pdfrwt beam="2">  1       -2 0.24513333E+00 0.79531526E+03</pdfrwt>
<totfact> 0.41438279E+00</totfact>
</mgrwt>
</event>
<event>
 4    1  0.2701205E-007  0.7949464E+03  0.7818608E-02  0.9721831E-01
          2   -1    0    0  501    0  0.00000000000E+00  0.00000000000E+00  0.83563403901E+03  0.83563403902E+03  0.25500000000E-02 0. -1.
         -2   -1    0    0    0  501 -0.00000000000E+00 -0.00000000000E+00 -0.15115381544E+04  0.15115381544E+04  0.25500000000E-02 0.  1.
    8880023    1    1    2    0    0  0.23859258318E+03 -0.37577012350E+03  0.59432238850E+03  0.99255171865E+03  0.65864270000E+03 0. -1.
    8880022    1    1    2    0    0 -0.23859258318E+03  0.37577012350E+03 -0.12702265039E+04  0.13546204748E+04  0.15294330000E+03 0.  0.
<mgrwt>
<rscale>  0 0.69731711E+03</rscale>
<asrwt>0</asrwt>
<pdfrwt beam="1">  1        2 0.12855908E+00 0.79494642E+03</pdfrwt>
<pdfrwt beam="2">  1       -2 0.23254433E+00 0.79494642E+03</pdfrwt>
<totfact> 0.27350555E+00</totfact>
</mgrwt>
</event>
<event>
 4    1  0.2701205E-007  0.6785458E+03  0.7818608E-02  0.1010158E+00
         -2   -1    0    0    0  501 -0.00000000000E+00  0.00000000000E+00  0.34396005087E+03  0.34396005088E+03  0.25500000000E-02 0.  1.
          2   -1    0    0  501    0  0.00000000000E+00 -0.00000000000E+00 -0.28230420553E+04  0.28230420553E+04  0.25500000000E-02 0. -1.
    8880023    1    1    2    0    0  0.15837897734E+03 -0.39118555749E+02 -0.27403465751E+04  0.28231053328E+04  0.65864270000E+03 0. -1.
    8880022    1    1    2    0    0 -0.15837897734E+03  0.39118555749E+02  0.26126457068E+03  0.34389677343E+03  0.15294330000E+03 0.  0.
<mgrwt>
<rscale>  0 0.51411695E+03</rscale>
<asrwt>0</asrwt>
<pdfrwt beam="1">  1        2 0.43431415E+00 0.67854577E+03</pdfrwt>
<pdfrwt beam="2">  1       -2 0.52916933E-01 0.67854577E+03</pdfrwt>
<totfact> 0.80939360E+00</totfact>
</mgrwt>
</event>
<event>
 4    1  0.2701205E-007  0.7272562E+03  0.7818608E-02  0.9898757E-01
          2   -1    0    0  501    0  0.00000000000E+00  0.00000000000E+00  0.11153222338E+04  0.11153222338E+04  0.25500000000E-02 0. -1.
         -2   -1    0    0    0  501 -0.00000000000E+00 -0.00000000000E+00 -0.81821641049E+03  0.81821641050E+03  0.25500000000E-02 0.  1.
    8880023    1    1    2    0    0 -0.89462425604E+02 -0.29510648591E+03  0.94943536749E+03  0.11959636646E+04  0.65864270000E+03 0. -1.
    8880022    1    1    2    0    0  0.89462425604E+02  0.29510648591E+03 -0.65232954415E+03  0.73757497979E+03  0.15294330000E+03 0.  0.
<mgrwt>
<rscale>  0 0.60321563E+03</rscale>
<asrwt>0</asrwt>
<pdfrwt beam="1">  1        2 0.17158804E+00 0.72725619E+03</pdfrwt>
<pdfrwt beam="2">  1       -2 0.12587945E+00 0.72725619E+03</pdfrwt>
<totfact> 0.10259807E+01</totfact>
</mgrwt>
</event>
<event>
 4    1  0.2701205E-007  0.7201304E+03  0.7818608E-02  0.9922145E-01
         -2   -1    0    0    0  501 -0.00000000000E+00  0.00000000000E+00  0.14738238359E+03  0.14738238361E+03  0.25500000000E-02 0.  1.
          2   -1    0    0  501    0  0.00000000000E+00 -0.00000000000E+00 -0.29355039194E+04  0.29355039194E+04  0.25500000000E-02 0. -1.
    8880023    1    1    2    0    0  0.16429034848E+03  0.24038784963E+03 -0.26127200775E+04  0.27101464991E+04  0.65864270000E+03 0.  1.
    8880022    1    1    2    0    0 -0.16429034848E+03 -0.24038784963E+03 -0.17540145833E+03  0.37273980395E+03  0.15294330000E+03 0.  0.
<mgrwt>
<rscale>  0 0.59199954E+03</rscale>
<asrwt>0</asrwt>
<pdfrwt beam="1">  1        2 0.45161594E+00 0.72013043E+03</pdfrwt>
<pdfrwt beam="2">  1       -2 0.22674215E-01 0.72013043E+03</pdfrwt>
<totfact> 0.34580814E+01</totfact>
</mgrwt>
</event>
<event>
 4    1  0.2701205E-007  0.1636157E+04  0.7818608E-02  0.8819031E-01
          2   -1    0    0  501    0  0.00000000000E+00  0.00000000000E+00  0.21665559101E+04  0.21665559101E+04  0.25500000000E-02 0. -1.
         -2   -1    0    0    0  501 -0.00000000000E+00 -0.00000000000E+00 -0.15607014312E+04  0.15607014312E+04  0.25500000000E-02 0.  1.
    8880023    1    1    2    0    0 -0.12702836138E+04  0.79346080353E+03 -0.65608888315E+03  0.17627998568E+04  0.65864270000E+03 0.  0.
    8880022    1    1    2    0    0  0.12702836138E+04 -0.79346080353E+03  0.12619433621E+04  0.19644574845E+04  0.15294330000E+03 0.  0.
<mgrwt>
<rscale>  0 0.16024721E+04</rscale>
<asrwt>0</asrwt>
<pdfrwt beam="1">  1        2 0.33331629E+00 0.16361573E+04</pdfrwt>
<pdfrwt beam="2">  1       -2 0.24010791E+00 0.16361573E+04</pdfrwt>
<totfact> 0.36850510E-01</totfact>
</mgrwt>
</event>
<event>
 4    1  0.2701205E-007  0.9746158E+03  0.7818608E-02  0.9415548E-01
          2   -1    0    0  501    0  0.00000000000E+00  0.00000000000E+00  0.10090867095E+04  0.10090867095E+04  0.25500000000E-02 0. -1.
         -2   -1    0    0    0  501 -0.00000000000E+00 -0.00000000000E+00 -0.15601351162E+04  0.15601351162E+04  0.25500000000E-02 0.  1.
    8880023    1    1    2    0    0 -0.64124226136E+03 -0.32384286897E+03  0.64281999162E+03  0.11675159911E+04  0.65864270000E+03 0. -1.
    8880022    1    1    2    0    0  0.64124226136E+03  0.32384286897E+03 -0.11938683983E+04  0.14017058347E+04  0.15294330000E+03 0.  0.
<mgrwt>
<rscale>  0 0.90807089E+03</rscale>
<asrwt>0</asrwt>
<pdfrwt beam="1">  1        2 0.15524411E+00 0.97461585E+03</pdfrwt>
<pdfrwt beam="2">  1       -2 0.24002079E+00 0.97461585E+03</pdfrwt>
<totfact> 0.18382423E+00</totfact>
</mgrwt>
</event>
<event>
 4    1  0.3044056E-007  0.7792342E+03  0.7818608E-02  0.9757639E-01
         -2   -1    0    0    0  501 -0.00000000000E+00  0.00000000000E+00  0.13159594130E+04  0.13159594130E+04  0.25500000000E-02 0.  1.
          2   -1    0    0  501    0  0.00000000000E+00 -0.00000000000E+00 -0.16344678683E+04  0.16344678683E+04  0.25500000000E-02 0. -1.
    8880023    1    1    2    0    0 -0.53550596600E+02  0.41295043035E+03 -0.14989438301E+04  0.16893899894E+04  0.65864270000E+03 0. -1.
    8880022    1    1    2    0    0  0.53550596600E+02 -0.41295043035E+03  0.11804353748E+04  0.12610372919E+04  0.15294330000E+03 0.  0.
<mgrwt>
<rscale>  0 0.67686282E+03</rscale>
<asrwt>0</asrwt>
<pdfrwt beam="1">  1        2 0.25145660E+00 0.77923419E+03</pdfrwt>
<pdfrwt beam="2">  1       -2 0.20245529E+00 0.77923419E+03</pdfrwt>
<totfact> 0.14082542E+00</totfact>
</mgrwt>
</event>
<event>
 4    1  0.2701205E-007  0.8583876E+03  0.7818608E-02  0.9596438E-01
         -2   -1    0    0    0  501 -0.00000000000E+00  0.00000000000E+00  0.89783986841E+03  0.89783986842E+03  0.25500000000E-02 0.  1.
          2   -1    0    0  501    0  0.00000000000E+00 -0.00000000000E+00 -0.80354946251E+03  0.80354946251E+03  0.25500000000E-02 0. -1.
    8880023    1    1    2    0    0 -0.51396610265E+03 -0.19712390938E+03 -0.39898638280E+03  0.94658297589E+03  0.65864270000E+03 0.  0.
    8880022    1    1    2    0    0  0.51396610265E+03  0.19712390938E+03  0.49327678871E+03  0.75480635504E+03  0.15294330000E+03 0.  0.
<mgrwt>
<rscale>  0 0.77532377E+03</rscale>
<asrwt>0</asrwt>
<pdfrwt beam="1">  1        2 0.12362299E+00 0.85838756E+03</pdfrwt>
<pdfrwt beam="2">  1       -2 0.13812921E+00 0.85838756E+03</pdfrwt>
<totfact> 0.12793319E+01</totfact>
</mgrwt>
</event>
<event>
 4    1  0.2701205E-007  0.8054693E+03  0.7818608E-02  0.9699093E-01
          2   -1    0    0  501    0  0.00000000000E+00  0.00000000000E+00  0.20180339564E+04  0.20180339564E+04  0.25500000000E-02 0. -1.
         -2   -1    0    0    0  501 -0.00000000000E+00 -0.00000000000E+00 -0.67411620487E+03  0.67411620487E+03  0.25500000000E-02 0.  1.
    8880023    1    1    2    0    0  0.28358234013E+03  0.36681282836E+03  0.18323370491E+04  0.20015593577E+04  0.65864270000E+03 0.  0.
    8880022    1    1    2    0    0 -0.28358234013E+03 -0.36681282836E+03 -0.48841929758E+03  0.69059080355E+03  0.15294330000E+03 0.  0.
<mgrwt>
<rscale>  0 0.71070837E+03</rscale>
<asrwt>0</asrwt>
<pdfrwt beam="1">  1        2 0.31046677E+00 0.80546930E+03</pdfrwt>
<pdfrwt beam="2">  1       -2 0.10371018E+00 0.80546930E+03</pdfrwt>
<totfact> 0.50790493E+00</totfact>
</mgrwt>
</event>
<event>
 4    1  0.2701205E-007  0.9333097E+03  0.7818608E-02  0.9474546E-01
         -2   -1    0    0    0  501 -0.00000000000E+00  0.00000000000E+00  0.23037058402E+04  0.23037058402E+04  0.25500000000E-02 0.  1.
          2   -1    0    0  501    0  0.00000000000E+00 -0.00000000000E+00 -0.10558678341E+04  0.10558678341E+04  0.25500000000E-02 0. -1.
    8880023    1    1    2    0    0 -0.61894517361E+03 -0.23273107747E+03 -0.78304036572E+03  0.12182853947E+04  0.65864270000E+03 0.  0.
    8880022    1    1    2    0    0  0.61894517361E+03  0.23273107747E+03  0.20308783718E+04  0.21412882796E+04  0.15294330000E+03 0.  0.
<mgrwt>
<rscale>  0 0.86186762E+03</rscale>
<asrwt>0</asrwt>
<pdfrwt beam="1">  1        2 0.16244121E+00 0.93330975E+03</pdfrwt>
<pdfrwt beam="2">  1       -2 0.35441628E+00 0.93330975E+03</pdfrwt>
<totfact> 0.34656304E-01</totfact>
</mgrwt>
</event>
<event>
 4    1  0.2701205E-007  0.8616270E+03  0.7818608E-02  0.9590676E-01
         -2   -1    0    0    0  501 -0.00000000000E+00  0.00000000000E+00  0.71599580682E+03  0.71599580682E+03  0.25500000000E-02 0.  1.
          2   -1    0    0  501    0  0.00000000000E+00 -0.00000000000E+00 -0.22607969752E+04  0.22607969752E+04  0.25500000000E-02 0. -1.
    8880023    1    1    2    0    0 -0.55425702111E+03 -0.37282076222E+02 -0.20416237312E+04  0.22159937871E+04  0.65864270000E+03 0. -1.
    8880022    1    1    2    0    0  0.55425702111E+03  0.37282076222E+02  0.49682256281E+03  0.76079899487E+03  0.15294330000E+03 0.  0.
<mgrwt>
<rscale>  0 0.77916394E+03</rscale>
<asrwt>0</asrwt>
<pdfrwt beam="1">  1        2 0.34781492E+00 0.86162695E+03</pdfrwt>
<pdfrwt beam="2">  1       -2 0.11015320E+00 0.86162695E+03</pdfrwt>
<totfact> 0.31989598E+00</totfact>
</mgrwt>
</event>
<event>
 4    1  0.2701205E-007  0.7825319E+03  0.7818608E-02  0.9749923E-01
         -2   -1    0    0    0  501 -0.00000000000E+00  0.00000000000E+00  0.32802683765E+03  0.32802683766E+03  0.25500000000E-02 0.  1.
          2   -1    0    0  501    0  0.00000000000E+00 -0.00000000000E+00 -0.13247770457E+04  0.13247770457E+04  0.25500000000E-02 0. -1.
    8880023    1    1    2    0    0 -0.23963784223E+03  0.34802244712E+03 -0.90092857054E+03  0.11933266169E+04  0.65864270000E+03 0. -1.
    8880022    1    1    2    0    0  0.23963784223E+03 -0.34802244712E+03 -0.95821637465E+02  0.45947726641E+03  0.15294330000E+03 0.  0.
<mgrwt>
<rscale>  0 0.68120632E+03</rscale>
<asrwt>0</asrwt>
<pdfrwt beam="1">  1        2 0.20381185E+00 0.78253187E+03</pdfrwt>
<pdfrwt beam="2">  1       -2 0.50465668E-01 0.78253187E+03</pdfrwt>
<totfact> 0.60302364E+01</totfact>
</mgrwt>
</event>
<event>
 4    1  0.2701205E-007  0.1122168E+04  0.7818608E-02  0.9236767E-01
          2   -1    0    0  501    0  0.00000000000E+00  0.00000000000E+00  0.21073106211E+04  0.21073106211E+04  0.25500000000E-02 0. -1.
         -2   -1    0    0    0  501 -0.00000000000E+00 -0.00000000000E+00 -0.92346848312E+03  0.92346848312E+03  0.25500000000E-02 0.  1.
    8880023    1    1    2    0    0 -0.12524558550E+03  0.89986951850E+03  0.16521887341E+04  0.19972454597E+04  0.65864270000E+03 0.  0.
    8880022    1    1    2    0    0  0.12524558550E+03 -0.89986951850E+03 -0.46834659619E+03  0.10335336444E+04  0.15294330000E+03 0.  0.
<mgrwt>
<rscale>  0 0.10681862E+04</rscale>
<asrwt>0</asrwt>
<pdfrwt beam="1">  1        2 0.32420163E+00 0.11221684E+04</pdfrwt>
<pdfrwt beam="2">  1       -2 0.14207207E+00 0.11221684E+04</pdfrwt>
<totfact> 0.19792754E+00</totfact>
</mgrwt>
</event>
<event>
 4    1  0.2701205E-007  0.7101078E+03  0.7818608E-02  0.9957601E-01
         -2   -1    0    0    0  501 -0.00000000000E+00  0.00000000000E+00  0.33196740640E+03  0.33196740641E+03  0.25500000000E-02 0.  1.
          2   -1    0    0  501    0  0.00000000000E+00 -0.00000000000E+00 -0.12043274917E+04  0.12043274917E+04  0.25500000000E-02 0. -1.
    8880023    1    1    2    0    0  0.19513285146E+03 -0.17990583078E+03 -0.98120761421E+03  0.12112066405E+04  0.65864270000E+03 0.  0.
    8880022    1    1    2    0    0 -0.19513285146E+03  0.17990583078E+03  0.10884752889E+03  0.32508825759E+03  0.15294330000E+03 0.  0.
<mgrwt>
<rscale>  0 0.57549109E+03</rscale>
<asrwt>0</asrwt>
<pdfrwt beam="1">  1        2 0.18528115E+00 0.71010784E+03</pdfrwt>
<pdfrwt beam="2">  1       -2 0.51071909E-01 0.71010784E+03</pdfrwt>
<totfact> 0.69615117E+01</totfact>
</mgrwt>
</event>
<event>
 4    1  0.2701205E-007  0.6647702E+03  0.7818608E-02  0.1019727E+00
          2   -1    0    0  501    0  0.00000000000E+00  0.00000000000E+00  0.71083408173E+03  0.71083408174E+03  0.25500000000E-02 0. -1.
         -2   -1    0    0    0  501 -0.00000000000E+00 -0.00000000000E+00 -0.32438589277E+03  0.32438589278E+03  0.25500000000E-02 0.  1.
    8880023    1    1    2    0    0  0.25942424653E+02 -0.86233505652E+02  0.49352117368E+03  0.82793875500E+03  0.65864270000E+03 0.  0.
    8880022    1    1    2    0    0 -0.25942424653E+02  0.86233505652E+02 -0.10707298472E+03  0.20728121952E+03  0.15294330000E+03 0.  1.
<mgrwt>
<rscale>  0 0.47785265E+03</rscale>
<asrwt>0</asrwt>
<pdfrwt beam="1">  1        2 0.10935909E+00 0.66477021E+03</pdfrwt>
<pdfrwt beam="2">  1       -2 0.49905523E-01 0.66477021E+03</pdfrwt>
<totfact> 0.15500210E+02</totfact>
</mgrwt>
</event>
<event>
 4    1  0.2701205E-007  0.8511681E+03  0.7818608E-02  0.9609471E-01
         -2   -1    0    0    0  501 -0.00000000000E+00  0.00000000000E+00  0.88809897087E+03  0.88809897088E+03  0.25500000000E-02 0.  1.
          2   -1    0    0  501    0  0.00000000000E+00 -0.00000000000E+00 -0.15904390505E+04  0.15904390505E+04  0.25500000000E-02 0. -1.
    8880023    1    1    2    0    0  0.51831746903E+03 -0.14840471369E+03 -0.13662638291E+04  0.16097092951E+04  0.65864270000E+03 0.  0.
    8880022    1    1    2    0    0 -0.51831746903E+03  0.14840471369E+03  0.66392374938E+03  0.86882872636E+03  0.15294330000E+03 0.  0.
<mgrwt>
<rscale>  0 0.76672492E+03</rscale>
<asrwt>0</asrwt>
<pdfrwt beam="1">  1        2 0.24468293E+00 0.85116812E+03</pdfrwt>
<pdfrwt beam="2">  1       -2 0.13663061E+00 0.85116812E+03</pdfrwt>
<totfact> 0.43732817E+00</totfact>
</mgrwt>
</event>
<event>
 4    1  0.2701205E-007  0.1241864E+04  0.7818608E-02  0.9117464E-01
          2   -1    0    0  501    0  0.00000000000E+00  0.00000000000E+00  0.89143179775E+03  0.89143179775E+03  0.25500000000E-02 0. -1.
         -2   -1    0    0    0  501 -0.00000000000E+00 -0.00000000000E+00 -0.18861027462E+04  0.18861027462E+04  0.25500000000E-02 0.  1.
    8880023    1    1    2    0    0 -0.20342868408E+03 -0.10329731853E+04  0.10646666130E+03  0.12464197476E+04  0.65864270000E+03 0.  1.
    8880022    1    1    2    0    0  0.20342868408E+03  0.10329731853E+04 -0.11011376098E+04  0.15311147964E+04  0.15294330000E+03 0.  0.
<mgrwt>
<rscale>  0 0.11947505E+04</rscale>
<asrwt>0</asrwt>
<pdfrwt beam="1">  1        2 0.13714335E+00 0.12418643E+04</pdfrwt>
<pdfrwt beam="2">  1       -2 0.29016965E+00 0.12418643E+04</pdfrwt>
<totfact> 0.10565644E+00</totfact>
</mgrwt>
</event>
<event>
 4    1  0.2701205E-007  0.7695223E+03  0.7818608E-02  0.9781051E-01
          2   -1    0    0  501    0  0.00000000000E+00  0.00000000000E+00  0.11685409639E+04  0.11685409639E+04  0.25500000000E-02 0. -1.
         -2   -1    0    0    0  501 -0.00000000000E+00 -0.00000000000E+00 -0.41133798416E+03  0.41133798417E+03  0.25500000000E-02 0.  1.
    8880023    1    1    2    0    0 -0.89831900165E+02  0.38766565250E+03  0.84683244673E+03  0.11442420319E+04  0.65864270000E+03 0. -1.
    8880022    1    1    2    0    0  0.89831900165E+02 -0.38766565250E+03 -0.89629466952E+02  0.43563691623E+03  0.15294330000E+03 0.  0.
<mgrwt>
<rscale>  0 0.66389448E+03</rscale>
<asrwt>0</asrwt>
<pdfrwt beam="1">  1        2 0.17977553E+00 0.76952234E+03</pdfrwt>
<pdfrwt beam="2">  1       -2 0.63282767E-01 0.76952234E+03</pdfrwt>
<totfact> 0.46462534E+01</totfact>
</mgrwt>
</event>
<event>
 4    1  0.2701205E-007  0.1960524E+04  0.7818608E-02  0.8638580E-01
         -2   -1    0    0    0  501 -0.00000000000E+00  0.00000000000E+00  0.18690948637E+04  0.18690948637E+04  0.25500000000E-02 0.  1.
          2   -1    0    0  501    0  0.00000000000E+00 -0.00000000000E+00 -0.22648600142E+04  0.22648600142E+04  0.25500000000E-02 0. -1.
    8880023    1    1    2    0    0 -0.18363870448E+04 -0.19371443258E+03 -0.97908491104E+03  0.21914059709E+04  0.65864270000E+03 0.  0.
    8880022    1    1    2    0    0  0.18363870448E+04  0.19371443258E+03  0.58331976054E+03  0.19425489070E+04  0.15294330000E+03 0.  0.
<mgrwt>
<rscale>  0 0.19330451E+04</rscale>
<asrwt>0</asrwt>
<pdfrwt beam="1">  1        2 0.34844000E+00 0.19605236E+04</pdfrwt>
<pdfrwt beam="2">  1       -2 0.28755306E+00 0.19605236E+04</pdfrwt>
<totfact> 0.16039092E-01</totfact>
</mgrwt>
</event>
<event>
 4    1  0.2701205E-007  0.1058908E+04  0.7818608E-02  0.9308249E-01
          2   -1    0    0  501    0  0.00000000000E+00  0.00000000000E+00  0.28747868243E+04  0.28747868243E+04  0.25500000000E-02 0. -1.
         -2   -1    0    0    0  501 -0.00000000000E+00 -0.00000000000E+00 -0.68015504100E+03  0.68015504101E+03  0.25500000000E-02 0.  1.
    8880023    1    1    2    0    0  0.75295214402E+03  0.34718750690E+03  0.24540868081E+04  0.26727941118E+04  0.65864270000E+03 0.  0.
    8880022    1    1    2    0    0 -0.75295214402E+03 -0.34718750690E+03 -0.25945502479E+03  0.88214775352E+03  0.15294330000E+03 0.  0.
<mgrwt>
<rscale>  0 0.10002701E+04</rscale>
<asrwt>0</asrwt>
<pdfrwt beam="1">  1        2 0.44227490E+00 0.10589081E+04</pdfrwt>
<pdfrwt beam="2">  1       -2 0.10463924E+00 0.10589081E+04</pdfrwt>
<totfact> 0.15541552E+00</totfact>
</mgrwt>
</event>
<event>
 4    1  0.2701205E-007  0.1124317E+04  0.7818608E-02  0.9234453E-01
          2   -1    0    0  501    0  0.00000000000E+00  0.00000000000E+00  0.26735976500E+04  0.26735976500E+04  0.25500000000E-02 0. -1.
         -2   -1    0    0    0  501 -0.00000000000E+00 -0.00000000000E+00 -0.64779015152E+03  0.64779015152E+03  0.25500000000E-02 0.  1.
    8880023    1    1    2    0    0 -0.59663282139E+03  0.68870017614E+03  0.21128327714E+04  0.23933556322E+04  0.65864270000E+03 0.  0.
    8880022    1    1    2    0    0  0.59663282139E+03 -0.68870017614E+03 -0.87025272874E+02  0.92803216933E+03  0.15294330000E+03 0.  0.
<mgrwt>
<rscale>  0 0.10704783E+04</rscale>
<asrwt>0</asrwt>
<pdfrwt beam="1">  1        2 0.41132270E+00 0.11243171E+04</pdfrwt>
<pdfrwt beam="2">  1       -2 0.99660026E-01 0.11243171E+04</pdfrwt>
<totfact> 0.22812047E+00</totfact>
</mgrwt>
</event>
<event>
 4    1  0.5855231E-007  0.1090991E+04  0.7818608E-02  0.9271153E-01
         -2   -1    0    0    0  501 -0.00000000000E+00  0.00000000000E+00  0.15743232434E+04  0.15743232434E+04  0.25500000000E-02 0.  1.
          2   -1    0    0  501    0  0.00000000000E+00 -0.00000000000E+00 -0.24664383863E+04  0.24664383863E+04  0.25500000000E-02 0. -1.
    8880023    1    1    2    0    0 -0.59383099664E+03 -0.63546537911E+03 -0.22040577320E+04  0.24592950601E+04  0.65864270000E+03 0.  0.
    8880022    1    1    2    0    0  0.59383099664E+03  0.63546537911E+03  0.13119425890E+04  0.15814665695E+04  0.15294330000E+03 0.  0.
<mgrwt>
<rscale>  0 0.10348248E+04</rscale>
<asrwt>0</asrwt>
<pdfrwt beam="1">  1        2 0.37945206E+00 0.10909912E+04</pdfrwt>
<pdfrwt beam="2">  1       -2 0.24220358E+00 0.10909912E+04</pdfrwt>
<totfact> 0.25969424E-01</totfact>
</mgrwt>
</event>
<event>
 4    1  0.2701205E-007  0.9715102E+03  0.7818608E-02  0.9419819E-01
          2   -1    0    0  501    0  0.00000000000E+00  0.00000000000E+00  0.24807120933E+04  0.24807120933E+04  0.25500000000E-02 0. -1.
         -2   -1    0    0    0  501 -0.00000000000E+00 -0.00000000000E+00 -0.40277931732E+03  0.40277931733E+03  0.25500000000E-02 0.  1.
    8880023    1    1    2    0    0  0.39357900377E+03 -0.59591726153E+03  0.18966328793E+04  0.21309735568E+04  0.65864270000E+03 0. -1.
    8880022    1    1    2    0    0 -0.39357900377E+03  0.59591726153E+03  0.18129989674E+03  0.75251785386E+03  0.15294330000E+03 0.  1.
<mgrwt>
<rscale>  0 0.90462485E+03</rscale>
<asrwt>0</asrwt>
<pdfrwt beam="1">  1        2 0.38164800E+00 0.97151018E+03</pdfrwt>
<pdfrwt beam="2">  1       -2 0.61966051E-01 0.97151018E+03</pdfrwt>
<totfact> 0.87675098E+00</totfact>
</mgrwt>
</event>
<event>
 4    1  0.2701205E-007  0.8068114E+03  0.7818608E-02  0.9696257E-01
          2   -1    0    0  501    0  0.00000000000E+00  0.00000000000E+00  0.65910648747E+03  0.65910648748E+03  0.25500000000E-02 0. -1.
         -2   -1    0    0    0  501 -0.00000000000E+00 -0.00000000000E+00 -0.11303643192E+04  0.11303643192E+04  0.25500000000E-02 0.  1.
    8880023    1    1    2    0    0 -0.39894306198E+03  0.24078790293E+03  0.31225044684E+03  0.86512711708E+03  0.65864270000E+03 0.  0.
    8880022    1    1    2    0    0  0.39894306198E+03 -0.24078790293E+03 -0.78350827858E+03  0.92434368961E+03  0.15294330000E+03 0.  0.
<mgrwt>
<rscale>  0 0.71240059E+03</rscale>
<asrwt>0</asrwt>
<pdfrwt beam="1">  1        2 0.10140100E+00 0.80681137E+03</pdfrwt>
<pdfrwt beam="2">  1       -2 0.17390220E+00 0.80681137E+03</pdfrwt>
<totfact> 0.89348539E+00</totfact>
</mgrwt>
</event>
<event>
 4    1  0.2701205E-007  0.8550198E+03  0.7818608E-02  0.9602484E-01
         -2   -1    0    0    0  501 -0.00000000000E+00  0.00000000000E+00  0.85592621239E+03  0.85592621239E+03  0.25500000000E-02 0.  1.
          2   -1    0    0  501    0  0.00000000000E+00 -0.00000000000E+00 -0.14012183483E+04  0.14012183483E+04  0.25500000000E-02 0. -1.
    8880023    1    1    2    0    0 -0.67154342252E+02  0.54105360623E+03 -0.11471792933E+04  0.14307617719E+04  0.65864270000E+03 0.  0.
    8880022    1    1    2    0    0  0.67154342252E+02 -0.54105360623E+03  0.60188715739E+03  0.82638278887E+03  0.15294330000E+03 0.  0.
<mgrwt>
<rscale>  0 0.77131969E+03</rscale>
<asrwt>0</asrwt>
<pdfrwt beam="1">  1        2 0.21557205E+00 0.85501983E+03</pdfrwt>
<pdfrwt beam="2">  1       -2 0.13168096E+00 0.85501983E+03</pdfrwt>
<totfact> 0.61303661E+00</totfact>
</mgrwt>
</event>
<event>
 4    1  0.2701205E-007  0.6947232E+03  0.7818608E-02  0.1001984E+00
          2   -1    0    0  501    0  0.00000000000E+00  0.00000000000E+00  0.40233083766E+04  0.40233083766E+04  0.25500000000E-02 0. -1.
         -2   -1    0    0    0  501 -0.00000000000E+00 -0.00000000000E+00 -0.17318461130E+03  0.17318461132E+03  0.25500000000E-02 0.  1.
    8880023    1    1    2    0    0 -0.19054744872E+03 -0.11190060001E+03  0.38653841551E+04  0.39273190534E+04  0.65864270000E+03 0. -1.
    8880022    1    1    2    0    0  0.19054744872E+03  0.11190060001E+03 -0.15260389818E+02  0.26917393449E+03  0.15294330000E+03 0.  0.
<mgrwt>
<rscale>  0 0.54788867E+03</rscale>
<asrwt>0</asrwt>
<pdfrwt beam="1">  1        2 0.61897053E+00 0.69472317E+03</pdfrwt>
<pdfrwt beam="2">  1       -2 0.26643786E-01 0.69472317E+03</pdfrwt>
<totfact> 0.46819032E+00</totfact>
</mgrwt>
</event>
<event>
 4    1  0.2701205E-007  0.6897911E+03  0.7818608E-02  0.1004252E+00
          2   -1    0    0  501    0  0.00000000000E+00  0.00000000000E+00  0.14910989777E+04  0.14910989777E+04  0.25500000000E-02 0. -1.
         -2   -1    0    0    0  501 -0.00000000000E+00 -0.00000000000E+00 -0.32096433138E+03  0.32096433139E+03  0.25500000000E-02 0.  1.
    8880023    1    1    2    0    0  0.20055076190E+03 -0.42200711298E+02  0.13385740207E+04  0.15058526234E+04  0.65864270000E+03 0. -1.
    8880022    1    1    2    0    0 -0.20055076190E+03  0.42200711298E+02 -0.16843937445E+03  0.30621068566E+03  0.15294330000E+03 0.  1.
<mgrwt>
<rscale>  0 0.53824464E+03</rscale>
<asrwt>0</asrwt>
<pdfrwt beam="1">  1        2 0.22939984E+00 0.68979107E+03</pdfrwt>
<pdfrwt beam="2">  1       -2 0.49379128E-01 0.68979107E+03</pdfrwt>
<totfact> 0.51257435E+01</totfact>
</mgrwt>
</event>
<event>
 4    1  0.3364086E-007  0.1023065E+04  0.7818608E-02  0.9351985E-01
         -2   -1    0    0    0  501 -0.00000000000E+00  0.00000000000E+00  0.96597715368E+03  0.96597715368E+03  0.25500000000E-02 0.  1.
          2   -1    0    0  501    0  0.00000000000E+00 -0.00000000000E+00 -0.39535363197E+04  0.39535363197E+04  0.25500000000E-02 0. -1.
    8880023    1    1    2    0    0  0.61178362072E+03  0.48843834658E+03 -0.37068541520E+04  0.38454426439E+04  0.65864270000E+03 0. -1.
    8880022    1    1    2    0    0 -0.61178362072E+03 -0.48843834658E+03  0.71929498595E+03  0.10740708295E+04  0.15294330000E+03 0.  0.
<mgrwt>
<rscale>  0 0.96134705E+03</rscale>
<asrwt>0</asrwt>
<pdfrwt beam="1">  1        2 0.60823635E+00 0.10230647E+04</pdfrwt>
<pdfrwt beam="2">  1       -2 0.14861187E+00 0.10230647E+04</pdfrwt>
<totfact> 0.11922913E-01</totfact>
</mgrwt>
</event>
<event>
 4    1  0.2701205E-007  0.1147190E+04  0.7818608E-02  0.9210249E-01
          2   -1    0    0  501    0  0.00000000000E+00  0.00000000000E+00  0.22149540241E+04  0.22149540241E+04  0.25500000000E-02 0. -1.
         -2   -1    0    0    0  501 -0.00000000000E+00 -0.00000000000E+00 -0.12484785539E+04  0.12484785539E+04  0.25500000000E-02 0.  1.
    8880023    1    1    2    0    0  0.93907804277E+03 -0.19160754803E+02  0.18421858051E+04  0.21701828153E+04  0.65864270000E+03 0.  0.
    8880022    1    1    2    0    0 -0.93907804277E+03  0.19160754803E+02 -0.87571033498E+03  0.12932497627E+04  0.15294330000E+03 0.  0.
<mgrwt>
<rscale>  0 0.10948261E+04</rscale>
<asrwt>0</asrwt>
<pdfrwt beam="1">  1        2 0.34076215E+00 0.11471900E+04</pdfrwt>
<pdfrwt beam="2">  1       -2 0.19207363E+00 0.11471900E+04</pdfrwt>
<totfact> 0.74501293E-01</totfact>
</mgrwt>
</event>
<event>
 4    1  0.2701205E-007  0.1253719E+04  0.7818608E-02  0.9106593E-01
         -2   -1    0    0    0  501 -0.00000000000E+00  0.00000000000E+00  0.19883894934E+04  0.19883894934E+04  0.25500000000E-02 0.  1.
          2   -1    0    0  501    0  0.00000000000E+00 -0.00000000000E+00 -0.97115363267E+03  0.97115363268E+03  0.25500000000E-02 0. -1.
    8880023    1    1    2    0    0  0.14865239244E+02 -0.10666681419E+04  0.13395245062E+04  0.18347037934E+04  0.65864270000E+03 0.  0.
    8880022    1    1    2    0    0 -0.14865239244E+02  0.10666681419E+04 -0.32228864555E+03  0.11248393327E+04  0.15294330000E+03 0.  0.
<mgrwt>
<rscale>  0 0.12071818E+04</rscale>
<asrwt>0</asrwt>
<pdfrwt beam="1">  1        2 0.14940825E+00 0.12537193E+04</pdfrwt>
<pdfrwt beam="2">  1       -2 0.30590607E+00 0.12537193E+04</pdfrwt>
<totfact> 0.74809177E-01</totfact>
</mgrwt>
</event>
<event>
 4    1  0.2701205E-007  0.6656414E+03  0.7818608E-02  0.1019001E+00
         -2   -1    0    0    0  501 -0.00000000000E+00  0.00000000000E+00  0.69280741701E+03  0.69280741701E+03  0.25500000000E-02 0.  1.
          2   -1    0    0  501    0  0.00000000000E+00 -0.00000000000E+00 -0.11943893231E+04  0.11943893231E+04  0.25500000000E-02 0. -1.
    8880023    1    1    2    0    0  0.89473560180E+02 -0.35535564456E+02 -0.10869458959E+04  0.12745704693E+04  0.65864270000E+03 0. -1.
    8880022    1    1    2    0    0 -0.89473560180E+02  0.35535564456E+02  0.58536398972E+03  0.61262627090E+03  0.15294330000E+03 0.  0.
<mgrwt>
<rscale>  0 0.48048761E+03</rscale>
<asrwt>0</asrwt>
<pdfrwt beam="1">  1        2 0.18375220E+00 0.66564142E+03</pdfrwt>
<pdfrwt beam="2">  1       -2 0.10658576E+00 0.66564142E+03</pdfrwt>
<totfact> 0.13944852E+01</totfact>
</mgrwt>
</event>
<event>
 4    1  0.2701205E-007  0.8973991E+03  0.7818608E-02  0.9530220E-01
          2   -1    0    0  501    0  0.00000000000E+00  0.00000000000E+00  0.10193645692E+04  0.10193645692E+04  0.25500000000E-02 0. -1.
         -2   -1    0    0    0  501 -0.00000000000E+00 -0.00000000000E+00 -0.75319902748E+03  0.75319902748E+03  0.25500000000E-02 0.  1.
    8880023    1    1    2    0    0  0.70368561527E+02  0.60544469523E+03  0.58163933470E+03  0.10694061601E+04  0.65864270000E+03 0.  0.
    8880022    1    1    2    0    0 -0.70368561527E+02 -0.60544469523E+03 -0.31547379300E+03  0.70315743651E+03  0.15294330000E+03 0.  1.
<mgrwt>
<rscale>  0 0.82092040E+03</rscale>
<asrwt>0</asrwt>
<pdfrwt beam="1">  1        2 0.15682532E+00 0.89739914E+03</pdfrwt>
<pdfrwt beam="2">  1       -2 0.11587677E+00 0.89739914E+03</pdfrwt>
<totfact> 0.14194960E+01</totfact>
</mgrwt>
</event>
<event>
 4    1  0.2701205E-007  0.1512050E+04  0.7818608E-02  0.8901173E-01
         -2   -1    0    0    0  501 -0.00000000000E+00  0.00000000000E+00  0.13469702642E+04  0.13469702642E+04  0.25500000000E-02 0.  1.
          2   -1    0    0  501    0  0.00000000000E+00 -0.00000000000E+00 -0.32131931102E+04  0.32131931102E+04  0.25500000000E-02 0. -1.
    8880023    1    1    2    0    0 -0.13256767368E+04  0.30832971416E+03 -0.25989923091E+04  0.30068350889E+04  0.65864270000E+03 0.  0.
    8880022    1    1    2    0    0  0.13256767368E+04 -0.30832971416E+03  0.73276946310E+03  0.15533282854E+04  0.15294330000E+03 0.  0.
<mgrwt>
<rscale>  0 0.14751129E+04</rscale>
<asrwt>0</asrwt>
<pdfrwt beam="1">  1        2 0.49433740E+00 0.15120503E+04</pdfrwt>
<pdfrwt beam="2">  1       -2 0.20722620E+00 0.15120503E+04</pdfrwt>
<totfact> 0.14297887E-01</totfact>
</mgrwt>
</event>
<event>
 4    1  0.2701205E-007  0.7961037E+03  0.7818608E-02  0.9719285E-01
          2   -1    0    0  501    0  0.00000000000E+00  0.00000000000E+00  0.15541291932E+04  0.15541291932E+04  0.25500000000E-02 0. -1.
         -2   -1    0    0    0  501 -0.00000000000E+00 -0.00000000000E+00 -0.42286814939E+03  0.42286814940E+03  0.25500000000E-02 0.  1.
    8880023    1    1    2    0    0 -0.35922112739E+03 -0.26632881357E+03  0.12570452650E+04  0.14879327471E+04  0.65864270000E+03 0. -1.
    8880022    1    1    2    0    0  0.35922112739E+03  0.26632881357E+03 -0.12578422117E+03  0.48906459554E+03  0.15294330000E+03 0.  0.
<mgrwt>
<rscale>  0 0.69880098E+03</rscale>
<asrwt>0</asrwt>
<pdfrwt beam="1">  1        2 0.23909680E+00 0.79610368E+03</pdfrwt>
<pdfrwt beam="2">  1       -2 0.65056638E-01 0.79610368E+03</pdfrwt>
<totfact> 0.26275480E+01</totfact>
</mgrwt>
</event>
<event>
 4    1  0.2701205E-007  0.1984585E+04  0.7818608E-02  0.8626766E-01
         -2   -1    0    0    0  501 -0.00000000000E+00  0.00000000000E+00  0.25348784012E+04  0.25348784012E+04  0.25500000000E-02 0.  1.
          2   -1    0    0  501    0  0.00000000000E+00 -0.00000000000E+00 -0.23635280443E+04  0.23635280443E+04  0.25500000000E-02 0. -1.
    8880023    1    1    2    0    0 -0.10742115262E+04  0.15332434386E+04 -0.14169902184E+04  0.24385317981E+04  0.65864270000E+03 0.  0.
    8880022    1    1    2    0    0  0.10742115262E+04 -0.15332434386E+04  0.15883405753E+04  0.24598746474E+04  0.15294330000E+03 0.  0.
<mgrwt>
<rscale>  0 0.19574727E+04</rscale>
<asrwt>0</asrwt>
<pdfrwt beam="1">  1        2 0.36361970E+00 0.19845846E+04</pdfrwt>
<pdfrwt beam="2">  1       -2 0.38998130E+00 0.19845846E+04</pdfrwt>
<totfact> 0.31837781E-02</totfact>
</mgrwt>
</event>
<event>
 4    1  0.2701205E-007  0.1028844E+04  0.7818608E-02  0.9344757E-01
         -2   -1    0    0    0  501 -0.00000000000E+00  0.00000000000E+00  0.57976332606E+03  0.57976332607E+03  0.25500000000E-02 0.  1.
          2   -1    0    0  501    0  0.00000000000E+00 -0.00000000000E+00 -0.21967235796E+04  0.21967235797E+04  0.25500000000E-02 0. -1.
    8880023    1    1    2    0    0  0.55335012642E+03  0.56437049521E+03 -0.16788919355E+04  0.19690603738E+04  0.65864270000E+03 0.  0.
    8880022    1    1    2    0    0 -0.55335012642E+03 -0.56437049521E+03  0.61931681878E+02  0.80742653196E+03  0.15294330000E+03 0.  1.
<mgrwt>
<rscale>  0 0.96764860E+03</rscale>
<asrwt>0</asrwt>
<pdfrwt beam="1">  1        2 0.33795747E+00 0.10288443E+04</pdfrwt>
<pdfrwt beam="2">  1       -2 0.89194359E-01 0.10288443E+04</pdfrwt>
<totfact> 0.55989805E+00</totfact>
</mgrwt>
</event>
<event>
 4    1  0.2701205E-007  0.8055583E+03  0.7818608E-02  0.9698904E-01
          2   -1    0    0  501    0  0.00000000000E+00  0.00000000000E+00  0.13272015227E+04  0.13272015227E+04  0.25500000000E-02 0. -1.
         -2   -1    0    0    0  501 -0.00000000000E+00 -0.00000000000E+00 -0.96260756949E+03  0.96260756950E+03  0.25500000000E-02 0.  1.
    8880023    1    1    2    0    0 -0.19740034382E+02  0.46338352537E+03  0.11264559861E+04  0.13848564025E+04  0.65864270000E+03 0. -1.
    8880022    1    1    2    0    0  0.19740034382E+02 -0.46338352537E+03 -0.76186203288E+03  0.90495268976E+03  0.15294330000E+03 0.  0.
<mgrwt>
<rscale>  0 0.71082068E+03</rscale>
<asrwt>0</asrwt>
<pdfrwt beam="1">  1        2 0.20418485E+00 0.80555830E+03</pdfrwt>
<pdfrwt beam="2">  1       -2 0.14809347E+00 0.80555830E+03</pdfrwt>
<totfact> 0.50161371E+00</totfact>
</mgrwt>
</event>
<event>
 4    1  0.2701205E-007  0.1098133E+04  0.7818608E-02  0.9263137E-01
          2   -1    0    0  501    0  0.00000000000E+00  0.00000000000E+00  0.20806153434E+04  0.20806153434E+04  0.25500000000E-02 0. -1.
         -2   -1    0    0    0  501 -0.00000000000E+00 -0.00000000000E+00 -0.78245251234E+03  0.78245251234E+03  0.25500000000E-02 0.  1.
    8880023    1    1    2    0    0  0.29572866955E+03 -0.82742449920E+03 -0.20319140942E+03  0.11167737922E+04  0.65864270000E+03 0.  0.
    8880022    1    1    2    0    0 -0.29572866955E+03  0.82742449920E+03  0.15013542405E+04  0.17462940636E+04  0.15294330000E+03 0.  0.
<mgrwt>
<rscale>  0 0.10424851E+04</rscale>
<asrwt>0</asrwt>
<pdfrwt beam="1">  1        2 0.32009467E+00 0.10981334E+04</pdfrwt>
<pdfrwt beam="2">  1       -2 0.12037731E+00 0.10981334E+04</pdfrwt>
<totfact> 0.31360442E+00</totfact>
</mgrwt>
</event>
<event>
 4    1  0.2701205E-007  0.1937930E+04  0.7818608E-02  0.8649846E-01
         -2   -1    0    0    0  501 -0.00000000000E+00  0.00000000000E+00  0.27995007662E+04  0.27995007662E+04  0.25500000000E-02 0.  1.
          2   -1    0    0  501    0  0.00000000000E+00 -0.00000000000E+00 -0.14025589513E+04  0.14025589513E+04  0.25500000000E-02 0. -1.
    8880023    1    1    2    0    0  0.76860666535E+03  0.16525753708E+04  0.64153282825E+02  0.19389913388E+04  0.65864270000E+03 0.  0.
    8880022    1    1    2    0    0 -0.76860666535E+03 -0.16525753708E+04  0.13327885321E+04  0.22630683786E+04  0.15294330000E+03 0.  0.
<mgrwt>
<rscale>  0 0.19100975E+04</rscale>
<asrwt>0</asrwt>
<pdfrwt beam="1">  1        2 0.21577830E+00 0.19379298E+04</pdfrwt>
<pdfrwt beam="2">  1       -2 0.43069242E+00 0.19379298E+04</pdfrwt>
<totfact> 0.60409519E-02</totfact>
</mgrwt>
</event>
<event>
 4    1  0.2701205E-007  0.1070349E+04  0.7818608E-02  0.9294810E-01
          2   -1    0    0  501    0  0.00000000000E+00  0.00000000000E+00  0.10284295124E+04  0.10284295124E+04  0.25500000000E-02 0. -1.
         -2   -1    0    0    0  501 -0.00000000000E+00 -0.00000000000E+00 -0.20984754739E+04  0.20984754739E+04  0.25500000000E-02 0.  1.
    8880023    1    1    2    0    0 -0.11412426089E+03  0.83594946392E+03  0.61628789072E+03  0.12350938522E+04  0.65864270000E+03 0.  0.
    8880022    1    1    2    0    0  0.11412426089E+03 -0.83594946392E+03 -0.16863338522E+04  0.18918111341E+04  0.15294330000E+03 0.  0.
<mgrwt>
<rscale>  0 0.10126203E+04</rscale>
<asrwt>0</asrwt>
<pdfrwt beam="1">  1        2 0.15821993E+00 0.10703486E+04</pdfrwt>
<pdfrwt beam="2">  1       -2 0.32284238E+00 0.10703486E+04</pdfrwt>
<totfact> 0.55376974E-01</totfact>
</mgrwt>
</event>
<event>
 4    1  0.2701205E-007  0.1138865E+04  0.7818608E-02  0.9218971E-01
         -2   -1    0    0    0  501 -0.00000000000E+00  0.00000000000E+00  0.53781861788E+03  0.53781861788E+03  0.25500000000E-02 0.  1.
          2   -1    0    0  501    0  0.00000000000E+00 -0.00000000000E+00 -0.27351409009E+04  0.27351409009E+04  0.25500000000E-02 0. -1.
    8880023    1    1    2    0    0 -0.57034987885E+03  0.73341896269E+03 -0.20139826523E+04  0.23136850886E+04  0.65864270000E+03 0.  0.
    8880022    1    1    2    0    0  0.57034987885E+03 -0.73341896269E+03 -0.18333963066E+03  0.95927443013E+03  0.15294330000E+03 0.  0.
<mgrwt>
<rscale>  0 0.10859746E+04</rscale>
<asrwt>0</asrwt>
<pdfrwt beam="1">  1        2 0.42079090E+00 0.11388646E+04</pdfrwt>
<pdfrwt beam="2">  1       -2 0.82741327E-01 0.11388646E+04</pdfrwt>
<totfact> 0.32289933E+00</totfact>
</mgrwt>
</event>
<event>
 4    1  0.2701205E-007  0.9154606E+03  0.7818608E-02  0.9501655E-01
         -2   -1    0    0    0  501 -0.00000000000E+00  0.00000000000E+00  0.55206181466E+03  0.55206181466E+03  0.25500000000E-02 0.  1.
          2   -1    0    0  501    0  0.00000000000E+00 -0.00000000000E+00 -0.28362855498E+04  0.28362855498E+04  0.25500000000E-02 0. -1.
    8880023    1    1    2    0    0 -0.56567963030E+03  0.29028343246E+03 -0.25293842342E+04  0.26899540379E+04  0.65864270000E+03 0.  0.
    8880022    1    1    2    0    0  0.56567963030E+03 -0.29028343246E+03  0.24516049908E+03  0.69839332659E+03  0.15294330000E+03 0.  0.
<mgrwt>
<rscale>  0 0.84161942E+03</rscale>
<asrwt>0</asrwt>
<pdfrwt beam="1">  1        2 0.43635162E+00 0.91546061E+03</pdfrwt>
<pdfrwt beam="2">  1       -2 0.84932588E-01 0.91546061E+03</pdfrwt>
<totfact> 0.27335059E+00</totfact>
</mgrwt>
</event>
<event>
 4    1  0.2985318E-007  0.8420186E+03  0.7818608E-02  0.9626386E-01
          2   -1    0    0  501    0  0.00000000000E+00  0.00000000000E+00  0.20171836418E+04  0.20171836418E+04  0.25500000000E-02 0. -1.
         -2   -1    0    0    0  501 -0.00000000000E+00 -0.00000000000E+00 -0.13655842323E+04  0.13655842323E+04  0.25500000000E-02 0.  1.
    8880023    1    1    2    0    0  0.28233033202E+03  0.44212520933E+03  0.18681475207E+04  0.20491389613E+04  0.65864270000E+03 0. -1.
    8880022    1    1    2    0    0 -0.28233033202E+03 -0.44212520933E+03 -0.12165481112E+04  0.13336289128E+04  0.15294330000E+03 0.  0.
<mgrwt>
<rscale>  0 0.75574149E+03</rscale>
<asrwt>0</asrwt>
<pdfrwt beam="1">  1        2 0.31033594E+00 0.84201860E+03</pdfrwt>
<pdfrwt beam="2">  1       -2 0.21008988E+00 0.84201860E+03</pdfrwt>
<totfact> 0.76751911E-01</totfact>
</mgrwt>
</event>
<event>
 4    1  0.2701205E-007  0.2789797E+04  0.7818608E-02  0.8312338E-01
          2   -1    0    0  501    0  0.00000000000E+00  0.00000000000E+00  0.29004723894E+04  0.29004723894E+04  0.25500000000E-02 0. -1.
         -2   -1    0    0    0  501 -0.00000000000E+00 -0.00000000000E+00 -0.36325554960E+04  0.36325554960E+04  0.25500000000E-02 0.  1.
    8880023    1    1    2    0    0 -0.11881520087E+04  0.24366886373E+04  0.13615790438E+04  0.31043299454E+04  0.65864270000E+03 0.  0.
    8880022    1    1    2    0    0  0.11881520087E+04 -0.24366886373E+04 -0.20936621503E+04  0.34286979400E+04  0.15294330000E+03 0.  0.
<mgrwt>
<rscale>  0 0.27709689E+04</rscale>
<asrwt>0</asrwt>
<pdfrwt beam="1">  1        2 0.44622652E+00 0.27897969E+04</pdfrwt>
<pdfrwt beam="2">  1       -2 0.55885469E+00 0.27897969E+04</pdfrwt>
<totfact> 0.12307757E-03</totfact>
</mgrwt>
</event>
<event>
 4    1  0.2701205E-007  0.7652479E+03  0.7818608E-02  0.9791706E-01
          2   -1    0    0  501    0  0.00000000000E+00  0.00000000000E+00  0.13101823585E+04  0.13101823585E+04  0.25500000000E-02 0. -1.
         -2   -1    0    0    0  501 -0.00000000000E+00 -0.00000000000E+00 -0.39980659549E+03  0.39980659550E+03  0.25500000000E-02 0.  1.
    8880023    1    1    2    0    0  0.35064432087E+03  0.16983146887E+03  0.10220555622E+04  0.12767936192E+04  0.65864270000E+03 0. -1.
    8880022    1    1    2    0    0 -0.35064432087E+03 -0.16983146887E+03 -0.11167979914E+03  0.43319533484E+03  0.15294330000E+03 0.  0.
<mgrwt>
<rscale>  0 0.65809560E+03</rscale>
<asrwt>0</asrwt>
<pdfrwt beam="1">  1        2 0.20156652E+00 0.76524792E+03</pdfrwt>
<pdfrwt beam="2">  1       -2 0.61508706E-01 0.76524792E+03</pdfrwt>
<totfact> 0.40789707E+01</totfact>
</mgrwt>
</event>
<event>
 4    1  0.2701205E-007  0.7503476E+03  0.7818608E-02  0.9830769E-01
          2   -1    0    0  501    0  0.00000000000E+00  0.00000000000E+00  0.84052415854E+03  0.84052415855E+03  0.25500000000E-02 0. -1.
         -2   -1    0    0    0  501 -0.00000000000E+00 -0.00000000000E+00 -0.73445912985E+03  0.73445912986E+03  0.25500000000E-02 0.  1.
    8880023    1    1    2    0    0  0.13505502358E+03 -0.33312389028E+03  0.58894454532E+03  0.95387487093E+03  0.65864270000E+03 0. -1.
    8880022    1    1    2    0    0 -0.13505502358E+03  0.33312389028E+03 -0.48287951662E+03  0.62110841748E+03  0.15294330000E+03 0.  0.
<mgrwt>
<rscale>  0 0.63737099E+03</rscale>
<asrwt>0</asrwt>
<pdfrwt beam="1">  1        2 0.12931141E+00 0.75034765E+03</pdfrwt>
<pdfrwt beam="2">  1       -2 0.11299371E+00 0.75034765E+03</pdfrwt>
<totfact> 0.20132201E+01</totfact>
</mgrwt>
</event>
<event>
 4    1  0.2701205E-007  0.1471804E+04  0.7818608E-02  0.8929807E-01
         -2   -1    0    0    0  501 -0.00000000000E+00  0.00000000000E+00  0.51004967457E+03  0.51004967458E+03  0.25500000000E-02 0.  1.
          2   -1    0    0  501    0  0.00000000000E+00 -0.00000000000E+00 -0.44477944924E+04  0.44477944924E+04  0.25500000000E-02 0. -1.
    8880023    1    1    2    0    0  0.89646468145E+03  0.96371574035E+03 -0.11382600619E+04  0.18606028937E+04  0.65864270000E+03 0.  0.
    8880022    1    1    2    0    0 -0.89646468145E+03 -0.96371574035E+03 -0.27994847559E+04  0.30972412733E+04  0.15294330000E+03 0.  0.
<mgrwt>
<rscale>  0 0.14336612E+04</rscale>
<asrwt>0</asrwt>
<pdfrwt beam="1">  1        2 0.68427605E+00 0.14718040E+04</pdfrwt>
<pdfrwt beam="2">  1       -2 0.78469184E-01 0.14718040E+04</pdfrwt>
<totfact> 0.19721091E-01</totfact>
</mgrwt>
</event>
<event>
 4    1  0.2701205E-007  0.1202799E+04  0.7818608E-02  0.9154406E-01
          2   -1    0    0  501    0  0.00000000000E+00  0.00000000000E+00  0.38636337411E+04  0.38636337411E+04  0.25500000000E-02 0. -1.
         -2   -1    0    0    0  501 -0.00000000000E+00 -0.00000000000E+00 -0.81341656833E+03  0.81341656833E+03  0.25500000000E-02 0.  1.
    8880023    1    1    2    0    0 -0.25196392292E+03 -0.97438658958E+03  0.33953846245E+04  0.36021329790E+04  0.65864270000E+03 0.  0.
    8880022    1    1    2    0    0  0.25196392292E+03  0.97438658958E+03 -0.34516745170E+03  0.10749173304E+04  0.15294330000E+03 0.  0.
<mgrwt>
<rscale>  0 0.11536679E+04</rscale>
<asrwt>0</asrwt>
<pdfrwt beam="1">  1        2 0.59440519E+00 0.12027989E+04</pdfrwt>
<pdfrwt beam="2">  1       -2 0.12514101E+00 0.12027989E+04</pdfrwt>
<totfact> 0.21105318E-01</totfact>
</mgrwt>
</event>
<event>
 4    1  0.2701205E-007  0.9835942E+03  0.7818608E-02  0.9403343E-01
         -2   -1    0    0    0  501 -0.00000000000E+00  0.00000000000E+00  0.59137086641E+03  0.59137086641E+03  0.25500000000E-02 0.  1.
          2   -1    0    0  501    0  0.00000000000E+00 -0.00000000000E+00 -0.28361389897E+04  0.28361389897E+04  0.25500000000E-02 0. -1.
    8880023    1    1    2    0    0 -0.68044485692E+03  0.26578598279E+03 -0.24611559685E+04  0.26504237962E+04  0.65864270000E+03 0. -1.
    8880022    1    1    2    0    0  0.68044485692E+03 -0.26578598279E+03  0.21638784520E+03  0.77708605992E+03  0.15294330000E+03 0.  0.
<mgrwt>
<rscale>  0 0.91801057E+03</rscale>
<asrwt>0</asrwt>
<pdfrwt beam="1">  1        2 0.43632907E+00 0.98359422E+03</pdfrwt>
<pdfrwt beam="2">  1       -2 0.90980135E-01 0.98359422E+03</pdfrwt>
<totfact> 0.23087669E+00</totfact>
</mgrwt>
</event>
<event>
 4    1  0.2701205E-007  0.7832337E+03  0.7818608E-02  0.9748295E-01
          2   -1    0    0  501    0  0.00000000000E+00  0.00000000000E+00  0.10565347311E+04  0.10565347311E+04  0.25500000000E-02 0. -1.
         -2   -1    0    0    0  501 -0.00000000000E+00 -0.00000000000E+00 -0.60796992847E+03  0.60796992848E+03  0.25500000000E-02 0.  1.
    8880023    1    1    2    0    0  0.40038584560E+03 -0.13905376122E+03  0.77982071414E+03  0.11052489884E+04  0.65864270000E+03 0. -1.
    8880022    1    1    2    0    0 -0.40038584560E+03  0.13905376122E+03 -0.33125591150E+03  0.55925567121E+03  0.15294330000E+03 0.  0.
<mgrwt>
<rscale>  0 0.68212703E+03</rscale>
<asrwt>0</asrwt>
<pdfrwt beam="1">  1        2 0.16254380E+00 0.78323367E+03</pdfrwt>
<pdfrwt beam="2">  1       -2 0.93533835E-01 0.78323367E+03</pdfrwt>
<totfact> 0.22716204E+01</totfact>
</mgrwt>
</event>
<event>
 4    1  0.2701205E-007  0.1348786E+04  0.7818608E-02  0.9024535E-01
         -2   -1    0    0    0  501 -0.00000000000E+00  0.00000000000E+00  0.18299649719E+04  0.18299649719E+04  0.25500000000E-02 0.  1.
          2   -1    0    0  501    0  0.00000000000E+00 -0.00000000000E+00 -0.16378545092E+04  0.16378545092E+04  0.25500000000E-02 0. -1.
    8880023    1    1    2    0    0  0.99251979490E+02  0.11728435187E+04 -0.10800562960E+04  0.17279307520E+04  0.65864270000E+03 0.  0.
    8880022    1    1    2    0    0 -0.99251979490E+02 -0.11728435187E+04  0.12721667587E+04  0.17398887291E+04  0.15294330000E+03 0.  0.
<mgrwt>
<rscale>  0 0.13063621E+04</rscale>
<asrwt>0</asrwt>
<pdfrwt beam="1">  1        2 0.25197762E+00 0.13487858E+04</pdfrwt>
<pdfrwt beam="2">  1       -2 0.28153307E+00 0.13487858E+04</pdfrwt>
<totfact> 0.41837002E-01</totfact>
</mgrwt>
</event>
<event>
 4    1  0.2701205E-007  0.1151243E+04  0.7818608E-02  0.9206039E-01
         -2   -1    0    0    0  501 -0.00000000000E+00  0.00000000000E+00  0.64864866740E+03  0.64864866741E+03  0.25500000000E-02 0.  1.
          2   -1    0    0  501    0  0.00000000000E+00 -0.00000000000E+00 -0.33806400066E+04  0.33806400066E+04  0.25500000000E-02 0. -1.
    8880023    1    1    2    0    0 -0.77231725327E+03  0.54320934927E+03 -0.28421310791E+04  0.30664425014E+04  0.65864270000E+03 0.  0.
    8880022    1    1    2    0    0  0.77231725327E+03 -0.54320934927E+03  0.11013973996E+03  0.96284617264E+03  0.15294330000E+03 0.  0.
<mgrwt>
<rscale>  0 0.10991310E+04</rscale>
<asrwt>0</asrwt>
<pdfrwt beam="1">  1        2 0.52009845E+00 0.11512430E+04</pdfrwt>
<pdfrwt beam="2">  1       -2 0.99792104E-01 0.11512430E+04</pdfrwt>
<totfact> 0.81998371E-01</totfact>
</mgrwt>
</event>
<event>
 4    1  0.2701205E-007  0.8698333E+03  0.7818608E-02  0.9576306E-01
         -2   -1    0    0    0  501 -0.00000000000E+00  0.00000000000E+00  0.14008155924E+04  0.14008155924E+04  0.25500000000E-02 0.  1.
          2   -1    0    0  501    0  0.00000000000E+00 -0.00000000000E+00 -0.58758628527E+03  0.58758628527E+03  0.25500000000E-02 0. -1.
    8880023    1    1    2    0    0  0.55008464485E+03 -0.14215028659E+03 -0.12719359626E+03  0.87908374895E+03  0.65864270000E+03 0. -1.
    8880022    1    1    2    0    0 -0.55008464485E+03  0.14215028659E+03  0.94042290344E+03  0.11093181288E+04  0.15294330000E+03 0.  0.
<mgrwt>
<rscale>  0 0.78884482E+03</rscale>
<asrwt>0</asrwt>
<pdfrwt beam="1">  1        2 0.90397890E-01 0.86983333E+03</pdfrwt>
<pdfrwt beam="2">  1       -2 0.21551009E+00 0.86983333E+03</pdfrwt>
<totfact> 0.54151612E+00</totfact>
</mgrwt>
</event>
<event>
 4    1  0.2701205E-007  0.7311402E+03  0.7818608E-02  0.9886550E-01
          2   -1    0    0  501    0  0.00000000000E+00  0.00000000000E+00  0.15310500045E+04  0.15310500045E+04  0.25500000000E-02 0. -1.
         -2   -1    0    0    0  501 -0.00000000000E+00 -0.00000000000E+00 -0.52354933632E+03  0.52354933633E+03  0.25500000000E-02 0.  1.
    8880023    1    1    2    0    0 -0.24066237083E+03  0.20697195315E+03  0.13676139308E+04  0.15507849097E+04  0.65864270000E+03 0. -1.
    8880022    1    1    2    0    0  0.24066237083E+03 -0.20697195315E+03 -0.36011326261E+03  0.50381443116E+03  0.15294330000E+03 0.  0.
<mgrwt>
<rscale>  0 0.60917589E+03</rscale>
<asrwt>0</asrwt>
<pdfrwt beam="1">  1        2 0.23554615E+00 0.73114019E+03</pdfrwt>
<pdfrwt beam="2">  1       -2 0.80546052E-01 0.73114019E+03</pdfrwt>
<totfact> 0.17047826E+01</totfact>
</mgrwt>
</event>
<event>
 4    1  0.2701205E-007  0.6664033E+03  0.7818608E-02  0.1018384E+00
          2   -1    0    0  501    0  0.00000000000E+00  0.00000000000E+00  0.14217408743E+04  0.14217408743E+04  0.25500000000E-02 0. -1.
         -2   -1    0    0    0  501 -0.00000000000E+00 -0.00000000000E+00 -0.33357856401E+03  0.33357856402E+03  0.25500000000E-02 0.  1.
    8880023    1    1    2    0    0 -0.10087981852E+03  0.10313563002E+02  0.13085905616E+04  0.14685035143E+04  0.65864270000E+03 0. -1.
    8880022    1    1    2    0    0  0.10087981852E+03 -0.10313563002E+02 -0.22042825122E+03  0.28681592410E+03  0.15294330000E+03 0.  0.
<mgrwt>
<rscale>  0 0.48274291E+03</rscale>
<asrwt>0</asrwt>
<pdfrwt beam="1">  1        2 0.21872937E+00 0.66640327E+03</pdfrwt>
<pdfrwt beam="2">  1       -2 0.51319779E-01 0.66640327E+03</pdfrwt>
<totfact> 0.51948231E+01</totfact>
</mgrwt>
</event>
<event>
 4    1  0.2701205E-007  0.9173191E+03  0.7818608E-02  0.9498782E-01
          2   -1    0    0  501    0  0.00000000000E+00  0.00000000000E+00  0.36202215704E+04  0.36202215704E+04  0.25500000000E-02 0. -1.
         -2   -1    0    0    0  501 -0.00000000000E+00 -0.00000000000E+00 -0.28584520247E+03  0.28584520248E+03  0.25500000000E-02 0.  1.
    8880023    1    1    2    0    0  0.63848423799E+03 -0.14400527603E+01  0.30599197529E+04  0.31944613468E+04  0.65864270000E+03 0.  0.
    8880022    1    1    2    0    0 -0.63848423799E+03  0.14400527603E+01  0.27445661512E+03  0.71160542614E+03  0.15294330000E+03 0.  0.
<mgrwt>
<rscale>  0 0.84373688E+03</rscale>
<asrwt>0</asrwt>
<pdfrwt beam="1">  1        2 0.55695717E+00 0.91731914E+03</pdfrwt>
<pdfrwt beam="2">  1       -2 0.43976185E-01 0.91731914E+03</pdfrwt>
<totfact> 0.34553076E+00</totfact>
</mgrwt>
</event>
<event>
 4    1  0.2701205E-007  0.7117288E+03  0.7818608E-02  0.9951636E-01
          2   -1    0    0  501    0  0.00000000000E+00  0.00000000000E+00  0.17866881331E+04  0.17866881331E+04  0.25500000000E-02 0. -1.
         -2   -1    0    0    0  501 -0.00000000000E+00 -0.00000000000E+00 -0.35519024755E+03  0.35519024756E+03  0.25500000000E-02 0.  1.
    8880023    1    1    2    0    0  0.18761234479E+03 -0.19377637705E+03  0.16266301539E+04  0.17755234552E+04  0.65864270000E+03 0. -1.
    8880022    1    1    2    0    0 -0.18761234479E+03  0.19377637705E+03 -0.19513226835E+03  0.36635492543E+03  0.15294330000E+03 0.  0.
<mgrwt>
<rscale>  0 0.57822723E+03</rscale>
<asrwt>0</asrwt>
<pdfrwt beam="1">  1        2 0.27487510E+00 0.71172880E+03</pdfrwt>
<pdfrwt beam="2">  1       -2 0.54644654E-01 0.71172880E+03</pdfrwt>
<totfact> 0.28586752E+01</totfact>
</mgrwt>
</event>
<event>
 4    1  0.2701205E-007  0.6779185E+03  0.7818608E-02  0.1010526E+00
          2   -1    0    0  501    0  0.00000000000E+00  0.00000000000E+00  0.43218887307E+03  0.43218887308E+03  0.25500000000E-02 0. -1.
         -2   -1    0    0    0  501 -0.00000000000E+00 -0.00000000000E+00 -0.14619779916E+04  0.14619779916E+04  0.25500000000E-02 0.  1.
    8880023    1    1    2    0    0 -0.14664930645E+03 -0.65247336275E+02  0.14950883066E+03  0.69420914045E+03  0.65864270000E+03 0. -1.
    8880022    1    1    2    0    0  0.14664930645E+03  0.65247336275E+02 -0.11792979492E+04  0.11999577243E+04  0.15294330000E+03 0.  0.
<mgrwt>
<rscale>  0 0.51265941E+03</rscale>
<asrwt>0</asrwt>
<pdfrwt beam="1">  1        2 0.66490597E-01 0.67791846E+03</pdfrwt>
<pdfrwt beam="2">  1       -2 0.22491969E+00 0.67791846E+03</pdfrwt>
<totfact> 0.69180518E+00</totfact>
</mgrwt>
</event>
<event>
 4    1  0.2701205E-007  0.1262450E+04  0.7818608E-02  0.9098685E-01
         -2   -1    0    0    0  501 -0.00000000000E+00  0.00000000000E+00  0.49436959870E+03  0.49436959871E+03  0.25500000000E-02 0.  1.
          2   -1    0    0  501    0  0.00000000000E+00 -0.00000000000E+00 -0.29959051152E+04  0.29959051152E+04  0.25500000000E-02 0. -1.
    8880023    1    1    2    0    0  0.10766326508E+04 -0.28835705027E+02 -0.17900202432E+04  0.21904227994E+04  0.65864270000E+03 0.  0.
    8880022    1    1    2    0    0 -0.10766326508E+04  0.28835705027E+02 -0.71151527321E+03  0.12998519145E+04  0.15294330000E+03 0.  0.
<mgrwt>
<rscale>  0 0.12163267E+04</rscale>
<asrwt>0</asrwt>
<pdfrwt beam="1">  1        2 0.46090847E+00 0.12624498E+04</pdfrwt>
<pdfrwt beam="2">  1       -2 0.76056864E-01 0.12624498E+04</pdfrwt>
<totfact> 0.26745546E+00</totfact>
</mgrwt>
</event>
<event>
 4    1  0.2701205E-007  0.6903563E+03  0.7818608E-02  0.1003984E+00
         -2   -1    0    0    0  501 -0.00000000000E+00  0.00000000000E+00  0.18328844880E+04  0.18328844880E+04  0.25500000000E-02 0.  1.
          2   -1    0    0  501    0  0.00000000000E+00 -0.00000000000E+00 -0.65665470494E+03  0.65665470495E+03  0.25500000000E-02 0. -1.
    8880023    1    1    2    0    0  0.17024048502E+03 -0.11747249009E+03 -0.46235738159E+03  0.83088276143E+03  0.65864270000E+03 0. -1.
    8880022    1    1    2    0    0 -0.17024048502E+03  0.11747249009E+03  0.16385871647E+04  0.16586564316E+04  0.15294330000E+03 0.  0.
<mgrwt>
<rscale>  0 0.53937434E+03</rscale>
<asrwt>0</asrwt>
<pdfrwt beam="1">  1        2 0.10102380E+00 0.69035630E+03</pdfrwt>
<pdfrwt beam="2">  1       -2 0.28198223E+00 0.69035630E+03</pdfrwt>
<totfact> 0.19068086E+00</totfact>
</mgrwt>
</event>
<event>
 4    1  0.2701205E-007  0.8348287E+03  0.7818608E-02  0.9640009E-01
         -2   -1    0    0    0  501 -0.00000000000E+00  0.00000000000E+00  0.47548743018E+03  0.47548743019E+03  0.25500000000E-02 0.  1.
          2   -1    0    0  501    0  0.00000000000E+00 -0.00000000000E+00 -0.11136563134E+04  0.11136563134E+04  0.25500000000E-02 0. -1.
    8880023    1    1    2    0    0  0.47991144714E+03  0.18114585604E+03 -0.64315557309E+03  0.10538444457E+04  0.65864270000E+03 0. -1.
    8880022    1    1    2    0    0 -0.47991144714E+03 -0.18114585604E+03  0.49866898638E+01  0.53529929791E+03  0.15294330000E+03 0.  0.
<mgrwt>
<rscale>  0 0.74703767E+03</rscale>
<asrwt>0</asrwt>
<pdfrwt beam="1">  1        2 0.17133174E+00 0.83482874E+03</pdfrwt>
<pdfrwt beam="2">  1       -2 0.73151912E-01 0.83482874E+03</pdfrwt>
<totfact> 0.36395286E+01</totfact>
</mgrwt>
</event>
<event>
 4    1  0.2701205E-007  0.2049260E+04  0.7818608E-02  0.8595903E-01
          2   -1    0    0  501    0  0.00000000000E+00  0.00000000000E+00  0.22769936854E+04  0.22769936854E+04  0.25500000000E-02 0. -1.
         -2   -1    0    0    0  501 -0.00000000000E+00 -0.00000000000E+00 -0.20493939097E+04  0.20493939097E+04  0.25500000000E-02 0.  1.
    8880023    1    1    2    0    0 -0.16559423951E+04  0.10116867732E+04  0.93869403541E+03  0.22540213045E+04  0.65864270000E+03 0.  0.
    8880022    1    1    2    0    0  0.16559423951E+04 -0.10116867732E+04 -0.71109425971E+03  0.20723662905E+04  0.15294330000E+03 0.  0.
<mgrwt>
<rscale>  0 0.20230844E+04</rscale>
<asrwt>0</asrwt>
<pdfrwt beam="1">  1        2 0.35030672E+00 0.20492598E+04</pdfrwt>
<pdfrwt beam="2">  1       -2 0.31529137E+00 0.20492598E+04</pdfrwt>
<totfact> 0.10564647E-01</totfact>
</mgrwt>
</event>
<event>
 4    1  0.2701205E-007  0.6832912E+03  0.7818608E-02  0.1007520E+00
          2   -1    0    0  501    0  0.00000000000E+00  0.00000000000E+00  0.24844210974E+04  0.24844210974E+04  0.25500000000E-02 0. -1.
         -2   -1    0    0    0  501 -0.00000000000E+00 -0.00000000000E+00 -0.11192864553E+03  0.11192864556E+03  0.25500000000E-02 0.  1.
    8880023    1    1    2    0    0  0.14572940666E+03 -0.10880971043E+03  0.10505067652E+04  0.12531764772E+04  0.65864270000E+03 0.  1.
    8880022    1    1    2    0    0 -0.14572940666E+03  0.10880971043E+03  0.13219856867E+04  0.13431732657E+04  0.15294330000E+03 0.  0.
<mgrwt>
<rscale>  0 0.52472277E+03</rscale>
<asrwt>0</asrwt>
<pdfrwt beam="1">  1        2 0.38221858E+00 0.68329117E+03</pdfrwt>
<pdfrwt beam="2">  1       -2 0.17219794E-01 0.68329117E+03</pdfrwt>
<totfact> 0.10294282E+02</totfact>
</mgrwt>
</event>
<event>
 4    1  0.2701205E-007  0.7455101E+03  0.7818608E-02  0.9844178E-01
         -2   -1    0    0    0  501 -0.00000000000E+00  0.00000000000E+00  0.73122325905E+03  0.73122325906E+03  0.25500000000E-02 0.  1.
          2   -1    0    0  501    0  0.00000000000E+00 -0.00000000000E+00 -0.16817551486E+04  0.16817551486E+04  0.25500000000E-02 0. -1.
    8880023    1    1    2    0    0 -0.34754216970E+03 -0.34489868868E+02 -0.15399958804E+04  0.17109566414E+04  0.65864270000E+03 0. -1.
    8880022    1    1    2    0    0  0.34754216970E+03  0.34489868868E+02  0.58946399086E+03  0.70202176627E+03  0.15294330000E+03 0.  0.
<mgrwt>
<rscale>  0 0.63044658E+03</rscale>
<asrwt>0</asrwt>
<pdfrwt beam="1">  1        2 0.25873156E+00 0.74551011E+03</pdfrwt>
<pdfrwt beam="2">  1       -2 0.11249589E+00 0.74551011E+03</pdfrwt>
<totfact> 0.64294749E+00</totfact>
</mgrwt>
</event>
<event>
 4    1  0.2701205E-007  0.1098049E+04  0.7818608E-02  0.9263231E-01
         -2   -1    0    0    0  501 -0.00000000000E+00  0.00000000000E+00  0.33517958223E+03  0.33517958224E+03  0.25500000000E-02 0.  1.
          2   -1    0    0  501    0  0.00000000000E+00 -0.00000000000E+00 -0.38145946765E+04  0.38145946765E+04  0.25500000000E-02 0. -1.
    8880023    1    1    2    0    0 -0.65791155775E+03 -0.58228402304E+03 -0.28611695902E+04  0.30646376510E+04  0.65864270000E+03 0.  0.
    8880022    1    1    2    0    0  0.65791155775E+03  0.58228402304E+03 -0.61824550409E+03  0.10851366078E+04  0.15294330000E+03 0.  0.
<mgrwt>
<rscale>  0 0.10423951E+04</rscale>
<asrwt>0</asrwt>
<pdfrwt beam="1">  1        2 0.58686069E+00 0.10980494E+04</pdfrwt>
<pdfrwt beam="2">  1       -2 0.51566092E-01 0.10980494E+04</pdfrwt>
<totfact> 0.17534107E+00</totfact>
</mgrwt>
</event>
<event>
 4    1  0.2701205E-007  0.7201620E+03  0.7818608E-02  0.9922038E-01
         -2   -1    0    0    0  501 -0.00000000000E+00  0.00000000000E+00  0.22407230313E+03  0.22407230315E+03  0.25500000000E-02 0.  1.
          2   -1    0    0  501    0  0.00000000000E+00 -0.00000000000E+00 -0.24920603327E+04  0.24920603327E+04  0.25500000000E-02 0. -1.
    8880023    1    1    2    0    0  0.11924301641E+03  0.26571454397E+03 -0.22758537606E+04  0.23870784783E+04  0.65864270000E+03 0.  0.
    8880022    1    1    2    0    0 -0.11924301641E+03 -0.26571454397E+03  0.78657310214E+01  0.32905415752E+03  0.15294330000E+03 0.  0.
<mgrwt>
<rscale>  0 0.59205012E+03</rscale>
<asrwt>0</asrwt>
<pdfrwt beam="1">  1        2 0.38339388E+00 0.72016201E+03</pdfrwt>
<pdfrwt beam="2">  1       -2 0.34472664E-01 0.72016201E+03</pdfrwt>
<totfact> 0.29077952E+01</totfact>
</mgrwt>
</event>
<event>
 4    1  0.2701205E-007  0.9195802E+03  0.7818608E-02  0.9495303E-01
         -2   -1    0    0    0  501 -0.00000000000E+00  0.00000000000E+00  0.27722313854E+03  0.27722313855E+03  0.25500000000E-02 0.  1.
          2   -1    0    0  501    0  0.00000000000E+00 -0.00000000000E+00 -0.27458023553E+04  0.27458023553E+04  0.25500000000E-02 0. -1.
    8880023    1    1    2    0    0  0.17114475788E+03  0.61848769634E+03 -0.20362931717E+04  0.22343047344E+04  0.65864270000E+03 0.  0.
    8880022    1    1    2    0    0 -0.17114475788E+03 -0.61848769634E+03 -0.43228604507E+03  0.78872075949E+03  0.15294330000E+03 0.  0.
<mgrwt>
<rscale>  0 0.84631000E+03</rscale>
<asrwt>0</asrwt>
<pdfrwt beam="1">  1        2 0.42243111E+00 0.91958021E+03</pdfrwt>
<pdfrwt beam="2">  1       -2 0.42649716E-01 0.91958021E+03</pdfrwt>
<totfact> 0.13354260E+01</totfact>
</mgrwt>
</event>
<event>
 4    1  0.2701205E-007  0.7514933E+03  0.7818608E-02  0.9827650E-01
         -2   -1    0    0    0  501 -0.00000000000E+00  0.00000000000E+00  0.64392095602E+03  0.64392095603E+03  0.25500000000E-02 0.  1.
          2   -1    0    0  501    0  0.00000000000E+00 -0.00000000000E+00 -0.71190606012E+03  0.71190606013E+03  0.25500000000E-02 0. -1.
    8880023    1    1    2    0    0 -0.17172986035E+03  0.31849765692E+03 -0.39110231304E+03  0.84717361144E+03  0.65864270000E+03 0. -1.
    8880022    1    1    2    0    0  0.17172986035E+03 -0.31849765692E+03  0.32311720894E+03  0.50865340471E+03  0.15294330000E+03 0.  0.
<mgrwt>
<rscale>  0 0.63899556E+03</rscale>
<asrwt>0</asrwt>
<pdfrwt beam="1">  1        2 0.10952401E+00 0.75149325E+03</pdfrwt>
<pdfrwt beam="2">  1       -2 0.99064762E-01 0.75149325E+03</pdfrwt>
<totfact> 0.34318657E+01</totfact>
</mgrwt>
</event>
<event>
 4    1  0.2701205E-007  0.9256013E+03  0.7818608E-02  0.9486123E-01
         -2   -1    0    0    0  501 -0.00000000000E+00  0.00000000000E+00  0.90334453901E+03  0.90334453901E+03  0.25500000000E-02 0.  1.
          2   -1    0    0  501    0  0.00000000000E+00 -0.00000000000E+00 -0.94706377322E+03  0.94706377323E+03  0.25500000000E-02 0. -1.
    8880023    1    1    2    0    0 -0.63728144146E+03 -0.12961459914E+03 -0.48969386571E+03  0.10471570409E+04  0.65864270000E+03 0.  0.
    8880022    1    1    2    0    0  0.63728144146E+03  0.12961459914E+03  0.44597463150E+03  0.80325127133E+03  0.15294330000E+03 0.  0.
<mgrwt>
<rscale>  0 0.85314661E+03</rscale>
<asrwt>0</asrwt>
<pdfrwt beam="1">  1        2 0.14570212E+00 0.92560131E+03</pdfrwt>
<pdfrwt beam="2">  1       -2 0.13897608E+00 0.92560131E+03</pdfrwt>
<totfact> 0.99680497E+00</totfact>
</mgrwt>
</event>
<event>
 4    1  0.2701205E-007  0.1140194E+04  0.7818608E-02  0.9217572E-01
         -2   -1    0    0    0  501 -0.00000000000E+00  0.00000000000E+00  0.17832414552E+04  0.17832414552E+04  0.25500000000E-02 0.  1.
          2   -1    0    0  501    0  0.00000000000E+00 -0.00000000000E+00 -0.13150413760E+04  0.13150413760E+04  0.25500000000E-02 0. -1.
    8880023    1    1    2    0    0 -0.92104524113E+03 -0.13381707168E+03 -0.88880110390E+03  0.14456863261E+04  0.65864270000E+03 0. -1.
    8880022    1    1    2    0    0  0.92104524113E+03  0.13381707168E+03  0.13570011831E+04  0.16525965051E+04  0.15294330000E+03 0.  0.
<mgrwt>
<rscale>  0 0.10873884E+04</rscale>
<asrwt>0</asrwt>
<pdfrwt beam="1">  1        2 0.20231406E+00 0.11401936E+04</pdfrwt>
<pdfrwt beam="2">  1       -2 0.27434484E+00 0.11401936E+04</pdfrwt>
<totfact> 0.72482525E-01</totfact>
</mgrwt>
</event>
<event>
 4    1  0.2701205E-007  0.1044452E+04  0.7818608E-02  0.9325580E-01
          2   -1    0    0  501    0  0.00000000000E+00  0.00000000000E+00  0.14177675510E+04  0.14177675510E+04  0.25500000000E-02 0. -1.
         -2   -1    0    0    0  501 -0.00000000000E+00 -0.00000000000E+00 -0.76019483450E+03  0.76019483451E+03  0.25500000000E-02 0.  1.
    8880023    1    1    2    0    0 -0.52082118407E+03  0.62114087545E+03  0.83138705998E+03  0.13349476929E+04  0.65864270000E+03 0.  0.
    8880022    1    1    2    0    0  0.52082118407E+03 -0.62114087545E+03 -0.17381434351E+03  0.84301469261E+03  0.15294330000E+03 0.  0.
<mgrwt>
<rscale>  0 0.98461628E+03</rscale>
<asrwt>0</asrwt>
<pdfrwt beam="1">  1        2 0.21811808E+00 0.10444524E+04</pdfrwt>
<pdfrwt beam="2">  1       -2 0.11695305E+00 0.10444524E+04</pdfrwt>
<totfact> 0.79129539E+00</totfact>
</mgrwt>
</event>
<event>
 4    1  0.2701205E-007  0.1581489E+04  0.7818608E-02  0.8854138E-01
         -2   -1    0    0    0  501 -0.00000000000E+00  0.00000000000E+00  0.13378888294E+04  0.13378888294E+04  0.25500000000E-02 0.  1.
          2   -1    0    0  501    0  0.00000000000E+00 -0.00000000000E+00 -0.27099921620E+04  0.27099921620E+04  0.25500000000E-02 0. -1.
    8880023    1    1    2    0    0  0.40322242565E+03 -0.13801122336E+04 -0.19325257118E+04  0.24971511638E+04  0.65864270000E+03 0.  0.
    8880022    1    1    2    0    0 -0.40322242565E+03  0.13801122336E+04  0.56042237921E+03  0.15507298275E+04  0.15294330000E+03 0.  0.
<mgrwt>
<rscale>  0 0.15464500E+04</rscale>
<asrwt>0</asrwt>
<pdfrwt beam="1">  1        2 0.41692187E+00 0.15814893E+04</pdfrwt>
<pdfrwt beam="2">  1       -2 0.20582905E+00 0.15814893E+04</pdfrwt>
<totfact> 0.29726747E-01</totfact>
</mgrwt>
</event>
<event>
 4    1  0.2701205E-007  0.1066930E+04  0.7818608E-02  0.9298800E-01
          2   -1    0    0  501    0  0.00000000000E+00  0.00000000000E+00  0.19279015770E+04  0.19279015771E+04  0.25500000000E-02 0. -1.
         -2   -1    0    0    0  501 -0.00000000000E+00 -0.00000000000E+00 -0.12314635398E+04  0.12314635398E+04  0.25500000000E-02 0.  1.
    8880023    1    1    2    0    0 -0.80166263578E+03 -0.24873143314E+03  0.15958540864E+04  0.19196590267E+04  0.65864270000E+03 0. -1.
    8880022    1    1    2    0    0  0.80166263578E+03  0.24873143314E+03 -0.89941604916E+03  0.12397060901E+04  0.15294330000E+03 0.  0.
<mgrwt>
<rscale>  0 0.10089338E+04</rscale>
<asrwt>0</asrwt>
<pdfrwt beam="1">  1        2 0.29660024E+00 0.10669304E+04</pdfrwt>
<pdfrwt beam="2">  1       -2 0.18945593E+00 0.10669304E+04</pdfrwt>
<totfact> 0.11313228E+00</totfact>
</mgrwt>
</event>
<event>
 4    1  0.2701205E-007  0.8469829E+03  0.7818608E-02  0.9617151E-01
          2   -1    0    0  501    0  0.00000000000E+00  0.00000000000E+00  0.92887813061E+03  0.92887813062E+03  0.25500000000E-02 0. -1.
         -2   -1    0    0    0  501 -0.00000000000E+00 -0.00000000000E+00 -0.12046302998E+04  0.12046302998E+04  0.25500000000E-02 0.  1.
    8880023    1    1    2    0    0 -0.39468822703E+03 -0.35747861241E+03  0.64110034812E+03  0.10622568510E+04  0.65864270000E+03 0. -1.
    8880022    1    1    2    0    0  0.39468822703E+03  0.35747861241E+03 -0.91685251735E+03  0.10712515795E+04  0.15294330000E+03 0.  0.
<mgrwt>
<rscale>  0 0.76171312E+03</rscale>
<asrwt>0</asrwt>
<pdfrwt beam="1">  1        2 0.14290433E+00 0.84698286E+03</pdfrwt>
<pdfrwt beam="2">  1       -2 0.18532774E+00 0.84698286E+03</pdfrwt>
<totfact> 0.47140002E+00</totfact>
</mgrwt>
</event>
<event>
 4    1  0.2701205E-007  0.1169474E+04  0.7818608E-02  0.9187382E-01
          2   -1    0    0  501    0  0.00000000000E+00  0.00000000000E+00  0.29165505186E+04  0.29165505186E+04  0.25500000000E-02 0. -1.
         -2   -1    0    0    0  501 -0.00000000000E+00 -0.00000000000E+00 -0.51457951001E+03  0.51457951001E+03  0.25500000000E-02 0.  1.
    8880023    1    1    2    0    0 -0.12583996839E+03  0.95813550263E+03  0.21060495884E+04  0.24089654240E+04  0.65864270000E+03 0.  0.
    8880022    1    1    2    0    0  0.12583996839E+03 -0.95813550263E+03  0.29592142026E+03  0.10221646047E+04  0.15294330000E+03 0.  0.
<mgrwt>
<rscale>  0 0.11184618E+04</rscale>
<asrwt>0</asrwt>
<pdfrwt beam="1">  1        2 0.44870008E+00 0.11694740E+04</pdfrwt>
<pdfrwt beam="2">  1       -2 0.79166079E-01 0.11694740E+04</pdfrwt>
<totfact> 0.27662245E+00</totfact>
</mgrwt>
</event>
<event>
 4    1  0.2701205E-007  0.6767922E+03  0.7818608E-02  0.1011200E+00
          2   -1    0    0  501    0  0.00000000000E+00  0.00000000000E+00  0.36755560552E+04  0.36755560552E+04  0.25500000000E-02 0. -1.
         -2   -1    0    0    0  501 -0.00000000000E+00 -0.00000000000E+00 -0.71011799253E+03  0.71011799254E+03  0.25500000000E-02 0.  1.
    8880023    1    1    2    0    0 -0.80128620758E+02  0.13347977350E+03  0.36267103649E+04  0.36893191408E+04  0.65864270000E+03 0. -1.
    8880022    1    1    2    0    0  0.80128620758E+02 -0.13347977350E+03 -0.66127230218E+03  0.69635490695E+03  0.15294330000E+03 0.  0.
<mgrwt>
<rscale>  0 0.51000630E+03</rscale>
<asrwt>0</asrwt>
<pdfrwt beam="1">  1        2 0.56547017E+00 0.67679218E+03</pdfrwt>
<pdfrwt beam="2">  1       -2 0.10924892E+00 0.67679218E+03</pdfrwt>
<totfact> 0.45503014E-01</totfact>
</mgrwt>
</event>
<event>
 4    1  0.2701205E-007  0.9196254E+03  0.7818608E-02  0.9495234E-01
         -2   -1    0    0    0  501 -0.00000000000E+00  0.00000000000E+00  0.27010382936E+03  0.27010382937E+03  0.25500000000E-02 0.  1.
          2   -1    0    0  501    0  0.00000000000E+00 -0.00000000000E+00 -0.37740973799E+04  0.37740973799E+04  0.25500000000E-02 0. -1.
    8880023    1    1    2    0    0  0.64082902783E+03  0.35197880442E+02 -0.31778226879E+04  0.33082122023E+04  0.65864270000E+03 0. -1.
    8880022    1    1    2    0    0 -0.64082902783E+03 -0.35197880442E+02 -0.32617086266E+03  0.73598900696E+03  0.15294330000E+03 0.  0.
<mgrwt>
<rscale>  0 0.84636143E+03</rscale>
<asrwt>0</asrwt>
<pdfrwt beam="1">  1        2 0.58063033E+00 0.91962543E+03</pdfrwt>
<pdfrwt beam="2">  1       -2 0.41554438E-01 0.91962543E+03</pdfrwt>
<totfact> 0.29908614E+00</totfact>
</mgrwt>
</event>
<event>
 4    1  0.2701205E-007  0.6726090E+03  0.7818608E-02  0.1013858E+00
         -2   -1    0    0    0  501 -0.00000000000E+00  0.00000000000E+00  0.23524045326E+03  0.23524045327E+03  0.25500000000E-02 0.  1.
          2   -1    0    0  501    0  0.00000000000E+00 -0.00000000000E+00 -0.94434592519E+03  0.94434592519E+03  0.25500000000E-02 0. -1.
    8880023    1    1    2    0    0  0.11036909695E+03  0.80070689168E+02 -0.70536713758E+03  0.97465155715E+03  0.65864270000E+03 0. -1.
    8880022    1    1    2    0    0 -0.11036909695E+03 -0.80070689168E+02 -0.37383343497E+01  0.20493482131E+03  0.15294330000E+03 0.  0.
<mgrwt>
<rscale>  0 0.49969830E+03</rscale>
<asrwt>0</asrwt>
<pdfrwt beam="1">  1        2 0.14528399E+00 0.67260899E+03</pdfrwt>
<pdfrwt beam="2">  1       -2 0.36190839E-01 0.67260899E+03</pdfrwt>
<totfact> 0.19959650E+02</totfact>
</mgrwt>
</event>
<event>
 4    1  0.2701205E-007  0.1387667E+04  0.7818608E-02  0.8993325E-01
         -2   -1    0    0    0  501 -0.00000000000E+00  0.00000000000E+00  0.70826397269E+03  0.70826397269E+03  0.25500000000E-02 0.  1.
          2   -1    0    0  501    0  0.00000000000E+00 -0.00000000000E+00 -0.25575071870E+04  0.25575071870E+04  0.25500000000E-02 0. -1.
    8880023    1    1    2    0    0  0.52974757558E+03  0.11005350599E+04 -0.13544533911E+04  0.19391142583E+04  0.65864270000E+03 0.  0.
    8880022    1    1    2    0    0 -0.52974757558E+03 -0.11005350599E+04 -0.49478982319E+03  0.13266569014E+04  0.15294330000E+03 0.  0.
<mgrwt>
<rscale>  0 0.13467060E+04</rscale>
<asrwt>0</asrwt>
<pdfrwt beam="1">  1        2 0.39346264E+00 0.13876671E+04</pdfrwt>
<pdfrwt beam="2">  1       -2 0.10896369E+00 0.13876671E+04</pdfrwt>
<totfact> 0.20857023E+00</totfact>
</mgrwt>
</event>
<event>
 4    1  0.2701205E-007  0.7734900E+03  0.7818608E-02  0.9771357E-01
          2   -1    0    0  501    0  0.00000000000E+00  0.00000000000E+00  0.58155137372E+03  0.58155137373E+03  0.25500000000E-02 0. -1.
         -2   -1    0    0    0  501 -0.00000000000E+00 -0.00000000000E+00 -0.11482819549E+04  0.11482819549E+04  0.25500000000E-02 0.  1.
    8880023    1    1    2    0    0 -0.38966286613E+03 -0.11242524339E+03  0.24353392775E+03  0.81092266266E+03  0.65864270000E+03 0. -1.
    8880022    1    1    2    0    0  0.38966286613E+03  0.11242524339E+03 -0.81026450898E+03  0.91891066601E+03  0.15294330000E+03 0.  0.
<mgrwt>
<rscale>  0 0.66922584E+03</rscale>
<asrwt>0</asrwt>
<pdfrwt beam="1">  1        2 0.89469442E-01 0.77349001E+03</pdfrwt>
<pdfrwt beam="2">  1       -2 0.17665876E+00 0.77349001E+03</pdfrwt>
<totfact> 0.99925543E+00</totfact>
</mgrwt>
</event>
<event>
 4    1  0.2701205E-007  0.1200870E+04  0.7818608E-02  0.9156277E-01
         -2   -1    0    0    0  501 -0.00000000000E+00  0.00000000000E+00  0.82948838984E+03  0.82948838985E+03  0.25500000000E-02 0.  1.
          2   -1    0    0  501    0  0.00000000000E+00 -0.00000000000E+00 -0.25608756843E+04  0.25608756843E+04  0.25500000000E-02 0. -1.
    8880023    1    1    2    0    0  0.99886997222E+03  0.10264786413E+03 -0.20061879053E+04  0.23381355656E+04  0.65864270000E+03 0.  0.
    8880022    1    1    2    0    0 -0.99886997222E+03 -0.10264786413E+03  0.27480061088E+03  0.10522285085E+04  0.15294330000E+03 0.  0.
<mgrwt>
<rscale>  0 0.11516340E+04</rscale>
<asrwt>0</asrwt>
<pdfrwt beam="1">  1        2 0.39398087E+00 0.12008697E+04</pdfrwt>
<pdfrwt beam="2">  1       -2 0.12761360E+00 0.12008697E+04</pdfrwt>
<totfact> 0.14317262E+00</totfact>
</mgrwt>
</event>
<event>
 4    1  0.2701205E-007  0.7440172E+03  0.7818608E-02  0.9848396E-01
         -2   -1    0    0    0  501 -0.00000000000E+00  0.00000000000E+00  0.21094618351E+03  0.21094618352E+03  0.25500000000E-02 0.  1.
          2   -1    0    0  501    0  0.00000000000E+00 -0.00000000000E+00 -0.20813499004E+04  0.20813499004E+04  0.25500000000E-02 0. -1.
    8880023    1    1    2    0    0  0.13977630025E+03 -0.31656597120E+03 -0.17395196469E+04  0.18919540789E+04  0.65864270000E+03 0. -1.
    8880022    1    1    2    0    0 -0.13977630025E+03  0.31656597120E+03 -0.13088406997E+03  0.40034200506E+03  0.15294330000E+03 0.  0.
<mgrwt>
<rscale>  0 0.62828767E+03</rscale>
<asrwt>0</asrwt>
<pdfrwt beam="1">  1        2 0.32020766E+00 0.74401723E+03</pdfrwt>
<pdfrwt beam="2">  1       -2 0.32453260E-01 0.74401723E+03</pdfrwt>
<totfact> 0.54916865E+01</totfact>
</mgrwt>
</event>
<event>
 4    1  0.2701205E-007  0.7961459E+03  0.7818608E-02  0.9719192E-01
          2   -1    0    0  501    0  0.00000000000E+00  0.00000000000E+00  0.11290983644E+04  0.11290983644E+04  0.25500000000E-02 0. -1.
         -2   -1    0    0    0  501 -0.00000000000E+00 -0.00000000000E+00 -0.11216547419E+04  0.11216547419E+04  0.25500000000E-02 0.  1.
    8880023    1    1    2    0    0 -0.44685797950E+03  0.18870546609E+02  0.92388280072E+03  0.12195932876E+04  0.65864270000E+03 0. -1.
    8880022    1    1    2    0    0  0.44685797950E+03 -0.18870546609E+02 -0.91643917822E+03  0.10311598187E+04  0.15294330000E+03 0.  0.
<mgrwt>
<rscale>  0 0.69885512E+03</rscale>
<asrwt>0</asrwt>
<pdfrwt beam="1">  1        2 0.17370744E+00 0.79614594E+03</pdfrwt>
<pdfrwt beam="2">  1       -2 0.17256227E+00 0.79614594E+03</pdfrwt>
<totfact> 0.43406684E+00</totfact>
</mgrwt>
</event>
<event>
 4    1  0.2701205E-007  0.9526472E+03  0.7818608E-02  0.9446316E-01
         -2   -1    0    0    0  501 -0.00000000000E+00  0.00000000000E+00  0.58367549829E+03  0.58367549830E+03  0.25500000000E-02 0.  1.
          2   -1    0    0  501    0  0.00000000000E+00 -0.00000000000E+00 -0.17063239631E+04  0.17063239631E+04  0.25500000000E-02 0. -1.
    8880023    1    1    2    0    0  0.14296783863E+03 -0.67326564327E+03 -0.12519385677E+04  0.15731772986E+04  0.65864270000E+03 0.  0.
    8880022    1    1    2    0    0 -0.14296783863E+03  0.67326564327E+03  0.12929010293E+03  0.71682216276E+03  0.15294330000E+03 0.  0.
<mgrwt>
<rscale>  0 0.88360163E+03</rscale>
<asrwt>0</asrwt>
<pdfrwt beam="1">  1        2 0.26251138E+00 0.95264717E+03</pdfrwt>
<pdfrwt beam="2">  1       -2 0.89796231E-01 0.95264717E+03</pdfrwt>
<totfact> 0.10366211E+01</totfact>
</mgrwt>
</event>
<event>
 4    1  0.2701205E-007  0.9714491E+03  0.7818608E-02  0.9419903E-01
         -2   -1    0    0    0  501 -0.00000000000E+00  0.00000000000E+00  0.56936403452E+03  0.56936403452E+03  0.25500000000E-02 0.  1.
          2   -1    0    0  501    0  0.00000000000E+00 -0.00000000000E+00 -0.15476135633E+04  0.15476135633E+04  0.25500000000E-02 0. -1.
    8880023    1    1    2    0    0  0.70798731985E+03  0.93043430089E+02 -0.10271299683E+03  0.97686400841E+03  0.65864270000E+03 0.  1.
    8880022    1    1    2    0    0 -0.70798731985E+03 -0.93043430089E+02 -0.87553653193E+03  0.11401135894E+04  0.15294330000E+03 0.  0.
<mgrwt>
<rscale>  0 0.90455702E+03</rscale>
<asrwt>0</asrwt>
<pdfrwt beam="1">  1        2 0.23809439E+00 0.97144909E+03</pdfrwt>
<pdfrwt beam="2">  1       -2 0.87594468E-01 0.97144909E+03</pdfrwt>
<totfact> 0.13417780E+01</totfact>
</mgrwt>
</event>
<event>
 4    1  0.2701205E-007  0.9076270E+03  0.7818608E-02  0.9513897E-01
         -2   -1    0    0    0  501 -0.00000000000E+00  0.00000000000E+00  0.33453491849E+03  0.33453491850E+03  0.25500000000E-02 0.  1.
          2   -1    0    0  501    0  0.00000000000E+00 -0.00000000000E+00 -0.18946926317E+04  0.18946926317E+04  0.25500000000E-02 0. -1.
    8880023    1    1    2    0    0  0.11248385348E+03 -0.61426700942E+03 -0.11563008609E+04  0.14699722662E+04  0.65864270000E+03 0.  0.
    8880022    1    1    2    0    0 -0.11248385348E+03  0.61426700942E+03 -0.40385685232E+03  0.75925528404E+03  0.15294330000E+03 0.  0.
<mgrwt>
<rscale>  0 0.83266957E+03</rscale>
<asrwt>0</asrwt>
<pdfrwt beam="1">  1        2 0.29149117E+00 0.90762701E+03</pdfrwt>
<pdfrwt beam="2">  1       -2 0.51466911E-01 0.90762701E+03</pdfrwt>
<totfact> 0.27593805E+01</totfact>
</mgrwt>
</event>
<event>
 4    1  0.2701205E-007  0.7035598E+03  0.7818608E-02  0.9982742E-01
         -2   -1    0    0    0  501 -0.00000000000E+00  0.00000000000E+00  0.86014646577E+02  0.86014646615E+02  0.25500000000E-02 0.  1.
          2   -1    0    0  501    0  0.00000000000E+00 -0.00000000000E+00 -0.33162907907E+04  0.33162907907E+04  0.25500000000E-02 0. -1.
    8880023    1    1    2    0    0  0.11918657125E+03 -0.21675030373E+03 -0.27691639086E+04  0.28571428197E+04  0.65864270000E+03 0.  0.
    8880022    1    1    2    0    0 -0.11918657125E+03  0.21675030373E+03 -0.46111223552E+03  0.54516261766E+03  0.15294330000E+03 0.  0.
<mgrwt>
<rscale>  0 0.56413466E+03</rscale>
<asrwt>0</asrwt>
<pdfrwt beam="1">  1        2 0.51019849E+00 0.70355976E+03</pdfrwt>
<pdfrwt beam="2">  1       -2 0.13233025E-01 0.70355976E+03</pdfrwt>
<totfact> 0.50531813E+01</totfact>
</mgrwt>
</event>
<event>
 4    1  0.2701205E-007  0.8555718E+03  0.7818608E-02  0.9601489E-01
          2   -1    0    0  501    0  0.00000000000E+00  0.00000000000E+00  0.17210238753E+04  0.17210238753E+04  0.25500000000E-02 0. -1.
         -2   -1    0    0    0  501 -0.00000000000E+00 -0.00000000000E+00 -0.48628096042E+03  0.48628096043E+03  0.25500000000E-02 0.  1.
    8880023    1    1    2    0    0 -0.51761313877E+03 -0.17398152053E+03  0.13783695405E+04  0.16223149285E+04  0.65864270000E+03 0.  0.
    8880022    1    1    2    0    0  0.51761313877E+03  0.17398152053E+03 -0.14362662562E+03  0.58498990719E+03  0.15294330000E+03 0.  0.
<mgrwt>
<rscale>  0 0.77197681E+03</rscale>
<asrwt>0</asrwt>
<pdfrwt beam="1">  1        2 0.26477290E+00 0.85557182E+03</pdfrwt>
<pdfrwt beam="2">  1       -2 0.74812456E-01 0.85557182E+03</pdfrwt>
<totfact> 0.15558764E+01</totfact>
</mgrwt>
</event>
<event>
 4    1  0.2701205E-007  0.7280654E+03  0.7818608E-02  0.9896184E-01
         -2   -1    0    0    0  501 -0.00000000000E+00  0.00000000000E+00  0.30853778293E+03  0.30853778294E+03  0.25500000000E-02 0.  1.
          2   -1    0    0  501    0  0.00000000000E+00 -0.00000000000E+00 -0.13099389156E+04  0.13099389156E+04  0.25500000000E-02 0. -1.
    8880023    1    1    2    0    0 -0.52198784864E+02  0.30585009848E+03 -0.10409559903E+04  0.12703025529E+04  0.65864270000E+03 0.  0.
    8880022    1    1    2    0    0  0.52198784864E+02 -0.30585009848E+03  0.39554857680E+02  0.34817414560E+03  0.15294330000E+03 0.  0.
<mgrwt>
<rscale>  0 0.60446576E+03</rscale>
<asrwt>0</asrwt>
<pdfrwt beam="1">  1        2 0.20152906E+00 0.72806538E+03</pdfrwt>
<pdfrwt beam="2">  1       -2 0.47467352E-01 0.72806538E+03</pdfrwt>
<totfact> 0.69979014E+01</totfact>
</mgrwt>
</event>
<event>
 4    1  0.2701205E-007  0.6677236E+03  0.7818608E-02  0.1017350E+00
         -2   -1    0    0    0  501 -0.00000000000E+00  0.00000000000E+00  0.25954738566E+03  0.25954738567E+03  0.25500000000E-02 0.  1.
          2   -1    0    0  501    0  0.00000000000E+00 -0.00000000000E+00 -0.25645344098E+04  0.25645344098E+04  0.25500000000E-02 0. -1.
    8880023    1    1    2    0    0 -0.71296900213E+02  0.83434937633E+02 -0.24792292245E+04  0.25675732494E+04  0.65864270000E+03 0.  0.
    8880022    1    1    2    0    0  0.71296900213E+02 -0.83434937633E+02  0.17424220041E+03  0.25650854609E+03  0.15294330000E+03 0.  1.
<mgrwt>
<rscale>  0 0.48655125E+03</rscale>
<asrwt>0</asrwt>
<pdfrwt beam="1">  1        2 0.39454374E+00 0.66772363E+03</pdfrwt>
<pdfrwt beam="2">  1       -2 0.39930369E-01 0.66772363E+03</pdfrwt>
<totfact> 0.20113959E+01</totfact>
</mgrwt>
</event>
<event>
 4    1  0.2701205E-007  0.7604910E+03  0.7818608E-02  0.9803838E-01
          2   -1    0    0  501    0  0.00000000000E+00  0.00000000000E+00  0.20198620023E+04  0.20198620023E+04  0.25500000000E-02 0. -1.
         -2   -1    0    0    0  501 -0.00000000000E+00 -0.00000000000E+00 -0.74789834873E+03  0.74789834873E+03  0.25500000000E-02 0.  1.
    8880023    1    1    2    0    0 -0.25071524674E+03  0.28579410437E+03  0.18837177106E+04  0.20314376743E+04  0.65864270000E+03 0. -1.
    8880022    1    1    2    0    0  0.25071524674E+03 -0.28579410437E+03 -0.61175405701E+03  0.73632267677E+03  0.15294330000E+03 0.  0.
<mgrwt>
<rscale>  0 0.65156985E+03</rscale>
<asrwt>0</asrwt>
<pdfrwt beam="1">  1        2 0.31074800E+00 0.76049103E+03</pdfrwt>
<pdfrwt beam="2">  1       -2 0.11506128E+00 0.76049103E+03</pdfrwt>
<totfact> 0.39697588E+00</totfact>
</mgrwt>
</event>
<event>
 4    1  0.2701205E-007  0.8538055E+03  0.7818608E-02  0.9604679E-01
         -2   -1    0    0    0  501 -0.00000000000E+00  0.00000000000E+00  0.52567360719E+03  0.52567360720E+03  0.25500000000E-02 0.  1.
          2   -1    0    0  501    0  0.00000000000E+00 -0.00000000000E+00 -0.18417817115E+04  0.18417817115E+04  0.25500000000E-02 0. -1.
    8880023    1    1    2    0    0  0.52256661538E+03  0.14865334189E+03 -0.15395228549E+04  0.17604302061E+04  0.65864270000E+03 0.  0.
    8880022    1    1    2    0    0 -0.52256661538E+03 -0.14865334189E+03  0.22341475056E+03  0.60702511262E+03  0.15294330000E+03 0.  0.
<mgrwt>
<rscale>  0 0.76987291E+03</rscale>
<asrwt>0</asrwt>
<pdfrwt beam="1">  1        2 0.28335103E+00 0.85380553E+03</pdfrwt>
<pdfrwt beam="2">  1       -2 0.80872863E-01 0.85380553E+03</pdfrwt>
<totfact> 0.11223945E+01</totfact>
</mgrwt>
</event>
<event>
 4    1  0.2701205E-007  0.7286633E+03  0.7818608E-02  0.9894293E-01
         -2   -1    0    0    0  501 -0.00000000000E+00  0.00000000000E+00  0.10468988466E+04  0.10468988466E+04  0.25500000000E-02 0.  1.
          2   -1    0    0  501    0  0.00000000000E+00 -0.00000000000E+00 -0.25192746861E+04  0.25192746861E+04  0.25500000000E-02 0. -1.
    8880023    1    1    2    0    0 -0.42277817343E+01 -0.31164422743E+03 -0.24356158917E+04  0.25422775176E+04  0.65864270000E+03 0. -1.
    8880022    1    1    2    0    0  0.42277817343E+01  0.31164422743E+03  0.96324005214E+03  0.10238960151E+04  0.15294330000E+03 0.  0.
<mgrwt>
<rscale>  0 0.60538661E+03</rscale>
<asrwt>0</asrwt>
<pdfrwt beam="1">  1        2 0.38758072E+00 0.72866330E+03</pdfrwt>
<pdfrwt beam="2">  1       -2 0.16106136E+00 0.72866330E+03</pdfrwt>
<totfact> 0.88868216E-01</totfact>
</mgrwt>
</event>
<event>
 4    1  0.2701205E-007  0.7266195E+03  0.7818608E-02  0.9900793E-01
         -2   -1    0    0    0  501 -0.00000000000E+00  0.00000000000E+00  0.24035583372E+03  0.24035583374E+03  0.25500000000E-02 0.  1.
          2   -1    0    0  501    0  0.00000000000E+00 -0.00000000000E+00 -0.15914888043E+04  0.15914888043E+04  0.25500000000E-02 0. -1.
    8880023    1    1    2    0    0  0.17367688624E+03 -0.25298627386E+03 -0.12942799043E+04  0.14842965985E+04  0.65864270000E+03 0.  0.
    8880022    1    1    2    0    0 -0.17367688624E+03  0.25298627386E+03 -0.56853066275E+02  0.34754803947E+03  0.15294330000E+03 0.  0.
<mgrwt>
<rscale>  0 0.60222881E+03</rscale>
<asrwt>0</asrwt>
<pdfrwt beam="1">  1        2 0.24484443E+00 0.72661952E+03</pdfrwt>
<pdfrwt beam="2">  1       -2 0.36977821E-01 0.72661952E+03</pdfrwt>
<totfact> 0.79498273E+01</totfact>
</mgrwt>
</event>
<event>
 4    1  0.2701205E-007  0.1258871E+04  0.7818608E-02  0.9101917E-01
          2   -1    0    0  501    0  0.00000000000E+00  0.00000000000E+00  0.33582990789E+04  0.33582990789E+04  0.25500000000E-02 0. -1.
         -2   -1    0    0    0  501 -0.00000000000E+00 -0.00000000000E+00 -0.37037558998E+04  0.37037558998E+04  0.25500000000E-02 0.  1.
    8880023    1    1    2    0    0 -0.29514906379E+03 -0.10314224006E+04  0.31554335680E+04  0.33972807283E+04  0.65864270000E+03 0.  0.
    8880022    1    1    2    0    0  0.29514906379E+03  0.10314224006E+04 -0.35008903889E+04  0.36647742504E+04  0.15294330000E+03 0.  0.
<mgrwt>
<rscale>  0 0.12125787E+04</rscale>
<asrwt>0</asrwt>
<pdfrwt beam="1">  1        2 0.51666140E+00 0.12588707E+04</pdfrwt>
<pdfrwt beam="2">  1       -2 0.56980860E+00 0.12588707E+04</pdfrwt>
<totfact> 0.66822445E-04</totfact>
</mgrwt>
</event>
<event>
 4    1  0.2701205E-007  0.1005266E+04  0.7818608E-02  0.9374700E-01
          2   -1    0    0  501    0  0.00000000000E+00  0.00000000000E+00  0.24861538866E+04  0.24861538866E+04  0.25500000000E-02 0. -1.
         -2   -1    0    0    0  501 -0.00000000000E+00 -0.00000000000E+00 -0.83718786831E+03  0.83718786832E+03  0.25500000000E-02 0.  1.
    8880023    1    1    2    0    0 -0.27267994973E+03 -0.70879869437E+03  0.21687696714E+04  0.23904229831E+04  0.65864270000E+03 0.  0.
    8880022    1    1    2    0    0  0.27267994973E+03  0.70879869437E+03 -0.51980365309E+03  0.93291877187E+03  0.15294330000E+03 0.  0.
<mgrwt>
<rscale>  0 0.94187339E+03</rscale>
<asrwt>0</asrwt>
<pdfrwt beam="1">  1        2 0.38248521E+00 0.10052662E+04</pdfrwt>
<pdfrwt beam="2">  1       -2 0.12879813E+00 0.10052662E+04</pdfrwt>
<totfact> 0.15854778E+00</totfact>
</mgrwt>
</event>
<event>
 4    1  0.2701205E-007  0.1477202E+04  0.7818608E-02  0.8925904E-01
         -2   -1    0    0    0  501 -0.00000000000E+00  0.00000000000E+00  0.13083465154E+04  0.13083465154E+04  0.25500000000E-02 0.  1.
          2   -1    0    0  501    0  0.00000000000E+00 -0.00000000000E+00 -0.18867377024E+04  0.18867377024E+04  0.25500000000E-02 0. -1.
    8880023    1    1    2    0    0  0.60264552403E+03  0.11769174727E+04 -0.10172147278E+04  0.17935585783E+04  0.65864270000E+03 0.  0.
    8880022    1    1    2    0    0 -0.60264552403E+03 -0.11769174727E+04  0.43882354082E+03  0.14015256395E+04  0.15294330000E+03 0.  0.
<mgrwt>
<rscale>  0 0.14392260E+04</rscale>
<asrwt>0</asrwt>
<pdfrwt beam="1">  1        2 0.29026734E+00 0.14772023E+04</pdfrwt>
<pdfrwt beam="2">  1       -2 0.20128408E+00 0.14772023E+04</pdfrwt>
<totfact> 0.94880453E-01</totfact>
</mgrwt>
</event>
<event>
 4    1  0.2701205E-007  0.7728837E+03  0.7818608E-02  0.9772827E-01
         -2   -1    0    0    0  501 -0.00000000000E+00  0.00000000000E+00  0.12743740519E+04  0.12743740519E+04  0.25500000000E-02 0.  1.
          2   -1    0    0  501    0  0.00000000000E+00 -0.00000000000E+00 -0.11548594423E+04  0.11548594423E+04  0.25500000000E-02 0. -1.
    8880023    1    1    2    0    0 -0.39921771545E+03  0.64530918179E+02 -0.97980694864E+03  0.12479466682E+04  0.65864270000E+03 0. -1.
    8880022    1    1    2    0    0  0.39921771545E+03 -0.64530918179E+02  0.10993215583E+04  0.11812868260E+04  0.15294330000E+03 0.  0.
<mgrwt>
<rscale>  0 0.66841423E+03</rscale>
<asrwt>0</asrwt>
<pdfrwt beam="1">  1        2 0.17767068E+00 0.77288371E+03</pdfrwt>
<pdfrwt beam="2">  1       -2 0.19605755E+00 0.77288371E+03</pdfrwt>
<totfact> 0.29107094E+00</totfact>
</mgrwt>
</event>
<event>
 4    1  0.2701205E-007  0.1169791E+04  0.7818608E-02  0.9187062E-01
          2   -1    0    0  501    0  0.00000000000E+00  0.00000000000E+00  0.12596525550E+04  0.12596525550E+04  0.25500000000E-02 0. -1.
         -2   -1    0    0    0  501 -0.00000000000E+00 -0.00000000000E+00 -0.24903906555E+04  0.24903906555E+04  0.25500000000E-02 0.  1.
    8880023    1    1    2    0    0 -0.95817201771E+03  0.12847627716E+03  0.85307793739E+03  0.14478093600E+04  0.65864270000E+03 0. -1.
    8880022    1    1    2    0    0  0.95817201771E+03 -0.12847627716E+03 -0.20838160380E+04  0.23022338505E+04  0.15294330000E+03 0.  0.
<mgrwt>
<rscale>  0 0.11187970E+04</rscale>
<asrwt>0</asrwt>
<pdfrwt beam="1">  1        2 0.19379270E+00 0.11697906E+04</pdfrwt>
<pdfrwt beam="2">  1       -2 0.38313702E+00 0.11697906E+04</pdfrwt>
<totfact> 0.16477211E-01</totfact>
</mgrwt>
</event>
<event>
 4    1  0.2701205E-007  0.8516814E+03  0.7818608E-02  0.9608535E-01
         -2   -1    0    0    0  501 -0.00000000000E+00  0.00000000000E+00  0.19433955666E+04  0.19433955666E+04  0.25500000000E-02 0.  1.
          2   -1    0    0  501    0  0.00000000000E+00 -0.00000000000E+00 -0.77857338342E+03  0.77857338342E+03  0.25500000000E-02 0. -1.
    8880023    1    1    2    0    0 -0.12408381928E+03 -0.52550377367E+03 -0.48445622900E+03  0.97982603274E+03  0.65864270000E+03 0.  0.
    8880022    1    1    2    0    0  0.12408381928E+03  0.52550377367E+03  0.16492784122E+04  0.17421429173E+04  0.15294330000E+03 0.  0.
<mgrwt>
<rscale>  0 0.76733819E+03</rscale>
<asrwt>0</asrwt>
<pdfrwt beam="1">  1        2 0.11978052E+00 0.85168141E+03</pdfrwt>
<pdfrwt beam="2">  1       -2 0.29898394E+00 0.85168141E+03</pdfrwt>
<totfact> 0.11813113E+00</totfact>
</mgrwt>
</event>
<event>
 4    1  0.2701205E-007  0.7244678E+03  0.7818608E-02  0.9907748E-01
          2   -1    0    0  501    0  0.00000000000E+00  0.00000000000E+00  0.11932700005E+04  0.11932700005E+04  0.25500000000E-02 0. -1.
         -2   -1    0    0    0  501 -0.00000000000E+00 -0.00000000000E+00 -0.15140566677E+04  0.15140566677E+04  0.25500000000E-02 0.  1.
    8880023    1    1    2    0    0  0.18180973971E+03 -0.24080829754E+03  0.10609929013E+04  0.12847410480E+04  0.65864270000E+03 0. -1.
    8880022    1    1    2    0    0 -0.18180973971E+03  0.24080829754E+03 -0.13817795686E+04  0.14225856202E+04  0.15294330000E+03 0.  0.
<mgrwt>
<rscale>  0 0.59887229E+03</rscale>
<asrwt>0</asrwt>
<pdfrwt beam="1">  1        2 0.18358000E+00 0.72446782E+03</pdfrwt>
<pdfrwt beam="2">  1       -2 0.23293180E+00 0.72446782E+03</pdfrwt>
<totfact> 0.16261176E+00</totfact>
</mgrwt>
</event>
<event>
 4    1  0.2701205E-007  0.1219124E+04  0.7818608E-02  0.9138753E-01
          2   -1    0    0  501    0  0.00000000000E+00  0.00000000000E+00  0.45421403621E+04  0.45421403621E+04  0.25500000000E-02 0. -1.
         -2   -1    0    0    0  501 -0.00000000000E+00 -0.00000000000E+00 -0.48668710208E+03  0.48668710208E+03  0.25500000000E-02 0.  1.
    8880023    1    1    2    0    0 -0.97361441062E+03  0.32330668935E+03  0.37565020079E+04  0.39493758719E+04  0.65864270000E+03 0.  0.
    8880022    1    1    2    0    0  0.97361441062E+03 -0.32330668935E+03  0.29895125214E+03  0.10794515923E+04  0.15294330000E+03 0.  0.
<mgrwt>
<rscale>  0 0.11708587E+04</rscale>
<asrwt>0</asrwt>
<pdfrwt beam="1">  1        2 0.69879084E+00 0.12191236E+04</pdfrwt>
<pdfrwt beam="2">  1       -2 0.74874937E-01 0.12191236E+04</pdfrwt>
<totfact> 0.18491346E-01</totfact>
</mgrwt>
</event>
<event>
 4    1  0.2701205E-007  0.1735712E+04  0.7818608E-02  0.8758957E-01
         -2   -1    0    0    0  501 -0.00000000000E+00  0.00000000000E+00  0.23438277661E+04  0.23438277661E+04  0.25500000000E-02 0.  1.
          2   -1    0    0  501    0  0.00000000000E+00 -0.00000000000E+00 -0.17459222673E+04  0.17459222673E+04  0.25500000000E-02 0. -1.
    8880023    1    1    2    0    0  0.10107401431E+04 -0.12479149953E+04 -0.84043350052E+03  0.19284776762E+04  0.65864270000E+03 0. -1.
    8880022    1    1    2    0    0 -0.10107401431E+04  0.12479149953E+04  0.14383389992E+04  0.21612723572E+04  0.15294330000E+03 0.  0.
<mgrwt>
<rscale>  0 0.17042275E+04</rscale>
<asrwt>0</asrwt>
<pdfrwt beam="1">  1        2 0.26860343E+00 0.17357124E+04</pdfrwt>
<pdfrwt beam="2">  1       -2 0.36058889E+00 0.17357124E+04</pdfrwt>
<totfact> 0.11283567E-01</totfact>
</mgrwt>
</event>
<event>
 4    1  0.2701205E-007  0.9505537E+03  0.7818608E-02  0.9449318E-01
          2   -1    0    0  501    0  0.00000000000E+00  0.00000000000E+00  0.20110708231E+04  0.20110708231E+04  0.25500000000E-02 0. -1.
         -2   -1    0    0    0  501 -0.00000000000E+00 -0.00000000000E+00 -0.42422160783E+03  0.42422160784E+03  0.25500000000E-02 0.  1.
    8880023    1    1    2    0    0  0.18186328355E+03 -0.66080847614E+03  0.14277954976E+04  0.17152703242E+04  0.65864270000E+03 0. -1.
    8880022    1    1    2    0    0 -0.18186328355E+03  0.66080847614E+03  0.15905371772E+03  0.72002210673E+03  0.15294330000E+03 0.  1.
<mgrwt>
<rscale>  0 0.88125801E+03</rscale>
<asrwt>0</asrwt>
<pdfrwt beam="1">  1        2 0.30939551E+00 0.95055368E+03</pdfrwt>
<pdfrwt beam="2">  1       -2 0.65264863E-01 0.95055368E+03</pdfrwt>
<totfact> 0.14382532E+01</totfact>
</mgrwt>
</event>
<event>
 4    1  0.2701205E-007  0.9878196E+03  0.7818608E-02  0.9397670E-01
          2   -1    0    0  501    0  0.00000000000E+00  0.00000000000E+00  0.59140687175E+03  0.59140687176E+03  0.25500000000E-02 0. -1.
         -2   -1    0    0    0  501 -0.00000000000E+00 -0.00000000000E+00 -0.29508580058E+04  0.29508580058E+04  0.25500000000E-02 0.  1.
    8880023    1    1    2    0    0  0.26531614102E+03  0.68672027460E+03  0.78559723834E+02  0.99093855849E+03  0.65864270000E+03 0.  0.
    8880022    1    1    2    0    0 -0.26531614102E+03 -0.68672027460E+03 -0.24380108578E+04  0.25513263190E+04  0.15294330000E+03 0.  0.
<mgrwt>
<rscale>  0 0.92267709E+03</rscale>
<asrwt>0</asrwt>
<pdfrwt beam="1">  1        2 0.90985674E-01 0.98781962E+03</pdfrwt>
<pdfrwt beam="2">  1       -2 0.45397815E+00 0.98781962E+03</pdfrwt>
<totfact> 0.16843578E-01</totfact>
</mgrwt>
</event>
<event>
 4    1  0.2701205E-007  0.7374790E+03  0.7818608E-02  0.9867352E-01
          2   -1    0    0  501    0  0.00000000000E+00  0.00000000000E+00  0.27408518563E+04  0.27408518563E+04  0.25500000000E-02 0. -1.
         -2   -1    0    0    0  501 -0.00000000000E+00 -0.00000000000E+00 -0.50672801794E+03  0.50672801795E+03  0.25500000000E-02 0.  1.
    8880023    1    1    2    0    0 -0.34992695974E+02  0.32991003439E+03  0.26166763902E+04  0.27186155773E+04  0.65864270000E+03 0. -1.
    8880022    1    1    2    0    0  0.34992695974E+02 -0.32991003439E+03 -0.38255255184E+03  0.52896429700E+03  0.15294330000E+03 0.  0.
<mgrwt>
<rscale>  0 0.61869960E+03</rscale>
<asrwt>0</asrwt>
<pdfrwt beam="1">  1        2 0.42166951E+00 0.73747903E+03</pdfrwt>
<pdfrwt beam="2">  1       -2 0.77958159E-01 0.73747903E+03</pdfrwt>
<totfact> 0.38989802E+00</totfact>
</mgrwt>
</event>
<event>
 4    1  0.2701205E-007  0.7358812E+03  0.7818608E-02  0.9872111E-01
         -2   -1    0    0    0  501 -0.00000000000E+00  0.00000000000E+00  0.42244753784E+03  0.42244753784E+03  0.25500000000E-02 0.  1.
          2   -1    0    0  501    0  0.00000000000E+00 -0.00000000000E+00 -0.21499999471E+04  0.21499999471E+04  0.25500000000E-02 0. -1.
    8880023    1    1    2    0    0 -0.70389431335E+02 -0.32055621072E+03 -0.19923269962E+04  0.21238851245E+04  0.65864270000E+03 0.  0.
    8880022    1    1    2    0    0  0.70389431335E+02  0.32055621072E+03  0.26477458692E+03  0.44856236040E+03  0.15294330000E+03 0.  0.
<mgrwt>
<rscale>  0 0.61632134E+03</rscale>
<asrwt>0</asrwt>
<pdfrwt beam="1">  1        2 0.33076921E+00 0.73588121E+03</pdfrwt>
<pdfrwt beam="2">  1       -2 0.64991931E-01 0.73588121E+03</pdfrwt>
<totfact> 0.12522777E+01</totfact>
</mgrwt>
</event>
<event>
 4    1  0.2701205E-007  0.9297757E+03  0.7818608E-02  0.9479830E-01
         -2   -1    0    0    0  501 -0.00000000000E+00  0.00000000000E+00  0.12895409579E+04  0.12895409579E+04  0.25500000000E-02 0.  1.
          2   -1    0    0  501    0  0.00000000000E+00 -0.00000000000E+00 -0.17033219864E+04  0.17033219864E+04  0.25500000000E-02 0. -1.
    8880023    1    1    2    0    0  0.24938675792E+03  0.60702463837E+03 -0.14703780873E+04  0.17396823252E+04  0.65864270000E+03 0. -1.
    8880022    1    1    2    0    0 -0.24938675792E+03 -0.60702463837E+03  0.10565970588E+04  0.12531806192E+04  0.15294330000E+03 0.  0.
<mgrwt>
<rscale>  0 0.85787363E+03</rscale>
<asrwt>0</asrwt>
<pdfrwt beam="1">  1        2 0.26204954E+00 0.92977571E+03</pdfrwt>
<pdfrwt beam="2">  1       -2 0.19839092E+00 0.92977571E+03</pdfrwt>
<totfact> 0.13380344E+00</totfact>
</mgrwt>
</event>
<event>
 4    1  0.2701205E-007  0.7483655E+03  0.7818608E-02  0.9836217E-01
          2   -1    0    0  501    0  0.00000000000E+00  0.00000000000E+00  0.13448236454E+04  0.13448236454E+04  0.25500000000E-02 0. -1.
         -2   -1    0    0    0  501 -0.00000000000E+00 -0.00000000000E+00 -0.65453140816E+03  0.65453140816E+03  0.25500000000E-02 0.  1.
    8880023    1    1    2    0    0 -0.20717787319E+03  0.28864853333E+03  0.11664480801E+04  0.13858758879E+04  0.65864270000E+03 0.  0.
    8880022    1    1    2    0    0  0.20717787319E+03 -0.28864853333E+03 -0.47615584287E+03  0.61347916562E+03  0.15294330000E+03 0.  0.
<mgrwt>
<rscale>  0 0.63454652E+03</rscale>
<asrwt>0</asrwt>
<pdfrwt beam="1">  1        2 0.20689594E+00 0.74836545E+03</pdfrwt>
<pdfrwt beam="2">  1       -2 0.10069714E+00 0.74836545E+03</pdfrwt>
<totfact> 0.12926882E+01</totfact>
</mgrwt>
</event>
<event>
 4    1  0.2701205E-007  0.1311365E+04  0.7818608E-02  0.9055807E-01
         -2   -1    0    0    0  501 -0.00000000000E+00  0.00000000000E+00  0.77754677013E+03  0.77754677013E+03  0.25500000000E-02 0.  1.
          2   -1    0    0  501    0  0.00000000000E+00 -0.00000000000E+00 -0.30527611629E+04  0.30527611629E+04  0.25500000000E-02 0. -1.
    8880023    1    1    2    0    0 -0.51815016359E+03  0.10086570068E+04 -0.31579626356E+02  0.13117454130E+04  0.65864270000E+03 0.  1.
    8880022    1    1    2    0    0  0.51815016359E+03 -0.10086570068E+04 -0.22436347664E+04  0.25185625201E+04  0.15294330000E+03 0.  0.
<mgrwt>
<rscale>  0 0.12674213E+04</rscale>
<asrwt>0</asrwt>
<pdfrwt beam="1">  1        2 0.46965556E+00 0.13113652E+04</pdfrwt>
<pdfrwt beam="2">  1       -2 0.11962258E+00 0.13113652E+04</pdfrwt>
<totfact> 0.84105944E-01</totfact>
</mgrwt>
</event>
<event>
 4    1  0.2701205E-007  0.1524676E+04  0.7818608E-02  0.8892405E-01
          2   -1    0    0  501    0  0.00000000000E+00  0.00000000000E+00  0.25920928265E+04  0.25920928265E+04  0.25500000000E-02 0. -1.
         -2   -1    0    0    0  501 -0.00000000000E+00 -0.00000000000E+00 -0.99720236149E+03  0.99720236150E+03  0.25500000000E-02 0.  1.
    8880023    1    1    2    0    0 -0.12906301108E+04 -0.47444860125E+03  0.15939444528E+04  0.22057417535E+04  0.65864270000E+03 0.  0.
    8880022    1    1    2    0    0  0.12906301108E+04  0.47444860125E+03  0.94601219772E+00  0.13835534345E+04  0.15294330000E+03 0.  0.
<mgrwt>
<rscale>  0 0.14881003E+04</rscale>
<asrwt>0</asrwt>
<pdfrwt beam="1">  1        2 0.39878351E+00 0.15246763E+04</pdfrwt>
<pdfrwt beam="2">  1       -2 0.15341575E+00 0.15246763E+04</pdfrwt>
<totfact> 0.81789223E-01</totfact>
</mgrwt>
</event>
<event>
 4    1  0.3218653E-007  0.9914548E+03  0.7818608E-02  0.9392824E-01
          2   -1    0    0  501    0  0.00000000000E+00  0.00000000000E+00  0.26558786822E+04  0.26558786822E+04  0.25500000000E-02 0. -1.
         -2   -1    0    0    0  501 -0.00000000000E+00 -0.00000000000E+00 -0.11572877120E+04  0.11572877120E+04  0.25500000000E-02 0.  1.
    8880023    1    1    2    0    0  0.29020569805E+02  0.74049328851E+03  0.24233280101E+04  0.26183012345E+04  0.65864270000E+03 0. -1.
    8880022    1    1    2    0    0 -0.29020569805E+02 -0.74049328851E+03 -0.92473703993E+03  0.11948651597E+04  0.15294330000E+03 0.  0.
<mgrwt>
<rscale>  0 0.92668626E+03</rscale>
<asrwt>0</asrwt>
<pdfrwt beam="1">  1        2 0.40859672E+00 0.99145485E+03</pdfrwt>
<pdfrwt beam="2">  1       -2 0.17804426E+00 0.99145485E+03</pdfrwt>
<totfact> 0.53320657E-01</totfact>
</mgrwt>
</event>
<event>
 4    1  0.2701205E-007  0.7163998E+03  0.7818608E-02  0.9934962E-01
          2   -1    0    0  501    0  0.00000000000E+00  0.00000000000E+00  0.17930797033E+04  0.17930797033E+04  0.25500000000E-02 0. -1.
         -2   -1    0    0    0  501 -0.00000000000E+00 -0.00000000000E+00 -0.64820138588E+03  0.64820138588E+03  0.25500000000E-02 0.  1.
    8880023    1    1    2    0    0  0.41017340650E+02 -0.27881182630E+03  0.16749782912E+04  0.18217521618E+04  0.65864270000E+03 0. -1.
    8880022    1    1    2    0    0 -0.41017340650E+02  0.27881182630E+03 -0.53009997376E+03  0.61952892742E+03  0.15294330000E+03 0.  0.
<mgrwt>
<rscale>  0 0.58596418E+03</rscale>
<asrwt>0</asrwt>
<pdfrwt beam="1">  1        2 0.27585842E+00 0.71639979E+03</pdfrwt>
<pdfrwt beam="2">  1       -2 0.99723290E-01 0.71639979E+03</pdfrwt>
<totfact> 0.75003450E+00</totfact>
</mgrwt>
</event>
<event>
 4    1  0.2701205E-007  0.1672921E+04  0.7818608E-02  0.8796294E-01
          2   -1    0    0  501    0  0.00000000000E+00  0.00000000000E+00  0.20285137885E+04  0.20285137885E+04  0.25500000000E-02 0. -1.
         -2   -1    0    0    0  501 -0.00000000000E+00 -0.00000000000E+00 -0.52925952391E+04  0.52925952391E+04  0.25500000000E-02 0.  1.
    8880023    1    1    2    0    0 -0.14118867257E+04  0.60945013563E+03 -0.48357424766E+04  0.51169394271E+04  0.65864270000E+03 0.  1.
    8880022    1    1    2    0    0  0.14118867257E+04 -0.60945013563E+03  0.15716610260E+04  0.22041696005E+04  0.15294330000E+03 0.  0.
<mgrwt>
<rscale>  0 0.16400851E+04</rscale>
<asrwt>0</asrwt>
<pdfrwt beam="1">  1        2 0.31207905E+00 0.16729207E+04</pdfrwt>
<pdfrwt beam="2">  1       -2 0.81424542E+00 0.16729207E+04</pdfrwt>
<totfact> 0.38101612E-04</totfact>
</mgrwt>
</event>
<event>
 4    1  0.2701205E-007  0.1024612E+04  0.7818608E-02  0.9350043E-01
         -2   -1    0    0    0  501 -0.00000000000E+00  0.00000000000E+00  0.17650341382E+04  0.17650341382E+04  0.25500000000E-02 0.  1.
          2   -1    0    0  501    0  0.00000000000E+00 -0.00000000000E+00 -0.11933126187E+04  0.11933126187E+04  0.25500000000E-02 0. -1.
    8880023    1    1    2    0    0  0.68205645644E+03  0.38835296110E+03 -0.84727823355E+03  0.13295524222E+04  0.65864270000E+03 0. -1.
    8880022    1    1    2    0    0 -0.68205645644E+03 -0.38835296110E+03  0.14189997531E+04  0.16287943347E+04  0.15294330000E+03 0.  0.
<mgrwt>
<rscale>  0 0.96303481E+03</rscale>
<asrwt>0</asrwt>
<pdfrwt beam="1">  1        2 0.18358656E+00 0.10246118E+04</pdfrwt>
<pdfrwt beam="2">  1       -2 0.27154371E+00 0.10246118E+04</pdfrwt>
<totfact> 0.90322866E-01</totfact>
</mgrwt>
</event>
<event>
 4    1  0.2701205E-007  0.6773606E+03  0.7818608E-02  0.1010858E+00
          2   -1    0    0  501    0  0.00000000000E+00  0.00000000000E+00  0.26842047688E+04  0.26842047688E+04  0.25500000000E-02 0. -1.
         -2   -1    0    0    0  501 -0.00000000000E+00 -0.00000000000E+00 -0.88287651643E+02  0.88287651679E+02  0.25500000000E-02 0.  1.
    8880023    1    1    2    0    0  0.14558297540E+03 -0.61747311619E+02  0.23347052561E+04  0.24309804550E+04  0.65864270000E+03 0.  0.
    8880022    1    1    2    0    0 -0.14558297540E+03  0.61747311619E+02  0.26121186098E+03  0.34151196546E+03  0.15294330000E+03 0. -1.
<mgrwt>
<rscale>  0 0.51135116E+03</rscale>
<asrwt>0</asrwt>
<pdfrwt beam="1">  1        2 0.41295460E+00 0.67736057E+03</pdfrwt>
<pdfrwt beam="2">  1       -2 0.13582715E-01 0.67736057E+03</pdfrwt>
<totfact> 0.11835630E+02</totfact>
</mgrwt>
</event>
<event>
 4    1  0.2701205E-007  0.9033135E+03  0.7818608E-02  0.9520733E-01
         -2   -1    0    0    0  501 -0.00000000000E+00  0.00000000000E+00  0.72851091239E+03  0.72851091239E+03  0.25500000000E-02 0.  1.
          2   -1    0    0  501    0  0.00000000000E+00 -0.00000000000E+00 -0.15551505400E+04  0.15551505400E+04  0.25500000000E-02 0. -1.
    8880023    1    1    2    0    0 -0.57813209570E+03  0.21892556066E+03 -0.12328064837E+04  0.15283282219E+04  0.65864270000E+03 0.  0.
    8880022    1    1    2    0    0  0.57813209570E+03 -0.21892556066E+03  0.40616685609E+03  0.75533323055E+03  0.15294330000E+03 0.  0.
<mgrwt>
<rscale>  0 0.82772361E+03</rscale>
<asrwt>0</asrwt>
<pdfrwt beam="1">  1        2 0.23925393E+00 0.90331353E+03</pdfrwt>
<pdfrwt beam="2">  1       -2 0.11207860E+00 0.90331353E+03</pdfrwt>
<totfact> 0.74618921E+00</totfact>
</mgrwt>
</event>
<event>
 4    1  0.2701205E-007  0.8312162E+03  0.7818608E-02  0.9646971E-01
          2   -1    0    0  501    0  0.00000000000E+00  0.00000000000E+00  0.38531275674E+04  0.38531275674E+04  0.25500000000E-02 0. -1.
         -2   -1    0    0    0  501 -0.00000000000E+00 -0.00000000000E+00 -0.60361541967E+03  0.60361541967E+03  0.25500000000E-02 0.  1.
    8880023    1    1    2    0    0 -0.26753251750E+02 -0.50635413104E+03  0.36809488209E+04  0.37736328214E+04  0.65864270000E+03 0. -1.
    8880022    1    1    2    0    0  0.26753251750E+02  0.50635413104E+03 -0.43143667315E+03  0.68311016568E+03  0.15294330000E+03 0.  0.
<mgrwt>
<rscale>  0 0.74263856E+03</rscale>
<asrwt>0</asrwt>
<pdfrwt beam="1">  1        2 0.59278884E+00 0.83121625E+03</pdfrwt>
<pdfrwt beam="2">  1       -2 0.92863913E-01 0.83121625E+03</pdfrwt>
<totfact> 0.47640496E-01</totfact>
</mgrwt>
</event>
<event>
 4    1  0.2701205E-007  0.1657408E+04  0.7818608E-02  0.8805806E-01
          2   -1    0    0  501    0  0.00000000000E+00  0.00000000000E+00  0.18371108307E+04  0.18371108307E+04  0.25500000000E-02 0. -1.
         -2   -1    0    0    0  501 -0.00000000000E+00 -0.00000000000E+00 -0.22569882024E+04  0.22569882024E+04  0.25500000000E-02 0.  1.
    8880023    1    1    2    0    0 -0.13144174143E+04 -0.76517825234E+03  0.10592945003E+04  0.19670043064E+04  0.65864270000E+03 0.  0.
    8880022    1    1    2    0    0  0.13144174143E+04  0.76517825234E+03 -0.14791718719E+04  0.21270947267E+04  0.15294330000E+03 0.  0.
<mgrwt>
<rscale>  0 0.16242194E+04</rscale>
<asrwt>0</asrwt>
<pdfrwt beam="1">  1        2 0.28263244E+00 0.16574079E+04</pdfrwt>
<pdfrwt beam="2">  1       -2 0.34722895E+00 0.16574079E+04</pdfrwt>
<totfact> 0.12294587E-01</totfact>
</mgrwt>
</event>
<event>
 4    1  0.2701205E-007  0.6626415E+03  0.7818608E-02  0.1021600E+00
         -2   -1    0    0    0  501 -0.00000000000E+00  0.00000000000E+00  0.59117017591E+03  0.59117017592E+03  0.25500000000E-02 0.  1.
          2   -1    0    0  501    0  0.00000000000E+00 -0.00000000000E+00 -0.81132726567E+03  0.81132726568E+03  0.25500000000E-02 0. -1.
    8880023    1    1    2    0    0  0.11005244678E+02  0.71850165341E+02 -0.65751676068E+03  0.93349989743E+03  0.65864270000E+03 0. -1.
    8880022    1    1    2    0    0 -0.11005244678E+02 -0.71850165341E+02  0.43735967092E+03  0.46899754416E+03  0.15294330000E+03 0.  0.
<mgrwt>
<rscale>  0 0.47113711E+03</rscale>
<asrwt>0</asrwt>
<pdfrwt beam="1">  1        2 0.12481958E+00 0.66264151E+03</pdfrwt>
<pdfrwt beam="2">  1       -2 0.90949258E-01 0.66264151E+03</pdfrwt>
<totfact> 0.35645270E+01</totfact>
</mgrwt>
</event>
<event>
 4    1  0.3682155E-007  0.1118484E+04  0.7818608E-02  0.9240750E-01
         -2   -1    0    0    0  501 -0.00000000000E+00  0.00000000000E+00  0.97816651244E+03  0.97816651244E+03  0.25500000000E-02 0.  1.
          2   -1    0    0  501    0  0.00000000000E+00 -0.00000000000E+00 -0.36406980593E+04  0.36406980594E+04  0.25500000000E-02 0. -1.
    8880023    1    1    2    0    0  0.25178631109E+03 -0.86821651969E+03 -0.33116973081E+04  0.34954750089E+04  0.65864270000E+03 0. -1.
    8880022    1    1    2    0    0 -0.25178631109E+03  0.86821651969E+03  0.64916576115E+03  0.11233895629E+04  0.15294330000E+03 0.  0.
<mgrwt>
<rscale>  0 0.10642538E+04</rscale>
<asrwt>0</asrwt>
<pdfrwt beam="1">  1        2 0.56010739E+00 0.11184840E+04</pdfrwt>
<pdfrwt beam="2">  1       -2 0.15048716E+00 0.11184840E+04</pdfrwt>
<totfact> 0.19398027E-01</totfact>
</mgrwt>
</event>
<event>
 4    1  0.2701205E-007  0.1058678E+04  0.7818608E-02  0.9308522E-01
         -2   -1    0    0    0  501 -0.00000000000E+00  0.00000000000E+00  0.19199409873E+04  0.19199409873E+04  0.25500000000E-02 0.  1.
          2   -1    0    0  501    0  0.00000000000E+00 -0.00000000000E+00 -0.96109884928E+03  0.96109884928E+03  0.25500000000E-02 0. -1.
    8880023    1    1    2    0    0 -0.35028088871E+03  0.75119323933E+03 -0.51953241454E+03  0.11792845797E+04  0.65864270000E+03 0. -1.
    8880022    1    1    2    0    0  0.35028088871E+03 -0.75119323933E+03  0.14783745526E+04  0.17017552569E+04  0.15294330000E+03 0.  0.
<mgrwt>
<rscale>  0 0.10000209E+04</rscale>
<asrwt>0</asrwt>
<pdfrwt beam="1">  1        2 0.14786136E+00 0.10586776E+04</pdfrwt>
<pdfrwt beam="2">  1       -2 0.29537553E+00 0.10586776E+04</pdfrwt>
<totfact> 0.90137335E-01</totfact>
</mgrwt>
</event>
<event>
 4    1  0.2701205E-007  0.7833096E+03  0.7818608E-02  0.9748119E-01
         -2   -1    0    0    0  501 -0.00000000000E+00  0.00000000000E+00  0.19511971596E+03  0.19511971598E+03  0.25500000000E-02 0.  1.
          2   -1    0    0  501    0  0.00000000000E+00 -0.00000000000E+00 -0.19583548862E+04  0.19583548862E+04  0.25500000000E-02 0. -1.
    8880023    1    1    2    0    0  0.26092420806E+03 -0.33418900128E+03 -0.11811579924E+04  0.14172890108E+04  0.65864270000E+03 0.  0.
    8880022    1    1    2    0    0 -0.26092420806E+03  0.33418900128E+03 -0.58207717781E+03  0.73618559133E+03  0.15294330000E+03 0.  1.
<mgrwt>
<rscale>  0 0.68222657E+03</rscale>
<asrwt>0</asrwt>
<pdfrwt beam="1">  1        2 0.30128535E+00 0.78330960E+03</pdfrwt>
<pdfrwt beam="2">  1       -2 0.30018419E-01 0.78330960E+03</pdfrwt>
<totfact> 0.73841933E+01</totfact>
</mgrwt>
</event>
<event>
 4    1  0.2701205E-007  0.7157682E+03  0.7818608E-02  0.9937174E-01
          2   -1    0    0  501    0  0.00000000000E+00  0.00000000000E+00  0.16403114301E+04  0.16403114301E+04  0.25500000000E-02 0. -1.
         -2   -1    0    0    0  501 -0.00000000000E+00 -0.00000000000E+00 -0.80012364137E+03  0.80012364138E+03  0.25500000000E-02 0.  1.
    8880023    1    1    2    0    0  0.27222835711E+03 -0.66375399887E+02  0.15251391326E+04  0.16847473259E+04  0.65864270000E+03 0. -1.
    8880022    1    1    2    0    0 -0.27222835711E+03  0.66375399887E+02 -0.68495134394E+03  0.75568774550E+03  0.15294330000E+03 0.  0.
<mgrwt>
<rscale>  0 0.58493026E+03</rscale>
<asrwt>0</asrwt>
<pdfrwt beam="1">  1        2 0.25235560E+00 0.71576824E+03</pdfrwt>
<pdfrwt beam="2">  1       -2 0.12309595E+00 0.71576824E+03</pdfrwt>
<totfact> 0.54530105E+00</totfact>
</mgrwt>
</event>
<event>
 4    1  0.2701205E-007  0.6883154E+03  0.7818608E-02  0.1004964E+00
         -2   -1    0    0    0  501 -0.00000000000E+00  0.00000000000E+00  0.68964649306E+03  0.68964649307E+03  0.25500000000E-02 0.  1.
          2   -1    0    0  501    0  0.00000000000E+00 -0.00000000000E+00 -0.11722427552E+04  0.11722427552E+04  0.25500000000E-02 0. -1.
    8880023    1    1    2    0    0 -0.19702607215E+03  0.33891919368E+02 -0.10417975134E+04  0.12486473483E+04  0.65864270000E+03 0. -1.
    8880022    1    1    2    0    0  0.19702607215E+03 -0.33891919368E+02  0.55920125131E+03  0.61324189990E+03  0.15294330000E+03 0.  0.
<mgrwt>
<rscale>  0 0.53526294E+03</rscale>
<asrwt>0</asrwt>
<pdfrwt beam="1">  1        2 0.18034504E+00 0.68831544E+03</pdfrwt>
<pdfrwt beam="2">  1       -2 0.10609946E+00 0.68831544E+03</pdfrwt>
<totfact> 0.14488234E+01</totfact>
</mgrwt>
</event>
<event>
 4    1  0.2701205E-007  0.8963349E+03  0.7818608E-02  0.9531941E-01
          2   -1    0    0  501    0  0.00000000000E+00  0.00000000000E+00  0.26339527049E+04  0.26339527049E+04  0.25500000000E-02 0. -1.
         -2   -1    0    0    0  501 -0.00000000000E+00 -0.00000000000E+00 -0.61001030486E+03  0.61001030486E+03  0.25500000000E-02 0.  1.
    8880023    1    1    2    0    0  0.46038001482E+03 -0.39705961606E+03  0.23658062404E+04  0.25299121467E+04  0.65864270000E+03 0. -1.
    8880022    1    1    2    0    0 -0.46038001482E+03  0.39705961606E+03 -0.34186384031E+03  0.71405086309E+03  0.15294330000E+03 0.  0.
<mgrwt>
<rscale>  0 0.81969351E+03</rscale>
<asrwt>0</asrwt>
<pdfrwt beam="1">  1        2 0.40522349E+00 0.89633493E+03</pdfrwt>
<pdfrwt beam="2">  1       -2 0.93847739E-01 0.89633493E+03</pdfrwt>
<totfact> 0.28642855E+00</totfact>
</mgrwt>
</event>
<event>
 4    1  0.2701205E-007  0.1534923E+04  0.7818608E-02  0.8885361E-01
          2   -1    0    0  501    0  0.00000000000E+00  0.00000000000E+00  0.11862936789E+04  0.11862936789E+04  0.25500000000E-02 0. -1.
         -2   -1    0    0    0  501 -0.00000000000E+00 -0.00000000000E+00 -0.24784719331E+04  0.24784719331E+04  0.25500000000E-02 0.  1.
    8880023    1    1    2    0    0  0.65962012345E+03  0.12194584524E+04  0.28298522729E+03  0.15607909756E+04  0.65864270000E+03 0.  0.
    8880022    1    1    2    0    0 -0.65962012345E+03 -0.12194584524E+04 -0.15751634815E+04  0.21039746365E+04  0.15294330000E+03 0.  0.
<mgrwt>
<rscale>  0 0.14986345E+04</rscale>
<asrwt>0</asrwt>
<pdfrwt beam="1">  1        2 0.18250672E+00 0.15349227E+04</pdfrwt>
<pdfrwt beam="2">  1       -2 0.38130337E+00 0.15349227E+04</pdfrwt>
<totfact> 0.17872187E-01</totfact>
</mgrwt>
</event>
<event>
 4    1  0.2701205E-007  0.9605468E+03  0.7818608E-02  0.9435099E-01
          2   -1    0    0  501    0  0.00000000000E+00  0.00000000000E+00  0.68603759288E+03  0.68603759289E+03  0.25500000000E-02 0. -1.
         -2   -1    0    0    0  501 -0.00000000000E+00 -0.00000000000E+00 -0.17758305115E+04  0.17758305115E+04  0.25500000000E-02 0.  1.
    8880023    1    1    2    0    0  0.56579056107E+03  0.41075657991E+03 -0.13868127679E+04  0.16869794861E+04  0.65864270000E+03 0.  1.
    8880022    1    1    2    0    0 -0.56579056107E+03 -0.41075657991E+03  0.29701984928E+03  0.77488861833E+03  0.15294330000E+03 0.  0.
<mgrwt>
<rscale>  0 0.89242594E+03</rscale>
<asrwt>0</asrwt>
<pdfrwt beam="1">  1        2 0.10554425E+00 0.96054679E+03</pdfrwt>
<pdfrwt beam="2">  1       -2 0.27320469E+00 0.96054679E+03</pdfrwt>
<totfact> 0.19592793E+00</totfact>
</mgrwt>
</event>
<event>
 4    1  0.2701205E-007  0.6877822E+03  0.7818608E-02  0.1005225E+00
          2   -1    0    0  501    0  0.00000000000E+00  0.00000000000E+00  0.17584445693E+04  0.17584445693E+04  0.25500000000E-02 0. -1.
         -2   -1    0    0    0  501 -0.00000000000E+00 -0.00000000000E+00 -0.10178654454E+04  0.10178654454E+04  0.25500000000E-02 0.  1.
    8880023    1    1    2    0    0  0.29562787981E+02  0.19585752769E+03  0.16740741592E+04  0.18098532058E+04  0.65864270000E+03 0. -1.
    8880022    1    1    2    0    0 -0.29562787981E+02 -0.19585752769E+03 -0.93349503535E+03  0.96645680898E+03  0.15294330000E+03 0.  0.
<mgrwt>
<rscale>  0 0.53417350E+03</rscale>
<asrwt>0</asrwt>
<pdfrwt beam="1">  1        2 0.27052993E+00 0.68778219E+03</pdfrwt>
<pdfrwt beam="2">  1       -2 0.15659468E+00 0.68778219E+03</pdfrwt>
<totfact> 0.25379334E+00</totfact>
</mgrwt>
</event>
<event>
 4    1  0.2701205E-007  0.8988448E+03  0.7818608E-02  0.9527889E-01
         -2   -1    0    0    0  501 -0.00000000000E+00  0.00000000000E+00  0.10186754070E+04  0.10186754070E+04  0.25500000000E-02 0.  1.
          2   -1    0    0  501    0  0.00000000000E+00 -0.00000000000E+00 -0.85837029022E+03  0.85837029023E+03  0.25500000000E-02 0. -1.
    8880023    1    1    2    0    0 -0.59655373565E+03 -0.13503835572E+03 -0.44505654866E+03  0.10029941450E+04  0.65864270000E+03 0.  0.
    8880022    1    1    2    0    0  0.59655373565E+03  0.13503835572E+03  0.60536166542E+03  0.87405155226E+03  0.15294330000E+03 0.  0.
<mgrwt>
<rscale>  0 0.82258564E+03</rscale>
<asrwt>0</asrwt>
<pdfrwt beam="1">  1        2 0.13205697E+00 0.89884477E+03</pdfrwt>
<pdfrwt beam="2">  1       -2 0.15671929E+00 0.89884477E+03</pdfrwt>
<totfact> 0.83529674E+00</totfact>
</mgrwt>
</event>
