<event>
 4    1  0.8742165E-009  0.2813357E+03  0.7818608E-02  0.1094962E+00
         -4   -1    0    0    0  501 -0.00000000000E+00  0.00000000000E+00  0.51232019955E+03  0.51232177366E+03  0.12700000000E+01 0.  1.
          4   -1    0    0  501    0  0.00000000000E+00 -0.00000000000E+00 -0.17800565872E+03  0.17801018913E+03  0.12700000000E+01 0.  1.
    8880022    1    1    2    0    0 -0.22406240774E+03 -0.74526174157E+02  0.41699649343E+02  0.28440925964E+03  0.15294330000E+03 0.  0.
    8880022    1    1    2    0    0  0.22406240774E+03  0.74526174157E+02  0.29261489149E+03  0.40592270315E+03  0.15294330000E+03 0.  0.
<mgrwt>
<rscale>  0 0.28133568E+03</rscale>
<asrwt>0</asrwt>
<pdfrwt beam="1">  1        4 0.27385956E-01 0.28133568E+03</pdfrwt>
<pdfrwt beam="2">  1       -4 0.78818961E-01 0.28133568E+03</pdfrwt>
<totfact> 0.34141208E+01</totfact>
</mgrwt>
</event>
<event>
 4    1  0.8742165E-009  0.1829402E+03  0.7818608E-02  0.1164987E+00
         -4   -1    0    0    0  501 -0.00000000000E+00  0.00000000000E+00  0.77144026958E+02  0.77154480072E+02  0.12700000000E+01 0.  1.
          4   -1    0    0  501    0  0.00000000000E+00 -0.00000000000E+00 -0.86242040499E+03  0.86242134009E+03  0.12700000000E+01 0.  1.
    8880022    1    1    2    0    0  0.33542409861E+02  0.94606334356E+02 -0.61443690900E+02  0.19298298351E+03  0.15294330000E+03 0.  0.
    8880022    1    1    2    0    0 -0.33542409861E+02 -0.94606334356E+02 -0.72383268713E+03  0.74659283665E+03  0.15294330000E+03 0.  0.
<mgrwt>
<rscale>  0 0.18294017E+03</rscale>
<asrwt>0</asrwt>
<pdfrwt beam="1">  1        4 0.13268093E+00 0.18294017E+03</pdfrwt>
<pdfrwt beam="2">  1       -4 0.11869188E-01 0.18294017E+03</pdfrwt>
<totfact> 0.43118872E+01</totfact>
</mgrwt>
</event>
<event>
 4    1  0.8742165E-009  0.3286814E+03  0.7818608E-02  0.1071722E+00
          4   -1    0    0  501    0  0.00000000000E+00  0.00000000000E+00  0.39015458221E+03  0.39015664920E+03  0.12700000000E+01 0. -1.
         -4   -1    0    0    0  501 -0.00000000000E+00 -0.00000000000E+00 -0.30464610832E+03  0.30464875548E+03  0.12700000000E+01 0. -1.
    8880022    1    1    2    0    0 -0.28577882969E+03 -0.54500266466E+02  0.14761500677E+03  0.36030773206E+03  0.15294330000E+03 0.  0.
    8880022    1    1    2    0    0  0.28577882969E+03  0.54500266466E+02 -0.62106532883E+02  0.33449767262E+03  0.15294330000E+03 0.  0.
<mgrwt>
<rscale>  0 0.32868141E+03</rscale>
<asrwt>0</asrwt>
<pdfrwt beam="1">  1        4 0.60024145E-01 0.32868141E+03</pdfrwt>
<pdfrwt beam="2">  1       -4 0.46868995E-01 0.32868141E+03</pdfrwt>
<totfact> 0.21800512E+01</totfact>
</mgrwt>
</event>
<event>
 4    1  0.8742165E-009  0.2311940E+03  0.7818608E-02  0.1125802E+00
         -4   -1    0    0    0  501 -0.00000000000E+00  0.00000000000E+00  0.11453361885E+03  0.11454065980E+03  0.12700000000E+01 0.  1.
          4   -1    0    0  501    0  0.00000000000E+00 -0.00000000000E+00 -0.46864307140E+03  0.46864479221E+03  0.12700000000E+01 0.  1.
    8880022    1    1    2    0    0  0.17236968419E+03 -0.18647392738E+02 -0.19602772284E+03  0.30311310499E+03  0.15294330000E+03 0.  0.
    8880022    1    1    2    0    0 -0.17236968419E+03  0.18647392738E+02 -0.15808172971E+03  0.28007234702E+03  0.15294330000E+03 0.  0.
<mgrwt>
<rscale>  0 0.23119404E+03</rscale>
<asrwt>0</asrwt>
<pdfrwt beam="1">  1        4 0.72099607E-01 0.23119404E+03</pdfrwt>
<pdfrwt beam="2">  1       -4 0.17621231E-01 0.23119404E+03</pdfrwt>
<totfact> 0.91696531E+01</totfact>
</mgrwt>
</event>
<event>
 4    1  0.8742165E-009  0.4200437E+03  0.7818608E-02  0.1037052E+00
         -4   -1    0    0    0  501 -0.00000000000E+00  0.00000000000E+00  0.58363674007E+03  0.58363812183E+03  0.12700000000E+01 0.  1.
          4   -1    0    0  501    0  0.00000000000E+00 -0.00000000000E+00 -0.30448267725E+03  0.30448532583E+03  0.12700000000E+01 0.  1.
    8880022    1    1    2    0    0 -0.31456492212E+03  0.23258102427E+03  0.17715201542E+03  0.45587225476E+03  0.15294330000E+03 0.  0.
    8880022    1    1    2    0    0  0.31456492212E+03 -0.23258102427E+03  0.10200204740E+03  0.43225119290E+03  0.15294330000E+03 0.  0.
<mgrwt>
<rscale>  0 0.42004366E+03</rscale>
<asrwt>0</asrwt>
<pdfrwt beam="1">  1        4 0.46843799E-01 0.42004366E+03</pdfrwt>
<pdfrwt beam="2">  1       -4 0.89790577E-01 0.42004366E+03</pdfrwt>
<totfact> 0.90670864E+00</totfact>
</mgrwt>
</event>
<event>
 4    1  0.8742165E-009  0.1576139E+03  0.7818608E-02  0.1191417E+00
          4   -1    0    0  501    0  0.00000000000E+00  0.00000000000E+00  0.16420447465E+02  0.16469486785E+02  0.12700000000E+01 0.  1.
         -4   -1    0    0    0  501 -0.00000000000E+00 -0.00000000000E+00 -0.18715101489E+04  0.18715105798E+04  0.12700000000E+01 0.  1.
    8880022    1    1    2    0    0 -0.18505009039E+02 -0.33287397611E+02 -0.51299078667E+03  0.53665788583E+03  0.15294330000E+03 0.  1.
    8880022    1    1    2    0    0  0.18505009039E+02  0.33287397611E+02 -0.13420989147E+04  0.13513221807E+04  0.15294330000E+03 0.  1.
<mgrwt>
<rscale>  0 0.15761389E+03</rscale>
<asrwt>0</asrwt>
<pdfrwt beam="1">  1        4 0.25300296E-02 0.15761389E+03</pdfrwt>
<pdfrwt beam="2">  1       -4 0.28792828E+00 0.15761389E+03</pdfrwt>
<totfact> 0.53562586E+01</totfact>
</mgrwt>
</event>
<event>
 4    1  0.8742165E-009  0.2103981E+03  0.7818608E-02  0.1141251E+00
         -4   -1    0    0    0  501 -0.00000000000E+00  0.00000000000E+00  0.75388680014E+03  0.75388786986E+03  0.12700000000E+01 0. -1.
          4   -1    0    0  501    0  0.00000000000E+00 -0.00000000000E+00 -0.12154128800E+03  0.12154792301E+03  0.12700000000E+01 0. -1.
    8880022    1    1    2    0    0  0.21874583796E+02  0.14281873464E+03  0.63087320456E+03  0.66503258690E+03  0.15294330000E+03 0.  0.
    8880022    1    1    2    0    0 -0.21874583796E+02 -0.14281873464E+03  0.14723075799E+01  0.21040320598E+03  0.15294330000E+03 0.  0.
<mgrwt>
<rscale>  0 0.21039805E+03</rscale>
<asrwt>0</asrwt>
<pdfrwt beam="1">  1        4 0.18699252E-01 0.21039805E+03</pdfrwt>
<pdfrwt beam="2">  1       -4 0.11598318E+00 0.21039805E+03</pdfrwt>
<totfact> 0.27359746E+01</totfact>
</mgrwt>
</event>
<event>
 4    1  0.8742165E-009  0.2108723E+03  0.7818608E-02  0.1140877E+00
         -4   -1    0    0    0  501 -0.00000000000E+00  0.00000000000E+00  0.59564317247E+03  0.59564452639E+03  0.12700000000E+01 0.  1.
          4   -1    0    0  501    0  0.00000000000E+00 -0.00000000000E+00 -0.77040274140E+02  0.77050741330E+02  0.12700000000E+01 0.  1.
    8880022    1    1    2    0    0 -0.46093498820E+02  0.13766211835E+03  0.31857772173E+03  0.38204566123E+03  0.15294330000E+03 0.  0.
    8880022    1    1    2    0    0  0.46093498820E+02 -0.13766211835E+03  0.20002517660E+03  0.29064960649E+03  0.15294330000E+03 0.  0.
<mgrwt>
<rscale>  0 0.21087229E+03</rscale>
<asrwt>0</asrwt>
<pdfrwt beam="1">  1        4 0.11853259E-01 0.21087229E+03</pdfrwt>
<pdfrwt beam="2">  1       -4 0.91638318E-01 0.21087229E+03</pdfrwt>
<totfact> 0.10626485E+02</totfact>
</mgrwt>
</event>
<event>
 4    1  0.8742165E-009  0.2254676E+03  0.7818608E-02  0.1129871E+00
          4   -1    0    0  501    0  0.00000000000E+00  0.00000000000E+00  0.54712879648E+02  0.54727617336E+02  0.12700000000E+01 0.  1.
         -4   -1    0    0    0  501 -0.00000000000E+00 -0.00000000000E+00 -0.11093098706E+04  0.11093105975E+04  0.12700000000E+01 0.  1.
    8880022    1    1    2    0    0  0.15285346235E+03  0.63873271842E+02 -0.29264642788E+03  0.36942869485E+03  0.15294330000E+03 0.  0.
    8880022    1    1    2    0    0 -0.15285346235E+03 -0.63873271842E+02 -0.76195056303E+03  0.79460952004E+03  0.15294330000E+03 0.  0.
<mgrwt>
<rscale>  0 0.22546758E+03</rscale>
<asrwt>0</asrwt>
<pdfrwt beam="1">  1        4 0.84185565E-02 0.22546758E+03</pdfrwt>
<pdfrwt beam="2">  1       -4 0.17066423E+00 0.22546758E+03</pdfrwt>
<totfact> 0.41232624E+01</totfact>
</mgrwt>
</event>
<event>
 4    1  0.8742165E-009  0.1928893E+03  0.7818608E-02  0.1155881E+00
          4   -1    0    0  501    0  0.00000000000E+00  0.00000000000E+00  0.85542927999E+03  0.85543022273E+03  0.12700000000E+01 0. -1.
         -4   -1    0    0    0  501 -0.00000000000E+00 -0.00000000000E+00 -0.61844683864E+02  0.61857722414E+02  0.12700000000E+01 0. -1.
    8880022    1    1    2    0    0 -0.11724095379E+03 -0.83177041473E+01  0.14692483094E+03  0.24247305914E+03  0.15294330000E+03 0.  0.
    8880022    1    1    2    0    0  0.11724095379E+03  0.83177041473E+01  0.64665976519E+03  0.67481488601E+03  0.15294330000E+03 0.  0.
<mgrwt>
<rscale>  0 0.19288929E+03</rscale>
<asrwt>0</asrwt>
<pdfrwt beam="1">  1        4 0.13160558E+00 0.19288929E+03</pdfrwt>
<pdfrwt beam="2">  1       -4 0.95156424E-02 0.19288929E+03</pdfrwt>
<totfact> 0.64548703E+01</totfact>
</mgrwt>
</event>
<event>
 4    1  0.8742165E-009  0.1681518E+03  0.7818608E-02  0.1179789E+00
         -4   -1    0    0    0  501 -0.00000000000E+00  0.00000000000E+00  0.10957766871E+04  0.10957774231E+04  0.12700000000E+01 0. -1.
          4   -1    0    0  501    0  0.00000000000E+00 -0.00000000000E+00 -0.32031228856E+02  0.32056395961E+02  0.12700000000E+01 0. -1.
    8880022    1    1    2    0    0  0.26546246376E+02  0.64642668291E+02  0.78073675916E+03  0.79863941668E+03  0.15294330000E+03 0.  0.
    8880022    1    1    2    0    0 -0.26546246376E+02 -0.64642668291E+02  0.28300869909E+03  0.32919440235E+03  0.15294330000E+03 0.  0.
<mgrwt>
<rscale>  0 0.16815181E+03</rscale>
<asrwt>0</asrwt>
<pdfrwt beam="1">  1        4 0.49298747E-02 0.16815181E+03</pdfrwt>
<pdfrwt beam="2">  1       -4 0.16858299E+00 0.16815181E+03</pdfrwt>
<totfact> 0.99325070E+01</totfact>
</mgrwt>
</event>
<event>
 4    1  0.8742165E-009  0.2171570E+03  0.7818608E-02  0.1136021E+00
          4   -1    0    0  501    0  0.00000000000E+00  0.00000000000E+00  0.36710510122E+03  0.36710729800E+03  0.12700000000E+01 0. -1.
         -4   -1    0    0    0  501 -0.00000000000E+00 -0.00000000000E+00 -0.13297499505E+03  0.13298105958E+03  0.12700000000E+01 0. -1.
    8880022    1    1    2    0    0  0.49733391287E+01 -0.15408046509E+03  0.70946957721E+02  0.22845272520E+03  0.15294330000E+03 0.  0.
    8880022    1    1    2    0    0 -0.49733391287E+01  0.15408046509E+03  0.16318314846E+03  0.27163563238E+03  0.15294330000E+03 0.  0.
<mgrwt>
<rscale>  0 0.21715703E+03</rscale>
<asrwt>0</asrwt>
<pdfrwt beam="1">  1        4 0.56478343E-01 0.21715703E+03</pdfrwt>
<pdfrwt beam="2">  1       -4 0.20458327E-01 0.21715703E+03</pdfrwt>
<totfact> 0.11725159E+02</totfact>
</mgrwt>
</event>
<event>
 4    1  0.8742165E-009  0.2242937E+03  0.7818608E-02  0.1130722E+00
          4   -1    0    0  501    0  0.00000000000E+00  0.00000000000E+00  0.43142062455E+03  0.43142249383E+03  0.12700000000E+01 0.  1.
         -4   -1    0    0    0  501 -0.00000000000E+00 -0.00000000000E+00 -0.12051329373E+03  0.12051998534E+03  0.12700000000E+01 0.  1.
    8880022    1    1    2    0    0 -0.93374413099E+02 -0.13489715703E+03  0.10574949320E+03  0.24797304758E+03  0.15294330000E+03 0.  0.
    8880022    1    1    2    0    0  0.93374413099E+02  0.13489715703E+03  0.20515783762E+03  0.30396943160E+03  0.15294330000E+03 0.  0.
<mgrwt>
<rscale>  0 0.22429373E+03</rscale>
<asrwt>0</asrwt>
<pdfrwt beam="1">  1        4 0.66373062E-01 0.22429373E+03</pdfrwt>
<pdfrwt beam="2">  1       -4 0.18541165E-01 0.22429373E+03</pdfrwt>
<totfact> 0.99803972E+01</totfact>
</mgrwt>
</event>
<event>
 4    1  0.8742165E-009  0.2784135E+03  0.7818608E-02  0.1096559E+00
         -4   -1    0    0    0  501 -0.00000000000E+00  0.00000000000E+00  0.20513516240E+03  0.20513909368E+03  0.12700000000E+01 0. -1.
          4   -1    0    0  501    0  0.00000000000E+00 -0.00000000000E+00 -0.10236670681E+04  0.10236678559E+04  0.12700000000E+01 0. -1.
    8880022    1    1    2    0    0 -0.72599586422E+02 -0.22102421337E+03  0.78739516164E+02  0.28933366079E+03  0.15294330000E+03 0.  0.
    8880022    1    1    2    0    0  0.72599586422E+02  0.22102421337E+03 -0.89727142182E+03  0.93947328875E+03  0.15294330000E+03 0.  0.
<mgrwt>
<rscale>  0 0.27841346E+03</rscale>
<asrwt>0</asrwt>
<pdfrwt beam="1">  1        4 0.15748760E+00 0.27841346E+03</pdfrwt>
<pdfrwt beam="2">  1       -4 0.31559619E-01 0.27841346E+03</pdfrwt>
<totfact> 0.48828381E+00</totfact>
</mgrwt>
</event>
<event>
 4    1  0.8742165E-009  0.2845748E+03  0.7818608E-02  0.1093216E+00
          4   -1    0    0  501    0  0.00000000000E+00  0.00000000000E+00  0.10287966760E+04  0.10287974598E+04  0.12700000000E+01 0.  1.
         -4   -1    0    0    0  501 -0.00000000000E+00 -0.00000000000E+00 -0.15470235815E+03  0.15470757097E+03  0.12700000000E+01 0.  1.
    8880022    1    1    2    0    0 -0.22685620431E+03 -0.78277933235E+02  0.85177605191E+03  0.89805638347E+03  0.15294330000E+03 0.  0.
    8880022    1    1    2    0    0  0.22685620431E+03  0.78277933235E+02  0.22318265906E+02  0.28544864735E+03  0.15294330000E+03 0.  0.
<mgrwt>
<rscale>  0 0.28457481E+03</rscale>
<asrwt>0</asrwt>
<pdfrwt beam="1">  1        4 0.15827687E+00 0.28457481E+03</pdfrwt>
<pdfrwt beam="2">  1       -4 0.23800824E-01 0.28457481E+03</pdfrwt>
<totfact> 0.82348296E+00</totfact>
</mgrwt>
</event>
<event>
 4    1  0.8742165E-009  0.1912231E+03  0.7818608E-02  0.1157363E+00
          4   -1    0    0  501    0  0.00000000000E+00  0.00000000000E+00  0.99842145732E+03  0.99842226505E+03  0.12700000000E+01 0.  1.
         -4   -1    0    0    0  501 -0.00000000000E+00 -0.00000000000E+00 -0.63127444158E+02  0.63140217816E+02  0.12700000000E+01 0.  1.
    8880022    1    1    2    0    0 -0.34923044505E+02 -0.10933898179E+03  0.81159369540E+03  0.83381689321E+03  0.15294330000E+03 0.  0.
    8880022    1    1    2    0    0  0.34923044505E+02  0.10933898179E+03  0.12370031777E+03  0.22774558965E+03  0.15294330000E+03 0.  0.
<mgrwt>
<rscale>  0 0.19122313E+03</rscale>
<asrwt>0</asrwt>
<pdfrwt beam="1">  1        4 0.15360434E+00 0.19122313E+03</pdfrwt>
<pdfrwt beam="2">  1       -4 0.97129593E-02 0.19122313E+03</pdfrwt>
<totfact> 0.42094272E+01</totfact>
</mgrwt>
</event>
<event>
 4    1  0.8742165E-009  0.1888580E+03  0.7818608E-02  0.1159495E+00
         -4   -1    0    0    0  501 -0.00000000000E+00  0.00000000000E+00  0.96770615283E+03  0.96770698619E+03  0.12700000000E+01 0.  1.
          4   -1    0    0  501    0  0.00000000000E+00 -0.00000000000E+00 -0.62571225438E+02  0.62584112623E+02  0.12700000000E+01 0.  1.
    8880022    1    1    2    0    0 -0.32558365672E+01 -0.11074791825E+03  0.78283079300E+03  0.80528964066E+03  0.15294330000E+03 0.  0.
    8880022    1    1    2    0    0  0.32558365672E+01  0.11074791825E+03  0.12230413439E+03  0.22500145816E+03  0.15294330000E+03 0.  0.
<mgrwt>
<rscale>  0 0.18885803E+03</rscale>
<asrwt>0</asrwt>
<pdfrwt beam="1">  1        4 0.96273976E-02 0.18885803E+03</pdfrwt>
<pdfrwt beam="2">  1       -4 0.14887893E+00 0.18885803E+03</pdfrwt>
<totfact> 0.46245194E+01</totfact>
</mgrwt>
</event>
<event>
 4    1  0.8742165E-009  0.1594431E+03  0.7818608E-02  0.1189327E+00
          4   -1    0    0  501    0  0.00000000000E+00  0.00000000000E+00  0.83455104063E+02  0.83464766783E+02  0.12700000000E+01 0. -1.
         -4   -1    0    0    0  501 -0.00000000000E+00 -0.00000000000E+00 -0.30604969620E+03  0.30605233122E+03  0.12700000000E+01 0. -1.
    8880022    1    1    2    0    0  0.16566959555E+02  0.41904535608E+02 -0.12474021959E+03  0.20244068181E+03  0.15294330000E+03 0.  0.
    8880022    1    1    2    0    0 -0.16566959555E+02 -0.41904535608E+02 -0.97854372549E+02  0.18707641619E+03  0.15294330000E+03 0.  0.
<mgrwt>
<rscale>  0 0.15944312E+03</rscale>
<asrwt>0</asrwt>
<pdfrwt beam="1">  1        4 0.12840193E-01 0.15944312E+03</pdfrwt>
<pdfrwt beam="2">  1       -4 0.47085514E-01 0.15944312E+03</pdfrwt>
<totfact> 0.37126852E+02</totfact>
</mgrwt>
</event>
<event>
 4    1  0.8742165E-009  0.1703566E+03  0.7818608E-02  0.1177477E+00
          4   -1    0    0  501    0  0.00000000000E+00  0.00000000000E+00  0.62051180364E+02  0.62064175533E+02  0.12700000000E+01 0.  1.
         -4   -1    0    0    0  501 -0.00000000000E+00 -0.00000000000E+00 -0.46843131585E+03  0.46843303745E+03  0.12700000000E+01 0.  1.
    8880022    1    1    2    0    0  0.35733073153E+01  0.74946260313E+02 -0.19227173932E+03  0.25688477031E+03  0.15294330000E+03 0.  1.
    8880022    1    1    2    0    0 -0.35733073153E+01 -0.74946260313E+02 -0.21410839617E+03  0.27361244267E+03  0.15294330000E+03 0.  1.
<mgrwt>
<rscale>  0 0.17035658E+03</rscale>
<asrwt>0</asrwt>
<pdfrwt beam="1">  1        4 0.95474678E-02 0.17035658E+03</pdfrwt>
<pdfrwt beam="2">  1       -4 0.72067486E-01 0.17035658E+03</pdfrwt>
<totfact> 0.25467633E+02</totfact>
</mgrwt>
</event>
<event>
 4    1  0.8742165E-009  0.1600219E+03  0.7818608E-02  0.1188672E+00
          4   -1    0    0  501    0  0.00000000000E+00  0.00000000000E+00  0.18405296399E+03  0.18405734556E+03  0.12700000000E+01 0.  1.
         -4   -1    0    0    0  501 -0.00000000000E+00 -0.00000000000E+00 -0.14254505927E+03  0.14255071667E+03  0.12700000000E+01 0.  1.
    8880022    1    1    2    0    0 -0.45724574501E+02 -0.11162676528E+02 -0.45607725016E+01  0.16008683806E+03  0.15294330000E+03 0.  1.
    8880022    1    1    2    0    0  0.45724574501E+02  0.11162676528E+02  0.46068677227E+02  0.16652122416E+03  0.15294330000E+03 0.  1.
<mgrwt>
<rscale>  0 0.16002186E+03</rscale>
<asrwt>0</asrwt>
<pdfrwt beam="1">  1        4 0.28316613E-01 0.16002186E+03</pdfrwt>
<pdfrwt beam="2">  1       -4 0.21930781E-01 0.16002186E+03</pdfrwt>
<totfact> 0.38766366E+02</totfact>
</mgrwt>
</event>
<event>
 4    1  0.8742165E-009  0.1641340E+03  0.7818608E-02  0.1184107E+00
         -4   -1    0    0    0  501 -0.00000000000E+00  0.00000000000E+00  0.11643464634E+03  0.11644157233E+03  0.12700000000E+01 0. -1.
          4   -1    0    0  501    0  0.00000000000E+00 -0.00000000000E+00 -0.25580558646E+03  0.25580873903E+03  0.12700000000E+01 0. -1.
    8880022    1    1    2    0    0 -0.39942627994E+02  0.44191768759E+02 -0.12722325577E+03  0.20766736812E+03  0.15294330000E+03 0.  0.
    8880022    1    1    2    0    0  0.39942627994E+02 -0.44191768759E+02 -0.12147684353E+02  0.16458294324E+03  0.15294330000E+03 0.  0.
<mgrwt>
<rscale>  0 0.16413403E+03</rscale>
<asrwt>0</asrwt>
<pdfrwt beam="1">  1        4 0.39355481E-01 0.16413403E+03</pdfrwt>
<pdfrwt beam="2">  1       -4 0.17913798E-01 0.16413403E+03</pdfrwt>
<totfact> 0.29758818E+02</totfact>
</mgrwt>
</event>
<event>
 4    1  0.8742165E-009  0.2165887E+03  0.7818608E-02  0.1136452E+00
          4   -1    0    0  501    0  0.00000000000E+00  0.00000000000E+00  0.11643547021E+03  0.11644239616E+03  0.12700000000E+01 0. -1.
         -4   -1    0    0    0  501 -0.00000000000E+00 -0.00000000000E+00 -0.40356590668E+03  0.40356790499E+03  0.12700000000E+01 0. -1.
    8880022    1    1    2    0    0  0.14957923968E+03  0.33838543207E+02 -0.15436382875E+03  0.26596774351E+03  0.15294330000E+03 0.  0.
    8880022    1    1    2    0    0 -0.14957923968E+03 -0.33838543207E+02 -0.13276660772E+03  0.25404255764E+03  0.15294330000E+03 0.  0.
<mgrwt>
<rscale>  0 0.21658866E+03</rscale>
<asrwt>0</asrwt>
<pdfrwt beam="1">  1        4 0.17913836E-01 0.21658866E+03</pdfrwt>
<pdfrwt beam="2">  1       -4 0.62087748E-01 0.21658866E+03</pdfrwt>
<totfact> 0.12195974E+02</totfact>
</mgrwt>
</event>
<event>
 4    1  0.8742165E-009  0.6565129E+03  0.7818608E-02  0.9794634E-01
          4   -1    0    0  501    0  0.00000000000E+00  0.00000000000E+00  0.93586605670E+03  0.93586691841E+03  0.12700000000E+01 0.  1.
         -4   -1    0    0    0  501 -0.00000000000E+00 -0.00000000000E+00 -0.47657353112E+03  0.47657522330E+03  0.12700000000E+01 0.  1.
    8880022    1    1    2    0    0  0.63041554092E+03 -0.10096422235E+03  0.10012622230E+03  0.66410424019E+03  0.15294330000E+03 0.  0.
    8880022    1    1    2    0    0 -0.63041554092E+03  0.10096422235E+03  0.35916630328E+03  0.74833790153E+03  0.15294330000E+03 0.  0.
<mgrwt>
<rscale>  0 0.65651290E+03</rscale>
<asrwt>0</asrwt>
<pdfrwt beam="1">  1        4 0.14397959E+00 0.65651290E+03</pdfrwt>
<pdfrwt beam="2">  1       -4 0.73319202E-01 0.65651290E+03</pdfrwt>
<totfact> 0.10995687E+00</totfact>
</mgrwt>
</event>
<event>
 4    1  0.8742165E-009  0.1581732E+03  0.7818608E-02  0.1190775E+00
         -4   -1    0    0    0  501 -0.00000000000E+00  0.00000000000E+00  0.24662573979E+03  0.24662900970E+03  0.12700000000E+01 0. -1.
          4   -1    0    0  501    0  0.00000000000E+00 -0.00000000000E+00 -0.13561780809E+03  0.13562375445E+03  0.12700000000E+01 0. -1.
    8880022    1    1    2    0    0  0.13522362313E+02  0.38003512381E+02 -0.40445163111E+02  0.16326232104E+03  0.15294330000E+03 0. -1.
    8880022    1    1    2    0    0 -0.13522362313E+02 -0.38003512381E+02  0.15145309481E+03  0.21899044312E+03  0.15294330000E+03 0. -1.
<mgrwt>
<rscale>  0 0.15817324E+03</rscale>
<asrwt>0</asrwt>
<pdfrwt beam="1">  1        4 0.20864987E-01 0.15817324E+03</pdfrwt>
<pdfrwt beam="2">  1       -4 0.37943130E-01 0.15817324E+03</pdfrwt>
<totfact> 0.24153270E+02</totfact>
</mgrwt>
</event>
<event>
 4    1  0.8742165E-009  0.1856997E+03  0.7818608E-02  0.1162398E+00
          4   -1    0    0  501    0  0.00000000000E+00  0.00000000000E+00  0.60927403950E+02  0.60940638757E+02  0.12700000000E+01 0.  1.
         -4   -1    0    0    0  501 -0.00000000000E+00 -0.00000000000E+00 -0.81283773608E+03  0.81283872822E+03  0.12700000000E+01 0.  1.
    8880022    1    1    2    0    0  0.93915333629E+02  0.47672222577E+02 -0.13516113462E+03  0.22968002966E+03  0.15294330000E+03 0.  0.
    8880022    1    1    2    0    0 -0.93915333629E+02 -0.47672222577E+02 -0.61674919750E+03  0.64409933732E+03  0.15294330000E+03 0.  0.
<mgrwt>
<rscale>  0 0.18569971E+03</rscale>
<asrwt>0</asrwt>
<pdfrwt beam="1">  1        4 0.93745417E-02 0.18569971E+03</pdfrwt>
<pdfrwt beam="2">  1       -4 0.12505305E+00 0.18569971E+03</pdfrwt>
<totfact> 0.74702988E+01</totfact>
</mgrwt>
</event>
<event>
 4    1  0.8742165E-009  0.1913434E+03  0.7818608E-02  0.1157255E+00
          4   -1    0    0  501    0  0.00000000000E+00  0.00000000000E+00  0.11082951403E+03  0.11083679029E+03  0.12700000000E+01 0.  1.
         -4   -1    0    0    0  501 -0.00000000000E+00 -0.00000000000E+00 -0.33540530503E+03  0.33540770942E+03  0.12700000000E+01 0.  1.
    8880022    1    1    2    0    0 -0.11365679558E+03 -0.17400945752E+02 -0.13973763402E+03  0.23693653047E+03  0.15294330000E+03 0.  1.
    8880022    1    1    2    0    0  0.11365679558E+03  0.17400945752E+02 -0.84838156969E+02  0.20930796924E+03  0.15294330000E+03 0.  1.
<mgrwt>
<rscale>  0 0.19134344E+03</rscale>
<asrwt>0</asrwt>
<pdfrwt beam="1">  1        4 0.17051439E-01 0.19134344E+03</pdfrwt>
<pdfrwt beam="2">  1       -4 0.51601560E-01 0.19134344E+03</pdfrwt>
<totfact> 0.19292520E+02</totfact>
</mgrwt>
</event>
<event>
 4    1  0.8742165E-009  0.2131214E+03  0.7818608E-02  0.1139118E+00
         -4   -1    0    0    0  501 -0.00000000000E+00  0.00000000000E+00  0.28340115906E+03  0.28340400466E+03  0.12700000000E+01 0. -1.
          4   -1    0    0  501    0  0.00000000000E+00 -0.00000000000E+00 -0.18823136195E+03  0.18823564626E+03  0.12700000000E+01 0. -1.
    8880022    1    1    2    0    0 -0.76848563175E+02 -0.12697781580E+03  0.13848246403E+03  0.25416158881E+03  0.15294330000E+03 0.  0.
    8880022    1    1    2    0    0  0.76848563175E+02  0.12697781580E+03 -0.43312666923E+02  0.21747806211E+03  0.15294330000E+03 0.  0.
<mgrwt>
<rscale>  0 0.21312137E+03</rscale>
<asrwt>0</asrwt>
<pdfrwt beam="1">  1        4 0.28959220E-01 0.21312137E+03</pdfrwt>
<pdfrwt beam="2">  1       -4 0.43600727E-01 0.21312137E+03</pdfrwt>
<totfact> 0.10434788E+02</totfact>
</mgrwt>
</event>
<event>
 4    1  0.8742165E-009  0.1735792E+03  0.7818608E-02  0.1174166E+00
          4   -1    0    0  501    0  0.00000000000E+00  0.00000000000E+00  0.22816700060E+03  0.22817053505E+03  0.12700000000E+01 0.  1.
         -4   -1    0    0    0  501 -0.00000000000E+00 -0.00000000000E+00 -0.14078005474E+03  0.14078578306E+03  0.12700000000E+01 0.  1.
    8880022    1    1    2    0    0  0.50191470379E+01  0.81932208909E+02 -0.22609271986E+01  0.17359390398E+03  0.15294330000E+03 0.  0.
    8880022    1    1    2    0    0 -0.50191470379E+01 -0.81932208909E+02  0.89647873060E+02  0.19536241413E+03  0.15294330000E+03 0.  0.
<mgrwt>
<rscale>  0 0.17357918E+03</rscale>
<asrwt>0</asrwt>
<pdfrwt beam="1">  1        4 0.35103328E-01 0.17357918E+03</pdfrwt>
<pdfrwt beam="2">  1       -4 0.21659183E-01 0.17357918E+03</pdfrwt>
<totfact> 0.26665801E+02</totfact>
</mgrwt>
</event>
<event>
 4    1  0.8742165E-009  0.2924555E+03  0.7818608E-02  0.1089074E+00
         -4   -1    0    0    0  501 -0.00000000000E+00  0.00000000000E+00  0.18800389504E+03  0.18800818453E+03  0.12700000000E+01 0.  1.
          4   -1    0    0  501    0  0.00000000000E+00 -0.00000000000E+00 -0.59066335129E+03  0.59066471662E+03  0.12700000000E+01 0.  1.
    8880022    1    1    2    0    0  0.21373428254E+03  0.12828179002E+03 -0.38796732507E+03  0.48584859732E+03  0.15294330000E+03 0.  0.
    8880022    1    1    2    0    0 -0.21373428254E+03 -0.12828179002E+03 -0.14692131187E+02  0.29282430384E+03  0.15294330000E+03 0.  0.
<mgrwt>
<rscale>  0 0.29245549E+03</rscale>
<asrwt>0</asrwt>
<pdfrwt beam="1">  1        4 0.90871719E-01 0.29245549E+03</pdfrwt>
<pdfrwt beam="2">  1       -4 0.28924111E-01 0.29245549E+03</pdfrwt>
<totfact> 0.22352231E+01</totfact>
</mgrwt>
</event>
<event>
 4    1  0.8742165E-009  0.2441353E+03  0.7818608E-02  0.1117068E+00
         -4   -1    0    0    0  501 -0.00000000000E+00  0.00000000000E+00  0.17909851448E+03  0.17910301725E+03  0.12700000000E+01 0.  1.
          4   -1    0    0  501    0  0.00000000000E+00 -0.00000000000E+00 -0.33771905506E+03  0.33772144298E+03  0.12700000000E+01 0.  1.
    8880022    1    1    2    0    0 -0.18894817706E+03 -0.22560304837E+02 -0.48057558031E+02  0.24882034255E+03  0.15294330000E+03 0.  0.
    8880022    1    1    2    0    0  0.18894817706E+03  0.22560304837E+02 -0.11056298255E+03  0.26800411768E+03  0.15294330000E+03 0.  0.
<mgrwt>
<rscale>  0 0.24413528E+03</rscale>
<asrwt>0</asrwt>
<pdfrwt beam="1">  1        4 0.51957308E-01 0.24413528E+03</pdfrwt>
<pdfrwt beam="2">  1       -4 0.27554148E-01 0.24413528E+03</pdfrwt>
<totfact> 0.81531066E+01</totfact>
</mgrwt>
</event>
<event>
 4    1  0.8742165E-009  0.2402518E+03  0.7818608E-02  0.1119625E+00
          4   -1    0    0  501    0  0.00000000000E+00  0.00000000000E+00  0.77001997805E+03  0.77002102536E+03  0.12700000000E+01 0. -1.
         -4   -1    0    0    0  501 -0.00000000000E+00 -0.00000000000E+00 -0.94121894118E+02  0.94130461873E+02  0.12700000000E+01 0. -1.
    8880022    1    1    2    0    0  0.42706489209E+02 -0.18029260282E+03  0.14297392554E+03  0.27957550546E+03  0.15294330000E+03 0.  0.
    8880022    1    1    2    0    0 -0.42706489209E+02  0.18029260282E+03  0.53292415839E+03  0.58457598177E+03  0.15294330000E+03 0.  0.
<mgrwt>
<rscale>  0 0.24025178E+03</rscale>
<asrwt>0</asrwt>
<pdfrwt beam="1">  1        4 0.11846535E+00 0.24025178E+03</pdfrwt>
<pdfrwt beam="2">  1       -4 0.14481031E-01 0.24025178E+03</pdfrwt>
<totfact> 0.41553649E+01</totfact>
</mgrwt>
</event>
<event>
 4    1  0.8742165E-009  0.2384849E+03  0.7818608E-02  0.1120806E+00
         -4   -1    0    0    0  501 -0.00000000000E+00  0.00000000000E+00  0.96430958062E+02  0.96439320677E+02  0.12700000000E+01 0. -1.
          4   -1    0    0  501    0  0.00000000000E+00 -0.00000000000E+00 -0.85152856516E+03  0.85152951222E+03  0.12700000000E+01 0. -1.
    8880022    1    1    2    0    0  0.11670110910E+02 -0.18261216287E+03 -0.64034297417E+03  0.68331118175E+03  0.15294330000E+03 0.  0.
    8880022    1    1    2    0    0 -0.11670110910E+02  0.18261216287E+03 -0.11475463292E+03  0.26465765114E+03  0.15294330000E+03 0.  0.
<mgrwt>
<rscale>  0 0.23848490E+03</rscale>
<asrwt>0</asrwt>
<pdfrwt beam="1">  1        4 0.13100511E+00 0.23848490E+03</pdfrwt>
<pdfrwt beam="2">  1       -4 0.14836249E-01 0.23848490E+03</pdfrwt>
<totfact> 0.31051965E+01</totfact>
</mgrwt>
</event>
<event>
 4    1  0.8742165E-009  0.2665587E+03  0.7818608E-02  0.1103265E+00
         -4   -1    0    0    0  501 -0.00000000000E+00  0.00000000000E+00  0.27525881284E+03  0.27526174261E+03  0.12700000000E+01 0. -1.
          4   -1    0    0  501    0  0.00000000000E+00 -0.00000000000E+00 -0.10347727038E+04  0.10347734831E+04  0.12700000000E+01 0. -1.
    8880022    1    1    2    0    0 -0.19707234592E+03 -0.93938100372E+02 -0.94722413716E+03  0.98401580031E+03  0.15294330000E+03 0.  0.
    8880022    1    1    2    0    0  0.19707234592E+03  0.93938100372E+02  0.18771024619E+03  0.32601942545E+03  0.15294330000E+03 0.  0.
<mgrwt>
<rscale>  0 0.26655868E+03</rscale>
<asrwt>0</asrwt>
<pdfrwt beam="1">  1        4 0.15919608E+00 0.26655868E+03</pdfrwt>
<pdfrwt beam="2">  1       -4 0.42347795E-01 0.26655868E+03</pdfrwt>
<totfact> 0.26534703E+00</totfact>
</mgrwt>
</event>
<event>
 4    1  0.8742165E-009  0.4240753E+03  0.7818608E-02  0.1035748E+00
          4   -1    0    0  501    0  0.00000000000E+00  0.00000000000E+00  0.70234695870E+03  0.70234810692E+03  0.12700000000E+01 0.  1.
         -4   -1    0    0    0  501 -0.00000000000E+00 -0.00000000000E+00 -0.26159180588E+03  0.26159488872E+03  0.12700000000E+01 0.  1.
    8880022    1    1    2    0    0 -0.10039400615E+03 -0.38258232199E+03  0.29051155635E+03  0.51403969395E+03  0.15294330000E+03 0.  0.
    8880022    1    1    2    0    0  0.10039400615E+03  0.38258232199E+03  0.15024359647E+03  0.44990330168E+03  0.15294330000E+03 0.  0.
<mgrwt>
<rscale>  0 0.42407528E+03</rscale>
<asrwt>0</asrwt>
<pdfrwt beam="1">  1        4 0.10805370E+00 0.42407528E+03</pdfrwt>
<pdfrwt beam="2">  1       -4 0.40245219E-01 0.42407528E+03</pdfrwt>
<totfact> 0.79772797E+00</totfact>
</mgrwt>
</event>
<event>
 4    1  0.8742165E-009  0.3989245E+03  0.7818608E-02  0.1044153E+00
          4   -1    0    0  501    0  0.00000000000E+00  0.00000000000E+00  0.55049595743E+03  0.55049742238E+03  0.12700000000E+01 0. -1.
         -4   -1    0    0    0  501 -0.00000000000E+00 -0.00000000000E+00 -0.29380168708E+03  0.29380443195E+03  0.12700000000E+01 0. -1.
    8880022    1    1    2    0    0 -0.27426908824E+03 -0.24601942422E+03  0.74847159317E+02  0.40588525488E+03  0.15294330000E+03 0.  0.
    8880022    1    1    2    0    0  0.27426908824E+03  0.24601942422E+03  0.18184711103E+03  0.43841659944E+03  0.15294330000E+03 0.  0.
<mgrwt>
<rscale>  0 0.39892448E+03</rscale>
<asrwt>0</asrwt>
<pdfrwt beam="1">  1        4 0.84692009E-01 0.39892448E+03</pdfrwt>
<pdfrwt beam="2">  1       -4 0.45200584E-01 0.39892448E+03</pdfrwt>
<totfact> 0.11127224E+01</totfact>
</mgrwt>
</event>
<event>
 4    1  0.8742165E-009  0.1540779E+03  0.7818608E-02  0.1195550E+00
         -4   -1    0    0    0  501 -0.00000000000E+00  0.00000000000E+00  0.20612166003E+03  0.20612557249E+03  0.12700000000E+01 0.  1.
          4   -1    0    0  501    0  0.00000000000E+00 -0.00000000000E+00 -0.11823057835E+03  0.11823739915E+03  0.12700000000E+01 0.  1.
    8880022    1    1    2    0    0  0.18632130499E+02 -0.10850151042E+01  0.17836380809E+02  0.15510681171E+03  0.15294330000E+03 0. -1.
    8880022    1    1    2    0    0 -0.18632130499E+02  0.10850151042E+01  0.70054700872E+02  0.16925615993E+03  0.15294330000E+03 0. -1.
<mgrwt>
<rscale>  0 0.15407786E+03</rscale>
<asrwt>0</asrwt>
<pdfrwt beam="1">  1        4 0.18190146E-01 0.15407786E+03</pdfrwt>
<pdfrwt beam="2">  1       -4 0.31711850E-01 0.15407786E+03</pdfrwt>
<totfact> 0.43527459E+02</totfact>
</mgrwt>
</event>
<event>
 4    1  0.8742165E-009  0.2199578E+03  0.7818608E-02  0.1133915E+00
          4   -1    0    0  501    0  0.00000000000E+00  0.00000000000E+00  0.20018018755E+03  0.20018421613E+03  0.12700000000E+01 0.  1.
         -4   -1    0    0    0  501 -0.00000000000E+00 -0.00000000000E+00 -0.33118849048E+03  0.33119092549E+03  0.12700000000E+01 0.  1.
    8880022    1    1    2    0    0 -0.59088446016E+02  0.14662309147E+03 -0.20362464824E+03  0.29974059751E+03  0.15294330000E+03 0.  0.
    8880022    1    1    2    0    0  0.59088446016E+02 -0.14662309147E+03  0.72616345318E+02  0.23163454412E+03  0.15294330000E+03 0.  0.
<mgrwt>
<rscale>  0 0.21995779E+03</rscale>
<asrwt>0</asrwt>
<pdfrwt beam="1">  1        4 0.30797449E-01 0.21995779E+03</pdfrwt>
<pdfrwt beam="2">  1       -4 0.50952573E-01 0.21995779E+03</pdfrwt>
<totfact> 0.67828775E+01</totfact>
</mgrwt>
</event>
<event>
 4    1  0.8742165E-009  0.2039843E+03  0.7818608E-02  0.1146420E+00
          4   -1    0    0  501    0  0.00000000000E+00  0.00000000000E+00  0.39810904532E+03  0.39811107101E+03  0.12700000000E+01 0. -1.
         -4   -1    0    0    0  501 -0.00000000000E+00 -0.00000000000E+00 -0.11656951297E+03  0.11657643095E+03  0.12700000000E+01 0. -1.
    8880022    1    1    2    0    0 -0.50036198593E+02  0.12535671794E+03  0.22353241930E+03  0.30261580163E+03  0.15294330000E+03 0. -1.
    8880022    1    1    2    0    0  0.50036198593E+02 -0.12535671794E+03  0.58007113049E+02  0.21207170033E+03  0.15294330000E+03 0. -1.
<mgrwt>
<rscale>  0 0.20398427E+03</rscale>
<asrwt>0</asrwt>
<pdfrwt beam="1">  1        4 0.61248235E-01 0.20398427E+03</pdfrwt>
<pdfrwt beam="2">  1       -4 0.17934459E-01 0.20398427E+03</pdfrwt>
<totfact> 0.12427313E+02</totfact>
</mgrwt>
</event>
<event>
 4    1  0.8742165E-009  0.1807424E+03  0.7818608E-02  0.1167087E+00
          4   -1    0    0  501    0  0.00000000000E+00  0.00000000000E+00  0.60071096244E+02  0.60084519670E+02  0.12700000000E+01 0. -1.
         -4   -1    0    0    0  501 -0.00000000000E+00 -0.00000000000E+00 -0.55136660662E+03  0.55136806926E+03  0.12700000000E+01 0. -1.
    8880022    1    1    2    0    0  0.63271748369E+02 -0.72614280578E+02 -0.20970119262E+03  0.27684362208E+03  0.15294330000E+03 0.  0.
    8880022    1    1    2    0    0 -0.63271748369E+02  0.72614280578E+02 -0.28159431776E+03  0.33460896685E+03  0.15294330000E+03 0.  0.
<mgrwt>
<rscale>  0 0.18074236E+03</rscale>
<asrwt>0</asrwt>
<pdfrwt beam="1">  1        4 0.92428526E-02 0.18074236E+03</pdfrwt>
<pdfrwt beam="2">  1       -4 0.84826773E-01 0.18074236E+03</pdfrwt>
<totfact> 0.18925891E+02</totfact>
</mgrwt>
</event>
<event>
 4    1  0.8742165E-009  0.2211806E+03  0.7818608E-02  0.1133006E+00
          4   -1    0    0  501    0  0.00000000000E+00  0.00000000000E+00  0.33582537079E+03  0.33582777217E+03  0.12700000000E+01 0. -1.
         -4   -1    0    0    0  501 -0.00000000000E+00 -0.00000000000E+00 -0.14964634001E+03  0.14965172896E+03  0.12700000000E+01 0. -1.
    8880022    1    1    2    0    0  0.88828335016E+02  0.13281088883E+03  0.53511174216E+02  0.22756164895E+03  0.15294330000E+03 0.  0.
    8880022    1    1    2    0    0 -0.88828335016E+02 -0.13281088883E+03  0.13266785655E+03  0.25791785218E+03  0.15294330000E+03 0.  0.
<mgrwt>
<rscale>  0 0.22118060E+03</rscale>
<asrwt>0</asrwt>
<pdfrwt beam="1">  1        4 0.51666040E-01 0.22118060E+03</pdfrwt>
<pdfrwt beam="2">  1       -4 0.23023113E-01 0.22118060E+03</pdfrwt>
<totfact> 0.11395240E+02</totfact>
</mgrwt>
</event>
<event>
 4    1  0.8742165E-009  0.1891895E+03  0.7818608E-02  0.1159194E+00
         -4   -1    0    0    0  501 -0.00000000000E+00  0.00000000000E+00  0.62125555588E+02  0.62138535203E+02  0.12700000000E+01 0. -1.
          4   -1    0    0  501    0  0.00000000000E+00 -0.00000000000E+00 -0.59069745037E+03  0.59069881562E+03  0.12700000000E+01 0. -1.
    8880022    1    1    2    0    0  0.30844119751E+02 -0.10700311467E+03 -0.31566777597E+03  0.36802014085E+03  0.15294330000E+03 0.  1.
    8880022    1    1    2    0    0 -0.30844119751E+02  0.10700311467E+03 -0.21290411881E+03  0.28481720997E+03  0.15294330000E+03 0.  1.
<mgrwt>
<rscale>  0 0.18918953E+03</rscale>
<asrwt>0</asrwt>
<pdfrwt beam="1">  1        4 0.90877631E-01 0.18918953E+03</pdfrwt>
<pdfrwt beam="2">  1       -4 0.95588816E-02 0.18918953E+03</pdfrwt>
<totfact> 0.15404838E+02</totfact>
</mgrwt>
</event>
<event>
 4    1  0.8742165E-009  0.2626149E+03  0.7818608E-02  0.1105582E+00
          4   -1    0    0  501    0  0.00000000000E+00  0.00000000000E+00  0.69097717164E+03  0.69097833876E+03  0.12700000000E+01 0. -1.
         -4   -1    0    0    0  501 -0.00000000000E+00 -0.00000000000E+00 -0.10083614553E+03  0.10084414284E+03  0.12700000000E+01 0. -1.
    8880022    1    1    2    0    0  0.14769937232E+03 -0.15414222454E+03  0.33510599544E+03  0.42574946995E+03  0.15294330000E+03 0.  0.
    8880022    1    1    2    0    0 -0.14769937232E+03  0.15414222454E+03  0.25503503068E+03  0.36607301165E+03  0.15294330000E+03 0.  0.
<mgrwt>
<rscale>  0 0.26261489E+03</rscale>
<asrwt>0</asrwt>
<pdfrwt beam="1">  1        4 0.10630489E+00 0.26261489E+03</pdfrwt>
<pdfrwt beam="2">  1       -4 0.15513958E-01 0.26261489E+03</pdfrwt>
<totfact> 0.48147407E+01</totfact>
</mgrwt>
</event>
<event>
 4    1  0.8742165E-009  0.1582779E+03  0.7818608E-02  0.1190655E+00
         -4   -1    0    0    0  501 -0.00000000000E+00  0.00000000000E+00  0.55577661845E+03  0.55577806948E+03  0.12700000000E+01 0. -1.
          4   -1    0    0  501    0  0.00000000000E+00 -0.00000000000E+00 -0.45415501012E+02  0.45433254695E+02  0.12700000000E+01 0. -1.
    8880022    1    1    2    0    0 -0.30143431432E+02 -0.27415816968E+02  0.28158171401E+03  0.32301728771E+03  0.15294330000E+03 0.  0.
    8880022    1    1    2    0    0  0.30143431432E+02  0.27415816968E+02  0.22877940343E+03  0.27819403647E+03  0.15294330000E+03 0.  0.
<mgrwt>
<rscale>  0 0.15827794E+03</rscale>
<asrwt>0</asrwt>
<pdfrwt beam="1">  1        4 0.69884774E-02 0.15827794E+03</pdfrwt>
<pdfrwt beam="2">  1       -4 0.85505573E-01 0.15827794E+03</pdfrwt>
<totfact> 0.28985060E+02</totfact>
</mgrwt>
</event>
<event>
 4    1  0.8742165E-009  0.1984038E+03  0.7818608E-02  0.1151093E+00
         -4   -1    0    0    0  501 -0.00000000000E+00  0.00000000000E+00  0.61660338304E+02  0.61673415827E+02  0.12700000000E+01 0.  1.
          4   -1    0    0  501    0  0.00000000000E+00 -0.00000000000E+00 -0.65190594737E+03  0.65190718444E+03  0.12700000000E+01 0.  1.
    8880022    1    1    2    0    0  0.95312767292E+02  0.82993381732E+02 -0.34662817953E+03  0.39939350630E+03  0.15294330000E+03 0. -1.
    8880022    1    1    2    0    0 -0.95312767292E+02 -0.82993381732E+02 -0.24361742954E+03  0.31418709396E+03  0.15294330000E+03 0. -1.
<mgrwt>
<rscale>  0 0.19840383E+03</rscale>
<asrwt>0</asrwt>
<pdfrwt beam="1">  1        4 0.10029432E+00 0.19840383E+03</pdfrwt>
<pdfrwt beam="2">  1       -4 0.94873075E-02 0.19840383E+03</pdfrwt>
<totfact> 0.12512509E+02</totfact>
</mgrwt>
</event>
<event>
 4    1  0.8742165E-009  0.3997761E+03  0.7818608E-02  0.1043857E+00
          4   -1    0    0  501    0  0.00000000000E+00  0.00000000000E+00  0.17929046563E+03  0.17929496358E+03  0.12700000000E+01 0.  1.
         -4   -1    0    0    0  501 -0.00000000000E+00 -0.00000000000E+00 -0.14832079456E+04  0.14832084893E+04  0.12700000000E+01 0.  1.
    8880022    1    1    2    0    0  0.33542827480E+03  0.15465163963E+03 -0.11770372523E+04  0.12430758640E+04  0.15294330000E+03 0.  0.
    8880022    1    1    2    0    0 -0.33542827480E+03 -0.15465163963E+03 -0.12688022762E+03  0.41942758893E+03  0.15294330000E+03 0.  0.
<mgrwt>
<rscale>  0 0.39977608E+03</rscale>
<asrwt>0</asrwt>
<pdfrwt beam="1">  1        4 0.27583537E-01 0.39977608E+03</pdfrwt>
<pdfrwt beam="2">  1       -4 0.22818622E+00 0.39977608E+03</pdfrwt>
<totfact> 0.21881283E+00</totfact>
</mgrwt>
</event>
<event>
 4    1  0.8742165E-009  0.1636982E+03  0.7818608E-02  0.1184584E+00
         -4   -1    0    0    0  501 -0.00000000000E+00  0.00000000000E+00  0.16439985712E+03  0.16440476247E+03  0.12700000000E+01 0. -1.
          4   -1    0    0  501    0  0.00000000000E+00 -0.00000000000E+00 -0.16376335514E+03  0.16376827955E+03  0.12700000000E+01 0. -1.
    8880022    1    1    2    0    0  0.58226229463E+02 -0.38930829334E+01 -0.10959278207E+02  0.16406464789E+03  0.15294330000E+03 0.  1.
    8880022    1    1    2    0    0 -0.58226229463E+02  0.38930829334E+01  0.11595780183E+02  0.16410839413E+03  0.15294330000E+03 0.  1.
<mgrwt>
<rscale>  0 0.16369821E+03</rscale>
<asrwt>0</asrwt>
<pdfrwt beam="1">  1        4 0.25195119E-01 0.16369821E+03</pdfrwt>
<pdfrwt beam="2">  1       -4 0.25293042E-01 0.16369821E+03</pdfrwt>
<totfact> 0.37234921E+02</totfact>
</mgrwt>
</event>
<event>
 4    1  0.8742165E-009  0.3699207E+03  0.7818608E-02  0.1054723E+00
         -4   -1    0    0    0  501 -0.00000000000E+00  0.00000000000E+00  0.59884695281E+03  0.59884829948E+03  0.12700000000E+01 0. -1.
          4   -1    0    0  501    0  0.00000000000E+00 -0.00000000000E+00 -0.44340608177E+03  0.44340790053E+03  0.12700000000E+01 0. -1.
    8880022    1    1    2    0    0 -0.29484492736E+03 -0.16283774802E+03 -0.28507463538E+03  0.46702126732E+03  0.15294330000E+03 0.  0.
    8880022    1    1    2    0    0  0.29484492736E+03  0.16283774802E+03  0.44051550642E+03  0.57523493269E+03  0.15294330000E+03 0.  0.
<mgrwt>
<rscale>  0 0.36992069E+03</rscale>
<asrwt>0</asrwt>
<pdfrwt beam="1">  1        4 0.68216564E-01 0.36992069E+03</pdfrwt>
<pdfrwt beam="2">  1       -4 0.92130543E-01 0.36992069E+03</pdfrwt>
<totfact> 0.38210747E+00</totfact>
</mgrwt>
</event>
<event>
 4    1  0.8742165E-009  0.1926543E+03  0.7818608E-02  0.1156089E+00
          4   -1    0    0  501    0  0.00000000000E+00  0.00000000000E+00  0.95302511412E+03  0.95302596032E+03  0.12700000000E+01 0. -1.
         -4   -1    0    0    0  501 -0.00000000000E+00 -0.00000000000E+00 -0.57573399703E+02  0.57587405336E+02  0.12700000000E+01 0. -1.
    8880022    1    1    2    0    0 -0.10876693203E+03 -0.43517710474E+02  0.16025593898E+03  0.25059460414E+03  0.15294330000E+03 0.  0.
    8880022    1    1    2    0    0  0.10876693203E+03  0.43517710474E+02  0.73519577543E+03  0.76001876152E+03  0.15294330000E+03 0.  0.
<mgrwt>
<rscale>  0 0.19265433E+03</rscale>
<asrwt>0</asrwt>
<pdfrwt beam="1">  1        4 0.14662040E+00 0.19265433E+03</pdfrwt>
<pdfrwt beam="2">  1       -4 0.88585883E-02 0.19265433E+03</pdfrwt>
<totfact> 0.55470764E+01</totfact>
</mgrwt>
</event>
<event>
 4    1  0.8742165E-009  0.3304342E+03  0.7818608E-02  0.1070945E+00
          4   -1    0    0  501    0  0.00000000000E+00  0.00000000000E+00  0.50006562804E+03  0.50006724072E+03  0.12700000000E+01 0.  1.
         -4   -1    0    0    0  501 -0.00000000000E+00 -0.00000000000E+00 -0.25101975402E+03  0.25102296669E+03  0.12700000000E+01 0.  1.
    8880022    1    1    2    0    0 -0.22903788233E+03  0.18258347809E+03 -0.10976213813E+02  0.33061640658E+03  0.15294330000E+03 0.  0.
    8880022    1    1    2    0    0  0.22903788233E+03 -0.18258347809E+03  0.26002208783E+03  0.42047380084E+03  0.15294330000E+03 0.  0.
<mgrwt>
<rscale>  0 0.33043416E+03</rscale>
<asrwt>0</asrwt>
<pdfrwt beam="1">  1        4 0.76933544E-01 0.33043416E+03</pdfrwt>
<pdfrwt beam="2">  1       -4 0.38618795E-01 0.33043416E+03</pdfrwt>
<totfact> 0.18750523E+01</totfact>
</mgrwt>
</event>
<event>
 4    1  0.8742165E-009  0.2490264E+03  0.7818608E-02  0.1113922E+00
         -4   -1    0    0    0  501 -0.00000000000E+00  0.00000000000E+00  0.66516152901E+03  0.66516274142E+03  0.12700000000E+01 0.  1.
          4   -1    0    0  501    0  0.00000000000E+00 -0.00000000000E+00 -0.93818045883E+02  0.93826641383E+02  0.12700000000E+01 0.  1.
    8880022    1    1    2    0    0  0.11835687874E+03  0.15688900763E+03  0.25552949998E+03  0.35680455412E+03  0.15294330000E+03 0.  0.
    8880022    1    1    2    0    0 -0.11835687874E+03 -0.15688900763E+03  0.31581398315E+03  0.40218482869E+03  0.15294330000E+03 0.  0.
<mgrwt>
<rscale>  0 0.24902643E+03</rscale>
<asrwt>0</asrwt>
<pdfrwt beam="1">  1        4 0.14434300E-01 0.24902643E+03</pdfrwt>
<pdfrwt beam="2">  1       -4 0.10233330E+00 0.24902643E+03</pdfrwt>
<totfact> 0.59525557E+01</totfact>
</mgrwt>
</event>
<event>
 4    1  0.8742165E-009  0.2344479E+03  0.7818608E-02  0.1123548E+00
         -4   -1    0    0    0  501 -0.00000000000E+00  0.00000000000E+00  0.22238879092E+03  0.22239241719E+03  0.12700000000E+01 0. -1.
          4   -1    0    0  501    0  0.00000000000E+00 -0.00000000000E+00 -0.10212446948E+04  0.10212454844E+04  0.12700000000E+01 0. -1.
    8880022    1    1    2    0    0  0.17557638691E+03  0.27332855966E+02  0.14194167101E+03  0.27406795442E+03  0.15294330000E+03 0.  0.
    8880022    1    1    2    0    0 -0.17557638691E+03 -0.27332855966E+02 -0.94079757487E+03  0.96956994722E+03  0.15294330000E+03 0.  0.
<mgrwt>
<rscale>  0 0.23444787E+03</rscale>
<asrwt>0</asrwt>
<pdfrwt beam="1">  1        4 0.15711491E+00 0.23444787E+03</pdfrwt>
<pdfrwt beam="2">  1       -4 0.34214000E-01 0.23444787E+03</pdfrwt>
<totfact> 0.41630334E+00</totfact>
</mgrwt>
</event>
<event>
 4    1  0.8742165E-009  0.3349708E+03  0.7818608E-02  0.1068958E+00
         -4   -1    0    0    0  501 -0.00000000000E+00  0.00000000000E+00  0.54523527141E+02  0.54538315998E+02  0.12700000000E+01 0. -1.
          4   -1    0    0  501    0  0.00000000000E+00 -0.00000000000E+00 -0.25547904880E+04  0.25547908037E+04  0.12700000000E+01 0. -1.
    8880022    1    1    2    0    0 -0.28996212229E+03  0.68816653972E+02 -0.67460460914E+03  0.75319107530E+03  0.15294330000E+03 0.  0.
    8880022    1    1    2    0    0  0.28996212229E+03 -0.68816653972E+02 -0.18256623517E+04  0.18561380444E+04  0.15294330000E+03 0.  0.
<mgrwt>
<rscale>  0 0.33497077E+03</rscale>
<asrwt>0</asrwt>
<pdfrwt beam="1">  1        4 0.39304576E+00 0.33497077E+03</pdfrwt>
<pdfrwt beam="2">  1       -4 0.83893988E-02 0.33497077E+03</pdfrwt>
<totfact> 0.17720249E+00</totfact>
</mgrwt>
</event>
<event>
 4    1  0.8742165E-009  0.2520599E+03  0.7818608E-02  0.1112010E+00
         -4   -1    0    0    0  501 -0.00000000000E+00  0.00000000000E+00  0.11416931861E+03  0.11417638202E+03  0.12700000000E+01 0.  1.
          4   -1    0    0  501    0  0.00000000000E+00 -0.00000000000E+00 -0.68243190742E+03  0.68243308915E+03  0.12700000000E+01 0.  1.
    8880022    1    1    2    0    0 -0.19577855017E+03 -0.42583116640E+02 -0.11300789689E+03  0.27623359735E+03  0.15294330000E+03 0.  0.
    8880022    1    1    2    0    0  0.19577855017E+03  0.42583116640E+02 -0.45525469192E+03  0.52037587382E+03  0.15294330000E+03 0.  0.
<mgrwt>
<rscale>  0 0.25205994E+03</rscale>
<asrwt>0</asrwt>
<pdfrwt beam="1">  1        4 0.10499016E+00 0.25205994E+03</pdfrwt>
<pdfrwt beam="2">  1       -4 0.17565145E-01 0.25205994E+03</pdfrwt>
<totfact> 0.39565958E+01</totfact>
</mgrwt>
</event>
<event>
 4    1  0.8742165E-009  0.2286820E+03  0.7818608E-02  0.1127571E+00
         -4   -1    0    0    0  501 -0.00000000000E+00  0.00000000000E+00  0.43082948370E+02  0.43101662848E+02  0.12700000000E+01 0.  1.
          4   -1    0    0  501    0  0.00000000000E+00 -0.00000000000E+00 -0.13225428872E+04  0.13225434970E+04  0.12700000000E+01 0.  1.
    8880022    1    1    2    0    0  0.11943885266E+03 -0.12098835654E+03 -0.83574957343E+03  0.86647147930E+03  0.15294330000E+03 0.  0.
    8880022    1    1    2    0    0 -0.11943885266E+03  0.12098835654E+03 -0.44371036540E+03  0.49917368052E+03  0.15294330000E+03 0.  0.
<mgrwt>
<rscale>  0 0.22868204E+03</rscale>
<asrwt>0</asrwt>
<pdfrwt beam="1">  1        4 0.20346959E+00 0.22868204E+03</pdfrwt>
<pdfrwt beam="2">  1       -4 0.66296334E-02 0.22868204E+03</pdfrwt>
<totfact> 0.37454553E+01</totfact>
</mgrwt>
</event>
<event>
 4    1  0.8742165E-009  0.1857526E+03  0.7818608E-02  0.1162349E+00
         -4   -1    0    0    0  501 -0.00000000000E+00  0.00000000000E+00  0.11750691300E+03  0.11751377580E+03  0.12700000000E+01 0.  1.
          4   -1    0    0  501    0  0.00000000000E+00 -0.00000000000E+00 -0.29741637074E+03  0.29741908224E+03  0.12700000000E+01 0.  1.
    8880022    1    1    2    0    0  0.95033786265E+01  0.10498593232E+03 -0.66506551886E+02  0.19729960631E+03  0.15294330000E+03 0. -1.
    8880022    1    1    2    0    0 -0.95033786265E+01 -0.10498593232E+03 -0.11340290585E+03  0.21763325174E+03  0.15294330000E+03 0. -1.
<mgrwt>
<rscale>  0 0.18575256E+03</rscale>
<asrwt>0</asrwt>
<pdfrwt beam="1">  1        4 0.45757101E-01 0.18575256E+03</pdfrwt>
<pdfrwt beam="2">  1       -4 0.18078723E-01 0.18575256E+03</pdfrwt>
<totfact> 0.22109772E+02</totfact>
</mgrwt>
</event>
<event>
 4    1  0.8742165E-009  0.1622600E+03  0.7818608E-02  0.1186169E+00
         -4   -1    0    0    0  501 -0.00000000000E+00  0.00000000000E+00  0.19912825289E+03  0.19913230275E+03  0.12700000000E+01 0. -1.
          4   -1    0    0  501    0  0.00000000000E+00 -0.00000000000E+00 -0.15828210829E+03  0.15828720322E+03  0.12700000000E+01 0. -1.
    8880022    1    1    2    0    0 -0.10260559955E+02 -0.53210582604E+02 -0.52106080154E+02  0.17042107204E+03  0.15294330000E+03 0.  0.
    8880022    1    1    2    0    0  0.10260559955E+02  0.53210582604E+02  0.92952224754E+02  0.18699843393E+03  0.15294330000E+03 0.  0.
<mgrwt>
<rscale>  0 0.16225997E+03</rscale>
<asrwt>0</asrwt>
<pdfrwt beam="1">  1        4 0.24351797E-01 0.16225997E+03</pdfrwt>
<pdfrwt beam="2">  1       -4 0.30635819E-01 0.16225997E+03</pdfrwt>
<totfact> 0.27625786E+02</totfact>
</mgrwt>
</event>
<event>
 4    1  0.8742165E-009  0.1589348E+03  0.7818608E-02  0.1189905E+00
         -4   -1    0    0    0  501 -0.00000000000E+00  0.00000000000E+00  0.22716056784E+02  0.22751530406E+02  0.12700000000E+01 0.  1.
          4   -1    0    0  501    0  0.00000000000E+00 -0.00000000000E+00 -0.14017725581E+04  0.14017731334E+04  0.12700000000E+01 0.  1.
    8880022    1    1    2    0    0 -0.43097344146E+02 -0.33506988331E+01 -0.36518865552E+03  0.39827504992E+03  0.15294330000E+03 0.  1.
    8880022    1    1    2    0    0  0.43097344146E+02  0.33506988331E+01 -0.10138678458E+04  0.10262496139E+04  0.15294330000E+03 0.  1.
<mgrwt>
<rscale>  0 0.15893477E+03</rscale>
<asrwt>0</asrwt>
<pdfrwt beam="1">  1        4 0.21566002E+00 0.15893477E+03</pdfrwt>
<pdfrwt beam="2">  1       -4 0.34975521E-02 0.15893477E+03</pdfrwt>
<totfact> 0.85205592E+01</totfact>
</mgrwt>
</event>
<event>
 4    1  0.8742165E-009  0.1655598E+03  0.7818608E-02  0.1182559E+00
         -4   -1    0    0    0  501 -0.00000000000E+00  0.00000000000E+00  0.13519690712E+03  0.13520287199E+03  0.12700000000E+01 0.  1.
          4   -1    0    0  501    0  0.00000000000E+00 -0.00000000000E+00 -0.24988194367E+03  0.24988517098E+03  0.12700000000E+01 0.  1.
    8880022    1    1    2    0    0  0.39324423304E+02  0.49718961539E+02  0.26296293067E+02  0.16763511997E+03  0.15294330000E+03 0.  0.
    8880022    1    1    2    0    0 -0.39324423304E+02 -0.49718961539E+02 -0.14098132962E+03  0.21745292300E+03  0.15294330000E+03 0.  0.
<mgrwt>
<rscale>  0 0.16555977E+03</rscale>
<asrwt>0</asrwt>
<pdfrwt beam="1">  1        4 0.38444083E-01 0.16555977E+03</pdfrwt>
<pdfrwt beam="2">  1       -4 0.20800231E-01 0.16555977E+03</pdfrwt>
<totfact> 0.23851473E+02</totfact>
</mgrwt>
</event>
<event>
 4    1  0.8742165E-009  0.3531145E+03  0.7818608E-02  0.1061344E+00
         -4   -1    0    0    0  501 -0.00000000000E+00  0.00000000000E+00  0.48710357607E+03  0.48710523167E+03  0.12700000000E+01 0.  1.
          4   -1    0    0  501    0  0.00000000000E+00 -0.00000000000E+00 -0.49737284448E+03  0.49737446589E+03  0.12700000000E+01 0. -1.
    8880022    1    1    2    0    0  0.13224484540E+03  0.28949868627E+03 -0.34805832594E+03  0.49581694178E+03  0.15294330000E+03 0.  0.
    8880022    1    1    2    0    0 -0.13224484540E+03 -0.28949868627E+03  0.33778905753E+03  0.48866275578E+03  0.15294330000E+03 0.  0.
<mgrwt>
<rscale>  0 0.35311449E+03</rscale>
<asrwt>0</asrwt>
<pdfrwt beam="1">  1        4 0.76519152E-01 0.35311449E+03</pdfrwt>
<pdfrwt beam="2">  1       -4 0.74939263E-01 0.35311449E+03</pdfrwt>
<totfact> 0.47283864E+00</totfact>
</mgrwt>
</event>
<event>
 4    1  0.8742165E-009  0.1667206E+03  0.7818608E-02  0.1181312E+00
         -4   -1    0    0    0  501 -0.00000000000E+00  0.00000000000E+00  0.10254561228E+04  0.10254569092E+04  0.12700000000E+01 0.  1.
          4   -1    0    0  501    0  0.00000000000E+00 -0.00000000000E+00 -0.38999021682E+02  0.39019694927E+02  0.12700000000E+01 0.  1.
    8880022    1    1    2    0    0 -0.65582235004E+02  0.10152009262E+02  0.19921225803E+03  0.25977157197E+03  0.15294330000E+03 0.  0.
    8880022    1    1    2    0    0  0.65582235004E+02 -0.10152009262E+02  0.78724484311E+03  0.80470503220E+03  0.15294330000E+03 0.  0.
<mgrwt>
<rscale>  0 0.16672056E+03</rscale>
<asrwt>0</asrwt>
<pdfrwt beam="1">  1        4 0.60015007E-02 0.16672056E+03</pdfrwt>
<pdfrwt beam="2">  1       -4 0.15776412E+00 0.16672056E+03</pdfrwt>
<totfact> 0.85903526E+01</totfact>
</mgrwt>
</event>
<event>
 4    1  0.8742165E-009  0.1698161E+03  0.7818608E-02  0.1178040E+00
         -4   -1    0    0    0  501 -0.00000000000E+00  0.00000000000E+00  0.16765075021E+04  0.16765079831E+04  0.12700000000E+01 0.  1.
          4   -1    0    0  501    0  0.00000000000E+00 -0.00000000000E+00 -0.21442188866E+02  0.21479766371E+02  0.12700000000E+01 0.  1.
    8880022    1    1    2    0    0 -0.37014597098E+02 -0.63841743442E+02  0.12058065780E+04  0.12177056315E+04  0.15294330000E+03 0.  0.
    8880022    1    1    2    0    0  0.37014597098E+02  0.63841743442E+02  0.44925873528E+03  0.48028211797E+03  0.15294330000E+03 0.  0.
<mgrwt>
<rscale>  0 0.16981608E+03</rscale>
<asrwt>0</asrwt>
<pdfrwt beam="1">  1        4 0.33017249E-02 0.16981608E+03</pdfrwt>
<pdfrwt beam="2">  1       -4 0.25792724E+00 0.16981608E+03</pdfrwt>
<totfact> 0.52972504E+01</totfact>
</mgrwt>
</event>
<event>
 4    1  0.8742165E-009  0.3803204E+03  0.7818608E-02  0.1050815E+00
         -4   -1    0    0    0  501 -0.00000000000E+00  0.00000000000E+00  0.13420542118E+03  0.13421143012E+03  0.12700000000E+01 0. -1.
          4   -1    0    0  501    0  0.00000000000E+00 -0.00000000000E+00 -0.19094382092E+04  0.19094386316E+04  0.12700000000E+01 0. -1.
    8880022    1    1    2    0    0  0.34318694192E+03  0.58946421826E+02 -0.21323747212E+03  0.43602044709E+03  0.15294330000E+03 0.  0.
    8880022    1    1    2    0    0 -0.34318694192E+03 -0.58946421826E+02 -0.15619953159E+04  0.16076296146E+04  0.15294330000E+03 0.  0.
<mgrwt>
<rscale>  0 0.38032041E+03</rscale>
<asrwt>0</asrwt>
<pdfrwt beam="1">  1        4 0.29376020E+00 0.38032041E+03</pdfrwt>
<pdfrwt beam="2">  1       -4 0.20647484E-01 0.38032041E+03</pdfrwt>
<totfact> 0.15192712E+00</totfact>
</mgrwt>
</event>
<event>
 4    1  0.8742165E-009  0.1563538E+03  0.7818608E-02  0.1192876E+00
          4   -1    0    0  501    0  0.00000000000E+00  0.00000000000E+00  0.15098985092E+03  0.15099519191E+03  0.12700000000E+01 0. -1.
         -4   -1    0    0    0  501 -0.00000000000E+00 -0.00000000000E+00 -0.17381623809E+03  0.17382087770E+03  0.12700000000E+01 0. -1.
    8880022    1    1    2    0    0  0.17949307736E+02 -0.27068200373E+02 -0.53939916024E+02  0.16539659209E+03  0.15294330000E+03 0. -1.
    8880022    1    1    2    0    0 -0.17949307736E+02  0.27068200373E+02  0.31113528851E+02  0.15941947752E+03  0.15294330000E+03 0. -1.
<mgrwt>
<rscale>  0 0.15635382E+03</rscale>
<asrwt>0</asrwt>
<pdfrwt beam="1">  1        4 0.23229976E-01 0.15635382E+03</pdfrwt>
<pdfrwt beam="2">  1       -4 0.26741727E-01 0.15635382E+03</pdfrwt>
<totfact> 0.38679227E+02</totfact>
</mgrwt>
</event>
<event>
 4    1  0.8742165E-009  0.2514683E+03  0.7818608E-02  0.1112380E+00
          4   -1    0    0  501    0  0.00000000000E+00  0.00000000000E+00  0.15038332066E+03  0.15038868319E+03  0.12700000000E+01 0.  1.
         -4   -1    0    0    0  501 -0.00000000000E+00 -0.00000000000E+00 -0.58025414641E+03  0.58025553623E+03  0.12700000000E+01 0.  1.
    8880022    1    1    2    0    0  0.15661324249E+03 -0.12376156910E+03 -0.23241576228E+02  0.25254001186E+03  0.15294330000E+03 0.  0.
    8880022    1    1    2    0    0 -0.15661324249E+03  0.12376156910E+03 -0.40662924953E+03  0.47810420757E+03  0.15294330000E+03 0.  0.
<mgrwt>
<rscale>  0 0.25146826E+03</rscale>
<asrwt>0</asrwt>
<pdfrwt beam="1">  1        4 0.23136415E-01 0.25146826E+03</pdfrwt>
<pdfrwt beam="2">  1       -4 0.89270387E-01 0.25146826E+03</pdfrwt>
<totfact> 0.34927394E+01</totfact>
</mgrwt>
</event>
<event>
 4    1  0.8742165E-009  0.3182937E+03  0.7818608E-02  0.1076437E+00
          4   -1    0    0  501    0  0.00000000000E+00  0.00000000000E+00  0.20840895547E+03  0.20841282499E+03  0.12700000000E+01 0.  1.
         -4   -1    0    0    0  501 -0.00000000000E+00 -0.00000000000E+00 -0.70147279231E+03  0.70147394197E+03  0.12700000000E+01 0.  1.
    8880022    1    1    2    0    0 -0.14526108312E+03  0.23836623654E+03  0.55484497374E+01  0.31834208534E+03  0.15294330000E+03 0.  0.
    8880022    1    1    2    0    0  0.14526108312E+03 -0.23836623654E+03 -0.49861228658E+03  0.59154468161E+03  0.15294330000E+03 0.  0.
<mgrwt>
<rscale>  0 0.31829373E+03</rscale>
<asrwt>0</asrwt>
<pdfrwt beam="1">  1        4 0.32063303E-01 0.31829373E+03</pdfrwt>
<pdfrwt beam="2">  1       -4 0.10791928E+00 0.31829373E+03</pdfrwt>
<totfact> 0.12317833E+01</totfact>
</mgrwt>
</event>
<event>
 4    1  0.8742165E-009  0.3016052E+03  0.7818608E-02  0.1084441E+00
          4   -1    0    0  501    0  0.00000000000E+00  0.00000000000E+00  0.84020302277E+02  0.84029900004E+02  0.12700000000E+01 0. -1.
         -4   -1    0    0    0  501 -0.00000000000E+00 -0.00000000000E+00 -0.11926662465E+04  0.11926669227E+04  0.12700000000E+01 0. -1.
    8880022    1    1    2    0    0  0.25973105832E+03  0.10669959903E+02 -0.36039534442E+03  0.46994736726E+03  0.15294330000E+03 0.  0.
    8880022    1    1    2    0    0 -0.25973105832E+03 -0.10669959903E+02 -0.74825059982E+03  0.80674945544E+03  0.15294330000E+03 0.  0.
<mgrwt>
<rscale>  0 0.30160524E+03</rscale>
<asrwt>0</asrwt>
<pdfrwt beam="1">  1        4 0.12926992E-01 0.30160524E+03</pdfrwt>
<pdfrwt beam="2">  1       -4 0.18348789E+00 0.30160524E+03</pdfrwt>
<totfact> 0.16579676E+01</totfact>
</mgrwt>
</event>
<event>
 4    1  0.8742165E-009  0.3336060E+03  0.7818608E-02  0.1069552E+00
          4   -1    0    0  501    0  0.00000000000E+00  0.00000000000E+00  0.18582024662E+03  0.18582458651E+03  0.12700000000E+01 0. -1.
         -4   -1    0    0    0  501 -0.00000000000E+00 -0.00000000000E+00 -0.65124185102E+03  0.65124308934E+03  0.12700000000E+01 0. -1.
    8880022    1    1    2    0    0 -0.19304542933E+03  0.22502168951E+03 -0.11407502975E+03  0.35257065103E+03  0.15294330000E+03 0.  0.
    8880022    1    1    2    0    0  0.19304542933E+03 -0.22502168951E+03 -0.35134657465E+03  0.48449702483E+03  0.15294330000E+03 0.  0.
<mgrwt>
<rscale>  0 0.33360598E+03</rscale>
<asrwt>0</asrwt>
<pdfrwt beam="1">  1        4 0.28588160E-01 0.33360598E+03</pdfrwt>
<pdfrwt beam="2">  1       -4 0.10019148E+00 0.33360598E+03</pdfrwt>
<totfact> 0.18401127E+01</totfact>
</mgrwt>
</event>
<event>
 4    1  0.8742165E-009  0.2559235E+03  0.7818608E-02  0.1109618E+00
          4   -1    0    0  501    0  0.00000000000E+00  0.00000000000E+00  0.11680728737E+03  0.11681419127E+03  0.12700000000E+01 0.  1.
         -4   -1    0    0    0  501 -0.00000000000E+00 -0.00000000000E+00 -0.64197700081E+03  0.64197825701E+03  0.12700000000E+01 0.  1.
    8880022    1    1    2    0    0  0.20090998587E+03  0.41717514177E+02 -0.12759200212E+03  0.28596598649E+03  0.15294330000E+03 0.  0.
    8880022    1    1    2    0    0 -0.20090998587E+03 -0.41717514177E+02 -0.39757771132E+03  0.47282646179E+03  0.15294330000E+03 0.  0.
<mgrwt>
<rscale>  0 0.25592348E+03</rscale>
<asrwt>0</asrwt>
<pdfrwt beam="1">  1        4 0.17970980E-01 0.25592348E+03</pdfrwt>
<pdfrwt beam="2">  1       -4 0.98766318E-01 0.25592348E+03</pdfrwt>
<totfact> 0.43930704E+01</totfact>
</mgrwt>
</event>
<event>
 4    1  0.8742165E-009  0.2596494E+03  0.7818608E-02  0.1107354E+00
          4   -1    0    0  501    0  0.00000000000E+00  0.00000000000E+00  0.16736201126E+03  0.16736682979E+03  0.12700000000E+01 0.  1.
         -4   -1    0    0    0  501 -0.00000000000E+00 -0.00000000000E+00 -0.42206718388E+03  0.42206909459E+03  0.12700000000E+01 0.  1.
    8880022    1    1    2    0    0  0.15361175840E+03  0.14293205436E+03 -0.19029703269E+03  0.32191731570E+03  0.15294330000E+03 0.  0.
    8880022    1    1    2    0    0 -0.15361175840E+03 -0.14293205436E+03 -0.64408139932E+02  0.26751860867E+03  0.15294330000E+03 0.  0.
<mgrwt>
<rscale>  0 0.25964937E+03</rscale>
<asrwt>0</asrwt>
<pdfrwt beam="1">  1        4 0.25748520E-01 0.25964937E+03</pdfrwt>
<pdfrwt beam="2">  1       -4 0.64933930E-01 0.25964937E+03</pdfrwt>
<totfact> 0.58216119E+01</totfact>
</mgrwt>
</event>
<event>
 4    1  0.8742165E-009  0.1854019E+03  0.7818608E-02  0.1162675E+00
          4   -1    0    0  501    0  0.00000000000E+00  0.00000000000E+00  0.69548817154E+02  0.69560411640E+02  0.12700000000E+01 0.  1.
         -4   -1    0    0    0  501 -0.00000000000E+00 -0.00000000000E+00 -0.49419395062E+03  0.49419558247E+03  0.12700000000E+01 0.  1.
    8880022    1    1    2    0    0  0.52522504392E+02 -0.90683962931E+02 -0.21338165618E+03  0.28267574854E+03  0.15294330000E+03 0.  1.
    8880022    1    1    2    0    0 -0.52522504392E+02  0.90683962931E+02 -0.21126347728E+03  0.28108024557E+03  0.15294330000E+03 0.  1.
<mgrwt>
<rscale>  0 0.18540185E+03</rscale>
<asrwt>0</asrwt>
<pdfrwt beam="1">  1        4 0.10700836E-01 0.18540185E+03</pdfrwt>
<pdfrwt beam="2">  1       -4 0.76030854E-01 0.18540185E+03</pdfrwt>
<totfact> 0.18916561E+02</totfact>
</mgrwt>
</event>
<event>
 4    1  0.8742165E-009  0.1928703E+03  0.7818608E-02  0.1155898E+00
          4   -1    0    0  501    0  0.00000000000E+00  0.00000000000E+00  0.52723114167E+03  0.52723267126E+03  0.12700000000E+01 0.  1.
         -4   -1    0    0    0  501 -0.00000000000E+00 -0.00000000000E+00 -0.73988147537E+02  0.73999046453E+02  0.12700000000E+01 0.  1.
    8880022    1    1    2    0    0  0.46238582535E+02  0.10802454057E+03  0.16180524356E+03  0.25175364494E+03  0.15294330000E+03 0.  0.
    8880022    1    1    2    0    0 -0.46238582535E+02 -0.10802454057E+03  0.29143775056E+03  0.34947807277E+03  0.15294330000E+03 0.  0.
<mgrwt>
<rscale>  0 0.19287032E+03</rscale>
<asrwt>0</asrwt>
<pdfrwt beam="1">  1        4 0.81113437E-01 0.19287032E+03</pdfrwt>
<pdfrwt beam="2">  1       -4 0.11383748E-01 0.19287032E+03</pdfrwt>
<totfact> 0.14829568E+02</totfact>
</mgrwt>
</event>
<event>
 4    1  0.8742165E-009  0.2622381E+03  0.7818608E-02  0.1105806E+00
         -4   -1    0    0    0  501 -0.00000000000E+00  0.00000000000E+00  0.48808267211E+03  0.48808432439E+03  0.12700000000E+01 0.  1.
          4   -1    0    0  501    0  0.00000000000E+00 -0.00000000000E+00 -0.42727514358E+03  0.42727703100E+03  0.12700000000E+01 0.  1.
    8880022    1    1    2    0    0  0.16047566823E+03 -0.14008825011E+03 -0.34429341073E+03  0.43278951419E+03  0.15294330000E+03 0.  0.
    8880022    1    1    2    0    0 -0.16047566823E+03  0.14008825011E+03  0.40510093926E+03  0.48257184120E+03  0.15294330000E+03 0.  0.
<mgrwt>
<rscale>  0 0.26223808E+03</rscale>
<asrwt>0</asrwt>
<pdfrwt beam="1">  1        4 0.65734910E-01 0.26223808E+03</pdfrwt>
<pdfrwt beam="2">  1       -4 0.75089914E-01 0.26223808E+03</pdfrwt>
<totfact> 0.64596914E+00</totfact>
</mgrwt>
</event>
<event>
 4    1  0.8742165E-009  0.3492311E+03  0.7818608E-02  0.1062931E+00
          4   -1    0    0  501    0  0.00000000000E+00  0.00000000000E+00  0.69824555490E+02  0.69836104197E+02  0.12700000000E+01 0.  1.
         -4   -1    0    0    0  501 -0.00000000000E+00 -0.00000000000E+00 -0.19270819909E+04  0.19270824094E+04  0.12700000000E+01 0.  1.
    8880022    1    1    2    0    0  0.48119560542E+02  0.31025022864E+03 -0.12342382774E+04  0.12826950046E+04  0.15294330000E+03 0.  0.
    8880022    1    1    2    0    0 -0.48119560542E+02 -0.31025022864E+03 -0.62301915804E+03  0.71422350898E+03  0.15294330000E+03 0.  0.
<mgrwt>
<rscale>  0 0.34923108E+03</rscale>
<asrwt>0</asrwt>
<pdfrwt beam="1">  1        4 0.10743161E-01 0.34923108E+03</pdfrwt>
<pdfrwt beam="2">  1       -4 0.29647503E+00 0.34923108E+03</pdfrwt>
<totfact> 0.46812038E+00</totfact>
</mgrwt>
</event>
<event>
 4    1  0.8742165E-009  0.2487310E+03  0.7818608E-02  0.1114109E+00
          4   -1    0    0  501    0  0.00000000000E+00  0.00000000000E+00  0.14923212936E+03  0.14923753326E+03  0.12700000000E+01 0.  1.
         -4   -1    0    0    0  501 -0.00000000000E+00 -0.00000000000E+00 -0.94260462119E+03  0.94260547674E+03  0.12700000000E+01 0.  1.
    8880022    1    1    2    0    0  0.18963649038E+03 -0.50134610414E+02 -0.80528858859E+03  0.84282669724E+03  0.15294330000E+03 0.  0.
    8880022    1    1    2    0    0 -0.18963649038E+03  0.50134610414E+02  0.11916096760E+02  0.24901631277E+03  0.15294330000E+03 0.  0.
<mgrwt>
<rscale>  0 0.24873104E+03</rscale>
<asrwt>0</asrwt>
<pdfrwt beam="1">  1        4 0.22959271E-01 0.24873104E+03</pdfrwt>
<pdfrwt beam="2">  1       -4 0.14501657E+00 0.24873104E+03</pdfrwt>
<totfact> 0.10959064E+01</totfact>
</mgrwt>
</event>
<event>
 4    1  0.8742165E-009  0.1546759E+03  0.7818608E-02  0.1194842E+00
          4   -1    0    0  501    0  0.00000000000E+00  0.00000000000E+00  0.21107270417E+03  0.21107652486E+03  0.12700000000E+01 0. -1.
         -4   -1    0    0    0  501 -0.00000000000E+00 -0.00000000000E+00 -0.11613488823E+03  0.11614183211E+03  0.12700000000E+01 0. -1.
    8880022    1    1    2    0    0 -0.76903272923E+01 -0.21767671078E+02  0.72851475479E+02  0.17097357437E+03  0.15294330000E+03 0.  1.
    8880022    1    1    2    0    0  0.76903272923E+01  0.21767671078E+02  0.22086340456E+02  0.15624478259E+03  0.15294330000E+03 0.  1.
<mgrwt>
<rscale>  0 0.15467587E+03</rscale>
<asrwt>0</asrwt>
<pdfrwt beam="1">  1        4 0.32473552E-01 0.15467587E+03</pdfrwt>
<pdfrwt beam="2">  1       -4 0.17867734E-01 0.15467587E+03</pdfrwt>
<totfact> 0.42974805E+02</totfact>
</mgrwt>
</event>
<event>
 4    1  0.8742165E-009  0.3509599E+03  0.7818608E-02  0.1062222E+00
          4   -1    0    0  501    0  0.00000000000E+00  0.00000000000E+00  0.44368998217E+03  0.44369179976E+03  0.12700000000E+01 0.  1.
         -4   -1    0    0    0  501 -0.00000000000E+00 -0.00000000000E+00 -0.32209511249E+03  0.32209761624E+03  0.12700000000E+01 0.  1.
    8880022    1    1    2    0    0 -0.26014620985E+03  0.17917913306E+03 -0.81504023102E+02  0.36029955734E+03  0.15294330000E+03 0.  0.
    8880022    1    1    2    0    0  0.26014620985E+03 -0.17917913306E+03  0.20309889278E+03  0.40548985867E+03  0.15294330000E+03 0.  0.
<mgrwt>
<rscale>  0 0.35095992E+03</rscale>
<asrwt>0</asrwt>
<pdfrwt beam="1">  1        4 0.68260330E-01 0.35095992E+03</pdfrwt>
<pdfrwt beam="2">  1       -4 0.49553426E-01 0.35095992E+03</pdfrwt>
<totfact> 0.14790529E+01</totfact>
</mgrwt>
</event>
<event>
 4    1  0.8742165E-009  0.1650000E+03  0.7818608E-02  0.1183165E+00
         -4   -1    0    0    0  501 -0.00000000000E+00  0.00000000000E+00  0.20947333103E+03  0.20947718089E+03  0.12700000000E+01 0.  1.
          4   -1    0    0  501    0  0.00000000000E+00 -0.00000000000E+00 -0.61932357612E+03  0.61932487826E+03  0.12700000000E+01 0.  1.
    8880022    1    1    2    0    0  0.16600109059E+02 -0.59647257431E+02  0.16343690388E+03  0.23224261776E+03  0.15294330000E+03 0.  0.
    8880022    1    1    2    0    0 -0.16600109059E+02  0.59647257431E+02 -0.57328714896E+03  0.59655944139E+03  0.15294330000E+03 0.  0.
<mgrwt>
<rscale>  0 0.16500004E+03</rscale>
<asrwt>0</asrwt>
<pdfrwt beam="1">  1        4 0.95280946E-01 0.16500004E+03</pdfrwt>
<pdfrwt beam="2">  1       -4 0.32227063E-01 0.16500004E+03</pdfrwt>
<totfact> 0.15426859E+01</totfact>
</mgrwt>
</event>
<event>
 4    1  0.8742165E-009  0.2292833E+03  0.7818608E-02  0.1127145E+00
         -4   -1    0    0    0  501 -0.00000000000E+00  0.00000000000E+00  0.50505427665E+02  0.50521392733E+02  0.12700000000E+01 0.  1.
          4   -1    0    0  501    0  0.00000000000E+00 -0.00000000000E+00 -0.11067629573E+04  0.11067636860E+04  0.12700000000E+01 0.  1.
    8880022    1    1    2    0    0 -0.17036703999E+03  0.12420466268E+02 -0.66948406454E+03  0.70765794138E+03  0.15294330000E+03 0. -1.
    8880022    1    1    2    0    0  0.17036703999E+03 -0.12420466268E+02 -0.38677346511E+03  0.44962713733E+03  0.15294330000E+03 0. -1.
<mgrwt>
<rscale>  0 0.22928334E+03</rscale>
<asrwt>0</asrwt>
<pdfrwt beam="1">  1        4 0.17027249E+00 0.22928334E+03</pdfrwt>
<pdfrwt beam="2">  1       -4 0.77713508E-02 0.22928334E+03</pdfrwt>
<totfact> 0.47521217E+01</totfact>
</mgrwt>
</event>
<event>
 4    1  0.8742165E-009  0.1668487E+03  0.7818608E-02  0.1181175E+00
          4   -1    0    0  501    0  0.00000000000E+00  0.00000000000E+00  0.94264001097E+02  0.94272555937E+02  0.12700000000E+01 0. -1.
         -4   -1    0    0    0  501 -0.00000000000E+00 -0.00000000000E+00 -0.31490525583E+03  0.31490781675E+03  0.12700000000E+01 0. -1.
    8880022    1    1    2    0    0  0.34231011788E+02  0.57228123698E+02 -0.59274851968E+02  0.17706490731E+03  0.15294330000E+03 0.  1.
    8880022    1    1    2    0    0 -0.34231011788E+02 -0.57228123698E+02 -0.16136640276E+03  0.23211546537E+03  0.15294330000E+03 0.  1.
<mgrwt>
<rscale>  0 0.16684865E+03</rscale>
<asrwt>0</asrwt>
<pdfrwt beam="1">  1        4 0.14503009E-01 0.16684865E+03</pdfrwt>
<pdfrwt beam="2">  1       -4 0.48447817E-01 0.16684865E+03</pdfrwt>
<totfact> 0.28575778E+02</totfact>
</mgrwt>
</event>
<event>
 4    1  0.8742165E-009  0.1591617E+03  0.7818608E-02  0.1189646E+00
          4   -1    0    0  501    0  0.00000000000E+00  0.00000000000E+00  0.50987403440E+02  0.51003217639E+02  0.12700000000E+01 0. -1.
         -4   -1    0    0    0  501 -0.00000000000E+00 -0.00000000000E+00 -0.49674484465E+03  0.49674646811E+03  0.12700000000E+01 0. -1.
    8880022    1    1    2    0    0  0.31428526922E+02  0.30871518741E+02 -0.22326145861E+03  0.27418631419E+03  0.15294330000E+03 0. -1.
    8880022    1    1    2    0    0 -0.31428526922E+02 -0.30871518741E+02 -0.22249598260E+03  0.27356337156E+03  0.15294330000E+03 0. -1.
<mgrwt>
<rscale>  0 0.15916173E+03</rscale>
<asrwt>0</asrwt>
<pdfrwt beam="1">  1        4 0.78455576E-02 0.15916173E+03</pdfrwt>
<pdfrwt beam="2">  1       -4 0.76423622E-01 0.15916173E+03</pdfrwt>
<totfact> 0.30756610E+02</totfact>
</mgrwt>
</event>
<event>
 4    1  0.8742165E-009  0.1731099E+03  0.7818608E-02  0.1174643E+00
         -4   -1    0    0    0  501 -0.00000000000E+00  0.00000000000E+00  0.31295482006E+03  0.31295739694E+03  0.12700000000E+01 0. -1.
          4   -1    0    0  501    0  0.00000000000E+00 -0.00000000000E+00 -0.95781810937E+02  0.95790230224E+02  0.12700000000E+01 0. -1.
    8880022    1    1    2    0    0  0.39658154528E+02 -0.70729144527E+02  0.10474476802E+03  0.20233264825E+03  0.15294330000E+03 0.  1.
    8880022    1    1    2    0    0 -0.39658154528E+02  0.70729144527E+02  0.11242824110E+03  0.20641497891E+03  0.15294330000E+03 0.  1.
<mgrwt>
<rscale>  0 0.17310989E+03</rscale>
<asrwt>0</asrwt>
<pdfrwt beam="1">  1        4 0.14736509E-01 0.17310989E+03</pdfrwt>
<pdfrwt beam="2">  1       -4 0.48147742E-01 0.17310989E+03</pdfrwt>
<totfact> 0.28313103E+02</totfact>
</mgrwt>
</event>
<event>
 4    1  0.8742165E-009  0.1802706E+03  0.7818608E-02  0.1167541E+00
          4   -1    0    0  501    0  0.00000000000E+00  0.00000000000E+00  0.11007617140E+04  0.11007624467E+04  0.12700000000E+01 0.  1.
         -4   -1    0    0    0  501 -0.00000000000E+00 -0.00000000000E+00 -0.65071100722E+02  0.65083492908E+02  0.12700000000E+01 0.  1.
    8880022    1    1    2    0    0 -0.23815544997E+02  0.92404912163E+02  0.86975416519E+02  0.20015549972E+03  0.15294330000E+03 0.  0.
    8880022    1    1    2    0    0  0.23815544997E+02 -0.92404912163E+02  0.94871519680E+03  0.96569043985E+03  0.15294330000E+03 0.  0.
<mgrwt>
<rscale>  0 0.18027063E+03</rscale>
<asrwt>0</asrwt>
<pdfrwt beam="1">  1        4 0.16934897E+00 0.18027063E+03</pdfrwt>
<pdfrwt beam="2">  1       -4 0.10011948E-01 0.18027063E+03</pdfrwt>
<totfact> 0.30707977E+01</totfact>
</mgrwt>
</event>
<event>
 4    1  0.8742165E-009  0.3352809E+03  0.7818608E-02  0.1068824E+00
          4   -1    0    0  501    0  0.00000000000E+00  0.00000000000E+00  0.38478239399E+03  0.38478448985E+03  0.12700000000E+01 0.  1.
         -4   -1    0    0    0  501 -0.00000000000E+00 -0.00000000000E+00 -0.30106037976E+03  0.30106305845E+03  0.12700000000E+01 0.  1.
    8880022    1    1    2    0    0 -0.14837168418E+03 -0.25885796188E+03 -0.17156095088E+02  0.33571950451E+03  0.15294330000E+03 0.  0.
    8880022    1    1    2    0    0  0.14837168418E+03  0.25885796188E+03  0.10087810932E+03  0.35012804379E+03  0.15294330000E+03 0.  0.
<mgrwt>
<rscale>  0 0.33528086E+03</rscale>
<asrwt>0</asrwt>
<pdfrwt beam="1">  1        4 0.59197659E-01 0.33528086E+03</pdfrwt>
<pdfrwt beam="2">  1       -4 0.46317349E-01 0.33528086E+03</pdfrwt>
<totfact> 0.23045597E+01</totfact>
</mgrwt>
</event>
<event>
 4    1  0.8742165E-009  0.2225633E+03  0.7818608E-02  0.1131986E+00
          4   -1    0    0  501    0  0.00000000000E+00  0.00000000000E+00  0.64980364932E+02  0.64992774420E+02  0.12700000000E+01 0.  1.
         -4   -1    0    0    0  501 -0.00000000000E+00 -0.00000000000E+00 -0.85208175861E+03  0.85208270505E+03  0.12700000000E+01 0.  1.
    8880022    1    1    2    0    0  0.12917958567E+03  0.97238966441E+02 -0.24463655961E+03  0.33072871248E+03  0.15294330000E+03 0.  0.
    8880022    1    1    2    0    0 -0.12917958567E+03 -0.97238966441E+02 -0.54246483407E+03  0.58634676699E+03  0.15294330000E+03 0.  0.
<mgrwt>
<rscale>  0 0.22256333E+03</rscale>
<asrwt>0</asrwt>
<pdfrwt beam="1">  1        4 0.99980072E-02 0.22256333E+03</pdfrwt>
<pdfrwt beam="2">  1       -4 0.13109052E+00 0.22256333E+03</pdfrwt>
<totfact> 0.60954156E+01</totfact>
</mgrwt>
</event>
<event>
 4    1  0.8742165E-009  0.2098893E+03  0.7818608E-02  0.1141654E+00
          4   -1    0    0  501    0  0.00000000000E+00  0.00000000000E+00  0.42802029586E+02  0.42820866837E+02  0.12700000000E+01 0.  1.
         -4   -1    0    0    0  501 -0.00000000000E+00 -0.00000000000E+00 -0.11426416968E+04  0.11426424026E+04  0.12700000000E+01 0.  1.
    8880022    1    1    2    0    0  0.79757905828E+01  0.14352097644E+03 -0.73685030488E+03  0.76616049803E+03  0.15294330000E+03 0.  0.
    8880022    1    1    2    0    0 -0.79757905828E+01 -0.14352097644E+03 -0.36298936232E+03  0.41930277138E+03  0.15294330000E+03 0.  0.
<mgrwt>
<rscale>  0 0.20988934E+03</rscale>
<asrwt>0</asrwt>
<pdfrwt beam="1">  1        4 0.65864318E-02 0.20988934E+03</pdfrwt>
<pdfrwt beam="2">  1       -4 0.17579251E+00 0.20988934E+03</pdfrwt>
<totfact> 0.56803088E+01</totfact>
</mgrwt>
</event>
<event>
 4    1  0.8742165E-009  0.2122260E+03  0.7818608E-02  0.1139815E+00
          4   -1    0    0  501    0  0.00000000000E+00  0.00000000000E+00  0.85178063371E+02  0.85187530658E+02  0.12700000000E+01 0.  1.
         -4   -1    0    0    0  501 -0.00000000000E+00 -0.00000000000E+00 -0.65070913313E+03  0.65071037247E+03  0.12700000000E+01 0.  1.
    8880022    1    1    2    0    0 -0.10173272864E+03 -0.10629528099E+03 -0.44206952790E+03  0.49037266986E+03  0.15294330000E+03 0.  0.
    8880022    1    1    2    0    0  0.10173272864E+03  0.10629528099E+03 -0.12346154187E+03  0.24552523327E+03  0.15294330000E+03 0.  0.
<mgrwt>
<rscale>  0 0.21222603E+03</rscale>
<asrwt>0</asrwt>
<pdfrwt beam="1">  1        4 0.13105141E-01 0.21222603E+03</pdfrwt>
<pdfrwt beam="2">  1       -4 0.10010992E+00 0.21222603E+03</pdfrwt>
<totfact> 0.72853666E+01</totfact>
</mgrwt>
</event>
<event>
 4    1  0.8742165E-009  0.2110201E+03  0.7818608E-02  0.1140761E+00
          4   -1    0    0  501    0  0.00000000000E+00  0.00000000000E+00  0.29825001825E+03  0.29825272217E+03  0.12700000000E+01 0.  1.
         -4   -1    0    0    0  501 -0.00000000000E+00 -0.00000000000E+00 -0.18086400462E+03  0.18086846344E+03  0.12700000000E+01 0.  1.
    8880022    1    1    2    0    0  0.10164664571E+03  0.10395086042E+03  0.15877381221E+03  0.26408066651E+03  0.15294330000E+03 0.  0.
    8880022    1    1    2    0    0 -0.10164664571E+03 -0.10395086042E+03 -0.41387798576E+02  0.21504051910E+03  0.15294330000E+03 0.  0.
<mgrwt>
<rscale>  0 0.21102008E+03</rscale>
<asrwt>0</asrwt>
<pdfrwt beam="1">  1        4 0.45885169E-01 0.21102008E+03</pdfrwt>
<pdfrwt beam="2">  1       -4 0.27825783E-01 0.21102008E+03</pdfrwt>
<totfact> 0.10137939E+02</totfact>
</mgrwt>
</event>
<event>
 4    1  0.8742165E-009  0.1573976E+03  0.7818608E-02  0.1191667E+00
          4   -1    0    0  501    0  0.00000000000E+00  0.00000000000E+00  0.87032023212E+02  0.87041288848E+02  0.12700000000E+01 0. -1.
         -4   -1    0    0    0  501 -0.00000000000E+00 -0.00000000000E+00 -0.10748146962E+04  0.10748154465E+04  0.12700000000E+01 0. -1.
    8880022    1    1    2    0    0 -0.30962518514E+02  0.20583388141E+02  0.42107786035E+01  0.15745392053E+03  0.15294330000E+03 0. -1.
    8880022    1    1    2    0    0  0.30962518514E+02 -0.20583388141E+02 -0.99199345154E+03  0.10044028148E+04  0.15294330000E+03 0. -1.
<mgrwt>
<rscale>  0 0.15739761E+03</rscale>
<asrwt>0</asrwt>
<pdfrwt beam="1">  1        4 0.13390313E-01 0.15739761E+03</pdfrwt>
<pdfrwt beam="2">  1       -4 0.16535687E+00 0.15739761E+03</pdfrwt>
<totfact> 0.19601861E+01</totfact>
</mgrwt>
</event>
<event>
 4    1  0.8742165E-009  0.3703806E+03  0.7818608E-02  0.1054548E+00
         -4   -1    0    0    0  501 -0.00000000000E+00  0.00000000000E+00  0.14613018610E+03  0.14613570470E+03  0.12700000000E+01 0. -1.
          4   -1    0    0  501    0  0.00000000000E+00 -0.00000000000E+00 -0.10326523702E+04  0.10326531511E+04  0.12700000000E+01 0. -1.
    8880022    1    1    2    0    0  0.64342796136E+02  0.33113458978E+03 -0.26551987209E+03  0.45572202871E+03  0.15294330000E+03 0.  0.
    8880022    1    1    2    0    0 -0.64342796136E+02 -0.33113458978E+03 -0.62100231199E+03  0.72306682712E+03  0.15294330000E+03 0.  0.
<mgrwt>
<rscale>  0 0.37038057E+03</rscale>
<asrwt>0</asrwt>
<pdfrwt beam="1">  1        4 0.15887008E+00 0.37038057E+03</pdfrwt>
<pdfrwt beam="2">  1       -4 0.22482052E-01 0.37038057E+03</pdfrwt>
<totfact> 0.91991952E+00</totfact>
</mgrwt>
</event>
<event>
 4    1  0.8742165E-009  0.1621127E+03  0.7818608E-02  0.1186332E+00
         -4   -1    0    0    0  501 -0.00000000000E+00  0.00000000000E+00  0.67219573384E+02  0.67231569563E+02  0.12700000000E+01 0. -1.
          4   -1    0    0  501    0  0.00000000000E+00 -0.00000000000E+00 -0.48390715167E+03  0.48390881820E+03  0.12700000000E+01 0. -1.
    8880022    1    1    2    0    0 -0.53714638016E+02 -0.19006203791E+01 -0.87545070728E+02  0.18424078571E+03  0.15294330000E+03 0.  0.
    8880022    1    1    2    0    0  0.53714638016E+02  0.19006203791E+01 -0.32914250756E+03  0.36689960206E+03  0.15294330000E+03 0.  0.
<mgrwt>
<rscale>  0 0.16211270E+03</rscale>
<asrwt>0</asrwt>
<pdfrwt beam="1">  1        4 0.74448303E-01 0.16211270E+03</pdfrwt>
<pdfrwt beam="2">  1       -4 0.10342524E-01 0.16211270E+03</pdfrwt>
<totfact> 0.20556098E+02</totfact>
</mgrwt>
</event>
<event>
 4    1  0.8742165E-009  0.3194404E+03  0.7818608E-02  0.1075907E+00
         -4   -1    0    0    0  501 -0.00000000000E+00  0.00000000000E+00  0.43556907519E+03  0.43557092667E+03  0.12700000000E+01 0. -1.
          4   -1    0    0  501    0  0.00000000000E+00 -0.00000000000E+00 -0.24723348080E+03  0.24723674268E+03  0.12700000000E+01 0. -1.
    8880022    1    1    2    0    0  0.92830632882E+02 -0.26463744911E+03  0.15989597788E+02  0.31984031348E+03  0.15294330000E+03 0.  0.
    8880022    1    1    2    0    0 -0.92830632882E+02  0.26463744911E+03  0.17234599660E+03  0.36296735587E+03  0.15294330000E+03 0.  0.
<mgrwt>
<rscale>  0 0.31944038E+03</rscale>
<asrwt>0</asrwt>
<pdfrwt beam="1">  1        4 0.38036314E-01 0.31944038E+03</pdfrwt>
<pdfrwt beam="2">  1       -4 0.67011020E-01 0.31944038E+03</pdfrwt>
<totfact> 0.26136245E+01</totfact>
</mgrwt>
</event>
<event>
 4    1  0.8742165E-009  0.1827576E+03  0.7818608E-02  0.1165161E+00
          4   -1    0    0  501    0  0.00000000000E+00  0.00000000000E+00  0.37831890666E+03  0.37832103832E+03  0.12700000000E+01 0.  1.
         -4   -1    0    0    0  501 -0.00000000000E+00 -0.00000000000E+00 -0.12178641699E+03  0.12179303865E+03  0.12700000000E+01 0.  1.
    8880022    1    1    2    0    0 -0.92753920690E+02  0.37488672643E+02 -0.28904817032E+01  0.18278046471E+03  0.15294330000E+03 0.  0.
    8880022    1    1    2    0    0  0.92753920690E+02 -0.37488672643E+02  0.25942297138E+03  0.31733361226E+03  0.15294330000E+03 0.  0.
<mgrwt>
<rscale>  0 0.18275761E+03</rscale>
<asrwt>0</asrwt>
<pdfrwt beam="1">  1        4 0.58203582E-01 0.18275761E+03</pdfrwt>
<pdfrwt beam="2">  1       -4 0.18737045E-01 0.18275761E+03</pdfrwt>
<totfact> 0.12598044E+02</totfact>
</mgrwt>
</event>
<event>
 4    1  0.8742165E-009  0.1655911E+03  0.7818608E-02  0.1182525E+00
          4   -1    0    0  501    0  0.00000000000E+00  0.00000000000E+00  0.49563057837E+03  0.49563220549E+03  0.12700000000E+01 0. -1.
         -4   -1    0    0    0  501 -0.00000000000E+00 -0.00000000000E+00 -0.65571568358E+02  0.65583865980E+02  0.12700000000E+01 0. -1.
    8880022    1    1    2    0    0 -0.18300755452E+02 -0.60777068338E+02  0.10406427322E+03  0.19557554975E+03  0.15294330000E+03 0.  0.
    8880022    1    1    2    0    0  0.18300755452E+02  0.60777068338E+02  0.32599473680E+03  0.36564052172E+03  0.15294330000E+03 0.  0.
<mgrwt>
<rscale>  0 0.16559113E+03</rscale>
<asrwt>0</asrwt>
<pdfrwt beam="1">  1        4 0.76251933E-01 0.16559113E+03</pdfrwt>
<pdfrwt beam="2">  1       -4 0.10089004E-01 0.16559113E+03</pdfrwt>
<totfact> 0.20409737E+02</totfact>
</mgrwt>
</event>
<event>
 4    1  0.8742165E-009  0.1807086E+03  0.7818608E-02  0.1167119E+00
         -4   -1    0    0    0  501 -0.00000000000E+00  0.00000000000E+00  0.29205693607E+02  0.29233293333E+02  0.12700000000E+01 0.  1.
          4   -1    0    0  501    0  0.00000000000E+00 -0.00000000000E+00 -0.15227954966E+04  0.15227960262E+04  0.12700000000E+01 0.  1.
    8880022    1    1    2    0    0 -0.44734514722E+02 -0.85221876735E+02 -0.34648680441E+03  0.39077961018E+03  0.15294330000E+03 0.  0.
    8880022    1    1    2    0    0  0.44734514722E+02  0.85221876735E+02 -0.11471029986E+04  0.11612497093E+04  0.15294330000E+03 0.  0.
<mgrwt>
<rscale>  0 0.18070860E+03</rscale>
<asrwt>0</asrwt>
<pdfrwt beam="1">  1        4 0.23427833E+00 0.18070860E+03</pdfrwt>
<pdfrwt beam="2">  1       -4 0.44953486E-02 0.18070860E+03</pdfrwt>
<totfact> 0.44826092E+01</totfact>
</mgrwt>
</event>
<event>
 4    1  0.8742165E-009  0.1947419E+03  0.7818608E-02  0.1154253E+00
          4   -1    0    0  501    0  0.00000000000E+00  0.00000000000E+00  0.20029662801E+04  0.20029666827E+04  0.12700000000E+01 0.  1.
         -4   -1    0    0    0  501 -0.00000000000E+00 -0.00000000000E+00 -0.50183077254E+02  0.50199144840E+02  0.12700000000E+01 0.  1.
    8880022    1    1    2    0    0  0.43245944425E+02 -0.11252800807E+03  0.17865225679E+04  0.17971052565E+04  0.15294330000E+03 0.  0.
    8880022    1    1    2    0    0 -0.43245944425E+02  0.11252800807E+03  0.16626063495E+03  0.25606057108E+03  0.15294330000E+03 0.  0.
<mgrwt>
<rscale>  0 0.19474192E+03</rscale>
<asrwt>0</asrwt>
<pdfrwt beam="1">  1        4 0.30814998E+00 0.19474192E+03</pdfrwt>
<pdfrwt beam="2">  1       -4 0.77217390E-02 0.19474192E+03</pdfrwt>
<totfact> 0.68846728E+00</totfact>
</mgrwt>
</event>
<event>
 4    1  0.8742165E-009  0.4207735E+03  0.7818608E-02  0.1036815E+00
         -4   -1    0    0    0  501 -0.00000000000E+00  0.00000000000E+00  0.19155864974E+04  0.19155869184E+04  0.12700000000E+01 0. -1.
          4   -1    0    0  501    0  0.00000000000E+00 -0.00000000000E+00 -0.94696041276E+02  0.94704557089E+02  0.12700000000E+01 0. -1.
    8880022    1    1    2    0    0 -0.21635029283E+03  0.32688112360E+03  0.75466987783E+03  0.86404687124E+03  0.15294330000E+03 0.  0.
    8880022    1    1    2    0    0  0.21635029283E+03 -0.32688112360E+03  0.10662205783E+04  0.11462446042E+04  0.15294330000E+03 0.  0.
<mgrwt>
<rscale>  0 0.42077354E+03</rscale>
<asrwt>0</asrwt>
<pdfrwt beam="1">  1        4 0.14569309E-01 0.42077354E+03</pdfrwt>
<pdfrwt beam="2">  1       -4 0.29470631E+00 0.42077354E+03</pdfrwt>
<totfact> 0.28159786E+00</totfact>
</mgrwt>
</event>
<event>
 4    1  0.8742165E-009  0.2399584E+03  0.7818608E-02  0.1119821E+00
         -4   -1    0    0    0  501 -0.00000000000E+00  0.00000000000E+00  0.76793877497E+03  0.76793982512E+03  0.12700000000E+01 0.  1.
          4   -1    0    0  501    0  0.00000000000E+00 -0.00000000000E+00 -0.10672480780E+03  0.10673236388E+03  0.12700000000E+01 0.  1.
    8880022    1    1    2    0    0 -0.17681474249E+03  0.54082732899E+02  0.56913672891E+03  0.61765416243E+03  0.15294330000E+03 0.  0.
    8880022    1    1    2    0    0  0.17681474249E+03 -0.54082732899E+02  0.92077238256E+02  0.25701802656E+03  0.15294330000E+03 0.  0.
<mgrwt>
<rscale>  0 0.23995843E+03</rscale>
<asrwt>0</asrwt>
<pdfrwt beam="1">  1        4 0.16419863E-01 0.23995843E+03</pdfrwt>
<pdfrwt beam="2">  1       -4 0.11814509E+00 0.23995843E+03</pdfrwt>
<totfact> 0.33479068E+01</totfact>
</mgrwt>
</event>
<event>
 4    1  0.8742165E-009  0.1959738E+03  0.7818608E-02  0.1153181E+00
         -4   -1    0    0    0  501 -0.00000000000E+00  0.00000000000E+00  0.17641348506E+03  0.17641805637E+03  0.12700000000E+01 0.  1.
          4   -1    0    0  501    0  0.00000000000E+00 -0.00000000000E+00 -0.22796125672E+03  0.22796479435E+03  0.12700000000E+01 0.  1.
    8880022    1    1    2    0    0 -0.12246152072E+03 -0.41522204240E+01  0.17136262090E+02  0.19672155318E+03  0.15294330000E+03 0.  0.
    8880022    1    1    2    0    0  0.12246152072E+03  0.41522204240E+01 -0.68684033745E+02  0.20766129754E+03  0.15294330000E+03 0.  0.
<mgrwt>
<rscale>  0 0.19597377E+03</rscale>
<asrwt>0</asrwt>
<pdfrwt beam="1">  1        4 0.35071586E-01 0.19597377E+03</pdfrwt>
<pdfrwt beam="2">  1       -4 0.27141160E-01 0.19597377E+03</pdfrwt>
<totfact> 0.17931205E+02</totfact>
</mgrwt>
</event>
<event>
 4    1  0.8742165E-009  0.2673585E+03  0.7818608E-02  0.1102801E+00
          4   -1    0    0  501    0  0.00000000000E+00  0.00000000000E+00  0.49944095888E+02  0.49960240332E+02  0.12700000000E+01 0. -1.
         -4   -1    0    0    0  501 -0.00000000000E+00 -0.00000000000E+00 -0.15848025090E+04  0.15848030178E+04  0.12700000000E+01 0. -1.
    8880022    1    1    2    0    0 -0.91871591798E+01  0.21909933934E+03 -0.51276525731E+03  0.57828088894E+03  0.15294330000E+03 0.  0.
    8880022    1    1    2    0    0  0.91871591798E+01 -0.21909933934E+03 -0.10220931558E+04  0.10564823692E+04  0.15294330000E+03 0.  0.
<mgrwt>
<rscale>  0 0.26735852E+03</rscale>
<asrwt>0</asrwt>
<pdfrwt beam="1">  1        4 0.76849893E-02 0.26735852E+03</pdfrwt>
<pdfrwt beam="2">  1       -4 0.24381701E+00 0.26735852E+03</pdfrwt>
<totfact> 0.16837220E+01</totfact>
</mgrwt>
</event>
<event>
 4    1  0.8742165E-009  0.2280387E+03  0.7818608E-02  0.1128028E+00
         -4   -1    0    0    0  501 -0.00000000000E+00  0.00000000000E+00  0.17139060647E+03  0.17139531174E+03  0.12700000000E+01 0.  1.
          4   -1    0    0  501    0  0.00000000000E+00 -0.00000000000E+00 -0.32746529168E+03  0.32746775438E+03  0.12700000000E+01 0.  1.
    8880022    1    1    2    0    0  0.82749784146E+02  0.14752109733E+03 -0.10419753793E+02  0.22827664186E+03  0.15294330000E+03 0.  0.
    8880022    1    1    2    0    0 -0.82749784146E+02 -0.14752109733E+03 -0.14565493142E+03  0.27058642426E+03  0.15294330000E+03 0.  0.
<mgrwt>
<rscale>  0 0.22803871E+03</rscale>
<asrwt>0</asrwt>
<pdfrwt beam="1">  1        4 0.50379827E-01 0.22803871E+03</pdfrwt>
<pdfrwt beam="2">  1       -4 0.26368337E-01 0.22803871E+03</pdfrwt>
<totfact> 0.93624260E+01</totfact>
</mgrwt>
</event>
<event>
 4    1  0.8742165E-009  0.3571320E+03  0.7818608E-02  0.1059725E+00
          4   -1    0    0  501    0  0.00000000000E+00  0.00000000000E+00  0.16878719896E+03  0.16879197680E+03  0.12700000000E+01 0. -1.
         -4   -1    0    0    0  501 -0.00000000000E+00 -0.00000000000E+00 -0.15994622947E+04  0.15994627989E+04  0.12700000000E+01 0.  1.
    8880022    1    1    2    0    0 -0.32240232528E+03 -0.14434048877E+02 -0.73159674539E+02  0.36454847704E+03  0.15294330000E+03 0.  0.
    8880022    1    1    2    0    0  0.32240232528E+03  0.14434048877E+02 -0.13575154212E+04  0.14037062987E+04  0.15294330000E+03 0.  1.
<mgrwt>
<rscale>  0 0.35713198E+03</rscale>
<asrwt>0</asrwt>
<pdfrwt beam="1">  1        4 0.25967669E-01 0.35713198E+03</pdfrwt>
<pdfrwt beam="2">  1       -4 0.24607152E+00 0.35713198E+03</pdfrwt>
<totfact> 0.19094760E+00</totfact>
</mgrwt>
</event>
<event>
 4    1  0.8742165E-009  0.1627567E+03  0.7818608E-02  0.1185619E+00
          4   -1    0    0  501    0  0.00000000000E+00  0.00000000000E+00  0.12011908620E+03  0.12012579976E+03  0.12700000000E+01 0. -1.
         -4   -1    0    0    0  501 -0.00000000000E+00 -0.00000000000E+00 -0.22224389854E+03  0.22224752718E+03  0.12700000000E+01 0. -1.
    8880022    1    1    2    0    0  0.54916393022E+02 -0.90706874513E+01 -0.66163887613E+02  0.17569120818E+03  0.15294330000E+03 0.  1.
    8880022    1    1    2    0    0 -0.54916393022E+02  0.90706874513E+01 -0.35960924730E+02  0.16668211876E+03  0.15294330000E+03 0.  1.
<mgrwt>
<rscale>  0 0.16275669E+03</rscale>
<asrwt>0</asrwt>
<pdfrwt beam="1">  1        4 0.18480655E-01 0.16275669E+03</pdfrwt>
<pdfrwt beam="2">  1       -4 0.34192165E-01 0.16275669E+03</pdfrwt>
<totfact> 0.36978867E+02</totfact>
</mgrwt>
</event>
<event>
 4    1  0.8742165E-009  0.1748119E+03  0.7818608E-02  0.1172921E+00
          4   -1    0    0  501    0  0.00000000000E+00  0.00000000000E+00  0.18634349139E+03  0.18634781910E+03  0.12700000000E+01 0.  1.
         -4   -1    0    0    0  501 -0.00000000000E+00 -0.00000000000E+00 -0.16753767117E+03  0.16754248465E+03  0.12700000000E+01 0.  1.
    8880022    1    1    2    0    0 -0.32715276121E+01 -0.84598101076E+02 -0.16362417019E+02  0.17557597587E+03  0.15294330000E+03 0.  0.
    8880022    1    1    2    0    0  0.32715276121E+01  0.84598101076E+02  0.35168237235E+02  0.17831432787E+03  0.15294330000E+03 0.  0.
<mgrwt>
<rscale>  0 0.17481188E+03</rscale>
<asrwt>0</asrwt>
<pdfrwt beam="1">  1        4 0.28668933E-01 0.17481188E+03</pdfrwt>
<pdfrwt beam="2">  1       -4 0.25775729E-01 0.17481188E+03</pdfrwt>
<totfact> 0.28541953E+02</totfact>
</mgrwt>
</event>
<event>
 4    1  0.8742165E-009  0.1701932E+03  0.7818608E-02  0.1177647E+00
         -4   -1    0    0    0  501 -0.00000000000E+00  0.00000000000E+00  0.57006113847E+02  0.57020258820E+02  0.12700000000E+01 0. -1.
          4   -1    0    0  501    0  0.00000000000E+00 -0.00000000000E+00 -0.56430296725E+03  0.56430439636E+03  0.12700000000E+01 0. -1.
    8880022    1    1    2    0    0  0.74405681392E+02  0.61541965107E+01 -0.15555399098E+03  0.23057054600E+03  0.15294330000E+03 0.  0.
    8880022    1    1    2    0    0 -0.74405681392E+02 -0.61541965107E+01 -0.35174286242E+03  0.39075410918E+03  0.15294330000E+03 0.  0.
<mgrwt>
<rscale>  0 0.17019322E+03</rscale>
<asrwt>0</asrwt>
<pdfrwt beam="1">  1        4 0.86817035E-01 0.17019322E+03</pdfrwt>
<pdfrwt beam="2">  1       -4 0.87713698E-02 0.17019322E+03</pdfrwt>
<totfact> 0.19432146E+02</totfact>
</mgrwt>
</event>
<event>
 4    1  0.8742165E-009  0.3421051E+03  0.7818608E-02  0.1065903E+00
          4   -1    0    0  501    0  0.00000000000E+00  0.00000000000E+00  0.82339547470E+02  0.82349341088E+02  0.12700000000E+01 0. -1.
         -4   -1    0    0    0  501 -0.00000000000E+00 -0.00000000000E+00 -0.15221263926E+04  0.15221269225E+04  0.12700000000E+01 0. -1.
    8880022    1    1    2    0    0 -0.24070464210E+03  0.18895901835E+03 -0.51340659457E+03  0.61694588069E+03  0.15294330000E+03 0.  0.
    8880022    1    1    2    0    0  0.24070464210E+03 -0.18895901835E+03 -0.92638025059E+03  0.98753038285E+03  0.15294330000E+03 0.  0.
<mgrwt>
<rscale>  0 0.34210508E+03</rscale>
<asrwt>0</asrwt>
<pdfrwt beam="1">  1        4 0.12668418E-01 0.34210508E+03</pdfrwt>
<pdfrwt beam="2">  1       -4 0.23417407E+00 0.34210508E+03</pdfrwt>
<totfact> 0.82794783E+00</totfact>
</mgrwt>
</event>
<event>
 4    1  0.8742165E-009  0.3026897E+03  0.7818608E-02  0.1083904E+00
          4   -1    0    0  501    0  0.00000000000E+00  0.00000000000E+00  0.36574947750E+03  0.36575168241E+03  0.12700000000E+01 0. -1.
         -4   -1    0    0    0  501 -0.00000000000E+00 -0.00000000000E+00 -0.49736455248E+03  0.49736617392E+03  0.12700000000E+01 0. -1.
    8880022    1    1    2    0    0 -0.16244746030E+03 -0.20454879869E+03  0.23823345428E+03  0.38519633975E+03  0.15294330000E+03 0.  0.
    8880022    1    1    2    0    0  0.16244746030E+03  0.20454879869E+03 -0.36984852926E+03  0.47792151659E+03  0.15294330000E+03 0.  0.
<mgrwt>
<rscale>  0 0.30268968E+03</rscale>
<asrwt>0</asrwt>
<pdfrwt beam="1">  1        4 0.56269445E-01 0.30268968E+03</pdfrwt>
<pdfrwt beam="2">  1       -4 0.76517918E-01 0.30268968E+03</pdfrwt>
<totfact> 0.87196332E+00</totfact>
</mgrwt>
</event>
<event>
 4    1  0.8742165E-009  0.1946464E+03  0.7818608E-02  0.1154336E+00
         -4   -1    0    0    0  501 -0.00000000000E+00  0.00000000000E+00  0.20064488746E+03  0.20064890671E+03  0.12700000000E+01 0. -1.
          4   -1    0    0  501    0  0.00000000000E+00 -0.00000000000E+00 -0.19418324934E+03  0.19418740233E+03  0.12700000000E+01 0. -1.
    8880022    1    1    2    0    0 -0.11985597703E+03 -0.11405945923E+02 -0.29580368503E+02  0.19688118764E+03  0.15294330000E+03 0. -1.
    8880022    1    1    2    0    0  0.11985597703E+03  0.11405945923E+02  0.36042006629E+02  0.19795512140E+03  0.15294330000E+03 0. -1.
<mgrwt>
<rscale>  0 0.19464636E+03</rscale>
<asrwt>0</asrwt>
<pdfrwt beam="1">  1        4 0.29874975E-01 0.19464636E+03</pdfrwt>
<pdfrwt beam="2">  1       -4 0.30869073E-01 0.19464636E+03</pdfrwt>
<totfact> 0.19108546E+02</totfact>
</mgrwt>
</event>
<event>
 4    1  0.8742165E-009  0.2421309E+03  0.7818608E-02  0.1118381E+00
         -4   -1    0    0    0  501 -0.00000000000E+00  0.00000000000E+00  0.48446661655E+03  0.48446828117E+03  0.12700000000E+01 0. -1.
          4   -1    0    0  501    0  0.00000000000E+00 -0.00000000000E+00 -0.12354884459E+03  0.12355537179E+03  0.12700000000E+01 0. -1.
    8880022    1    1    2    0    0 -0.18360524525E+03 -0.39049339863E+02  0.13687241008E+03  0.27813925772E+03  0.15294330000E+03 0.  0.
    8880022    1    1    2    0    0  0.18360524525E+03  0.39049339863E+02  0.22404536188E+03  0.32988439524E+03  0.15294330000E+03 0.  0.
<mgrwt>
<rscale>  0 0.24213094E+03</rscale>
<asrwt>0</asrwt>
<pdfrwt beam="1">  1        4 0.19008145E-01 0.24213094E+03</pdfrwt>
<pdfrwt beam="2">  1       -4 0.74533956E-01 0.24213094E+03</pdfrwt>
<totfact> 0.74770892E+01</totfact>
</mgrwt>
</event>
<event>
 4    1  0.8742165E-009  0.1765102E+03  0.7818608E-02  0.1171224E+00
          4   -1    0    0  501    0  0.00000000000E+00  0.00000000000E+00  0.34183011857E+02  0.34206595849E+02  0.12700000000E+01 0.  1.
         -4   -1    0    0    0  501 -0.00000000000E+00 -0.00000000000E+00 -0.10134492502E+04  0.10134500459E+04  0.12700000000E+01 0.  1.
    8880022    1    1    2    0    0 -0.15574594357E+02 -0.86727372757E+02 -0.65609535139E+03  0.67942399745E+03  0.15294330000E+03 0.  0.
    8880022    1    1    2    0    0  0.15574594357E+02  0.86727372757E+02 -0.32317088693E+03  0.36823264433E+03  0.15294330000E+03 0.  0.
<mgrwt>
<rscale>  0 0.17651022E+03</rscale>
<asrwt>0</asrwt>
<pdfrwt beam="1">  1        4 0.52608010E-02 0.17651022E+03</pdfrwt>
<pdfrwt beam="2">  1       -4 0.15591712E+00 0.17651022E+03</pdfrwt>
<totfact> 0.11059074E+02</totfact>
</mgrwt>
</event>
<event>
 4    1  0.8742165E-009  0.1719149E+03  0.7818608E-02  0.1175865E+00
         -4   -1    0    0    0  501 -0.00000000000E+00  0.00000000000E+00  0.25195506551E+04  0.25195509752E+04  0.12700000000E+01 0.  1.
          4   -1    0    0  501    0  0.00000000000E+00 -0.00000000000E+00 -0.11997659533E+02  0.12064689563E+02  0.12700000000E+01 0.  1.
    8880022    1    1    2    0    0  0.73531639448E+02  0.27498747043E+02  0.10534529696E+04  0.10673883526E+04  0.15294330000E+03 0.  0.
    8880022    1    1    2    0    0 -0.73531639448E+02 -0.27498747043E+02  0.14541000260E+04  0.14642273122E+04  0.15294330000E+03 0.  0.
<mgrwt>
<rscale>  0 0.17191491E+03</rscale>
<asrwt>0</asrwt>
<pdfrwt beam="1">  1        4 0.18509744E-02 0.17191491E+03</pdfrwt>
<pdfrwt beam="2">  1       -4 0.38762838E+00 0.17191491E+03</pdfrwt>
<totfact> 0.21719940E+01</totfact>
</mgrwt>
</event>
<event>
 4    1  0.8742165E-009  0.1791682E+03  0.7818608E-02  0.1168610E+00
         -4   -1    0    0    0  501 -0.00000000000E+00  0.00000000000E+00  0.84653710247E+02  0.84663236169E+02  0.12700000000E+01 0. -1.
          4   -1    0    0  501    0  0.00000000000E+00 -0.00000000000E+00 -0.68604052806E+03  0.68604170357E+03  0.12700000000E+01 0. -1.
    8880022    1    1    2    0    0 -0.91562688990E+02  0.18051968786E+02 -0.42969953200E+02  0.18424893347E+03  0.15294330000E+03 0.  0.
    8880022    1    1    2    0    0  0.91562688990E+02 -0.18051968786E+02 -0.55841686461E+03  0.58645600627E+03  0.15294330000E+03 0.  0.
<mgrwt>
<rscale>  0 0.17916822E+03</rscale>
<asrwt>0</asrwt>
<pdfrwt beam="1">  1        4 0.10554552E+00 0.17916822E+03</pdfrwt>
<pdfrwt beam="2">  1       -4 0.13024471E-01 0.17916822E+03</pdfrwt>
<totfact> 0.63648618E+01</totfact>
</mgrwt>
</event>
<event>
 4    1  0.8742165E-009  0.2328091E+03  0.7818608E-02  0.1124678E+00
          4   -1    0    0  501    0  0.00000000000E+00  0.00000000000E+00  0.57655238842E+02  0.57669224599E+02  0.12700000000E+01 0.  1.
         -4   -1    0    0    0  501 -0.00000000000E+00 -0.00000000000E+00 -0.95001642388E+03  0.95001727276E+03  0.12700000000E+01 0.  1.
    8880022    1    1    2    0    0  0.12007946912E+03  0.12802081262E+03 -0.39429960029E+03  0.45789980910E+03  0.15294330000E+03 0.  0.
    8880022    1    1    2    0    0 -0.12007946912E+03 -0.12802081262E+03 -0.49806158475E+03  0.54978668826E+03  0.15294330000E+03 0.  0.
<mgrwt>
<rscale>  0 0.23280906E+03</rscale>
<asrwt>0</asrwt>
<pdfrwt beam="1">  1        4 0.88711786E-02 0.23280906E+03</pdfrwt>
<pdfrwt beam="2">  1       -4 0.14615750E+00 0.23280906E+03</pdfrwt>
<totfact> 0.56996256E+01</totfact>
</mgrwt>
</event>
<event>
 4    1  0.8742165E-009  0.3062700E+03  0.7818608E-02  0.1082148E+00
         -4   -1    0    0    0  501 -0.00000000000E+00  0.00000000000E+00  0.58398432892E+03  0.58398570986E+03  0.12700000000E+01 0.  1.
          4   -1    0    0  501    0  0.00000000000E+00 -0.00000000000E+00 -0.22578420002E+03  0.22578777176E+03  0.12700000000E+01 0.  1.
    8880022    1    1    2    0    0  0.19055604445E+03  0.18465658895E+03  0.39661518772E+03  0.50110370390E+03  0.15294330000E+03 0.  0.
    8880022    1    1    2    0    0 -0.19055604445E+03 -0.18465658895E+03 -0.38415058821E+02  0.30866977772E+03  0.15294330000E+03 0.  0.
<mgrwt>
<rscale>  0 0.30627000E+03</rscale>
<asrwt>0</asrwt>
<pdfrwt beam="1">  1        4 0.34736411E-01 0.30627000E+03</pdfrwt>
<pdfrwt beam="2">  1       -4 0.89844125E-01 0.30627000E+03</pdfrwt>
<totfact> 0.16163235E+01</totfact>
</mgrwt>
</event>
<event>
 4    1  0.8742165E-009  0.1651969E+03  0.7818608E-02  0.1182951E+00
         -4   -1    0    0    0  501 -0.00000000000E+00  0.00000000000E+00  0.30053908106E+02  0.30080729586E+02  0.12700000000E+01 0.  1.
          4   -1    0    0  501    0  0.00000000000E+00 -0.00000000000E+00 -0.98951935245E+03  0.98952016745E+03  0.12700000000E+01 0.  1.
    8880022    1    1    2    0    0  0.30881514205E+01 -0.62360500568E+02 -0.33305433022E+03  0.37177306062E+03  0.15294330000E+03 0.  0.
    8880022    1    1    2    0    0 -0.30881514205E+01  0.62360500568E+02 -0.62641111413E+03  0.64782783641E+03  0.15294330000E+03 0.  0.
<mgrwt>
<rscale>  0 0.16519692E+03</rscale>
<asrwt>0</asrwt>
<pdfrwt beam="1">  1        4 0.15223585E+00 0.16519692E+03</pdfrwt>
<pdfrwt beam="2">  1       -4 0.46258048E-02 0.16519692E+03</pdfrwt>
<totfact> 0.14344971E+02</totfact>
</mgrwt>
</event>
<event>
 4    1  0.8742165E-009  0.2098504E+03  0.7818608E-02  0.1141684E+00
         -4   -1    0    0    0  501 -0.00000000000E+00  0.00000000000E+00  0.51316726309E+03  0.51316883460E+03  0.12700000000E+01 0.  1.
          4   -1    0    0  501    0  0.00000000000E+00 -0.00000000000E+00 -0.93152772697E+02  0.93161429578E+02  0.12700000000E+01 0.  1.
    8880022    1    1    2    0    0 -0.13298433837E+03 -0.54412468172E+02  0.29512932871E+03  0.36213053534E+03  0.15294330000E+03 0.  0.
    8880022    1    1    2    0    0  0.13298433837E+03  0.54412468172E+02  0.12488516168E+03  0.24419972884E+03  0.15294330000E+03 0.  0.
<mgrwt>
<rscale>  0 0.20985043E+03</rscale>
<asrwt>0</asrwt>
<pdfrwt beam="1">  1        4 0.14331982E-01 0.20985043E+03</pdfrwt>
<pdfrwt beam="2">  1       -4 0.78949598E-01 0.20985043E+03</pdfrwt>
<totfact> 0.10687348E+02</totfact>
</mgrwt>
</event>
<event>
 4    1  0.8742165E-009  0.1881163E+03  0.7818608E-02  0.1160171E+00
          4   -1    0    0  501    0  0.00000000000E+00  0.00000000000E+00  0.17522073230E+03  0.17522533472E+03  0.12700000000E+01 0.  1.
         -4   -1    0    0    0  501 -0.00000000000E+00 -0.00000000000E+00 -0.24485465546E+03  0.24485794903E+03  0.12700000000E+01 0.  1.
    8880022    1    1    2    0    0  0.94105230689E+02  0.56038305623E+02  0.53103043849E+02  0.19546782963E+03  0.15294330000E+03 0.  0.
    8880022    1    1    2    0    0 -0.94105230689E+02 -0.56038305623E+02 -0.12273696701E+03  0.22461545411E+03  0.15294330000E+03 0.  0.
<mgrwt>
<rscale>  0 0.18811629E+03</rscale>
<asrwt>0</asrwt>
<pdfrwt beam="1">  1        4 0.26957643E-01 0.18811629E+03</pdfrwt>
<pdfrwt beam="2">  1       -4 0.37670555E-01 0.18811629E+03</pdfrwt>
<totfact> 0.15697350E+02</totfact>
</mgrwt>
</event>
<event>
 4    1  0.8742165E-009  0.1892470E+03  0.7818608E-02  0.1159142E+00
         -4   -1    0    0    0  501 -0.00000000000E+00  0.00000000000E+00  0.95550439753E+03  0.95550524153E+03  0.12700000000E+01 0.  1.
          4   -1    0    0  501    0  0.00000000000E+00 -0.00000000000E+00 -0.39799876992E+02  0.39820134462E+02  0.12700000000E+01 0.  1.
    8880022    1    1    2    0    0  0.10979184898E+03  0.19196642616E+02  0.57821367266E+03  0.60839581315E+03  0.15294330000E+03 0. -1.
    8880022    1    1    2    0    0 -0.10979184898E+03 -0.19196642616E+02  0.33749084787E+03  0.38692956284E+03  0.15294330000E+03 0. -1.
<mgrwt>
<rscale>  0 0.18924697E+03</rscale>
<asrwt>0</asrwt>
<pdfrwt beam="1">  1        4 0.61246812E-02 0.18924697E+03</pdfrwt>
<pdfrwt beam="2">  1       -4 0.14700230E+00 0.18924697E+03</pdfrwt>
<totfact> 0.10141201E+02</totfact>
</mgrwt>
</event>
<event>
 4    1  0.8742165E-009  0.2394838E+03  0.7818608E-02  0.1120137E+00
         -4   -1    0    0    0  501 -0.00000000000E+00  0.00000000000E+00  0.43229388988E+03  0.43229575539E+03  0.12700000000E+01 0. -1.
          4   -1    0    0  501    0  0.00000000000E+00 -0.00000000000E+00 -0.15307732415E+03  0.15308259231E+03  0.12700000000E+01 0. -1.
    8880022    1    1    2    0    0 -0.12659766066E+03 -0.13391748300E+03  0.32730665649E+02  0.24171017650E+03  0.15294330000E+03 0.  0.
    8880022    1    1    2    0    0  0.12659766066E+03  0.13391748300E+03  0.24648590009E+03  0.34366817120E+03  0.15294330000E+03 0.  0.
<mgrwt>
<rscale>  0 0.23948385E+03</rscale>
<asrwt>0</asrwt>
<pdfrwt beam="1">  1        4 0.23550906E-01 0.23948385E+03</pdfrwt>
<pdfrwt beam="2">  1       -4 0.66507301E-01 0.23948385E+03</pdfrwt>
<totfact> 0.64701364E+01</totfact>
</mgrwt>
</event>
<event>
 4    1  0.8742165E-009  0.1556072E+03  0.7818608E-02  0.1193747E+00
          4   -1    0    0  501    0  0.00000000000E+00  0.00000000000E+00  0.10443815825E+03  0.10444587976E+03  0.12700000000E+01 0.  1.
         -4   -1    0    0    0  501 -0.00000000000E+00 -0.00000000000E+00 -0.26139942980E+03  0.26140251491E+03  0.12700000000E+01 0.  1.
    8880022    1    1    2    0    0 -0.22638412462E+02 -0.17591107778E+02 -0.14000456753E+03  0.20932003424E+03  0.15294330000E+03 0. -1.
    8880022    1    1    2    0    0  0.22638412462E+02  0.17591107778E+02 -0.16956704019E+02  0.15652836043E+03  0.15294330000E+03 0. -1.
<mgrwt>
<rscale>  0 0.15560719E+03</rscale>
<asrwt>0</asrwt>
<pdfrwt beam="1">  1        4 0.16068240E-01 0.15560719E+03</pdfrwt>
<pdfrwt beam="2">  1       -4 0.40216128E-01 0.15560719E+03</pdfrwt>
<totfact> 0.34261349E+02</totfact>
</mgrwt>
</event>
<event>
 4    1  0.8742165E-009  0.2297951E+03  0.7818608E-02  0.1126784E+00
          4   -1    0    0  501    0  0.00000000000E+00  0.00000000000E+00  0.20627693150E+03  0.20628084102E+03  0.12700000000E+01 0. -1.
         -4   -1    0    0    0  501 -0.00000000000E+00 -0.00000000000E+00 -0.28934025671E+03  0.28934304390E+03  0.12700000000E+01 0. -1.
    8880022    1    1    2    0    0 -0.12474047033E+03 -0.11770274150E+03 -0.12566807949E+03  0.26191265627E+03  0.15294330000E+03 0.  0.
    8880022    1    1    2    0    0  0.12474047033E+03  0.11770274150E+03  0.42604754282E+02  0.23371122865E+03  0.15294330000E+03 0.  0.
<mgrwt>
<rscale>  0 0.22979507E+03</rscale>
<asrwt>0</asrwt>
<pdfrwt beam="1">  1        4 0.31735428E-01 0.22979507E+03</pdfrwt>
<pdfrwt beam="2">  1       -4 0.44514401E-01 0.22979507E+03</pdfrwt>
<totfact> 0.84837930E+01</totfact>
</mgrwt>
</event>
<event>
 4    1  0.8742165E-009  0.2631861E+03  0.7818608E-02  0.1105244E+00
         -4   -1    0    0    0  501 -0.00000000000E+00  0.00000000000E+00  0.18553294673E+03  0.18553729335E+03  0.12700000000E+01 0.  1.
          4   -1    0    0  501    0  0.00000000000E+00 -0.00000000000E+00 -0.37396067939E+03  0.37396283589E+03  0.12700000000E+01 0.  1.
    8880022    1    1    2    0    0 -0.15726129037E+03  0.14541033405E+03 -0.10569738264E+03  0.28361746845E+03  0.15294330000E+03 0.  0.
    8880022    1    1    2    0    0  0.15726129037E+03 -0.14541033405E+03 -0.82730350024E+02  0.27588266079E+03  0.15294330000E+03 0.  0.
<mgrwt>
<rscale>  0 0.26318612E+03</rscale>
<asrwt>0</asrwt>
<pdfrwt beam="1">  1        4 0.57532912E-01 0.26318612E+03</pdfrwt>
<pdfrwt beam="2">  1       -4 0.28544031E-01 0.26318612E+03</pdfrwt>
<totfact> 0.62133748E+01</totfact>
</mgrwt>
</event>
<event>
 4    1  0.8742165E-009  0.2902226E+03  0.7818608E-02  0.1090233E+00
         -4   -1    0    0    0  501 -0.00000000000E+00  0.00000000000E+00  0.35130497244E+03  0.35130726801E+03  0.12700000000E+01 0.  1.
          4   -1    0    0  501    0  0.00000000000E+00 -0.00000000000E+00 -0.29521377465E+03  0.29521650639E+03  0.12700000000E+01 0.  1.
    8880022    1    1    2    0    0 -0.91236987907E+02  0.22915788238E+03  0.16815367369E+03  0.33541740266E+03  0.15294330000E+03 0.  0.
    8880022    1    1    2    0    0  0.91236987907E+02 -0.22915788238E+03 -0.11206247591E+03  0.31110637174E+03  0.15294330000E+03 0.  0.
<mgrwt>
<rscale>  0 0.29022263E+03</rscale>
<asrwt>0</asrwt>
<pdfrwt beam="1">  1        4 0.45417891E-01 0.29022263E+03</pdfrwt>
<pdfrwt beam="2">  1       -4 0.54047305E-01 0.29022263E+03</pdfrwt>
<totfact> 0.28713481E+01</totfact>
</mgrwt>
</event>
<event>
 4    1  0.8742165E-009  0.1770486E+03  0.7818608E-02  0.1170690E+00
         -4   -1    0    0    0  501 -0.00000000000E+00  0.00000000000E+00  0.20560732078E+03  0.20561124302E+03  0.12700000000E+01 0. -1.
          4   -1    0    0  501    0  0.00000000000E+00 -0.00000000000E+00 -0.16104753018E+03  0.16105253763E+03  0.12700000000E+01 0. -1.
    8880022    1    1    2    0    0 -0.77574985798E+02 -0.44007739079E+02  0.64641178814E+02  0.18847995791E+03  0.15294330000E+03 0.  0.
    8880022    1    1    2    0    0  0.77574985798E+02  0.44007739079E+02 -0.20081388223E+02  0.17818382275E+03  0.15294330000E+03 0.  0.
<mgrwt>
<rscale>  0 0.17704862E+03</rscale>
<asrwt>0</asrwt>
<pdfrwt beam="1">  1        4 0.24777230E-01 0.17704862E+03</pdfrwt>
<pdfrwt beam="2">  1       -4 0.31632582E-01 0.17704862E+03</pdfrwt>
<totfact> 0.25530225E+02</totfact>
</mgrwt>
</event>
<event>
 4    1  0.8742165E-009  0.2177660E+03  0.7818608E-02  0.1135560E+00
          4   -1    0    0  501    0  0.00000000000E+00  0.00000000000E+00  0.17598295049E+04  0.17598299631E+04  0.12700000000E+01 0.  1.
         -4   -1    0    0    0  501 -0.00000000000E+00 -0.00000000000E+00 -0.27017724793E+02  0.27047557246E+02  0.12700000000E+01 0.  1.
    8880022    1    1    2    0    0 -0.48348738910E+02 -0.14728464397E+03  0.81596567130E+03  0.84452471643E+03  0.15294330000E+03 0.  0.
    8880022    1    1    2    0    0  0.48348738910E+02  0.14728464397E+03  0.91684610879E+03  0.94235280395E+03  0.15294330000E+03 0.  0.
<mgrwt>
<rscale>  0 0.21776598E+03</rscale>
<asrwt>0</asrwt>
<pdfrwt beam="1">  1        4 0.27074537E+00 0.21776598E+03</pdfrwt>
<pdfrwt beam="2">  1       -4 0.41589025E-02 0.21776598E+03</pdfrwt>
<totfact> 0.31539701E+01</totfact>
</mgrwt>
</event>
<event>
 4    1  0.8742165E-009  0.2115598E+03  0.7818608E-02  0.1140337E+00
          4   -1    0    0  501    0  0.00000000000E+00  0.00000000000E+00  0.22909073194E+02  0.22944248399E+02  0.12700000000E+01 0. -1.
         -4   -1    0    0    0  501 -0.00000000000E+00 -0.00000000000E+00 -0.19524063902E+04  0.19524068032E+04  0.12700000000E+01 0. -1.
    8880022    1    1    2    0    0 -0.14192229903E+03  0.34985016678E+02 -0.97562366129E+03  0.99829808767E+03  0.15294330000E+03 0.  1.
    8880022    1    1    2    0    0  0.14192229903E+03 -0.34985016678E+02 -0.95387365569E+03  0.97705296396E+03  0.15294330000E+03 0.  1.
<mgrwt>
<rscale>  0 0.21155979E+03</rscale>
<asrwt>0</asrwt>
<pdfrwt beam="1">  1        4 0.35272119E-02 0.21155979E+03</pdfrwt>
<pdfrwt beam="2">  1       -4 0.30037282E+00 0.21155979E+03</pdfrwt>
<totfact> 0.27468616E+01</totfact>
</mgrwt>
</event>
<event>
 4    1  0.8742165E-009  0.2204335E+03  0.7818608E-02  0.1133560E+00
         -4   -1    0    0    0  501 -0.00000000000E+00  0.00000000000E+00  0.14413505787E+03  0.14414065286E+03  0.12700000000E+01 0. -1.
          4   -1    0    0  501    0  0.00000000000E+00 -0.00000000000E+00 -0.36343028349E+03  0.36343250248E+03  0.12700000000E+01 0. -1.
    8880022    1    1    2    0    0  0.74417415643E+02  0.14021886400E+03 -0.17794735576E+03  0.28329524530E+03  0.15294330000E+03 0.  0.
    8880022    1    1    2    0    0 -0.74417415643E+02 -0.14021886400E+03 -0.41347869863E+02  0.22427791004E+03  0.15294330000E+03 0.  0.
<mgrwt>
<rscale>  0 0.22043352E+03</rscale>
<asrwt>0</asrwt>
<pdfrwt beam="1">  1        4 0.55912952E-01 0.22043352E+03</pdfrwt>
<pdfrwt beam="2">  1       -4 0.22175226E-01 0.22043352E+03</pdfrwt>
<totfact> 0.10354432E+02</totfact>
</mgrwt>
</event>
<event>
 4    1  0.8742165E-009  0.4096887E+03  0.7818608E-02  0.1040476E+00
          4   -1    0    0  501    0  0.00000000000E+00  0.00000000000E+00  0.16366787189E+03  0.16367279917E+03  0.12700000000E+01 0.  1.
         -4   -1    0    0    0  501 -0.00000000000E+00 -0.00000000000E+00 -0.10367838961E+04  0.10367846739E+04  0.12700000000E+01 0.  1.
    8880022    1    1    2    0    0 -0.84088671680E+02 -0.37065113170E+03 -0.49917594712E+03  0.64577197627E+03  0.15294330000E+03 0.  0.
    8880022    1    1    2    0    0  0.84088671680E+02  0.37065113170E+03 -0.37394007708E+03  0.55468549683E+03  0.15294330000E+03 0.  0.
<mgrwt>
<rscale>  0 0.40968869E+03</rscale>
<asrwt>0</asrwt>
<pdfrwt beam="1">  1        4 0.25180112E-01 0.40968869E+03</pdfrwt>
<pdfrwt beam="2">  1       -4 0.15950565E+00 0.40968869E+03</pdfrwt>
<totfact> 0.73977710E+00</totfact>
</mgrwt>
</event>
<event>
 4    1  0.8742165E-009  0.2520626E+03  0.7818608E-02  0.1112008E+00
          4   -1    0    0  501    0  0.00000000000E+00  0.00000000000E+00  0.91600274203E+02  0.91609077793E+02  0.12700000000E+01 0. -1.
         -4   -1    0    0    0  501 -0.00000000000E+00 -0.00000000000E+00 -0.72812189856E+03  0.72812300614E+03  0.12700000000E+01 0. -1.
    8880022    1    1    2    0    0 -0.19623822404E+03  0.40428369906E+02 -0.40753856625E+03  0.47919018110E+03  0.15294330000E+03 0.  0.
    8880022    1    1    2    0    0  0.19623822404E+03 -0.40428369906E+02 -0.22898305811E+03  0.34054190283E+03  0.15294330000E+03 0.  0.
<mgrwt>
<rscale>  0 0.25206258E+03</rscale>
<asrwt>0</asrwt>
<pdfrwt beam="1">  1        4 0.14093113E-01 0.25206258E+03</pdfrwt>
<pdfrwt beam="2">  1       -4 0.11201951E+00 0.25206258E+03</pdfrwt>
<totfact> 0.50121555E+01</totfact>
</mgrwt>
</event>
<event>
 4    1  0.8742165E-009  0.5005162E+03  0.7818608E-02  0.1013644E+00
         -4   -1    0    0    0  501 -0.00000000000E+00  0.00000000000E+00  0.31237134582E+04  0.31237137163E+04  0.12700000000E+01 0.  1.
          4   -1    0    0  501    0  0.00000000000E+00 -0.00000000000E+00 -0.21521794022E+03  0.21522168732E+03  0.12700000000E+01 0. -1.
    8880022    1    1    2    0    0  0.14222301360E+03  0.45485979632E+03  0.13192168731E+03  0.51760970287E+03  0.15294330000E+03 0.  0.
    8880022    1    1    2    0    0 -0.14222301360E+03 -0.45485979632E+03  0.27765738306E+04  0.28213257008E+04  0.15294330000E+03 0.  0.
<mgrwt>
<rscale>  0 0.50051621E+03</rscale>
<asrwt>0</asrwt>
<pdfrwt beam="1">  1        4 0.33110762E-01 0.50051621E+03</pdfrwt>
<pdfrwt beam="2">  1       -4 0.48057159E+00 0.50051621E+03</pdfrwt>
<totfact> 0.33828932E-02</totfact>
</mgrwt>
</event>
<event>
 4    1  0.8742165E-009  0.2160210E+03  0.7818608E-02  0.1136885E+00
         -4   -1    0    0    0  501 -0.00000000000E+00  0.00000000000E+00  0.25663677886E+03  0.25663992122E+03  0.12700000000E+01 0.  1.
          4   -1    0    0  501    0  0.00000000000E+00 -0.00000000000E+00 -0.18999210050E+03  0.18999634510E+03  0.12700000000E+01 0.  1.
    8880022    1    1    2    0    0 -0.42914964029E+01 -0.15249590500E+03  0.79617684556E+02  0.23022607735E+03  0.15294330000E+03 0.  0.
    8880022    1    1    2    0    0  0.42914964029E+01  0.15249590500E+03 -0.12973006191E+02  0.21641018897E+03  0.15294330000E+03 0.  0.
<mgrwt>
<rscale>  0 0.21602100E+03</rscale>
<asrwt>0</asrwt>
<pdfrwt beam="1">  1        4 0.29230122E-01 0.21602100E+03</pdfrwt>
<pdfrwt beam="2">  1       -4 0.39483149E-01 0.21602100E+03</pdfrwt>
<totfact> 0.12520668E+02</totfact>
</mgrwt>
</event>
<event>
 4    1  0.8742165E-009  0.3418528E+03  0.7818608E-02  0.1066010E+00
         -4   -1    0    0    0  501 -0.00000000000E+00  0.00000000000E+00  0.22336505114E+03  0.22336866157E+03  0.12700000000E+01 0.  1.
          4   -1    0    0  501    0  0.00000000000E+00 -0.00000000000E+00 -0.13244850166E+04  0.13244856254E+04  0.12700000000E+01 0.  1.
    8880022    1    1    2    0    0 -0.30477770170E+03 -0.24129792499E+02 -0.11525276194E+04  0.12021577521E+04  0.15294330000E+03 0.  0.
    8880022    1    1    2    0    0  0.30477770170E+03  0.24129792499E+02  0.51407654025E+02  0.34569653491E+03  0.15294330000E+03 0.  0.
<mgrwt>
<rscale>  0 0.34185282E+03</rscale>
<asrwt>0</asrwt>
<pdfrwt beam="1">  1        4 0.20376725E+00 0.34185282E+03</pdfrwt>
<pdfrwt beam="2">  1       -4 0.34364179E-01 0.34185282E+03</pdfrwt>
<totfact> 0.20263790E+00</totfact>
</mgrwt>
</event>
<event>
 4    1  0.8742165E-009  0.1615721E+03  0.7818608E-02  0.1186933E+00
          4   -1    0    0  501    0  0.00000000000E+00  0.00000000000E+00  0.27850961600E+03  0.27851251158E+03  0.12700000000E+01 0. -1.
         -4   -1    0    0    0  501 -0.00000000000E+00 -0.00000000000E+00 -0.10184874920E+03  0.10185666700E+03  0.12700000000E+01 0. -1.
    8880022    1    1    2    0    0 -0.21493343215E+02 -0.47454455698E+02  0.34621876414E+02  0.16523987566E+03  0.15294330000E+03 0.  0.
    8880022    1    1    2    0    0  0.21493343215E+02  0.47454455698E+02  0.14203899039E+03  0.21512930292E+03  0.15294330000E+03 0.  0.
<mgrwt>
<rscale>  0 0.16157210E+03</rscale>
<asrwt>0</asrwt>
<pdfrwt beam="1">  1        4 0.42848465E-01 0.16157210E+03</pdfrwt>
<pdfrwt beam="2">  1       -4 0.15669870E-01 0.16157210E+03</pdfrwt>
<totfact> 0.31785206E+02</totfact>
</mgrwt>
</event>
<event>
 4    1  0.8742165E-009  0.2550371E+03  0.7818608E-02  0.1110162E+00
          4   -1    0    0  501    0  0.00000000000E+00  0.00000000000E+00  0.52788958634E+02  0.52804233293E+02  0.12700000000E+01 0.  1.
         -4   -1    0    0    0  501 -0.00000000000E+00 -0.00000000000E+00 -0.15754887065E+04  0.15754892184E+04  0.12700000000E+01 0.  1.
    8880022    1    1    2    0    0 -0.33093750025E+01 -0.20406204512E+03 -0.11415188717E+04  0.11696620271E+04  0.15294330000E+03 0.  0.
    8880022    1    1    2    0    0  0.33093750025E+01  0.20406204512E+03 -0.38118087622E+03  0.45863142460E+03  0.15294330000E+03 0.  0.
<mgrwt>
<rscale>  0 0.25503710E+03</rscale>
<asrwt>0</asrwt>
<pdfrwt beam="1">  1        4 0.81225938E-02 0.25503710E+03</pdfrwt>
<pdfrwt beam="2">  1       -4 0.24238406E+00 0.25503710E+03</pdfrwt>
<totfact> 0.15605200E+01</totfact>
</mgrwt>
</event>
<event>
 4    1  0.8742165E-009  0.3532518E+03  0.7818608E-02  0.1061288E+00
         -4   -1    0    0    0  501 -0.00000000000E+00  0.00000000000E+00  0.36263773871E+03  0.36263996255E+03  0.12700000000E+01 0.  1.
          4   -1    0    0  501    0  0.00000000000E+00 -0.00000000000E+00 -0.38438897625E+03  0.38439107425E+03  0.12700000000E+01 0.  1.
    8880022    1    1    2    0    0  0.61471625816E+02 -0.31243631175E+03  0.11004210696E+03  0.36999476753E+03  0.15294330000E+03 0.  0.
    8880022    1    1    2    0    0 -0.61471625816E+02  0.31243631175E+03 -0.13179334450E+03  0.37703626927E+03  0.15294330000E+03 0.  0.
<mgrwt>
<rscale>  0 0.35325184E+03</rscale>
<asrwt>0</asrwt>
<pdfrwt beam="1">  1        4 0.59137098E-01 0.35325184E+03</pdfrwt>
<pdfrwt beam="2">  1       -4 0.55790754E-01 0.35325184E+03</pdfrwt>
<totfact> 0.15744744E+01</totfact>
</mgrwt>
</event>
<event>
 4    1  0.8742165E-009  0.1597126E+03  0.7818608E-02  0.1189022E+00
         -4   -1    0    0    0  501 -0.00000000000E+00  0.00000000000E+00  0.47993740759E+03  0.47993908791E+03  0.12700000000E+01 0.  1.
          4   -1    0    0  501    0  0.00000000000E+00 -0.00000000000E+00 -0.55908868390E+02  0.55923290897E+02  0.12700000000E+01 0.  1.
    8880022    1    1    2    0    0 -0.44165937835E+02 -0.12877388274E+02  0.15239153191E+03  0.22075164599E+03  0.15294330000E+03 0.  1.
    8880022    1    1    2    0    0  0.44165937835E+02  0.12877388274E+02  0.27163700729E+03  0.31511073282E+03  0.15294330000E+03 0.  1.
<mgrwt>
<rscale>  0 0.15971259E+03</rscale>
<asrwt>0</asrwt>
<pdfrwt beam="1">  1        4 0.86026033E-02 0.15971259E+03</pdfrwt>
<pdfrwt beam="2">  1       -4 0.73837761E-01 0.15971259E+03</pdfrwt>
<totfact> 0.28468537E+02</totfact>
</mgrwt>
</event>
<event>
 4    1  0.8742165E-009  0.1853008E+03  0.7818608E-02  0.1162769E+00
         -4   -1    0    0    0  501 -0.00000000000E+00  0.00000000000E+00  0.70460627071E+02  0.70472071541E+02  0.12700000000E+01 0.  1.
          4   -1    0    0  501    0  0.00000000000E+00 -0.00000000000E+00 -0.71033786889E+03  0.71033900419E+03  0.12700000000E+01 0.  1.
    8880022    1    1    2    0    0 -0.28351216146E+01  0.10457858883E+03 -0.53871819931E+03  0.56969612114E+03  0.15294330000E+03 0.  0.
    8880022    1    1    2    0    0  0.28351216146E+01 -0.10457858883E+03 -0.10115904250E+03  0.21111495459E+03  0.15294330000E+03 0.  0.
<mgrwt>
<rscale>  0 0.18530076E+03</rscale>
<asrwt>0</asrwt>
<pdfrwt beam="1">  1        4 0.10928371E+00 0.18530076E+03</pdfrwt>
<pdfrwt beam="2">  1       -4 0.10841065E-01 0.18530076E+03</pdfrwt>
<totfact> 0.80726355E+01</totfact>
</mgrwt>
</event>
<event>
 4    1  0.8742165E-009  0.2462568E+03  0.7818608E-02  0.1115694E+00
         -4   -1    0    0    0  501 -0.00000000000E+00  0.00000000000E+00  0.14243261634E+03  0.14243827820E+03  0.12700000000E+01 0.  1.
          4   -1    0    0  501    0  0.00000000000E+00 -0.00000000000E+00 -0.51365858096E+03  0.51366015097E+03  0.12700000000E+01 0.  1.
    8880022    1    1    2    0    0  0.31172204022E+02 -0.19047056081E+03 -0.49899856450E+02  0.25126159580E+03  0.15294330000E+03 0.  0.
    8880022    1    1    2    0    0 -0.31172204022E+02  0.19047056081E+03 -0.32132610817E+03  0.40483683336E+03  0.15294330000E+03 0.  0.
<mgrwt>
<rscale>  0 0.24625676E+03</rscale>
<asrwt>0</asrwt>
<pdfrwt beam="1">  1        4 0.79024952E-01 0.24625676E+03</pdfrwt>
<pdfrwt beam="2">  1       -4 0.21913267E-01 0.24625676E+03</pdfrwt>
<totfact> 0.50747567E+01</totfact>
</mgrwt>
</event>
<event>
 4    1  0.8742165E-009  0.1848103E+03  0.7818608E-02  0.1163227E+00
          4   -1    0    0  501    0  0.00000000000E+00  0.00000000000E+00  0.95662152584E+03  0.95662236886E+03  0.12700000000E+01 0. -1.
         -4   -1    0    0    0  501 -0.00000000000E+00 -0.00000000000E+00 -0.53338636245E+02  0.53353753537E+02  0.12700000000E+01 0. -1.
    8880022    1    1    2    0    0 -0.92829994808E+02  0.46322632492E+02  0.16122743448E+03  0.24525320153E+03  0.15294330000E+03 0.  1.
    8880022    1    1    2    0    0  0.92829994808E+02 -0.46322632492E+02  0.74205545512E+03  0.76472292087E+03  0.15294330000E+03 0.  1.
<mgrwt>
<rscale>  0 0.18481030E+03</rscale>
<asrwt>0</asrwt>
<pdfrwt beam="1">  1        4 0.14717375E+00 0.18481030E+03</pdfrwt>
<pdfrwt beam="2">  1       -4 0.82071728E-02 0.18481030E+03</pdfrwt>
<totfact> 0.62118834E+01</totfact>
</mgrwt>
</event>
<event>
 4    1  0.8742165E-009  0.1734511E+03  0.7818608E-02  0.1174296E+00
         -4   -1    0    0    0  501 -0.00000000000E+00  0.00000000000E+00  0.26235650689E+02  0.26266371410E+02  0.12700000000E+01 0.  1.
          4   -1    0    0  501    0  0.00000000000E+00 -0.00000000000E+00 -0.24603627208E+04  0.24603630486E+04  0.12700000000E+01 0.  1.
    8880022    1    1    2    0    0  0.32597062090E+02  0.75040427573E+02 -0.30834110808E+03  0.35377892274E+03  0.15294330000E+03 0.  0.
    8880022    1    1    2    0    0 -0.32597062090E+02 -0.75040427573E+02 -0.21257859621E+04  0.21328504973E+04  0.15294330000E+03 0.  0.
<mgrwt>
<rscale>  0 0.17345111E+03</rscale>
<asrwt>0</asrwt>
<pdfrwt beam="1">  1        4 0.37851955E+00 0.17345111E+03</pdfrwt>
<pdfrwt beam="2">  1       -4 0.40386442E-02 0.17345111E+03</pdfrwt>
<totfact> 0.73154787E+00</totfact>
</mgrwt>
</event>
<event>
 4    1  0.8742165E-009  0.2761676E+03  0.7818608E-02  0.1097801E+00
          4   -1    0    0  501    0  0.00000000000E+00  0.00000000000E+00  0.30593290809E+03  0.30593554411E+03  0.12700000000E+01 0. -1.
         -4   -1    0    0    0  501 -0.00000000000E+00 -0.00000000000E+00 -0.26929894488E+03  0.26930193949E+03  0.12700000000E+01 0. -1.
    8880022    1    1    2    0    0 -0.22982273665E+03 -0.76418921614E+01  0.96709655951E+02  0.29261117437E+03  0.15294330000E+03 0.  0.
    8880022    1    1    2    0    0  0.22982273665E+03  0.76418921614E+01 -0.60075692744E+02  0.28262630923E+03  0.15294330000E+03 0.  0.
<mgrwt>
<rscale>  0 0.27616760E+03</rscale>
<asrwt>0</asrwt>
<pdfrwt beam="1">  1        4 0.47067034E-01 0.27616760E+03</pdfrwt>
<pdfrwt beam="2">  1       -4 0.41431040E-01 0.27616760E+03</pdfrwt>
<totfact> 0.45810966E+01</totfact>
</mgrwt>
</event>
<event>
 4    1  0.8742165E-009  0.1623258E+03  0.7818608E-02  0.1186096E+00
         -4   -1    0    0    0  501 -0.00000000000E+00  0.00000000000E+00  0.14710776023E+03  0.14711324216E+03  0.12700000000E+01 0.  1.
          4   -1    0    0  501    0  0.00000000000E+00 -0.00000000000E+00 -0.30239170016E+03  0.30239436706E+03  0.12700000000E+01 0.  1.
    8880022    1    1    2    0    0 -0.95486230283E+01 -0.53542822192E+02  0.65864057229E+02  0.17517915704E+03  0.15294330000E+03 0.  0.
    8880022    1    1    2    0    0  0.95486230283E+01  0.53542822192E+02 -0.22114799717E+03  0.27432845218E+03  0.15294330000E+03 0.  0.
<mgrwt>
<rscale>  0 0.16232579E+03</rscale>
<asrwt>0</asrwt>
<pdfrwt beam="1">  1        4 0.46522427E-01 0.16232579E+03</pdfrwt>
<pdfrwt beam="2">  1       -4 0.22632590E-01 0.16232579E+03</pdfrwt>
<totfact> 0.13941607E+02</totfact>
</mgrwt>
</event>
<event>
 4    1  0.8742165E-009  0.3522510E+03  0.7818608E-02  0.1061695E+00
         -4   -1    0    0    0  501 -0.00000000000E+00  0.00000000000E+00  0.51638247244E+03  0.51638403417E+03  0.12700000000E+01 0.  1.
          4   -1    0    0  501    0  0.00000000000E+00 -0.00000000000E+00 -0.42664784485E+03  0.42664973505E+03  0.12700000000E+01 0. -1.
    8880022    1    1    2    0    0  0.66313368811E+02  0.31030897393E+03  0.35649792724E+03  0.50117017801E+03  0.15294330000E+03 0.  0.
    8880022    1    1    2    0    0 -0.66313368811E+02 -0.31030897393E+03 -0.26676329965E+03  0.44186359121E+03  0.15294330000E+03 0.  0.
<mgrwt>
<rscale>  0 0.35225101E+03</rscale>
<asrwt>0</asrwt>
<pdfrwt beam="1">  1        4 0.65638395E-01 0.35225101E+03</pdfrwt>
<pdfrwt beam="2">  1       -4 0.79443723E-01 0.35225101E+03</pdfrwt>
<totfact> 0.58176275E+00</totfact>
</mgrwt>
</event>
<event>
 4    1  0.8742165E-009  0.2515443E+03  0.7818608E-02  0.1112333E+00
         -4   -1    0    0    0  501 -0.00000000000E+00  0.00000000000E+00  0.12648964024E+03  0.12649601570E+03  0.12700000000E+01 0.  1.
          4   -1    0    0  501    0  0.00000000000E+00 -0.00000000000E+00 -0.50294561162E+03  0.50294721507E+03  0.12700000000E+01 0.  1.
    8880022    1    1    2    0    0 -0.17235600288E+03  0.10087759627E+03 -0.21141701875E+03  0.32859045937E+03  0.15294330000E+03 0.  0.
    8880022    1    1    2    0    0  0.17235600288E+03 -0.10087759627E+03 -0.16503895263E+03  0.30085277140E+03  0.15294330000E+03 0.  0.
<mgrwt>
<rscale>  0 0.25154430E+03</rscale>
<asrwt>0</asrwt>
<pdfrwt beam="1">  1        4 0.77376861E-01 0.25154430E+03</pdfrwt>
<pdfrwt beam="2">  1       -4 0.19460559E-01 0.25154430E+03</pdfrwt>
<totfact> 0.66229905E+01</totfact>
</mgrwt>
</event>
<event>
 4    1  0.8742165E-009  0.1859421E+03  0.7818608E-02  0.1162173E+00
          4   -1    0    0  501    0  0.00000000000E+00  0.00000000000E+00  0.46040724377E+02  0.46058237061E+02  0.12700000000E+01 0. -1.
         -4   -1    0    0    0  501 -0.00000000000E+00 -0.00000000000E+00 -0.16437979542E+04  0.16437984448E+04  0.12700000000E+01 0. -1.
    8880022    1    1    2    0    0 -0.15931978808E+02  0.10454177352E+03 -0.17611941233E+03  0.25611034882E+03  0.15294330000E+03 0.  0.
    8880022    1    1    2    0    0  0.15931978808E+02 -0.10454177352E+03 -0.14216378175E+04  0.14337463330E+04  0.15294330000E+03 0.  0.
<mgrwt>
<rscale>  0 0.18594210E+03</rscale>
<asrwt>0</asrwt>
<pdfrwt beam="1">  1        4 0.70845745E-02 0.18594210E+03</pdfrwt>
<pdfrwt beam="2">  1       -4 0.25289333E+00 0.18594210E+03</pdfrwt>
<totfact> 0.16647881E+01</totfact>
</mgrwt>
</event>
<event>
 4    1  0.8742165E-009  0.1907211E+03  0.7818608E-02  0.1157813E+00
          4   -1    0    0  501    0  0.00000000000E+00  0.00000000000E+00  0.96969889452E+03  0.96969972617E+03  0.12700000000E+01 0.  1.
         -4   -1    0    0    0  501 -0.00000000000E+00 -0.00000000000E+00 -0.52148988568E+02  0.52164450621E+02  0.12700000000E+01 0.  1.
    8880022    1    1    2    0    0 -0.11000379612E+03 -0.29699539605E+02  0.18802410618E+03  0.26782011749E+03  0.15294330000E+03 0.  0.
    8880022    1    1    2    0    0  0.11000379612E+03  0.29699539605E+02  0.72952579977E+03  0.75404405930E+03  0.15294330000E+03 0.  0.
<mgrwt>
<rscale>  0 0.19072113E+03</rscale>
<asrwt>0</asrwt>
<pdfrwt beam="1">  1        4 0.14918569E+00 0.19072113E+03</pdfrwt>
<pdfrwt beam="2">  1       -4 0.80241750E-02 0.19072113E+03</pdfrwt>
<totfact> 0.62541335E+01</totfact>
</mgrwt>
</event>
<event>
 4    1  0.8742165E-009  0.3221787E+03  0.7818608E-02  0.1074651E+00
         -4   -1    0    0    0  501 -0.00000000000E+00  0.00000000000E+00  0.84901102865E+02  0.84910601033E+02  0.12700000000E+01 0.  1.
          4   -1    0    0  501    0  0.00000000000E+00 -0.00000000000E+00 -0.13390373755E+04  0.13390379777E+04  0.12700000000E+01 0.  1.
    8880022    1    1    2    0    0 -0.11055337566E+03  0.26112342142E+03 -0.83709704760E+03  0.89695630340E+03  0.15294330000E+03 0.  0.
    8880022    1    1    2    0    0  0.11055337566E+03 -0.26112342142E+03 -0.41703922498E+03  0.52699227534E+03  0.15294330000E+03 0.  0.
<mgrwt>
<rscale>  0 0.32217874E+03</rscale>
<asrwt>0</asrwt>
<pdfrwt beam="1">  1        4 0.20600651E+00 0.32217874E+03</pdfrwt>
<pdfrwt beam="2">  1       -4 0.13062486E-01 0.32217874E+03</pdfrwt>
<totfact> 0.11677998E+01</totfact>
</mgrwt>
</event>
<event>
 4    1  0.8742165E-009  0.1548251E+03  0.7818608E-02  0.1194666E+00
          4   -1    0    0  501    0  0.00000000000E+00  0.00000000000E+00  0.47589891300E+02  0.47606834110E+02  0.12700000000E+01 0.  1.
         -4   -1    0    0    0  501 -0.00000000000E+00 -0.00000000000E+00 -0.52787133043E+03  0.52787285817E+03  0.12700000000E+01 0.  1.
    8880022    1    1    2    0    0 -0.72319927518E+01  0.22953064003E+02 -0.30185483960E+03  0.33924495880E+03  0.15294330000E+03 0. -1.
    8880022    1    1    2    0    0  0.72319927518E+01 -0.22953064003E+02 -0.17842659953E+03  0.23623473348E+03  0.15294330000E+03 0. -1.
<mgrwt>
<rscale>  0 0.15482506E+03</rscale>
<asrwt>0</asrwt>
<pdfrwt beam="1">  1        4 0.73229429E-02 0.15482506E+03</pdfrwt>
<pdfrwt beam="2">  1       -4 0.81212391E-01 0.15482506E+03</pdfrwt>
<totfact> 0.29991608E+02</totfact>
</mgrwt>
</event>
<event>
 4    1  0.8742165E-009  0.3111604E+03  0.7818608E-02  0.1079791E+00
          4   -1    0    0  501    0  0.00000000000E+00  0.00000000000E+00  0.97162942605E+03  0.97163025605E+03  0.12700000000E+01 0.  1.
         -4   -1    0    0    0  501 -0.00000000000E+00 -0.00000000000E+00 -0.99657078793E+02  0.99665170714E+02  0.12700000000E+01 0.  1.
    8880022    1    1    2    0    0 -0.71016964295E+01 -0.27088508133E+03  0.42961147185E+03  0.53045907584E+03  0.15294330000E+03 0.  0.
    8880022    1    1    2    0    0  0.71016964295E+01  0.27088508133E+03  0.44236087541E+03  0.54083635093E+03  0.15294330000E+03 0.  0.
<mgrwt>
<rscale>  0 0.31116043E+03</rscale>
<asrwt>0</asrwt>
<pdfrwt beam="1">  1        4 0.14948214E+00 0.31116043E+03</pdfrwt>
<pdfrwt beam="2">  1       -4 0.15332544E-01 0.31116043E+03</pdfrwt>
<totfact> 0.21417244E+01</totfact>
</mgrwt>
</event>
<event>
 4    1  0.8742165E-009  0.2006624E+03  0.7818608E-02  0.1149181E+00
          4   -1    0    0  501    0  0.00000000000E+00  0.00000000000E+00  0.35984070798E+03  0.35984294910E+03  0.12700000000E+01 0.  1.
         -4   -1    0    0    0  501 -0.00000000000E+00 -0.00000000000E+00 -0.17108634570E+03  0.17109105934E+03  0.12700000000E+01 0.  1.
    8880022    1    1    2    0    0 -0.43685375742E+02  0.12233285794E+03  0.25052428041E+03  0.32097945148E+03  0.15294330000E+03 0.  0.
    8880022    1    1    2    0    0  0.43685375742E+02 -0.12233285794E+03 -0.61769918133E+02  0.20995455696E+03  0.15294330000E+03 0.  0.
<mgrwt>
<rscale>  0 0.20066239E+03</rscale>
<asrwt>0</asrwt>
<pdfrwt beam="1">  1        4 0.55360643E-01 0.20066239E+03</pdfrwt>
<pdfrwt beam="2">  1       -4 0.26321512E-01 0.20066239E+03</pdfrwt>
<totfact> 0.75993459E+01</totfact>
</mgrwt>
</event>
<event>
 4    1  0.8742165E-009  0.1697982E+03  0.7818608E-02  0.1178058E+00
         -4   -1    0    0    0  501 -0.00000000000E+00  0.00000000000E+00  0.41638947314E+02  0.41658310497E+02  0.12700000000E+01 0.  1.
          4   -1    0    0  501    0  0.00000000000E+00 -0.00000000000E+00 -0.80625241289E+03  0.80625341313E+03  0.12700000000E+01 0.  1.
    8880022    1    1    2    0    0  0.46851356537E+02  0.56962534506E+02 -0.54173557017E+03  0.56772252109E+03  0.15294330000E+03 0.  0.
    8880022    1    1    2    0    0 -0.46851356537E+02 -0.56962534506E+02 -0.22287789540E+03  0.28018920254E+03  0.15294330000E+03 0.  0.
<mgrwt>
<rscale>  0 0.16979821E+03</rscale>
<asrwt>0</asrwt>
<pdfrwt beam="1">  1        4 0.12404039E+00 0.16979821E+03</pdfrwt>
<pdfrwt beam="2">  1       -4 0.64075589E-02 0.16979821E+03</pdfrwt>
<totfact> 0.14167940E+02</totfact>
</mgrwt>
</event>
<event>
 4    1  0.8742165E-009  0.2521704E+03  0.7818608E-02  0.1111941E+00
         -4   -1    0    0    0  501 -0.00000000000E+00  0.00000000000E+00  0.33446063230E+02  0.33470166501E+02  0.12700000000E+01 0.  1.
          4   -1    0    0  501    0  0.00000000000E+00 -0.00000000000E+00 -0.22319801398E+04  0.22319805011E+04  0.12700000000E+01 0.  1.
    8880022    1    1    2    0    0  0.16497412191E+03 -0.11393763786E+03 -0.15357505763E+04  0.15563160771E+04  0.15294330000E+03 0.  0.
    8880022    1    1    2    0    0 -0.16497412191E+03  0.11393763786E+03 -0.66278350025E+03  0.70913459049E+03  0.15294330000E+03 0.  0.
<mgrwt>
<rscale>  0 0.25217038E+03</rscale>
<asrwt>0</asrwt>
<pdfrwt beam="1">  1        4 0.34338333E+00 0.25217038E+03</pdfrwt>
<pdfrwt beam="2">  1       -4 0.51474318E-02 0.25217038E+03</pdfrwt>
<totfact> 0.82978375E+00</totfact>
</mgrwt>
</event>
<event>
 4    1  0.8742165E-009  0.1975401E+03  0.7818608E-02  0.1151831E+00
         -4   -1    0    0    0  501 -0.00000000000E+00  0.00000000000E+00  0.50406875309E+02  0.50422871580E+02  0.12700000000E+01 0. -1.
          4   -1    0    0  501    0  0.00000000000E+00 -0.00000000000E+00 -0.13208735794E+04  0.13208741899E+04  0.12700000000E+01 0. -1.
    8880022    1    1    2    0    0 -0.59758455279E+02  0.10981518879E+03 -0.19405886167E+03  0.27691324178E+03  0.15294330000E+03 0.  0.
    8880022    1    1    2    0    0  0.59758455279E+02 -0.10981518879E+03 -0.10764078424E+04  0.10943838197E+04  0.15294330000E+03 0.  0.
<mgrwt>
<rscale>  0 0.19754013E+03</rscale>
<asrwt>0</asrwt>
<pdfrwt beam="1">  1        4 0.20321257E+00 0.19754013E+03</pdfrwt>
<pdfrwt beam="2">  1       -4 0.77561823E-02 0.19754013E+03</pdfrwt>
<totfact> 0.28591364E+01</totfact>
</mgrwt>
</event>
<event>
 4    1  0.8742165E-009  0.1812105E+03  0.7818608E-02  0.1166637E+00
          4   -1    0    0  501    0  0.00000000000E+00  0.00000000000E+00  0.50172926357E+03  0.50173087091E+03  0.12700000000E+01 0. -1.
         -4   -1    0    0    0  501 -0.00000000000E+00 -0.00000000000E+00 -0.10192903243E+03  0.10193694400E+03  0.12700000000E+01 0. -1.
    8880022    1    1    2    0    0  0.87877794480E+01  0.96790410114E+02  0.38048172285E+03  0.42143042486E+03  0.15294330000E+03 0.  0.
    8880022    1    1    2    0    0 -0.87877794480E+01 -0.96790410114E+02  0.19318508290E+02  0.18223739006E+03  0.15294330000E+03 0.  0.
<mgrwt>
<rscale>  0 0.18121054E+03</rscale>
<asrwt>0</asrwt>
<pdfrwt beam="1">  1        4 0.77189850E-01 0.18121054E+03</pdfrwt>
<pdfrwt beam="2">  1       -4 0.15682122E-01 0.18121054E+03</pdfrwt>
<totfact> 0.94004109E+01</totfact>
</mgrwt>
</event>
<event>
 4    1  0.8742165E-009  0.2025066E+03  0.7818608E-02  0.1147641E+00
         -4   -1    0    0    0  501 -0.00000000000E+00  0.00000000000E+00  0.34015579285E+02  0.34039279283E+02  0.12700000000E+01 0.  1.
          4   -1    0    0  501    0  0.00000000000E+00 -0.00000000000E+00 -0.12211890613E+04  0.12211897217E+04  0.12700000000E+01 0.  1.
    8880022    1    1    2    0    0 -0.10131736217E+03 -0.85744184790E+02 -0.66551603598E+03  0.69564396085E+03  0.15294330000E+03 0.  0.
    8880022    1    1    2    0    0  0.10131736217E+03  0.85744184790E+02 -0.52165744605E+03  0.55958504013E+03  0.15294330000E+03 0.  0.
<mgrwt>
<rscale>  0 0.20250661E+03</rscale>
<asrwt>0</asrwt>
<pdfrwt beam="1">  1        4 0.18787708E+00 0.20250661E+03</pdfrwt>
<pdfrwt beam="2">  1       -4 0.52350409E-02 0.20250661E+03</pdfrwt>
<totfact> 0.68518848E+01</totfact>
</mgrwt>
</event>
<event>
 4    1  0.8742165E-009  0.1929382E+03  0.7818608E-02  0.1155838E+00
         -4   -1    0    0    0  501 -0.00000000000E+00  0.00000000000E+00  0.41135948482E+03  0.41136144527E+03  0.12700000000E+01 0.  1.
          4   -1    0    0  501    0  0.00000000000E+00 -0.00000000000E+00 -0.99071654053E+02  0.99079793787E+02  0.12700000000E+01 0.  1.
    8880022    1    1    2    0    0  0.86426390476E+02 -0.79774475878E+02  0.81016880785E+02  0.20925791732E+03  0.15294330000E+03 0.  0.
    8880022    1    1    2    0    0 -0.86426390476E+02  0.79774475878E+02  0.23127094999E+03  0.30118332174E+03  0.15294330000E+03 0.  0.
<mgrwt>
<rscale>  0 0.19293818E+03</rscale>
<asrwt>0</asrwt>
<pdfrwt beam="1">  1        4 0.15242570E-01 0.19293818E+03</pdfrwt>
<pdfrwt beam="2">  1       -4 0.63286851E-01 0.19293818E+03</pdfrwt>
<totfact> 0.15353606E+02</totfact>
</mgrwt>
</event>
<event>
 4    1  0.8742165E-009  0.2403212E+03  0.7818608E-02  0.1119579E+00
          4   -1    0    0  501    0  0.00000000000E+00  0.00000000000E+00  0.56179177038E+03  0.56179320588E+03  0.12700000000E+01 0.  1.
         -4   -1    0    0    0  501 -0.00000000000E+00 -0.00000000000E+00 -0.10288680572E+03  0.10289464365E+03  0.12700000000E+01 0.  1.
    8880022    1    1    2    0    0  0.16552320529E+03 -0.83454816948E+02  0.21970230277E+03  0.32561233518E+03  0.15294330000E+03 0.  0.
    8880022    1    1    2    0    0 -0.16552320529E+03  0.83454816948E+02  0.23920266189E+03  0.33907551435E+03  0.15294330000E+03 0.  0.
<mgrwt>
<rscale>  0 0.24032122E+03</rscale>
<asrwt>0</asrwt>
<pdfrwt beam="1">  1        4 0.86430218E-01 0.24032122E+03</pdfrwt>
<pdfrwt beam="2">  1       -4 0.15829452E-01 0.24032122E+03</pdfrwt>
<totfact> 0.74427897E+01</totfact>
</mgrwt>
</event>
<event>
 4    1  0.8742165E-009  0.3117493E+03  0.7818608E-02  0.1079510E+00
          4   -1    0    0  501    0  0.00000000000E+00  0.00000000000E+00  0.52799523343E+03  0.52799676081E+03  0.12700000000E+01 0. -1.
         -4   -1    0    0    0  501 -0.00000000000E+00 -0.00000000000E+00 -0.19279284531E+03  0.19279702825E+03  0.12700000000E+01 0. -1.
    8880022    1    1    2    0    0  0.23405898978E+03  0.13788537799E+03  0.24428048537E+03  0.39605630497E+03  0.15294330000E+03 0.  0.
    8880022    1    1    2    0    0 -0.23405898978E+03 -0.13788537799E+03  0.90921902745E+02  0.32473748409E+03  0.15294330000E+03 0.  0.
<mgrwt>
<rscale>  0 0.31174932E+03</rscale>
<asrwt>0</asrwt>
<pdfrwt beam="1">  1        4 0.81230475E-01 0.31174932E+03</pdfrwt>
<pdfrwt beam="2">  1       -4 0.29660877E-01 0.31174932E+03</pdfrwt>
<totfact> 0.27656652E+01</totfact>
</mgrwt>
</event>
<event>
 4    1  0.8742165E-009  0.1658179E+03  0.7818608E-02  0.1182281E+00
          4   -1    0    0  501    0  0.00000000000E+00  0.00000000000E+00  0.26276581312E+03  0.26276888219E+03  0.12700000000E+01 0.  1.
         -4   -1    0    0    0  501 -0.00000000000E+00 -0.00000000000E+00 -0.12655262518E+03  0.12655899747E+03  0.12700000000E+01 0.  1.
    8880022    1    1    2    0    0 -0.58327570071E+02 -0.26491751559E+02 -0.12908064980E+02  0.16631954031E+03  0.15294330000E+03 0.  1.
    8880022    1    1    2    0    0  0.58327570071E+02  0.26491751559E+02  0.14912125292E+03  0.22300833935E+03  0.15294330000E+03 0.  1.
<mgrwt>
<rscale>  0 0.16581789E+03</rscale>
<asrwt>0</asrwt>
<pdfrwt beam="1">  1        4 0.40426236E-01 0.16581789E+03</pdfrwt>
<pdfrwt beam="2">  1       -4 0.19470361E-01 0.16581789E+03</pdfrwt>
<totfact> 0.24347215E+02</totfact>
</mgrwt>
</event>
<event>
 4    1  0.8742165E-009  0.3886039E+03  0.7818608E-02  0.1047799E+00
          4   -1    0    0  501    0  0.00000000000E+00  0.00000000000E+00  0.68639621750E+03  0.68639739241E+03  0.12700000000E+01 0.  1.
         -4   -1    0    0    0  501 -0.00000000000E+00 -0.00000000000E+00 -0.22015866224E+03  0.22016232525E+03  0.12700000000E+01 0.  1.
    8880022    1    1    2    0    0 -0.32723663976E+03 -0.14330916649E+03  0.24508274832E+03  0.45943284835E+03  0.15294330000E+03 0.  0.
    8880022    1    1    2    0    0  0.32723663976E+03  0.14330916649E+03  0.22115480695E+03  0.44712686931E+03  0.15294330000E+03 0.  0.
<mgrwt>
<rscale>  0 0.38860390E+03</rscale>
<asrwt>0</asrwt>
<pdfrwt beam="1">  1        4 0.10559979E+00 0.38860390E+03</pdfrwt>
<pdfrwt beam="2">  1       -4 0.33870936E-01 0.38860390E+03</pdfrwt>
<totfact> 0.11814547E+01</totfact>
</mgrwt>
</event>
<event>
 4    1  0.8742165E-009  0.2133030E+03  0.7818608E-02  0.1138977E+00
         -4   -1    0    0    0  501 -0.00000000000E+00  0.00000000000E+00  0.62208032689E+03  0.62208162326E+03  0.12700000000E+01 0. -1.
          4   -1    0    0  501    0  0.00000000000E+00 -0.00000000000E+00 -0.93162276926E+02  0.93170932924E+02  0.12700000000E+01 0. -1.
    8880022    1    1    2    0    0 -0.14304842483E+03 -0.40542142669E+02  0.43027581132E+03  0.48024519154E+03  0.15294330000E+03 0.  0.
    8880022    1    1    2    0    0  0.14304842483E+03  0.40542142669E+02  0.98642238639E+02  0.23500736464E+03  0.15294330000E+03 0.  0.
<mgrwt>
<rscale>  0 0.21330300E+03</rscale>
<asrwt>0</asrwt>
<pdfrwt beam="1">  1        4 0.14333423E-01 0.21330300E+03</pdfrwt>
<pdfrwt beam="2">  1       -4 0.95705432E-01 0.21330300E+03</pdfrwt>
<totfact> 0.69205025E+01</totfact>
</mgrwt>
</event>
<event>
 4    1  0.8742165E-009  0.2051691E+03  0.7818608E-02  0.1145450E+00
         -4   -1    0    0    0  501 -0.00000000000E+00  0.00000000000E+00  0.31913982908E+03  0.31914235602E+03  0.12700000000E+01 0. -1.
          4   -1    0    0  501    0  0.00000000000E+00 -0.00000000000E+00 -0.13214228926E+03  0.13214839201E+03  0.12700000000E+01 0. -1.
    8880022    1    1    2    0    0  0.85387703714E+02 -0.10682524645E+03  0.83703807616E+02  0.22158671812E+03  0.15294330000E+03 0. -1.
    8880022    1    1    2    0    0 -0.85387703714E+02  0.10682524645E+03  0.10329373221E+03  0.22970402990E+03  0.15294330000E+03 0. -1.
<mgrwt>
<rscale>  0 0.20516907E+03</rscale>
<asrwt>0</asrwt>
<pdfrwt beam="1">  1        4 0.20330247E-01 0.20516907E+03</pdfrwt>
<pdfrwt beam="2">  1       -4 0.49099099E-01 0.20516907E+03</pdfrwt>
<totfact> 0.15730514E+02</totfact>
</mgrwt>
</event>
<event>
 4    1  0.8742165E-009  0.1856289E+03  0.7818608E-02  0.1162464E+00
         -4   -1    0    0    0  501 -0.00000000000E+00  0.00000000000E+00  0.21125582594E+04  0.21125586411E+04  0.12700000000E+01 0.  1.
          4   -1    0    0  501    0  0.00000000000E+00 -0.00000000000E+00 -0.18176699523E+02  0.18221012748E+02  0.12700000000E+01 0.  1.
    8880022    1    1    2    0    0  0.40140065254E+02  0.97237894290E+02  0.13903553168E+04  0.14026924085E+04  0.15294330000E+03 0.  0.
    8880022    1    1    2    0    0 -0.40140065254E+02 -0.97237894290E+02  0.70402624304E+03  0.72808724534E+03  0.15294330000E+03 0.  0.
<mgrwt>
<rscale>  0 0.18562889E+03</rscale>
<asrwt>0</asrwt>
<pdfrwt beam="1">  1        4 0.27998525E-02 0.18562889E+03</pdfrwt>
<pdfrwt beam="2">  1       -4 0.32501250E+00 0.18562889E+03</pdfrwt>
<totfact> 0.28043714E+01</totfact>
</mgrwt>
</event>
<event>
 4    1  0.8742165E-009  0.3343349E+03  0.7818608E-02  0.1069235E+00
         -4   -1    0    0    0  501 -0.00000000000E+00  0.00000000000E+00  0.12168039741E+04  0.12168046369E+04  0.12700000000E+01 0.  1.
          4   -1    0    0  501    0  0.00000000000E+00 -0.00000000000E+00 -0.24617858752E+03  0.24618186337E+03  0.12700000000E+01 0. -1.
    8880022    1    1    2    0    0  0.18152745002E+03 -0.23544837436E+03  0.10644622129E+04  0.11157327672E+04  0.15294330000E+03 0.  0.
    8880022    1    1    2    0    0 -0.18152745002E+03  0.23544837436E+03 -0.93836826330E+02  0.34725373301E+03  0.15294330000E+03 0. -1.
<mgrwt>
<rscale>  0 0.33433487E+03</rscale>
<asrwt>0</asrwt>
<pdfrwt beam="1">  1        4 0.37873932E-01 0.33433487E+03</pdfrwt>
<pdfrwt beam="2">  1       -4 0.18720091E+00 0.33433487E+03</pdfrwt>
<totfact> 0.21410302E+00</totfact>
</mgrwt>
</event>
<event>
 4    1  0.8742165E-009  0.2394365E+03  0.7818608E-02  0.1120169E+00
          4   -1    0    0  501    0  0.00000000000E+00  0.00000000000E+00  0.54452757474E+03  0.54452905574E+03  0.12700000000E+01 0. -1.
         -4   -1    0    0    0  501 -0.00000000000E+00 -0.00000000000E+00 -0.15078342353E+03  0.15078877183E+03  0.12700000000E+01 0. -1.
    8880022    1    1    2    0    0  0.13868382791E+03 -0.12126409809E+03  0.38785556345E+03  0.45580892567E+03  0.15294330000E+03 0.  0.
    8880022    1    1    2    0    0 -0.13868382791E+03  0.12126409809E+03  0.58885877609E+01  0.23950890190E+03  0.15294330000E+03 0.  0.
<mgrwt>
<rscale>  0 0.23943650E+03</rscale>
<asrwt>0</asrwt>
<pdfrwt beam="1">  1        4 0.83773999E-01 0.23943650E+03</pdfrwt>
<pdfrwt beam="2">  1       -4 0.23197975E-01 0.23943650E+03</pdfrwt>
<totfact> 0.39953863E+01</totfact>
</mgrwt>
</event>
<event>
 4    1  0.8742165E-009  0.2039023E+03  0.7818608E-02  0.1146488E+00
         -4   -1    0    0    0  501 -0.00000000000E+00  0.00000000000E+00  0.10229099970E+03  0.10229888327E+03  0.12700000000E+01 0.  1.
          4   -1    0    0  501    0  0.00000000000E+00 -0.00000000000E+00 -0.40658571243E+03  0.40658769590E+03  0.12700000000E+01 0.  1.
    8880022    1    1    2    0    0 -0.12659664257E+03  0.46452182063E+02 -0.15720006055E+03  0.25746461345E+03  0.15294330000E+03 0.  1.
    8880022    1    1    2    0    0  0.12659664257E+03 -0.46452182063E+02 -0.14709465219E+03  0.25142196572E+03  0.15294330000E+03 0.  1.
<mgrwt>
<rscale>  0 0.20390235E+03</rscale>
<asrwt>0</asrwt>
<pdfrwt beam="1">  1        4 0.62552406E-01 0.20390235E+03</pdfrwt>
<pdfrwt beam="2">  1       -4 0.15737836E-01 0.20390235E+03</pdfrwt>
<totfact> 0.14993110E+02</totfact>
</mgrwt>
</event>
<event>
 4    1  0.8742165E-009  0.1904202E+03  0.7818608E-02  0.1158083E+00
         -4   -1    0    0    0  501 -0.00000000000E+00  0.00000000000E+00  0.30979714707E+02  0.31005735330E+02  0.12700000000E+01 0. -1.
          4   -1    0    0  501    0  0.00000000000E+00 -0.00000000000E+00 -0.18124363477E+04  0.18124367927E+04  0.12700000000E+01 0. -1.
    8880022    1    1    2    0    0  0.76569200657E+02  0.83697903083E+02 -0.34193724377E+03  0.39138333276E+03  0.15294330000E+03 0.  0.
    8880022    1    1    2    0    0 -0.76569200657E+02 -0.83697903083E+02 -0.14395193892E+04  0.14520591952E+04  0.15294330000E+03 0.  0.
<mgrwt>
<rscale>  0 0.19042015E+03</rscale>
<asrwt>0</asrwt>
<pdfrwt beam="1">  1        4 0.27883831E+00 0.19042015E+03</pdfrwt>
<pdfrwt beam="2">  1       -4 0.47681472E-02 0.19042015E+03</pdfrwt>
<totfact> 0.22487514E+01</totfact>
</mgrwt>
</event>
<event>
 4    1  0.8742165E-009  0.4221131E+03  0.7818608E-02  0.1036381E+00
         -4   -1    0    0    0  501 -0.00000000000E+00  0.00000000000E+00  0.35893022464E+03  0.35893247144E+03  0.12700000000E+01 0. -1.
          4   -1    0    0  501    0  0.00000000000E+00 -0.00000000000E+00 -0.11181978463E+04  0.11181985675E+04  0.12700000000E+01 0. -1.
    8880022    1    1    2    0    0  0.39329436449E+03 -0.10359770438E+02 -0.93037677751E+03  0.10216557067E+04  0.15294330000E+03 0.  0.
    8880022    1    1    2    0    0 -0.39329436449E+03  0.10359770438E+02  0.17110915587E+03  0.45547533218E+03  0.15294330000E+03 0.  0.
<mgrwt>
<rscale>  0 0.42211306E+03</rscale>
<asrwt>0</asrwt>
<pdfrwt beam="1">  1        4 0.17203066E+00 0.42211306E+03</pdfrwt>
<pdfrwt beam="2">  1       -4 0.55220263E-01 0.42211306E+03</pdfrwt>
<totfact> 0.12590770E+00</totfact>
</mgrwt>
</event>
<event>
 4    1  0.8742165E-009  0.4112047E+03  0.7818608E-02  0.1039967E+00
         -4   -1    0    0    0  501 -0.00000000000E+00  0.00000000000E+00  0.85783790129E+03  0.85783884139E+03  0.12700000000E+01 0.  1.
          4   -1    0    0  501    0  0.00000000000E+00 -0.00000000000E+00 -0.35060335882E+03  0.35060565899E+03  0.12700000000E+01 0.  1.
    8880022    1    1    2    0    0 -0.27056452727E+02 -0.38074350021E+03 -0.14617447323E+03  0.43641298586E+03  0.15294330000E+03 0.  0.
    8880022    1    1    2    0    0  0.27056452727E+02  0.38074350021E+03  0.65340901570E+03  0.77203151451E+03  0.15294330000E+03 0.  0.
<mgrwt>
<rscale>  0 0.41120471E+03</rscale>
<asrwt>0</asrwt>
<pdfrwt beam="1">  1        4 0.53939228E-01 0.41120471E+03</pdfrwt>
<pdfrwt beam="2">  1       -4 0.13197531E+00 0.41120471E+03</pdfrwt>
<totfact> 0.26620982E+00</totfact>
</mgrwt>
</event>
<event>
 4    1  0.8742165E-009  0.1707825E+03  0.7818608E-02  0.1177034E+00
         -4   -1    0    0    0  501 -0.00000000000E+00  0.00000000000E+00  0.96332311443E+02  0.96340682622E+02  0.12700000000E+01 0. -1.
          4   -1    0    0  501    0  0.00000000000E+00 -0.00000000000E+00 -0.46907132992E+03  0.46907304917E+03  0.12700000000E+01 0. -1.
    8880022    1    1    2    0    0 -0.35074972783E+02  0.67414817500E+02 -0.18029262380E+02  0.17173153074E+03  0.15294330000E+03 0.  0.
    8880022    1    1    2    0    0  0.35074972783E+02 -0.67414817500E+02 -0.35470975610E+03  0.39368220105E+03  0.15294330000E+03 0.  0.
<mgrwt>
<rscale>  0 0.17078251E+03</rscale>
<asrwt>0</asrwt>
<pdfrwt beam="1">  1        4 0.72165595E-01 0.17078251E+03</pdfrwt>
<pdfrwt beam="2">  1       -4 0.14821132E-01 0.17078251E+03</pdfrwt>
<totfact> 0.11932327E+02</totfact>
</mgrwt>
</event>
<event>
 4    1  0.8742165E-009  0.2663004E+03  0.7818608E-02  0.1103416E+00
          4   -1    0    0  501    0  0.00000000000E+00  0.00000000000E+00  0.20429695883E+03  0.20430090623E+03  0.12700000000E+01 0.  1.
         -4   -1    0    0    0  501 -0.00000000000E+00 -0.00000000000E+00 -0.38907475906E+03  0.38907683179E+03  0.12700000000E+01 0.  1.
    8880022    1    1    2    0    0 -0.61908570353E+02 -0.20902529298E+03 -0.18982214658E+03  0.32702957746E+03  0.15294330000E+03 0.  0.
    8880022    1    1    2    0    0  0.61908570353E+02  0.20902529298E+03  0.50443463500E+01  0.26634816056E+03  0.15294330000E+03 0.  0.
<mgrwt>
<rscale>  0 0.26630039E+03</rscale>
<asrwt>0</asrwt>
<pdfrwt beam="1">  1        4 0.31430765E-01 0.26630039E+03</pdfrwt>
<pdfrwt beam="2">  1       -4 0.59858118E-01 0.26630039E+03</pdfrwt>
<totfact> 0.47565677E+01</totfact>
</mgrwt>
</event>
<event>
 4    1  0.8742165E-009  0.1709360E+03  0.7818608E-02  0.1176875E+00
          4   -1    0    0  501    0  0.00000000000E+00  0.00000000000E+00  0.20525828075E+03  0.20526220967E+03  0.12700000000E+01 0. -1.
         -4   -1    0    0    0  501 -0.00000000000E+00 -0.00000000000E+00 -0.16363082124E+03  0.16363574964E+03  0.12700000000E+01 0. -1.
    8880022    1    1    2    0    0 -0.20122398264E+02 -0.73638048589E+02  0.87337709633E+02  0.19195572836E+03  0.15294330000E+03 0.  1.
    8880022    1    1    2    0    0  0.20122398264E+02  0.73638048589E+02 -0.45710250125E+02  0.17694223095E+03  0.15294330000E+03 0.  1.
<mgrwt>
<rscale>  0 0.17093603E+03</rscale>
<asrwt>0</asrwt>
<pdfrwt beam="1">  1        4 0.31578878E-01 0.17093603E+03</pdfrwt>
<pdfrwt beam="2">  1       -4 0.25174654E-01 0.17093603E+03</pdfrwt>
<totfact> 0.24727186E+02</totfact>
</mgrwt>
</event>
<event>
 4    1  0.8742165E-009  0.1764915E+03  0.7818608E-02  0.1171242E+00
         -4   -1    0    0    0  501 -0.00000000000E+00  0.00000000000E+00  0.10312570003E+03  0.10313351980E+03  0.12700000000E+01 0.  1.
          4   -1    0    0  501    0  0.00000000000E+00 -0.00000000000E+00 -0.32584431387E+03  0.32584678881E+03  0.12700000000E+01 0.  1.
    8880022    1    1    2    0    0  0.67969461281E+02  0.56015522624E+02 -0.53375174727E+02  0.18438586913E+03  0.15294330000E+03 0.  1.
    8880022    1    1    2    0    0 -0.67969461281E+02 -0.56015522624E+02 -0.16934343911E+03  0.24459443948E+03  0.15294330000E+03 0.  1.
<mgrwt>
<rscale>  0 0.17649147E+03</rscale>
<asrwt>0</asrwt>
<pdfrwt beam="1">  1        4 0.50130686E-01 0.17649147E+03</pdfrwt>
<pdfrwt beam="2">  1       -4 0.15866284E-01 0.17649147E+03</pdfrwt>
<totfact> 0.22969238E+02</totfact>
</mgrwt>
</event>
<event>
 4    1  0.8742165E-009  0.2374908E+03  0.7818608E-02  0.1121476E+00
          4   -1    0    0  501    0  0.00000000000E+00  0.00000000000E+00  0.68368329946E+03  0.68368447903E+03  0.12700000000E+01 0.  1.
         -4   -1    0    0    0  501 -0.00000000000E+00 -0.00000000000E+00 -0.82912811954E+02  0.82922537866E+02  0.12700000000E+01 0.  1.
    8880022    1    1    2    0    0 -0.18003221156E+03 -0.24467340915E+02  0.32772370140E+03  0.40472796474E+03  0.15294330000E+03 0.  0.
    8880022    1    1    2    0    0  0.18003221156E+03  0.24467340915E+02  0.27304678611E+03  0.36187905216E+03  0.15294330000E+03 0.  0.
<mgrwt>
<rscale>  0 0.23749084E+03</rscale>
<asrwt>0</asrwt>
<pdfrwt beam="1">  1        4 0.10518288E+00 0.23749084E+03</pdfrwt>
<pdfrwt beam="2">  1       -4 0.12756656E-01 0.23749084E+03</pdfrwt>
<totfact> 0.68878746E+01</totfact>
</mgrwt>
</event>
<event>
 4    1  0.8742165E-009  0.2812809E+03  0.7818608E-02  0.1094991E+00
          4   -1    0    0  501    0  0.00000000000E+00  0.00000000000E+00  0.16583093321E+03  0.16583579622E+03  0.12700000000E+01 0. -1.
         -4   -1    0    0    0  501 -0.00000000000E+00 -0.00000000000E+00 -0.59917891425E+03  0.59918026018E+03  0.12700000000E+01 0. -1.
    8880022    1    1    2    0    0 -0.67486403355E+02 -0.22621427381E+03 -0.44013929612E+02  0.28470369040E+03  0.15294330000E+03 0.  0.
    8880022    1    1    2    0    0  0.67486403355E+02  0.22621427381E+03 -0.38933405143E+03  0.48031236600E+03  0.15294330000E+03 0.  0.
<mgrwt>
<rscale>  0 0.28128094E+03</rscale>
<asrwt>0</asrwt>
<pdfrwt beam="1">  1        4 0.25512929E-01 0.28128094E+03</pdfrwt>
<pdfrwt beam="2">  1       -4 0.92181848E-01 0.28128094E+03</pdfrwt>
<totfact> 0.27334991E+01</totfact>
</mgrwt>
</event>
<event>
 4    1  0.8742165E-009  0.2383900E+03  0.7818608E-02  0.1120870E+00
         -4   -1    0    0    0  501 -0.00000000000E+00  0.00000000000E+00  0.17070501135E+04  0.17070505859E+04  0.12700000000E+01 0. -1.
          4   -1    0    0  501    0  0.00000000000E+00 -0.00000000000E+00 -0.33606639536E+02  0.33630627720E+02  0.12700000000E+01 0. -1.
    8880022    1    1    2    0    0  0.94333364710E+02  0.15665035837E+03  0.92267538846E+03  0.95297410456E+03  0.15294330000E+03 0.  0.
    8880022    1    1    2    0    0 -0.94333364710E+02 -0.15665035837E+03  0.75076808552E+03  0.78770710910E+03  0.15294330000E+03 0.  0.
<mgrwt>
<rscale>  0 0.23838996E+03</rscale>
<asrwt>0</asrwt>
<pdfrwt beam="1">  1        4 0.51721332E-02 0.23838996E+03</pdfrwt>
<pdfrwt beam="2">  1       -4 0.26262501E+00 0.23838996E+03</pdfrwt>
<totfact> 0.24887570E+01</totfact>
</mgrwt>
</event>
<event>
 4    1  0.8742165E-009  0.3763204E+03  0.7818608E-02  0.1052302E+00
          4   -1    0    0  501    0  0.00000000000E+00  0.00000000000E+00  0.11732843269E+03  0.11733530593E+03  0.12700000000E+01 0. -1.
         -4   -1    0    0    0  501 -0.00000000000E+00 -0.00000000000E+00 -0.12690842702E+04  0.12690849056E+04  0.12700000000E+01 0. -1.
    8880022    1    1    2    0    0  0.28409443086E+03  0.19368975397E+03 -0.42251856787E+03  0.56580823575E+03  0.15294330000E+03 0.  0.
    8880022    1    1    2    0    0 -0.28409443086E+03 -0.19368975397E+03 -0.72923726961E+03  0.82061197580E+03  0.15294330000E+03 0.  0.
<mgrwt>
<rscale>  0 0.37632037E+03</rscale>
<asrwt>0</asrwt>
<pdfrwt beam="1">  1        4 0.18051107E-01 0.37632037E+03</pdfrwt>
<pdfrwt beam="2">  1       -4 0.19524430E+00 0.37632037E+03</pdfrwt>
<totfact> 0.77468045E+00</totfact>
</mgrwt>
</event>
<event>
 4    1  0.8742165E-009  0.1937279E+03  0.7818608E-02  0.1155141E+00
         -4   -1    0    0    0  501 -0.00000000000E+00  0.00000000000E+00  0.12338033804E+03  0.12338687416E+03  0.12700000000E+01 0. -1.
          4   -1    0    0  501    0  0.00000000000E+00 -0.00000000000E+00 -0.42537932371E+03  0.42538121955E+03  0.12700000000E+01 0. -1.
    8880022    1    1    2    0    0 -0.81015890317E+02 -0.87036122371E+02 -0.29746483615E+03  0.35498710236E+03  0.15294330000E+03 0.  0.
    8880022    1    1    2    0    0  0.81015890317E+02  0.87036122371E+02 -0.45341495147E+01  0.19378099135E+03  0.15294330000E+03 0.  0.
<mgrwt>
<rscale>  0 0.19372794E+03</rscale>
<asrwt>0</asrwt>
<pdfrwt beam="1">  1        4 0.65443621E-01 0.19372794E+03</pdfrwt>
<pdfrwt beam="2">  1       -4 0.18982239E-01 0.19372794E+03</pdfrwt>
<totfact> 0.96736415E+01</totfact>
</mgrwt>
</event>
<event>
 4    1  0.8742165E-009  0.3637106E+03  0.7818608E-02  0.1057124E+00
         -4   -1    0    0    0  501 -0.00000000000E+00  0.00000000000E+00  0.10060262543E+03  0.10061064131E+03  0.12700000000E+01 0.  1.
          4   -1    0    0  501    0  0.00000000000E+00 -0.00000000000E+00 -0.13799134001E+04  0.13799139845E+04  0.12700000000E+01 0.  1.
    8880022    1    1    2    0    0  0.32342453091E+03 -0.65500509852E+02 -0.47893802951E+03  0.60138758975E+03  0.15294330000E+03 0.  0.
    8880022    1    1    2    0    0 -0.32342453091E+03  0.65500509852E+02 -0.80037274512E+03  0.87913703604E+03  0.15294330000E+03 0.  0.
<mgrwt>
<rscale>  0 0.36371060E+03</rscale>
<asrwt>0</asrwt>
<pdfrwt beam="1">  1        4 0.21229502E+00 0.36371060E+03</pdfrwt>
<pdfrwt beam="2">  1       -4 0.15477990E-01 0.36371060E+03</pdfrwt>
<totfact> 0.79415466E+00</totfact>
</mgrwt>
</event>
<event>
 4    1  0.8742165E-009  0.1902162E+03  0.7818608E-02  0.1158267E+00
          4   -1    0    0  501    0  0.00000000000E+00  0.00000000000E+00  0.76752459118E+02  0.76762965554E+02  0.12700000000E+01 0.  1.
         -4   -1    0    0    0  501 -0.00000000000E+00 -0.00000000000E+00 -0.56135537132E+03  0.56135680793E+03  0.12700000000E+01 0.  1.
    8880022    1    1    2    0    0  0.11214834460E+03  0.14604339868E+02 -0.37004336980E+03  0.41607004998E+03  0.15294330000E+03 0.  0.
    8880022    1    1    2    0    0 -0.11214834460E+03 -0.14604339868E+02 -0.11455954240E+03  0.22204972351E+03  0.15294330000E+03 0.  0.
<mgrwt>
<rscale>  0 0.19021617E+03</rscale>
<asrwt>0</asrwt>
<pdfrwt beam="1">  1        4 0.11808990E-01 0.19021617E+03</pdfrwt>
<pdfrwt beam="2">  1       -4 0.86363281E-01 0.19021617E+03</pdfrwt>
<totfact> 0.12070257E+02</totfact>
</mgrwt>
</event>
<event>
 4    1  0.8742165E-009  0.1552122E+03  0.7818608E-02  0.1194211E+00
         -4   -1    0    0    0  501 -0.00000000000E+00  0.00000000000E+00  0.16205312312E+02  0.16255000681E+02  0.12700000000E+01 0.  1.
          4   -1    0    0  501    0  0.00000000000E+00 -0.00000000000E+00 -0.18381298610E+04  0.18381302997E+04  0.12700000000E+01 0.  1.
    8880022    1    1    2    0    0  0.22257315085E+02  0.14275526945E+02 -0.50415534902E+03  0.52750682243E+03  0.15294330000E+03 0. -1.
    8880022    1    1    2    0    0 -0.22257315085E+02 -0.14275526945E+02 -0.13177691997E+04  0.13268784780E+04  0.15294330000E+03 0. -1.
<mgrwt>
<rscale>  0 0.15521222E+03</rscale>
<asrwt>0</asrwt>
<pdfrwt beam="1">  1        4 0.28279290E+00 0.15521222E+03</pdfrwt>
<pdfrwt beam="2">  1       -4 0.24969824E-02 0.15521222E+03</pdfrwt>
<totfact> 0.58452553E+01</totfact>
</mgrwt>
</event>
<event>
 4    1  0.8742165E-009  0.3158608E+03  0.7818608E-02  0.1077570E+00
          4   -1    0    0  501    0  0.00000000000E+00  0.00000000000E+00  0.12442703206E+04  0.12442709687E+04  0.12700000000E+01 0.  1.
         -4   -1    0    0    0  501 -0.00000000000E+00 -0.00000000000E+00 -0.94347109178E+02  0.94355656483E+02  0.12700000000E+01 0.  1.
    8880022    1    1    2    0    0  0.26490534970E+03 -0.78750085803E+02  0.83434350944E+03  0.89213068834E+03  0.15294330000E+03 0.  0.
    8880022    1    1    2    0    0 -0.26490534970E+03  0.78750085803E+02  0.31557970193E+03  0.44649593682E+03  0.15294330000E+03 0.  0.
<mgrwt>
<rscale>  0 0.31586084E+03</rscale>
<asrwt>0</asrwt>
<pdfrwt beam="1">  1        4 0.19142689E+00 0.31586084E+03</pdfrwt>
<pdfrwt beam="2">  1       -4 0.14515649E-01 0.31586084E+03</pdfrwt>
<totfact> 0.12018917E+01</totfact>
</mgrwt>
</event>
<event>
 4    1  0.8742165E-009  0.1864230E+03  0.7818608E-02  0.1161728E+00
          4   -1    0    0  501    0  0.00000000000E+00  0.00000000000E+00  0.41565216452E+02  0.41584613966E+02  0.12700000000E+01 0. -1.
         -4   -1    0    0    0  501 -0.00000000000E+00 -0.00000000000E+00 -0.86828775568E+03  0.86828868446E+03  0.12700000000E+01 0. -1.
    8880022    1    1    2    0    0 -0.10632193446E+03  0.75855046692E+01 -0.50121583720E+03  0.53476243520E+03  0.15294330000E+03 0.  0.
    8880022    1    1    2    0    0  0.10632193446E+03 -0.75855046692E+01 -0.32550670203E+03  0.37511086323E+03  0.15294330000E+03 0.  0.
<mgrwt>
<rscale>  0 0.18642303E+03</rscale>
<asrwt>0</asrwt>
<pdfrwt beam="1">  1        4 0.63962129E-02 0.18642303E+03</pdfrwt>
<pdfrwt beam="2">  1       -4 0.13358428E+00 0.18642303E+03</pdfrwt>
<totfact> 0.11999560E+02</totfact>
</mgrwt>
</event>
<event>
 4    1  0.8742165E-009  0.1753390E+03  0.7818608E-02  0.1172392E+00
          4   -1    0    0  501    0  0.00000000000E+00  0.00000000000E+00  0.15797830631E+04  0.15797835735E+04  0.12700000000E+01 0.  1.
         -4   -1    0    0    0  501 -0.00000000000E+00 -0.00000000000E+00 -0.34688515161E+02  0.34711755704E+02  0.12700000000E+01 0.  1.
    8880022    1    1    2    0    0  0.68454647625E+02 -0.51634020284E+02  0.23757773056E+03  0.29527435024E+03  0.15294330000E+03 0.  0.
    8880022    1    1    2    0    0 -0.68454647625E+02  0.51634020284E+02  0.13075168173E+04  0.13192209790E+04  0.15294330000E+03 0.  0.
<mgrwt>
<rscale>  0 0.17533900E+03</rscale>
<asrwt>0</asrwt>
<pdfrwt beam="1">  1        4 0.24304545E+00 0.17533900E+03</pdfrwt>
<pdfrwt beam="2">  1       -4 0.53385200E-02 0.17533900E+03</pdfrwt>
<totfact> 0.30068521E+01</totfact>
</mgrwt>
</event>
<event>
 4    1  0.8742165E-009  0.3410017E+03  0.7818608E-02  0.1066370E+00
          4   -1    0    0  501    0  0.00000000000E+00  0.00000000000E+00  0.66010694332E+02  0.66022910161E+02  0.12700000000E+01 0. -1.
         -4   -1    0    0    0  501 -0.00000000000E+00 -0.00000000000E+00 -0.19806820768E+04  0.19806824839E+04  0.12700000000E+01 0. -1.
    8880022    1    1    2    0    0 -0.28613343195E+03  0.10496748150E+03 -0.12978441448E+04  0.13418947762E+04  0.15294330000E+03 0.  0.
    8880022    1    1    2    0    0  0.28613343195E+03 -0.10496748150E+03 -0.61682723763E+03  0.70481061793E+03  0.15294330000E+03 0.  0.
<mgrwt>
<rscale>  0 0.34100171E+03</rscale>
<asrwt>0</asrwt>
<pdfrwt beam="1">  1        4 0.10156464E-01 0.34100171E+03</pdfrwt>
<pdfrwt beam="2">  1       -4 0.30472124E+00 0.34100171E+03</pdfrwt>
<totfact> 0.46004830E+00</totfact>
</mgrwt>
</event>
<event>
 4    1  0.8742165E-009  0.4175879E+03  0.7818608E-02  0.1037854E+00
          4   -1    0    0  501    0  0.00000000000E+00  0.00000000000E+00  0.39920822637E+03  0.39921024649E+03  0.12700000000E+01 0. -1.
         -4   -1    0    0    0  501 -0.00000000000E+00 -0.00000000000E+00 -0.86608071484E+03  0.86608164599E+03  0.12700000000E+01 0.  1.
    8880022    1    1    2    0    0  0.33504741810E+03  0.19680260553E+03  0.21195985695E+03  0.46830190250E+03  0.15294330000E+03 0. -1.
    8880022    1    1    2    0    0 -0.33504741810E+03 -0.19680260553E+03 -0.67883234542E+03  0.79698998998E+03  0.15294330000E+03 0.  0.
<mgrwt>
<rscale>  0 0.41758794E+03</rscale>
<asrwt>0</asrwt>
<pdfrwt beam="1">  1        4 0.61416878E-01 0.41758794E+03</pdfrwt>
<pdfrwt beam="2">  1       -4 0.13324341E+00 0.41758794E+03</pdfrwt>
<totfact> 0.19712897E+00</totfact>
</mgrwt>
</event>
<event>
 4    1  0.8742165E-009  0.1893778E+03  0.7818608E-02  0.1159024E+00
          4   -1    0    0  501    0  0.00000000000E+00  0.00000000000E+00  0.73060396509E+02  0.73071433804E+02  0.12700000000E+01 0. -1.
         -4   -1    0    0    0  501 -0.00000000000E+00 -0.00000000000E+00 -0.49815713144E+03  0.49815875031E+03  0.12700000000E+01 0. -1.
    8880022    1    1    2    0    0 -0.10393362436E+03 -0.40866660170E+02 -0.24718283383E+03  0.31138928778E+03  0.15294330000E+03 0.  0.
    8880022    1    1    2    0    0  0.10393362436E+03  0.40866660170E+02 -0.17791390111E+03  0.25984089634E+03  0.15294330000E+03 0.  0.
<mgrwt>
<rscale>  0 0.18937776E+03</rscale>
<asrwt>0</asrwt>
<pdfrwt beam="1">  1        4 0.11241035E-01 0.18937776E+03</pdfrwt>
<pdfrwt beam="2">  1       -4 0.76640530E-01 0.18937776E+03</pdfrwt>
<totfact> 0.17141577E+02</totfact>
</mgrwt>
</event>
<event>
 4    1  0.8742165E-009  0.2474460E+03  0.7818608E-02  0.1114930E+00
          4   -1    0    0  501    0  0.00000000000E+00  0.00000000000E+00  0.66937182779E+03  0.66937303257E+03  0.12700000000E+01 0. -1.
         -4   -1    0    0    0  501 -0.00000000000E+00 -0.00000000000E+00 -0.38120528937E+03  0.38120740489E+03  0.12700000000E+01 0. -1.
    8880022    1    1    2    0    0  0.77177985244E+02  0.17855364720E+03  0.60203395792E+03  0.65090274684E+03  0.15294330000E+03 0.  0.
    8880022    1    1    2    0    0 -0.77177985244E+02 -0.17855364720E+03 -0.31386741950E+03  0.39967769062E+03  0.15294330000E+03 0.  0.
<mgrwt>
<rscale>  0 0.24744595E+03</rscale>
<asrwt>0</asrwt>
<pdfrwt beam="1">  1        4 0.10298054E+00 0.24744595E+03</pdfrwt>
<pdfrwt beam="2">  1       -4 0.58647224E-01 0.24744595E+03</pdfrwt>
<totfact> 0.39933030E+00</totfact>
</mgrwt>
</event>
<event>
 4    1  0.8742165E-009  0.2159007E+03  0.7818608E-02  0.1136977E+00
          4   -1    0    0  501    0  0.00000000000E+00  0.00000000000E+00  0.49425621174E+03  0.49425784338E+03  0.12700000000E+01 0. -1.
         -4   -1    0    0    0  501 -0.00000000000E+00 -0.00000000000E+00 -0.26543033204E+03  0.26543337030E+03  0.12700000000E+01 0. -1.
    8880022    1    1    2    0    0 -0.80726231462E+02 -0.12924677339E+03 -0.19057647370E+03  0.28798003094E+03  0.15294330000E+03 0.  0.
    8880022    1    1    2    0    0  0.80726231462E+02  0.12924677339E+03  0.41940235339E+03  0.47171118274E+03  0.15294330000E+03 0.  0.
<mgrwt>
<rscale>  0 0.21590069E+03</rscale>
<asrwt>0</asrwt>
<pdfrwt beam="1">  1        4 0.76039776E-01 0.21590069E+03</pdfrwt>
<pdfrwt beam="2">  1       -4 0.40835795E-01 0.21590069E+03</pdfrwt>
<totfact> 0.16596253E+01</totfact>
</mgrwt>
</event>
<event>
 4    1  0.8742165E-009  0.1914526E+03  0.7818608E-02  0.1157158E+00
         -4   -1    0    0    0  501 -0.00000000000E+00  0.00000000000E+00  0.21730685979E+03  0.21731057087E+03  0.12700000000E+01 0. -1.
          4   -1    0    0  501    0  0.00000000000E+00 -0.00000000000E+00 -0.17575451654E+03  0.17575910498E+03  0.12700000000E+01 0. -1.
    8880022    1    1    2    0    0 -0.60538180883E+01  0.11500341701E+03  0.60242765730E+02  0.20070694676E+03  0.15294330000E+03 0.  0.
    8880022    1    1    2    0    0  0.60538180883E+01 -0.11500341701E+03 -0.18690422475E+02  0.19236272910E+03  0.15294330000E+03 0.  0.
<mgrwt>
<rscale>  0 0.19145257E+03</rscale>
<asrwt>0</asrwt>
<pdfrwt beam="1">  1        4 0.27039795E-01 0.19145257E+03</pdfrwt>
<pdfrwt beam="2">  1       -4 0.33432463E-01 0.19145257E+03</pdfrwt>
<totfact> 0.19744343E+02</totfact>
</mgrwt>
</event>
<event>
 4    1  0.8742165E-009  0.3145411E+03  0.7818608E-02  0.1078189E+00
         -4   -1    0    0    0  501 -0.00000000000E+00  0.00000000000E+00  0.64340457811E+03  0.64340583152E+03  0.12700000000E+01 0.  1.
          4   -1    0    0  501    0  0.00000000000E+00 -0.00000000000E+00 -0.15418922378E+03  0.15419445395E+03  0.12700000000E+01 0.  1.
    8880022    1    1    2    0    0 -0.12172835138E+02 -0.27458383373E+03  0.22370585802E+03  0.38597982278E+03  0.15294330000E+03 0.  0.
    8880022    1    1    2    0    0  0.12172835138E+02  0.27458383373E+03  0.26550949631E+03  0.41162046269E+03  0.15294330000E+03 0.  0.
<mgrwt>
<rscale>  0 0.31454111E+03</rscale>
<asrwt>0</asrwt>
<pdfrwt beam="1">  1        4 0.23721918E-01 0.31454111E+03</pdfrwt>
<pdfrwt beam="2">  1       -4 0.98985819E-01 0.31454111E+03</pdfrwt>
<totfact> 0.26795423E+01</totfact>
</mgrwt>
</event>
<event>
 4    1  0.8742165E-009  0.3097791E+03  0.7818608E-02  0.1080452E+00
          4   -1    0    0  501    0  0.00000000000E+00  0.00000000000E+00  0.47479458751E+03  0.47479628603E+03  0.12700000000E+01 0. -1.
         -4   -1    0    0    0  501 -0.00000000000E+00 -0.00000000000E+00 -0.23591341349E+03  0.23591683188E+03  0.12700000000E+01 0. -1.
    8880022    1    1    2    0    0  0.22343640222E+03 -0.15049129606E+03 -0.15070239450E+02  0.31014548386E+03  0.15294330000E+03 0.  0.
    8880022    1    1    2    0    0 -0.22343640222E+03  0.15049129606E+03  0.25395141348E+03  0.40056763405E+03  0.15294330000E+03 0.  0.
<mgrwt>
<rscale>  0 0.30977913E+03</rscale>
<asrwt>0</asrwt>
<pdfrwt beam="1">  1        4 0.73045714E-01 0.30977913E+03</pdfrwt>
<pdfrwt beam="2">  1       -4 0.36294765E-01 0.30977913E+03</pdfrwt>
<totfact> 0.23668901E+01</totfact>
</mgrwt>
</event>
<event>
 4    1  0.8742165E-009  0.3411447E+03  0.7818608E-02  0.1066309E+00
         -4   -1    0    0    0  501 -0.00000000000E+00  0.00000000000E+00  0.22296087912E+03  0.22296449609E+03  0.12700000000E+01 0. -1.
          4   -1    0    0  501    0  0.00000000000E+00 -0.00000000000E+00 -0.53391917155E+03  0.53392068198E+03  0.12700000000E+01 0. -1.
    8880022    1    1    2    0    0 -0.22261670122E+03 -0.20839838683E+03 -0.98853030803E+02  0.35517834676E+03  0.15294330000E+03 0.  0.
    8880022    1    1    2    0    0  0.22261670122E+03  0.20839838683E+03 -0.21210526162E+03  0.40170683131E+03  0.15294330000E+03 0.  0.
<mgrwt>
<rscale>  0 0.34114474E+03</rscale>
<asrwt>0</asrwt>
<pdfrwt beam="1">  1        4 0.82141805E-01 0.34114474E+03</pdfrwt>
<pdfrwt beam="2">  1       -4 0.34302068E-01 0.34114474E+03</pdfrwt>
<totfact> 0.20500533E+01</totfact>
</mgrwt>
</event>
<event>
 4    1  0.8742165E-009  0.2205053E+03  0.7818608E-02  0.1133507E+00
         -4   -1    0    0    0  501 -0.00000000000E+00  0.00000000000E+00  0.27258037420E+03  0.27258333276E+03  0.12700000000E+01 0.  1.
          4   -1    0    0  501    0  0.00000000000E+00 -0.00000000000E+00 -0.32892651743E+03  0.32892896918E+03  0.12700000000E+01 0.  1.
    8880022    1    1    2    0    0 -0.15879091370E+03 -0.40482103308E+01 -0.23164600452E+03  0.31981630150E+03  0.15294330000E+03 0.  0.
    8880022    1    1    2    0    0  0.15879091370E+03  0.40482103308E+01  0.17529986129E+03  0.28169600044E+03  0.15294330000E+03 0.  0.
<mgrwt>
<rscale>  0 0.22050532E+03</rscale>
<asrwt>0</asrwt>
<pdfrwt beam="1">  1        4 0.50604496E-01 0.22050532E+03</pdfrwt>
<pdfrwt beam="2">  1       -4 0.41935858E-01 0.22050532E+03</pdfrwt>
<totfact> 0.37612522E+01</totfact>
</mgrwt>
</event>
<event>
 4    1  0.8742165E-009  0.3445424E+03  0.7818608E-02  0.1064878E+00
          4   -1    0    0  501    0  0.00000000000E+00  0.00000000000E+00  0.33572470923E+03  0.33572711133E+03  0.12700000000E+01 0. -1.
         -4   -1    0    0    0  501 -0.00000000000E+00 -0.00000000000E+00 -0.36194421190E+03  0.36194644000E+03  0.12700000000E+01 0. -1.
    8880022    1    1    2    0    0 -0.27851344847E+00 -0.30873572988E+03  0.39897015354E+02  0.34684471067E+03  0.15294330000E+03 0.  0.
    8880022    1    1    2    0    0  0.27851344847E+00  0.30873572988E+03 -0.66116518031E+02  0.35082884067E+03  0.15294330000E+03 0.  0.
<mgrwt>
<rscale>  0 0.34454242E+03</rscale>
<asrwt>0</asrwt>
<pdfrwt beam="1">  1        4 0.51650311E-01 0.34454242E+03</pdfrwt>
<pdfrwt beam="2">  1       -4 0.55684081E-01 0.34454242E+03</pdfrwt>
<totfact> 0.20995060E+01</totfact>
</mgrwt>
</event>
<event>
 4    1  0.8742165E-009  0.1750297E+03  0.7818608E-02  0.1172702E+00
          4   -1    0    0  501    0  0.00000000000E+00  0.00000000000E+00  0.11187911379E+03  0.11188632179E+03  0.12700000000E+01 0. -1.
         -4   -1    0    0    0  501 -0.00000000000E+00 -0.00000000000E+00 -0.69914917504E+03  0.69915032851E+03  0.12700000000E+01 0. -1.
    8880022    1    1    2    0    0  0.29744307326E+02 -0.79743468533E+02 -0.60992921059E+03  0.63454632576E+03  0.15294330000E+03 0.  0.
    8880022    1    1    2    0    0 -0.29744307326E+02  0.79743468533E+02  0.22659149344E+02  0.17649032454E+03  0.15294330000E+03 0.  0.
<mgrwt>
<rscale>  0 0.17502970E+03</rscale>
<asrwt>0</asrwt>
<pdfrwt beam="1">  1        4 0.17212815E-01 0.17502970E+03</pdfrwt>
<pdfrwt beam="2">  1       -4 0.10756205E+00 0.17502970E+03</pdfrwt>
<totfact> 0.37197816E+01</totfact>
</mgrwt>
</event>
<event>
 4    1  0.8742165E-009  0.2234485E+03  0.7818608E-02  0.1131338E+00
         -4   -1    0    0    0  501 -0.00000000000E+00  0.00000000000E+00  0.25385365703E+03  0.25385683384E+03  0.12700000000E+01 0.  1.
          4   -1    0    0  501    0  0.00000000000E+00 -0.00000000000E+00 -0.41227455218E+03  0.41227650828E+03  0.12700000000E+01 0.  1.
    8880022    1    1    2    0    0  0.16257996793E+03  0.10263322150E+02  0.16164412252E+03  0.27578625259E+03  0.15294330000E+03 0.  0.
    8880022    1    1    2    0    0 -0.16257996793E+03 -0.10263322150E+02 -0.32006501767E+03  0.39034708953E+03  0.15294330000E+03 0.  0.
<mgrwt>
<rscale>  0 0.22344851E+03</rscale>
<asrwt>0</asrwt>
<pdfrwt beam="1">  1        4 0.63427249E-01 0.22344851E+03</pdfrwt>
<pdfrwt beam="2">  1       -4 0.39054804E-01 0.22344851E+03</pdfrwt>
<totfact> 0.27004426E+01</totfact>
</mgrwt>
</event>
<event>
 4    1  0.8742165E-009  0.4027809E+03  0.7818608E-02  0.1042821E+00
          4   -1    0    0  501    0  0.00000000000E+00  0.00000000000E+00  0.41275151619E+03  0.41275347003E+03  0.12700000000E+01 0.  1.
         -4   -1    0    0    0  501 -0.00000000000E+00 -0.00000000000E+00 -0.60079197350E+03  0.60079331581E+03  0.12700000000E+01 0.  1.
    8880022    1    1    2    0    0  0.35875946851E+03 -0.10065992510E+03 -0.39201970968E+03  0.56206039049E+03  0.15294330000E+03 0.  0.
    8880022    1    1    2    0    0 -0.35875946851E+03  0.10065992510E+03  0.20397925238E+03  0.45148639534E+03  0.15294330000E+03 0.  0.
<mgrwt>
<rscale>  0 0.40278087E+03</rscale>
<asrwt>0</asrwt>
<pdfrwt beam="1">  1        4 0.63500487E-01 0.40278087E+03</pdfrwt>
<pdfrwt beam="2">  1       -4 0.92429787E-01 0.40278087E+03</pdfrwt>
<totfact> 0.44501133E+00</totfact>
</mgrwt>
</event>
<event>
 4    1  0.8742165E-009  0.2004938E+03  0.7818608E-02  0.1149323E+00
         -4   -1    0    0    0  501 -0.00000000000E+00  0.00000000000E+00  0.30685931124E+03  0.30686193930E+03  0.12700000000E+01 0. -1.
          4   -1    0    0  501    0  0.00000000000E+00 -0.00000000000E+00 -0.17425417995E+03  0.17425880790E+03  0.12700000000E+01 0. -1.
    8880022    1    1    2    0    0  0.70589510928E+02  0.10873459674E+03  0.18616455813E+03  0.27359639489E+03  0.15294330000E+03 0.  0.
    8880022    1    1    2    0    0 -0.70589510928E+02 -0.10873459674E+03 -0.53559426842E+02  0.20752435231E+03  0.15294330000E+03 0.  0.
<mgrwt>
<rscale>  0 0.20049375E+03</rscale>
<asrwt>0</asrwt>
<pdfrwt beam="1">  1        4 0.26808894E-01 0.20049375E+03</pdfrwt>
<pdfrwt beam="2">  1       -4 0.47209683E-01 0.20049375E+03</pdfrwt>
<totfact> 0.10194040E+02</totfact>
</mgrwt>
</event>
<event>
 4    1  0.8742165E-009  0.1824500E+03  0.7818608E-02  0.1165453E+00
         -4   -1    0    0    0  501 -0.00000000000E+00  0.00000000000E+00  0.18819522319E+03  0.18819950832E+03  0.12700000000E+01 0. -1.
          4   -1    0    0  501    0  0.00000000000E+00 -0.00000000000E+00 -0.17933856317E+03  0.17934305992E+03  0.12700000000E+01 0. -1.
    8880022    1    1    2    0    0  0.98783402282E+02 -0.11755839105E+02 -0.17124654993E+02  0.18325192262E+03  0.15294330000E+03 0. -1.
    8880022    1    1    2    0    0 -0.98783402282E+02  0.11755839105E+02  0.25981315012E+02  0.18429064562E+03  0.15294330000E+03 0. -1.
<mgrwt>
<rscale>  0 0.18245003E+03</rscale>
<asrwt>0</asrwt>
<pdfrwt beam="1">  1        4 0.27591224E-01 0.18245003E+03</pdfrwt>
<pdfrwt beam="2">  1       -4 0.28953787E-01 0.18245003E+03</pdfrwt>
<totfact> 0.24834973E+02</totfact>
</mgrwt>
</event>
<event>
 4    1  0.8742165E-009  0.1642027E+03  0.7818608E-02  0.1184032E+00
          4   -1    0    0  501    0  0.00000000000E+00  0.00000000000E+00  0.15444162244E+03  0.15444684407E+03  0.12700000000E+01 0. -1.
         -4   -1    0    0    0  501 -0.00000000000E+00 -0.00000000000E+00 -0.36345112356E+03  0.36345334242E+03  0.12700000000E+01 0. -1.
    8880022    1    1    2    0    0  0.51826538441E+02  0.29746938792E+02 -0.29117794233E+03  0.33428598171E+03  0.15294330000E+03 0. -1.
    8880022    1    1    2    0    0 -0.51826538441E+02 -0.29746938792E+02  0.82168441208E+02  0.18361420479E+03  0.15294330000E+03 0. -1.
<mgrwt>
<rscale>  0 0.16420269E+03</rscale>
<asrwt>0</asrwt>
<pdfrwt beam="1">  1        4 0.23760822E-01 0.16420269E+03</pdfrwt>
<pdfrwt beam="2">  1       -4 0.55916130E-01 0.16420269E+03</pdfrwt>
<totfact> 0.87570940E+01</totfact>
</mgrwt>
</event>
<event>
 4    1  0.8742165E-009  0.2338637E+03  0.7818608E-02  0.1123950E+00
         -4   -1    0    0    0  501 -0.00000000000E+00  0.00000000000E+00  0.45499639581E+03  0.45499816824E+03  0.12700000000E+01 0. -1.
          4   -1    0    0  501    0  0.00000000000E+00 -0.00000000000E+00 -0.13243473930E+03  0.13244082857E+03  0.12700000000E+01 0. -1.
    8880022    1    1    2    0    0 -0.11424059036E+03  0.13509126219E+03  0.72002376660E+02  0.24469686730E+03  0.15294330000E+03 0.  0.
    8880022    1    1    2    0    0  0.11424059036E+03 -0.13509126219E+03  0.25055927985E+03  0.34274212951E+03  0.15294330000E+03 0.  0.
<mgrwt>
<rscale>  0 0.23386367E+03</rscale>
<asrwt>0</asrwt>
<pdfrwt beam="1">  1        4 0.20375180E-01 0.23386367E+03</pdfrwt>
<pdfrwt beam="2">  1       -4 0.70000050E-01 0.23386367E+03</pdfrwt>
<totfact> 0.75343966E+01</totfact>
</mgrwt>
</event>
<event>
 4    1  0.8742165E-009  0.2086939E+03  0.7818608E-02  0.1142604E+00
         -4   -1    0    0    0  501 -0.00000000000E+00  0.00000000000E+00  0.12456048745E+03  0.12456696164E+03  0.12700000000E+01 0. -1.
          4   -1    0    0  501    0  0.00000000000E+00 -0.00000000000E+00 -0.44855722115E+03  0.44855901902E+03  0.12700000000E+01 0. -1.
    8880022    1    1    2    0    0 -0.72864735947E+02 -0.12186963361E+03 -0.29656827061E+03  0.36263738016E+03  0.15294330000E+03 0.  0.
    8880022    1    1    2    0    0  0.72864735947E+02  0.12186963361E+03 -0.27428463100E+02  0.21048860051E+03  0.15294330000E+03 0.  0.
<mgrwt>
<rscale>  0 0.20869387E+03</rscale>
<asrwt>0</asrwt>
<pdfrwt beam="1">  1        4 0.69009439E-01 0.20869387E+03</pdfrwt>
<pdfrwt beam="2">  1       -4 0.19163788E-01 0.20869387E+03</pdfrwt>
<totfact> 0.85620167E+01</totfact>
</mgrwt>
</event>
<event>
 4    1  0.8742165E-009  0.2118130E+03  0.7818608E-02  0.1140138E+00
         -4   -1    0    0    0  501 -0.00000000000E+00  0.00000000000E+00  0.45900291075E+02  0.45917857319E+02  0.12700000000E+01 0.  1.
          4   -1    0    0  501    0  0.00000000000E+00 -0.00000000000E+00 -0.10240461390E+04  0.10240469265E+04  0.12700000000E+01 0.  1.
    8880022    1    1    2    0    0 -0.13738759065E+03  0.50968021707E+02 -0.60345400412E+03  0.63954786952E+03  0.15294330000E+03 0.  0.
    8880022    1    1    2    0    0  0.13738759065E+03 -0.50968021707E+02 -0.37469184384E+03  0.43041691435E+03  0.15294330000E+03 0.  0.
<mgrwt>
<rscale>  0 0.21181299E+03</rscale>
<asrwt>0</asrwt>
<pdfrwt beam="1">  1        4 0.15754695E+00 0.21181299E+03</pdfrwt>
<pdfrwt beam="2">  1       -4 0.70629958E-02 0.21181299E+03</pdfrwt>
<totfact> 0.67943584E+01</totfact>
</mgrwt>
</event>
<event>
 4    1  0.8742165E-009  0.1552379E+03  0.7818608E-02  0.1194180E+00
         -4   -1    0    0    0  501 -0.00000000000E+00  0.00000000000E+00  0.13771329218E+04  0.13771335074E+04  0.12700000000E+01 0.  1.
          4   -1    0    0  501    0  0.00000000000E+00 -0.00000000000E+00 -0.18009740728E+02  0.18054463744E+02  0.12700000000E+01 0.  1.
    8880022    1    1    2    0    0 -0.35078501221E+01  0.26359997030E+02  0.55958079816E+03  0.58071462625E+03  0.15294330000E+03 0.  0.
    8880022    1    1    2    0    0  0.35078501221E+01 -0.26359997030E+02  0.79954238290E+03  0.81447334488E+03  0.15294330000E+03 0.  0.
<mgrwt>
<rscale>  0 0.15523791E+03</rscale>
<asrwt>0</asrwt>
<pdfrwt beam="1">  1        4 0.27742148E-02 0.15523791E+03</pdfrwt>
<pdfrwt beam="2">  1       -4 0.21187008E+00 0.15523791E+03</pdfrwt>
<totfact> 0.12897083E+02</totfact>
</mgrwt>
</event>
<event>
 4    1  0.8742165E-009  0.1770556E+03  0.7818608E-02  0.1170683E+00
         -4   -1    0    0    0  501 -0.00000000000E+00  0.00000000000E+00  0.38107379386E+02  0.38128536080E+02  0.12700000000E+01 0.  1.
          4   -1    0    0  501    0  0.00000000000E+00 -0.00000000000E+00 -0.13513534910E+04  0.13513540877E+04  0.12700000000E+01 0.  1.
    8880022    1    1    2    0    0  0.86350450163E+02 -0.22375153614E+02 -0.22196529095E+03  0.28393184243E+03  0.15294330000E+03 0.  0.
    8880022    1    1    2    0    0 -0.86350450163E+02  0.22375153614E+02 -0.10912808206E+04  0.11055507814E+04  0.15294330000E+03 0.  0.
<mgrwt>
<rscale>  0 0.17705564E+03</rscale>
<asrwt>0</asrwt>
<pdfrwt beam="1">  1        4 0.20790217E+00 0.17705564E+03</pdfrwt>
<pdfrwt beam="2">  1       -4 0.58643481E-02 0.17705564E+03</pdfrwt>
<totfact> 0.41935759E+01</totfact>
</mgrwt>
</event>
<event>
 4    1  0.8742165E-009  0.1626597E+03  0.7818608E-02  0.1185726E+00
          4   -1    0    0  501    0  0.00000000000E+00  0.00000000000E+00  0.36923795249E+03  0.36924013657E+03  0.12700000000E+01 0. -1.
         -4   -1    0    0    0  501 -0.00000000000E+00 -0.00000000000E+00 -0.77652170893E+02  0.77662555613E+02  0.12700000000E+01 0. -1.
    8880022    1    1    2    0    0 -0.44999885457E+02  0.32273076829E+02  0.83664601045E+02  0.18291517067E+03  0.15294330000E+03 0.  1.
    8880022    1    1    2    0    0  0.44999885457E+02 -0.32273076829E+02  0.20792118055E+03  0.26398752151E+03  0.15294330000E+03 0.  1.
<mgrwt>
<rscale>  0 0.16265975E+03</rscale>
<asrwt>0</asrwt>
<pdfrwt beam="1">  1        4 0.56806806E-01 0.16265975E+03</pdfrwt>
<pdfrwt beam="2">  1       -4 0.11947455E-01 0.16265975E+03</pdfrwt>
<totfact> 0.28671920E+02</totfact>
</mgrwt>
</event>
<event>
 4    1  0.8742165E-009  0.1995154E+03  0.7818608E-02  0.1150149E+00
         -4   -1    0    0    0  501 -0.00000000000E+00  0.00000000000E+00  0.31004820308E+03  0.31005080412E+03  0.12700000000E+01 0.  1.
          4   -1    0    0  501    0  0.00000000000E+00 -0.00000000000E+00 -0.27530890471E+03  0.27531183395E+03  0.12700000000E+01 0.  1.
    8880022    1    1    2    0    0  0.45219408984E+02  0.11987471528E+03 -0.19644163361E+03  0.27999234050E+03  0.15294330000E+03 0.  0.
    8880022    1    1    2    0    0 -0.45219408984E+02 -0.11987471528E+03  0.23118093198E+03  0.30537029757E+03  0.15294330000E+03 0.  0.
<mgrwt>
<rscale>  0 0.19951540E+03</rscale>
<asrwt>0</asrwt>
<pdfrwt beam="1">  1        4 0.42355641E-01 0.19951540E+03</pdfrwt>
<pdfrwt beam="2">  1       -4 0.47700149E-01 0.19951540E+03</pdfrwt>
<totfact> 0.41147241E+01</totfact>
</mgrwt>
</event>
<event>
 4    1  0.8742165E-009  0.2744274E+03  0.7818608E-02  0.1098772E+00
         -4   -1    0    0    0  501 -0.00000000000E+00  0.00000000000E+00  0.42979432360E+03  0.42979619996E+03  0.12700000000E+01 0.  1.
          4   -1    0    0  501    0  0.00000000000E+00 -0.00000000000E+00 -0.23438682285E+03  0.23439026350E+03  0.12700000000E+01 0. -1.
    8880022    1    1    2    0    0  0.25576849836E+02 -0.22641681659E+03  0.26455447536E+03  0.38118168047E+03  0.15294330000E+03 0.  0.
    8880022    1    1    2    0    0 -0.25576849836E+02  0.22641681659E+03 -0.69146974604E+02  0.28300478299E+03  0.15294330000E+03 0.  0.
<mgrwt>
<rscale>  0 0.27442741E+03</rscale>
<asrwt>0</asrwt>
<pdfrwt beam="1">  1        4 0.36059921E-01 0.27442741E+03</pdfrwt>
<pdfrwt beam="2">  1       -4 0.66122612E-01 0.27442741E+03</pdfrwt>
<totfact> 0.29491936E+01</totfact>
</mgrwt>
</event>
<event>
 4    1  0.8742165E-009  0.1989741E+03  0.7818608E-02  0.1150607E+00
         -4   -1    0    0    0  501 -0.00000000000E+00  0.00000000000E+00  0.28166441697E+03  0.28166728011E+03  0.12700000000E+01 0. -1.
          4   -1    0    0  501    0  0.00000000000E+00 -0.00000000000E+00 -0.69661593789E+03  0.69661709556E+03  0.12700000000E+01 0. -1.
    8880022    1    1    2    0    0  0.93642690650E+02 -0.86198003332E+02 -0.64449270555E+03  0.67450837639E+03  0.15294330000E+03 0.  0.
    8880022    1    1    2    0    0 -0.93642690650E+02  0.86198003332E+02  0.22954118463E+03  0.30377599929E+03  0.15294330000E+03 0.  0.
<mgrwt>
<rscale>  0 0.19897412E+03</rscale>
<asrwt>0</asrwt>
<pdfrwt beam="1">  1        4 0.10717199E+00 0.19897412E+03</pdfrwt>
<pdfrwt beam="2">  1       -4 0.43333297E-01 0.19897412E+03</pdfrwt>
<totfact> 0.66768237E+00</totfact>
</mgrwt>
</event>
<event>
 4    1  0.8742165E-009  0.1552892E+03  0.7818608E-02  0.1194120E+00
          4   -1    0    0  501    0  0.00000000000E+00  0.00000000000E+00  0.35511457698E+03  0.35511684793E+03  0.12700000000E+01 0.  1.
         -4   -1    0    0    0  501 -0.00000000000E+00 -0.00000000000E+00 -0.13608737457E+03  0.13609330042E+03  0.12700000000E+01 0.  1.
    8880022    1    1    2    0    0  0.10467334288E+02  0.24769247153E+02  0.28336068237E+03  0.32312228338E+03  0.15294330000E+03 0.  0.
    8880022    1    1    2    0    0 -0.10467334288E+02 -0.24769247153E+02 -0.64333479954E+02  0.16808786497E+03  0.15294330000E+03 0.  0.
<mgrwt>
<rscale>  0 0.15528919E+03</rscale>
<asrwt>0</asrwt>
<pdfrwt beam="1">  1        4 0.54633643E-01 0.15528919E+03</pdfrwt>
<pdfrwt beam="2">  1       -4 0.20937150E-01 0.15528919E+03</pdfrwt>
<totfact> 0.11483678E+02</totfact>
</mgrwt>
</event>
<event>
 4    1  0.8742165E-009  0.1668267E+03  0.7818608E-02  0.1181198E+00
         -4   -1    0    0    0  501 -0.00000000000E+00  0.00000000000E+00  0.27669564832E+03  0.27669856288E+03  0.12700000000E+01 0. -1.
          4   -1    0    0  501    0  0.00000000000E+00 -0.00000000000E+00 -0.13875094356E+03  0.13875675565E+03  0.12700000000E+01 0. -1.
    8880022    1    1    2    0    0  0.46848397790E+02  0.47378424190E+02  0.17792740239E+03  0.24390428654E+03  0.15294330000E+03 0. -1.
    8880022    1    1    2    0    0 -0.46848397790E+02 -0.47378424190E+02 -0.39982697626E+02  0.17155103200E+03  0.15294330000E+03 0. -1.
<mgrwt>
<rscale>  0 0.16682668E+03</rscale>
<asrwt>0</asrwt>
<pdfrwt beam="1">  1        4 0.21346970E-01 0.16682668E+03</pdfrwt>
<pdfrwt beam="2">  1       -4 0.42569232E-01 0.16682668E+03</pdfrwt>
<totfact> 0.18618499E+02</totfact>
</mgrwt>
</event>
<event>
 4    1  0.8742165E-009  0.2042308E+03  0.7818608E-02  0.1146218E+00
         -4   -1    0    0    0  501 -0.00000000000E+00  0.00000000000E+00  0.13693177709E+03  0.13693766639E+03  0.12700000000E+01 0.  1.
          4   -1    0    0  501    0  0.00000000000E+00 -0.00000000000E+00 -0.43306541817E+03  0.43306728036E+03  0.12700000000E+01 0.  1.
    8880022    1    1    2    0    0  0.81010546515E+02 -0.10842438430E+03 -0.30329638142E+03  0.36564860694E+03  0.15294330000E+03 0.  0.
    8880022    1    1    2    0    0 -0.81010546515E+02  0.10842438430E+03  0.71627403328E+01  0.20435633981E+03  0.15294330000E+03 0.  0.
<mgrwt>
<rscale>  0 0.20423077E+03</rscale>
<asrwt>0</asrwt>
<pdfrwt beam="1">  1        4 0.66626045E-01 0.20423077E+03</pdfrwt>
<pdfrwt beam="2">  1       -4 0.21067024E-01 0.20423077E+03</pdfrwt>
<totfact> 0.77582526E+01</totfact>
</mgrwt>
</event>
<event>
 4    1  0.8742165E-009  0.3336855E+03  0.7818608E-02  0.1069518E+00
         -4   -1    0    0    0  501 -0.00000000000E+00  0.00000000000E+00  0.16114692509E+03  0.16115192945E+03  0.12700000000E+01 0. -1.
          4   -1    0    0  501    0  0.00000000000E+00 -0.00000000000E+00 -0.71510849573E+03  0.71510962346E+03  0.12700000000E+01 0. -1.
    8880022    1    1    2    0    0 -0.28229628554E+03 -0.90901824481E+02 -0.35752099529E+03  0.48904728770E+03  0.15294330000E+03 0.  0.
    8880022    1    1    2    0    0  0.28229628554E+03  0.90901824481E+02 -0.19644057535E+03  0.38721426521E+03  0.15294330000E+03 0.  0.
<mgrwt>
<rscale>  0 0.33368546E+03</rscale>
<asrwt>0</asrwt>
<pdfrwt beam="1">  1        4 0.11001716E+00 0.33368546E+03</pdfrwt>
<pdfrwt beam="2">  1       -4 0.24792307E-01 0.33368546E+03</pdfrwt>
<totfact> 0.19273542E+01</totfact>
</mgrwt>
</event>
<event>
 4    1  0.8742165E-009  0.1534905E+03  0.7818608E-02  0.1196248E+00
         -4   -1    0    0    0  501 -0.00000000000E+00  0.00000000000E+00  0.26497935976E+03  0.26498240318E+03  0.12700000000E+01 0.  1.
          4   -1    0    0  501    0  0.00000000000E+00 -0.00000000000E+00 -0.93599940856E+02  0.93608556383E+02  0.12700000000E+01 0.  1.
    8880022    1    1    2    0    0  0.12100301927E+02  0.46101846546E+01  0.45523553409E+02  0.16009908819E+03  0.15294330000E+03 0. -1.
    8880022    1    1    2    0    0 -0.12100301927E+02 -0.46101846546E+01  0.12585586549E+03  0.19849187138E+03  0.15294330000E+03 0. -1.
<mgrwt>
<rscale>  0 0.15349047E+03</rscale>
<asrwt>0</asrwt>
<pdfrwt beam="1">  1        4 0.14400888E-01 0.15349047E+03</pdfrwt>
<pdfrwt beam="2">  1       -4 0.40766952E-01 0.15349047E+03</pdfrwt>
<totfact> 0.40314329E+02</totfact>
</mgrwt>
</event>
<event>
 4    1  0.8742165E-009  0.1828527E+03  0.7818608E-02  0.1165070E+00
         -4   -1    0    0    0  501 -0.00000000000E+00  0.00000000000E+00  0.80350564314E+03  0.80350664680E+03  0.12700000000E+01 0.  1.
          4   -1    0    0  501    0  0.00000000000E+00 -0.00000000000E+00 -0.12974278331E+03  0.12974899892E+03  0.12700000000E+01 0.  1.
    8880022    1    1    2    0    0  0.49006199132E+02 -0.87417715151E+02 -0.47707921187E+02  0.18897397502E+03  0.15294330000E+03 0.  0.
    8880022    1    1    2    0    0 -0.49006199132E+02  0.87417715151E+02  0.72147078101E+03  0.74428167070E+03  0.15294330000E+03 0.  0.
<mgrwt>
<rscale>  0 0.18285272E+03</rscale>
<asrwt>0</asrwt>
<pdfrwt beam="1">  1        4 0.19960983E-01 0.18285272E+03</pdfrwt>
<pdfrwt beam="2">  1       -4 0.12361681E+00 0.18285272E+03</pdfrwt>
<totfact> 0.20530999E+01</totfact>
</mgrwt>
</event>
<event>
 4    1  0.8742165E-009  0.1691291E+03  0.7818608E-02  0.1178759E+00
         -4   -1    0    0    0  501 -0.00000000000E+00  0.00000000000E+00  0.47354745740E+03  0.47354916040E+03  0.12700000000E+01 0.  1.
          4   -1    0    0  501    0  0.00000000000E+00 -0.00000000000E+00 -0.79303940918E+02  0.79314109370E+02  0.12700000000E+01 0.  1.
    8880022    1    1    2    0    0 -0.48982081732E+02 -0.53044718221E+02  0.62157243748E+02  0.18018924060E+03  0.15294330000E+03 0.  0.
    8880022    1    1    2    0    0  0.48982081732E+02  0.53044718221E+02  0.33208627273E+03  0.37267402917E+03  0.15294330000E+03 0.  0.
<mgrwt>
<rscale>  0 0.16912906E+03</rscale>
<asrwt>0</asrwt>
<pdfrwt beam="1">  1        4 0.12201519E-01 0.16912906E+03</pdfrwt>
<pdfrwt beam="2">  1       -4 0.72854371E-01 0.16912906E+03</pdfrwt>
<totfact> 0.16358883E+02</totfact>
</mgrwt>
</event>
<event>
 4    1  0.8742165E-009  0.2096518E+03  0.7818608E-02  0.1141842E+00
          4   -1    0    0  501    0  0.00000000000E+00  0.00000000000E+00  0.42195294971E+02  0.42214402965E+02  0.12700000000E+01 0.  1.
         -4   -1    0    0    0  501 -0.00000000000E+00 -0.00000000000E+00 -0.10744759492E+04  0.10744766997E+04  0.12700000000E+01 0.  1.
    8880022    1    1    2    0    0 -0.61694046845E+02  0.12944515790E+03 -0.61407039569E+03  0.64887310639E+03  0.15294330000E+03 0.  0.
    8880022    1    1    2    0    0  0.61694046845E+02 -0.12944515790E+03 -0.41821025850E+03  0.46781799629E+03  0.15294330000E+03 0.  0.
<mgrwt>
<rscale>  0 0.20965175E+03</rscale>
<asrwt>0</asrwt>
<pdfrwt beam="1">  1        4 0.64931122E-02 0.20965175E+03</pdfrwt>
<pdfrwt beam="2">  1       -4 0.16530550E+00 0.20965175E+03</pdfrwt>
<totfact> 0.68658504E+01</totfact>
</mgrwt>
</event>
<event>
 4    1  0.8742165E-009  0.1563579E+03  0.7818608E-02  0.1192871E+00
         -4   -1    0    0    0  501 -0.00000000000E+00  0.00000000000E+00  0.29018085040E+02  0.29045863034E+02  0.12700000000E+01 0. -1.
          4   -1    0    0  501    0  0.00000000000E+00 -0.00000000000E+00 -0.14222457998E+04  0.14222463668E+04  0.12700000000E+01 0. -1.
    8880022    1    1    2    0    0  0.28100608574E+02 -0.16325106284E+02 -0.23315350801E+03  0.28072827540E+03  0.15294330000E+03 0.  1.
    8880022    1    1    2    0    0 -0.28100608574E+02  0.16325106284E+02 -0.11600742068E+04  0.11705639545E+04  0.15294330000E+03 0.  1.
<mgrwt>
<rscale>  0 0.15635794E+03</rscale>
<asrwt>0</asrwt>
<pdfrwt beam="1">  1        4 0.21880917E+00 0.15635794E+03</pdfrwt>
<pdfrwt beam="2">  1       -4 0.44665023E-02 0.15635794E+03</pdfrwt>
<totfact> 0.55144788E+01</totfact>
</mgrwt>
</event>
<event>
 4    1  0.8742165E-009  0.1557126E+03  0.7818608E-02  0.1193624E+00
         -4   -1    0    0    0  501 -0.00000000000E+00  0.00000000000E+00  0.21955709646E+03  0.21956076950E+03  0.12700000000E+01 0.  1.
          4   -1    0    0  501    0  0.00000000000E+00 -0.00000000000E+00 -0.19643034020E+03  0.19643444569E+03  0.12700000000E+01 0.  1.
    8880022    1    1    2    0    0  0.41924952119E+01  0.28934107235E+02 -0.12606446122E+03  0.20034635254E+03  0.15294330000E+03 0.  0.
    8880022    1    1    2    0    0 -0.41924952119E+01 -0.28934107235E+02  0.14919121747E+03  0.21564886265E+03  0.15294330000E+03 0.  0.
<mgrwt>
<rscale>  0 0.15571260E+03</rscale>
<asrwt>0</asrwt>
<pdfrwt beam="1">  1        4 0.30220650E-01 0.15571260E+03</pdfrwt>
<pdfrwt beam="2">  1       -4 0.33778613E-01 0.15571260E+03</pdfrwt>
<totfact> 0.15193990E+02</totfact>
</mgrwt>
</event>
<event>
 4    1  0.8742165E-009  0.2014146E+03  0.7818608E-02  0.1148551E+00
         -4   -1    0    0    0  501 -0.00000000000E+00  0.00000000000E+00  0.14669178124E+04  0.14669183621E+04  0.12700000000E+01 0. -1.
          4   -1    0    0  501    0  0.00000000000E+00 -0.00000000000E+00 -0.36238494154E+02  0.36260741285E+02  0.12700000000E+01 0. -1.
    8880022    1    1    2    0    0 -0.65044946103E+02 -0.11377768318E+03  0.10813124282E+04  0.10999110994E+04  0.15294330000E+03 0.  0.
    8880022    1    1    2    0    0  0.65044946103E+02  0.11377768318E+03  0.34936689005E+03  0.40326800404E+03  0.15294330000E+03 0.  0.
<mgrwt>
<rscale>  0 0.20141464E+03</rscale>
<asrwt>0</asrwt>
<pdfrwt beam="1">  1        4 0.55769076E-02 0.20141464E+03</pdfrwt>
<pdfrwt beam="2">  1       -4 0.22568137E+00 0.20141464E+03</pdfrwt>
<totfact> 0.35944654E+01</totfact>
</mgrwt>
</event>
<event>
 4    1  0.8742165E-009  0.2060905E+03  0.7818608E-02  0.1144700E+00
          4   -1    0    0  501    0  0.00000000000E+00  0.00000000000E+00  0.40018307097E+03  0.40018508617E+03  0.12700000000E+01 0.  1.
         -4   -1    0    0    0  501 -0.00000000000E+00 -0.00000000000E+00 -0.12387657306E+03  0.12388308299E+03  0.12700000000E+01 0.  1.
    8880022    1    1    2    0    0  0.11112407694E+03 -0.82055376246E+02  0.38973770832E+02  0.20974330281E+03  0.15294330000E+03 0.  0.
    8880022    1    1    2    0    0 -0.11112407694E+03  0.82055376246E+02  0.23733272708E+03  0.31432486635E+03  0.15294330000E+03 0.  0.
<mgrwt>
<rscale>  0 0.20609051E+03</rscale>
<asrwt>0</asrwt>
<pdfrwt beam="1">  1        4 0.61567282E-01 0.20609051E+03</pdfrwt>
<pdfrwt beam="2">  1       -4 0.19058590E-01 0.20609051E+03</pdfrwt>
<totfact> 0.11033176E+02</totfact>
</mgrwt>
</event>
<event>
 4    1  0.8742165E-009  0.2201450E+03  0.7818608E-02  0.1133775E+00
          4   -1    0    0  501    0  0.00000000000E+00  0.00000000000E+00  0.12225229028E+03  0.12225888671E+03  0.12700000000E+01 0.  1.
         -4   -1    0    0    0  501 -0.00000000000E+00 -0.00000000000E+00 -0.39665994037E+03  0.39666197347E+03  0.12700000000E+01 0.  1.
    8880022    1    1    2    0    0  0.13656431290E+03  0.80139536432E+02 -0.13064219950E+03  0.25599061343E+03  0.15294330000E+03 0. -1.
    8880022    1    1    2    0    0 -0.13656431290E+03 -0.80139536432E+02 -0.14376545059E+03  0.26293024675E+03  0.15294330000E+03 0. -1.
<mgrwt>
<rscale>  0 0.22014497E+03</rscale>
<asrwt>0</asrwt>
<pdfrwt beam="1">  1        4 0.18808709E-01 0.22014497E+03</pdfrwt>
<pdfrwt beam="2">  1       -4 0.61025269E-01 0.22014497E+03</pdfrwt>
<totfact> 0.11615784E+02</totfact>
</mgrwt>
</event>
<event>
 4    1  0.8742165E-009  0.1552894E+03  0.7818608E-02  0.1194120E+00
         -4   -1    0    0    0  501 -0.00000000000E+00  0.00000000000E+00  0.29636977890E+03  0.29637249998E+03  0.12700000000E+01 0.  1.
          4   -1    0    0  501    0  0.00000000000E+00 -0.00000000000E+00 -0.10718686112E+03  0.10719438463E+03  0.12700000000E+01 0.  1.
    8880022    1    1    2    0    0  0.10405504350E+02 -0.24796885526E+02 -0.44537738958E+01  0.15535330434E+03  0.15294330000E+03 0.  0.
    8880022    1    1    2    0    0 -0.10405504350E+02  0.24796885526E+02  0.19363669168E+03  0.24821358027E+03  0.15294330000E+03 0.  0.
<mgrwt>
<rscale>  0 0.15528945E+03</rscale>
<asrwt>0</asrwt>
<pdfrwt beam="1">  1        4 0.16491075E-01 0.15528945E+03</pdfrwt>
<pdfrwt beam="2">  1       -4 0.45596138E-01 0.15528945E+03</pdfrwt>
<totfact> 0.25469246E+02</totfact>
</mgrwt>
</event>
<event>
 4    1  0.8742165E-009  0.4355102E+03  0.7818608E-02  0.1032133E+00
          4   -1    0    0  501    0  0.00000000000E+00  0.00000000000E+00  0.26764306377E+03  0.26764607691E+03  0.12700000000E+01 0.  1.
         -4   -1    0    0    0  501 -0.00000000000E+00 -0.00000000000E+00 -0.12320680835E+04  0.12320687381E+04  0.12700000000E+01 0.  1.
    8880022    1    1    2    0    0  0.14337282355E+03 -0.38173511074E+03  0.65323094469E+01  0.43555916404E+03  0.15294330000E+03 0.  0.
    8880022    1    1    2    0    0 -0.14337282355E+03  0.38173511074E+03 -0.97095732921E+03  0.10641556510E+04  0.15294330000E+03 0.  0.
<mgrwt>
<rscale>  0 0.43551018E+03</rscale>
<asrwt>0</asrwt>
<pdfrwt beam="1">  1        4 0.41176139E-01 0.43551018E+03</pdfrwt>
<pdfrwt beam="2">  1       -4 0.18954921E+00 0.43551018E+03</pdfrwt>
<totfact> 0.17556803E+00</totfact>
</mgrwt>
</event>
<event>
 4    1  0.8742165E-009  0.2072528E+03  0.7818608E-02  0.1143760E+00
          4   -1    0    0  501    0  0.00000000000E+00  0.00000000000E+00  0.99783715289E+02  0.99791796942E+02  0.12700000000E+01 0. -1.
         -4   -1    0    0    0  501 -0.00000000000E+00 -0.00000000000E+00 -0.67971512183E+03  0.67971630828E+03  0.12700000000E+01 0. -1.
    8880022    1    1    2    0    0  0.13986136019E+03 -0.93148883766E+00 -0.52599287822E+03  0.56535142053E+03  0.15294330000E+03 0.  0.
    8880022    1    1    2    0    0 -0.13986136019E+03  0.93148883766E+00 -0.53938528321E+02  0.21415668469E+03  0.15294330000E+03 0.  0.
<mgrwt>
<rscale>  0 0.20725279E+03</rscale>
<asrwt>0</asrwt>
<pdfrwt beam="1">  1        4 0.15352054E-01 0.20725279E+03</pdfrwt>
<pdfrwt beam="2">  1       -4 0.10457227E+00 0.20725279E+03</pdfrwt>
<totfact> 0.49685446E+01</totfact>
</mgrwt>
</event>
<event>
 4    1  0.8742165E-009  0.1586766E+03  0.7818608E-02  0.1190199E+00
         -4   -1    0    0    0  501 -0.00000000000E+00  0.00000000000E+00  0.69199683049E+02  0.69211336023E+02  0.12700000000E+01 0.  1.
          4   -1    0    0  501    0  0.00000000000E+00 -0.00000000000E+00 -0.36907900420E+03  0.36908118923E+03  0.12700000000E+01 0.  1.
    8880022    1    1    2    0    0 -0.23027345692E+01 -0.42205603081E+02 -0.12374626073E+03  0.20122476383E+03  0.15294330000E+03 0. -1.
    8880022    1    1    2    0    0  0.23027345692E+01  0.42205603081E+02 -0.17613306042E+03  0.23706776142E+03  0.15294330000E+03 0. -1.
<mgrwt>
<rscale>  0 0.15867662E+03</rscale>
<asrwt>0</asrwt>
<pdfrwt beam="1">  1        4 0.56782449E-01 0.15867662E+03</pdfrwt>
<pdfrwt beam="2">  1       -4 0.10647170E-01 0.15867662E+03</pdfrwt>
<totfact> 0.34789428E+02</totfact>
</mgrwt>
</event>
<event>
 4    1  0.8742165E-009  0.2699526E+03  0.7818608E-02  0.1101307E+00
          4   -1    0    0  501    0  0.00000000000E+00  0.00000000000E+00  0.21839289706E+03  0.21839658968E+03  0.12700000000E+01 0. -1.
         -4   -1    0    0    0  501 -0.00000000000E+00 -0.00000000000E+00 -0.36878385139E+03  0.36878603817E+03  0.12700000000E+01 0. -1.
    8880022    1    1    2    0    0  0.15252357774E+03 -0.16192372111E+03  0.15388064077E+02  0.27039078896E+03  0.15294330000E+03 0.  0.
    8880022    1    1    2    0    0 -0.15252357774E+03  0.16192372111E+03 -0.16577901841E+03  0.31679183889E+03  0.15294330000E+03 0.  0.
<mgrwt>
<rscale>  0 0.26995256E+03</rscale>
<asrwt>0</asrwt>
<pdfrwt beam="1">  1        4 0.33599360E-01 0.26995256E+03</pdfrwt>
<pdfrwt beam="2">  1       -4 0.56736429E-01 0.26995256E+03</pdfrwt>
<totfact> 0.46892069E+01</totfact>
</mgrwt>
</event>
<event>
 4    1  0.8742165E-009  0.2110593E+03  0.7818608E-02  0.1140730E+00
          4   -1    0    0  501    0  0.00000000000E+00  0.00000000000E+00  0.98630207307E+03  0.98630289072E+03  0.12700000000E+01 0.  1.
         -4   -1    0    0    0  501 -0.00000000000E+00 -0.00000000000E+00 -0.50630696174E+02  0.50646621754E+02  0.12700000000E+01 0.  1.
    8880022    1    1    2    0    0 -0.14466491651E+03 -0.15048100335E+02  0.63831315777E+03  0.67230181005E+03  0.15294330000E+03 0.  0.
    8880022    1    1    2    0    0  0.14466491651E+03  0.15048100335E+02  0.29735821913E+03  0.36464770243E+03  0.15294330000E+03 0.  0.
<mgrwt>
<rscale>  0 0.21105932E+03</rscale>
<asrwt>0</asrwt>
<pdfrwt beam="1">  1        4 0.15174006E+00 0.21105932E+03</pdfrwt>
<pdfrwt beam="2">  1       -4 0.77906262E-02 0.21105932E+03</pdfrwt>
<totfact> 0.63633600E+01</totfact>
</mgrwt>
</event>
<event>
 4    1  0.8742165E-009  0.1625346E+03  0.7818608E-02  0.1185865E+00
         -4   -1    0    0    0  501 -0.00000000000E+00  0.00000000000E+00  0.25405744891E+03  0.25406062317E+03  0.12700000000E+01 0.  1.
          4   -1    0    0  501    0  0.00000000000E+00 -0.00000000000E+00 -0.11562353327E+03  0.11563050785E+03  0.12700000000E+01 0.  1.
    8880022    1    1    2    0    0  0.53846633333E+02 -0.11242125840E+02  0.12788582956E+03  0.20681461199E+03  0.15294330000E+03 0.  0.
    8880022    1    1    2    0    0 -0.53846633333E+02  0.11242125840E+02  0.10548086076E+02  0.16287651902E+03  0.15294330000E+03 0.  0.
<mgrwt>
<rscale>  0 0.16253461E+03</rscale>
<asrwt>0</asrwt>
<pdfrwt beam="1">  1        4 0.17789016E-01 0.16253461E+03</pdfrwt>
<pdfrwt beam="2">  1       -4 0.39086542E-01 0.16253461E+03</pdfrwt>
<totfact> 0.30492000E+02</totfact>
</mgrwt>
</event>
<event>
 4    1  0.8742165E-009  0.1655158E+03  0.7818608E-02  0.1182606E+00
         -4   -1    0    0    0  501 -0.00000000000E+00  0.00000000000E+00  0.76021936593E+03  0.76022042674E+03  0.12700000000E+01 0.  1.
          4   -1    0    0  501    0  0.00000000000E+00 -0.00000000000E+00 -0.12546482804E+03  0.12547125557E+03  0.12700000000E+01 0. -1.
    8880022    1    1    2    0    0  0.57001914807E+02  0.27470362571E+02  0.69125763500E+03  0.71079716521E+03  0.15294330000E+03 0.  0.
    8880022    1    1    2    0    0 -0.57001914807E+02 -0.27470362571E+02 -0.56503097113E+02  0.17489451709E+03  0.15294330000E+03 0. -1.
<mgrwt>
<rscale>  0 0.16551584E+03</rscale>
<asrwt>0</asrwt>
<pdfrwt beam="1">  1        4 0.19302857E-01 0.16551584E+03</pdfrwt>
<pdfrwt beam="2">  1       -4 0.11695740E+00 0.16551584E+03</pdfrwt>
<totfact> 0.24671828E+01</totfact>
</mgrwt>
</event>
<event>
 4    1  0.8742165E-009  0.2487449E+03  0.7818608E-02  0.1114101E+00
          4   -1    0    0  501    0  0.00000000000E+00  0.00000000000E+00  0.35097852594E+02  0.35120822267E+02  0.12700000000E+01 0.  1.
         -4   -1    0    0    0  501 -0.00000000000E+00 -0.00000000000E+00 -0.19114766877E+04  0.19114771096E+04  0.12700000000E+01 0.  1.
    8880022    1    1    2    0    0 -0.29310440530E+02 -0.19396721791E+03 -0.12100886974E+04  0.12353900971E+04  0.15294330000E+03 0.  0.
    8880022    1    1    2    0    0  0.29310440530E+02  0.19396721791E+03 -0.66629013778E+03  0.71120783479E+03  0.15294330000E+03 0.  0.
<mgrwt>
<rscale>  0 0.24874492E+03</rscale>
<asrwt>0</asrwt>
<pdfrwt beam="1">  1        4 0.54014705E-02 0.24874492E+03</pdfrwt>
<pdfrwt beam="2">  1       -4 0.29407506E+00 0.24874492E+03</pdfrwt>
<totfact> 0.15181807E+01</totfact>
</mgrwt>
</event>
<event>
 4    1  0.8742165E-009  0.1842440E+03  0.7818608E-02  0.1163758E+00
          4   -1    0    0  501    0  0.00000000000E+00  0.00000000000E+00  0.80924527560E+02  0.80934492405E+02  0.12700000000E+01 0. -1.
         -4   -1    0    0    0  501 -0.00000000000E+00 -0.00000000000E+00 -0.45524617573E+03  0.45524794719E+03  0.12700000000E+01 0. -1.
    8880022    1    1    2    0    0  0.92886009757E+02 -0.43890710364E+02 -0.26234738833E+03  0.32058073935E+03  0.15294330000E+03 0.  0.
    8880022    1    1    2    0    0 -0.92886009757E+02  0.43890710364E+02 -0.11197425985E+03  0.21560170024E+03  0.15294330000E+03 0.  0.
<mgrwt>
<rscale>  0 0.18424402E+03</rscale>
<asrwt>0</asrwt>
<pdfrwt beam="1">  1        4 0.12450830E-01 0.18424402E+03</pdfrwt>
<pdfrwt beam="2">  1       -4 0.70038775E-01 0.18424402E+03</pdfrwt>
<totfact> 0.17441633E+02</totfact>
</mgrwt>
</event>
<event>
 4    1  0.8742165E-009  0.1737944E+03  0.7818608E-02  0.1173948E+00
          4   -1    0    0  501    0  0.00000000000E+00  0.00000000000E+00  0.14340858705E+03  0.14341421039E+03  0.12700000000E+01 0. -1.
         -4   -1    0    0    0  501 -0.00000000000E+00 -0.00000000000E+00 -0.21217205161E+03  0.21217585250E+03  0.12700000000E+01 0. -1.
    8880022    1    1    2    0    0  0.64797486284E+02 -0.51128690665E+02 -0.19111525004E+02  0.17484210203E+03  0.15294330000E+03 0. -1.
    8880022    1    1    2    0    0 -0.64797486284E+02  0.51128690665E+02 -0.49651939549E+02  0.18074796086E+03  0.15294330000E+03 0. -1.
<mgrwt>
<rscale>  0 0.17379445E+03</rscale>
<asrwt>0</asrwt>
<pdfrwt beam="1">  1        4 0.22063584E-01 0.17379445E+03</pdfrwt>
<pdfrwt beam="2">  1       -4 0.32642579E-01 0.17379445E+03</pdfrwt>
<totfact> 0.29669730E+02</totfact>
</mgrwt>
</event>
<event>
 4    1  0.8742165E-009  0.3438310E+03  0.7818608E-02  0.1065176E+00
         -4   -1    0    0    0  501 -0.00000000000E+00  0.00000000000E+00  0.90919371653E+03  0.90919460352E+03  0.12700000000E+01 0. -1.
          4   -1    0    0  501    0  0.00000000000E+00 -0.00000000000E+00 -0.13072599954E+03  0.13073216840E+03  0.12700000000E+01 0. -1.
    8880022    1    1    2    0    0 -0.14782991529E+03 -0.27013784228E+03  0.35110504309E+03  0.49142094174E+03  0.15294330000E+03 0.  0.
    8880022    1    1    2    0    0  0.14782991529E+03  0.27013784228E+03  0.42736267390E+03  0.54850583018E+03  0.15294330000E+03 0.  0.
<mgrwt>
<rscale>  0 0.34383105E+03</rscale>
<asrwt>0</asrwt>
<pdfrwt beam="1">  1        4 0.20112236E-01 0.34383105E+03</pdfrwt>
<pdfrwt beam="2">  1       -4 0.13987650E+00 0.34383105E+03</pdfrwt>
<totfact> 0.15697464E+01</totfact>
</mgrwt>
</event>
<event>
 4    1  0.8742165E-009  0.2544077E+03  0.7818608E-02  0.1110551E+00
         -4   -1    0    0    0  501 -0.00000000000E+00  0.00000000000E+00  0.10083350835E+03  0.10084150588E+03  0.12700000000E+01 0.  1.
          4   -1    0    0  501    0  0.00000000000E+00 -0.00000000000E+00 -0.70233626818E+03  0.70233741642E+03  0.12700000000E+01 0.  1.
    8880022    1    1    2    0    0 -0.77848791353E+02 -0.18780624822E+03 -0.41860437774E+03  0.48984987421E+03  0.15294330000E+03 0.  0.
    8880022    1    1    2    0    0  0.77848791353E+02  0.18780624822E+03 -0.18289838208E+03  0.31332904808E+03  0.15294330000E+03 0.  0.
<mgrwt>
<rscale>  0 0.25440769E+03</rscale>
<asrwt>0</asrwt>
<pdfrwt beam="1">  1        4 0.10805243E+00 0.25440769E+03</pdfrwt>
<pdfrwt beam="2">  1       -4 0.15513551E-01 0.25440769E+03</pdfrwt>
<totfact> 0.46161289E+01</totfact>
</mgrwt>
</event>
<event>
 4    1  0.8742165E-009  0.2111289E+03  0.7818608E-02  0.1140675E+00
          4   -1    0    0  501    0  0.00000000000E+00  0.00000000000E+00  0.41789130126E+03  0.41789323106E+03  0.12700000000E+01 0. -1.
         -4   -1    0    0    0  501 -0.00000000000E+00 -0.00000000000E+00 -0.11018855104E+03  0.11019586961E+03  0.12700000000E+01 0. -1.
    8880022    1    1    2    0    0 -0.11448801342E+03  0.89868090371E+02  0.20108942911E+03  0.29156884333E+03  0.15294330000E+03 0.  0.
    8880022    1    1    2    0    0  0.11448801342E+03 -0.89868090371E+02  0.10661332111E+03  0.23652025735E+03  0.15294330000E+03 0.  0.
<mgrwt>
<rscale>  0 0.21112895E+03</rscale>
<asrwt>0</asrwt>
<pdfrwt beam="1">  1        4 0.64291682E-01 0.21112895E+03</pdfrwt>
<pdfrwt beam="2">  1       -4 0.16952796E-01 0.21112895E+03</pdfrwt>
<totfact> 0.12449311E+02</totfact>
</mgrwt>
</event>
<event>
 4    1  0.8742165E-009  0.2948589E+03  0.7818608E-02  0.1087839E+00
          4   -1    0    0  501    0  0.00000000000E+00  0.00000000000E+00  0.78585936308E+03  0.78586038928E+03  0.12700000000E+01 0. -1.
         -4   -1    0    0    0  501 -0.00000000000E+00 -0.00000000000E+00 -0.14591157694E+03  0.14591710381E+03  0.12700000000E+01 0. -1.
    8880022    1    1    2    0    0 -0.19483647558E+03 -0.15996511934E+03  0.90880355607E+02  0.30854656646E+03  0.15294330000E+03 0.  0.
    8880022    1    1    2    0    0  0.19483647558E+03  0.15996511934E+03  0.54906743054E+03  0.62323092663E+03  0.15294330000E+03 0.  0.
<mgrwt>
<rscale>  0 0.29485886E+03</rscale>
<asrwt>0</asrwt>
<pdfrwt beam="1">  1        4 0.12090195E+00 0.29485886E+03</pdfrwt>
<pdfrwt beam="2">  1       -4 0.22448439E-01 0.29485886E+03</pdfrwt>
<totfact> 0.18268633E+01</totfact>
</mgrwt>
</event>
<event>
 4    1  0.8742165E-009  0.2593910E+03  0.7818608E-02  0.1107510E+00
          4   -1    0    0  501    0  0.00000000000E+00  0.00000000000E+00  0.75480264738E+02  0.75490948231E+02  0.12700000000E+01 0.  1.
         -4   -1    0    0    0  501 -0.00000000000E+00 -0.00000000000E+00 -0.13851973628E+04  0.13851979450E+04  0.12700000000E+01 0.  1.
    8880022    1    1    2    0    0 -0.54204499868E+02  0.20237069078E+03 -0.21877087367E+03  0.33932929799E+03  0.15294330000E+03 0.  0.
    8880022    1    1    2    0    0  0.54204499868E+02 -0.20237069078E+03 -0.10909462244E+04  0.11213595953E+04  0.15294330000E+03 0.  0.
<mgrwt>
<rscale>  0 0.25939097E+03</rscale>
<asrwt>0</asrwt>
<pdfrwt beam="1">  1        4 0.11613216E-01 0.25939097E+03</pdfrwt>
<pdfrwt beam="2">  1       -4 0.21310814E+00 0.25939097E+03</pdfrwt>
<totfact> 0.12779271E+01</totfact>
</mgrwt>
</event>
<event>
 4    1  0.8742165E-009  0.2294307E+03  0.7818608E-02  0.1127041E+00
         -4   -1    0    0    0  501 -0.00000000000E+00  0.00000000000E+00  0.14074115319E+03  0.14074688310E+03  0.12700000000E+01 0. -1.
          4   -1    0    0  501    0  0.00000000000E+00 -0.00000000000E+00 -0.40623419013E+03  0.40623617531E+03  0.12700000000E+01 0. -1.
    8880022    1    1    2    0    0  0.23517351466E+02 -0.16939226748E+03 -0.20979184817E+03  0.31088756597E+03  0.15294330000E+03 0.  0.
    8880022    1    1    2    0    0 -0.23517351466E+02  0.16939226748E+03 -0.55701188774E+02  0.23609549244E+03  0.15294330000E+03 0.  0.
<mgrwt>
<rscale>  0 0.22943073E+03</rscale>
<asrwt>0</asrwt>
<pdfrwt beam="1">  1        4 0.62498161E-01 0.22943073E+03</pdfrwt>
<pdfrwt beam="2">  1       -4 0.21653079E-01 0.22943073E+03</pdfrwt>
<totfact> 0.85909518E+01</totfact>
</mgrwt>
</event>
<event>
 4    1  0.8742165E-009  0.1796503E+03  0.7818608E-02  0.1168142E+00
         -4   -1    0    0    0  501 -0.00000000000E+00  0.00000000000E+00  0.92307794274E+02  0.92316530393E+02  0.12700000000E+01 0. -1.
          4   -1    0    0  501    0  0.00000000000E+00 -0.00000000000E+00 -0.72804957327E+03  0.72805068096E+03  0.12700000000E+01 0. -1.
    8880022    1    1    2    0    0  0.79223782004E+02  0.51050748724E+02 -0.61359894982E+03  0.63935742024E+03  0.15294330000E+03 0.  0.
    8880022    1    1    2    0    0 -0.79223782004E+02 -0.51050748724E+02 -0.22142829183E+02  0.18100979111E+03  0.15294330000E+03 0.  0.
<mgrwt>
<rscale>  0 0.17965033E+03</rscale>
<asrwt>0</asrwt>
<pdfrwt beam="1">  1        4 0.11200838E+00 0.17965033E+03</pdfrwt>
<pdfrwt beam="2">  1       -4 0.14201957E-01 0.17965033E+03</pdfrwt>
<totfact> 0.47577590E+01</totfact>
</mgrwt>
</event>
<event>
 4    1  0.8742165E-009  0.3504826E+03  0.7818608E-02  0.1062417E+00
          4   -1    0    0  501    0  0.00000000000E+00  0.00000000000E+00  0.65864609483E+03  0.65864731923E+03  0.12700000000E+01 0. -1.
         -4   -1    0    0    0  501 -0.00000000000E+00 -0.00000000000E+00 -0.18993579941E+03  0.18994004527E+03  0.12700000000E+01 0. -1.
    8880022    1    1    2    0    0  0.17251996407E+03  0.26397583926E+03  0.29144304406E+03  0.45582571523E+03  0.15294330000E+03 0.  0.
    8880022    1    1    2    0    0 -0.17251996407E+03 -0.26397583926E+03  0.17726725136E+03  0.39276164927E+03  0.15294330000E+03 0.  0.
<mgrwt>
<rscale>  0 0.35048257E+03</rscale>
<asrwt>0</asrwt>
<pdfrwt beam="1">  1        4 0.10133059E+00 0.35048257E+03</pdfrwt>
<pdfrwt beam="2">  1       -4 0.29221313E-01 0.35048257E+03</pdfrwt>
<totfact> 0.17240754E+01</totfact>
</mgrwt>
</event>
<event>
 4    1  0.8742165E-009  0.4563938E+03  0.7818608E-02  0.1025832E+00
          4   -1    0    0  501    0  0.00000000000E+00  0.00000000000E+00  0.11397860776E+04  0.11397867852E+04  0.12700000000E+01 0. -1.
         -4   -1    0    0    0  501 -0.00000000000E+00 -0.00000000000E+00 -0.39252342532E+03  0.39252547984E+03  0.12700000000E+01 0.  1.
    8880022    1    1    2    0    0  0.41460072575E+03  0.11406097834E+03 -0.18646297296E+03  0.49301497124E+03  0.15294330000E+03 0.  0.
    8880022    1    1    2    0    0 -0.41460072575E+03 -0.11406097834E+03  0.93372562527E+03  0.10392972938E+04  0.15294330000E+03 0.  0.
<mgrwt>
<rscale>  0 0.45639382E+03</rscale>
<asrwt>0</asrwt>
<pdfrwt beam="1">  1        4 0.17535192E+00 0.45639382E+03</pdfrwt>
<pdfrwt beam="2">  1       -4 0.60388432E-01 0.45639382E+03</pdfrwt>
<totfact> 0.98683737E-01</totfact>
</mgrwt>
</event>
<event>
 4    1  0.8742165E-009  0.1573465E+03  0.7818608E-02  0.1191725E+00
         -4   -1    0    0    0  501 -0.00000000000E+00  0.00000000000E+00  0.59979249593E+02  0.59992693570E+02  0.12700000000E+01 0.  1.
          4   -1    0    0  501    0  0.00000000000E+00 -0.00000000000E+00 -0.45774574643E+03  0.45774750821E+03  0.12700000000E+01 0.  1.
    8880022    1    1    2    0    0  0.35254047065E+02  0.11110151907E+02 -0.11768995023E+03  0.19649137566E+03  0.15294330000E+03 0.  1.
    8880022    1    1    2    0    0 -0.35254047065E+02 -0.11110151907E+02 -0.28007654661E+03  0.32124882612E+03  0.15294330000E+03 0.  1.
<mgrwt>
<rscale>  0 0.15734655E+03</rscale>
<asrwt>0</asrwt>
<pdfrwt beam="1">  1        4 0.70423590E-01 0.15734655E+03</pdfrwt>
<pdfrwt beam="2">  1       -4 0.92287469E-02 0.15734655E+03</pdfrwt>
<totfact> 0.27981025E+02</totfact>
</mgrwt>
</event>
<event>
 4    1  0.8742165E-009  0.1834798E+03  0.7818608E-02  0.1164477E+00
         -4   -1    0    0    0  501 -0.00000000000E+00  0.00000000000E+00  0.47371272984E+02  0.47388293956E+02  0.12700000000E+01 0.  1.
          4   -1    0    0  501    0  0.00000000000E+00 -0.00000000000E+00 -0.11073431448E+04  0.11073438731E+04  0.12700000000E+01 0.  1.
    8880022    1    1    2    0    0 -0.55400461715E+02 -0.84876149904E+02 -0.18435826242E+03  0.26010150695E+03  0.15294330000E+03 0.  0.
    8880022    1    1    2    0    0  0.55400461715E+02  0.84876149904E+02 -0.87561360945E+03  0.89463066013E+03  0.15294330000E+03 0.  0.
<mgrwt>
<rscale>  0 0.18347977E+03</rscale>
<asrwt>0</asrwt>
<pdfrwt beam="1">  1        4 0.17036183E+00 0.18347977E+03</pdfrwt>
<pdfrwt beam="2">  1       -4 0.72892543E-02 0.18347977E+03</pdfrwt>
<totfact> 0.51526374E+01</totfact>
</mgrwt>
</event>
<event>
 4    1  0.8742165E-009  0.1958644E+03  0.7818608E-02  0.1153276E+00
         -4   -1    0    0    0  501 -0.00000000000E+00  0.00000000000E+00  0.16053410409E+02  0.16103567486E+02  0.12700000000E+01 0.  1.
          4   -1    0    0  501    0  0.00000000000E+00 -0.00000000000E+00 -0.23983025146E+04  0.23983028508E+04  0.12700000000E+01 0.  1.
    8880022    1    1    2    0    0  0.49844280920E+02 -0.11174413696E+03 -0.12778532493E+04  0.12927767728E+04  0.15294330000E+03 0. -1.
    8880022    1    1    2    0    0 -0.49844280920E+02  0.11174413696E+03 -0.11043958548E+04  0.11216296455E+04  0.15294330000E+03 0. -1.
<mgrwt>
<rscale>  0 0.19586439E+03</rscale>
<asrwt>0</asrwt>
<pdfrwt beam="1">  1        4 0.36897322E+00 0.19586439E+03</pdfrwt>
<pdfrwt beam="2">  1       -4 0.24736414E-02 0.19586439E+03</pdfrwt>
<totfact> 0.18337466E+01</totfact>
</mgrwt>
</event>
<event>
 4    1  0.8742165E-009  0.2726497E+03  0.7818608E-02  0.1099773E+00
          4   -1    0    0  501    0  0.00000000000E+00  0.00000000000E+00  0.15833833326E+03  0.15834342639E+03  0.12700000000E+01 0. -1.
         -4   -1    0    0    0  501 -0.00000000000E+00 -0.00000000000E+00 -0.57826151042E+03  0.57826290503E+03  0.12700000000E+01 0. -1.
    8880022    1    1    2    0    0  0.26372062177E+02 -0.22416674542E+03 -0.36970771417E+03  0.45937094199E+03  0.15294330000E+03 0.  0.
    8880022    1    1    2    0    0 -0.26372062177E+02  0.22416674542E+03 -0.50215462992E+02  0.27723538943E+03  0.15294330000E+03 0.  0.
<mgrwt>
<rscale>  0 0.27264972E+03</rscale>
<asrwt>0</asrwt>
<pdfrwt beam="1">  1        4 0.24360243E-01 0.27264972E+03</pdfrwt>
<pdfrwt beam="2">  1       -4 0.88963807E-01 0.27264972E+03</pdfrwt>
<totfact> 0.32245259E+01</totfact>
</mgrwt>
</event>
<event>
 4    1  0.8742165E-009  0.3002457E+03  0.7818608E-02  0.1085118E+00
          4   -1    0    0  501    0  0.00000000000E+00  0.00000000000E+00  0.79285061405E+02  0.79295232278E+02  0.12700000000E+01 0.  1.
         -4   -1    0    0    0  501 -0.00000000000E+00 -0.00000000000E+00 -0.11401887201E+04  0.11401894274E+04  0.12700000000E+01 0.  1.
    8880022    1    1    2    0    0 -0.25804607464E+03 -0.12964281214E+02 -0.56309176592E+03  0.63813779005E+03  0.15294330000E+03 0.  0.
    8880022    1    1    2    0    0  0.25804607464E+03  0.12964281214E+02 -0.49781189279E+03  0.58134686965E+03  0.15294330000E+03 0.  0.
<mgrwt>
<rscale>  0 0.30024574E+03</rscale>
<asrwt>0</asrwt>
<pdfrwt beam="1">  1        4 0.12198539E-01 0.30024574E+03</pdfrwt>
<pdfrwt beam="2">  1       -4 0.17541447E+00 0.30024574E+03</pdfrwt>
<totfact> 0.20795360E+01</totfact>
</mgrwt>
</event>
<event>
 4    1  0.8742165E-009  0.2549016E+03  0.7818608E-02  0.1110246E+00
         -4   -1    0    0    0  501 -0.00000000000E+00  0.00000000000E+00  0.95726527393E+02  0.95734951542E+02  0.12700000000E+01 0. -1.
          4   -1    0    0  501    0  0.00000000000E+00 -0.00000000000E+00 -0.73223531549E+03  0.73223641685E+03  0.12700000000E+01 0. -1.
    8880022    1    1    2    0    0  0.28193050719E+02  0.20196119000E+03 -0.43017587902E+03  0.50002610960E+03  0.15294330000E+03 0.  0.
    8880022    1    1    2    0    0 -0.28193050719E+02 -0.20196119000E+03 -0.20633290908E+03  0.32794525879E+03  0.15294330000E+03 0.  0.
<mgrwt>
<rscale>  0 0.25490160E+03</rscale>
<asrwt>0</asrwt>
<pdfrwt beam="1">  1        4 0.11265232E+00 0.25490160E+03</pdfrwt>
<pdfrwt beam="2">  1       -4 0.14727891E-01 0.25490160E+03</pdfrwt>
<totfact> 0.45810438E+01</totfact>
</mgrwt>
</event>
<event>
 4    1  0.8742165E-009  0.2207206E+03  0.7818608E-02  0.1133347E+00
          4   -1    0    0  501    0  0.00000000000E+00  0.00000000000E+00  0.39926110940E+03  0.39926312925E+03  0.12700000000E+01 0.  1.
         -4   -1    0    0    0  501 -0.00000000000E+00 -0.00000000000E+00 -0.13260166595E+03  0.13260774756E+03  0.12700000000E+01 0.  1.
    8880022    1    1    2    0    0 -0.43920182139E+02  0.15296057570E+03  0.20847372973E+03  0.30360973159E+03  0.15294330000E+03 0.  0.
    8880022    1    1    2    0    0  0.43920182139E+02 -0.15296057570E+03  0.58185713718E+02  0.22826114521E+03  0.15294330000E+03 0.  0.
<mgrwt>
<rscale>  0 0.22072058E+03</rscale>
<asrwt>0</asrwt>
<pdfrwt beam="1">  1        4 0.61425408E-01 0.22072058E+03</pdfrwt>
<pdfrwt beam="2">  1       -4 0.20400880E-01 0.22072058E+03</pdfrwt>
<totfact> 0.98898946E+01</totfact>
</mgrwt>
</event>
<event>
 4    1  0.8742165E-009  0.2578626E+03  0.7818608E-02  0.1108434E+00
         -4   -1    0    0    0  501 -0.00000000000E+00  0.00000000000E+00  0.22198986150E+03  0.22199349430E+03  0.12700000000E+01 0.  1.
          4   -1    0    0  501    0  0.00000000000E+00 -0.00000000000E+00 -0.31269563899E+03  0.31269821801E+03  0.12700000000E+01 0.  1.
    8880022    1    1    2    0    0  0.55630731889E+01  0.20753439402E+03  0.95145101088E+01  0.25803808130E+03  0.15294330000E+03 0.  0.
    8880022    1    1    2    0    0 -0.55630731889E+01 -0.20753439402E+03 -0.10022028760E+03  0.27665363100E+03  0.15294330000E+03 0.  0.
<mgrwt>
<rscale>  0 0.25786261E+03</rscale>
<asrwt>0</asrwt>
<pdfrwt beam="1">  1        4 0.48107499E-01 0.25786261E+03</pdfrwt>
<pdfrwt beam="2">  1       -4 0.34152764E-01 0.25786261E+03</pdfrwt>
<totfact> 0.63691865E+01</totfact>
</mgrwt>
</event>
<event>
 4    1  0.8742165E-009  0.1615253E+03  0.7818608E-02  0.1186985E+00
          4   -1    0    0  501    0  0.00000000000E+00  0.00000000000E+00  0.44013899629E+03  0.44014082855E+03  0.12700000000E+01 0. -1.
         -4   -1    0    0    0  501 -0.00000000000E+00 -0.00000000000E+00 -0.61432698417E+02  0.61445824389E+02  0.12700000000E+01 0. -1.
    8880022    1    1    2    0    0  0.51647143749E+02  0.55974865924E+01  0.14229117909E+03  0.21526075345E+03  0.15294330000E+03 0.  0.
    8880022    1    1    2    0    0 -0.51647143749E+02 -0.55974865924E+01  0.23641511878E+03  0.28632589949E+03  0.15294330000E+03 0.  0.
<mgrwt>
<rscale>  0 0.16152527E+03</rscale>
<asrwt>0</asrwt>
<pdfrwt beam="1">  1        4 0.67714843E-01 0.16152527E+03</pdfrwt>
<pdfrwt beam="2">  1       -4 0.94523350E-02 0.16152527E+03</pdfrwt>
<totfact> 0.29385258E+02</totfact>
</mgrwt>
</event>
<event>
 4    1  0.8742165E-009  0.1571751E+03  0.7818608E-02  0.1191923E+00
         -4   -1    0    0    0  501 -0.00000000000E+00  0.00000000000E+00  0.45601241708E+02  0.45618923105E+02  0.12700000000E+01 0.  1.
          4   -1    0    0  501    0  0.00000000000E+00 -0.00000000000E+00 -0.61736774778E+03  0.61736905405E+03  0.12700000000E+01 0.  1.
    8880022    1    1    2    0    0 -0.20886579396E+02  0.29599131069E+02 -0.16976725711E+03  0.23135455984E+03  0.15294330000E+03 0.  0.
    8880022    1    1    2    0    0  0.20886579396E+02 -0.29599131069E+02 -0.40199924896E+03  0.43163341731E+03  0.15294330000E+03 0.  0.
<mgrwt>
<rscale>  0 0.15717510E+03</rscale>
<asrwt>0</asrwt>
<pdfrwt beam="1">  1        4 0.94981108E-01 0.15717510E+03</pdfrwt>
<pdfrwt beam="2">  1       -4 0.70170367E-02 0.15717510E+03</pdfrwt>
<totfact> 0.22656553E+02</totfact>
</mgrwt>
</event>
<event>
 4    1  0.8742165E-009  0.1920814E+03  0.7818608E-02  0.1156597E+00
         -4   -1    0    0    0  501 -0.00000000000E+00  0.00000000000E+00  0.12160712631E+03  0.12161375773E+03  0.12700000000E+01 0.  1.
          4   -1    0    0  501    0  0.00000000000E+00 -0.00000000000E+00 -0.30627122014E+03  0.30627385325E+03  0.12700000000E+01 0.  1.
    8880022    1    1    2    0    0  0.97062539214E+02 -0.63894129948E+02 -0.71548698074E+02  0.20497430466E+03  0.15294330000E+03 0.  0.
    8880022    1    1    2    0    0 -0.97062539214E+02  0.63894129948E+02 -0.11311539576E+03  0.22291330632E+03  0.15294330000E+03 0.  0.
<mgrwt>
<rscale>  0 0.19208136E+03</rscale>
<asrwt>0</asrwt>
<pdfrwt beam="1">  1        4 0.47119362E-01 0.19208136E+03</pdfrwt>
<pdfrwt beam="2">  1       -4 0.18709501E-01 0.19208136E+03</pdfrwt>
<totfact> 0.19693231E+02</totfact>
</mgrwt>
</event>
<event>
 4    1  0.8742165E-009  0.3665629E+03  0.7818608E-02  0.1056015E+00
          4   -1    0    0  501    0  0.00000000000E+00  0.00000000000E+00  0.27227527842E+03  0.27227824030E+03  0.12700000000E+01 0. -1.
         -4   -1    0    0    0  501 -0.00000000000E+00 -0.00000000000E+00 -0.62469062725E+03  0.62469191820E+03  0.12700000000E+01 0. -1.
    8880022    1    1    2    0    0 -0.32223416222E+03  0.84509281852E+02  0.29321353162E+02  0.36773369275E+03  0.15294330000E+03 0.  0.
    8880022    1    1    2    0    0  0.32223416222E+03 -0.84509281852E+02 -0.38173670199E+03  0.52923646575E+03  0.15294330000E+03 0.  0.
<mgrwt>
<rscale>  0 0.36656286E+03</rscale>
<asrwt>0</asrwt>
<pdfrwt beam="1">  1        4 0.41888832E-01 0.36656286E+03</pdfrwt>
<pdfrwt beam="2">  1       -4 0.96106577E-01 0.36656286E+03</pdfrwt>
<totfact> 0.96456522E+00</totfact>
</mgrwt>
</event>
<event>
 4    1  0.8742165E-009  0.1613897E+03  0.7818608E-02  0.1187137E+00
         -4   -1    0    0    0  501 -0.00000000000E+00  0.00000000000E+00  0.91858909902E+02  0.91867688707E+02  0.12700000000E+01 0.  1.
          4   -1    0    0  501    0  0.00000000000E+00 -0.00000000000E+00 -0.49127585549E+03  0.49127749703E+03  0.12700000000E+01 0.  1.
    8880022    1    1    2    0    0 -0.55372531300E+01 -0.51227987473E+02 -0.38931309191E+03  0.42143956201E+03  0.15294330000E+03 0.  0.
    8880022    1    1    2    0    0  0.55372531300E+01  0.51227987473E+02 -0.10103853676E+02  0.16170562373E+03  0.15294330000E+03 0.  0.
<mgrwt>
<rscale>  0 0.16138966E+03</rscale>
<asrwt>0</asrwt>
<pdfrwt beam="1">  1        4 0.75581701E-01 0.16138966E+03</pdfrwt>
<pdfrwt beam="2">  1       -4 0.14132942E-01 0.16138966E+03</pdfrwt>
<totfact> 0.11620995E+02</totfact>
</mgrwt>
</event>
<event>
 4    1  0.8742165E-009  0.1627690E+03  0.7818608E-02  0.1185606E+00
          4   -1    0    0  501    0  0.00000000000E+00  0.00000000000E+00  0.18709310841E+02  0.18752365508E+02  0.12700000000E+01 0. -1.
         -4   -1    0    0    0  501 -0.00000000000E+00 -0.00000000000E+00 -0.14165988513E+04  0.14165994206E+04  0.12700000000E+01 0. -1.
    8880022    1    1    2    0    0 -0.54821031124E+02  0.98354538299E+01 -0.72721066079E+03  0.74520405245E+03  0.15294330000E+03 0.  0.
    8880022    1    1    2    0    0  0.54821031124E+02 -0.98354538299E+01 -0.67067887966E+03  0.69014773364E+03  0.15294330000E+03 0.  0.
<mgrwt>
<rscale>  0 0.16276896E+03</rscale>
<asrwt>0</asrwt>
<pdfrwt beam="1">  1        4 0.28817123E-02 0.16276896E+03</pdfrwt>
<pdfrwt beam="2">  1       -4 0.21794156E+00 0.16276896E+03</pdfrwt>
<totfact> 0.11234445E+02</totfact>
</mgrwt>
</event>
<event>
 4    1  0.8742165E-009  0.1803970E+03  0.7818608E-02  0.1167419E+00
         -4   -1    0    0    0  501 -0.00000000000E+00  0.00000000000E+00  0.11509366242E+04  0.11509373249E+04  0.12700000000E+01 0. -1.
          4   -1    0    0  501    0  0.00000000000E+00 -0.00000000000E+00 -0.37748864282E+02  0.37770221796E+02  0.12700000000E+01 0. -1.
    8880022    1    1    2    0    0 -0.80337742069E+02 -0.51935292369E+02  0.85447649994E+03  0.87331161068E+03  0.15294330000E+03 0.  0.
    8880022    1    1    2    0    0  0.80337742069E+02  0.51935292369E+02  0.25871126001E+03  0.31539593603E+03  0.15294330000E+03 0.  0.
<mgrwt>
<rscale>  0 0.18039701E+03</rscale>
<asrwt>0</asrwt>
<pdfrwt beam="1">  1        4 0.58092156E-02 0.18039701E+03</pdfrwt>
<pdfrwt beam="2">  1       -4 0.17706883E+00 0.18039701E+03</pdfrwt>
<totfact> 0.67252885E+01</totfact>
</mgrwt>
</event>
<event>
 4    1  0.8742165E-009  0.1935801E+03  0.7818608E-02  0.1155271E+00
         -4   -1    0    0    0  501 -0.00000000000E+00  0.00000000000E+00  0.25158611999E+03  0.25158932543E+03  0.12700000000E+01 0.  1.
          4   -1    0    0  501    0  0.00000000000E+00 -0.00000000000E+00 -0.17151774474E+03  0.17152244652E+03  0.12700000000E+01 0.  1.
    8880022    1    1    2    0    0 -0.11539222798E+03 -0.27681020475E+02  0.11678608424E+03  0.22608017971E+03  0.15294330000E+03 0.  0.
    8880022    1    1    2    0    0  0.11539222798E+03  0.27681020475E+02 -0.36717708986E+02  0.19703159224E+03  0.15294330000E+03 0.  0.
<mgrwt>
<rscale>  0 0.19358011E+03</rscale>
<asrwt>0</asrwt>
<pdfrwt beam="1">  1        4 0.26387954E-01 0.19358011E+03</pdfrwt>
<pdfrwt beam="2">  1       -4 0.38706165E-01 0.19358011E+03</pdfrwt>
<totfact> 0.15556041E+02</totfact>
</mgrwt>
</event>
<event>
 4    1  0.8742165E-009  0.1603397E+03  0.7818608E-02  0.1188314E+00
         -4   -1    0    0    0  501 -0.00000000000E+00  0.00000000000E+00  0.19835807739E+02  0.19876422432E+02  0.12700000000E+01 0. -1.
          4   -1    0    0  501    0  0.00000000000E+00 -0.00000000000E+00 -0.14476346935E+04  0.14476352505E+04  0.12700000000E+01 0. -1.
    8880022    1    1    2    0    0 -0.47296774540E+02 -0.89551524907E+01 -0.95237665886E+03  0.96577954679E+03  0.15294330000E+03 0.  0.
    8880022    1    1    2    0    0  0.47296774540E+02  0.89551524907E+01 -0.47542222687E+03  0.50173212619E+03  0.15294330000E+03 0.  0.
<mgrwt>
<rscale>  0 0.16033974E+03</rscale>
<asrwt>0</asrwt>
<pdfrwt beam="1">  1        4 0.22271611E+00 0.16033974E+03</pdfrwt>
<pdfrwt beam="2">  1       -4 0.30548309E-02 0.16033974E+03</pdfrwt>
<totfact> 0.95782415E+01</totfact>
</mgrwt>
</event>
<event>
 4    1  0.8742165E-009  0.1787292E+03  0.7818608E-02  0.1169039E+00
          4   -1    0    0  501    0  0.00000000000E+00  0.00000000000E+00  0.11762275361E+03  0.11762960966E+03  0.12700000000E+01 0. -1.
         -4   -1    0    0    0  501 -0.00000000000E+00 -0.00000000000E+00 -0.46183450875E+03  0.46183625494E+03  0.12700000000E+01 0. -1.
    8880022    1    1    2    0    0 -0.22750665696E+02 -0.89637456015E+02 -0.35807253748E+03  0.40020002676E+03  0.15294330000E+03 0.  0.
    8880022    1    1    2    0    0  0.22750665696E+02  0.89637456015E+02  0.13860782341E+02  0.17926583783E+03  0.15294330000E+03 0.  0.
<mgrwt>
<rscale>  0 0.17872918E+03</rscale>
<asrwt>0</asrwt>
<pdfrwt beam="1">  1        4 0.18096470E-01 0.17872918E+03</pdfrwt>
<pdfrwt beam="2">  1       -4 0.71052124E-01 0.17872918E+03</pdfrwt>
<totfact> 0.87246021E+01</totfact>
</mgrwt>
</event>
<event>
 4    1  0.8742165E-009  0.3559883E+03  0.7818608E-02  0.1060184E+00
          4   -1    0    0  501    0  0.00000000000E+00  0.00000000000E+00  0.36987388766E+03  0.36987606799E+03  0.12700000000E+01 0. -1.
         -4   -1    0    0    0  501 -0.00000000000E+00 -0.00000000000E+00 -0.20271500529E+04  0.20271504507E+04  0.12700000000E+01 0.  1.
    8880022    1    1    2    0    0 -0.31483343507E+03 -0.64929902132E+02 -0.19211821282E+04  0.19538854641E+04  0.15294330000E+03 0.  0.
    8880022    1    1    2    0    0  0.31483343507E+03  0.64929902132E+02  0.26390596294E+03  0.44314105465E+03  0.15294330000E+03 0.  0.
<mgrwt>
<rscale>  0 0.35598825E+03</rscale>
<asrwt>0</asrwt>
<pdfrwt beam="1">  1        4 0.56903874E-01 0.35598825E+03</pdfrwt>
<pdfrwt beam="2">  1       -4 0.31186943E+00 0.35598825E+03</pdfrwt>
<totfact> 0.16109897E-01</totfact>
</mgrwt>
</event>
<event>
 4    1  0.8742165E-009  0.2956722E+03  0.7818608E-02  0.1087424E+00
          4   -1    0    0  501    0  0.00000000000E+00  0.00000000000E+00  0.11655647534E+04  0.11655654453E+04  0.12700000000E+01 0.  1.
         -4   -1    0    0    0  501 -0.00000000000E+00 -0.00000000000E+00 -0.93975549145E+02  0.93984130240E+02  0.12700000000E+01 0.  1.
    8880022    1    1    2    0    0 -0.18808435998E+03 -0.16927693514E+03  0.81878688196E+03  0.87053662664E+03  0.15294330000E+03 0.  0.
    8880022    1    1    2    0    0  0.18808435998E+03  0.16927693514E+03  0.25280232230E+03  0.38901294890E+03  0.15294330000E+03 0.  0.
<mgrwt>
<rscale>  0 0.29567222E+03</rscale>
<asrwt>0</asrwt>
<pdfrwt beam="1">  1        4 0.17931836E+00 0.29567222E+03</pdfrwt>
<pdfrwt beam="2">  1       -4 0.14458490E-01 0.29567222E+03</pdfrwt>
<totfact> 0.14506004E+01</totfact>
</mgrwt>
</event>
<event>
 4    1  0.8742165E-009  0.1575769E+03  0.7818608E-02  0.1191460E+00
         -4   -1    0    0    0  501 -0.00000000000E+00  0.00000000000E+00  0.17527075086E+03  0.17527535197E+03  0.12700000000E+01 0.  1.
          4   -1    0    0  501    0  0.00000000000E+00 -0.00000000000E+00 -0.36781159458E+03  0.36781378714E+03  0.12700000000E+01 0.  1.
    8880022    1    1    2    0    0 -0.21494894767E+02  0.31253557746E+02  0.11665292932E+03  0.19605706901E+03  0.15294330000E+03 0.  0.
    8880022    1    1    2    0    0  0.21494894767E+02 -0.31253557746E+02 -0.30919377304E+03  0.34703207010E+03  0.15294330000E+03 0.  0.
<mgrwt>
<rscale>  0 0.15757687E+03</rscale>
<asrwt>0</asrwt>
<pdfrwt beam="1">  1        4 0.56586922E-01 0.15757687E+03</pdfrwt>
<pdfrwt beam="2">  1       -4 0.26965254E-01 0.15757687E+03</pdfrwt>
<totfact> 0.67153243E+01</totfact>
</mgrwt>
</event>
<event>
 4    1  0.8742165E-009  0.1733415E+03  0.7818608E-02  0.1174407E+00
          4   -1    0    0  501    0  0.00000000000E+00  0.00000000000E+00  0.17429705489E+03  0.17430168170E+03  0.12700000000E+01 0.  1.
         -4   -1    0    0    0  501 -0.00000000000E+00 -0.00000000000E+00 -0.74443814737E+03  0.74443923067E+03  0.12700000000E+01 0.  1.
    8880022    1    1    2    0    0  0.81412817174E+02  0.52510032350E+01 -0.68775598171E+03  0.70926409977E+03  0.15294330000E+03 0.  0.
    8880022    1    1    2    0    0 -0.81412817174E+02 -0.52510032350E+01  0.11761488922E+03  0.20947681260E+03  0.15294330000E+03 0.  0.
<mgrwt>
<rscale>  0 0.17334149E+03</rscale>
<asrwt>0</asrwt>
<pdfrwt beam="1">  1        4 0.26815371E-01 0.17334149E+03</pdfrwt>
<pdfrwt beam="2">  1       -4 0.11452938E+00 0.17334149E+03</pdfrwt>
<totfact> 0.14263198E+01</totfact>
</mgrwt>
</event>
<event>
 4    1  0.8742165E-009  0.1837872E+03  0.7818608E-02  0.1164187E+00
         -4   -1    0    0    0  501 -0.00000000000E+00  0.00000000000E+00  0.16472190606E+04  0.16472195502E+04  0.12700000000E+01 0. -1.
          4   -1    0    0  501    0  0.00000000000E+00 -0.00000000000E+00 -0.20498569044E+02  0.20537873133E+02  0.12700000000E+01 0. -1.
    8880022    1    1    2    0    0  0.82363162108E+02 -0.60019963460E+02  0.83418380291E+03  0.85418988319E+03  0.15294330000E+03 0. -1.
    8880022    1    1    2    0    0 -0.82363162108E+02  0.60019963460E+02  0.79253668865E+03  0.81356754013E+03  0.15294330000E+03 0. -1.
<mgrwt>
<rscale>  0 0.18378721E+03</rscale>
<asrwt>0</asrwt>
<pdfrwt beam="1">  1        4 0.31566878E-02 0.18378721E+03</pdfrwt>
<pdfrwt beam="2">  1       -4 0.25342132E+00 0.18378721E+03</pdfrwt>
<totfact> 0.60881943E+01</totfact>
</mgrwt>
</event>
<event>
 4    1  0.8742165E-009  0.1557739E+03  0.7818608E-02  0.1193552E+00
          4   -1    0    0  501    0  0.00000000000E+00  0.00000000000E+00  0.29920543877E+03  0.29920813407E+03  0.12700000000E+01 0. -1.
         -4   -1    0    0    0  501 -0.00000000000E+00 -0.00000000000E+00 -0.83858315307E+02  0.83867931571E+02  0.12700000000E+01 0. -1.
    8880022    1    1    2    0    0 -0.60568961431E+01 -0.28933914950E+02  0.72886612051E+02  0.17198246613E+03  0.15294330000E+03 0.  0.
    8880022    1    1    2    0    0  0.60568961431E+01  0.28933914950E+02  0.14246051142E+03  0.21109359951E+03  0.15294330000E+03 0.  0.
<mgrwt>
<rscale>  0 0.15577391E+03</rscale>
<asrwt>0</asrwt>
<pdfrwt beam="1">  1        4 0.46032553E-01 0.15577391E+03</pdfrwt>
<pdfrwt beam="2">  1       -4 0.12902226E-01 0.15577391E+03</pdfrwt>
<totfact> 0.38377902E+02</totfact>
</mgrwt>
</event>
<event>
 4    1  0.8742165E-009  0.2270242E+03  0.7818608E-02  0.1128752E+00
         -4   -1    0    0    0  501 -0.00000000000E+00  0.00000000000E+00  0.67396333065E+03  0.67396452723E+03  0.12700000000E+01 0. -1.
          4   -1    0    0  501    0  0.00000000000E+00 -0.00000000000E+00 -0.89470488001E+03  0.89470578137E+03  0.12700000000E+01 0. -1.
    8880022    1    1    2    0    0  0.12813473998E+03  0.10830425051E+03  0.63969619344E+03  0.67878656084E+03  0.15294330000E+03 0.  0.
    8880022    1    1    2    0    0 -0.12813473998E+03 -0.10830425051E+03 -0.86043774279E+03  0.88988374775E+03  0.15294330000E+03 0.  0.
<mgrwt>
<rscale>  0 0.22702417E+03</rscale>
<asrwt>0</asrwt>
<pdfrwt beam="1">  1        4 0.13764707E+00 0.22702417E+03</pdfrwt>
<pdfrwt beam="2">  1       -4 0.10368683E+00 0.22702417E+03</pdfrwt>
<totfact> 0.55096103E-01</totfact>
</mgrwt>
</event>
<event>
 4    1  0.8742165E-009  0.3137476E+03  0.7818608E-02  0.1078563E+00
          4   -1    0    0  501    0  0.00000000000E+00  0.00000000000E+00  0.13504800856E+03  0.13505398001E+03  0.12700000000E+01 0.  1.
         -4   -1    0    0    0  501 -0.00000000000E+00 -0.00000000000E+00 -0.74225563085E+03  0.74225671733E+03  0.12700000000E+01 0.  1.
    8880022    1    1    2    0    0 -0.23556788878E+03  0.13983453032E+03 -0.36247652678E+03  0.47940255692E+03  0.15294330000E+03 0.  0.
    8880022    1    1    2    0    0  0.23556788878E+03 -0.13983453032E+03 -0.24473109551E+03  0.39790814043E+03  0.15294330000E+03 0.  0.
<mgrwt>
<rscale>  0 0.31374764E+03</rscale>
<asrwt>0</asrwt>
<pdfrwt beam="1">  1        4 0.20777160E-01 0.31374764E+03</pdfrwt>
<pdfrwt beam="2">  1       -4 0.11419371E+00 0.31374764E+03</pdfrwt>
<totfact> 0.24332871E+01</totfact>
</mgrwt>
</event>
<event>
 4    1  0.8742165E-009  0.1600838E+03  0.7818608E-02  0.1188602E+00
         -4   -1    0    0    0  501 -0.00000000000E+00  0.00000000000E+00  0.85105987444E+02  0.85115462748E+02  0.12700000000E+01 0. -1.
          4   -1    0    0  501    0  0.00000000000E+00 -0.00000000000E+00 -0.40124980056E+03  0.40125181040E+03  0.12700000000E+01 0. -1.
    8880022    1    1    2    0    0 -0.40570298702E+02  0.24273721888E+02 -0.36573766343E+02  0.16420857502E+03  0.15294330000E+03 0.  1.
    8880022    1    1    2    0    0  0.40570298702E+02 -0.24273721888E+02 -0.27957004677E+03  0.32215869813E+03  0.15294330000E+03 0.  1.
<mgrwt>
<rscale>  0 0.16008378E+03</rscale>
<asrwt>0</asrwt>
<pdfrwt beam="1">  1        4 0.61731621E-01 0.16008378E+03</pdfrwt>
<pdfrwt beam="2">  1       -4 0.13094113E-01 0.16008378E+03</pdfrwt>
<totfact> 0.20503569E+02</totfact>
</mgrwt>
</event>
<event>
 4    1  0.8742165E-009  0.1837612E+03  0.7818608E-02  0.1164212E+00
          4   -1    0    0  501    0  0.00000000000E+00  0.00000000000E+00  0.21778935995E+03  0.21779306281E+03  0.12700000000E+01 0. -1.
         -4   -1    0    0    0  501 -0.00000000000E+00 -0.00000000000E+00 -0.18693686393E+03  0.18694117791E+03  0.12700000000E+01 0. -1.
    8880022    1    1    2    0    0 -0.10178916725E+03  0.39358579095E+01 -0.68161452405E+02  0.19599531156E+03  0.15294330000E+03 0.  0.
    8880022    1    1    2    0    0  0.10178916725E+03 -0.39358579095E+01  0.99013948420E+02  0.20873892915E+03  0.15294330000E+03 0.  0.
<mgrwt>
<rscale>  0 0.18376120E+03</rscale>
<asrwt>0</asrwt>
<pdfrwt beam="1">  1        4 0.33506672E-01 0.18376120E+03</pdfrwt>
<pdfrwt beam="2">  1       -4 0.28760134E-01 0.18376120E+03</pdfrwt>
<totfact> 0.17392092E+02</totfact>
</mgrwt>
</event>
<event>
 4    1  0.8742165E-009  0.2766715E+03  0.7818608E-02  0.1097521E+00
          4   -1    0    0  501    0  0.00000000000E+00  0.00000000000E+00  0.36779265116E+03  0.36779484383E+03  0.12700000000E+01 0. -1.
         -4   -1    0    0    0  501 -0.00000000000E+00 -0.00000000000E+00 -0.27569038749E+03  0.27569331268E+03  0.12700000000E+01 0. -1.
    8880022    1    1    2    0    0 -0.15649494635E+03 -0.16930678669E+03  0.20533450485E+03  0.34454225887E+03  0.15294330000E+03 0.  0.
    8880022    1    1    2    0    0  0.15649494635E+03  0.16930678669E+03 -0.11323224119E+03  0.29894589763E+03  0.15294330000E+03 0.  0.
<mgrwt>
<rscale>  0 0.27667148E+03</rscale>
<asrwt>0</asrwt>
<pdfrwt beam="1">  1        4 0.56583879E-01 0.27667148E+03</pdfrwt>
<pdfrwt beam="2">  1       -4 0.42414299E-01 0.27667148E+03</pdfrwt>
<totfact> 0.29817737E+01</totfact>
</mgrwt>
</event>
<event>
 4    1  0.8742165E-009  0.2145799E+03  0.7818608E-02  0.1137990E+00
         -4   -1    0    0    0  501 -0.00000000000E+00  0.00000000000E+00  0.25565471303E+04  0.25565474458E+04  0.12700000000E+01 0. -1.
          4   -1    0    0  501    0  0.00000000000E+00 -0.00000000000E+00 -0.21508752401E+02  0.21546213817E+02  0.12700000000E+01 0. -1.
    8880022    1    1    2    0    0  0.23726677546E+02  0.14862679495E+03  0.17885668203E+04  0.18013927398E+04  0.15294330000E+03 0.  0.
    8880022    1    1    2    0    0 -0.23726677546E+02 -0.14862679495E+03  0.74647155764E+03  0.77670091978E+03  0.15294330000E+03 0.  0.
<mgrwt>
<rscale>  0 0.21457990E+03</rscale>
<asrwt>0</asrwt>
<pdfrwt beam="1">  1        4 0.33119442E-02 0.21457990E+03</pdfrwt>
<pdfrwt beam="2">  1       -4 0.39331791E+00 0.21457990E+03</pdfrwt>
<totfact> 0.80818526E+00</totfact>
</mgrwt>
</event>
<event>
 4    1  0.8742165E-009  0.1940909E+03  0.7818608E-02  0.1154823E+00
          4   -1    0    0  501    0  0.00000000000E+00  0.00000000000E+00  0.20255771519E+03  0.20256169649E+03  0.12700000000E+01 0. -1.
         -4   -1    0    0    0  501 -0.00000000000E+00 -0.00000000000E+00 -0.20032865969E+03  0.20033268528E+03  0.12700000000E+01 0. -1.
    8880022    1    1    2    0    0  0.11609916480E+03  0.28294875587E+02 -0.52816432805E+02  0.20114881218E+03  0.15294330000E+03 0.  1.
    8880022    1    1    2    0    0 -0.11609916480E+03 -0.28294875587E+02  0.55045488311E+02  0.20174556959E+03  0.15294330000E+03 0.  1.
<mgrwt>
<rscale>  0 0.19409088E+03</rscale>
<asrwt>0</asrwt>
<pdfrwt beam="1">  1        4 0.31163341E-01 0.19409088E+03</pdfrwt>
<pdfrwt beam="2">  1       -4 0.30820410E-01 0.19409088E+03</pdfrwt>
<totfact> 0.17675464E+02</totfact>
</mgrwt>
</event>
<event>
 4    1  0.8742165E-009  0.4116102E+03  0.7818608E-02  0.1039832E+00
          4   -1    0    0  501    0  0.00000000000E+00  0.00000000000E+00  0.21936221678E+03  0.21936589309E+03  0.12700000000E+01 0.  1.
         -4   -1    0    0    0  501 -0.00000000000E+00 -0.00000000000E+00 -0.82863603541E+03  0.82863700863E+03  0.12700000000E+01 0.  1.
    8880022    1    1    2    0    0  0.12286006255E+03  0.36185179283E+03 -0.44122604809E+03  0.60340980558E+03  0.15294330000E+03 0.  0.
    8880022    1    1    2    0    0 -0.12286006255E+03 -0.36185179283E+03 -0.16804777054E+03  0.44459309615E+03  0.15294330000E+03 0.  0.
<mgrwt>
<rscale>  0 0.41161021E+03</rscale>
<asrwt>0</asrwt>
<pdfrwt beam="1">  1        4 0.33748392E-01 0.41161021E+03</pdfrwt>
<pdfrwt beam="2">  1       -4 0.12748282E+00 0.41161021E+03</pdfrwt>
<totfact> 0.75282930E+00</totfact>
</mgrwt>
</event>
<event>
 4    1  0.8742165E-009  0.2753960E+03  0.7818608E-02  0.1098230E+00
          4   -1    0    0  501    0  0.00000000000E+00  0.00000000000E+00  0.13021184880E+03  0.13021804203E+03  0.12700000000E+01 0.  1.
         -4   -1    0    0    0  501 -0.00000000000E+00 -0.00000000000E+00 -0.78234211796E+03  0.78234314878E+03  0.12700000000E+01 0.  1.
    8880022    1    1    2    0    0  0.54379106950E+01  0.22895792421E+03 -0.55670962116E+03  0.62110269460E+03  0.15294330000E+03 0.  0.
    8880022    1    1    2    0    0 -0.54379106950E+01 -0.22895792421E+03 -0.95420647995E+02  0.29145849620E+03  0.15294330000E+03 0.  0.
<mgrwt>
<rscale>  0 0.27539600E+03</rscale>
<asrwt>0</asrwt>
<pdfrwt beam="1">  1        4 0.20033148E-01 0.27539600E+03</pdfrwt>
<pdfrwt beam="2">  1       -4 0.12036088E+00 0.27539600E+03</pdfrwt>
<totfact> 0.22641948E+01</totfact>
</mgrwt>
</event>
<event>
 4    1  0.8742165E-009  0.3237868E+03  0.7818608E-02  0.1073920E+00
         -4   -1    0    0    0  501 -0.00000000000E+00  0.00000000000E+00  0.15362436905E+03  0.15362961845E+03  0.12700000000E+01 0.  1.
          4   -1    0    0  501    0  0.00000000000E+00 -0.00000000000E+00 -0.75816746989E+03  0.75816853357E+03  0.12700000000E+01 0.  1.
    8880022    1    1    2    0    0 -0.26422043888E+03 -0.10786006138E+03 -0.44638009360E+03  0.55144634747E+03  0.15294330000E+03 0.  0.
    8880022    1    1    2    0    0  0.26422043888E+03  0.10786006138E+03 -0.15816300724E+03  0.36035180455E+03  0.15294330000E+03 0.  0.
<mgrwt>
<rscale>  0 0.32378679E+03</rscale>
<asrwt>0</asrwt>
<pdfrwt beam="1">  1        4 0.11664163E+00 0.32378679E+03</pdfrwt>
<pdfrwt beam="2">  1       -4 0.23635004E-01 0.32378679E+03</pdfrwt>
<totfact> 0.18255656E+01</totfact>
</mgrwt>
</event>
<event>
 4    1  0.8742165E-009  0.2265593E+03  0.7818608E-02  0.1129085E+00
          4   -1    0    0  501    0  0.00000000000E+00  0.00000000000E+00  0.22090036999E+03  0.22090402070E+03  0.12700000000E+01 0. -1.
         -4   -1    0    0    0  501 -0.00000000000E+00 -0.00000000000E+00 -0.45593114272E+03  0.45593291152E+03  0.12700000000E+01 0.  1.
    8880022    1    1    2    0    0 -0.16567063558E+03  0.22152117551E+02 -0.35449623263E+03  0.42070976667E+03  0.15294330000E+03 0.  0.
    8880022    1    1    2    0    0  0.16567063558E+03 -0.22152117551E+02  0.11946545990E+03  0.25612716555E+03  0.15294330000E+03 0. -1.
<mgrwt>
<rscale>  0 0.22655933E+03</rscale>
<asrwt>0</asrwt>
<pdfrwt beam="1">  1        4 0.33985089E-01 0.22655933E+03</pdfrwt>
<pdfrwt beam="2">  1       -4 0.70143669E-01 0.22655933E+03</pdfrwt>
<totfact> 0.28574771E+01</totfact>
</mgrwt>
</event>
<event>
 4    1  0.8742165E-009  0.1992523E+03  0.7818608E-02  0.1150371E+00
          4   -1    0    0  501    0  0.00000000000E+00  0.00000000000E+00  0.96959711959E+03  0.96959795133E+03  0.12700000000E+01 0.  1.
         -4   -1    0    0    0  501 -0.00000000000E+00 -0.00000000000E+00 -0.97458982535E+02  0.97467256947E+02  0.12700000000E+01 0.  1.
    8880022    1    1    2    0    0 -0.12516972035E+03  0.25345175208E+02  0.29784077002E+02  0.20146607917E+03  0.15294330000E+03 0.  0.
    8880022    1    1    2    0    0  0.12516972035E+03 -0.25345175208E+02  0.84235406005E+03  0.86559912910E+03  0.15294330000E+03 0.  0.
<mgrwt>
<rscale>  0 0.19925233E+03</rscale>
<asrwt>0</asrwt>
<pdfrwt beam="1">  1        4 0.14916949E+00 0.19925233E+03</pdfrwt>
<pdfrwt beam="2">  1       -4 0.14994390E-01 0.19925233E+03</pdfrwt>
<totfact> 0.21558928E+01</totfact>
</mgrwt>
</event>
<event>
 4    1  0.8742165E-009  0.1616039E+03  0.7818608E-02  0.1186898E+00
         -4   -1    0    0    0  501 -0.00000000000E+00  0.00000000000E+00  0.21577980264E+03  0.21578353999E+03  0.12700000000E+01 0. -1.
          4   -1    0    0  501    0  0.00000000000E+00 -0.00000000000E+00 -0.12161071680E+03  0.12161734802E+03  0.12700000000E+01 0. -1.
    8880022    1    1    2    0    0 -0.31928009602E+02 -0.41288825516E+02  0.35345626315E+02  0.16542409505E+03  0.15294330000E+03 0.  0.
    8880022    1    1    2    0    0  0.31928009602E+02  0.41288825516E+02  0.58823459531E+02  0.17197679296E+03  0.15294330000E+03 0.  0.
<mgrwt>
<rscale>  0 0.16160389E+03</rscale>
<asrwt>0</asrwt>
<pdfrwt beam="1">  1        4 0.18710139E-01 0.16160389E+03</pdfrwt>
<pdfrwt beam="2">  1       -4 0.33197690E-01 0.16160389E+03</pdfrwt>
<totfact> 0.38240742E+02</totfact>
</mgrwt>
</event>
<event>
 4    1  0.8742165E-009  0.2148807E+03  0.7818608E-02  0.1137758E+00
         -4   -1    0    0    0  501 -0.00000000000E+00  0.00000000000E+00  0.37306539013E+02  0.37328149608E+02  0.12700000000E+01 0. -1.
          4   -1    0    0  501    0  0.00000000000E+00 -0.00000000000E+00 -0.12682637271E+04  0.12682643630E+04  0.12700000000E+01 0. -1.
    8880022    1    1    2    0    0  0.21409603910E+02  0.14941110484E+03 -0.71747163778E+03  0.74895877952E+03  0.15294330000E+03 0.  0.
    8880022    1    1    2    0    0 -0.21409603910E+02 -0.14941110484E+03 -0.51348555034E+03  0.55663373308E+03  0.15294330000E+03 0.  0.
<mgrwt>
<rscale>  0 0.21488067E+03</rscale>
<asrwt>0</asrwt>
<pdfrwt beam="1">  1        4 0.19511918E+00 0.21488067E+03</pdfrwt>
<pdfrwt beam="2">  1       -4 0.57411798E-02 0.21488067E+03</pdfrwt>
<totfact> 0.53274516E+01</totfact>
</mgrwt>
</event>
<event>
 4    1  0.8742165E-009  0.2221359E+03  0.7818608E-02  0.1132301E+00
         -4   -1    0    0    0  501 -0.00000000000E+00  0.00000000000E+00  0.99367794635E+02  0.99375910112E+02  0.12700000000E+01 0.  1.
          4   -1    0    0  501    0  0.00000000000E+00 -0.00000000000E+00 -0.76187581182E+03  0.76187687032E+03  0.12700000000E+01 0.  1.
    8880022    1    1    2    0    0  0.16090138518E+03 -0.79649022470E+01 -0.58537618912E+03  0.62610672511E+03  0.15294330000E+03 0.  0.
    8880022    1    1    2    0    0 -0.16090138518E+03  0.79649022470E+01 -0.77131828061E+02  0.23514605533E+03  0.15294330000E+03 0.  0.
<mgrwt>
<rscale>  0 0.22213588E+03</rscale>
<asrwt>0</asrwt>
<pdfrwt beam="1">  1        4 0.11721236E+00 0.22213588E+03</pdfrwt>
<pdfrwt beam="2">  1       -4 0.15288059E-01 0.22213588E+03</pdfrwt>
<totfact> 0.38425102E+01</totfact>
</mgrwt>
</event>
<event>
 4    1  0.8742165E-009  0.2497240E+03  0.7818608E-02  0.1113479E+00
          4   -1    0    0  501    0  0.00000000000E+00  0.00000000000E+00  0.10278874738E+03  0.10279659279E+03  0.12700000000E+01 0. -1.
         -4   -1    0    0    0  501 -0.00000000000E+00 -0.00000000000E+00 -0.63584646871E+03  0.63584773701E+03  0.12700000000E+01 0. -1.
    8880022    1    1    2    0    0  0.19696457355E+03 -0.13243250054E+02 -0.34564119879E+03  0.42641519464E+03  0.15294330000E+03 0.  0.
    8880022    1    1    2    0    0 -0.19696457355E+03  0.13243250054E+02 -0.18741652254E+03  0.31222913516E+03  0.15294330000E+03 0.  0.
<mgrwt>
<rscale>  0 0.24972401E+03</rscale>
<asrwt>0</asrwt>
<pdfrwt beam="1">  1        4 0.15814355E-01 0.24972401E+03</pdfrwt>
<pdfrwt beam="2">  1       -4 0.97823232E-01 0.24972401E+03</pdfrwt>
<totfact> 0.56317558E+01</totfact>
</mgrwt>
</event>
<event>
 4    1  0.8742165E-009  0.1832860E+03  0.7818608E-02  0.1164660E+00
          4   -1    0    0  501    0  0.00000000000E+00  0.00000000000E+00  0.17937301712E+03  0.17937751301E+03  0.12700000000E+01 0. -1.
         -4   -1    0    0    0  501 -0.00000000000E+00 -0.00000000000E+00 -0.20012169354E+03  0.20012572330E+03  0.12700000000E+01 0. -1.
    8880022    1    1    2    0    0  0.10921315963E+02  0.10041324079E+03 -0.58449396253E+02  0.19238003796E+03  0.15294330000E+03 0.  0.
    8880022    1    1    2    0    0 -0.10921315963E+02 -0.10041324079E+03  0.37700719835E+02  0.18712319835E+03  0.15294330000E+03 0.  0.
<mgrwt>
<rscale>  0 0.18328597E+03</rscale>
<asrwt>0</asrwt>
<pdfrwt beam="1">  1        4 0.27596505E-01 0.18328597E+03</pdfrwt>
<pdfrwt beam="2">  1       -4 0.30788609E-01 0.18328597E+03</pdfrwt>
<totfact> 0.22106292E+02</totfact>
</mgrwt>
</event>
<event>
 4    1  0.8742165E-009  0.3795309E+03  0.7818608E-02  0.1051107E+00
          4   -1    0    0  501    0  0.00000000000E+00  0.00000000000E+00  0.12119765157E+04  0.12119771811E+04  0.12700000000E+01 0.  1.
         -4   -1    0    0    0  501 -0.00000000000E+00 -0.00000000000E+00 -0.16250727412E+03  0.16251223659E+03  0.12700000000E+01 0.  1.
    8880022    1    1    2    0    0 -0.56358158642E+02 -0.34274743417E+03  0.16851836958E+03  0.41526153154E+03  0.15294330000E+03 0.  0.
    8880022    1    1    2    0    0  0.56358158642E+02  0.34274743417E+03  0.88095087196E+03  0.95922788611E+03  0.15294330000E+03 0.  0.
<mgrwt>
<rscale>  0 0.37953089E+03</rscale>
<asrwt>0</asrwt>
<pdfrwt beam="1">  1        4 0.18645836E+00 0.37953089E+03</pdfrwt>
<pdfrwt beam="2">  1       -4 0.25001552E-01 0.37953089E+03</pdfrwt>
<totfact> 0.48501069E+00</totfact>
</mgrwt>
</event>
<event>
 4    1  0.8742165E-009  0.2112864E+03  0.7818608E-02  0.1140551E+00
          4   -1    0    0  501    0  0.00000000000E+00  0.00000000000E+00  0.97446417471E+03  0.97446500229E+03  0.12700000000E+01 0. -1.
         -4   -1    0    0    0  501 -0.00000000000E+00 -0.00000000000E+00 -0.15367785988E+04  0.15367791236E+04  0.12700000000E+01 0.  1.
    8880022    1    1    2    0    0  0.75874603307E+02  0.12447225549E+03 -0.15179224820E+04  0.15325568871E+04  0.15294330000E+03 0.  1.
    8880022    1    1    2    0    0 -0.75874603307E+02 -0.12447225549E+03  0.95560805794E+03  0.97868723872E+03  0.15294330000E+03 0.  0.
<mgrwt>
<rscale>  0 0.21128642E+03</rscale>
<asrwt>0</asrwt>
<pdfrwt beam="1">  1        4 0.14991767E+00 0.21128642E+03</pdfrwt>
<pdfrwt beam="2">  1       -4 0.23642758E+00 0.21128642E+03</pdfrwt>
<totfact> 0.48828297E-02</totfact>
</mgrwt>
</event>
<event>
 4    1  0.8742165E-009  0.1741411E+03  0.7818608E-02  0.1173597E+00
         -4   -1    0    0    0  501 -0.00000000000E+00  0.00000000000E+00  0.39141946865E+02  0.39162544661E+02  0.12700000000E+01 0.  1.
          4   -1    0    0  501    0  0.00000000000E+00 -0.00000000000E+00 -0.79606166621E+03  0.79606267926E+03  0.12700000000E+01 0.  1.
    8880022    1    1    2    0    0 -0.57665453924E+02 -0.60067919683E+02 -0.30976705444E+03  0.35536001545E+03  0.15294330000E+03 0. -1.
    8880022    1    1    2    0    0  0.57665453924E+02  0.60067919683E+02 -0.44715266491E+03  0.47986520847E+03  0.15294330000E+03 0. -1.
<mgrwt>
<rscale>  0 0.17414107E+03</rscale>
<asrwt>0</asrwt>
<pdfrwt beam="1">  1        4 0.12247268E+00 0.17414107E+03</pdfrwt>
<pdfrwt beam="2">  1       -4 0.60235010E-02 0.17414107E+03</pdfrwt>
<totfact> 0.16230547E+02</totfact>
</mgrwt>
</event>
<event>
 4    1  0.8742165E-009  0.4357571E+03  0.7818608E-02  0.1032057E+00
          4   -1    0    0  501    0  0.00000000000E+00  0.00000000000E+00  0.13516532764E+04  0.13516538730E+04  0.12700000000E+01 0. -1.
         -4   -1    0    0    0  501 -0.00000000000E+00 -0.00000000000E+00 -0.16361765701E+03  0.16362258580E+03  0.12700000000E+01 0. -1.
    8880022    1    1    2    0    0  0.31847146717E+02  0.40679031545E+03  0.87892515929E+03  0.98101666150E+03  0.15294330000E+03 0.  0.
    8880022    1    1    2    0    0 -0.31847146717E+02 -0.40679031545E+03  0.30911046010E+03  0.53425979734E+03  0.15294330000E+03 0.  0.
<mgrwt>
<rscale>  0 0.43575710E+03</rscale>
<asrwt>0</asrwt>
<pdfrwt beam="1">  1        4 0.20794708E+00 0.43575710E+03</pdfrwt>
<pdfrwt beam="2">  1       -4 0.25172372E-01 0.43575710E+03</pdfrwt>
<totfact> 0.34852305E+00</totfact>
</mgrwt>
</event>
<event>
 4    1  0.8742165E-009  0.1550588E+03  0.7818608E-02  0.1194391E+00
         -4   -1    0    0    0  501 -0.00000000000E+00  0.00000000000E+00  0.54237575131E+02  0.54252441937E+02  0.12700000000E+01 0.  1.
          4   -1    0    0  501    0  0.00000000000E+00 -0.00000000000E+00 -0.75211420109E+03  0.75211527333E+03  0.12700000000E+01 0.  1.
    8880022    1    1    2    0    0 -0.23549704095E+02 -0.98486343173E+01 -0.90556112421E+02  0.17956515996E+03  0.15294330000E+03 0.  0.
    8880022    1    1    2    0    0  0.23549704095E+02  0.98486343173E+01 -0.60732051354E+03  0.62680255531E+03  0.15294330000E+03 0.  0.
<mgrwt>
<rscale>  0 0.15505882E+03</rscale>
<asrwt>0</asrwt>
<pdfrwt beam="1">  1        4 0.11571110E+00 0.15505882E+03</pdfrwt>
<pdfrwt beam="2">  1       -4 0.83454690E-02 0.15505882E+03</pdfrwt>
<totfact> 0.10682901E+02</totfact>
</mgrwt>
</event>
<event>
 4    1  0.8742165E-009  0.3149860E+03  0.7818608E-02  0.1077980E+00
          4   -1    0    0  501    0  0.00000000000E+00  0.00000000000E+00  0.75787053290E+03  0.75787159700E+03  0.12700000000E+01 0.  1.
         -4   -1    0    0    0  501 -0.00000000000E+00 -0.00000000000E+00 -0.13294456383E+03  0.13295062975E+03  0.12700000000E+01 0.  1.
    8880022    1    1    2    0    0 -0.26470208357E+03  0.75877113543E+02  0.36756023177E+03  0.48406270916E+03  0.15294330000E+03 0.  0.
    8880022    1    1    2    0    0  0.26470208357E+03 -0.75877113543E+02  0.25736573731E+03  0.40675951760E+03  0.15294330000E+03 0.  0.
<mgrwt>
<rscale>  0 0.31498600E+03</rscale>
<asrwt>0</asrwt>
<pdfrwt beam="1">  1        4 0.11659602E+00 0.31498600E+03</pdfrwt>
<pdfrwt beam="2">  1       -4 0.20453558E-01 0.31498600E+03</pdfrwt>
<totfact> 0.23820031E+01</totfact>
</mgrwt>
</event>
<event>
 4    1  0.8742165E-009  0.1536961E+03  0.7818608E-02  0.1196003E+00
         -4   -1    0    0    0  501 -0.00000000000E+00  0.00000000000E+00  0.96889986880E+03  0.96890070114E+03  0.12700000000E+01 0. -1.
          4   -1    0    0  501    0  0.00000000000E+00 -0.00000000000E+00 -0.25819156108E+02  0.25850371799E+02  0.12700000000E+01 0. -1.
    8880022    1    1    2    0    0 -0.77107046159E+01  0.13090994995E+02  0.35351131182E+03  0.38547727522E+03  0.15294330000E+03 0.  0.
    8880022    1    1    2    0    0  0.77107046159E+01 -0.13090994995E+02  0.58956940088E+03  0.60927379772E+03  0.15294330000E+03 0.  0.
<mgrwt>
<rscale>  0 0.15369607E+03</rscale>
<asrwt>0</asrwt>
<pdfrwt beam="1">  1        4 0.39746429E-02 0.15369607E+03</pdfrwt>
<pdfrwt beam="2">  1       -4 0.14906399E+00 0.15369607E+03</pdfrwt>
<totfact> 0.19087204E+02</totfact>
</mgrwt>
</event>
<event>
 4    1  0.8742165E-009  0.5518534E+03  0.7818608E-02  0.1001066E+00
          4   -1    0    0  501    0  0.00000000000E+00  0.00000000000E+00  0.12486238534E+04  0.12486244993E+04  0.12700000000E+01 0. -1.
         -4   -1    0    0    0  501 -0.00000000000E+00 -0.00000000000E+00 -0.24779434900E+03  0.24779760350E+03  0.12700000000E+01 0. -1.
    8880022    1    1    2    0    0 -0.38467481620E+03  0.36493258609E+03  0.40661557919E+03  0.68547676026E+03  0.15294330000E+03 0.  0.
    8880022    1    1    2    0    0  0.38467481620E+03 -0.36493258609E+03  0.59421392521E+03  0.81094534250E+03  0.15294330000E+03 0.  0.
<mgrwt>
<rscale>  0 0.55185339E+03</rscale>
<asrwt>0</asrwt>
<pdfrwt beam="1">  1        4 0.19209628E+00 0.55185339E+03</pdfrwt>
<pdfrwt beam="2">  1       -4 0.38122507E-01 0.55185339E+03</pdfrwt>
<totfact> 0.19767904E+00</totfact>
</mgrwt>
</event>
<event>
 4    1  0.8742165E-009  0.1586532E+03  0.7818608E-02  0.1190226E+00
         -4   -1    0    0    0  501 -0.00000000000E+00  0.00000000000E+00  0.21267115447E+03  0.21267494644E+03  0.12700000000E+01 0. -1.
          4   -1    0    0  501    0  0.00000000000E+00 -0.00000000000E+00 -0.21103263738E+03  0.21103645880E+03  0.12700000000E+01 0. -1.
    8880022    1    1    2    0    0 -0.32635681117E+02  0.26722428715E+02 -0.13957886618E+03  0.21131277476E+03  0.15294330000E+03 0.  0.
    8880022    1    1    2    0    0  0.32635681117E+02 -0.26722428715E+02  0.14121738327E+03  0.21239863048E+03  0.15294330000E+03 0.  0.
<mgrwt>
<rscale>  0 0.15865317E+03</rscale>
<asrwt>0</asrwt>
<pdfrwt beam="1">  1        4 0.32467145E-01 0.15865317E+03</pdfrwt>
<pdfrwt beam="2">  1       -4 0.32719225E-01 0.15865317E+03</pdfrwt>
<totfact> 0.14132479E+02</totfact>
</mgrwt>
</event>
<event>
 4    1  0.8742165E-009  0.2033965E+03  0.7818608E-02  0.1146905E+00
         -4   -1    0    0    0  501 -0.00000000000E+00  0.00000000000E+00  0.12549739140E+03  0.12550381727E+03  0.12700000000E+01 0.  1.
          4   -1    0    0  501    0  0.00000000000E+00 -0.00000000000E+00 -0.33254774980E+03  0.33255017486E+03  0.12700000000E+01 0.  1.
    8880022    1    1    2    0    0  0.45646489769E+02 -0.12607487032E+03 -0.82084510514E+02  0.21933534789E+03  0.15294330000E+03 0.  0.
    8880022    1    1    2    0    0 -0.45646489769E+02  0.12607487032E+03 -0.12496584788E+03  0.23871864423E+03  0.15294330000E+03 0.  0.
<mgrwt>
<rscale>  0 0.20339648E+03</rscale>
<asrwt>0</asrwt>
<pdfrwt beam="1">  1        4 0.51161873E-01 0.20339648E+03</pdfrwt>
<pdfrwt beam="2">  1       -4 0.19307972E-01 0.20339648E+03</pdfrwt>
<totfact> 0.15852147E+02</totfact>
</mgrwt>
</event>
<event>
 4    1  0.8742165E-009  0.2053209E+03  0.7818608E-02  0.1145326E+00
          4   -1    0    0  501    0  0.00000000000E+00  0.00000000000E+00  0.97333670782E+03  0.97333753637E+03  0.12700000000E+01 0.  1.
         -4   -1    0    0    0  501 -0.00000000000E+00 -0.00000000000E+00 -0.58625156694E+02  0.58638911121E+02  0.12700000000E+01 0.  1.
    8880022    1    1    2    0    0  0.13633772311E+03 -0.13306076398E+02  0.72112134226E+03  0.74978174804E+03  0.15294330000E+03 0.  1.
    8880022    1    1    2    0    0 -0.13633772311E+03  0.13306076398E+02  0.19359020887E+03  0.28219469945E+03  0.15294330000E+03 0.  1.
<mgrwt>
<rscale>  0 0.20532092E+03</rscale>
<asrwt>0</asrwt>
<pdfrwt beam="1">  1        4 0.14974522E+00 0.20532092E+03</pdfrwt>
<pdfrwt beam="2">  1       -4 0.90203772E-02 0.20532092E+03</pdfrwt>
<totfact> 0.51339158E+01</totfact>
</mgrwt>
</event>
<event>
 4    1  0.8742165E-009  0.1710846E+03  0.7818608E-02  0.1176722E+00
         -4   -1    0    0    0  501 -0.00000000000E+00  0.00000000000E+00  0.80053291007E+02  0.80063364288E+02  0.12700000000E+01 0.  1.
          4   -1    0    0  501    0  0.00000000000E+00 -0.00000000000E+00 -0.40981964918E+03  0.40982161700E+03  0.12700000000E+01 0.  1.
    8880022    1    1    2    0    0  0.59298385029E+02  0.48600222522E+02 -0.24534437817E+03  0.29910499329E+03  0.15294330000E+03 0. -1.
    8880022    1    1    2    0    0 -0.59298385029E+02 -0.48600222522E+02 -0.84421980010E+02  0.19077998800E+03  0.15294330000E+03 0. -1.
<mgrwt>
<rscale>  0 0.17108458E+03</rscale>
<asrwt>0</asrwt>
<pdfrwt beam="1">  1        4 0.63050102E-01 0.17108458E+03</pdfrwt>
<pdfrwt beam="2">  1       -4 0.12316817E-01 0.17108458E+03</pdfrwt>
<totfact> 0.22019892E+02</totfact>
</mgrwt>
</event>
<event>
 4    1  0.8742165E-009  0.2844297E+03  0.7818608E-02  0.1093294E+00
         -4   -1    0    0    0  501 -0.00000000000E+00  0.00000000000E+00  0.30995694088E+03  0.30995954268E+03  0.12700000000E+01 0. -1.
          4   -1    0    0  501    0  0.00000000000E+00 -0.00000000000E+00 -0.26847974649E+03  0.26848275024E+03  0.12700000000E+01 0. -1.
    8880022    1    1    2    0    0 -0.16570644715E+03  0.17334935736E+03  0.69013696757E+02  0.29268271162E+03  0.15294330000E+03 0.  0.
    8880022    1    1    2    0    0  0.16570644715E+03 -0.17334935736E+03 -0.27536502369E+02  0.28575958130E+03  0.15294330000E+03 0.  0.
<mgrwt>
<rscale>  0 0.28442974E+03</rscale>
<asrwt>0</asrwt>
<pdfrwt beam="1">  1        4 0.41305008E-01 0.28442974E+03</pdfrwt>
<pdfrwt beam="2">  1       -4 0.47686114E-01 0.28442974E+03</pdfrwt>
<totfact> 0.45010284E+01</totfact>
</mgrwt>
</event>
<event>
 4    1  0.8742165E-009  0.1966133E+03  0.7818608E-02  0.1152628E+00
          4   -1    0    0  501    0  0.00000000000E+00  0.00000000000E+00  0.19684288025E+03  0.19684697713E+03  0.12700000000E+01 0. -1.
         -4   -1    0    0    0  501 -0.00000000000E+00 -0.00000000000E+00 -0.20110574983E+03  0.20110975987E+03  0.12700000000E+01 0. -1.
    8880022    1    1    2    0    0  0.50551132897E+02 -0.11273742170E+03 -0.32646327202E+02  0.19930524073E+03  0.15294330000E+03 0.  0.
    8880022    1    1    2    0    0 -0.50551132897E+02  0.11273742170E+03  0.28383457619E+02  0.19865149627E+03  0.15294330000E+03 0.  0.
<mgrwt>
<rscale>  0 0.19661332E+03</rscale>
<asrwt>0</asrwt>
<pdfrwt beam="1">  1        4 0.30284143E-01 0.19661332E+03</pdfrwt>
<pdfrwt beam="2">  1       -4 0.30939970E-01 0.19661332E+03</pdfrwt>
<totfact> 0.18565394E+02</totfact>
</mgrwt>
</event>
<event>
 4    1  0.8742165E-009  0.2220443E+03  0.7818608E-02  0.1132368E+00
          4   -1    0    0  501    0  0.00000000000E+00  0.00000000000E+00  0.63063420726E+03  0.63063548605E+03  0.12700000000E+01 0. -1.
         -4   -1    0    0    0  501 -0.00000000000E+00 -0.00000000000E+00 -0.80924408962E+02  0.80934373821E+02  0.12700000000E+01 0. -1.
    8880022    1    1    2    0    0  0.87618573504E+02  0.13503705389E+03  0.20927511563E+03  0.30512251209E+03  0.15294330000E+03 0.  0.
    8880022    1    1    2    0    0 -0.87618573504E+02 -0.13503705389E+03  0.34043468267E+03  0.40644734779E+03  0.15294330000E+03 0.  0.
<mgrwt>
<rscale>  0 0.22204430E+03</rscale>
<asrwt>0</asrwt>
<pdfrwt beam="1">  1        4 0.97021510E-01 0.22204430E+03</pdfrwt>
<pdfrwt beam="2">  1       -4 0.12450774E-01 0.22204430E+03</pdfrwt>
<totfact> 0.86140106E+01</totfact>
</mgrwt>
</event>
<event>
 4    1  0.8742165E-009  0.2271862E+03  0.7818608E-02  0.1128636E+00
          4   -1    0    0  501    0  0.00000000000E+00  0.00000000000E+00  0.10294096687E+03  0.10294880068E+03  0.12700000000E+01 0.  1.
         -4   -1    0    0    0  501 -0.00000000000E+00 -0.00000000000E+00 -0.50227972933E+03  0.50228133491E+03  0.12700000000E+01 0.  1.
    8880022    1    1    2    0    0  0.81676744392E+02  0.14680198923E+03 -0.21260276544E+03  0.31114868392E+03  0.15294330000E+03 0.  0.
    8880022    1    1    2    0    0 -0.81676744392E+02 -0.14680198923E+03 -0.18673599702E+03  0.29408145167E+03  0.15294330000E+03 0.  0.
<mgrwt>
<rscale>  0 0.22718620E+03</rscale>
<asrwt>0</asrwt>
<pdfrwt beam="1">  1        4 0.15837798E-01 0.22718620E+03</pdfrwt>
<pdfrwt beam="2">  1       -4 0.77274529E-01 0.22718620E+03</pdfrwt>
<totfact> 0.94965710E+01</totfact>
</mgrwt>
</event>
<event>
 4    1  0.8742165E-009  0.4299852E+03  0.7818608E-02  0.1033865E+00
          4   -1    0    0  501    0  0.00000000000E+00  0.00000000000E+00  0.38415987488E+03  0.38416197413E+03  0.12700000000E+01 0.  1.
         -4   -1    0    0    0  501 -0.00000000000E+00 -0.00000000000E+00 -0.90902423826E+03  0.90902512542E+03  0.12700000000E+01 0.  1.
    8880022    1    1    2    0    0 -0.40013470974E+03  0.37253613395E+02 -0.70597816332E+03  0.82661504810E+03  0.15294330000E+03 0.  0.
    8880022    1    1    2    0    0  0.40013470974E+03 -0.37253613395E+02  0.18111379994E+03  0.46657205145E+03  0.15294330000E+03 0.  0.
<mgrwt>
<rscale>  0 0.42998520E+03</rscale>
<asrwt>0</asrwt>
<pdfrwt beam="1">  1        4 0.59101749E-01 0.42998520E+03</pdfrwt>
<pdfrwt beam="2">  1       -4 0.13985011E+00 0.42998520E+03</pdfrwt>
<totfact> 0.18931252E+00</totfact>
</mgrwt>
</event>
<event>
 4    1  0.8742165E-009  0.1728384E+03  0.7818608E-02  0.1174920E+00
          4   -1    0    0  501    0  0.00000000000E+00  0.00000000000E+00  0.22332259470E+03  0.22332620581E+03  0.12700000000E+01 0.  1.
         -4   -1    0    0    0  501 -0.00000000000E+00 -0.00000000000E+00 -0.13714277902E+03  0.13714865927E+03  0.12700000000E+01 0.  1.
    8880022    1    1    2    0    0 -0.69596116424E+02  0.40470262836E+02  0.14779361349E+02  0.17346914461E+03  0.15294330000E+03 0.  0.
    8880022    1    1    2    0    0  0.69596116424E+02 -0.40470262836E+02  0.71400454324E+02  0.18700572047E+03  0.15294330000E+03 0.  0.
<mgrwt>
<rscale>  0 0.17283841E+03</rscale>
<asrwt>0</asrwt>
<pdfrwt beam="1">  1        4 0.34358052E-01 0.17283841E+03</pdfrwt>
<pdfrwt beam="2">  1       -4 0.21099619E-01 0.17283841E+03</pdfrwt>
<totfact> 0.29134991E+02</totfact>
</mgrwt>
</event>
<event>
 4    1  0.8742165E-009  0.1740674E+03  0.7818608E-02  0.1173671E+00
         -4   -1    0    0    0  501 -0.00000000000E+00  0.00000000000E+00  0.26836867290E+02  0.26866900564E+02  0.12700000000E+01 0.  1.
          4   -1    0    0  501    0  0.00000000000E+00 -0.00000000000E+00 -0.11544828288E+04  0.11544835273E+04  0.12700000000E+01 0.  1.
    8880022    1    1    2    0    0  0.81994633611E+02 -0.13590198457E+02 -0.47497630742E+03  0.50586753114E+03  0.15294330000E+03 0.  0.
    8880022    1    1    2    0    0 -0.81994633611E+02  0.13590198457E+02 -0.65266965409E+03  0.67548289677E+03  0.15294330000E+03 0.  0.
<mgrwt>
<rscale>  0 0.17406742E+03</rscale>
<asrwt>0</asrwt>
<pdfrwt beam="1">  1        4 0.17761507E+00 0.17406742E+03</pdfrwt>
<pdfrwt beam="2">  1       -4 0.41311137E-02 0.17406742E+03</pdfrwt>
<totfact> 0.11512206E+02</totfact>
</mgrwt>
</event>
<event>
 4    1  0.8742165E-009  0.1723066E+03  0.7818608E-02  0.1175464E+00
          4   -1    0    0  501    0  0.00000000000E+00  0.00000000000E+00  0.20806213964E+03  0.20806601561E+03  0.12700000000E+01 0.  1.
         -4   -1    0    0    0  501 -0.00000000000E+00 -0.00000000000E+00 -0.14307479940E+03  0.14308043585E+03  0.12700000000E+01 0.  1.
    8880022    1    1    2    0    0 -0.67411571975E+02 -0.41876075365E+02  0.23361489143E+02  0.17388311567E+03  0.15294330000E+03 0. -1.
    8880022    1    1    2    0    0  0.67411571975E+02  0.41876075365E+02  0.41625851094E+02  0.17726333580E+03  0.15294330000E+03 0. -1.
<mgrwt>
<rscale>  0 0.17230664E+03</rscale>
<asrwt>0</asrwt>
<pdfrwt beam="1">  1        4 0.32010292E-01 0.17230664E+03</pdfrwt>
<pdfrwt beam="2">  1       -4 0.22012239E-01 0.17230664E+03</pdfrwt>
<totfact> 0.30891676E+02</totfact>
</mgrwt>
</event>
<event>
 4    1  0.8742165E-009  0.3191151E+03  0.7818608E-02  0.1076057E+00
         -4   -1    0    0    0  501 -0.00000000000E+00  0.00000000000E+00  0.28693338540E+03  0.28693619596E+03  0.12700000000E+01 0.  1.
          4   -1    0    0  501    0  0.00000000000E+00 -0.00000000000E+00 -0.37207069733E+03  0.37207286478E+03  0.12700000000E+01 0.  1.
    8880022    1    1    2    0    0  0.24982835908E+03 -0.12660403218E+03  0.28214990110E+02  0.32035999851E+03  0.15294330000E+03 0.  0.
    8880022    1    1    2    0    0 -0.24982835908E+03  0.12660403218E+03 -0.11335230204E+03  0.33864906224E+03  0.15294330000E+03 0.  0.
<mgrwt>
<rscale>  0 0.31911509E+03</rscale>
<asrwt>0</asrwt>
<pdfrwt beam="1">  1        4 0.57242029E-01 0.31911509E+03</pdfrwt>
<pdfrwt beam="2">  1       -4 0.44143981E-01 0.31911509E+03</pdfrwt>
<totfact> 0.27184742E+01</totfact>
</mgrwt>
</event>
<event>
 4    1  0.8742165E-009  0.3792867E+03  0.7818608E-02  0.1051198E+00
         -4   -1    0    0    0  501 -0.00000000000E+00  0.00000000000E+00  0.22151131343E+03  0.22151495407E+03  0.12700000000E+01 0.  1.
          4   -1    0    0  501    0  0.00000000000E+00 -0.00000000000E+00 -0.71040842754E+03  0.71040956273E+03  0.12700000000E+01 0.  1.
    8880022    1    1    2    0    0 -0.33527812598E+03  0.89751419107E+02 -0.10793350684E+03  0.39434506958E+03  0.15294330000E+03 0.  0.
    8880022    1    1    2    0    0  0.33527812598E+03 -0.89751419107E+02 -0.38096360728E+03  0.53757944722E+03  0.15294330000E+03 0.  0.
<mgrwt>
<rscale>  0 0.37928669E+03</rscale>
<asrwt>0</asrwt>
<pdfrwt beam="1">  1        4 0.10929397E+00 0.37928669E+03</pdfrwt>
<pdfrwt beam="2">  1       -4 0.34079031E-01 0.37928669E+03</pdfrwt>
<totfact> 0.10730878E+01</totfact>
</mgrwt>
</event>
<event>
 4    1  0.8742165E-009  0.1666617E+03  0.7818608E-02  0.1181375E+00
          4   -1    0    0  501    0  0.00000000000E+00  0.00000000000E+00  0.34318776567E+03  0.34319011554E+03  0.12700000000E+01 0. -1.
         -4   -1    0    0    0  501 -0.00000000000E+00 -0.00000000000E+00 -0.96435215150E+02  0.96443577397E+02  0.12700000000E+01 0. -1.
    8880022    1    1    2    0    0 -0.61431179443E+02 -0.24712228874E+02  0.21151830756E+03  0.26928819416E+03  0.15294330000E+03 0.  0.
    8880022    1    1    2    0    0  0.61431179443E+02  0.24712228874E+02  0.35234242958E+02  0.17034549878E+03  0.15294330000E+03 0.  0.
<mgrwt>
<rscale>  0 0.16666174E+03</rscale>
<asrwt>0</asrwt>
<pdfrwt beam="1">  1        4 0.52798942E-01 0.16666174E+03</pdfrwt>
<pdfrwt beam="2">  1       -4 0.14837011E-01 0.16666174E+03</pdfrwt>
<totfact> 0.23017668E+02</totfact>
</mgrwt>
</event>
<event>
 4    1  0.8742165E-009  0.1737062E+03  0.7818608E-02  0.1174037E+00
          4   -1    0    0  501    0  0.00000000000E+00  0.00000000000E+00  0.67339990662E+03  0.67340110420E+03  0.12700000000E+01 0. -1.
         -4   -1    0    0    0  501 -0.00000000000E+00 -0.00000000000E+00 -0.49163496979E+02  0.49179897674E+02  0.12700000000E+01 0. -1.
    8880022    1    1    2    0    0  0.50770424932E+02  0.64842461175E+02  0.41975800145E+03  0.45428032493E+03  0.15294330000E+03 0.  0.
    8880022    1    1    2    0    0 -0.50770424932E+02 -0.64842461175E+02  0.20447840820E+03  0.26830067695E+03  0.15294330000E+03 0.  0.
<mgrwt>
<rscale>  0 0.17370617E+03</rscale>
<asrwt>0</asrwt>
<pdfrwt beam="1">  1        4 0.10360134E+00 0.17370617E+03</pdfrwt>
<pdfrwt beam="2">  1       -4 0.75649687E-02 0.17370617E+03</pdfrwt>
<totfact> 0.16617005E+02</totfact>
</mgrwt>
</event>
<event>
 4    1  0.8742165E-009  0.2424647E+03  0.7818608E-02  0.1118162E+00
          4   -1    0    0  501    0  0.00000000000E+00  0.00000000000E+00  0.19668859658E+03  0.19669269668E+03  0.12700000000E+01 0. -1.
         -4   -1    0    0    0  501 -0.00000000000E+00 -0.00000000000E+00 -0.79303130840E+03  0.79303232532E+03  0.12700000000E+01 0. -1.
    8880022    1    1    2    0    0  0.18784435197E+03 -0.10582602354E+02 -0.68880092191E+03  0.73023000149E+03  0.15294330000E+03 0.  0.
    8880022    1    1    2    0    0 -0.18784435197E+03  0.10582602354E+02  0.92458210092E+02  0.25949502051E+03  0.15294330000E+03 0.  0.
<mgrwt>
<rscale>  0 0.24246473E+03</rscale>
<asrwt>0</asrwt>
<pdfrwt beam="1">  1        4 0.30260178E-01 0.24246473E+03</pdfrwt>
<pdfrwt beam="2">  1       -4 0.12200521E+00 0.24246473E+03</pdfrwt>
<totfact> 0.10033233E+01</totfact>
</mgrwt>
</event>
<event>
 4    1  0.8742165E-009  0.3934879E+03  0.7818608E-02  0.1046058E+00
          4   -1    0    0  501    0  0.00000000000E+00  0.00000000000E+00  0.74805979510E+03  0.74806087315E+03  0.12700000000E+01 0. -1.
         -4   -1    0    0    0  501 -0.00000000000E+00 -0.00000000000E+00 -0.21461505135E+03  0.21461880897E+03  0.12700000000E+01 0. -1.
    8880022    1    1    2    0    0  0.25482210539E+02 -0.36165135183E+03  0.35753377659E+03  0.53166069796E+03  0.15294330000E+03 0.  0.
    8880022    1    1    2    0    0 -0.25482210539E+02  0.36165135183E+03  0.17591096716E+03  0.43101898417E+03  0.15294330000E+03 0.  0.
<mgrwt>
<rscale>  0 0.39348786E+03</rscale>
<asrwt>0</asrwt>
<pdfrwt beam="1">  1        4 0.11508649E+00 0.39348786E+03</pdfrwt>
<pdfrwt beam="2">  1       -4 0.33018073E-01 0.39348786E+03</pdfrwt>
<totfact> 0.10096135E+01</totfact>
</mgrwt>
</event>
<event>
 4    1  0.8742165E-009  0.2675942E+03  0.7818608E-02  0.1102664E+00
          4   -1    0    0  501    0  0.00000000000E+00  0.00000000000E+00  0.30868070260E+03  0.30868331516E+03  0.12700000000E+01 0.  1.
         -4   -1    0    0    0  501 -0.00000000000E+00 -0.00000000000E+00 -0.23848314088E+03  0.23848652244E+03  0.12700000000E+01 0.  1.
    8880022    1    1    2    0    0 -0.71512112360E+02 -0.20760780026E+03 -0.10109490923E+02  0.26778505516E+03  0.15294330000E+03 0.  0.
    8880022    1    1    2    0    0  0.71512112360E+02  0.20760780026E+03  0.80307052638E+02  0.27938478244E+03  0.15294330000E+03 0.  0.
<mgrwt>
<rscale>  0 0.26759416E+03</rscale>
<asrwt>0</asrwt>
<pdfrwt beam="1">  1        4 0.47489799E-01 0.26759416E+03</pdfrwt>
<pdfrwt beam="2">  1       -4 0.36690175E-01 0.26759416E+03</pdfrwt>
<totfact> 0.57072116E+01</totfact>
</mgrwt>
</event>
<event>
 4    1  0.8742165E-009  0.2265410E+03  0.7818608E-02  0.1129098E+00
          4   -1    0    0  501    0  0.00000000000E+00  0.00000000000E+00  0.24605961123E+03  0.24606288867E+03  0.12700000000E+01 0. -1.
         -4   -1    0    0    0  501 -0.00000000000E+00 -0.00000000000E+00 -0.22130964180E+03  0.22131328575E+03  0.12700000000E+01 0. -1.
    8880022    1    1    2    0    0 -0.16538727946E+03  0.24004712649E+02 -0.43705044508E+02  0.23071836157E+03  0.15294330000E+03 0.  0.
    8880022    1    1    2    0    0  0.16538727946E+03 -0.24004712649E+02  0.68455013944E+02  0.23665781285E+03  0.15294330000E+03 0.  0.
<mgrwt>
<rscale>  0 0.22654101E+03</rscale>
<asrwt>0</asrwt>
<pdfrwt beam="1">  1        4 0.37855857E-01 0.22654101E+03</pdfrwt>
<pdfrwt beam="2">  1       -4 0.34048170E-01 0.22654101E+03</pdfrwt>
<totfact> 0.10214093E+02</totfact>
</mgrwt>
</event>
<event>
 4    1  0.8742165E-009  0.1611119E+03  0.7818608E-02  0.1187447E+00
          4   -1    0    0  501    0  0.00000000000E+00  0.00000000000E+00  0.98533109434E+01  0.99348194018E+01  0.12700000000E+01 0. -1.
         -4   -1    0    0    0  501 -0.00000000000E+00 -0.00000000000E+00 -0.26255513913E+04  0.26255516985E+04  0.12700000000E+01 0. -1.
    8880022    1    1    2    0    0 -0.33018477099E+02  0.38407941433E+02 -0.12702569196E+04  0.12804333972E+04  0.15294330000E+03 0. -1.
    8880022    1    1    2    0    0  0.33018477099E+02 -0.38407941433E+02 -0.13454411608E+04  0.13550531207E+04  0.15294330000E+03 0. -1.
<mgrwt>
<rscale>  0 0.16111190E+03</rscale>
<asrwt>0</asrwt>
<pdfrwt beam="1">  1        4 0.15221896E-02 0.16111190E+03</pdfrwt>
<pdfrwt beam="2">  1       -4 0.40393672E+00 0.16111190E+03</pdfrwt>
<totfact> 0.22850681E+01</totfact>
</mgrwt>
</event>
<event>
 4    1  0.8742165E-009  0.2376696E+03  0.7818608E-02  0.1121355E+00
         -4   -1    0    0    0  501 -0.00000000000E+00  0.00000000000E+00  0.11077987442E+03  0.11078715393E+03  0.12700000000E+01 0.  1.
          4   -1    0    0  501    0  0.00000000000E+00 -0.00000000000E+00 -0.80005399131E+03  0.80005499930E+03  0.12700000000E+01 0.  1.
    8880022    1    1    2    0    0  0.18027622000E+03  0.24406731119E+02 -0.70364311274E+02  0.24786688633E+03  0.15294330000E+03 0.  0.
    8880022    1    1    2    0    0 -0.18027622000E+03 -0.24406731119E+02 -0.61890980562E+03  0.66297526690E+03  0.15294330000E+03 0.  0.
<mgrwt>
<rscale>  0 0.23766964E+03</rscale>
<asrwt>0</asrwt>
<pdfrwt beam="1">  1        4 0.12308586E+00 0.23766964E+03</pdfrwt>
<pdfrwt beam="2">  1       -4 0.17043696E-01 0.23766964E+03</pdfrwt>
<totfact> 0.28309954E+01</totfact>
</mgrwt>
</event>
<event>
 4    1  0.8742165E-009  0.3415194E+03  0.7818608E-02  0.1066151E+00
         -4   -1    0    0    0  501 -0.00000000000E+00  0.00000000000E+00  0.30870207465E+03  0.30870468703E+03  0.12700000000E+01 0. -1.
          4   -1    0    0  501    0  0.00000000000E+00 -0.00000000000E+00 -0.41540560179E+03  0.41540754314E+03  0.12700000000E+01 0. -1.
    8880022    1    1    2    0    0 -0.16072958092E+03 -0.25963406711E+03 -0.16225657035E+03  0.37810407909E+03  0.15294330000E+03 0.  0.
    8880022    1    1    2    0    0  0.16072958092E+03  0.25963406711E+03  0.55553043211E+02  0.34600815108E+03  0.15294330000E+03 0.  0.
<mgrwt>
<rscale>  0 0.34151940E+03</rscale>
<asrwt>0</asrwt>
<pdfrwt beam="1">  1        4 0.63908905E-01 0.34151940E+03</pdfrwt>
<pdfrwt beam="2">  1       -4 0.47492977E-01 0.34151940E+03</pdfrwt>
<totfact> 0.18597783E+01</totfact>
</mgrwt>
</event>
<event>
 4    1  0.8742165E-009  0.1956049E+03  0.7818608E-02  0.1153501E+00
          4   -1    0    0  501    0  0.00000000000E+00  0.00000000000E+00  0.23558537495E+03  0.23558879810E+03  0.12700000000E+01 0.  1.
         -4   -1    0    0    0  501 -0.00000000000E+00 -0.00000000000E+00 -0.16249420949E+03  0.16249917236E+03  0.12700000000E+01 0.  1.
    8880022    1    1    2    0    0 -0.11854507185E+03 -0.28577693932E+02  0.31811418010E+02  0.19817476626E+03  0.15294330000E+03 0.  0.
    8880022    1    1    2    0    0  0.11854507185E+03  0.28577693932E+02  0.41279747447E+02  0.19991320420E+03  0.15294330000E+03 0.  0.
<mgrwt>
<rscale>  0 0.19560489E+03</rscale>
<asrwt>0</asrwt>
<pdfrwt beam="1">  1        4 0.36244549E-01 0.19560489E+03</pdfrwt>
<pdfrwt beam="2">  1       -4 0.24999754E-01 0.19560489E+03</pdfrwt>
<totfact> 0.19604657E+02</totfact>
</mgrwt>
</event>
<event>
 4    1  0.8742165E-009  0.2455851E+03  0.7818608E-02  0.1116127E+00
          4   -1    0    0  501    0  0.00000000000E+00  0.00000000000E+00  0.15377349907E+03  0.15377874338E+03  0.12700000000E+01 0. -1.
         -4   -1    0    0    0  501 -0.00000000000E+00 -0.00000000000E+00 -0.51768837030E+03  0.51768992809E+03  0.12700000000E+01 0. -1.
    8880022    1    1    2    0    0  0.10508966824E+02  0.19185920224E+03 -0.34725230493E+03  0.42531894874E+03  0.15294330000E+03 0.  0.
    8880022    1    1    2    0    0 -0.10508966824E+02 -0.19185920224E+03 -0.16662566309E+02  0.24614972273E+03  0.15294330000E+03 0.  0.
<mgrwt>
<rscale>  0 0.24558511E+03</rscale>
<asrwt>0</asrwt>
<pdfrwt beam="1">  1        4 0.23657985E-01 0.24558511E+03</pdfrwt>
<pdfrwt beam="2">  1       -4 0.79644887E-01 0.24558511E+03</pdfrwt>
<totfact> 0.43275024E+01</totfact>
</mgrwt>
</event>
<event>
 4    1  0.8742165E-009  0.4801711E+03  0.7818608E-02  0.1019088E+00
         -4   -1    0    0    0  501 -0.00000000000E+00  0.00000000000E+00  0.30664892274E+03  0.30665155260E+03  0.12700000000E+01 0.  1.
          4   -1    0    0  501    0  0.00000000000E+00 -0.00000000000E+00 -0.18969011180E+04  0.18969015431E+04  0.12700000000E+01 0. -1.
    8880022    1    1    2    0    0  0.23000648020E+03  0.39277172437E+03 -0.16511346222E+04  0.17195376710E+04  0.15294330000E+03 0.  0.
    8880022    1    1    2    0    0 -0.23000648020E+03 -0.39277172437E+03  0.60882426987E+02  0.48401542468E+03  0.15294330000E+03 0.  0.
<mgrwt>
<rscale>  0 0.48017108E+03</rscale>
<asrwt>0</asrwt>
<pdfrwt beam="1">  1        4 0.29183117E+00 0.48017108E+03</pdfrwt>
<pdfrwt beam="2">  1       -4 0.47176993E-01 0.48017108E+03</pdfrwt>
<totfact> 0.31080333E-01</totfact>
</mgrwt>
</event>
<event>
 4    1  0.8742165E-009  0.1688028E+03  0.7818608E-02  0.1179102E+00
          4   -1    0    0  501    0  0.00000000000E+00  0.00000000000E+00  0.11877041123E+03  0.11877720103E+03  0.12700000000E+01 0. -1.
         -4   -1    0    0    0  501 -0.00000000000E+00 -0.00000000000E+00 -0.31960609792E+03  0.31960862118E+03  0.12700000000E+01 0. -1.
    8880022    1    1    2    0    0  0.69945390610E+02  0.14503897196E+02 -0.20988123067E+03  0.26934087084E+03  0.15294330000E+03 0.  0.
    8880022    1    1    2    0    0 -0.69945390610E+02 -0.14503897196E+02  0.90455439741E+01  0.16904495137E+03  0.15294330000E+03 0.  0.
<mgrwt>
<rscale>  0 0.16880277E+03</rscale>
<asrwt>0</asrwt>
<pdfrwt beam="1">  1        4 0.18273087E-01 0.16880277E+03</pdfrwt>
<pdfrwt beam="2">  1       -4 0.49170885E-01 0.16880277E+03</pdfrwt>
<totfact> 0.18461616E+02</totfact>
</mgrwt>
</event>
<event>
 4    1  0.8742165E-009  0.2134441E+03  0.7818608E-02  0.1138867E+00
          4   -1    0    0  501    0  0.00000000000E+00  0.00000000000E+00  0.15669107686E+03  0.15669622353E+03  0.12700000000E+01 0. -1.
         -4   -1    0    0    0  501 -0.00000000000E+00 -0.00000000000E+00 -0.40147982105E+03  0.40148182974E+03  0.12700000000E+01 0. -1.
    8880022    1    1    2    0    0  0.11421786632E+03  0.95503913076E+02 -0.26896798099E+03  0.34336881951E+03  0.15294330000E+03 0.  0.
    8880022    1    1    2    0    0 -0.11421786632E+03 -0.95503913076E+02  0.24179236806E+02  0.21480923376E+03  0.15294330000E+03 0.  0.
<mgrwt>
<rscale>  0 0.21344407E+03</rscale>
<asrwt>0</asrwt>
<pdfrwt beam="1">  1        4 0.24106870E-01 0.21344407E+03</pdfrwt>
<pdfrwt beam="2">  1       -4 0.61766676E-01 0.21344407E+03</pdfrwt>
<totfact> 0.71614181E+01</totfact>
</mgrwt>
</event>
<event>
 4    1  0.8742165E-009  0.1738358E+03  0.7818608E-02  0.1173906E+00
          4   -1    0    0  501    0  0.00000000000E+00  0.00000000000E+00  0.89426812522E+03  0.89426902702E+03  0.12700000000E+01 0. -1.
         -4   -1    0    0    0  501 -0.00000000000E+00 -0.00000000000E+00 -0.55053216912E+02  0.55067863518E+02  0.12700000000E+01 0. -1.
    8880022    1    1    2    0    0 -0.49687212874E+02 -0.66018241188E+02  0.71462469619E+03  0.73546402815E+03  0.15294330000E+03 0.  0.
    8880022    1    1    2    0    0  0.49687212874E+02  0.66018241188E+02  0.12459021212E+03  0.21387286238E+03  0.15294330000E+03 0.  0.
<mgrwt>
<rscale>  0 0.17383579E+03</rscale>
<asrwt>0</asrwt>
<pdfrwt beam="1">  1        4 0.13758091E+00 0.17383579E+03</pdfrwt>
<pdfrwt beam="2">  1       -4 0.84709214E-02 0.17383579E+03</pdfrwt>
<totfact> 0.69345853E+01</totfact>
</mgrwt>
</event>
<event>
 4    1  0.8742165E-009  0.1699658E+03  0.7818608E-02  0.1177883E+00
         -4   -1    0    0    0  501 -0.00000000000E+00  0.00000000000E+00  0.24914947514E+03  0.24915271193E+03  0.12700000000E+01 0.  1.
          4   -1    0    0  501    0  0.00000000000E+00 -0.00000000000E+00 -0.35981078447E+03  0.35981302578E+03  0.12700000000E+01 0.  1.
    8880022    1    1    2    0    0 -0.20908714110E+02  0.71130543385E+02  0.19533825179E+03  0.25893129234E+03  0.15294330000E+03 0.  0.
    8880022    1    1    2    0    0  0.20908714110E+02 -0.71130543385E+02 -0.30599956112E+03  0.35003444537E+03  0.15294330000E+03 0.  0.
<mgrwt>
<rscale>  0 0.16996582E+03</rscale>
<asrwt>0</asrwt>
<pdfrwt beam="1">  1        4 0.55355927E-01 0.16996582E+03</pdfrwt>
<pdfrwt beam="2">  1       -4 0.38331110E-01 0.16996582E+03</pdfrwt>
<totfact> 0.36199220E+01</totfact>
</mgrwt>
</event>
<event>
 4    1  0.8742165E-009  0.1566260E+03  0.7818608E-02  0.1192559E+00
          4   -1    0    0  501    0  0.00000000000E+00  0.00000000000E+00  0.70486019580E+02  0.70497459927E+02  0.12700000000E+01 0. -1.
         -4   -1    0    0    0  501 -0.00000000000E+00 -0.00000000000E+00 -0.14582183245E+04  0.14582188775E+04  0.12700000000E+01 0.  1.
    8880022    1    1    2    0    0 -0.21501611743E+02  0.26033494806E+02 -0.26923117075E+02  0.15892315567E+03  0.15294330000E+03 0. -1.
    8880022    1    1    2    0    0  0.21501611743E+02 -0.26033494806E+02 -0.13608091878E+04  0.13697931818E+04  0.15294330000E+03 0.  0.
<mgrwt>
<rscale>  0 0.15662604E+03</rscale>
<asrwt>0</asrwt>
<pdfrwt beam="1">  1        4 0.10844927E-01 0.15662604E+03</pdfrwt>
<pdfrwt beam="2">  1       -4 0.22434218E+00 0.15662604E+03</pdfrwt>
<totfact> 0.11849187E+01</totfact>
</mgrwt>
</event>
<event>
 4    1  0.8742165E-009  0.3310002E+03  0.7818608E-02  0.1070695E+00
          4   -1    0    0  501    0  0.00000000000E+00  0.00000000000E+00  0.12072723761E+03  0.12073391736E+03  0.12700000000E+01 0.  1.
         -4   -1    0    0    0  501 -0.00000000000E+00 -0.00000000000E+00 -0.10017801945E+04  0.10017809995E+04  0.12700000000E+01 0.  1.
    8880022    1    1    2    0    0 -0.10400719453E+03 -0.27450319625E+03 -0.61272765075E+03  0.69641677771E+03  0.15294330000E+03 0. -1.
    8880022    1    1    2    0    0  0.10400719453E+03  0.27450319625E+03 -0.26832530613E+03  0.42609813915E+03  0.15294330000E+03 0. -1.
<mgrwt>
<rscale>  0 0.33100023E+03</rscale>
<asrwt>0</asrwt>
<pdfrwt beam="1">  1        4 0.18573998E-01 0.33100023E+03</pdfrwt>
<pdfrwt beam="2">  1       -4 0.15412060E+00 0.33100023E+03</pdfrwt>
<totfact> 0.14070520E+01</totfact>
</mgrwt>
</event>
<event>
 4    1  0.8742165E-009  0.2095024E+03  0.7818608E-02  0.1141961E+00
         -4   -1    0    0    0  501 -0.00000000000E+00  0.00000000000E+00  0.35273456103E+03  0.35273684730E+03  0.12700000000E+01 0. -1.
          4   -1    0    0  501    0  0.00000000000E+00 -0.00000000000E+00 -0.12480506831E+03  0.12481152982E+03  0.12700000000E+01 0. -1.
    8880022    1    1    2    0    0  0.60075699117E+02  0.12996354847E+03  0.12713214253E+03  0.24505886688E+03  0.15294330000E+03 0.  0.
    8880022    1    1    2    0    0 -0.60075699117E+02 -0.12996354847E+03  0.10079735019E+03  0.23248951025E+03  0.15294330000E+03 0.  0.
<mgrwt>
<rscale>  0 0.20950243E+03</rscale>
<asrwt>0</asrwt>
<pdfrwt beam="1">  1        4 0.19201453E-01 0.20950243E+03</pdfrwt>
<pdfrwt beam="2">  1       -4 0.54267527E-01 0.20950243E+03</pdfrwt>
<totfact> 0.14229537E+02</totfact>
</mgrwt>
</event>
<event>
 4    1  0.8742165E-009  0.1644266E+03  0.7818608E-02  0.1183788E+00
          4   -1    0    0  501    0  0.00000000000E+00  0.00000000000E+00  0.69064580366E+02  0.69076256132E+02  0.12700000000E+01 0.  1.
         -4   -1    0    0    0  501 -0.00000000000E+00 -0.00000000000E+00 -0.42851581199E+03  0.42851769395E+03  0.12700000000E+01 0.  1.
    8880022    1    1    2    0    0  0.57373010274E+02  0.18782635426E+02 -0.10652004280E+03  0.19591483414E+03  0.15294330000E+03 0.  0.
    8880022    1    1    2    0    0 -0.57373010274E+02 -0.18782635426E+02 -0.25293118883E+03  0.30167911595E+03  0.15294330000E+03 0.  0.
<mgrwt>
<rscale>  0 0.16442659E+03</rscale>
<asrwt>0</asrwt>
<pdfrwt beam="1">  1        4 0.10626363E-01 0.16442659E+03</pdfrwt>
<pdfrwt beam="2">  1       -4 0.65926551E-01 0.16442659E+03</pdfrwt>
<totfact> 0.25606819E+02</totfact>
</mgrwt>
</event>
<event>
 4    1  0.8742165E-009  0.1884125E+03  0.7818608E-02  0.1159901E+00
          4   -1    0    0  501    0  0.00000000000E+00  0.00000000000E+00  0.42683894737E+02  0.42702784101E+02  0.12700000000E+01 0. -1.
         -4   -1    0    0    0  501 -0.00000000000E+00 -0.00000000000E+00 -0.12120714344E+04  0.12120720998E+04  0.12700000000E+01 0. -1.
    8880022    1    1    2    0    0 -0.11003305096E+03 -0.58685919582E+00 -0.93625466766E+03  0.95502464494E+03  0.15294330000E+03 0.  0.
    8880022    1    1    2    0    0  0.11003305096E+03  0.58685919582E+00 -0.23313287203E+03  0.29975023894E+03  0.15294330000E+03 0.  0.
<mgrwt>
<rscale>  0 0.18841250E+03</rscale>
<asrwt>0</asrwt>
<pdfrwt beam="1">  1        4 0.65682582E-02 0.18841250E+03</pdfrwt>
<pdfrwt beam="2">  1       -4 0.18647401E+00 0.18841250E+03</pdfrwt>
<totfact> 0.47907505E+01</totfact>
</mgrwt>
</event>
<event>
 4    1  0.8742165E-009  0.4602469E+03  0.7818608E-02  0.1024710E+00
         -4   -1    0    0    0  501 -0.00000000000E+00  0.00000000000E+00  0.79681546745E+03  0.79681647954E+03  0.12700000000E+01 0. -1.
          4   -1    0    0  501    0  0.00000000000E+00 -0.00000000000E+00 -0.30505032499E+03  0.30505296864E+03  0.12700000000E+01 0. -1.
    8880022    1    1    2    0    0 -0.17189699591E+03  0.39860633194E+03  0.44340399641E+03  0.63908868094E+03  0.15294330000E+03 0.  0.
    8880022    1    1    2    0    0  0.17189699591E+03 -0.39860633194E+03  0.48361146056E+02  0.46278076724E+03  0.15294330000E+03 0.  0.
<mgrwt>
<rscale>  0 0.46024693E+03</rscale>
<asrwt>0</asrwt>
<pdfrwt beam="1">  1        4 0.46931101E-01 0.46024693E+03</pdfrwt>
<pdfrwt beam="2">  1       -4 0.12258728E+00 0.46024693E+03</pdfrwt>
<totfact> 0.42982857E+00</totfact>
</mgrwt>
</event>
<event>
 4    1  0.8742165E-009  0.2896951E+03  0.7818608E-02  0.1090508E+00
          4   -1    0    0  501    0  0.00000000000E+00  0.00000000000E+00  0.16189809316E+03  0.16190307430E+03  0.12700000000E+01 0.  1.
         -4   -1    0    0    0  501 -0.00000000000E+00 -0.00000000000E+00 -0.55210898657E+03  0.55211044724E+03  0.12700000000E+01 0.  1.
    8880022    1    1    2    0    0 -0.15599702311E+03 -0.19025387960E+03 -0.10683608802E+03  0.30876724671E+03  0.15294330000E+03 0.  0.
    8880022    1    1    2    0    0  0.15599702311E+03  0.19025387960E+03 -0.28337480539E+03  0.40524627483E+03  0.15294330000E+03 0.  0.
<mgrwt>
<rscale>  0 0.28969512E+03</rscale>
<asrwt>0</asrwt>
<pdfrwt beam="1">  1        4 0.24907895E-01 0.28969512E+03</pdfrwt>
<pdfrwt beam="2">  1       -4 0.84940339E-01 0.28969512E+03</pdfrwt>
<totfact> 0.34574817E+01</totfact>
</mgrwt>
</event>
<event>
 4    1  0.8742165E-009  0.1645729E+03  0.7818608E-02  0.1183629E+00
         -4   -1    0    0    0  501 -0.00000000000E+00  0.00000000000E+00  0.62465554800E+03  0.62465683903E+03  0.12700000000E+01 0.  1.
          4   -1    0    0  501    0  0.00000000000E+00 -0.00000000000E+00 -0.51662388319E+02  0.51677995964E+02  0.12700000000E+01 0.  1.
    8880022    1    1    2    0    0 -0.56299418237E+02  0.22868155827E+02  0.42213465960E+03  0.45308045742E+03  0.15294330000E+03 0. -1.
    8880022    1    1    2    0    0  0.56299418237E+02 -0.22868155827E+02  0.15085850008E+03  0.22325437757E+03  0.15294330000E+03 0. -1.
<mgrwt>
<rscale>  0 0.16457287E+03</rscale>
<asrwt>0</asrwt>
<pdfrwt beam="1">  1        4 0.79493593E-02 0.16457287E+03</pdfrwt>
<pdfrwt beam="2">  1       -4 0.96102158E-01 0.16457287E+03</pdfrwt>
<totfact> 0.18074492E+02</totfact>
</mgrwt>
</event>
<event>
 4    1  0.8742165E-009  0.2379513E+03  0.7818608E-02  0.1121165E+00
         -4   -1    0    0    0  501 -0.00000000000E+00  0.00000000000E+00  0.42914898351E+03  0.42915086269E+03  0.12700000000E+01 0.  1.
          4   -1    0    0  501    0  0.00000000000E+00 -0.00000000000E+00 -0.25921148453E+03  0.25921459568E+03  0.12700000000E+01 0.  1.
    8880022    1    1    2    0    0 -0.15319265612E+03  0.98798773162E+02  0.32614540274E+03  0.40372226123E+03  0.15294330000E+03 0.  0.
    8880022    1    1    2    0    0  0.15319265612E+03 -0.98798773162E+02 -0.15620790376E+03  0.28464319714E+03  0.15294330000E+03 0.  0.
<mgrwt>
<rscale>  0 0.23795134E+03</rscale>
<asrwt>0</asrwt>
<pdfrwt beam="1">  1        4 0.39879074E-01 0.23795134E+03</pdfrwt>
<pdfrwt beam="2">  1       -4 0.66023304E-01 0.23795134E+03</pdfrwt>
<totfact> 0.23918336E+01</totfact>
</mgrwt>
</event>
<event>
 4    1  0.8742165E-009  0.2157158E+03  0.7818608E-02  0.1137118E+00
         -4   -1    0    0    0  501 -0.00000000000E+00  0.00000000000E+00  0.57011328321E+03  0.57011469775E+03  0.12700000000E+01 0.  1.
          4   -1    0    0  501    0  0.00000000000E+00 -0.00000000000E+00 -0.11346208369E+03  0.11346919112E+03  0.12700000000E+01 0.  1.
    8880022    1    1    2    0    0  0.31318630427E+02 -0.14886509542E+03  0.40939877274E+03  0.46275336993E+03  0.15294330000E+03 0.  0.
    8880022    1    1    2    0    0 -0.31318630427E+02  0.14886509542E+03  0.47252426785E+02  0.22083051895E+03  0.15294330000E+03 0.  0.
<mgrwt>
<rscale>  0 0.21571585E+03</rscale>
<asrwt>0</asrwt>
<pdfrwt beam="1">  1        4 0.17456361E-01 0.21571585E+03</pdfrwt>
<pdfrwt beam="2">  1       -4 0.87710391E-01 0.21571585E+03</pdfrwt>
<totfact> 0.59690837E+01</totfact>
</mgrwt>
</event>
<event>
 4    1  0.8742165E-009  0.1604314E+03  0.7818608E-02  0.1188211E+00
         -4   -1    0    0    0  501 -0.00000000000E+00  0.00000000000E+00  0.10508964720E+04  0.10508972394E+04  0.12700000000E+01 0. -1.
          4   -1    0    0  501    0  0.00000000000E+00 -0.00000000000E+00 -0.47323729525E+02  0.47340767592E+02  0.12700000000E+01 0. -1.
    8880022    1    1    2    0    0 -0.89209482737E+00 -0.48433390629E+02  0.12032987005E+03  0.20054306221E+03  0.15294330000E+03 0.  0.
    8880022    1    1    2    0    0  0.89209482737E+00  0.48433390629E+02  0.88324287248E+03  0.89769494482E+03  0.15294330000E+03 0.  0.
<mgrwt>
<rscale>  0 0.16043143E+03</rscale>
<asrwt>0</asrwt>
<pdfrwt beam="1">  1        4 0.72819438E-02 0.16043143E+03</pdfrwt>
<pdfrwt beam="2">  1       -4 0.16167774E+00 0.16043143E+03</pdfrwt>
<totfact> 0.58357639E+01</totfact>
</mgrwt>
</event>
<event>
 4    1  0.8742165E-009  0.5038514E+03  0.7818608E-02  0.1012779E+00
         -4   -1    0    0    0  501 -0.00000000000E+00  0.00000000000E+00  0.10631353756E+04  0.10631361342E+04  0.12700000000E+01 0.  1.
          4   -1    0    0  501    0  0.00000000000E+00 -0.00000000000E+00 -0.26137477142E+03  0.26137785682E+03  0.12700000000E+01 0.  1.
    8880022    1    1    2    0    0 -0.47992938436E+03  0.11930394392E+02  0.20619971186E+03  0.54441208883E+03  0.15294330000E+03 0.  0.
    8880022    1    1    2    0    0  0.47992938436E+03 -0.11930394392E+02  0.59556089235E+03  0.78010190218E+03  0.15294330000E+03 0.  0.
<mgrwt>
<rscale>  0 0.50385137E+03</rscale>
<asrwt>0</asrwt>
<pdfrwt beam="1">  1        4 0.40211799E-01 0.50385137E+03</pdfrwt>
<pdfrwt beam="2">  1       -4 0.16355958E+00 0.50385137E+03</pdfrwt>
<totfact> 0.27931338E+00</totfact>
</mgrwt>
</event>
<event>
 4    1  0.8742165E-009  0.1864148E+03  0.7818608E-02  0.1161735E+00
          4   -1    0    0  501    0  0.00000000000E+00  0.00000000000E+00  0.41571544912E+03  0.41571738902E+03  0.12700000000E+01 0.  1.
         -4   -1    0    0    0  501 -0.00000000000E+00 -0.00000000000E+00 -0.13498826042E+03  0.13499423451E+03  0.12700000000E+01 0.  1.
    8880022    1    1    2    0    0  0.93413539593E+02 -0.51310126553E+02 -0.29549115704E+02  0.18874220969E+03  0.15294330000E+03 0.  0.
    8880022    1    1    2    0    0 -0.93413539593E+02  0.51310126553E+02  0.31027630440E+03  0.36196941384E+03  0.15294330000E+03 0.  0.
<mgrwt>
<rscale>  0 0.18641478E+03</rscale>
<asrwt>0</asrwt>
<pdfrwt beam="1">  1        4 0.63956831E-01 0.18641478E+03</pdfrwt>
<pdfrwt beam="2">  1       -4 0.20768034E-01 0.18641478E+03</pdfrwt>
<totfact> 0.85895208E+01</totfact>
</mgrwt>
</event>
<event>
 4    1  0.8742165E-009  0.1838014E+03  0.7818608E-02  0.1164174E+00
          4   -1    0    0  501    0  0.00000000000E+00  0.00000000000E+00  0.20403418122E+04  0.20403422074E+04  0.12700000000E+01 0. -1.
         -4   -1    0    0    0  501 -0.00000000000E+00 -0.00000000000E+00 -0.16684460651E+02  0.16732726234E+02  0.12700000000E+01 0. -1.
    8880022    1    1    2    0    0  0.30962843144E+02  0.97121550669E+02  0.91389167997E+03  0.93219147657E+03  0.15294330000E+03 0.  0.
    8880022    1    1    2    0    0 -0.30962843144E+02 -0.97121550669E+02  0.11097656716E+04  0.11248834571E+04  0.15294330000E+03 0.  0.
<mgrwt>
<rscale>  0 0.18380138E+03</rscale>
<asrwt>0</asrwt>
<pdfrwt beam="1">  1        4 0.31390225E+00 0.18380138E+03</pdfrwt>
<pdfrwt beam="2">  1       -4 0.25705851E-02 0.18380138E+03</pdfrwt>
<totfact> 0.37306253E+01</totfact>
</mgrwt>
</event>
<event>
 4    1  0.8742165E-009  0.2163764E+03  0.7818608E-02  0.1136614E+00
         -4   -1    0    0    0  501 -0.00000000000E+00  0.00000000000E+00  0.27815749512E+03  0.27816039436E+03  0.12700000000E+01 0. -1.
          4   -1    0    0  501    0  0.00000000000E+00 -0.00000000000E+00 -0.17088748077E+03  0.17089219990E+03  0.12700000000E+01 0. -1.
    8880022    1    1    2    0    0  0.13037113899E+03 -0.80190236776E+02  0.26067837121E+02  0.21794103125E+03  0.15294330000E+03 0.  0.
    8880022    1    1    2    0    0 -0.13037113899E+03  0.80190236776E+02  0.81202177225E+02  0.23111156301E+03  0.15294330000E+03 0.  0.
<mgrwt>
<rscale>  0 0.21637643E+03</rscale>
<asrwt>0</asrwt>
<pdfrwt beam="1">  1        4 0.26290968E-01 0.21637643E+03</pdfrwt>
<pdfrwt beam="2">  1       -4 0.42794047E-01 0.21637643E+03</pdfrwt>
<totfact> 0.13027737E+02</totfact>
</mgrwt>
</event>
<event>
 4    1  0.8742165E-009  0.2781546E+03  0.7818608E-02  0.1096701E+00
          4   -1    0    0  501    0  0.00000000000E+00  0.00000000000E+00  0.65031616194E+03  0.65031740203E+03  0.12700000000E+01 0. -1.
         -4   -1    0    0    0  501 -0.00000000000E+00 -0.00000000000E+00 -0.11951081322E+03  0.11951756095E+03  0.12700000000E+01 0. -1.
    8880022    1    1    2    0    0 -0.25967715724E+02  0.23087656524E+03  0.29134052472E+03  0.40280176886E+03  0.15294330000E+03 0.  0.
    8880022    1    1    2    0    0  0.25967715724E+02 -0.23087656524E+03  0.23946482401E+03  0.36703319412E+03  0.15294330000E+03 0.  0.
<mgrwt>
<rscale>  0 0.27815457E+03</rscale>
<asrwt>0</asrwt>
<pdfrwt beam="1">  1        4 0.10004925E+00 0.27815457E+03</pdfrwt>
<pdfrwt beam="2">  1       -4 0.18386894E-01 0.27815457E+03</pdfrwt>
<totfact> 0.41250723E+01</totfact>
</mgrwt>
</event>
<event>
 4    1  0.8742165E-009  0.1550509E+03  0.7818608E-02  0.1194400E+00
          4   -1    0    0  501    0  0.00000000000E+00  0.00000000000E+00  0.91227288504E+03  0.91227376904E+03  0.12700000000E+01 0. -1.
         -4   -1    0    0    0  501 -0.00000000000E+00 -0.00000000000E+00 -0.28809323069E+02  0.28837302157E+02  0.12700000000E+01 0. -1.
    8880022    1    1    2    0    0 -0.19396939142E+02 -0.16519047304E+02  0.30394068226E+03  0.34120479410E+03  0.15294330000E+03 0.  0.
    8880022    1    1    2    0    0  0.19396939142E+02  0.16519047304E+02  0.57952287971E+03  0.59990627709E+03  0.15294330000E+03 0.  0.
<mgrwt>
<rscale>  0 0.15505087E+03</rscale>
<asrwt>0</asrwt>
<pdfrwt beam="1">  1        4 0.14035187E+00 0.15505087E+03</pdfrwt>
<pdfrwt beam="2">  1       -4 0.44344246E-02 0.15505087E+03</pdfrwt>
<totfact> 0.18693054E+02</totfact>
</mgrwt>
</event>
<event>
 4    1  0.8742165E-009  0.2300594E+03  0.7818608E-02  0.1126598E+00
          4   -1    0    0  501    0  0.00000000000E+00  0.00000000000E+00  0.55420441698E+02  0.55434991278E+02  0.12700000000E+01 0.  1.
         -4   -1    0    0    0  501 -0.00000000000E+00 -0.00000000000E+00 -0.12270582323E+04  0.12270588895E+04  0.12700000000E+01 0.  1.
    8880022    1    1    2    0    0  0.15981269744E+03 -0.63210565617E+02 -0.28380889416E+03  0.36534205245E+03  0.15294330000E+03 0.  0.
    8880022    1    1    2    0    0 -0.15981269744E+03  0.63210565617E+02 -0.88782889642E+03  0.91715182832E+03  0.15294330000E+03 0.  0.
<mgrwt>
<rscale>  0 0.23005940E+03</rscale>
<asrwt>0</asrwt>
<pdfrwt beam="1">  1        4 0.85273925E-02 0.23005940E+03</pdfrwt>
<pdfrwt beam="2">  1       -4 0.18877934E+00 0.23005940E+03</pdfrwt>
<totfact> 0.30577562E+01</totfact>
</mgrwt>
</event>
<event>
 4    1  0.8742165E-009  0.2005819E+03  0.7818608E-02  0.1149249E+00
          4   -1    0    0  501    0  0.00000000000E+00  0.00000000000E+00  0.22308296417E+04  0.22308300032E+04  0.12700000000E+01 0.  1.
         -4   -1    0    0    0  501 -0.00000000000E+00 -0.00000000000E+00 -0.18064708716E+02  0.18109295983E+02  0.12700000000E+01 0.  1.
    8880022    1    1    2    0    0  0.12106056496E+03  0.46752535266E+02  0.10459047608E+04  0.10649647326E+04  0.15294330000E+03 0.  0.
    8880022    1    1    2    0    0 -0.12106056496E+03 -0.46752535266E+02  0.11668601722E+04  0.11839745666E+04  0.15294330000E+03 0.  0.
<mgrwt>
<rscale>  0 0.20058194E+03</rscale>
<asrwt>0</asrwt>
<pdfrwt beam="1">  1        4 0.34320800E+00 0.20058194E+03</pdfrwt>
<pdfrwt beam="2">  1       -4 0.27826437E-02 0.20058194E+03</pdfrwt>
<totfact> 0.22077641E+01</totfact>
</mgrwt>
</event>
<event>
 4    1  0.8742165E-009  0.2402640E+03  0.7818608E-02  0.1119617E+00
         -4   -1    0    0    0  501 -0.00000000000E+00  0.00000000000E+00  0.68158737161E+02  0.68170568073E+02  0.12700000000E+01 0. -1.
          4   -1    0    0  501    0  0.00000000000E+00 -0.00000000000E+00 -0.95746536561E+03  0.95746620788E+03  0.12700000000E+01 0. -1.
    8880022    1    1    2    0    0 -0.18203757518E+03  0.34604227140E+02 -0.27035769734E+03  0.36169057057E+03  0.15294330000E+03 0.  0.
    8880022    1    1    2    0    0  0.18203757518E+03 -0.34604227140E+02 -0.61894893111E+03  0.66394620539E+03  0.15294330000E+03 0.  0.
<mgrwt>
<rscale>  0 0.24026399E+03</rscale>
<asrwt>0</asrwt>
<pdfrwt beam="1">  1        4 0.14730333E+00 0.24026399E+03</pdfrwt>
<pdfrwt beam="2">  1       -4 0.10486935E-01 0.24026399E+03</pdfrwt>
<totfact> 0.42174059E+01</totfact>
</mgrwt>
</event>
<event>
 4    1  0.8742165E-009  0.3135023E+03  0.7818608E-02  0.1078679E+00
         -4   -1    0    0    0  501 -0.00000000000E+00  0.00000000000E+00  0.10740991578E+04  0.10740999086E+04  0.12700000000E+01 0. -1.
          4   -1    0    0  501    0  0.00000000000E+00 -0.00000000000E+00 -0.12064735399E+03  0.12065403816E+03  0.12700000000E+01 0. -1.
    8880022    1    1    2    0    0  0.14394913958E+03  0.23274601401E+03  0.77034699332E+03  0.83169598108E+03  0.15294330000E+03 0.  0.
    8880022    1    1    2    0    0 -0.14394913958E+03 -0.23274601401E+03  0.18310481051E+03  0.36305796571E+03  0.15294330000E+03 0.  0.
<mgrwt>
<rscale>  0 0.31350234E+03</rscale>
<asrwt>0</asrwt>
<pdfrwt beam="1">  1        4 0.18561704E-01 0.31350234E+03</pdfrwt>
<pdfrwt beam="2">  1       -4 0.16524659E+00 0.31350234E+03</pdfrwt>
<totfact> 0.11652365E+01</totfact>
</mgrwt>
</event>
<event>
 4    1  0.8742165E-009  0.2778137E+03  0.7818608E-02  0.1096889E+00
         -4   -1    0    0    0  501 -0.00000000000E+00  0.00000000000E+00  0.79293054436E+03  0.79293156141E+03  0.12700000000E+01 0.  1.
          4   -1    0    0  501    0  0.00000000000E+00 -0.00000000000E+00 -0.98778499849E+02  0.98786663738E+02  0.12700000000E+01 0.  1.
    8880022    1    1    2    0    0  0.54701956659E+02  0.22538078871E+03  0.29309609486E+03  0.40383880177E+03  0.15294330000E+03 0.  0.
    8880022    1    1    2    0    0 -0.54701956659E+02 -0.22538078871E+03  0.40105594965E+03  0.48787942337E+03  0.15294330000E+03 0.  0.
<mgrwt>
<rscale>  0 0.27781371E+03</rscale>
<asrwt>0</asrwt>
<pdfrwt beam="1">  1        4 0.15197399E-01 0.27781371E+03</pdfrwt>
<pdfrwt beam="2">  1       -4 0.12199002E+00 0.27781371E+03</pdfrwt>
<totfact> 0.36026918E+01</totfact>
</mgrwt>
</event>
<event>
 4    1  0.8742165E-009  0.2382376E+03  0.7818608E-02  0.1120972E+00
          4   -1    0    0  501    0  0.00000000000E+00  0.00000000000E+00  0.64800391714E+02  0.64812835660E+02  0.12700000000E+01 0.  1.
         -4   -1    0    0    0  501 -0.00000000000E+00 -0.00000000000E+00 -0.10906707495E+04  0.10906714889E+04  0.12700000000E+01 0.  1.
    8880022    1    1    2    0    0 -0.41331515372E+02  0.17792471658E+03 -0.76937990163E+03  0.80542075028E+03  0.15294330000E+03 0.  0.
    8880022    1    1    2    0    0  0.41331515372E+02 -0.17792471658E+03 -0.25649045617E+03  0.35006357430E+03  0.15294330000E+03 0.  0.
<mgrwt>
<rscale>  0 0.23823760E+03</rscale>
<asrwt>0</asrwt>
<pdfrwt beam="1">  1        4 0.99703059E-02 0.23823760E+03</pdfrwt>
<pdfrwt beam="2">  1       -4 0.16779650E+00 0.23823760E+03</pdfrwt>
<totfact> 0.32594464E+01</totfact>
</mgrwt>
</event>
<event>
 4    1  0.8742165E-009  0.1630207E+03  0.7818608E-02  0.1185328E+00
         -4   -1    0    0    0  501 -0.00000000000E+00  0.00000000000E+00  0.16519767091E+04  0.16519771972E+04  0.12700000000E+01 0.  1.
          4   -1    0    0  501    0  0.00000000000E+00 -0.00000000000E+00 -0.17599521247E+02  0.17645284020E+02  0.12700000000E+01 0.  1.
    8880022    1    1    2    0    0 -0.54902359682E+02  0.13031237188E+02  0.57075654521E+03  0.59358130795E+03  0.15294330000E+03 0.  0.
    8880022    1    1    2    0    0  0.54902359682E+02 -0.13031237188E+02  0.10636206426E+04  0.10760411733E+04  0.15294330000E+03 0.  0.
<mgrwt>
<rscale>  0 0.16302066E+03</rscale>
<asrwt>0</asrwt>
<pdfrwt beam="1">  1        4 0.27111761E-02 0.16302066E+03</pdfrwt>
<pdfrwt beam="2">  1       -4 0.25415385E+00 0.16302066E+03</pdfrwt>
<totfact> 0.75639549E+01</totfact>
</mgrwt>
</event>
<event>
 4    1  0.8742165E-009  0.1796270E+03  0.7818608E-02  0.1168165E+00
         -4   -1    0    0    0  501 -0.00000000000E+00  0.00000000000E+00  0.31376075626E+04  0.31376078196E+04  0.12700000000E+01 0. -1.
          4   -1    0    0  501    0  0.00000000000E+00 -0.00000000000E+00 -0.10275253446E+02  0.10353440654E+02  0.12700000000E+01 0. -1.
    8880022    1    1    2    0    0  0.70827548642E+02 -0.62110101222E+02  0.14773526517E+04  0.14882327496E+04  0.15294330000E+03 0.  0.
    8880022    1    1    2    0    0 -0.70827548642E+02  0.62110101222E+02  0.16499796574E+04  0.16597285107E+04  0.15294330000E+03 0.  0.
<mgrwt>
<rscale>  0 0.17962700E+03</rscale>
<asrwt>0</asrwt>
<pdfrwt beam="1">  1        4 0.15868431E-02 0.17962700E+03</pdfrwt>
<pdfrwt beam="2">  1       -4 0.48271466E+00 0.17962700E+03</pdfrwt>
<totfact> 0.59200477E+00</totfact>
</mgrwt>
</event>
<event>
 4    1  0.8742165E-009  0.2227967E+03  0.7818608E-02  0.1131815E+00
         -4   -1    0    0    0  501 -0.00000000000E+00  0.00000000000E+00  0.68632910182E+03  0.68633027684E+03  0.12700000000E+01 0.  1.
          4   -1    0    0  501    0  0.00000000000E+00 -0.00000000000E+00 -0.21451009665E+03  0.21451385611E+03  0.12700000000E+01 0.  1.
    8880022    1    1    2    0    0  0.74618596641E+02  0.14380124979E+03 -0.13080265437E+03  0.25835580468E+03  0.15294330000E+03 0.  0.
    8880022    1    1    2    0    0 -0.74618596641E+02 -0.14380124979E+03  0.60262165954E+03  0.64248832828E+03  0.15294330000E+03 0.  0.
<mgrwt>
<rscale>  0 0.22279674E+03</rscale>
<asrwt>0</asrwt>
<pdfrwt beam="1">  1        4 0.33001933E-01 0.22279674E+03</pdfrwt>
<pdfrwt beam="2">  1       -4 0.10558947E+00 0.22279674E+03</pdfrwt>
<totfact> 0.11936329E+01</totfact>
</mgrwt>
</event>
<event>
 4    1  0.8742165E-009  0.2714526E+03  0.7818608E-02  0.1100451E+00
         -4   -1    0    0    0  501 -0.00000000000E+00  0.00000000000E+00  0.45197193108E+03  0.45197371537E+03  0.12700000000E+01 0.  1.
          4   -1    0    0  501    0  0.00000000000E+00 -0.00000000000E+00 -0.19887431360E+03  0.19887836864E+03  0.12700000000E+01 0.  1.
    8880022    1    1    2    0    0  0.22155596801E+03 -0.34753648109E+02 -0.11608363378E+02  0.27170069955E+03  0.15294330000E+03 0.  0.
    8880022    1    1    2    0    0 -0.22155596801E+03  0.34753648109E+02  0.26470598086E+03  0.37915138446E+03  0.15294330000E+03 0.  0.
<mgrwt>
<rscale>  0 0.27145260E+03</rscale>
<asrwt>0</asrwt>
<pdfrwt beam="1">  1        4 0.30596498E-01 0.27145260E+03</pdfrwt>
<pdfrwt beam="2">  1       -4 0.69534591E-01 0.27145260E+03</pdfrwt>
<totfact> 0.36332291E+01</totfact>
</mgrwt>
</event>
<event>
 4    1  0.8742165E-009  0.2800809E+03  0.7818608E-02  0.1095645E+00
          4   -1    0    0  501    0  0.00000000000E+00  0.00000000000E+00  0.53198456976E+03  0.53198608569E+03  0.12700000000E+01 0.  1.
         -4   -1    0    0    0  501 -0.00000000000E+00 -0.00000000000E+00 -0.31135337757E+03  0.31135596770E+03  0.12700000000E+01 0.  1.
    8880022    1    1    2    0    0 -0.24182738835E+02  0.23338566664E+03 -0.19562175245E+03  0.34163313261E+03  0.15294330000E+03 0.  0.
    8880022    1    1    2    0    0  0.24182738835E+02 -0.23338566664E+03  0.41625294464E+03  0.50170892078E+03  0.15294330000E+03 0.  0.
<mgrwt>
<rscale>  0 0.28008093E+03</rscale>
<asrwt>0</asrwt>
<pdfrwt beam="1">  1        4 0.81844095E-01 0.28008093E+03</pdfrwt>
<pdfrwt beam="2">  1       -4 0.47900836E-01 0.28008093E+03</pdfrwt>
<totfact> 0.10427071E+01</totfact>
</mgrwt>
</event>
<event>
 4    1  0.8742165E-009  0.1768863E+03  0.7818608E-02  0.1170851E+00
          4   -1    0    0  501    0  0.00000000000E+00  0.00000000000E+00  0.24409842589E+04  0.24409845893E+04  0.12700000000E+01 0. -1.
         -4   -1    0    0    0  501 -0.00000000000E+00 -0.00000000000E+00 -0.13542646853E+02  0.13602065424E+02  0.12700000000E+01 0. -1.
    8880022    1    1    2    0    0 -0.19529169532E+02 -0.86693349985E+02  0.15031021044E+04  0.15134743852E+04  0.15294330000E+03 0.  1.
    8880022    1    1    2    0    0  0.19529169532E+02  0.86693349985E+02  0.92433950762E+03  0.94111226947E+03  0.15294330000E+03 0.  1.
<mgrwt>
<rscale>  0 0.17688634E+03</rscale>
<asrwt>0</asrwt>
<pdfrwt beam="1">  1        4 0.37554051E+00 0.17688634E+03</pdfrwt>
<pdfrwt beam="2">  1       -4 0.20880809E-02 0.17688634E+03</pdfrwt>
<totfact> 0.21588207E+01</totfact>
</mgrwt>
</event>
<event>
 4    1  0.8742165E-009  0.2226283E+03  0.7818608E-02  0.1131939E+00
         -4   -1    0    0    0  501 -0.00000000000E+00  0.00000000000E+00  0.23359777160E+03  0.23360122388E+03  0.12700000000E+01 0.  1.
          4   -1    0    0  501    0  0.00000000000E+00 -0.00000000000E+00 -0.33363511388E+03  0.33363753103E+03  0.12700000000E+01 0.  1.
    8880022    1    1    2    0    0 -0.16048249310E+03  0.20422803875E+02 -0.22114890653E+03  0.31379963891E+03  0.15294330000E+03 0.  0.
    8880022    1    1    2    0    0  0.16048249310E+03 -0.20422803875E+02  0.12111156425E+03  0.25343911600E+03  0.15294330000E+03 0.  0.
<mgrwt>
<rscale>  0 0.22262833E+03</rscale>
<asrwt>0</asrwt>
<pdfrwt beam="1">  1        4 0.51328931E-01 0.22262833E+03</pdfrwt>
<pdfrwt beam="2">  1       -4 0.35938570E-01 0.22262833E+03</pdfrwt>
<totfact> 0.49623013E+01</totfact>
</mgrwt>
</event>
<event>
 4    1  0.8742165E-009  0.1771856E+03  0.7818608E-02  0.1170555E+00
         -4   -1    0    0    0  501 -0.00000000000E+00  0.00000000000E+00  0.21780140720E+02  0.21817136150E+02  0.12700000000E+01 0. -1.
          4   -1    0    0  501    0  0.00000000000E+00 -0.00000000000E+00 -0.14541144987E+04  0.14541150533E+04  0.12700000000E+01 0. -1.
    8880022    1    1    2    0    0 -0.35058202308E+02  0.82304371960E+02 -0.64392305726E+03  0.66785600535E+03  0.15294330000E+03 0.  0.
    8880022    1    1    2    0    0  0.35058202308E+02 -0.82304371960E+02 -0.78841130067E+03  0.80807618405E+03  0.15294330000E+03 0.  0.
<mgrwt>
<rscale>  0 0.17718561E+03</rscale>
<asrwt>0</asrwt>
<pdfrwt beam="1">  1        4 0.22371273E+00 0.17718561E+03</pdfrwt>
<pdfrwt beam="2">  1       -4 0.33536805E-02 0.17718561E+03</pdfrwt>
<totfact> 0.82500203E+01</totfact>
</mgrwt>
</event>
<event>
 4    1  0.8742165E-009  0.1595087E+03  0.7818608E-02  0.1189253E+00
          4   -1    0    0  501    0  0.00000000000E+00  0.00000000000E+00  0.14698748227E+04  0.14698753713E+04  0.12700000000E+01 0.  1.
         -4   -1    0    0    0  501 -0.00000000000E+00 -0.00000000000E+00 -0.20813172831E+02  0.20851883927E+02  0.12700000000E+01 0.  1.
    8880022    1    1    2    0    0 -0.39680777668E+02 -0.21835696383E+02  0.10310618887E+04  0.10433271937E+04  0.15294330000E+03 0.  0.
    8880022    1    1    2    0    0  0.39680777668E+02  0.21835696383E+02  0.41799976112E+03  0.44740006154E+03  0.15294330000E+03 0.  0.
<mgrwt>
<rscale>  0 0.15950867E+03</rscale>
<asrwt>0</asrwt>
<pdfrwt beam="1">  1        4 0.22613770E+00 0.15950867E+03</pdfrwt>
<pdfrwt beam="2">  1       -4 0.32050452E-02 0.15950867E+03</pdfrwt>
<totfact> 0.84681885E+01</totfact>
</mgrwt>
</event>
<event>
 4    1  0.8742165E-009  0.1856052E+03  0.7818608E-02  0.1162486E+00
          4   -1    0    0  501    0  0.00000000000E+00  0.00000000000E+00  0.15197999740E+03  0.15198530360E+03  0.12700000000E+01 0. -1.
         -4   -1    0    0    0  501 -0.00000000000E+00 -0.00000000000E+00 -0.25272284989E+03  0.25272604091E+03  0.12700000000E+01 0. -1.
    8880022    1    1    2    0    0  0.26404885802E+01  0.10512219375E+03 -0.11535529862E+03  0.21853179570E+03  0.15294330000E+03 0.  0.
    8880022    1    1    2    0    0 -0.26404885802E+01 -0.10512219375E+03  0.14612446137E+02  0.18617954881E+03  0.15294330000E+03 0.  0.
<mgrwt>
<rscale>  0 0.18560523E+03</rscale>
<asrwt>0</asrwt>
<pdfrwt beam="1">  1        4 0.23382192E-01 0.18560523E+03</pdfrwt>
<pdfrwt beam="2">  1       -4 0.38881092E-01 0.18560523E+03</pdfrwt>
<totfact> 0.19177813E+02</totfact>
</mgrwt>
</event>
<event>
 4    1  0.8742165E-009  0.1741591E+03  0.7818608E-02  0.1173579E+00
          4   -1    0    0  501    0  0.00000000000E+00  0.00000000000E+00  0.16664248086E+03  0.16664732019E+03  0.12700000000E+01 0. -1.
         -4   -1    0    0    0  501 -0.00000000000E+00 -0.00000000000E+00 -0.29295608291E+03  0.29295883569E+03  0.12700000000E+01 0. -1.
    8880022    1    1    2    0    0  0.11476375068E+02 -0.82510837658E+02 -0.20457779843E+03  0.26866982365E+03  0.15294330000E+03 0.  0.
    8880022    1    1    2    0    0 -0.11476375068E+02  0.82510837658E+02  0.78264196388E+02  0.19093633223E+03  0.15294330000E+03 0.  0.
<mgrwt>
<rscale>  0 0.17415912E+03</rscale>
<asrwt>0</asrwt>
<pdfrwt beam="1">  1        4 0.25637889E-01 0.17415912E+03</pdfrwt>
<pdfrwt beam="2">  1       -4 0.45070751E-01 0.17415912E+03</pdfrwt>
<totfact> 0.11931178E+02</totfact>
</mgrwt>
</event>
<event>
 4    1  0.8742165E-009  0.1598629E+03  0.7818608E-02  0.1188852E+00
          4   -1    0    0  501    0  0.00000000000E+00  0.00000000000E+00  0.82661303165E+03  0.82661400725E+03  0.12700000000E+01 0. -1.
         -4   -1    0    0    0  501 -0.00000000000E+00 -0.00000000000E+00 -0.38882185020E+02  0.38902920352E+02  0.12700000000E+01 0. -1.
    8880022    1    1    2    0    0 -0.46121200762E+02  0.61093012286E+01  0.19788048575E+03  0.25438716237E+03  0.15294330000E+03 0. -1.
    8880022    1    1    2    0    0  0.46121200762E+02 -0.61093012286E+01  0.58985036088E+03  0.61112976524E+03  0.15294330000E+03 0. -1.
<mgrwt>
<rscale>  0 0.15986288E+03</rscale>
<asrwt>0</asrwt>
<pdfrwt beam="1">  1        4 0.12717289E+00 0.15986288E+03</pdfrwt>
<pdfrwt beam="2">  1       -4 0.59835455E-02 0.15986288E+03</pdfrwt>
<totfact> 0.14776951E+02</totfact>
</mgrwt>
</event>
<event>
 4    1  0.8742165E-009  0.1585347E+03  0.7818608E-02  0.1190361E+00
         -4   -1    0    0    0  501 -0.00000000000E+00  0.00000000000E+00  0.26099851154E+03  0.26100160139E+03  0.12700000000E+01 0. -1.
          4   -1    0    0  501    0  0.00000000000E+00 -0.00000000000E+00 -0.10206371147E+03  0.10207161260E+03  0.12700000000E+01 0. -1.
    8880022    1    1    2    0    0 -0.22196767703E+02 -0.35339951955E+02  0.12264715589E+03  0.20043848573E+03  0.15294330000E+03 0.  1.
    8880022    1    1    2    0    0  0.22196767703E+02  0.35339951955E+02  0.36287644188E+02  0.16263472826E+03  0.15294330000E+03 0.  1.
<mgrwt>
<rscale>  0 0.15853473E+03</rscale>
<asrwt>0</asrwt>
<pdfrwt beam="1">  1        4 0.15702955E-01 0.15853473E+03</pdfrwt>
<pdfrwt beam="2">  1       -4 0.40154463E-01 0.15853473E+03</pdfrwt>
<totfact> 0.35906155E+02</totfact>
</mgrwt>
</event>
<event>
 4    1  0.8742165E-009  0.1833727E+03  0.7818608E-02  0.1164578E+00
          4   -1    0    0  501    0  0.00000000000E+00  0.00000000000E+00  0.43528328216E+03  0.43528513485E+03  0.12700000000E+01 0.  1.
         -4   -1    0    0    0  501 -0.00000000000E+00 -0.00000000000E+00 -0.10283046121E+03  0.10283830343E+03  0.12700000000E+01 0.  1.
    8880022    1    1    2    0    0  0.89281400945E+02  0.47568065473E+02  0.30043650832E+03  0.35197675769E+03  0.15294330000E+03 0.  0.
    8880022    1    1    2    0    0 -0.89281400945E+02 -0.47568065473E+02  0.32016312622E+02  0.18614668059E+03  0.15294330000E+03 0.  0.
<mgrwt>
<rscale>  0 0.18337269E+03</rscale>
<asrwt>0</asrwt>
<pdfrwt beam="1">  1        4 0.66967403E-01 0.18337269E+03</pdfrwt>
<pdfrwt beam="2">  1       -4 0.15820817E-01 0.18337269E+03</pdfrwt>
<totfact> 0.12640357E+02</totfact>
</mgrwt>
</event>
<event>
 4    1  0.8742165E-009  0.3202467E+03  0.7818608E-02  0.1075536E+00
         -4   -1    0    0    0  501 -0.00000000000E+00  0.00000000000E+00  0.30594357287E+03  0.30594620880E+03  0.12700000000E+01 0.  1.
          4   -1    0    0  501    0  0.00000000000E+00 -0.00000000000E+00 -0.37120695856E+03  0.37120913106E+03  0.12700000000E+01 0.  1.
    8880022    1    1    2    0    0  0.77506633401E+02  0.27047921718E+03 -0.13806091907E+03  0.34873880704E+03  0.15294330000E+03 0.  0.
    8880022    1    1    2    0    0 -0.77506633401E+02 -0.27047921718E+03  0.72797533376E+02  0.32841653282E+03  0.15294330000E+03 0.  0.
<mgrwt>
<rscale>  0 0.32024668E+03</rscale>
<asrwt>0</asrwt>
<pdfrwt beam="1">  1        4 0.57109133E-01 0.32024668E+03</pdfrwt>
<pdfrwt beam="2">  1       -4 0.47068612E-01 0.32024668E+03</pdfrwt>
<totfact> 0.23973244E+01</totfact>
</mgrwt>
</event>
<event>
 4    1  0.8742165E-009  0.2021929E+03  0.7818608E-02  0.1147902E+00
          4   -1    0    0  501    0  0.00000000000E+00  0.00000000000E+00  0.11914223083E+03  0.11914899944E+03  0.12700000000E+01 0. -1.
         -4   -1    0    0    0  501 -0.00000000000E+00 -0.00000000000E+00 -0.34520135177E+03  0.34520368794E+03  0.12700000000E+01 0. -1.
    8880022    1    1    2    0    0  0.88878649372E+02 -0.97933207169E+02 -0.94993896147E+02  0.22339610717E+03  0.15294330000E+03 0.  0.
    8880022    1    1    2    0    0 -0.88878649372E+02  0.97933207169E+02 -0.13106522479E+03  0.24095658021E+03  0.15294330000E+03 0.  0.
<mgrwt>
<rscale>  0 0.20219293E+03</rscale>
<asrwt>0</asrwt>
<pdfrwt beam="1">  1        4 0.18330275E-01 0.20219293E+03</pdfrwt>
<pdfrwt beam="2">  1       -4 0.53108600E-01 0.20219293E+03</pdfrwt>
<totfact> 0.16100646E+02</totfact>
</mgrwt>
</event>
<event>
 4    1  0.8742165E-009  0.1643969E+03  0.7818608E-02  0.1183820E+00
         -4   -1    0    0    0  501 -0.00000000000E+00  0.00000000000E+00  0.24808320897E+03  0.24808645967E+03  0.12700000000E+01 0. -1.
          4   -1    0    0  501    0  0.00000000000E+00 -0.00000000000E+00 -0.13733690201E+03  0.13734277394E+03  0.12700000000E+01 0. -1.
    8880022    1    1    2    0    0 -0.49032891565E+02  0.35077950759E+02 -0.32265300201E+02  0.16753324953E+03  0.15294330000E+03 0.  0.
    8880022    1    1    2    0    0  0.49032891565E+02 -0.35077950759E+02  0.14301160716E+03  0.21789598409E+03  0.15294330000E+03 0.  0.
<mgrwt>
<rscale>  0 0.16439690E+03</rscale>
<asrwt>0</asrwt>
<pdfrwt beam="1">  1        4 0.21129456E-01 0.16439690E+03</pdfrwt>
<pdfrwt beam="2">  1       -4 0.38167349E-01 0.16439690E+03</pdfrwt>
<totfact> 0.23485253E+02</totfact>
</mgrwt>
</event>
<event>
 4    1  0.8742165E-009  0.2973000E+03  0.7818608E-02  0.1086598E+00
          4   -1    0    0  501    0  0.00000000000E+00  0.00000000000E+00  0.47592374107E+03  0.47592543556E+03  0.12700000000E+01 0.  1.
         -4   -1    0    0    0  501 -0.00000000000E+00 -0.00000000000E+00 -0.18904331718E+03  0.18904758309E+03  0.12700000000E+01 0.  1.
    8880022    1    1    2    0    0 -0.69935403658E+01  0.25484651860E+03  0.18756851642E+03  0.35152419407E+03  0.15294330000E+03 0.  0.
    8880022    1    1    2    0    0  0.69935403658E+01 -0.25484651860E+03  0.99311907469E+02  0.31344882458E+03  0.15294330000E+03 0.  0.
<mgrwt>
<rscale>  0 0.29730003E+03</rscale>
<asrwt>0</asrwt>
<pdfrwt beam="1">  1        4 0.73219495E-01 0.29730003E+03</pdfrwt>
<pdfrwt beam="2">  1       -4 0.29084046E-01 0.29730003E+03</pdfrwt>
<totfact> 0.36056271E+01</totfact>
</mgrwt>
</event>
<event>
 4    1  0.8742165E-009  0.2027752E+03  0.7818608E-02  0.1147418E+00
          4   -1    0    0  501    0  0.00000000000E+00  0.00000000000E+00  0.38389310729E+03  0.38389520800E+03  0.12700000000E+01 0.  1.
         -4   -1    0    0    0  501 -0.00000000000E+00 -0.00000000000E+00 -0.11589052610E+03  0.11589748462E+03  0.12700000000E+01 0.  1.
    8880022    1    1    2    0    0 -0.19241628102E+02 -0.13174171153E+03  0.20281841669E+03  0.28679798112E+03  0.15294330000E+03 0.  0.
    8880022    1    1    2    0    0  0.19241628102E+02  0.13174171153E+03  0.65184164493E+02  0.21299471150E+03  0.15294330000E+03 0.  0.
<mgrwt>
<rscale>  0 0.20277518E+03</rscale>
<asrwt>0</asrwt>
<pdfrwt beam="1">  1        4 0.59061175E-01 0.20277518E+03</pdfrwt>
<pdfrwt beam="2">  1       -4 0.17830009E-01 0.20277518E+03</pdfrwt>
<totfact> 0.13552572E+02</totfact>
</mgrwt>
</event>
<event>
 4    1  0.8742165E-009  0.2124866E+03  0.7818608E-02  0.1139612E+00
         -4   -1    0    0    0  501 -0.00000000000E+00  0.00000000000E+00  0.70696365773E+03  0.70696479845E+03  0.12700000000E+01 0.  1.
          4   -1    0    0  501    0  0.00000000000E+00 -0.00000000000E+00 -0.66636425552E+02  0.66648526693E+02  0.12700000000E+01 0.  1.
    8880022    1    1    2    0    0 -0.13593059978E+03  0.57286778093E+02  0.24118719699E+03  0.32143711657E+03  0.15294330000E+03 0.  0.
    8880022    1    1    2    0    0  0.13593059978E+03 -0.57286778093E+02  0.39914003518E+03  0.45217620857E+03  0.15294330000E+03 0.  0.
<mgrwt>
<rscale>  0 0.21248660E+03</rscale>
<asrwt>0</asrwt>
<pdfrwt beam="1">  1        4 0.10252776E-01 0.21248660E+03</pdfrwt>
<pdfrwt beam="2">  1       -4 0.10876467E+00 0.21248660E+03</pdfrwt>
<totfact> 0.91398967E+01</totfact>
</mgrwt>
</event>
<event>
 4    1  0.8742165E-009  0.1661500E+03  0.7818608E-02  0.1181923E+00
          4   -1    0    0  501    0  0.00000000000E+00  0.00000000000E+00  0.45767185964E+02  0.45784803276E+02  0.12700000000E+01 0.  1.
         -4   -1    0    0    0  501 -0.00000000000E+00 -0.00000000000E+00 -0.71471478140E+03  0.71471590975E+03  0.12700000000E+01 0.  1.
    8880022    1    1    2    0    0  0.52467713873E+02 -0.38227219779E+02 -0.48477581801E+03  0.51245822081E+03  0.15294330000E+03 0.  0.
    8880022    1    1    2    0    0 -0.52467713873E+02  0.38227219779E+02 -0.18417177742E+03  0.24804249222E+03  0.15294330000E+03 0.  0.
<mgrwt>
<rscale>  0 0.16615004E+03</rscale>
<asrwt>0</asrwt>
<pdfrwt beam="1">  1        4 0.70425480E-02 0.16615004E+03</pdfrwt>
<pdfrwt beam="2">  1       -4 0.10995755E+00 0.16615004E+03</pdfrwt>
<totfact> 0.16145165E+02</totfact>
</mgrwt>
</event>
<event>
 4    1  0.8742165E-009  0.1562864E+03  0.7818608E-02  0.1192954E+00
          4   -1    0    0  501    0  0.00000000000E+00  0.00000000000E+00  0.26158281928E+02  0.26189093406E+02  0.12700000000E+01 0. -1.
         -4   -1    0    0    0  501 -0.00000000000E+00 -0.00000000000E+00 -0.11698539681E+04  0.11698546575E+04  0.12700000000E+01 0. -1.
    8880022    1    1    2    0    0 -0.12111249852E+02 -0.29784054087E+02 -0.30286409682E+03  0.34081092472E+03  0.15294330000E+03 0.  0.
    8880022    1    1    2    0    0  0.12111249852E+02  0.29784054087E+02 -0.84083158935E+03  0.85523282614E+03  0.15294330000E+03 0.  0.
<mgrwt>
<rscale>  0 0.15628636E+03</rscale>
<asrwt>0</asrwt>
<pdfrwt beam="1">  1        4 0.40267751E-02 0.15628636E+03</pdfrwt>
<pdfrwt beam="2">  1       -4 0.17997992E+00 0.15628636E+03</pdfrwt>
<totfact> 0.11398252E+02</totfact>
</mgrwt>
</event>
<event>
 4    1  0.8742165E-009  0.4614270E+03  0.7818608E-02  0.1024368E+00
          4   -1    0    0  501    0  0.00000000000E+00  0.00000000000E+00  0.46412495427E+03  0.46412669184E+03  0.12700000000E+01 0.  1.
         -4   -1    0    0    0  501 -0.00000000000E+00 -0.00000000000E+00 -0.53085601432E+03  0.53085753347E+03  0.12700000000E+01 0.  1.
    8880022    1    1    2    0    0 -0.39060701149E+03  0.19222218683E+03 -0.21672723553E+03  0.50978971564E+03  0.15294330000E+03 0.  0.
    8880022    1    1    2    0    0  0.39060701149E+03 -0.19222218683E+03  0.14999617549E+03  0.48519450967E+03  0.15294330000E+03 0.  0.
<mgrwt>
<rscale>  0 0.46142698E+03</rscale>
<asrwt>0</asrwt>
<pdfrwt beam="1">  1        4 0.71404090E-01 0.46142698E+03</pdfrwt>
<pdfrwt beam="2">  1       -4 0.81670406E-01 0.46142698E+03</pdfrwt>
<totfact> 0.46001174E+00</totfact>
</mgrwt>
</event>
<event>
 4    1  0.8742165E-009  0.2307110E+03  0.7818608E-02  0.1126140E+00
         -4   -1    0    0    0  501 -0.00000000000E+00  0.00000000000E+00  0.29175834243E+03  0.29176110652E+03  0.12700000000E+01 0. -1.
          4   -1    0    0  501    0  0.00000000000E+00 -0.00000000000E+00 -0.29916260440E+03  0.29916530008E+03  0.12700000000E+01 0. -1.
    8880022    1    1    2    0    0  0.16940949220E+03 -0.33709875755E+02 -0.18826258647E+03  0.29777573147E+03  0.15294330000E+03 0.  0.
    8880022    1    1    2    0    0 -0.16940949220E+03  0.33709875755E+02  0.18085832450E+03  0.29315067513E+03  0.15294330000E+03 0.  0.
<mgrwt>
<rscale>  0 0.23071104E+03</rscale>
<asrwt>0</asrwt>
<pdfrwt beam="1">  1        4 0.46025436E-01 0.23071104E+03</pdfrwt>
<pdfrwt beam="2">  1       -4 0.44886319E-01 0.23071104E+03</pdfrwt>
<totfact> 0.40032854E+01</totfact>
</mgrwt>
</event>
<event>
 4    1  0.8742165E-009  0.2229696E+03  0.7818608E-02  0.1131688E+00
         -4   -1    0    0    0  501 -0.00000000000E+00  0.00000000000E+00  0.87922266394E+02  0.87931438222E+02  0.12700000000E+01 0.  1.
          4   -1    0    0  501    0  0.00000000000E+00 -0.00000000000E+00 -0.57318419063E+03  0.57318559760E+03  0.12700000000E+01 0.  1.
    8880022    1    1    2    0    0  0.15738535558E+03  0.39416487072E+02 -0.20413053711E+03  0.30229908832E+03  0.15294330000E+03 0.  0.
    8880022    1    1    2    0    0 -0.15738535558E+03 -0.39416487072E+02 -0.28113138713E+03  0.35881794750E+03  0.15294330000E+03 0.  0.
<mgrwt>
<rscale>  0 0.22296965E+03</rscale>
<asrwt>0</asrwt>
<pdfrwt beam="1">  1        4 0.88182995E-01 0.22296965E+03</pdfrwt>
<pdfrwt beam="2">  1       -4 0.13527317E-01 0.22296965E+03</pdfrwt>
<totfact> 0.92919802E+01</totfact>
</mgrwt>
</event>
<event>
 4    1  0.8742165E-009  0.1693056E+03  0.7818608E-02  0.1178574E+00
          4   -1    0    0  501    0  0.00000000000E+00  0.00000000000E+00  0.12826551574E+02  0.12889271712E+02  0.12700000000E+01 0. -1.
         -4   -1    0    0    0  501 -0.00000000000E+00 -0.00000000000E+00 -0.22636437939E+04  0.22636441501E+04  0.12700000000E+01 0. -1.
    8880022    1    1    2    0    0  0.45779652898E+02  0.56364489808E+02 -0.98511557234E+03  0.99955844062E+03  0.15294330000E+03 0.  1.
    8880022    1    1    2    0    0 -0.45779652898E+02 -0.56364489808E+02 -0.12657016699E+04  0.12769749812E+04  0.15294330000E+03 0.  1.
<mgrwt>
<rscale>  0 0.16930560E+03</rscale>
<asrwt>0</asrwt>
<pdfrwt beam="1">  1        4 0.19781695E-02 0.16930560E+03</pdfrwt>
<pdfrwt beam="2">  1       -4 0.34825743E+00 0.16930560E+03</pdfrwt>
<totfact> 0.34663049E+01</totfact>
</mgrwt>
</event>
<event>
 4    1  0.8742165E-009  0.1570510E+03  0.7818608E-02  0.1192067E+00
          4   -1    0    0  501    0  0.00000000000E+00  0.00000000000E+00  0.19297465536E+02  0.19339210846E+02  0.12700000000E+01 0. -1.
         -4   -1    0    0    0  501 -0.00000000000E+00 -0.00000000000E+00 -0.12781013293E+04  0.12781019603E+04  0.12700000000E+01 0. -1.
    8880022    1    1    2    0    0 -0.34038792855E+02 -0.10711497086E+02 -0.60811851004E+03  0.62807097597E+03  0.15294330000E+03 0.  1.
    8880022    1    1    2    0    0  0.34038792855E+02  0.10711497086E+02 -0.65068535372E+03  0.66937019514E+03  0.15294330000E+03 0.  1.
<mgrwt>
<rscale>  0 0.15705104E+03</rscale>
<asrwt>0</asrwt>
<pdfrwt beam="1">  1        4 0.29721016E-02 0.15705104E+03</pdfrwt>
<pdfrwt beam="2">  1       -4 0.19663417E+00 0.15705104E+03</pdfrwt>
<totfact> 0.14403968E+02</totfact>
</mgrwt>
</event>
<event>
 4    1  0.8742165E-009  0.2757096E+03  0.7818608E-02  0.1098056E+00
          4   -1    0    0  501    0  0.00000000000E+00  0.00000000000E+00  0.15495349152E+04  0.15495354357E+04  0.12700000000E+01 0. -1.
         -4   -1    0    0    0  501 -0.00000000000E+00 -0.00000000000E+00 -0.19024439448E+03  0.19024863345E+03  0.12700000000E+01 0.  1.
    8880022    1    1    2    0    0  0.20603916404E+03  0.10085643405E+03 -0.69745211501E+02  0.28439445309E+03  0.15294330000E+03 0.  0.
    8880022    1    1    2    0    0 -0.20603916404E+03 -0.10085643405E+03  0.14290357323E+04  0.14553896161E+04  0.15294330000E+03 0. -1.
<mgrwt>
<rscale>  0 0.27570965E+03</rscale>
<asrwt>0</asrwt>
<pdfrwt beam="1">  1        4 0.23839035E+00 0.27570965E+03</pdfrwt>
<pdfrwt beam="2">  1       -4 0.29268735E-01 0.27570965E+03</pdfrwt>
<totfact> 0.16864574E+00</totfact>
</mgrwt>
</event>
<event>
 4    1  0.8742165E-009  0.5124081E+03  0.7818608E-02  0.1010590E+00
          4   -1    0    0  501    0  0.00000000000E+00  0.00000000000E+00  0.71510209644E+03  0.71510322418E+03  0.12700000000E+01 0. -1.
         -4   -1    0    0    0  501 -0.00000000000E+00 -0.00000000000E+00 -0.40895488546E+03  0.40895685743E+03  0.12700000000E+01 0. -1.
    8880022    1    1    2    0    0  0.42468207640E+03 -0.24251914215E+03 -0.26588802461E+02  0.51309747394E+03  0.15294330000E+03 0.  0.
    8880022    1    1    2    0    0 -0.42468207640E+03  0.24251914215E+03  0.33273601344E+03  0.61096260768E+03  0.15294330000E+03 0.  0.
<mgrwt>
<rscale>  0 0.51240809E+03</rscale>
<asrwt>0</asrwt>
<pdfrwt beam="1">  1        4 0.11001595E+00 0.51240809E+03</pdfrwt>
<pdfrwt beam="2">  1       -4 0.62916375E-01 0.51240809E+03</pdfrwt>
<totfact> 0.30255666E+00</totfact>
</mgrwt>
</event>
<event>
 4    1  0.8742165E-009  0.1723793E+03  0.7818608E-02  0.1175389E+00
          4   -1    0    0  501    0  0.00000000000E+00  0.00000000000E+00  0.13507870143E+04  0.13507876113E+04  0.12700000000E+01 0. -1.
         -4   -1    0    0    0  501 -0.00000000000E+00 -0.00000000000E+00 -0.22658676215E+02  0.22694239529E+02  0.12700000000E+01 0. -1.
    8880022    1    1    2    0    0  0.78241388339E+02 -0.14186898394E+02  0.78290019132E+03  0.80165288343E+03  0.15294330000E+03 0.  0.
    8880022    1    1    2    0    0 -0.78241388339E+02  0.14186898394E+02  0.54522814675E+03  0.57182896740E+03  0.15294330000E+03 0.  0.
<mgrwt>
<rscale>  0 0.17237934E+03</rscale>
<asrwt>0</asrwt>
<pdfrwt beam="1">  1        4 0.20781612E+00 0.17237934E+03</pdfrwt>
<pdfrwt beam="2">  1       -4 0.34887325E-02 0.17237934E+03</pdfrwt>
<totfact> 0.96462366E+01</totfact>
</mgrwt>
</event>
<event>
 4    1  0.8742165E-009  0.1658436E+03  0.7818608E-02  0.1182253E+00
         -4   -1    0    0    0  501 -0.00000000000E+00  0.00000000000E+00  0.62417412115E+03  0.62417541317E+03  0.12700000000E+01 0.  1.
          4   -1    0    0  501    0  0.00000000000E+00 -0.00000000000E+00 -0.68742999633E+02  0.68754730009E+02  0.12700000000E+01 0.  1.
    8880022    1    1    2    0    0 -0.48360078375E+02  0.42115786457E+02  0.70108091923E+02  0.18005342045E+03  0.15294330000E+03 0.  0.
    8880022    1    1    2    0    0  0.48360078375E+02 -0.42115786457E+02  0.48532302959E+03  0.51287672273E+03  0.15294330000E+03 0.  0.
<mgrwt>
<rscale>  0 0.16584357E+03</rscale>
<asrwt>0</asrwt>
<pdfrwt beam="1">  1        4 0.10576848E-01 0.16584357E+03</pdfrwt>
<pdfrwt beam="2">  1       -4 0.96027791E-01 0.16584357E+03</pdfrwt>
<totfact> 0.11217767E+02</totfact>
</mgrwt>
</event>
<event>
 4    1  0.8742165E-009  0.2179482E+03  0.7818608E-02  0.1135422E+00
          4   -1    0    0  501    0  0.00000000000E+00  0.00000000000E+00  0.17650213791E+03  0.17650670692E+03  0.12700000000E+01 0.  1.
         -4   -1    0    0    0  501 -0.00000000000E+00 -0.00000000000E+00 -0.40965263609E+03  0.40965460470E+03  0.12700000000E+01 0.  1.
    8880022    1    1    2    0    0 -0.15496092250E+03  0.98431164256E+01  0.55084562896E+02  0.22480154921E+03  0.15294330000E+03 0.  0.
    8880022    1    1    2    0    0  0.15496092250E+03 -0.98431164256E+01 -0.28823506107E+03  0.36135976241E+03  0.15294330000E+03 0.  0.
<mgrwt>
<rscale>  0 0.21794822E+03</rscale>
<asrwt>0</asrwt>
<pdfrwt beam="1">  1        4 0.27154678E-01 0.21794822E+03</pdfrwt>
<pdfrwt beam="2">  1       -4 0.63023985E-01 0.21794822E+03</pdfrwt>
<totfact> 0.55056393E+01</totfact>
</mgrwt>
</event>
<event>
 4    1  0.8742165E-009  0.2498549E+03  0.7818608E-02  0.1113397E+00
         -4   -1    0    0    0  501 -0.00000000000E+00  0.00000000000E+00  0.26153405692E+03  0.26153714044E+03  0.12700000000E+01 0. -1.
          4   -1    0    0  501    0  0.00000000000E+00 -0.00000000000E+00 -0.60645140118E+03  0.60645273096E+03  0.12700000000E+01 0. -1.
    8880022    1    1    2    0    0 -0.35916365243E+02 -0.19428281345E+03  0.16550278729E+03  0.29969755173E+03  0.15294330000E+03 0.  0.
    8880022    1    1    2    0    0  0.35916365243E+02  0.19428281345E+03 -0.51042013155E+03  0.56829231968E+03  0.15294330000E+03 0.  0.
<mgrwt>
<rscale>  0 0.24985486E+03</rscale>
<asrwt>0</asrwt>
<pdfrwt beam="1">  1        4 0.93300554E-01 0.24985486E+03</pdfrwt>
<pdfrwt beam="2">  1       -4 0.40236348E-01 0.24985486E+03</pdfrwt>
<totfact> 0.10906751E+01</totfact>
</mgrwt>
</event>
<event>
 4    1  0.8742165E-009  0.1857571E+03  0.7818608E-02  0.1162345E+00
         -4   -1    0    0    0  501 -0.00000000000E+00  0.00000000000E+00  0.45156189107E+03  0.45156367698E+03  0.12700000000E+01 0.  1.
          4   -1    0    0  501    0  0.00000000000E+00 -0.00000000000E+00 -0.18725828765E+03  0.18726259422E+03  0.12700000000E+01 0.  1.
    8880022    1    1    2    0    0 -0.68626901281E+01  0.10519955538E+03 -0.11359742144E+03  0.21773853619E+03  0.15294330000E+03 0.  0.
    8880022    1    1    2    0    0  0.68626901281E+01 -0.10519955538E+03  0.37790102487E+03  0.42108773501E+03  0.15294330000E+03 0.  0.
<mgrwt>
<rscale>  0 0.18575709E+03</rscale>
<asrwt>0</asrwt>
<pdfrwt beam="1">  1        4 0.28809436E-01 0.18575709E+03</pdfrwt>
<pdfrwt beam="2">  1       -4 0.69471528E-01 0.18575709E+03</pdfrwt>
<totfact> 0.39167245E+01</totfact>
</mgrwt>
</event>
<event>
 4    1  0.8742165E-009  0.1814182E+03  0.7818608E-02  0.1166438E+00
          4   -1    0    0  501    0  0.00000000000E+00  0.00000000000E+00  0.41239329845E+03  0.41239525399E+03  0.12700000000E+01 0. -1.
         -4   -1    0    0    0  501 -0.00000000000E+00 -0.00000000000E+00 -0.79887524944E+02  0.79897619124E+02  0.12700000000E+01 0. -1.
    8880022    1    1    2    0    0 -0.54847183851E+02 -0.80701312757E+02  0.15817580226E+03  0.24069099047E+03  0.15294330000E+03 0.  0.
    8880022    1    1    2    0    0  0.54847183851E+02  0.80701312757E+02  0.17432997125E+03  0.25160188264E+03  0.15294330000E+03 0.  0.
<mgrwt>
<rscale>  0 0.18141821E+03</rscale>
<asrwt>0</asrwt>
<pdfrwt beam="1">  1        4 0.63446049E-01 0.18141821E+03</pdfrwt>
<pdfrwt beam="2">  1       -4 0.12291315E-01 0.18141821E+03</pdfrwt>
<totfact> 0.22009895E+02</totfact>
</mgrwt>
</event>
<event>
 4    1  0.8742165E-009  0.2629588E+03  0.7818608E-02  0.1105378E+00
          4   -1    0    0  501    0  0.00000000000E+00  0.00000000000E+00  0.33530421001E+03  0.33530661513E+03  0.12700000000E+01 0.  1.
         -4   -1    0    0    0  501 -0.00000000000E+00 -0.00000000000E+00 -0.21105789869E+03  0.21106171964E+03  0.12700000000E+01 0.  1.
    8880022    1    1    2    0    0  0.84164903485E+02 -0.19665188681E+03  0.10349292880E+03  0.28259181674E+03  0.15294330000E+03 0. -1.
    8880022    1    1    2    0    0 -0.84164903485E+02  0.19665188681E+03  0.20753382528E+02  0.26377651803E+03  0.15294330000E+03 0. -1.
<mgrwt>
<rscale>  0 0.26295883E+03</rscale>
<asrwt>0</asrwt>
<pdfrwt beam="1">  1        4 0.51585741E-01 0.26295883E+03</pdfrwt>
<pdfrwt beam="2">  1       -4 0.32470925E-01 0.26295883E+03</pdfrwt>
<totfact> 0.60966143E+01</totfact>
</mgrwt>
</event>
<event>
 4    1  0.8742165E-009  0.2449435E+03  0.7818608E-02  0.1116543E+00
         -4   -1    0    0    0  501 -0.00000000000E+00  0.00000000000E+00  0.47963026756E+03  0.47963194896E+03  0.12700000000E+01 0. -1.
          4   -1    0    0  501    0  0.00000000000E+00 -0.00000000000E+00 -0.34622365064E+03  0.34622597991E+03  0.12700000000E+01 0. -1.
    8880022    1    1    2    0    0 -0.18510534236E+03  0.48390720426E+02  0.39671163866E+03  0.46623752193E+03  0.15294330000E+03 0.  0.
    8880022    1    1    2    0    0  0.18510534236E+03 -0.48390720426E+02 -0.26330502175E+03  0.35962040693E+03  0.15294330000E+03 0.  0.
<mgrwt>
<rscale>  0 0.24494347E+03</rscale>
<asrwt>0</asrwt>
<pdfrwt beam="1">  1        4 0.53265486E-01 0.24494347E+03</pdfrwt>
<pdfrwt beam="2">  1       -4 0.73789580E-01 0.24494347E+03</pdfrwt>
<totfact> 0.10438400E+01</totfact>
</mgrwt>
</event>
<event>
 4    1  0.8742165E-009  0.2362703E+03  0.7818608E-02  0.1122303E+00
          4   -1    0    0  501    0  0.00000000000E+00  0.00000000000E+00  0.15883004134E+03  0.15883511870E+03  0.12700000000E+01 0.  1.
         -4   -1    0    0    0  501 -0.00000000000E+00 -0.00000000000E+00 -0.35738132377E+03  0.35738358032E+03  0.12700000000E+01 0.  1.
    8880022    1    1    2    0    0  0.16254419125E+03 -0.77533041541E+02 -0.66040906548E+02  0.24532639685E+03  0.15294330000E+03 0.  0.
    8880022    1    1    2    0    0 -0.16254419125E+03  0.77533041541E+02 -0.13251037588E+03  0.27089230216E+03  0.15294330000E+03 0.  0.
<mgrwt>
<rscale>  0 0.23627027E+03</rscale>
<asrwt>0</asrwt>
<pdfrwt beam="1">  1        4 0.24435955E-01 0.23627027E+03</pdfrwt>
<pdfrwt beam="2">  1       -4 0.54982306E-01 0.23627027E+03</pdfrwt>
<totfact> 0.90422645E+01</totfact>
</mgrwt>
</event>
<event>
 4    1  0.8742165E-009  0.2512807E+03  0.7818608E-02  0.1112498E+00
         -4   -1    0    0    0  501 -0.00000000000E+00  0.00000000000E+00  0.36419740870E+03  0.36419962301E+03  0.12700000000E+01 0.  1.
          4   -1    0    0  501    0  0.00000000000E+00 -0.00000000000E+00 -0.17348401263E+03  0.17348866113E+03  0.12700000000E+01 0.  1.
    8880022    1    1    2    0    0  0.18618098879E+03  0.71323217359E+02  0.88404050882E+02  0.26637809810E+03  0.15294330000E+03 0.  0.
    8880022    1    1    2    0    0 -0.18618098879E+03 -0.71323217359E+02  0.10230934518E+03  0.27131018604E+03  0.15294330000E+03 0.  0.
<mgrwt>
<rscale>  0 0.25128075E+03</rscale>
<asrwt>0</asrwt>
<pdfrwt beam="1">  1        4 0.26690376E-01 0.25128075E+03</pdfrwt>
<pdfrwt beam="2">  1       -4 0.56030899E-01 0.25128075E+03</pdfrwt>
<totfact> 0.74208925E+01</totfact>
</mgrwt>
</event>
<event>
 4    1  0.8742165E-009  0.3257644E+03  0.7818608E-02  0.1073027E+00
          4   -1    0    0  501    0  0.00000000000E+00  0.00000000000E+00  0.16543450653E+04  0.16543455528E+04  0.12700000000E+01 0.  1.
         -4   -1    0    0    0  501 -0.00000000000E+00 -0.00000000000E+00 -0.64172653740E+02  0.64185219389E+02  0.12700000000E+01 0.  1.
    8880022    1    1    2    0    0 -0.28731470593E+03  0.13455241842E+02  0.77598045379E+03  0.84158665713E+03  0.15294330000E+03 0.  0.
    8880022    1    1    2    0    0  0.28731470593E+03 -0.13455241842E+02  0.81419195775E+03  0.87694411502E+03  0.15294330000E+03 0.  0.
<mgrwt>
<rscale>  0 0.32576439E+03</rscale>
<asrwt>0</asrwt>
<pdfrwt beam="1">  1        4 0.25451567E+00 0.32576439E+03</pdfrwt>
<pdfrwt beam="2">  1       -4 0.98737185E-02 0.32576439E+03</pdfrwt>
<totfact> 0.96021209E+00</totfact>
</mgrwt>
</event>
<event>
 4    1  0.8742165E-009  0.2687085E+03  0.7818608E-02  0.1102021E+00
         -4   -1    0    0    0  501 -0.00000000000E+00  0.00000000000E+00  0.62219622903E+03  0.62219752517E+03  0.12700000000E+01 0. -1.
          4   -1    0    0  501    0  0.00000000000E+00 -0.00000000000E+00 -0.19786620672E+03  0.19787028241E+03  0.12700000000E+01 0. -1.
    8880022    1    1    2    0    0 -0.10859651176E+03  0.19240430743E+03  0.47583819118E+03  0.54646706862E+03  0.15294330000E+03 0. -1.
    8880022    1    1    2    0    0  0.10859651176E+03 -0.19240430743E+03 -0.51508168870E+02  0.27360073896E+03  0.15294330000E+03 0. -1.
<mgrwt>
<rscale>  0 0.26870853E+03</rscale>
<asrwt>0</asrwt>
<pdfrwt beam="1">  1        4 0.30441369E-01 0.26870853E+03</pdfrwt>
<pdfrwt beam="2">  1       -4 0.95722908E-01 0.26870853E+03</pdfrwt>
<totfact> 0.17841143E+01</totfact>
</mgrwt>
</event>
<event>
 4    1  0.8742165E-009  0.2731253E+03  0.7818608E-02  0.1099504E+00
          4   -1    0    0  501    0  0.00000000000E+00  0.00000000000E+00  0.35390333987E+03  0.35390561859E+03  0.12700000000E+01 0. -1.
         -4   -1    0    0    0  501 -0.00000000000E+00 -0.00000000000E+00 -0.22148750913E+03  0.22149115017E+03  0.12700000000E+01 0. -1.
    8880022    1    1    2    0    0 -0.17918759829E+03  0.13819404392E+03  0.12946405840E+03  0.30225549555E+03  0.15294330000E+03 0.  0.
    8880022    1    1    2    0    0  0.17918759829E+03 -0.13819404392E+03  0.29517723295E+01  0.27314127321E+03  0.15294330000E+03 0.  0.
<mgrwt>
<rscale>  0 0.27312532E+03</rscale>
<asrwt>0</asrwt>
<pdfrwt beam="1">  1        4 0.54447123E-01 0.27312532E+03</pdfrwt>
<pdfrwt beam="2">  1       -4 0.34075457E-01 0.27312532E+03</pdfrwt>
<totfact> 0.49812289E+01</totfact>
</mgrwt>
</event>
<event>
 4    1  0.8742165E-009  0.1749919E+03  0.7818608E-02  0.1172740E+00
          4   -1    0    0  501    0  0.00000000000E+00  0.00000000000E+00  0.47441793239E+02  0.47458788920E+02  0.12700000000E+01 0.  1.
         -4   -1    0    0    0  501 -0.00000000000E+00 -0.00000000000E+00 -0.10769454220E+04  0.10769461709E+04  0.12700000000E+01 0.  1.
    8880022    1    1    2    0    0 -0.72833134077E+02  0.43884473596E+02 -0.87066025510E+03  0.88807175683E+03  0.15294330000E+03 0.  0.
    8880022    1    1    2    0    0  0.72833134077E+02 -0.43884473596E+02 -0.15884337371E+03  0.23633320297E+03  0.15294330000E+03 0.  0.
<mgrwt>
<rscale>  0 0.17499190E+03</rscale>
<asrwt>0</asrwt>
<pdfrwt beam="1">  1        4 0.73001032E-02 0.17499190E+03</pdfrwt>
<pdfrwt beam="2">  1       -4 0.16568526E+00 0.17499190E+03</pdfrwt>
<totfact> 0.55057153E+01</totfact>
</mgrwt>
</event>
<event>
 4    1  0.8742165E-009  0.1611465E+03  0.7818608E-02  0.1187408E+00
          4   -1    0    0  501    0  0.00000000000E+00  0.00000000000E+00  0.37075433170E+02  0.37097178394E+02  0.12700000000E+01 0.  1.
         -4   -1    0    0    0  501 -0.00000000000E+00 -0.00000000000E+00 -0.88695098503E+03  0.88695189427E+03  0.12700000000E+01 0.  1.
    8880022    1    1    2    0    0 -0.35377560474E+02 -0.36400074907E+02 -0.21292804047E+03  0.26703284568E+03  0.15294330000E+03 0.  1.
    8880022    1    1    2    0    0  0.35377560474E+02  0.36400074907E+02 -0.63694751139E+03  0.65701622698E+03  0.15294330000E+03 0.  1.
<mgrwt>
<rscale>  0 0.16114649E+03</rscale>
<asrwt>0</asrwt>
<pdfrwt beam="1">  1        4 0.57056561E-02 0.16114649E+03</pdfrwt>
<pdfrwt beam="2">  1       -4 0.13645572E+00 0.16114649E+03</pdfrwt>
<totfact> 0.13436656E+02</totfact>
</mgrwt>
</event>
<event>
 4    1  0.8742165E-009  0.3238854E+03  0.7818608E-02  0.1073875E+00
          4   -1    0    0  501    0  0.00000000000E+00  0.00000000000E+00  0.18514920263E+04  0.18514924619E+04  0.12700000000E+01 0.  1.
         -4   -1    0    0    0  501 -0.00000000000E+00 -0.00000000000E+00 -0.71501965894E+02  0.71513243715E+02  0.12700000000E+01 0.  1.
    8880022    1    1    2    0    0  0.64865020838E+02  0.27803354866E+03  0.13281598493E+04  0.13670809645E+04  0.15294330000E+03 0.  0.
    8880022    1    1    2    0    0 -0.64865020838E+02 -0.27803354866E+03  0.45183021114E+03  0.55592474115E+03  0.15294330000E+03 0.  0.
<mgrwt>
<rscale>  0 0.32388544E+03</rscale>
<asrwt>0</asrwt>
<pdfrwt beam="1">  1        4 0.28484584E+00 0.32388544E+03</pdfrwt>
<pdfrwt beam="2">  1       -4 0.11001203E-01 0.32388544E+03</pdfrwt>
<totfact> 0.52650077E+00</totfact>
</mgrwt>
</event>
<event>
 4    1  0.8742165E-009  0.3421168E+03  0.7818608E-02  0.1065898E+00
          4   -1    0    0  501    0  0.00000000000E+00  0.00000000000E+00  0.23657435784E+04  0.23657439192E+04  0.12700000000E+01 0.  1.
         -4   -1    0    0    0  501 -0.00000000000E+00 -0.00000000000E+00 -0.51476394740E+02  0.51492058761E+02  0.12700000000E+01 0.  1.
    8880022    1    1    2    0    0  0.28530931911E+03  0.11068361371E+03  0.13959470933E+04  0.14372585746E+04  0.15294330000E+03 0.  0.
    8880022    1    1    2    0    0 -0.28530931911E+03 -0.11068361371E+03  0.91832009035E+03  0.97997740345E+03  0.15294330000E+03 0.  0.
<mgrwt>
<rscale>  0 0.34211683E+03</rscale>
<asrwt>0</asrwt>
<pdfrwt beam="1">  1        4 0.36396168E+00 0.34211683E+03</pdfrwt>
<pdfrwt beam="2">  1       -4 0.79206787E-02 0.34211683E+03</pdfrwt>
<totfact> 0.30230592E+00</totfact>
</mgrwt>
</event>
<event>
 4    1  0.8742165E-009  0.2536959E+03  0.7818608E-02  0.1110991E+00
          4   -1    0    0  501    0  0.00000000000E+00  0.00000000000E+00  0.35157525821E+03  0.35157755202E+03  0.12700000000E+01 0.  1.
         -4   -1    0    0    0  501 -0.00000000000E+00 -0.00000000000E+00 -0.14383995927E+04  0.14384001533E+04  0.12700000000E+01 0.  1.
    8880022    1    1    2    0    0  0.20106204005E+03  0.23324538658E+02  0.29268645835E+03  0.38733318211E+03  0.15294330000E+03 0.  0.
    8880022    1    1    2    0    0 -0.20106204005E+03 -0.23324538658E+02 -0.13795107928E+04  0.14026445232E+04  0.15294330000E+03 0.  0.
<mgrwt>
<rscale>  0 0.25369594E+03</rscale>
<asrwt>0</asrwt>
<pdfrwt beam="1">  1        4 0.54088722E-01 0.25369594E+03</pdfrwt>
<pdfrwt beam="2">  1       -4 0.22129246E+00 0.25369594E+03</pdfrwt>
<totfact> 0.62772831E-01</totfact>
</mgrwt>
</event>
<event>
 4    1  0.8742165E-009  0.2362981E+03  0.7818608E-02  0.1122284E+00
         -4   -1    0    0    0  501 -0.00000000000E+00  0.00000000000E+00  0.19037694611E+03  0.19038118213E+03  0.12700000000E+01 0. -1.
          4   -1    0    0  501    0  0.00000000000E+00 -0.00000000000E+00 -0.76825492759E+03  0.76825597731E+03  0.12700000000E+01 0. -1.
    8880022    1    1    2    0    0  0.26142809954E+02 -0.17821815746E+03  0.87939977580E+02  0.25213141580E+03  0.15294330000E+03 0.  0.
    8880022    1    1    2    0    0 -0.26142809954E+02  0.17821815746E+03 -0.66581795907E+03  0.70650574364E+03  0.15294330000E+03 0.  0.
<mgrwt>
<rscale>  0 0.23629814E+03</rscale>
<asrwt>0</asrwt>
<pdfrwt beam="1">  1        4 0.11819347E+00 0.23629814E+03</pdfrwt>
<pdfrwt beam="2">  1       -4 0.29289168E-01 0.23629814E+03</pdfrwt>
<totfact> 0.11516878E+01</totfact>
</mgrwt>
</event>
<event>
 4    1  0.8742165E-009  0.1719557E+03  0.7818608E-02  0.1175824E+00
          4   -1    0    0  501    0  0.00000000000E+00  0.00000000000E+00  0.74289017898E+03  0.74289126453E+03  0.12700000000E+01 0. -1.
         -4   -1    0    0    0  501 -0.00000000000E+00 -0.00000000000E+00 -0.52305195881E+02  0.52320611771E+02  0.12700000000E+01 0. -1.
    8880022    1    1    2    0    0 -0.53383999697E+02 -0.57682293219E+02  0.53973987590E+03  0.56646966823E+03  0.15294330000E+03 0. -1.
    8880022    1    1    2    0    0  0.53383999697E+02  0.57682293219E+02  0.15084510720E+03  0.22874220807E+03  0.15294330000E+03 0. -1.
<mgrwt>
<rscale>  0 0.17195567E+03</rscale>
<asrwt>0</asrwt>
<pdfrwt beam="1">  1        4 0.11429207E+00 0.17195567E+03</pdfrwt>
<pdfrwt beam="2">  1       -4 0.80482222E-02 0.17195567E+03</pdfrwt>
<totfact> 0.11865269E+02</totfact>
</mgrwt>
</event>
<event>
 4    1  0.8742165E-009  0.1753286E+03  0.7818608E-02  0.1172402E+00
         -4   -1    0    0    0  501 -0.00000000000E+00  0.00000000000E+00  0.82433633108E+02  0.82443415549E+02  0.12700000000E+01 0.  1.
          4   -1    0    0  501    0  0.00000000000E+00 -0.00000000000E+00 -0.42094802217E+03  0.42094993796E+03  0.12700000000E+01 0.  1.
    8880022    1    1    2    0    0  0.58017889875E+01  0.85526689020E+02 -0.25431410736E+03  0.30889446985E+03  0.15294330000E+03 0.  0.
    8880022    1    1    2    0    0 -0.58017889875E+01 -0.85526689020E+02 -0.84200281707E+02  0.19449888366E+03  0.15294330000E+03 0.  0.
<mgrwt>
<rscale>  0 0.17532863E+03</rscale>
<asrwt>0</asrwt>
<pdfrwt beam="1">  1        4 0.64762133E-01 0.17532863E+03</pdfrwt>
<pdfrwt beam="2">  1       -4 0.12682998E-01 0.17532863E+03</pdfrwt>
<totfact> 0.19848088E+02</totfact>
</mgrwt>
</event>
<event>
 4    1  0.8742165E-009  0.1933042E+03  0.7818608E-02  0.1155514E+00
          4   -1    0    0  501    0  0.00000000000E+00  0.00000000000E+00  0.18108512386E+03  0.18108957724E+03  0.12700000000E+01 0.  1.
         -4   -1    0    0    0  501 -0.00000000000E+00 -0.00000000000E+00 -0.22006383826E+03  0.22006750285E+03  0.12700000000E+01 0.  1.
    8880022    1    1    2    0    0  0.18610918412E+02 -0.11674121658E+03 -0.69580008387E+02  0.20544563397E+03  0.15294330000E+03 0.  0.
    8880022    1    1    2    0    0 -0.18610918412E+02  0.11674121658E+03  0.30601293994E+02  0.19571144612E+03  0.15294330000E+03 0.  0.
<mgrwt>
<rscale>  0 0.19330424E+03</rscale>
<asrwt>0</asrwt>
<pdfrwt beam="1">  1        4 0.27859874E-01 0.19330424E+03</pdfrwt>
<pdfrwt beam="2">  1       -4 0.33856600E-01 0.19330424E+03</pdfrwt>
<totfact> 0.18242657E+02</totfact>
</mgrwt>
</event>
<event>
 4    1  0.8742165E-009  0.1546220E+03  0.7818608E-02  0.1194906E+00
         -4   -1    0    0    0  501 -0.00000000000E+00  0.00000000000E+00  0.88053848407E+02  0.88063006531E+02  0.12700000000E+01 0.  1.
          4   -1    0    0  501    0  0.00000000000E+00 -0.00000000000E+00 -0.27290173960E+03  0.27290469468E+03  0.12700000000E+01 0.  1.
    8880022    1    1    2    0    0  0.14647147322E+02  0.17371560881E+02 -0.10540252369E+03  0.18713004854E+03  0.15294330000E+03 0. -1.
    8880022    1    1    2    0    0 -0.14647147322E+02 -0.17371560881E+02 -0.79445367501E+02  0.17383765267E+03  0.15294330000E+03 0. -1.
<mgrwt>
<rscale>  0 0.15462200E+03</rscale>
<asrwt>0</asrwt>
<pdfrwt beam="1">  1        4 0.41985814E-01 0.15462200E+03</pdfrwt>
<pdfrwt beam="2">  1       -4 0.13547678E-01 0.15462200E+03</pdfrwt>
<totfact> 0.42344808E+02</totfact>
</mgrwt>
</event>
<event>
 4    1  0.8742165E-009  0.1561452E+03  0.7818608E-02  0.1193119E+00
          4   -1    0    0  501    0  0.00000000000E+00  0.00000000000E+00  0.18968471994E+03  0.18968897142E+03  0.12700000000E+01 0. -1.
         -4   -1    0    0    0  501 -0.00000000000E+00 -0.00000000000E+00 -0.12932326612E+03  0.12932950189E+03  0.12700000000E+01 0. -1.
    8880022    1    1    2    0    0 -0.31031449290E+02 -0.51680211878E+01  0.42695313261E+02  0.16187712030E+03  0.15294330000E+03 0. -1.
    8880022    1    1    2    0    0  0.31031449290E+02  0.51680211878E+01  0.17666140563E+02  0.15714135301E+03  0.15294330000E+03 0. -1.
<mgrwt>
<rscale>  0 0.15614516E+03</rscale>
<asrwt>0</asrwt>
<pdfrwt beam="1">  1        4 0.29183071E-01 0.15614516E+03</pdfrwt>
<pdfrwt beam="2">  1       -4 0.19896694E-01 0.15614516E+03</pdfrwt>
<totfact> 0.43499959E+02</totfact>
</mgrwt>
</event>
<event>
 4    1  0.8742165E-009  0.1965284E+03  0.7818608E-02  0.1152701E+00
         -4   -1    0    0    0  501 -0.00000000000E+00  0.00000000000E+00  0.71415553103E+03  0.71415666027E+03  0.12700000000E+01 0.  1.
          4   -1    0    0  501    0  0.00000000000E+00 -0.00000000000E+00 -0.12894630140E+03  0.12895255540E+03  0.12700000000E+01 0.  1.
    8880022    1    1    2    0    0  0.86957636031E+02  0.87579283039E+02  0.61381548826E+03  0.64450978885E+03  0.15294330000E+03 0.  0.
    8880022    1    1    2    0    0 -0.86957636031E+02 -0.87579283039E+02 -0.28606258628E+02  0.19859942681E+03  0.15294330000E+03 0.  0.
<mgrwt>
<rscale>  0 0.19652841E+03</rscale>
<asrwt>0</asrwt>
<pdfrwt beam="1">  1        4 0.19838460E-01 0.19652841E+03</pdfrwt>
<pdfrwt beam="2">  1       -4 0.10987065E+00 0.19652841E+03</pdfrwt>
<totfact> 0.27785593E+01</totfact>
</mgrwt>
</event>
<event>
 4    1  0.8742165E-009  0.4028128E+03  0.7818608E-02  0.1042810E+00
         -4   -1    0    0    0  501 -0.00000000000E+00  0.00000000000E+00  0.70565247615E+03  0.70565361899E+03  0.12700000000E+01 0.  1.
          4   -1    0    0  501    0  0.00000000000E+00 -0.00000000000E+00 -0.12881251083E+04  0.12881257344E+04  0.12700000000E+01 0.  1.
    8880022    1    1    2    0    0  0.22920155982E+03 -0.29382506277E+03  0.61230675678E+03  0.73292410245E+03  0.15294330000E+03 0.  0.
    8880022    1    1    2    0    0 -0.22920155982E+03  0.29382506277E+03 -0.11947793889E+04  0.12608552509E+04  0.15294330000E+03 0.  0.
<mgrwt>
<rscale>  0 0.40281283E+03</rscale>
<asrwt>0</asrwt>
<pdfrwt beam="1">  1        4 0.19817323E+00 0.40281283E+03</pdfrwt>
<pdfrwt beam="2">  1       -4 0.10856206E+00 0.40281283E+03</pdfrwt>
<totfact> 0.18326720E-01</totfact>
</mgrwt>
</event>
<event>
 4    1  0.8742165E-009  0.3057018E+03  0.7818608E-02  0.1082425E+00
         -4   -1    0    0    0  501 -0.00000000000E+00  0.00000000000E+00  0.72400073217E+03  0.72400184605E+03  0.12700000000E+01 0. -1.
          4   -1    0    0  501    0  0.00000000000E+00 -0.00000000000E+00 -0.15166859165E+03  0.15167390874E+03  0.12700000000E+01 0. -1.
    8880022    1    1    2    0    0 -0.20020988210E+03  0.17314146878E+03  0.11718145885E+03  0.32739137499E+03  0.15294330000E+03 0.  0.
    8880022    1    1    2    0    0  0.20020988210E+03 -0.17314146878E+03  0.45515068167E+03  0.54828437981E+03  0.15294330000E+03 0.  0.
<mgrwt>
<rscale>  0 0.30570185E+03</rscale>
<asrwt>0</asrwt>
<pdfrwt beam="1">  1        4 0.23334124E-01 0.30570185E+03</pdfrwt>
<pdfrwt beam="2">  1       -4 0.11138522E+00 0.30570185E+03</pdfrwt>
<totfact> 0.20807041E+01</totfact>
</mgrwt>
</event>
<event>
 4    1  0.8742165E-009  0.1668620E+03  0.7818608E-02  0.1181160E+00
         -4   -1    0    0    0  501 -0.00000000000E+00  0.00000000000E+00  0.22812956621E+03  0.22813310124E+03  0.12700000000E+01 0.  1.
          4   -1    0    0  501    0  0.00000000000E+00 -0.00000000000E+00 -0.12565562328E+03  0.12566204105E+03  0.12700000000E+01 0.  1.
    8880022    1    1    2    0    0 -0.15932508381E+02  0.64787609453E+02  0.81238690819E+02  0.18558733002E+03  0.15294330000E+03 0. -1.
    8880022    1    1    2    0    0  0.15932508381E+02 -0.64787609453E+02  0.21235252116E+02  0.16820781227E+03  0.15294330000E+03 0. -1.
<mgrwt>
<rscale>  0 0.16686202E+03</rscale>
<asrwt>0</asrwt>
<pdfrwt beam="1">  1        4 0.19332400E-01 0.16686202E+03</pdfrwt>
<pdfrwt beam="2">  1       -4 0.35097622E-01 0.16686202E+03</pdfrwt>
<totfact> 0.32560813E+02</totfact>
</mgrwt>
</event>
<event>
 4    1  0.8742165E-009  0.1960123E+03  0.7818608E-02  0.1153148E+00
          4   -1    0    0  501    0  0.00000000000E+00  0.00000000000E+00  0.19103377692E+03  0.19103799838E+03  0.12700000000E+01 0.  1.
         -4   -1    0    0    0  501 -0.00000000000E+00 -0.00000000000E+00 -0.81446710477E+03  0.81446809492E+03  0.12700000000E+01 0.  1.
    8880022    1    1    2    0    0 -0.10664693077E+03 -0.60461456655E+02 -0.74800350960E+03  0.77325937367E+03  0.15294330000E+03 0.  0.
    8880022    1    1    2    0    0  0.10664693077E+03  0.60461456655E+02  0.12457018176E+03  0.23224671964E+03  0.15294330000E+03 0.  0.
<mgrwt>
<rscale>  0 0.19601227E+03</rscale>
<asrwt>0</asrwt>
<pdfrwt beam="1">  1        4 0.29390213E-01 0.19601227E+03</pdfrwt>
<pdfrwt beam="2">  1       -4 0.12530303E+00 0.19601227E+03</pdfrwt>
<totfact> 0.97650817E+00</totfact>
</mgrwt>
</event>
<event>
 4    1  0.8742165E-009  0.2779137E+03  0.7818608E-02  0.1096834E+00
         -4   -1    0    0    0  501 -0.00000000000E+00  0.00000000000E+00  0.14481343739E+04  0.14481349307E+04  0.12700000000E+01 0.  1.
          4   -1    0    0  501    0  0.00000000000E+00 -0.00000000000E+00 -0.71121915720E+02  0.71133253797E+02  0.12700000000E+01 0.  1.
    8880022    1    1    2    0    0  0.13882425943E+03  0.18593597251E+03  0.10684436958E+04  0.11039963519E+04  0.15294330000E+03 0.  0.
    8880022    1    1    2    0    0 -0.13882425943E+03 -0.18593597251E+03  0.30856876230E+03  0.41527183261E+03  0.15294330000E+03 0.  0.
<mgrwt>
<rscale>  0 0.27791368E+03</rscale>
<asrwt>0</asrwt>
<pdfrwt beam="1">  1        4 0.10942748E-01 0.27791368E+03</pdfrwt>
<pdfrwt beam="2">  1       -4 0.22279083E+00 0.27791368E+03</pdfrwt>
<totfact> 0.12398248E+01</totfact>
</mgrwt>
</event>
<event>
 4    1  0.8742165E-009  0.1919637E+03  0.7818608E-02  0.1156702E+00
         -4   -1    0    0    0  501 -0.00000000000E+00  0.00000000000E+00  0.66760095088E+02  0.66772173817E+02  0.12700000000E+01 0.  1.
          4   -1    0    0  501    0  0.00000000000E+00 -0.00000000000E+00 -0.55360369857E+03  0.55360515530E+03  0.12700000000E+01 0.  1.
    8880022    1    1    2    0    0  0.40111530796E+02 -0.10885523260E+03 -0.22628743920E+03  0.29674240466E+03  0.15294330000E+03 0.  0.
    8880022    1    1    2    0    0 -0.40111530796E+02  0.10885523260E+03 -0.26055616428E+03  0.32363492446E+03  0.15294330000E+03 0.  0.
<mgrwt>
<rscale>  0 0.19196367E+03</rscale>
<asrwt>0</asrwt>
<pdfrwt beam="1">  1        4 0.85170838E-01 0.19196367E+03</pdfrwt>
<pdfrwt beam="2">  1       -4 0.10271825E-01 0.19196367E+03</pdfrwt>
<totfact> 0.15830499E+02</totfact>
</mgrwt>
</event>
<event>
 4    1  0.8742165E-009  0.2117256E+03  0.7818608E-02  0.1140207E+00
         -4   -1    0    0    0  501 -0.00000000000E+00  0.00000000000E+00  0.12408000082E+03  0.12408650009E+03  0.12700000000E+01 0.  1.
          4   -1    0    0  501    0  0.00000000000E+00 -0.00000000000E+00 -0.49693384708E+03  0.49693546993E+03  0.12700000000E+01 0.  1.
    8880022    1    1    2    0    0 -0.14556750418E+03 -0.15690741322E+02 -0.34866983735E+03  0.40791960743E+03  0.15294330000E+03 0.  0.
    8880022    1    1    2    0    0  0.14556750418E+03  0.15690741322E+02 -0.24184008911E+02  0.21310236258E+03  0.15294330000E+03 0.  0.
<mgrwt>
<rscale>  0 0.21172565E+03</rscale>
<asrwt>0</asrwt>
<pdfrwt beam="1">  1        4 0.76451985E-01 0.21172565E+03</pdfrwt>
<pdfrwt beam="2">  1       -4 0.19089856E-01 0.21172565E+03</pdfrwt>
<totfact> 0.69004809E+01</totfact>
</mgrwt>
</event>
<event>
 4    1  0.8742165E-009  0.3430233E+03  0.7818608E-02  0.1065516E+00
          4   -1    0    0  501    0  0.00000000000E+00  0.00000000000E+00  0.10303774685E+03  0.10304557330E+03  0.12700000000E+01 0.  1.
         -4   -1    0    0    0  501 -0.00000000000E+00 -0.00000000000E+00 -0.14548194764E+04  0.14548200307E+04  0.12700000000E+01 0.  1.
    8880022    1    1    2    0    0  0.47866952367E+01 -0.30700234176E+03 -0.10371380642E+04  0.10923920393E+04  0.15294330000E+03 0.  0.
    8880022    1    1    2    0    0 -0.47866952367E+01  0.30700234176E+03 -0.31464366532E+03  0.46547356471E+03  0.15294330000E+03 0.  0.
<mgrwt>
<rscale>  0 0.34302333E+03</rscale>
<asrwt>0</asrwt>
<pdfrwt beam="1">  1        4 0.15852607E-01 0.34302333E+03</pdfrwt>
<pdfrwt beam="2">  1       -4 0.22381901E+00 0.34302333E+03</pdfrwt>
<totfact> 0.64416042E+00</totfact>
</mgrwt>
</event>
<event>
 4    1  0.8742165E-009  0.2063108E+03  0.7818608E-02  0.1144521E+00
          4   -1    0    0  501    0  0.00000000000E+00  0.00000000000E+00  0.79176319257E+02  0.79186504097E+02  0.12700000000E+01 0.  1.
         -4   -1    0    0    0  501 -0.00000000000E+00 -0.00000000000E+00 -0.66514465978E+03  0.66514587222E+03  0.12700000000E+01 0.  1.
    8880022    1    1    2    0    0  0.11747227339E+03 -0.73299058650E+02 -0.12997717208E+03  0.24384053251E+03  0.15294330000E+03 0.  0.
    8880022    1    1    2    0    0 -0.11747227339E+03  0.73299058650E+02 -0.45599116844E+03  0.50049184381E+03  0.15294330000E+03 0.  0.
<mgrwt>
<rscale>  0 0.20631079E+03</rscale>
<asrwt>0</asrwt>
<pdfrwt beam="1">  1        4 0.12181849E-01 0.20631079E+03</pdfrwt>
<pdfrwt beam="2">  1       -4 0.10233082E+00 0.20631079E+03</pdfrwt>
<totfact> 0.78261145E+01</totfact>
</mgrwt>
</event>
<event>
 4    1  0.8742165E-009  0.1737867E+03  0.7818608E-02  0.1173955E+00
          4   -1    0    0  501    0  0.00000000000E+00  0.00000000000E+00  0.99482181626E+03  0.99482262691E+03  0.12700000000E+01 0.  1.
         -4   -1    0    0    0  501 -0.00000000000E+00 -0.00000000000E+00 -0.30711025505E+02  0.30737273587E+02  0.12700000000E+01 0.  1.
    8880022    1    1    2    0    0  0.14854634800E+02 -0.81175842965E+02  0.42609398234E+03  0.46017161196E+03  0.15294330000E+03 0. -1.
    8880022    1    1    2    0    0 -0.14854634800E+02  0.81175842965E+02  0.53801680841E+03  0.56538828853E+03  0.15294330000E+03 0. -1.
<mgrwt>
<rscale>  0 0.17378674E+03</rscale>
<asrwt>0</asrwt>
<pdfrwt beam="1">  1        4 0.15305161E+00 0.17378674E+03</pdfrwt>
<pdfrwt beam="2">  1       -4 0.47268540E-02 0.17378674E+03</pdfrwt>
<totfact> 0.13764297E+02</totfact>
</mgrwt>
</event>
<event>
 4    1  0.8742165E-009  0.1847630E+03  0.7818608E-02  0.1163271E+00
         -4   -1    0    0    0  501 -0.00000000000E+00  0.00000000000E+00  0.10800810370E+04  0.10800817837E+04  0.12700000000E+01 0. -1.
          4   -1    0    0  501    0  0.00000000000E+00 -0.00000000000E+00 -0.32536577697E+02  0.32561354213E+02  0.12700000000E+01 0. -1.
    8880022    1    1    2    0    0 -0.61405180194E+02  0.83517164887E+02  0.61848434139E+03  0.64549225134E+03  0.15294330000E+03 0.  0.
    8880022    1    1    2    0    0  0.61405180194E+02 -0.83517164887E+02  0.42906011794E+03  0.46715088655E+03  0.15294330000E+03 0.  0.
<mgrwt>
<rscale>  0 0.18476300E+03</rscale>
<asrwt>0</asrwt>
<pdfrwt beam="1">  1        4 0.50075909E-02 0.18476300E+03</pdfrwt>
<pdfrwt beam="2">  1       -4 0.16616827E+00 0.18476300E+03</pdfrwt>
<totfact> 0.10190375E+02</totfact>
</mgrwt>
</event>
<event>
 4    1  0.8742165E-009  0.2782549E+03  0.7818608E-02  0.1096646E+00
         -4   -1    0    0    0  501 -0.00000000000E+00  0.00000000000E+00  0.34449036998E+03  0.34449271097E+03  0.12700000000E+01 0. -1.
          4   -1    0    0  501    0  0.00000000000E+00 -0.00000000000E+00 -0.35943546840E+03  0.35943771205E+03  0.12700000000E+01 0. -1.
    8880022    1    1    2    0    0 -0.17127228655E+01 -0.23244614461E+03 -0.22292277067E+03  0.35653942035E+03  0.15294330000E+03 0.  0.
    8880022    1    1    2    0    0  0.17127228655E+01  0.23244614461E+03  0.20797767226E+03  0.34739100267E+03  0.15294330000E+03 0.  0.
<mgrwt>
<rscale>  0 0.27825491E+03</rscale>
<asrwt>0</asrwt>
<pdfrwt beam="1">  1        4 0.55298117E-01 0.27825491E+03</pdfrwt>
<pdfrwt beam="2">  1       -4 0.52998871E-01 0.27825491E+03</pdfrwt>
<totfact> 0.19836797E+01</totfact>
</mgrwt>
</event>
<event>
 4    1  0.8742165E-009  0.3327756E+03  0.7818608E-02  0.1069915E+00
         -4   -1    0    0    0  501 -0.00000000000E+00  0.00000000000E+00  0.46363902644E+03  0.46364076582E+03  0.12700000000E+01 0. -1.
          4   -1    0    0  501    0  0.00000000000E+00 -0.00000000000E+00 -0.23907228996E+03  0.23907566318E+03  0.12700000000E+01 0. -1.
    8880022    1    1    2    0    0  0.27464326284E+03 -0.10917416603E+03  0.12312138338E+03  0.35482171356E+03  0.15294330000E+03 0.  0.
    8880022    1    1    2    0    0 -0.27464326284E+03  0.10917416603E+03  0.10144535310E+03  0.34789471544E+03  0.15294330000E+03 0.  0.
<mgrwt>
<rscale>  0 0.33277556E+03</rscale>
<asrwt>0</asrwt>
<pdfrwt beam="1">  1        4 0.36780746E-01 0.33277556E+03</pdfrwt>
<pdfrwt beam="2">  1       -4 0.71329474E-01 0.33277556E+03</pdfrwt>
<totfact> 0.24446759E+01</totfact>
</mgrwt>
</event>
<event>
 4    1  0.8742165E-009  0.2177263E+03  0.7818608E-02  0.1135590E+00
         -4   -1    0    0    0  501 -0.00000000000E+00  0.00000000000E+00  0.76397855094E+03  0.76397960653E+03  0.12700000000E+01 0. -1.
          4   -1    0    0  501    0  0.00000000000E+00 -0.00000000000E+00 -0.85002416091E+02  0.85011902939E+02  0.12700000000E+01 0. -1.
    8880022    1    1    2    0    0  0.81700801035E+02  0.13167414625E+03  0.11888386334E+03  0.24806879622E+03  0.15294330000E+03 0.  0.
    8880022    1    1    2    0    0 -0.81700801035E+02 -0.13167414625E+03  0.56009227151E+03  0.60092271325E+03  0.15294330000E+03 0.  0.
<mgrwt>
<rscale>  0 0.21772633E+03</rscale>
<asrwt>0</asrwt>
<pdfrwt beam="1">  1        4 0.13078106E-01 0.21772633E+03</pdfrwt>
<pdfrwt beam="2">  1       -4 0.11753597E+00 0.21772633E+03</pdfrwt>
<totfact> 0.50078313E+01</totfact>
</mgrwt>
</event>
<event>
 4    1  0.8742165E-009  0.1678960E+03  0.7818608E-02  0.1180060E+00
          4   -1    0    0  501    0  0.00000000000E+00  0.00000000000E+00  0.23401589899E+02  0.23436025896E+02  0.12700000000E+01 0. -1.
         -4   -1    0    0    0  501 -0.00000000000E+00 -0.00000000000E+00 -0.12292727837E+04  0.12292734397E+04  0.12700000000E+01 0. -1.
    8880022    1    1    2    0    0 -0.55621144097E+02  0.41275860836E+02 -0.51252253463E+03  0.53932217633E+03  0.15294330000E+03 0.  0.
    8880022    1    1    2    0    0  0.55621144097E+02 -0.41275860836E+02 -0.69334865916E+03  0.71338728930E+03  0.15294330000E+03 0.  0.
<mgrwt>
<rscale>  0 0.16789598E+03</rscale>
<asrwt>0</asrwt>
<pdfrwt beam="1">  1        4 0.36029449E-02 0.16789598E+03</pdfrwt>
<pdfrwt beam="2">  1       -4 0.18912154E+00 0.16789598E+03</pdfrwt>
<totfact> 0.11975381E+02</totfact>
</mgrwt>
</event>
<event>
 4    1  0.8742165E-009  0.2571911E+03  0.7818608E-02  0.1108843E+00
         -4   -1    0    0    0  501 -0.00000000000E+00  0.00000000000E+00  0.10925890464E+03  0.10926628548E+03  0.12700000000E+01 0.  1.
          4   -1    0    0  501    0  0.00000000000E+00 -0.00000000000E+00 -0.11334855980E+04  0.11334863095E+04  0.12700000000E+01 0.  1.
    8880022    1    1    2    0    0 -0.34388902970E+02 -0.20389457861E+03 -0.87980635872E+02  0.27182317991E+03  0.15294330000E+03 0.  0.
    8880022    1    1    2    0    0  0.34388902970E+02  0.20389457861E+03 -0.93624605751E+03  0.97092941507E+03  0.15294330000E+03 0.  0.
<mgrwt>
<rscale>  0 0.25719107E+03</rscale>
<asrwt>0</asrwt>
<pdfrwt beam="1">  1        4 0.17438301E+00 0.25719107E+03</pdfrwt>
<pdfrwt beam="2">  1       -4 0.16809686E-01 0.25719107E+03</pdfrwt>
<totfact> 0.11878095E+01</totfact>
</mgrwt>
</event>
<event>
 4    1  0.8742165E-009  0.1670567E+03  0.7818608E-02  0.1180952E+00
         -4   -1    0    0    0  501 -0.00000000000E+00  0.00000000000E+00  0.33920283591E+03  0.33920521339E+03  0.12700000000E+01 0.  1.
          4   -1    0    0  501    0  0.00000000000E+00 -0.00000000000E+00 -0.12144598901E+03  0.12145262923E+03  0.12700000000E+01 0.  1.
    8880022    1    1    2    0    0 -0.12642029685E+02 -0.66003512963E+02 -0.21937843124E+02  0.16849096894E+03  0.15294330000E+03 0.  0.
    8880022    1    1    2    0    0  0.12642029685E+02  0.66003512963E+02  0.23969469002E+03  0.29216687368E+03  0.15294330000E+03 0.  0.
<mgrwt>
<rscale>  0 0.16705669E+03</rscale>
<asrwt>0</asrwt>
<pdfrwt beam="1">  1        4 0.18684692E-01 0.16705669E+03</pdfrwt>
<pdfrwt beam="2">  1       -4 0.52185744E-01 0.16705669E+03</pdfrwt>
<totfact> 0.15676744E+02</totfact>
</mgrwt>
</event>
<event>
 4    1  0.8742165E-009  0.3916106E+03  0.7818608E-02  0.1046724E+00
         -4   -1    0    0    0  501 -0.00000000000E+00  0.00000000000E+00  0.13954524088E+03  0.13955101989E+03  0.12700000000E+01 0. -1.
          4   -1    0    0  501    0  0.00000000000E+00 -0.00000000000E+00 -0.11198009521E+04  0.11198016723E+04  0.12700000000E+01 0. -1.
    8880022    1    1    2    0    0 -0.11137298125E+03 -0.34287496922E+03 -0.40422809071E+03  0.56281363506E+03  0.15294330000E+03 0.  0.
    8880022    1    1    2    0    0  0.11137298125E+03  0.34287496922E+03 -0.57602762052E+03  0.69653905712E+03  0.15294330000E+03 0.  0.
<mgrwt>
<rscale>  0 0.39161057E+03</rscale>
<asrwt>0</asrwt>
<pdfrwt beam="1">  1        4 0.17227756E+00 0.39161057E+03</pdfrwt>
<pdfrwt beam="2">  1       -4 0.21468999E-01 0.39161057E+03</pdfrwt>
<totfact> 0.80612254E+00</totfact>
</mgrwt>
</event>
<event>
 4    1  0.8742165E-009  0.3251936E+03  0.7818608E-02  0.1073284E+00
          4   -1    0    0  501    0  0.00000000000E+00  0.00000000000E+00  0.12038381564E+03  0.12039051444E+03  0.12700000000E+01 0.  1.
         -4   -1    0    0    0  501 -0.00000000000E+00 -0.00000000000E+00 -0.16347200886E+04  0.16347205820E+04  0.12700000000E+01 0.  1.
    8880022    1    1    2    0    0 -0.18990379622E+03  0.21516458149E+03 -0.16027018336E+03  0.36254300936E+03  0.15294330000E+03 0.  0.
    8880022    1    1    2    0    0  0.18990379622E+03 -0.21516458149E+03 -0.13540660896E+04  0.13925680871E+04  0.15294330000E+03 0.  0.
<mgrwt>
<rscale>  0 0.32519364E+03</rscale>
<asrwt>0</asrwt>
<pdfrwt beam="1">  1        4 0.18521141E-01 0.32519364E+03</pdfrwt>
<pdfrwt beam="2">  1       -4 0.25149594E+00 0.32519364E+03</pdfrwt>
<totfact> 0.33078407E+00</totfact>
</mgrwt>
</event>
<event>
 4    1  0.8742165E-009  0.2054791E+03  0.7818608E-02  0.1145197E+00
         -4   -1    0    0    0  501 -0.00000000000E+00  0.00000000000E+00  0.45974522556E+03  0.45974697968E+03  0.12700000000E+01 0. -1.
          4   -1    0    0  501    0  0.00000000000E+00 -0.00000000000E+00 -0.94744884021E+02  0.94753395443E+02  0.12700000000E+01 0. -1.
    8880022    1    1    2    0    0 -0.43349584635E+02 -0.13019526953E+03  0.13387893547E+03  0.24524521825E+03  0.15294330000E+03 0.  0.
    8880022    1    1    2    0    0  0.43349584635E+02  0.13019526953E+03  0.23112140607E+03  0.30925515687E+03  0.15294330000E+03 0.  0.
<mgrwt>
<rscale>  0 0.20547907E+03</rscale>
<asrwt>0</asrwt>
<pdfrwt beam="1">  1        4 0.14576926E-01 0.20547907E+03</pdfrwt>
<pdfrwt beam="2">  1       -4 0.70730824E-01 0.20547907E+03</pdfrwt>
<totfact> 0.13179967E+02</totfact>
</mgrwt>
</event>
<event>
 4    1  0.8742165E-009  0.1910301E+03  0.7818608E-02  0.1157535E+00
         -4   -1    0    0    0  501 -0.00000000000E+00  0.00000000000E+00  0.73005730152E+03  0.73005840616E+03  0.12700000000E+01 0. -1.
          4   -1    0    0  501    0  0.00000000000E+00 -0.00000000000E+00 -0.53255834377E+02  0.53270975167E+02  0.12700000000E+01 0. -1.
    8880022    1    1    2    0    0  0.95153968662E+02  0.63612773401E+02  0.43557423260E+03  0.47562319940E+03  0.15294330000E+03 0.  0.
    8880022    1    1    2    0    0 -0.95153968662E+02 -0.63612773401E+02  0.24122723454E+03  0.30770618192E+03  0.15294330000E+03 0.  0.
<mgrwt>
<rscale>  0 0.19103014E+03</rscale>
<asrwt>0</asrwt>
<pdfrwt beam="1">  1        4 0.81944554E-02 0.19103014E+03</pdfrwt>
<pdfrwt beam="2">  1       -4 0.11231775E+00 0.19103014E+03</pdfrwt>
<totfact> 0.12184742E+02</totfact>
</mgrwt>
</event>
<event>
 4    1  0.8742165E-009  0.1824792E+03  0.7818608E-02  0.1165425E+00
          4   -1    0    0  501    0  0.00000000000E+00  0.00000000000E+00  0.31271708535E+02  0.31297486396E+02  0.12700000000E+01 0. -1.
         -4   -1    0    0    0  501 -0.00000000000E+00 -0.00000000000E+00 -0.19006931907E+04  0.19006936150E+04  0.12700000000E+01 0. -1.
    8880022    1    1    2    0    0 -0.75773283329E+02  0.64539920513E+02 -0.15754890850E+04  0.15860215956E+04  0.15294330000E+03 0. -1.
    8880022    1    1    2    0    0  0.75773283329E+02 -0.64539920513E+02 -0.29393239719E+03  0.34596950579E+03  0.15294330000E+03 0. -1.
<mgrwt>
<rscale>  0 0.18247916E+03</rscale>
<asrwt>0</asrwt>
<pdfrwt beam="1">  1        4 0.48130491E-02 0.18247916E+03</pdfrwt>
<pdfrwt beam="2">  1       -4 0.29241626E+00 0.18247916E+03</pdfrwt>
<totfact> 0.18408559E+01</totfact>
</mgrwt>
</event>
<event>
 4    1  0.8742165E-009  0.1539700E+03  0.7818608E-02  0.1195678E+00
          4   -1    0    0  501    0  0.00000000000E+00  0.00000000000E+00  0.38303303905E+03  0.38303514447E+03  0.12700000000E+01 0.  1.
         -4   -1    0    0    0  501 -0.00000000000E+00 -0.00000000000E+00 -0.71366194407E+02  0.71377493680E+02  0.12700000000E+01 0.  1.
    8880022    1    1    2    0    0  0.48994421095E+01  0.17061715276E+02  0.73020417572E+02  0.17040757336E+03  0.15294330000E+03 0.  0.
    8880022    1    1    2    0    0 -0.48994421095E+01 -0.17061715276E+02  0.23864642707E+03  0.28400506480E+03  0.15294330000E+03 0.  0.
<mgrwt>
<rscale>  0 0.15397000E+03</rscale>
<asrwt>0</asrwt>
<pdfrwt beam="1">  1        4 0.58929190E-01 0.15397000E+03</pdfrwt>
<pdfrwt beam="2">  1       -4 0.10980446E-01 0.15397000E+03</pdfrwt>
<totfact> 0.30381882E+02</totfact>
</mgrwt>
</event>
<event>
 4    1  0.8742165E-009  0.1613667E+03  0.7818608E-02  0.1187162E+00
          4   -1    0    0  501    0  0.00000000000E+00  0.00000000000E+00  0.11037852109E+03  0.11038582707E+03  0.12700000000E+01 0. -1.
         -4   -1    0    0    0  501 -0.00000000000E+00 -0.00000000000E+00 -0.30937384697E+03  0.30937645368E+03  0.12700000000E+01 0. -1.
    8880022    1    1    2    0    0  0.49872883420E+02 -0.12659273482E+02  0.27882448475E+01  0.16139079599E+03  0.15294330000E+03 0. -1.
    8880022    1    1    2    0    0 -0.49872883420E+02  0.12659273482E+02 -0.20178357073E+03  0.25837148476E+03  0.15294330000E+03 0. -1.
<mgrwt>
<rscale>  0 0.16136671E+03</rscale>
<asrwt>0</asrwt>
<pdfrwt beam="1">  1        4 0.16982074E-01 0.16136671E+03</pdfrwt>
<pdfrwt beam="2">  1       -4 0.47596739E-01 0.16136671E+03</pdfrwt>
<totfact> 0.22315497E+02</totfact>
</mgrwt>
</event>
<event>
 4    1  0.8742165E-009  0.2438778E+03  0.7818608E-02  0.1117236E+00
         -4   -1    0    0    0  501 -0.00000000000E+00  0.00000000000E+00  0.49776766630E+03  0.49776928643E+03  0.12700000000E+01 0.  1.
          4   -1    0    0  501    0  0.00000000000E+00 -0.00000000000E+00 -0.17680084930E+03  0.17680541058E+03  0.12700000000E+01 0.  1.
    8880022    1    1    2    0    0  0.22673669727E+02  0.18860181794E+03  0.35252761728E+03  0.42866317195E+03  0.15294330000E+03 0.  0.
    8880022    1    1    2    0    0 -0.22673669727E+02 -0.18860181794E+03 -0.31560800281E+02  0.24591152506E+03  0.15294330000E+03 0.  0.
<mgrwt>
<rscale>  0 0.24387783E+03</rscale>
<asrwt>0</asrwt>
<pdfrwt beam="1">  1        4 0.27200606E-01 0.24387783E+03</pdfrwt>
<pdfrwt beam="2">  1       -4 0.76580117E-01 0.24387783E+03</pdfrwt>
<totfact> 0.36350335E+01</totfact>
</mgrwt>
</event>
<event>
 4    1  0.8742165E-009  0.1662107E+03  0.7818608E-02  0.1181858E+00
         -4   -1    0    0    0  501 -0.00000000000E+00  0.00000000000E+00  0.31068216541E+02  0.31094163103E+02  0.12700000000E+01 0. -1.
          4   -1    0    0  501    0  0.00000000000E+00 -0.00000000000E+00 -0.93292143812E+03  0.93292230256E+03  0.12700000000E+01 0. -1.
    8880022    1    1    2    0    0 -0.16766979311E+02  0.62874553376E+02 -0.55574004037E+03  0.58006291602E+03  0.15294330000E+03 0.  0.
    8880022    1    1    2    0    0  0.16766979311E+02 -0.62874553376E+02 -0.34611318121E+03  0.38395354964E+03  0.15294330000E+03 0.  0.
<mgrwt>
<rscale>  0 0.16621069E+03</rscale>
<asrwt>0</asrwt>
<pdfrwt beam="1">  1        4 0.14352842E+00 0.16621069E+03</pdfrwt>
<pdfrwt beam="2">  1       -4 0.47817887E-02 0.16621069E+03</pdfrwt>
<totfact> 0.15818972E+02</totfact>
</mgrwt>
</event>
<event>
 4    1  0.8742165E-009  0.2123886E+03  0.7818608E-02  0.1139688E+00
          4   -1    0    0  501    0  0.00000000000E+00  0.00000000000E+00  0.11150761430E+03  0.11151484631E+03  0.12700000000E+01 0.  1.
         -4   -1    0    0    0  501 -0.00000000000E+00 -0.00000000000E+00 -0.46380030191E+03  0.46380204069E+03  0.12700000000E+01 0.  1.
    8880022    1    1    2    0    0  0.10704715881E+03  0.10128270813E+03 -0.27899039771E+03  0.35063453368E+03  0.15294330000E+03 0.  0.
    8880022    1    1    2    0    0 -0.10704715881E+03 -0.10128270813E+03 -0.73302289890E+02  0.22468235332E+03  0.15294330000E+03 0.  0.
<mgrwt>
<rscale>  0 0.21238864E+03</rscale>
<asrwt>0</asrwt>
<pdfrwt beam="1">  1        4 0.17155708E-01 0.21238864E+03</pdfrwt>
<pdfrwt beam="2">  1       -4 0.71354582E-01 0.21238864E+03</pdfrwt>
<totfact> 0.97333435E+01</totfact>
</mgrwt>
</event>
<event>
 4    1  0.8742165E-009  0.1700994E+03  0.7818608E-02  0.1177744E+00
          4   -1    0    0  501    0  0.00000000000E+00  0.00000000000E+00  0.56311234096E+02  0.56325553574E+02  0.12700000000E+01 0.  1.
         -4   -1    0    0    0  501 -0.00000000000E+00 -0.00000000000E+00 -0.87127897877E+03  0.87127990436E+03  0.12700000000E+01 0.  1.
    8880022    1    1    2    0    0 -0.72661272879E+02  0.16201485475E+02 -0.11037668848E+03  0.20277281643E+03  0.15294330000E+03 0.  0.
    8880022    1    1    2    0    0  0.72661272879E+02 -0.16201485475E+02 -0.70459105619E+03  0.72483264151E+03  0.15294330000E+03 0.  0.
<mgrwt>
<rscale>  0 0.17009939E+03</rscale>
<asrwt>0</asrwt>
<pdfrwt beam="1">  1        4 0.86644402E-02 0.17009939E+03</pdfrwt>
<pdfrwt beam="2">  1       -4 0.13404408E+00 0.17009939E+03</pdfrwt>
<totfact> 0.71044577E+01</totfact>
</mgrwt>
</event>
<event>
 4    1  0.8742165E-009  0.1840780E+03  0.7818608E-02  0.1163914E+00
          4   -1    0    0  501    0  0.00000000000E+00  0.00000000000E+00  0.40754528004E+02  0.40774311187E+02  0.12700000000E+01 0.  1.
         -4   -1    0    0    0  501 -0.00000000000E+00 -0.00000000000E+00 -0.83206025751E+03  0.83206122673E+03  0.12700000000E+01 0.  1.
    8880022    1    1    2    0    0  0.53687339904E+01  0.10229481046E+03 -0.40958638613E+03  0.44904978818E+03  0.15294330000E+03 0.  0.
    8880022    1    1    2    0    0 -0.53687339904E+01 -0.10229481046E+03 -0.38171934338E+03  0.42378574973E+03  0.15294330000E+03 0.  0.
<mgrwt>
<rscale>  0 0.18407799E+03</rscale>
<asrwt>0</asrwt>
<pdfrwt beam="1">  1        4 0.62715244E-02 0.18407799E+03</pdfrwt>
<pdfrwt beam="2">  1       -4 0.12801085E+00 0.18407799E+03</pdfrwt>
<totfact> 0.13745277E+02</totfact>
</mgrwt>
</event>
<event>
 4    1  0.8742165E-009  0.4963332E+03  0.7818608E-02  0.1014740E+00
          4   -1    0    0  501    0  0.00000000000E+00  0.00000000000E+00  0.23833680702E+03  0.23834019065E+03  0.12700000000E+01 0. -1.
         -4   -1    0    0    0  501 -0.00000000000E+00 -0.00000000000E+00 -0.10793879298E+04  0.10793886769E+04  0.12700000000E+01 0. -1.
    8880022    1    1    2    0    0  0.23807906018E+03 -0.40776634257E+03 -0.28481937076E+03  0.57224885846E+03  0.15294330000E+03 0.  0.
    8880022    1    1    2    0    0 -0.23807906018E+03  0.40776634257E+03 -0.55623175199E+03  0.74548000910E+03  0.15294330000E+03 0.  0.
<mgrwt>
<rscale>  0 0.49633324E+03</rscale>
<asrwt>0</asrwt>
<pdfrwt beam="1">  1        4 0.36667519E-01 0.49633324E+03</pdfrwt>
<pdfrwt beam="2">  1       -4 0.16606000E+00 0.49633324E+03</pdfrwt>
<totfact> 0.32228861E+00</totfact>
</mgrwt>
</event>
<event>
 4    1  0.8742165E-009  0.1844724E+03  0.7818608E-02  0.1163543E+00
          4   -1    0    0  501    0  0.00000000000E+00  0.00000000000E+00  0.48282625199E+02  0.48299325007E+02  0.12700000000E+01 0.  1.
         -4   -1    0    0    0  501 -0.00000000000E+00 -0.00000000000E+00 -0.10160362059E+04  0.10160369997E+04  0.12700000000E+01 0.  1.
    8880022    1    1    2    0    0 -0.88961368925E+02  0.52194817020E+02 -0.18928159652E+03  0.26430588317E+03  0.15294330000E+03 0.  0.
    8880022    1    1    2    0    0  0.88961368925E+02 -0.52194817020E+02 -0.77847198422E+03  0.80003044149E+03  0.15294330000E+03 0.  0.
<mgrwt>
<rscale>  0 0.18447243E+03</rscale>
<asrwt>0</asrwt>
<pdfrwt beam="1">  1        4 0.74294426E-02 0.18447243E+03</pdfrwt>
<pdfrwt beam="2">  1       -4 0.15631459E+00 0.18447243E+03</pdfrwt>
<totfact> 0.62746641E+01</totfact>
</mgrwt>
</event>
<event>
 4    1  0.8742165E-009  0.3001089E+03  0.7818608E-02  0.1085186E+00
         -4   -1    0    0    0  501 -0.00000000000E+00  0.00000000000E+00  0.10456144634E+03  0.10456915875E+03  0.12700000000E+01 0. -1.
          4   -1    0    0  501    0  0.00000000000E+00 -0.00000000000E+00 -0.90053105585E+03  0.90053195138E+03  0.12700000000E+01 0. -1.
    8880022    1    1    2    0    0 -0.10465116688E+03  0.23605467931E+03 -0.29312301624E+03  0.41950737064E+03  0.15294330000E+03 0.  0.
    8880022    1    1    2    0    0  0.10465116688E+03 -0.23605467931E+03 -0.50284659327E+03  0.58559373949E+03  0.15294330000E+03 0.  0.
<mgrwt>
<rscale>  0 0.30010887E+03</rscale>
<asrwt>0</asrwt>
<pdfrwt beam="1">  1        4 0.13854390E+00 0.30010887E+03</pdfrwt>
<pdfrwt beam="2">  1       -4 0.16087039E-01 0.30010887E+03</pdfrwt>
<totfact> 0.23847990E+01</totfact>
</mgrwt>
</event>
<event>
 4    1  0.8742165E-009  0.3985560E+03  0.7818608E-02  0.1044281E+00
         -4   -1    0    0    0  501 -0.00000000000E+00  0.00000000000E+00  0.13267648432E+04  0.13267654510E+04  0.12700000000E+01 0. -1.
          4   -1    0    0  501    0  0.00000000000E+00 -0.00000000000E+00 -0.11983829151E+03  0.11984502081E+03  0.12700000000E+01 0. -1.
    8880022    1    1    2    0    0 -0.77406469342E+02  0.35981036816E+03  0.62609184678E+03  0.74218455667E+03  0.15294330000E+03 0.  0.
    8880022    1    1    2    0    0  0.77406469342E+02 -0.35981036816E+03  0.58083470491E+03  0.70442591518E+03  0.15294330000E+03 0.  0.
<mgrwt>
<rscale>  0 0.39855604E+03</rscale>
<asrwt>0</asrwt>
<pdfrwt beam="1">  1        4 0.18437224E-01 0.39855604E+03</pdfrwt>
<pdfrwt beam="2">  1       -4 0.20411824E+00 0.39855604E+03</pdfrwt>
<totfact> 0.65492681E+00</totfact>
</mgrwt>
</event>
<event>
 4    1  0.8742165E-009  0.2319581E+03  0.7818608E-02  0.1125269E+00
         -4   -1    0    0    0  501 -0.00000000000E+00  0.00000000000E+00  0.17674370662E+03  0.17674826938E+03  0.12700000000E+01 0. -1.
          4   -1    0    0  501    0  0.00000000000E+00 -0.00000000000E+00 -0.39536636770E+03  0.39536840745E+03  0.12700000000E+01 0. -1.
    8880022    1    1    2    0    0  0.13276274795E+03 -0.11307953211E+03 -0.24651430888E+03  0.33848764427E+03  0.15294330000E+03 0.  0.
    8880022    1    1    2    0    0 -0.13276274795E+03  0.11307953211E+03  0.27891647801E+02  0.23362903256E+03  0.15294330000E+03 0.  0.
<mgrwt>
<rscale>  0 0.23195814E+03</rscale>
<asrwt>0</asrwt>
<pdfrwt beam="1">  1        4 0.60826103E-01 0.23195814E+03</pdfrwt>
<pdfrwt beam="2">  1       -4 0.27191847E-01 0.23195814E+03</pdfrwt>
<totfact> 0.59679879E+01</totfact>
</mgrwt>
</event>
<event>
 4    1  0.8742165E-009  0.2642092E+03  0.7818608E-02  0.1104640E+00
         -4   -1    0    0    0  501 -0.00000000000E+00  0.00000000000E+00  0.70109613252E+03  0.70109728279E+03  0.12700000000E+01 0.  1.
          4   -1    0    0  501    0  0.00000000000E+00 -0.00000000000E+00 -0.10991616546E+03  0.10992350217E+03  0.12700000000E+01 0.  1.
    8880022    1    1    2    0    0  0.14423452687E+00  0.21544103491E+03  0.17113767881E+03  0.31479297713E+03  0.15294330000E+03 0.  0.
    8880022    1    1    2    0    0 -0.14423452687E+00 -0.21544103491E+03  0.42004228826E+03  0.49622780783E+03  0.15294330000E+03 0.  0.
<mgrwt>
<rscale>  0 0.26420922E+03</rscale>
<asrwt>0</asrwt>
<pdfrwt beam="1">  1        4 0.16910833E-01 0.26420922E+03</pdfrwt>
<pdfrwt beam="2">  1       -4 0.10786159E+00 0.26420922E+03</pdfrwt>
<totfact> 0.39907411E+01</totfact>
</mgrwt>
</event>
<event>
 4    1  0.8742165E-009  0.2472988E+03  0.7818608E-02  0.1115024E+00
         -4   -1    0    0    0  501 -0.00000000000E+00  0.00000000000E+00  0.32996893976E+03  0.32997138377E+03  0.12700000000E+01 0.  1.
          4   -1    0    0  501    0  0.00000000000E+00 -0.00000000000E+00 -0.26576008754E+03  0.26576312203E+03  0.12700000000E+01 0.  1.
    8880022    1    1    2    0    0 -0.88207607535E+02 -0.17316027116E+03 -0.13175342106E+03  0.28020649263E+03  0.15294330000E+03 0.  0.
    8880022    1    1    2    0    0  0.88207607535E+02  0.17316027116E+03  0.19596227328E+03  0.31552801318E+03  0.15294330000E+03 0.  0.
<mgrwt>
<rscale>  0 0.24729884E+03</rscale>
<asrwt>0</asrwt>
<pdfrwt beam="1">  1        4 0.40886589E-01 0.24729884E+03</pdfrwt>
<pdfrwt beam="2">  1       -4 0.50764873E-01 0.24729884E+03</pdfrwt>
<totfact> 0.39800453E+01</totfact>
</mgrwt>
</event>
<event>
 4    1  0.8742165E-009  0.1687512E+03  0.7818608E-02  0.1179156E+00
          4   -1    0    0  501    0  0.00000000000E+00  0.00000000000E+00  0.16902194610E+02  0.16949840195E+02  0.12700000000E+01 0.  1.
         -4   -1    0    0    0  501 -0.00000000000E+00 -0.00000000000E+00 -0.17261398400E+04  0.17261403072E+04  0.12700000000E+01 0.  1.
    8880022    1    1    2    0    0  0.25219597696E+02  0.66703006987E+02 -0.99336922179E+03  0.10076008054E+04  0.15294330000E+03 0. -1.
    8880022    1    1    2    0    0 -0.25219597696E+02 -0.66703006987E+02 -0.71586842362E+03  0.73548934201E+03  0.15294330000E+03 0. -1.
<mgrwt>
<rscale>  0 0.16875121E+03</rscale>
<asrwt>0</asrwt>
<pdfrwt beam="1">  1        4 0.26040400E-02 0.16875121E+03</pdfrwt>
<pdfrwt beam="2">  1       -4 0.26556354E+00 0.16875121E+03</pdfrwt>
<totfact> 0.69435180E+01</totfact>
</mgrwt>
</event>
<event>
 4    1  0.8742165E-009  0.1766496E+03  0.7818608E-02  0.1171086E+00
         -4   -1    0    0    0  501 -0.00000000000E+00  0.00000000000E+00  0.95361930973E+02  0.95370387327E+02  0.12700000000E+01 0.  1.
          4   -1    0    0  501    0  0.00000000000E+00 -0.00000000000E+00 -0.12724146475E+04  0.12724152813E+04  0.12700000000E+01 0.  1.
    8880022    1    1    2    0    0  0.38106700719E+02  0.79757860465E+02  0.90925660577E+00  0.17665196491E+03  0.15294330000E+03 0.  0.
    8880022    1    1    2    0    0 -0.38106700719E+02 -0.79757860465E+02 -0.11779619731E+04  0.11911337037E+04  0.15294330000E+03 0.  0.
<mgrwt>
<rscale>  0 0.17664962E+03</rscale>
<asrwt>0</asrwt>
<pdfrwt beam="1">  1        4 0.19575679E+00 0.17664962E+03</pdfrwt>
<pdfrwt beam="2">  1       -4 0.14671766E-01 0.17664962E+03</pdfrwt>
<totfact> 0.10631681E+01</totfact>
</mgrwt>
</event>
<event>
 4    1  0.8742165E-009  0.3462918E+03  0.7818608E-02  0.1064147E+00
          4   -1    0    0  501    0  0.00000000000E+00  0.00000000000E+00  0.50123074493E+03  0.50123235386E+03  0.12700000000E+01 0.  1.
         -4   -1    0    0    0  501 -0.00000000000E+00 -0.00000000000E+00 -0.40329427614E+03  0.40329627579E+03  0.12700000000E+01 0.  1.
    8880022    1    1    2    0    0  0.44592929565E+01  0.31065489348E+03 -0.23948023025E+03  0.42103299375E+03  0.15294330000E+03 0.  0.
    8880022    1    1    2    0    0 -0.44592929565E+01 -0.31065489348E+03  0.33741669903E+03  0.48349563590E+03  0.15294330000E+03 0.  0.
<mgrwt>
<rscale>  0 0.34629179E+03</rscale>
<asrwt>0</asrwt>
<pdfrwt beam="1">  1        4 0.77112700E-01 0.34629179E+03</pdfrwt>
<pdfrwt beam="2">  1       -4 0.62045551E-01 0.34629179E+03</pdfrwt>
<totfact> 0.70188549E+00</totfact>
</mgrwt>
</event>
<event>
 4    1  0.8742165E-009  0.1761158E+03  0.7818608E-02  0.1171616E+00
          4   -1    0    0  501    0  0.00000000000E+00  0.00000000000E+00  0.10186334297E+03  0.10187125964E+03  0.12700000000E+01 0. -1.
         -4   -1    0    0    0  501 -0.00000000000E+00 -0.00000000000E+00 -0.74755767368E+03  0.74755875246E+03  0.12700000000E+01 0. -1.
    8880022    1    1    2    0    0 -0.86075399007E+02  0.14701838591E+02 -0.64982313660E+03  0.67326583178E+03  0.15294330000E+03 0.  0.
    8880022    1    1    2    0    0  0.86075399007E+02 -0.14701838591E+02  0.41288058902E+01  0.17616418031E+03  0.15294330000E+03 0.  0.
<mgrwt>
<rscale>  0 0.17611579E+03</rscale>
<asrwt>0</asrwt>
<pdfrwt beam="1">  1        4 0.15671976E-01 0.17611579E+03</pdfrwt>
<pdfrwt beam="2">  1       -4 0.11500956E+00 0.17611579E+03</pdfrwt>
<totfact> 0.37489016E+01</totfact>
</mgrwt>
</event>
<event>
 4    1  0.8742165E-009  0.2360804E+03  0.7818608E-02  0.1122432E+00
          4   -1    0    0  501    0  0.00000000000E+00  0.00000000000E+00  0.26904944753E+03  0.26905244492E+03  0.12700000000E+01 0. -1.
         -4   -1    0    0    0  501 -0.00000000000E+00 -0.00000000000E+00 -0.50138335650E+03  0.50138496495E+03  0.12700000000E+01 0. -1.
    8880022    1    1    2    0    0 -0.64719639866E+02  0.16779054885E+03  0.17893316570E+03  0.29622800487E+03  0.15294330000E+03 0.  0.
    8880022    1    1    2    0    0  0.64719639866E+02 -0.16779054885E+03 -0.41126707466E+03  0.47420940500E+03  0.15294330000E+03 0.  0.
<mgrwt>
<rscale>  0 0.23608040E+03</rscale>
<asrwt>0</asrwt>
<pdfrwt beam="1">  1        4 0.41392577E-01 0.23608040E+03</pdfrwt>
<pdfrwt beam="2">  1       -4 0.77136255E-01 0.23608040E+03</pdfrwt>
<totfact> 0.15781312E+01</totfact>
</mgrwt>
</event>
<event>
 4    1  0.8742165E-009  0.4753269E+03  0.7818608E-02  0.1020427E+00
         -4   -1    0    0    0  501 -0.00000000000E+00  0.00000000000E+00  0.76944376036E+03  0.76944480846E+03  0.12700000000E+01 0.  1.
          4   -1    0    0  501    0  0.00000000000E+00 -0.00000000000E+00 -0.29458592729E+03  0.29458866485E+03  0.12700000000E+01 0.  1.
    8880022    1    1    2    0    0  0.13330563943E+03  0.42985298703E+03  0.26769682917E+03  0.54552472843E+03  0.15294330000E+03 0.  0.
    8880022    1    1    2    0    0 -0.13330563943E+03 -0.42985298703E+03  0.20716100391E+03  0.51850874488E+03  0.15294330000E+03 0.  0.
<mgrwt>
<rscale>  0 0.47532687E+03</rscale>
<asrwt>0</asrwt>
<pdfrwt beam="1">  1        4 0.45321203E-01 0.47532687E+03</pdfrwt>
<pdfrwt beam="2">  1       -4 0.11837625E+00 0.47532687E+03</pdfrwt>
<totfact> 0.50440690E+00</totfact>
</mgrwt>
</event>
<event>
 4    1  0.8742165E-009  0.1776316E+03  0.7818608E-02  0.1170115E+00
          4   -1    0    0  501    0  0.00000000000E+00  0.00000000000E+00  0.72163102736E+03  0.72163214490E+03  0.12700000000E+01 0. -1.
         -4   -1    0    0    0  501 -0.00000000000E+00 -0.00000000000E+00 -0.46983840512E+02  0.47001001790E+02  0.12700000000E+01 0. -1.
    8880022    1    1    2    0    0  0.51892848796E+02 -0.73948970779E+02  0.43868693512E+03  0.47328553548E+03  0.15294330000E+03 0.  0.
    8880022    1    1    2    0    0 -0.51892848796E+02  0.73948970779E+02  0.23596025173E+03  0.29534761121E+03  0.15294330000E+03 0.  0.
<mgrwt>
<rscale>  0 0.17763156E+03</rscale>
<asrwt>0</asrwt>
<pdfrwt beam="1">  1        4 0.11102157E+00 0.17763156E+03</pdfrwt>
<pdfrwt beam="2">  1       -4 0.72296891E-02 0.17763156E+03</pdfrwt>
<totfact> 0.15263669E+02</totfact>
</mgrwt>
</event>
<event>
 4    1  0.8742165E-009  0.2359584E+03  0.7818608E-02  0.1122515E+00
          4   -1    0    0  501    0  0.00000000000E+00  0.00000000000E+00  0.36156493958E+03  0.36156717001E+03  0.12700000000E+01 0. -1.
         -4   -1    0    0    0  501 -0.00000000000E+00 -0.00000000000E+00 -0.11346146225E+04  0.11346153332E+04  0.12700000000E+01 0.  1.
    8880022    1    1    2    0    0 -0.16733707094E+03  0.65444805690E+02  0.30895186491E+03  0.38875136752E+03  0.15294330000E+03 0.  0.
    8880022    1    1    2    0    0  0.16733707094E+03 -0.65444805690E+02 -0.10820015478E+04  0.11074311357E+04  0.15294330000E+03 0.  1.
<mgrwt>
<rscale>  0 0.23595841E+03</rscale>
<asrwt>0</asrwt>
<pdfrwt beam="1">  1        4 0.55625602E-01 0.23595841E+03</pdfrwt>
<pdfrwt beam="2">  1       -4 0.17455632E+00 0.23595841E+03</pdfrwt>
<totfact> 0.11777148E+00</totfact>
</mgrwt>
</event>
<event>
 4    1  0.8742165E-009  0.2194173E+03  0.7818608E-02  0.1134318E+00
          4   -1    0    0  501    0  0.00000000000E+00  0.00000000000E+00  0.50979832233E+02  0.50995648780E+02  0.12700000000E+01 0. -1.
         -4   -1    0    0    0  501 -0.00000000000E+00 -0.00000000000E+00 -0.10614935370E+04  0.10614942967E+04  0.12700000000E+01 0. -1.
    8880022    1    1    2    0    0  0.11135836913E+03  0.11113787407E+03 -0.69015067957E+03  0.72419053222E+03  0.15294330000E+03 0.  0.
    8880022    1    1    2    0    0 -0.11135836913E+03 -0.11113787407E+03 -0.32036302515E+03  0.38829941325E+03  0.15294330000E+03 0.  0.
<mgrwt>
<rscale>  0 0.21941733E+03</rscale>
<asrwt>0</asrwt>
<pdfrwt beam="1">  1        4 0.78443270E-02 0.21941733E+03</pdfrwt>
<pdfrwt beam="2">  1       -4 0.16330796E+00 0.21941733E+03</pdfrwt>
<totfact> 0.52090680E+01</totfact>
</mgrwt>
</event>
<event>
 4    1  0.8742165E-009  0.1934395E+03  0.7818608E-02  0.1155395E+00
         -4   -1    0    0    0  501 -0.00000000000E+00  0.00000000000E+00  0.28090023810E+03  0.28090310903E+03  0.12700000000E+01 0. -1.
          4   -1    0    0  501    0  0.00000000000E+00 -0.00000000000E+00 -0.16584706331E+03  0.16585192585E+03  0.12700000000E+01 0. -1.
    8880022    1    1    2    0    0 -0.11601098284E+03 -0.23845917255E+02  0.15662607355E+03  0.24889868589E+03  0.15294330000E+03 0.  0.
    8880022    1    1    2    0    0  0.11601098284E+03  0.23845917255E+02 -0.41572898760E+02  0.19785634899E+03  0.15294330000E+03 0.  0.
<mgrwt>
<rscale>  0 0.19343947E+03</rscale>
<asrwt>0</asrwt>
<pdfrwt beam="1">  1        4 0.25515528E-01 0.19343947E+03</pdfrwt>
<pdfrwt beam="2">  1       -4 0.43216016E-01 0.19343947E+03</pdfrwt>
<totfact> 0.13302691E+02</totfact>
</mgrwt>
</event>
<event>
 4    1  0.8742165E-009  0.2587795E+03  0.7818608E-02  0.1107879E+00
          4   -1    0    0  501    0  0.00000000000E+00  0.00000000000E+00  0.77533748597E+03  0.77533852609E+03  0.12700000000E+01 0. -1.
         -4   -1    0    0    0  501 -0.00000000000E+00 -0.00000000000E+00 -0.86376024904E+02  0.86385360902E+02  0.12700000000E+01 0. -1.
    8880022    1    1    2    0    0 -0.91645758333E+02  0.18755331139E+03  0.34924762518E+03  0.43467314886E+03  0.15294330000E+03 0.  0.
    8880022    1    1    2    0    0  0.91645758333E+02 -0.18755331139E+03  0.33971383588E+03  0.42705073813E+03  0.15294330000E+03 0.  0.
<mgrwt>
<rscale>  0 0.25877953E+03</rscale>
<asrwt>0</asrwt>
<pdfrwt beam="1">  1        4 0.11928349E+00 0.25877953E+03</pdfrwt>
<pdfrwt beam="2">  1       -4 0.13289417E-01 0.25877953E+03</pdfrwt>
<totfact> 0.47867665E+01</totfact>
</mgrwt>
</event>
<event>
 4    1  0.8742165E-009  0.2134993E+03  0.7818608E-02  0.1138824E+00
         -4   -1    0    0    0  501 -0.00000000000E+00  0.00000000000E+00  0.29982981947E+03  0.29983250915E+03  0.12700000000E+01 0.  1.
          4   -1    0    0  501    0  0.00000000000E+00 -0.00000000000E+00 -0.18246215834E+03  0.18246657811E+03  0.12700000000E+01 0.  1.
    8880022    1    1    2    0    0  0.99377012935E+02 -0.11097081279E+03 -0.39814317974E+02  0.21717998278E+03  0.15294330000E+03 0.  0.
    8880022    1    1    2    0    0 -0.99377012935E+02  0.11097081279E+03  0.15718197910E+03  0.26511910448E+03  0.15294330000E+03 0.  0.
<mgrwt>
<rscale>  0 0.21349933E+03</rscale>
<asrwt>0</asrwt>
<pdfrwt beam="1">  1        4 0.28071648E-01 0.21349933E+03</pdfrwt>
<pdfrwt beam="2">  1       -4 0.46128211E-01 0.21349933E+03</pdfrwt>
<totfact> 0.98797220E+01</totfact>
</mgrwt>
</event>
<event>
 4    1  0.8742165E-009  0.1959727E+03  0.7818608E-02  0.1153182E+00
         -4   -1    0    0    0  501 -0.00000000000E+00  0.00000000000E+00  0.25159077717E+03  0.25159398256E+03  0.12700000000E+01 0. -1.
          4   -1    0    0  501    0  0.00000000000E+00 -0.00000000000E+00 -0.23790947092E+03  0.23791286063E+03  0.12700000000E+01 0. -1.
    8880022    1    1    2    0    0  0.11670569037E+03 -0.37328794482E+02  0.15336335896E+03  0.24884860849E+03  0.15294330000E+03 0.  0.
    8880022    1    1    2    0    0 -0.11670569037E+03  0.37328794482E+02 -0.13968205271E+03  0.24065823469E+03  0.15294330000E+03 0.  0.
<mgrwt>
<rscale>  0 0.19597273E+03</rscale>
<asrwt>0</asrwt>
<pdfrwt beam="1">  1        4 0.36601964E-01 0.19597273E+03</pdfrwt>
<pdfrwt beam="2">  1       -4 0.38706781E-01 0.19597273E+03</pdfrwt>
<totfact> 0.83315237E+01</totfact>
</mgrwt>
</event>
<event>
 4    1  0.8742165E-009  0.1575623E+03  0.7818608E-02  0.1191477E+00
          4   -1    0    0  501    0  0.00000000000E+00  0.00000000000E+00  0.16359953203E+03  0.16360446137E+03  0.12700000000E+01 0. -1.
         -4   -1    0    0    0  501 -0.00000000000E+00 -0.00000000000E+00 -0.16669848421E+03  0.16670332192E+03  0.12700000000E+01 0. -1.
    8880022    1    1    2    0    0  0.36838218509E+02  0.87849374629E+01 -0.51024116264E+02  0.16561806340E+03  0.15294330000E+03 0. -1.
    8880022    1    1    2    0    0 -0.36838218509E+02 -0.87849374629E+01  0.47925164077E+02  0.16468971989E+03  0.15294330000E+03 0. -1.
<mgrwt>
<rscale>  0 0.15756231E+03</rscale>
<asrwt>0</asrwt>
<pdfrwt beam="1">  1        4 0.25169910E-01 0.15756231E+03</pdfrwt>
<pdfrwt beam="2">  1       -4 0.25646672E-01 0.15756231E+03</pdfrwt>
<totfact> 0.36112655E+02</totfact>
</mgrwt>
</event>
<event>
 4    1  0.8742165E-009  0.3762055E+03  0.7818608E-02  0.1052345E+00
         -4   -1    0    0    0  501 -0.00000000000E+00  0.00000000000E+00  0.65715522626E+03  0.65715645344E+03  0.12700000000E+01 0. -1.
          4   -1    0    0  501    0  0.00000000000E+00 -0.00000000000E+00 -0.25730797135E+03  0.25731110551E+03  0.12700000000E+01 0. -1.
    8880022    1    1    2    0    0 -0.37842239932E+02 -0.34162387089E+03  0.38452551632E+03  0.53795021145E+03  0.15294330000E+03 0.  0.
    8880022    1    1    2    0    0  0.37842239932E+02  0.34162387089E+03  0.15321738591E+02  0.37651734750E+03  0.15294330000E+03 0.  0.
<mgrwt>
<rscale>  0 0.37620547E+03</rscale>
<asrwt>0</asrwt>
<pdfrwt beam="1">  1        4 0.39586178E-01 0.37620547E+03</pdfrwt>
<pdfrwt beam="2">  1       -4 0.10110114E+00 0.37620547E+03</pdfrwt>
<totfact> 0.96062038E+00</totfact>
</mgrwt>
</event>
<event>
 4    1  0.8742165E-009  0.2251221E+03  0.7818608E-02  0.1130121E+00
         -4   -1    0    0    0  501 -0.00000000000E+00  0.00000000000E+00  0.12138298841E+03  0.12138963207E+03  0.12700000000E+01 0. -1.
          4   -1    0    0  501    0  0.00000000000E+00 -0.00000000000E+00 -0.42334810834E+03  0.42335001326E+03  0.12700000000E+01 0. -1.
    8880022    1    1    2    0    0  0.16458672002E+03  0.14125157121E+02 -0.11897622097E+03  0.25462777273E+03  0.15294330000E+03 0. -1.
    8880022    1    1    2    0    0 -0.16458672002E+03 -0.14125157121E+02 -0.18298889896E+03  0.29011187261E+03  0.15294330000E+03 0. -1.
<mgrwt>
<rscale>  0 0.22512210E+03</rscale>
<asrwt>0</asrwt>
<pdfrwt beam="1">  1        4 0.65131135E-01 0.22512210E+03</pdfrwt>
<pdfrwt beam="2">  1       -4 0.18674964E-01 0.22512210E+03</pdfrwt>
<totfact> 0.10266337E+02</totfact>
</mgrwt>
</event>
<event>
 4    1  0.8742165E-009  0.1715707E+03  0.7818608E-02  0.1176220E+00
          4   -1    0    0  501    0  0.00000000000E+00  0.00000000000E+00  0.69578974550E+02  0.69590564012E+02  0.12700000000E+01 0.  1.
         -4   -1    0    0    0  501 -0.00000000000E+00 -0.00000000000E+00 -0.12872417223E+04  0.12872423488E+04  0.12700000000E+01 0.  1.
    8880022    1    1    2    0    0 -0.65539496475E+01  0.77471864786E+02 -0.52956311526E+02  0.17955742267E+03  0.15294330000E+03 0.  0.
    8880022    1    1    2    0    0  0.65539496475E+01 -0.77471864786E+02 -0.11647064363E+04  0.11772754902E+04  0.15294330000E+03 0.  0.
<mgrwt>
<rscale>  0 0.17157068E+03</rscale>
<asrwt>0</asrwt>
<pdfrwt beam="1">  1        4 0.10705398E-01 0.17157068E+03</pdfrwt>
<pdfrwt beam="2">  1       -4 0.19803811E+00 0.17157068E+03</pdfrwt>
<totfact> 0.17676445E+01</totfact>
</mgrwt>
</event>
<event>
 4    1  0.8742165E-009  0.1565603E+03  0.7818608E-02  0.1192636E+00
          4   -1    0    0  501    0  0.00000000000E+00  0.00000000000E+00  0.22339989941E+03  0.22340350928E+03  0.12700000000E+01 0.  1.
         -4   -1    0    0    0  501 -0.00000000000E+00 -0.00000000000E+00 -0.11223969429E+03  0.11224687913E+03  0.12700000000E+01 0.  1.
    8880022    1    1    2    0    0 -0.14716485320E+02 -0.30048163202E+02  0.80772048088E+02  0.17616822591E+03  0.15294330000E+03 0. -1.
    8880022    1    1    2    0    0  0.14716485320E+02  0.30048163202E+02  0.30388157038E+02  0.15948216250E+03  0.15294330000E+03 0. -1.
<mgrwt>
<rscale>  0 0.15656028E+03</rscale>
<asrwt>0</asrwt>
<pdfrwt beam="1">  1        4 0.34370045E-01 0.15656028E+03</pdfrwt>
<pdfrwt beam="2">  1       -4 0.17268476E-01 0.15656028E+03</pdfrwt>
<totfact> 0.41032953E+02</totfact>
</mgrwt>
</event>
<event>
 4    1  0.8742165E-009  0.2544774E+03  0.7818608E-02  0.1110507E+00
         -4   -1    0    0    0  501 -0.00000000000E+00  0.00000000000E+00  0.47071490146E+02  0.47088619480E+02  0.12700000000E+01 0. -1.
          4   -1    0    0  501    0  0.00000000000E+00 -0.00000000000E+00 -0.23575738801E+04  0.23575742222E+04  0.12700000000E+01 0. -1.
    8880022    1    1    2    0    0 -0.20149209051E+03  0.27713370276E+02 -0.19312574782E+04  0.19479512811E+04  0.15294330000E+03 0.  0.
    8880022    1    1    2    0    0  0.20149209051E+03 -0.27713370276E+02 -0.37924491175E+03  0.45671156055E+03  0.15294330000E+03 0.  0.
<mgrwt>
<rscale>  0 0.25447740E+03</rscale>
<asrwt>0</asrwt>
<pdfrwt beam="1">  1        4 0.36270493E+00 0.25447740E+03</pdfrwt>
<pdfrwt beam="2">  1       -4 0.72431135E-02 0.25447740E+03</pdfrwt>
<totfact> 0.35803569E+00</totfact>
</mgrwt>
</event>
<event>
 4    1  0.8742165E-009  0.2762116E+03  0.7818608E-02  0.1097776E+00
          4   -1    0    0  501    0  0.00000000000E+00  0.00000000000E+00  0.18661058074E+03  0.18661490226E+03  0.12700000000E+01 0. -1.
         -4   -1    0    0    0  501 -0.00000000000E+00 -0.00000000000E+00 -0.83834535688E+03  0.83834631883E+03  0.12700000000E+01 0.  1.
    8880022    1    1    2    0    0  0.21622580353E+03  0.78406752234E+02 -0.69269036895E+03  0.74572972125E+03  0.15294330000E+03 0.  0.
    8880022    1    1    2    0    0 -0.21622580353E+03 -0.78406752234E+02  0.40955592814E+02  0.27923149984E+03  0.15294330000E+03 0.  0.
<mgrwt>
<rscale>  0 0.27621164E+03</rscale>
<asrwt>0</asrwt>
<pdfrwt beam="1">  1        4 0.28709727E-01 0.27621164E+03</pdfrwt>
<pdfrwt beam="2">  1       -4 0.12897661E+00 0.27621164E+03</pdfrwt>
<totfact> 0.97624163E+00</totfact>
</mgrwt>
</event>
<event>
 4    1  0.8742165E-009  0.1780009E+03  0.7818608E-02  0.1169752E+00
         -4   -1    0    0    0  501 -0.00000000000E+00  0.00000000000E+00  0.72344398189E+02  0.72355544704E+02  0.12700000000E+01 0.  1.
          4   -1    0    0  501    0  0.00000000000E+00 -0.00000000000E+00 -0.50612360097E+03  0.50612519435E+03  0.12700000000E+01 0.  1.
    8880022    1    1    2    0    0  0.90803641942E+02  0.68825032390E+01 -0.32306671533E+03  0.36885827334E+03  0.15294330000E+03 0.  0.
    8880022    1    1    2    0    0 -0.90803641942E+02 -0.68825032390E+01 -0.11071248745E+03  0.20962246571E+03  0.15294330000E+03 0.  0.
<mgrwt>
<rscale>  0 0.17800091E+03</rscale>
<asrwt>0</asrwt>
<pdfrwt beam="1">  1        4 0.77866147E-01 0.17800091E+03</pdfrwt>
<pdfrwt beam="2">  1       -4 0.11130888E-01 0.17800091E+03</pdfrwt>
<totfact> 0.16673667E+02</totfact>
</mgrwt>
</event>
<event>
 4    1  0.8742165E-009  0.1733684E+03  0.7818608E-02  0.1174380E+00
         -4   -1    0    0    0  501 -0.00000000000E+00  0.00000000000E+00  0.15739116913E+03  0.15739629291E+03  0.12700000000E+01 0.  1.
          4   -1    0    0  501    0  0.00000000000E+00 -0.00000000000E+00 -0.27288824631E+03  0.27289120154E+03  0.12700000000E+01 0.  1.
    8880022    1    1    2    0    0  0.81124036246E+02  0.91559222982E+01 -0.17563225781E+03  0.24678590553E+03  0.15294330000E+03 0.  0.
    8880022    1    1    2    0    0 -0.81124036246E+02 -0.91559222982E+01  0.60135180630E+02  0.18350158891E+03  0.15294330000E+03 0.  0.
<mgrwt>
<rscale>  0 0.17336837E+03</rscale>
<asrwt>0</asrwt>
<pdfrwt beam="1">  1        4 0.41983428E-01 0.17336837E+03</pdfrwt>
<pdfrwt beam="2">  1       -4 0.24214648E-01 0.17336837E+03</pdfrwt>
<totfact> 0.15280001E+02</totfact>
</mgrwt>
</event>
<event>
 4    1  0.8742165E-009  0.1856899E+03  0.7818608E-02  0.1162407E+00
         -4   -1    0    0    0  501 -0.00000000000E+00  0.00000000000E+00  0.36591065695E+03  0.36591286090E+03  0.12700000000E+01 0. -1.
          4   -1    0    0  501    0  0.00000000000E+00 -0.00000000000E+00 -0.10516366311E+03  0.10517133136E+03  0.12700000000E+01 0. -1.
    8880022    1    1    2    0    0 -0.42270815216E+02 -0.96448321809E+02  0.54414759337E+02  0.19349862957E+03  0.15294330000E+03 0.  0.
    8880022    1    1    2    0    0  0.42270815216E+02  0.96448321809E+02  0.20633223450E+03  0.27758556268E+03  0.15294330000E+03 0.  0.
<mgrwt>
<rscale>  0 0.18568994E+03</rscale>
<asrwt>0</asrwt>
<pdfrwt beam="1">  1        4 0.16179785E-01 0.18568994E+03</pdfrwt>
<pdfrwt beam="2">  1       -4 0.56294705E-01 0.18568994E+03</pdfrwt>
<totfact> 0.17593324E+02</totfact>
</mgrwt>
</event>
<event>
 4    1  0.8742165E-009  0.1843582E+03  0.7818608E-02  0.1163651E+00
          4   -1    0    0  501    0  0.00000000000E+00  0.00000000000E+00  0.36927716358E+03  0.36927934743E+03  0.12700000000E+01 0. -1.
         -4   -1    0    0    0  501 -0.00000000000E+00 -0.00000000000E+00 -0.98310050641E+02  0.98318253428E+02  0.12700000000E+01 0. -1.
    8880022    1    1    2    0    0 -0.69774741082E+02 -0.75682144704E+02  0.76406138397E+02  0.19956415640E+03  0.15294330000E+03 0.  0.
    8880022    1    1    2    0    0  0.69774741082E+02  0.75682144704E+02  0.19456097454E+03  0.26803344446E+03  0.15294330000E+03 0.  0.
<mgrwt>
<rscale>  0 0.18435822E+03</rscale>
<asrwt>0</asrwt>
<pdfrwt beam="1">  1        4 0.56812670E-01 0.18435822E+03</pdfrwt>
<pdfrwt beam="2">  1       -4 0.15125422E-01 0.18435822E+03</pdfrwt>
<totfact> 0.19416740E+02</totfact>
</mgrwt>
</event>
<event>
 4    1  0.8742165E-009  0.2452445E+03  0.7818608E-02  0.1116348E+00
          4   -1    0    0  501    0  0.00000000000E+00  0.00000000000E+00  0.94436841543E+03  0.94436926938E+03  0.12700000000E+01 0.  1.
         -4   -1    0    0    0  501 -0.00000000000E+00 -0.00000000000E+00 -0.70665088169E+02  0.70676499530E+02  0.12700000000E+01 0.  1.
    8880022    1    1    2    0    0 -0.16091461125E+03 -0.10420986609E+03  0.59639458051E+03  0.64484987166E+03  0.15294330000E+03 0. -1.
    8880022    1    1    2    0    0  0.16091461125E+03  0.10420986609E+03  0.27730874675E+03  0.37019589725E+03  0.15294330000E+03 0. -1.
<mgrwt>
<rscale>  0 0.24524449E+03</rscale>
<asrwt>0</asrwt>
<pdfrwt beam="1">  1        4 0.14528838E+00 0.24524449E+03</pdfrwt>
<pdfrwt beam="2">  1       -4 0.10872496E-01 0.24524449E+03</pdfrwt>
<totfact> 0.41156399E+01</totfact>
</mgrwt>
</event>
<event>
 4    1  0.8742165E-009  0.5412566E+03  0.7818608E-02  0.1003538E+00
          4   -1    0    0  501    0  0.00000000000E+00  0.00000000000E+00  0.10599083561E+04  0.10599091169E+04  0.12700000000E+01 0. -1.
         -4   -1    0    0    0  501 -0.00000000000E+00 -0.00000000000E+00 -0.28077085793E+03  0.28077373018E+03  0.12700000000E+01 0. -1.
    8880022    1    1    2    0    0  0.47162666248E+03  0.21710664946E+03  0.30590906264E+03  0.62172261791E+03  0.15294330000E+03 0.  0.
    8880022    1    1    2    0    0 -0.47162666248E+03 -0.21710664946E+03  0.47322843549E+03  0.71896022920E+03  0.15294330000E+03 0.  0.
<mgrwt>
<rscale>  0 0.54125656E+03</rscale>
<asrwt>0</asrwt>
<pdfrwt beam="1">  1        4 0.16306310E+00 0.54125656E+03</pdfrwt>
<pdfrwt beam="2">  1       -4 0.43195796E-01 0.54125656E+03</pdfrwt>
<totfact> 0.24385230E+00</totfact>
</mgrwt>
</event>
<event>
 4    1  0.8742165E-009  0.1768230E+03  0.7818608E-02  0.1170914E+00
         -4   -1    0    0    0  501 -0.00000000000E+00  0.00000000000E+00  0.37676518003E+02  0.37697916505E+02  0.12700000000E+01 0. -1.
          4   -1    0    0  501    0  0.00000000000E+00 -0.00000000000E+00 -0.83025031950E+03  0.83025129083E+03  0.12700000000E+01 0. -1.
    8880022    1    1    2    0    0  0.81265148556E+02  0.35646649705E+02 -0.38419618368E+03  0.42293388204E+03  0.15294330000E+03 0.  0.
    8880022    1    1    2    0    0 -0.81265148556E+02 -0.35646649705E+02 -0.40837761781E+03  0.44501532530E+03  0.15294330000E+03 0.  0.
<mgrwt>
<rscale>  0 0.17682297E+03</rscale>
<asrwt>0</asrwt>
<pdfrwt beam="1">  1        4 0.12773253E+00 0.17682297E+03</pdfrwt>
<pdfrwt beam="2">  1       -4 0.57981088E-02 0.17682297E+03</pdfrwt>
<totfact> 0.15619744E+02</totfact>
</mgrwt>
</event>
<event>
 4    1  0.8742165E-009  0.2482735E+03  0.7818608E-02  0.1114401E+00
         -4   -1    0    0    0  501 -0.00000000000E+00  0.00000000000E+00  0.11126120667E+04  0.11126127915E+04  0.12700000000E+01 0.  1.
          4   -1    0    0  501    0  0.00000000000E+00 -0.00000000000E+00 -0.65861091677E+02  0.65873335249E+02  0.12700000000E+01 0.  1.
    8880022    1    1    2    0    0 -0.95731678367E+02  0.17053892973E+03  0.28848291857E+03  0.38060757759E+03  0.15294330000E+03 0.  0.
    8880022    1    1    2    0    0  0.95731678367E+02 -0.17053892973E+03  0.75826805645E+03  0.79787854918E+03  0.15294330000E+03 0.  0.
<mgrwt>
<rscale>  0 0.24827351E+03</rscale>
<asrwt>0</asrwt>
<pdfrwt beam="1">  1        4 0.10133473E-01 0.24827351E+03</pdfrwt>
<pdfrwt beam="2">  1       -4 0.17117208E+00 0.24827351E+03</pdfrwt>
<totfact> 0.30151196E+01</totfact>
</mgrwt>
</event>
<event>
 4    1  0.8742165E-009  0.2107216E+03  0.7818608E-02  0.1140996E+00
          4   -1    0    0  501    0  0.00000000000E+00  0.00000000000E+00  0.64079307732E+02  0.64091891682E+02  0.12700000000E+01 0. -1.
         -4   -1    0    0    0  501 -0.00000000000E+00 -0.00000000000E+00 -0.69520324222E+03  0.69520440224E+03  0.12700000000E+01 0. -1.
    8880022    1    1    2    0    0 -0.46902248709E+02 -0.13715723486E+03 -0.33757434442E+03  0.39794474369E+03  0.15294330000E+03 0.  0.
    8880022    1    1    2    0    0  0.46902248709E+02  0.13715723486E+03 -0.29354959007E+03  0.36135155023E+03  0.15294330000E+03 0.  0.
<mgrwt>
<rscale>  0 0.21072157E+03</rscale>
<asrwt>0</asrwt>
<pdfrwt beam="1">  1        4 0.98594128E-02 0.21072157E+03</pdfrwt>
<pdfrwt beam="2">  1       -4 0.10695540E+00 0.21072157E+03</pdfrwt>
<totfact> 0.10154910E+02</totfact>
</mgrwt>
</event>
<event>
 4    1  0.8742165E-009  0.1639356E+03  0.7818608E-02  0.1184324E+00
          4   -1    0    0  501    0  0.00000000000E+00  0.00000000000E+00  0.18725296436E+03  0.18725727105E+03  0.12700000000E+01 0. -1.
         -4   -1    0    0    0  501 -0.00000000000E+00 -0.00000000000E+00 -0.14920279704E+03  0.14920820201E+03  0.12700000000E+01 0. -1.
    8880022    1    1    2    0    0 -0.35609619372E+02  0.47065626229E+02 -0.13826564611E+02  0.16451761325E+03  0.15294330000E+03 0.  1.
    8880022    1    1    2    0    0  0.35609619372E+02 -0.47065626229E+02  0.51876731930E+02  0.17194785981E+03  0.15294330000E+03 0.  1.
<mgrwt>
<rscale>  0 0.16393557E+03</rscale>
<asrwt>0</asrwt>
<pdfrwt beam="1">  1        4 0.28808895E-01 0.16393557E+03</pdfrwt>
<pdfrwt beam="2">  1       -4 0.22955023E-01 0.16393557E+03</pdfrwt>
<totfact> 0.34663798E+02</totfact>
</mgrwt>
</event>
<event>
 4    1  0.8742165E-009  0.1679755E+03  0.7818608E-02  0.1179976E+00
         -4   -1    0    0    0  501 -0.00000000000E+00  0.00000000000E+00  0.10963037520E+04  0.10963044876E+04  0.12700000000E+01 0. -1.
          4   -1    0    0  501    0  0.00000000000E+00 -0.00000000000E+00 -0.34540636456E+02  0.34563976432E+02  0.12700000000E+01 0. -1.
    8880022    1    1    2    0    0  0.65047588825E+02 -0.24349838551E+02  0.81649049665E+03  0.83359011965E+03  0.15294330000E+03 0.  0.
    8880022    1    1    2    0    0 -0.65047588825E+02  0.24349838551E+02  0.24527261892E+03  0.29727834441E+03  0.15294330000E+03 0.  0.
<mgrwt>
<rscale>  0 0.16797546E+03</rscale>
<asrwt>0</asrwt>
<pdfrwt beam="1">  1        4 0.53157959E-02 0.16797546E+03</pdfrwt>
<pdfrwt beam="2">  1       -4 0.16866397E+00 0.16797546E+03</pdfrwt>
<totfact> 0.87804256E+01</totfact>
</mgrwt>
</event>
<event>
 4    1  0.8742165E-009  0.1555250E+03  0.7818608E-02  0.1193844E+00
         -4   -1    0    0    0  501 -0.00000000000E+00  0.00000000000E+00  0.91612692376E+03  0.91612780404E+03  0.12700000000E+01 0. -1.
          4   -1    0    0  501    0  0.00000000000E+00 -0.00000000000E+00 -0.30187979486E+02  0.30214681952E+02  0.12700000000E+01 0. -1.
    8880022    1    1    2    0    0  0.26489153411E+02 -0.97312322655E+01  0.27513700540E+03  0.31605125674E+03  0.15294330000E+03 0.  1.
    8880022    1    1    2    0    0 -0.26489153411E+02  0.97312322655E+01  0.61080193887E+03  0.63029122926E+03  0.15294330000E+03 0.  1.
<mgrwt>
<rscale>  0 0.15552500E+03</rscale>
<asrwt>0</asrwt>
<pdfrwt beam="1">  1        4 0.46464260E-02 0.15552500E+03</pdfrwt>
<pdfrwt beam="2">  1       -4 0.14094474E+00 0.15552500E+03</pdfrwt>
<totfact> 0.17169729E+02</totfact>
</mgrwt>
</event>
<event>
 4    1  0.8742165E-009  0.1565542E+03  0.7818608E-02  0.1192643E+00
         -4   -1    0    0    0  501 -0.00000000000E+00  0.00000000000E+00  0.47812205209E+02  0.47829069267E+02  0.12700000000E+01 0.  1.
          4   -1    0    0  501    0  0.00000000000E+00 -0.00000000000E+00 -0.51826353682E+03  0.51826509288E+03  0.12700000000E+01 0.  1.
    8880022    1    1    2    0    0 -0.24238714885E+02 -0.23022978317E+02 -0.20539385642E+03  0.25825542027E+03  0.15294330000E+03 0. -1.
    8880022    1    1    2    0    0  0.24238714885E+02  0.23022978317E+02 -0.26505747519E+03  0.30783874187E+03  0.15294330000E+03 0. -1.
<mgrwt>
<rscale>  0 0.15655423E+03</rscale>
<asrwt>0</asrwt>
<pdfrwt beam="1">  1        4 0.79734265E-01 0.15655423E+03</pdfrwt>
<pdfrwt beam="2">  1       -4 0.73571412E-02 0.15655423E+03</pdfrwt>
<totfact> 0.31061447E+02</totfact>
</mgrwt>
</event>
<event>
 4    1  0.8742165E-009  0.2018481E+03  0.7818608E-02  0.1148189E+00
         -4   -1    0    0    0  501 -0.00000000000E+00  0.00000000000E+00  0.97662549444E+03  0.97662632019E+03  0.12700000000E+01 0.  1.
          4   -1    0    0  501    0  0.00000000000E+00 -0.00000000000E+00 -0.42055992383E+02  0.42075163640E+02  0.12700000000E+01 0.  1.
    8880022    1    1    2    0    0 -0.64306831824E+02  0.11495923499E+03  0.51365493745E+03  0.55189133179E+03  0.15294330000E+03 0. -1.
    8880022    1    1    2    0    0  0.64306831824E+02 -0.11495923499E+03  0.42091456461E+03  0.46681015204E+03  0.15294330000E+03 0. -1.
<mgrwt>
<rscale>  0 0.20184808E+03</rscale>
<asrwt>0</asrwt>
<pdfrwt beam="1">  1        4 0.64716907E-02 0.20184808E+03</pdfrwt>
<pdfrwt beam="2">  1       -4 0.15025162E+00 0.20184808E+03</pdfrwt>
<totfact> 0.88296873E+01</totfact>
</mgrwt>
</event>
<event>
 4    1  0.8742165E-009  0.1576185E+03  0.7818608E-02  0.1191412E+00
         -4   -1    0    0    0  501 -0.00000000000E+00  0.00000000000E+00  0.56170963532E+03  0.56171107102E+03  0.12700000000E+01 0.  1.
          4   -1    0    0  501    0  0.00000000000E+00 -0.00000000000E+00 -0.46022401501E+02  0.46039921154E+02  0.12700000000E+01 0.  1.
    8880022    1    1    2    0    0  0.37997698456E+02 -0.28483098618E+01  0.31800200427E+03  0.35492092879E+03  0.15294330000E+03 0.  1.
    8880022    1    1    2    0    0 -0.37997698456E+02  0.28483098618E+01  0.19768522955E+03  0.25283006339E+03  0.15294330000E+03 0.  1.
<mgrwt>
<rscale>  0 0.15761850E+03</rscale>
<asrwt>0</asrwt>
<pdfrwt beam="1">  1        4 0.70818277E-02 0.15761850E+03</pdfrwt>
<pdfrwt beam="2">  1       -4 0.86418323E-01 0.15761850E+03</pdfrwt>
<totfact> 0.27669445E+02</totfact>
</mgrwt>
</event>
<event>
 4    1  0.8742165E-009  0.2208007E+03  0.7818608E-02  0.1133288E+00
          4   -1    0    0  501    0  0.00000000000E+00  0.00000000000E+00  0.23851326957E+02  0.23885114561E+02  0.12700000000E+01 0. -1.
         -4   -1    0    0    0  501 -0.00000000000E+00 -0.00000000000E+00 -0.20428285998E+04  0.20428289945E+04  0.12700000000E+01 0. -1.
    8880022    1    1    2    0    0  0.48616615608E+02  0.15164996880E+03 -0.10214689202E+04  0.10450606185E+04  0.15294330000E+03 0.  0.
    8880022    1    1    2    0    0 -0.48616615608E+02 -0.15164996880E+03 -0.99750835259E+03  0.10216534906E+04  0.15294330000E+03 0.  0.
<mgrwt>
<rscale>  0 0.22080068E+03</rscale>
<asrwt>0</asrwt>
<pdfrwt beam="1">  1        4 0.36720660E-02 0.22080068E+03</pdfrwt>
<pdfrwt beam="2">  1       -4 0.31428381E+00 0.22080068E+03</pdfrwt>
<totfact> 0.21362636E+01</totfact>
</mgrwt>
</event>
<event>
 4    1  0.8742165E-009  0.2172801E+03  0.7818608E-02  0.1135927E+00
         -4   -1    0    0    0  501 -0.00000000000E+00  0.00000000000E+00  0.23355434299E+03  0.23355779591E+03  0.12700000000E+01 0. -1.
          4   -1    0    0  501    0  0.00000000000E+00 -0.00000000000E+00 -0.20815199985E+03  0.20815587415E+03  0.12700000000E+01 0. -1.
    8880022    1    1    2    0    0 -0.79286621716E+02 -0.13241082826E+03 -0.24854622100E+02  0.21869705320E+03  0.15294330000E+03 0.  0.
    8880022    1    1    2    0    0  0.79286621716E+02  0.13241082826E+03  0.50256965237E+02  0.22301661685E+03  0.15294330000E+03 0.  0.
<mgrwt>
<rscale>  0 0.21728012E+03</rscale>
<asrwt>0</asrwt>
<pdfrwt beam="1">  1        4 0.32023948E-01 0.21728012E+03</pdfrwt>
<pdfrwt beam="2">  1       -4 0.35932001E-01 0.21728012E+03</pdfrwt>
<totfact> 0.12668409E+02</totfact>
</mgrwt>
</event>
<event>
 4    1  0.8742165E-009  0.2453693E+03  0.7818608E-02  0.1116267E+00
         -4   -1    0    0    0  501 -0.00000000000E+00  0.00000000000E+00  0.75611015950E+03  0.75611122608E+03  0.12700000000E+01 0. -1.
          4   -1    0    0  501    0  0.00000000000E+00 -0.00000000000E+00 -0.11775875444E+03  0.11776560257E+03  0.12700000000E+01 0. -1.
    8880022    1    1    2    0    0  0.19166402338E+03  0.89084257195E+01  0.70524996414E+02  0.25530351749E+03  0.15294330000E+03 0.  0.
    8880022    1    1    2    0    0 -0.19166402338E+03 -0.89084257195E+01  0.56782640864E+03  0.61857331116E+03  0.15294330000E+03 0.  0.
<mgrwt>
<rscale>  0 0.24536934E+03</rscale>
<asrwt>0</asrwt>
<pdfrwt beam="1">  1        4 0.18117341E-01 0.24536934E+03</pdfrwt>
<pdfrwt beam="2">  1       -4 0.11632525E+00 0.24536934E+03</pdfrwt>
<totfact> 0.29205459E+01</totfact>
</mgrwt>
</event>
<event>
 4    1  0.8742165E-009  0.1942858E+03  0.7818608E-02  0.1154652E+00
          4   -1    0    0  501    0  0.00000000000E+00  0.00000000000E+00  0.27572421643E+04  0.27572424568E+04  0.12700000000E+01 0. -1.
         -4   -1    0    0    0  501 -0.00000000000E+00 -0.00000000000E+00 -0.22138017564E+02  0.22174415926E+02  0.12700000000E+01 0. -1.
    8880022    1    1    2    0    0 -0.11422544002E+03  0.36164558978E+02  0.50849478399E+03  0.54434724656E+03  0.15294330000E+03 0.  0.
    8880022    1    1    2    0    0  0.11422544002E+03 -0.36164558978E+02  0.22266093627E+04  0.22350696261E+04  0.15294330000E+03 0.  0.
<mgrwt>
<rscale>  0 0.19428582E+03</rscale>
<asrwt>0</asrwt>
<pdfrwt beam="1">  1        4 0.42419400E+00 0.19428582E+03</pdfrwt>
<pdfrwt beam="2">  1       -4 0.34086706E-02 0.19428582E+03</pdfrwt>
<totfact> 0.47721389E+00</totfact>
</mgrwt>
</event>
<event>
 4    1  0.8742165E-009  0.2009242E+03  0.7818608E-02  0.1148962E+00
          4   -1    0    0  501    0  0.00000000000E+00  0.00000000000E+00  0.15397732946E+03  0.15398256683E+03  0.12700000000E+01 0.  1.
         -4   -1    0    0    0  501 -0.00000000000E+00 -0.00000000000E+00 -0.41140546899E+03  0.41140742922E+03  0.12700000000E+01 0.  1.
    8880022    1    1    2    0    0  0.12999081656E+03  0.90150628307E+01 -0.29897289669E+03  0.36021567112E+03  0.15294330000E+03 0.  0.
    8880022    1    1    2    0    0 -0.12999081656E+03 -0.90150628307E+01  0.41544757157E+02  0.20517432493E+03  0.15294330000E+03 0.  0.
<mgrwt>
<rscale>  0 0.20092421E+03</rscale>
<asrwt>0</asrwt>
<pdfrwt beam="1">  1        4 0.23689374E-01 0.20092421E+03</pdfrwt>
<pdfrwt beam="2">  1       -4 0.63293702E-01 0.20092421E+03</pdfrwt>
<totfact> 0.69684832E+01</totfact>
</mgrwt>
</event>
<event>
 4    1  0.8742165E-009  0.2216456E+03  0.7818608E-02  0.1132662E+00
         -4   -1    0    0    0  501 -0.00000000000E+00  0.00000000000E+00  0.68286360037E+03  0.68286478135E+03  0.12700000000E+01 0. -1.
          4   -1    0    0  501    0  0.00000000000E+00 -0.00000000000E+00 -0.17228041894E+03  0.17228509991E+03  0.12700000000E+01 0. -1.
    8880022    1    1    2    0    0 -0.12315501774E+03  0.10280065882E+03 -0.71018535222E+02  0.23274539567E+03  0.15294330000E+03 0.  0.
    8880022    1    1    2    0    0  0.12315501774E+03 -0.10280065882E+03  0.58160171665E+03  0.62240448558E+03  0.15294330000E+03 0.  0.
<mgrwt>
<rscale>  0 0.22164563E+03</rscale>
<asrwt>0</asrwt>
<pdfrwt beam="1">  1        4 0.26505131E-01 0.22164563E+03</pdfrwt>
<pdfrwt beam="2">  1       -4 0.10505639E+00 0.22164563E+03</pdfrwt>
<totfact> 0.18334665E+01</totfact>
</mgrwt>
</event>
<event>
 4    1  0.8742165E-009  0.2430743E+03  0.7818608E-02  0.1117762E+00
         -4   -1    0    0    0  501 -0.00000000000E+00  0.00000000000E+00  0.99176033453E+03  0.99176114768E+03  0.12700000000E+01 0.  1.
          4   -1    0    0  501    0  0.00000000000E+00 -0.00000000000E+00 -0.13408453279E+03  0.13409054714E+03  0.12700000000E+01 0.  1.
    8880022    1    1    2    0    0 -0.23546016840E+02 -0.18745417152E+03  0.92047289848E+01  0.24324855884E+03  0.15294330000E+03 0.  0.
    8880022    1    1    2    0    0  0.23546016840E+02  0.18745417152E+03  0.84847107275E+03  0.88260313598E+03  0.15294330000E+03 0.  0.
<mgrwt>
<rscale>  0 0.24307434E+03</rscale>
<asrwt>0</asrwt>
<pdfrwt beam="1">  1        4 0.20628916E-01 0.24307434E+03</pdfrwt>
<pdfrwt beam="2">  1       -4 0.15257903E+00 0.24307434E+03</pdfrwt>
<totfact> 0.11678816E+01</totfact>
</mgrwt>
</event>
<event>
 4    1  0.8742165E-009  0.2629453E+03  0.7818608E-02  0.1105386E+00
          4   -1    0    0  501    0  0.00000000000E+00  0.00000000000E+00  0.77039418323E+03  0.77039523003E+03  0.12700000000E+01 0. -1.
         -4   -1    0    0    0  501 -0.00000000000E+00 -0.00000000000E+00 -0.27575290180E+03  0.27575582633E+03  0.12700000000E+01 0. -1.
    8880022    1    1    2    0    0  0.16650742349E+03  0.13425299202E+03 -0.18228426986E+03  0.31994967729E+03  0.15294330000E+03 0.  0.
    8880022    1    1    2    0    0 -0.16650742349E+03 -0.13425299202E+03  0.67692555129E+03  0.72620137907E+03  0.15294330000E+03 0.  0.
<mgrwt>
<rscale>  0 0.26294532E+03</rscale>
<asrwt>0</asrwt>
<pdfrwt beam="1">  1        4 0.11852249E+00 0.26294532E+03</pdfrwt>
<pdfrwt beam="2">  1       -4 0.42423829E-01 0.26294532E+03</pdfrwt>
<totfact> 0.55834320E+00</totfact>
</mgrwt>
</event>
<event>
 4    1  0.8742165E-009  0.1741142E+03  0.7818608E-02  0.1173624E+00
         -4   -1    0    0    0  501 -0.00000000000E+00  0.00000000000E+00  0.54315219762E+02  0.54330065321E+02  0.12700000000E+01 0. -1.
          4   -1    0    0  501    0  0.00000000000E+00 -0.00000000000E+00 -0.90549865135E+03  0.90549954197E+03  0.12700000000E+01 0. -1.
    8880022    1    1    2    0    0  0.65613886153E+01  0.82952015211E+02 -0.12831558067E+03  0.21628830275E+03  0.15294330000E+03 0.  0.
    8880022    1    1    2    0    0 -0.65613886153E+01 -0.82952015211E+02 -0.72286785092E+03  0.74354130454E+03  0.15294330000E+03 0.  0.
<mgrwt>
<rscale>  0 0.17411416E+03</rscale>
<asrwt>0</asrwt>
<pdfrwt beam="1">  1        4 0.13930868E+00 0.17411416E+03</pdfrwt>
<pdfrwt beam="2">  1       -4 0.83573988E-02 0.17411416E+03</pdfrwt>
<totfact> 0.68751234E+01</totfact>
</mgrwt>
</event>
<event>
 4    1  0.8742165E-009  0.1642508E+03  0.7818608E-02  0.1183980E+00
         -4   -1    0    0    0  501 -0.00000000000E+00  0.00000000000E+00  0.43821008382E+02  0.43839407793E+02  0.12700000000E+01 0.  1.
          4   -1    0    0  501    0  0.00000000000E+00 -0.00000000000E+00 -0.63448467107E+03  0.63448594210E+03  0.12700000000E+01 0.  1.
    8880022    1    1    2    0    0  0.42761908733E+02 -0.41929428270E+02 -0.23666443219E+03  0.28807701101E+03  0.15294330000E+03 0.  0.
    8880022    1    1    2    0    0 -0.42761908733E+02  0.41929428270E+02 -0.35399923050E+03  0.39024833888E+03  0.15294330000E+03 0.  0.
<mgrwt>
<rscale>  0 0.16425076E+03</rscale>
<asrwt>0</asrwt>
<pdfrwt beam="1">  1        4 0.97614533E-01 0.16425076E+03</pdfrwt>
<pdfrwt beam="2">  1       -4 0.67432072E-02 0.16425076E+03</pdfrwt>
<totfact> 0.22879688E+02</totfact>
</mgrwt>
</event>
<event>
 4    1  0.8742165E-009  0.2290128E+03  0.7818608E-02  0.1127337E+00
         -4   -1    0    0    0  501 -0.00000000000E+00  0.00000000000E+00  0.36747915407E+03  0.36748134861E+03  0.12700000000E+01 0.  1.
          4   -1    0    0  501    0  0.00000000000E+00 -0.00000000000E+00 -0.15140774946E+03  0.15141307571E+03  0.12700000000E+01 0.  1.
    8880022    1    1    2    0    0 -0.45809408443E+02 -0.16418495427E+03  0.17019957702E+03  0.28533270080E+03  0.15294330000E+03 0. -1.
    8880022    1    1    2    0    0  0.45809408443E+02  0.16418495427E+03  0.45871827592E+02  0.23356172352E+03  0.15294330000E+03 0. -1.
<mgrwt>
<rscale>  0 0.22901278E+03</rscale>
<asrwt>0</asrwt>
<pdfrwt beam="1">  1        4 0.23294078E-01 0.22901278E+03</pdfrwt>
<pdfrwt beam="2">  1       -4 0.56535833E-01 0.22901278E+03</pdfrwt>
<totfact> 0.92849344E+01</totfact>
</mgrwt>
</event>
<event>
 4    1  0.8742165E-009  0.4265454E+03  0.7818608E-02  0.1034957E+00
         -4   -1    0    0    0  501 -0.00000000000E+00  0.00000000000E+00  0.22043393454E+04  0.22043397113E+04  0.12700000000E+01 0.  1.
          4   -1    0    0  501    0  0.00000000000E+00 -0.00000000000E+00 -0.87769857119E+02  0.87779044873E+02  0.12700000000E+01 0.  1.
    8880022    1    1    2    0    0  0.39550792515E+03  0.46074286627E+02  0.77834135179E+03  0.88755634845E+03  0.15294330000E+03 0.  0.
    8880022    1    1    2    0    0 -0.39550792515E+03 -0.46074286627E+02  0.13382281365E+04  0.14045624077E+04  0.15294330000E+03 0.  0.
<mgrwt>
<rscale>  0 0.42654544E+03</rscale>
<asrwt>0</asrwt>
<pdfrwt beam="1">  1        4 0.13503790E-01 0.42654544E+03</pdfrwt>
<pdfrwt beam="2">  1       -4 0.33912985E+00 0.42654544E+03</pdfrwt>
<totfact> 0.17237421E+00</totfact>
</mgrwt>
</event>
<event>
 4    1  0.8742165E-009  0.1570523E+03  0.7818608E-02  0.1192065E+00
         -4   -1    0    0    0  501 -0.00000000000E+00  0.00000000000E+00  0.67586660674E+02  0.67598591709E+02  0.12700000000E+01 0. -1.
          4   -1    0    0  501    0  0.00000000000E+00 -0.00000000000E+00 -0.56541305309E+03  0.56541447939E+03  0.12700000000E+01 0. -1.
    8880022    1    1    2    0    0 -0.22746715428E+02  0.27502109149E+02 -0.60432973949E+02  0.16827827081E+03  0.15294330000E+03 0.  0.
    8880022    1    1    2    0    0  0.22746715428E+02 -0.27502109149E+02 -0.43739341847E+03  0.46473480029E+03  0.15294330000E+03 0.  0.
<mgrwt>
<rscale>  0 0.15705232E+03</rscale>
<asrwt>0</asrwt>
<pdfrwt beam="1">  1        4 0.86987648E-01 0.15705232E+03</pdfrwt>
<pdfrwt beam="2">  1       -4 0.10398976E-01 0.15705232E+03</pdfrwt>
<totfact> 0.14340436E+02</totfact>
</mgrwt>
</event>
<event>
 4    1  0.8742165E-009  0.2505285E+03  0.7818608E-02  0.1112971E+00
          4   -1    0    0  501    0  0.00000000000E+00  0.00000000000E+00  0.27762700190E+03  0.27762990668E+03  0.12700000000E+01 0.  1.
         -4   -1    0    0    0  501 -0.00000000000E+00 -0.00000000000E+00 -0.22619427473E+03  0.22619784000E+03  0.12700000000E+01 0.  1.
    8880022    1    1    2    0    0  0.62192581491E+02 -0.18842761708E+03  0.19792100644E+02  0.25130910117E+03  0.15294330000E+03 0.  0.
    8880022    1    1    2    0    0 -0.62192581491E+02  0.18842761708E+03  0.31640626526E+02  0.25251864551E+03  0.15294330000E+03 0.  0.
<mgrwt>
<rscale>  0 0.25052852E+03</rscale>
<asrwt>0</asrwt>
<pdfrwt beam="1">  1        4 0.42712344E-01 0.25052852E+03</pdfrwt>
<pdfrwt beam="2">  1       -4 0.34799617E-01 0.25052852E+03</pdfrwt>
<totfact> 0.77924767E+01</totfact>
</mgrwt>
</event>
<event>
 4    1  0.8742165E-009  0.1634798E+03  0.7818608E-02  0.1184823E+00
          4   -1    0    0  501    0  0.00000000000E+00  0.00000000000E+00  0.14725917896E+03  0.14726465526E+03  0.12700000000E+01 0. -1.
         -4   -1    0    0    0  501 -0.00000000000E+00 -0.00000000000E+00 -0.33140018896E+03  0.33140262242E+03  0.12700000000E+01 0. -1.
    8880022    1    1    2    0    0 -0.39986637368E+02 -0.41654006350E+02 -0.25304510336E+03  0.30125979613E+03  0.15294330000E+03 0.  1.
    8880022    1    1    2    0    0  0.39986637368E+02  0.41654006350E+02  0.68904093358E+02  0.17740748155E+03  0.15294330000E+03 0.  1.
<mgrwt>
<rscale>  0 0.16347979E+03</rscale>
<asrwt>0</asrwt>
<pdfrwt beam="1">  1        4 0.22655867E-01 0.16347979E+03</pdfrwt>
<pdfrwt beam="2">  1       -4 0.50985253E-01 0.16347979E+03</pdfrwt>
<totfact> 0.11559746E+02</totfact>
</mgrwt>
</event>
<event>
 4    1  0.8742165E-009  0.2601104E+03  0.7818608E-02  0.1107077E+00
         -4   -1    0    0    0  501 -0.00000000000E+00  0.00000000000E+00  0.31724459569E+03  0.31724713772E+03  0.12700000000E+01 0. -1.
          4   -1    0    0  501    0  0.00000000000E+00 -0.00000000000E+00 -0.28743536792E+03  0.28743817358E+03  0.12700000000E+01 0. -1.
    8880022    1    1    2    0    0  0.21033057144E+03  0.51766427111E+01  0.16849126600E+03  0.30991403106E+03  0.15294330000E+03 0.  0.
    8880022    1    1    2    0    0 -0.21033057144E+03 -0.51766427111E+01 -0.13868203823E+03  0.29477128025E+03  0.15294330000E+03 0.  0.
<mgrwt>
<rscale>  0 0.26011036E+03</rscale>
<asrwt>0</asrwt>
<pdfrwt beam="1">  1        4 0.44221237E-01 0.26011036E+03</pdfrwt>
<pdfrwt beam="2">  1       -4 0.48807272E-01 0.26011036E+03</pdfrwt>
<totfact> 0.37058313E+01</totfact>
</mgrwt>
</event>
<event>
 4    1  0.8742165E-009  0.2538703E+03  0.7818608E-02  0.1110883E+00
         -4   -1    0    0    0  501 -0.00000000000E+00  0.00000000000E+00  0.18477926534E+03  0.18478362968E+03  0.12700000000E+01 0. -1.
          4   -1    0    0  501    0  0.00000000000E+00 -0.00000000000E+00 -0.34929433858E+03  0.34929664737E+03  0.12700000000E+01 0. -1.
    8880022    1    1    2    0    0  0.15687917709E+02  0.20202070708E+03 -0.72066463812E+02  0.26390093799E+03  0.15294330000E+03 0.  0.
    8880022    1    1    2    0    0 -0.15687917709E+02 -0.20202070708E+03 -0.92448609435E+02  0.27017933906E+03  0.15294330000E+03 0.  0.
<mgrwt>
<rscale>  0 0.25387030E+03</rscale>
<asrwt>0</asrwt>
<pdfrwt beam="1">  1        4 0.53738104E-01 0.25387030E+03</pdfrwt>
<pdfrwt beam="2">  1       -4 0.28428093E-01 0.25387030E+03</pdfrwt>
<totfact> 0.71968404E+01</totfact>
</mgrwt>
</event>
<event>
 4    1  0.8742165E-009  0.1646976E+03  0.7818608E-02  0.1183493E+00
          4   -1    0    0  501    0  0.00000000000E+00  0.00000000000E+00  0.72132883487E+02  0.72144062681E+02  0.12700000000E+01 0.  1.
         -4   -1    0    0    0  501 -0.00000000000E+00 -0.00000000000E+00 -0.42697973966E+03  0.42698162839E+03  0.12700000000E+01 0.  1.
    8880022    1    1    2    0    0 -0.38824299988E+02  0.47184037294E+02 -0.91195697149E+02  0.18826037246E+03  0.15294330000E+03 0. -1.
    8880022    1    1    2    0    0  0.38824299988E+02 -0.47184037294E+02 -0.26365115903E+03  0.31086531861E+03  0.15294330000E+03 0. -1.
<mgrwt>
<rscale>  0 0.16469764E+03</rscale>
<asrwt>0</asrwt>
<pdfrwt beam="1">  1        4 0.11098372E-01 0.16469764E+03</pdfrwt>
<pdfrwt beam="2">  1       -4 0.65690194E-01 0.16469764E+03</pdfrwt>
<totfact> 0.23970199E+02</totfact>
</mgrwt>
</event>
<event>
 4    1  0.8742165E-009  0.1739374E+03  0.7818608E-02  0.1173803E+00
          4   -1    0    0  501    0  0.00000000000E+00  0.00000000000E+00  0.31223505663E+03  0.31223763945E+03  0.12700000000E+01 0. -1.
         -4   -1    0    0    0  501 -0.00000000000E+00 -0.00000000000E+00 -0.17972185797E+03  0.17972634513E+03  0.12700000000E+01 0. -1.
    8880022    1    1    2    0    0  0.34462442724E+02 -0.75331972797E+02 -0.10073499982E+03  0.20100188877E+03  0.15294330000E+03 0.  0.
    8880022    1    1    2    0    0 -0.34462442724E+02  0.75331972797E+02  0.23324819848E+03  0.29096209580E+03  0.15294330000E+03 0.  0.
<mgrwt>
<rscale>  0 0.17393740E+03</rscale>
<asrwt>0</asrwt>
<pdfrwt beam="1">  1        4 0.48036706E-01 0.17393740E+03</pdfrwt>
<pdfrwt beam="2">  1       -4 0.27650061E-01 0.17393740E+03</pdfrwt>
<totfact> 0.91034865E+01</totfact>
</mgrwt>
</event>
<event>
 4    1  0.8742165E-009  0.1642637E+03  0.7818608E-02  0.1183965E+00
          4   -1    0    0  501    0  0.00000000000E+00  0.00000000000E+00  0.32682740680E+02  0.32707406475E+02  0.12700000000E+01 0.  1.
         -4   -1    0    0    0  501 -0.00000000000E+00 -0.00000000000E+00 -0.84357626215E+03  0.84357721814E+03  0.12700000000E+01 0.  1.
    8880022    1    1    2    0    0 -0.54369487788E+02 -0.25196653669E+02 -0.34087614607E+03  0.37839015914E+03  0.15294330000E+03 0.  0.
    8880022    1    1    2    0    0  0.54369487788E+02  0.25196653669E+02 -0.47001737540E+03  0.49789446547E+03  0.15294330000E+03 0.  0.
<mgrwt>
<rscale>  0 0.16426371E+03</rscale>
<asrwt>0</asrwt>
<pdfrwt beam="1">  1        4 0.50300855E-02 0.16426371E+03</pdfrwt>
<pdfrwt beam="2">  1       -4 0.12978292E+00 0.16426371E+03</pdfrwt>
<totfact> 0.18707091E+02</totfact>
</mgrwt>
</event>
<event>
 4    1  0.8742165E-009  0.1710430E+03  0.7818608E-02  0.1176764E+00
         -4   -1    0    0    0  501 -0.00000000000E+00  0.00000000000E+00  0.15852056549E+03  0.15852565276E+03  0.12700000000E+01 0.  1.
          4   -1    0    0  501    0  0.00000000000E+00 -0.00000000000E+00 -0.18466418407E+03  0.18466855113E+03  0.12700000000E+01 0.  1.
    8880022    1    1    2    0    0 -0.56597539964E+02  0.51582753841E+02 -0.17440897650E+02  0.17192992744E+03  0.15294330000E+03 0.  0.
    8880022    1    1    2    0    0  0.56597539964E+02 -0.51582753841E+02 -0.87027209290E+01  0.17126427646E+03  0.15294330000E+03 0.  0.
<mgrwt>
<rscale>  0 0.17104302E+03</rscale>
<asrwt>0</asrwt>
<pdfrwt beam="1">  1        4 0.28410602E-01 0.17104302E+03</pdfrwt>
<pdfrwt beam="2">  1       -4 0.24388507E-01 0.17104302E+03</pdfrwt>
<totfact> 0.32057152E+02</totfact>
</mgrwt>
</event>
<event>
 4    1  0.8742165E-009  0.2443249E+03  0.7818608E-02  0.1116945E+00
          4   -1    0    0  501    0  0.00000000000E+00  0.00000000000E+00  0.62582376763E+02  0.62595261652E+02  0.12700000000E+01 0. -1.
         -4   -1    0    0    0  501 -0.00000000000E+00 -0.00000000000E+00 -0.97737016643E+03  0.97737099156E+03  0.12700000000E+01 0. -1.
    8880022    1    1    2    0    0  0.13859995051E+03 -0.13074044317E+03 -0.37655212615E+03  0.44887210482E+03  0.15294330000E+03 0.  0.
    8880022    1    1    2    0    0 -0.13859995051E+03  0.13074044317E+03 -0.53823566352E+03  0.59109414839E+03  0.15294330000E+03 0.  0.
<mgrwt>
<rscale>  0 0.24432491E+03</rscale>
<asrwt>0</asrwt>
<pdfrwt beam="1">  1        4 0.96291133E-02 0.24432491E+03</pdfrwt>
<pdfrwt beam="2">  1       -4 0.15036568E+00 0.24432491E+03</pdfrwt>
<totfact> 0.46330781E+01</totfact>
</mgrwt>
</event>
<event>
 4    1  0.8742165E-009  0.2791469E+03  0.7818608E-02  0.1096156E+00
         -4   -1    0    0    0  501 -0.00000000000E+00  0.00000000000E+00  0.57756777696E+03  0.57756917324E+03  0.12700000000E+01 0.  1.
          4   -1    0    0  501    0  0.00000000000E+00 -0.00000000000E+00 -0.13574130238E+03  0.13574724333E+03  0.12700000000E+01 0.  1.
    8880022    1    1    2    0    0 -0.19754986137E+03  0.12452067647E+03  0.24880303397E+03  0.37393308135E+03  0.15294330000E+03 0.  0.
    8880022    1    1    2    0    0  0.19754986137E+03 -0.12452067647E+03  0.19302344060E+03  0.33938333523E+03  0.15294330000E+03 0.  0.
<mgrwt>
<rscale>  0 0.27914691E+03</rscale>
<asrwt>0</asrwt>
<pdfrwt beam="1">  1        4 0.20883842E-01 0.27914691E+03</pdfrwt>
<pdfrwt beam="2">  1       -4 0.88857146E-01 0.27914691E+03</pdfrwt>
<totfact> 0.43088527E+01</totfact>
</mgrwt>
</event>
<event>
 4    1  0.8742165E-009  0.1786283E+03  0.7818608E-02  0.1169137E+00
         -4   -1    0    0    0  501 -0.00000000000E+00  0.00000000000E+00  0.15185108705E+02  0.15238124110E+02  0.12700000000E+01 0. -1.
          4   -1    0    0  501    0  0.00000000000E+00 -0.00000000000E+00 -0.20976111392E+04  0.20976115237E+04  0.12700000000E+01 0. -1.
    8880022    1    1    2    0    0  0.23314351046E+02  0.89290824066E+02 -0.10465098110E+04  0.10616453493E+04  0.15294330000E+03 0. -1.
    8880022    1    1    2    0    0 -0.23314351046E+02 -0.89290824066E+02 -0.10359162196E+04  0.10512042985E+04  0.15294330000E+03 0. -1.
<mgrwt>
<rscale>  0 0.17862828E+03</rscale>
<asrwt>0</asrwt>
<pdfrwt beam="1">  1        4 0.32271328E+00 0.17862828E+03</pdfrwt>
<pdfrwt beam="2">  1       -4 0.23402799E-02 0.17862828E+03</pdfrwt>
<totfact> 0.38217912E+01</totfact>
</mgrwt>
</event>
<event>
 4    1  0.8742165E-009  0.1727134E+03  0.7818608E-02  0.1175047E+00
         -4   -1    0    0    0  501 -0.00000000000E+00  0.00000000000E+00  0.35836382729E+03  0.35836607765E+03  0.12700000000E+01 0.  1.
          4   -1    0    0  501    0  0.00000000000E+00 -0.00000000000E+00 -0.83582287964E+02  0.83591935982E+02  0.12700000000E+01 0.  1.
    8880022    1    1    2    0    0 -0.74278535780E+02 -0.30347529223E+02  0.15169808627E+03  0.22987439136E+03  0.15294330000E+03 0.  0.
    8880022    1    1    2    0    0  0.74278535780E+02  0.30347529223E+02  0.12308345305E+03  0.21208362228E+03  0.15294330000E+03 0.  0.
<mgrwt>
<rscale>  0 0.17271342E+03</rscale>
<asrwt>0</asrwt>
<pdfrwt beam="1">  1        4 0.12859729E-01 0.17271342E+03</pdfrwt>
<pdfrwt beam="2">  1       -4 0.55133812E-01 0.17271342E+03</pdfrwt>
<totfact> 0.27148788E+02</totfact>
</mgrwt>
</event>
<event>
 4    1  0.8742165E-009  0.2124118E+03  0.7818608E-02  0.1139670E+00
         -4   -1    0    0    0  501 -0.00000000000E+00  0.00000000000E+00  0.18697467417E+04  0.18697471730E+04  0.12700000000E+01 0. -1.
          4   -1    0    0  501    0  0.00000000000E+00 -0.00000000000E+00 -0.24767958136E+02  0.24800496975E+02  0.12700000000E+01 0. -1.
    8880022    1    1    2    0    0  0.14318493757E+02 -0.14670410727E+03  0.10763320539E+04  0.10970913625E+04  0.15294330000E+03 0.  0.
    8880022    1    1    2    0    0 -0.14318493757E+02  0.14670410727E+03  0.76864672964E+03  0.79745630749E+03  0.15294330000E+03 0.  0.
<mgrwt>
<rscale>  0 0.21241179E+03</rscale>
<asrwt>0</asrwt>
<pdfrwt beam="1">  1        4 0.38129905E-02 0.21241179E+03</pdfrwt>
<pdfrwt beam="2">  1       -4 0.28765594E+00 0.21241179E+03</pdfrwt>
<totfact> 0.28816205E+01</totfact>
</mgrwt>
</event>
<event>
 4    1  0.8742165E-009  0.2193574E+03  0.7818608E-02  0.1134363E+00
          4   -1    0    0  501    0  0.00000000000E+00  0.00000000000E+00  0.37213251988E+03  0.37213468698E+03  0.12700000000E+01 0.  1.
         -4   -1    0    0    0  501 -0.00000000000E+00 -0.00000000000E+00 -0.13016655234E+03  0.13017274771E+03  0.12700000000E+01 0.  1.
    8880022    1    1    2    0    0  0.92774296430E+02 -0.12696032562E+03  0.14151238100E+03  0.26104291094E+03  0.15294330000E+03 0.  0.
    8880022    1    1    2    0    0 -0.92774296430E+02  0.12696032562E+03  0.10045358654E+03  0.24126452376E+03  0.15294330000E+03 0.  0.
<mgrwt>
<rscale>  0 0.21935735E+03</rscale>
<asrwt>0</asrwt>
<pdfrwt beam="1">  1        4 0.57251799E-01 0.21935735E+03</pdfrwt>
<pdfrwt beam="2">  1       -4 0.20026267E-01 0.21935735E+03</pdfrwt>
<totfact> 0.11861952E+02</totfact>
</mgrwt>
</event>
<event>
 4    1  0.8742165E-009  0.2095193E+03  0.7818608E-02  0.1141947E+00
         -4   -1    0    0    0  501 -0.00000000000E+00  0.00000000000E+00  0.12774561313E+03  0.12775192591E+03  0.12700000000E+01 0.  1.
          4   -1    0    0  501    0  0.00000000000E+00 -0.00000000000E+00 -0.52329339794E+03  0.52329493904E+03  0.12700000000E+01 0.  1.
    8880022    1    1    2    0    0  0.13300098877E+03  0.53079198399E+02 -0.38851529960E+03  0.44140962308E+03  0.15294330000E+03 0. -1.
    8880022    1    1    2    0    0 -0.13300098877E+03 -0.53079198399E+02 -0.70324852093E+01  0.20963724187E+03  0.15294330000E+03 0. -1.
<mgrwt>
<rscale>  0 0.20951925E+03</rscale>
<asrwt>0</asrwt>
<pdfrwt beam="1">  1        4 0.80507279E-01 0.20951925E+03</pdfrwt>
<pdfrwt beam="2">  1       -4 0.19653776E-01 0.20951925E+03</pdfrwt>
<totfact> 0.58281911E+01</totfact>
</mgrwt>
</event>
<event>
 4    1  0.8742165E-009  0.1684408E+03  0.7818608E-02  0.1179484E+00
         -4   -1    0    0    0  501 -0.00000000000E+00  0.00000000000E+00  0.79748073323E+03  0.79748174448E+03  0.12700000000E+01 0. -1.
          4   -1    0    0  501    0  0.00000000000E+00 -0.00000000000E+00 -0.75401920905E+02  0.75412615497E+02  0.12700000000E+01 0. -1.
    8880022    1    1    2    0    0 -0.69901805404E+02  0.97156688453E+01  0.43840179780E+02  0.17405249495E+03  0.15294330000E+03 0.  0.
    8880022    1    1    2    0    0  0.69901805404E+02 -0.97156688453E+01  0.67823863255E+03  0.69884186503E+03  0.15294330000E+03 0.  0.
<mgrwt>
<rscale>  0 0.16844082E+03</rscale>
<asrwt>0</asrwt>
<pdfrwt beam="1">  1        4 0.11601196E-01 0.16844082E+03</pdfrwt>
<pdfrwt beam="2">  1       -4 0.12269025E+00 0.16844082E+03</pdfrwt>
<totfact> 0.53794569E+01</totfact>
</mgrwt>
</event>
<event>
 4    1  0.8742165E-009  0.1925037E+03  0.7818608E-02  0.1156222E+00
         -4   -1    0    0    0  501 -0.00000000000E+00  0.00000000000E+00  0.30206865458E+03  0.30207132432E+03  0.12700000000E+01 0. -1.
          4   -1    0    0  501    0  0.00000000000E+00 -0.00000000000E+00 -0.19129991425E+03  0.19130412983E+03  0.12700000000E+01 0. -1.
    8880022    1    1    2    0    0  0.32562545851E+02  0.11227517675E+03 -0.92365682744E+02  0.21351605811E+03  0.15294330000E+03 0.  0.
    8880022    1    1    2    0    0 -0.32562545851E+02 -0.11227517675E+03  0.20313442307E+03  0.27985939605E+03  0.15294330000E+03 0.  0.
<mgrwt>
<rscale>  0 0.19250373E+03</rscale>
<asrwt>0</asrwt>
<pdfrwt beam="1">  1        4 0.29431286E-01 0.19250373E+03</pdfrwt>
<pdfrwt beam="2">  1       -4 0.46472630E-01 0.19250373E+03</pdfrwt>
<totfact> 0.87776482E+01</totfact>
</mgrwt>
</event>
<event>
 4    1  0.8742165E-009  0.3910846E+03  0.7818608E-02  0.1046911E+00
         -4   -1    0    0    0  501 -0.00000000000E+00  0.00000000000E+00  0.38199846650E+03  0.38200057763E+03  0.12700000000E+01 0. -1.
          4   -1    0    0  501    0  0.00000000000E+00 -0.00000000000E+00 -0.46451974156E+03  0.46452147765E+03  0.12700000000E+01 0. -1.
    8880022    1    1    2    0    0 -0.11187503764E+02 -0.35976433774E+03  0.11601403359E+03  0.40792946443E+03  0.15294330000E+03 0.  0.
    8880022    1    1    2    0    0  0.11187503764E+02  0.35976433774E+03 -0.19853530864E+03  0.43859259084E+03  0.15294330000E+03 0.  0.
<mgrwt>
<rscale>  0 0.39108464E+03</rscale>
<asrwt>0</asrwt>
<pdfrwt beam="1">  1        4 0.71464872E-01 0.39108464E+03</pdfrwt>
<pdfrwt beam="2">  1       -4 0.58769291E-01 0.39108464E+03</pdfrwt>
<totfact> 0.94051579E+00</totfact>
</mgrwt>
</event>
<event>
 4    1  0.8742165E-009  0.1647761E+03  0.7818608E-02  0.1183408E+00
          4   -1    0    0  501    0  0.00000000000E+00  0.00000000000E+00  0.11348370186E+03  0.11349080794E+03  0.12700000000E+01 0. -1.
         -4   -1    0    0    0  501 -0.00000000000E+00 -0.00000000000E+00 -0.23983182423E+03  0.23983518677E+03  0.12700000000E+01 0. -1.
    8880022    1    1    2    0    0 -0.41386753550E+02 -0.45239879459E+02 -0.54364150523E+02  0.17351260456E+03  0.15294330000E+03 0.  0.
    8880022    1    1    2    0    0  0.41386753550E+02  0.45239879459E+02 -0.71983971850E+02  0.17981339016E+03  0.15294330000E+03 0.  0.
<mgrwt>
<rscale>  0 0.16477610E+03</rscale>
<asrwt>0</asrwt>
<pdfrwt beam="1">  1        4 0.17459836E-01 0.16477610E+03</pdfrwt>
<pdfrwt beam="2">  1       -4 0.36898009E-01 0.16477610E+03</pdfrwt>
<totfact> 0.35374354E+02</totfact>
</mgrwt>
</event>
<event>
 4    1  0.8742165E-009  0.1765897E+03  0.7818608E-02  0.1171145E+00
         -4   -1    0    0    0  501 -0.00000000000E+00  0.00000000000E+00  0.67552282609E+03  0.67552401990E+03  0.12700000000E+01 0.  1.
          4   -1    0    0  501    0  0.00000000000E+00 -0.00000000000E+00 -0.46167045896E+02  0.46184510680E+02  0.12700000000E+01 0.  1.
    8880022    1    1    2    0    0 -0.61137021010E+02  0.63675324604E+02  0.32103825490E+03  0.36640073202E+03  0.15294330000E+03 0.  0.
    8880022    1    1    2    0    0  0.61137021010E+02 -0.63675324604E+02  0.30831752529E+03  0.35530779856E+03  0.15294330000E+03 0.  0.
<mgrwt>
<rscale>  0 0.17658974E+03</rscale>
<asrwt>0</asrwt>
<pdfrwt beam="1">  1        4 0.71040578E-02 0.17658974E+03</pdfrwt>
<pdfrwt beam="2">  1       -4 0.10392802E+00 0.17658974E+03</pdfrwt>
<totfact> 0.18349348E+02</totfact>
</mgrwt>
</event>
<event>
 4    1  0.8742165E-009  0.3548785E+03  0.7818608E-02  0.1060630E+00
         -4   -1    0    0    0  501 -0.00000000000E+00  0.00000000000E+00  0.15040719586E+04  0.15040724948E+04  0.12700000000E+01 0. -1.
          4   -1    0    0  501    0  0.00000000000E+00 -0.00000000000E+00 -0.88361702330E+02  0.88370828550E+02  0.12700000000E+01 0. -1.
    8880022    1    1    2    0    0 -0.20242682899E+03  0.24813401295E+03  0.52550266399E+03  0.63410709849E+03  0.15294330000E+03 0.  0.
    8880022    1    1    2    0    0  0.20242682899E+03 -0.24813401295E+03  0.89020759233E+03  0.95833622489E+03  0.15294330000E+03 0.  0.
<mgrwt>
<rscale>  0 0.35487852E+03</rscale>
<asrwt>0</asrwt>
<pdfrwt beam="1">  1        4 0.13594852E-01 0.35487852E+03</pdfrwt>
<pdfrwt beam="2">  1       -4 0.23139641E+00 0.35487852E+03</pdfrwt>
<totfact> 0.76139132E+00</totfact>
</mgrwt>
</event>
<event>
 4    1  0.8742165E-009  0.2752931E+03  0.7818608E-02  0.1098288E+00
          4   -1    0    0  501    0  0.00000000000E+00  0.00000000000E+00  0.14097816640E+04  0.14097822361E+04  0.12700000000E+01 0.  1.
         -4   -1    0    0    0  501 -0.00000000000E+00 -0.00000000000E+00 -0.59039327285E+02  0.59052985245E+02  0.12700000000E+01 0.  1.
    8880022    1    1    2    0    0 -0.21983416252E+03 -0.63777386264E+02  0.89517933724E+03  0.93655342232E+03  0.15294330000E+03 0.  0.
    8880022    1    1    2    0    0  0.21983416252E+03  0.63777386264E+02  0.45556299949E+03  0.53228179898E+03  0.15294330000E+03 0.  0.
<mgrwt>
<rscale>  0 0.27529306E+03</rscale>
<asrwt>0</asrwt>
<pdfrwt beam="1">  1        4 0.21689057E+00 0.27529306E+03</pdfrwt>
<pdfrwt beam="2">  1       -4 0.90840684E-02 0.27529306E+03</pdfrwt>
<totfact> 0.18508907E+01</totfact>
</mgrwt>
</event>
<event>
 4    1  0.8742165E-009  0.2589593E+03  0.7818608E-02  0.1107770E+00
         -4   -1    0    0    0  501 -0.00000000000E+00  0.00000000000E+00  0.65001997773E+02  0.65014403131E+02  0.12700000000E+01 0. -1.
          4   -1    0    0  501    0  0.00000000000E+00 -0.00000000000E+00 -0.11294114280E+04  0.11294121421E+04  0.12700000000E+01 0. -1.
    8880022    1    1    2    0    0  0.98961963409E+02  0.18405113124E+03 -0.35640831251E+03  0.44055286556E+03  0.15294330000E+03 0.  0.
    8880022    1    1    2    0    0 -0.98961963409E+02 -0.18405113124E+03 -0.70800111773E+03  0.75387367963E+03  0.15294330000E+03 0.  0.
<mgrwt>
<rscale>  0 0.25895934E+03</rscale>
<asrwt>0</asrwt>
<pdfrwt beam="1">  1        4 0.17375660E+00 0.25895934E+03</pdfrwt>
<pdfrwt beam="2">  1       -4 0.10001317E-01 0.25895934E+03</pdfrwt>
<totfact> 0.29707781E+01</totfact>
</mgrwt>
</event>
<event>
 4    1  0.8742165E-009  0.3784346E+03  0.7818608E-02  0.1051514E+00
          4   -1    0    0  501    0  0.00000000000E+00  0.00000000000E+00  0.54952110177E+03  0.54952256932E+03  0.12700000000E+01 0.  1.
         -4   -1    0    0    0  501 -0.00000000000E+00 -0.00000000000E+00 -0.26410165093E+03  0.26410470447E+03  0.12700000000E+01 0.  1.
    8880022    1    1    2    0    0  0.34379907075E+03  0.40289672449E+02  0.95935949180E+02  0.39040545349E+03  0.15294330000E+03 0.  0.
    8880022    1    1    2    0    0 -0.34379907075E+03 -0.40289672449E+02  0.18948350166E+03  0.42322182029E+03  0.15294330000E+03 0.  0.
<mgrwt>
<rscale>  0 0.37843455E+03</rscale>
<asrwt>0</asrwt>
<pdfrwt beam="1">  1        4 0.84542055E-01 0.37843455E+03</pdfrwt>
<pdfrwt beam="2">  1       -4 0.40631371E-01 0.37843455E+03</pdfrwt>
<totfact> 0.13821611E+01</totfact>
</mgrwt>
</event>
<event>
 4    1  0.8742165E-009  0.1819685E+03  0.7818608E-02  0.1165911E+00
         -4   -1    0    0    0  501 -0.00000000000E+00  0.00000000000E+00  0.36449453597E+02  0.36471572047E+02  0.12700000000E+01 0. -1.
          4   -1    0    0  501    0  0.00000000000E+00 -0.00000000000E+00 -0.11066927015E+04  0.11066934302E+04  0.12700000000E+01 0. -1.
    8880022    1    1    2    0    0 -0.92488336944E+02  0.34158150125E+02 -0.77721630424E+03  0.79823411872E+03  0.15294330000E+03 0.  0.
    8880022    1    1    2    0    0  0.92488336944E+02 -0.34158150125E+02 -0.29302694369E+03  0.34493088356E+03  0.15294330000E+03 0.  0.
<mgrwt>
<rscale>  0 0.18196847E+03</rscale>
<asrwt>0</asrwt>
<pdfrwt beam="1">  1        4 0.17026215E+00 0.18196847E+03</pdfrwt>
<pdfrwt beam="2">  1       -4 0.56093666E-02 0.18196847E+03</pdfrwt>
<totfact> 0.79264072E+01</totfact>
</mgrwt>
</event>
<event>
 4    1  0.8742165E-009  0.2635752E+03  0.7818608E-02  0.1105014E+00
         -4   -1    0    0    0  501 -0.00000000000E+00  0.00000000000E+00  0.29376778026E+04  0.29376780771E+04  0.12700000000E+01 0.  1.
          4   -1    0    0  501    0  0.00000000000E+00 -0.00000000000E+00 -0.23742887929E+02  0.23776829629E+02  0.12700000000E+01 0.  1.
    8880022    1    1    2    0    0  0.15047470897E+03  0.15309346878E+03  0.15584283979E+04  0.15805603350E+04  0.15294330000E+03 0.  0.
    8880022    1    1    2    0    0 -0.15047470897E+03 -0.15309346878E+03  0.13555065168E+04  0.13808945717E+04  0.15294330000E+03 0.  0.
<mgrwt>
<rscale>  0 0.26357523E+03</rscale>
<asrwt>0</asrwt>
<pdfrwt beam="1">  1        4 0.36553847E-02 0.26357523E+03</pdfrwt>
<pdfrwt beam="2">  1       -4 0.45195297E+00 0.26357523E+03</pdfrwt>
<totfact> 0.27091951E+00</totfact>
</mgrwt>
</event>
<event>
 4    1  0.8742165E-009  0.1579898E+03  0.7818608E-02  0.1190985E+00
         -4   -1    0    0    0  501 -0.00000000000E+00  0.00000000000E+00  0.12129586689E+03  0.12130251533E+03  0.12700000000E+01 0.  1.
          4   -1    0    0  501    0  0.00000000000E+00 -0.00000000000E+00 -0.25190011201E+03  0.25190331346E+03  0.12700000000E+01 0.  1.
    8880022    1    1    2    0    0 -0.34705401815E+02 -0.19096374085E+02  0.14550149928E+02  0.15865842649E+03  0.15294330000E+03 0.  1.
    8880022    1    1    2    0    0  0.34705401815E+02  0.19096374085E+02 -0.14515439505E+03  0.21454740230E+03  0.15294330000E+03 0.  1.
<mgrwt>
<rscale>  0 0.15798984E+03</rscale>
<asrwt>0</asrwt>
<pdfrwt beam="1">  1        4 0.38754621E-01 0.15798984E+03</pdfrwt>
<pdfrwt beam="2">  1       -4 0.18661660E-01 0.15798984E+03</pdfrwt>
<totfact> 0.28327360E+02</totfact>
</mgrwt>
</event>
<event>
 4    1  0.8742165E-009  0.2624612E+03  0.7818608E-02  0.1105673E+00
         -4   -1    0    0    0  501 -0.00000000000E+00  0.00000000000E+00  0.18676535271E+03  0.18676967064E+03  0.12700000000E+01 0. -1.
          4   -1    0    0  501    0  0.00000000000E+00 -0.00000000000E+00 -0.44576769778E+03  0.44576950690E+03  0.12700000000E+01 0. -1.
    8880022    1    1    2    0    0  0.96474458659E+02 -0.19022850894E+03  0.18938470861E+01  0.26246799130E+03  0.15294330000E+03 0.  0.
    8880022    1    1    2    0    0 -0.96474458659E+02  0.19022850894E+03 -0.26089619215E+03  0.37007118624E+03  0.15294330000E+03 0.  0.
<mgrwt>
<rscale>  0 0.26246116E+03</rscale>
<asrwt>0</asrwt>
<pdfrwt beam="1">  1        4 0.68580117E-01 0.26246116E+03</pdfrwt>
<pdfrwt beam="2">  1       -4 0.28733603E-01 0.26246116E+03</pdfrwt>
<totfact> 0.42078508E+01</totfact>
</mgrwt>
</event>
<event>
 4    1  0.8742165E-009  0.2341690E+03  0.7818608E-02  0.1123739E+00
          4   -1    0    0  501    0  0.00000000000E+00  0.00000000000E+00  0.67143734093E+03  0.67143854201E+03  0.12700000000E+01 0.  1.
         -4   -1    0    0    0  501 -0.00000000000E+00 -0.00000000000E+00 -0.88611355983E+02  0.88620456494E+02  0.12700000000E+01 0.  1.
    8880022    1    1    2    0    0  0.12686516697E+03 -0.12388985464E+03  0.18499448206E+03  0.29842600101E+03  0.15294330000E+03 0.  0.
    8880022    1    1    2    0    0 -0.12686516697E+03  0.12388985464E+03  0.39783150288E+03  0.46163299749E+03  0.15294330000E+03 0.  0.
<mgrwt>
<rscale>  0 0.23416900E+03</rscale>
<asrwt>0</asrwt>
<pdfrwt beam="1">  1        4 0.10329885E+00 0.23416900E+03</pdfrwt>
<pdfrwt beam="2">  1       -4 0.13633308E-01 0.23416900E+03</pdfrwt>
<totfact> 0.63919644E+01</totfact>
</mgrwt>
</event>
<event>
 4    1  0.8742165E-009  0.5639511E+03  0.7818608E-02  0.9983154E-01
         -4   -1    0    0    0  501 -0.00000000000E+00  0.00000000000E+00  0.25511223785E+03  0.25511539899E+03  0.12700000000E+01 0. -1.
          4   -1    0    0  501    0  0.00000000000E+00 -0.00000000000E+00 -0.12469106728E+04  0.12469113195E+04  0.12700000000E+01 0. -1.
    8880022    1    1    2    0    0  0.31015869170E+03  0.44547815535E+03 -0.48523189660E+03  0.74396965490E+03  0.15294330000E+03 0.  0.
    8880022    1    1    2    0    0 -0.31015869170E+03 -0.44547815535E+03 -0.50656653832E+03  0.75805706361E+03  0.15294330000E+03 0.  0.
<mgrwt>
<rscale>  0 0.56395111E+03</rscale>
<asrwt>0</asrwt>
<pdfrwt beam="1">  1        4 0.19183270E+00 0.56395111E+03</pdfrwt>
<pdfrwt beam="2">  1       -4 0.39248330E-01 0.56395111E+03</pdfrwt>
<totfact> 0.18723334E+00</totfact>
</mgrwt>
</event>
<event>
 4    1  0.8742165E-009  0.2025973E+03  0.7818608E-02  0.1147566E+00
          4   -1    0    0  501    0  0.00000000000E+00  0.00000000000E+00  0.98845957894E+03  0.98846039481E+03  0.12700000000E+01 0.  1.
         -4   -1    0    0    0  501 -0.00000000000E+00 -0.00000000000E+00 -0.41898233654E+02  0.41917477063E+02  0.12700000000E+01 0.  1.
    8880022    1    1    2    0    0  0.54596493066E+02 -0.12113311684E+03  0.52258371384E+03  0.56048140026E+03  0.15294330000E+03 0.  1.
    8880022    1    1    2    0    0 -0.54596493066E+02  0.12113311684E+03  0.42397763145E+03  0.46989647162E+03  0.15294330000E+03 0.  1.
<mgrwt>
<rscale>  0 0.20259729E+03</rscale>
<asrwt>0</asrwt>
<pdfrwt beam="1">  1        4 0.15207224E+00 0.20259729E+03</pdfrwt>
<pdfrwt beam="2">  1       -4 0.64474255E-02 0.20259729E+03</pdfrwt>
<totfact> 0.86163359E+01</totfact>
</mgrwt>
</event>
<event>
 4    1  0.8742165E-009  0.2598758E+03  0.7818608E-02  0.1107218E+00
          4   -1    0    0  501    0  0.00000000000E+00  0.00000000000E+00  0.10567844502E+03  0.10568607592E+03  0.12700000000E+01 0.  1.
         -4   -1    0    0    0  501 -0.00000000000E+00 -0.00000000000E+00 -0.77656766029E+03  0.77656869877E+03  0.12700000000E+01 0.  1.
    8880022    1    1    2    0    0  0.31787311477E+02  0.20768569001E+03 -0.52108667578E+03  0.58229438921E+03  0.15294330000E+03 0.  0.
    8880022    1    1    2    0    0 -0.31787311477E+02 -0.20768569001E+03 -0.14980253948E+03  0.29996038548E+03  0.15294330000E+03 0.  0.
<mgrwt>
<rscale>  0 0.25987580E+03</rscale>
<asrwt>0</asrwt>
<pdfrwt beam="1">  1        4 0.16258890E-01 0.25987580E+03</pdfrwt>
<pdfrwt beam="2">  1       -4 0.11947261E+00 0.25987580E+03</pdfrwt>
<totfact> 0.33413786E+01</totfact>
</mgrwt>
</event>
<event>
 4    1  0.8742165E-009  0.1698066E+03  0.7818608E-02  0.1178050E+00
          4   -1    0    0  501    0  0.00000000000E+00  0.00000000000E+00  0.46637371047E+03  0.46637543966E+03  0.12700000000E+01 0. -1.
         -4   -1    0    0    0  501 -0.00000000000E+00 -0.00000000000E+00 -0.65859565580E+02  0.65871809436E+02  0.12700000000E+01 0. -1.
    8880022    1    1    2    0    0 -0.52086562024E+02  0.52245701808E+02  0.26617319855E+03  0.31572527290E+03  0.15294330000E+03 0.  0.
    8880022    1    1    2    0    0  0.52086562024E+02 -0.52245701808E+02  0.13434094634E+03  0.21652197620E+03  0.15294330000E+03 0.  0.
<mgrwt>
<rscale>  0 0.16980659E+03</rscale>
<asrwt>0</asrwt>
<pdfrwt beam="1">  1        4 0.71750876E-01 0.16980659E+03</pdfrwt>
<pdfrwt beam="2">  1       -4 0.10133316E-01 0.16980659E+03</pdfrwt>
<totfact> 0.23238180E+02</totfact>
</mgrwt>
</event>
<event>
 4    1  0.8742165E-009  0.1614656E+03  0.7818608E-02  0.1187052E+00
         -4   -1    0    0    0  501 -0.00000000000E+00  0.00000000000E+00  0.37626476610E+03  0.37626690940E+03  0.12700000000E+01 0. -1.
          4   -1    0    0  501    0  0.00000000000E+00 -0.00000000000E+00 -0.70160939574E+02  0.70172432920E+02  0.12700000000E+01 0. -1.
    8880022    1    1    2    0    0 -0.51519047674E+02 -0.50270681719E+01  0.17804528271E+03  0.24035652560E+03  0.15294330000E+03 0.  1.
    8880022    1    1    2    0    0  0.51519047674E+02  0.50270681719E+01  0.12805854381E+03  0.20608281672E+03  0.15294330000E+03 0.  1.
<mgrwt>
<rscale>  0 0.16146559E+03</rscale>
<asrwt>0</asrwt>
<pdfrwt beam="1">  1        4 0.10795040E-01 0.16146559E+03</pdfrwt>
<pdfrwt beam="2">  1       -4 0.57887935E-01 0.16146559E+03</pdfrwt>
<totfact> 0.32739325E+02</totfact>
</mgrwt>
</event>
<event>
 4    1  0.8742165E-009  0.2021392E+03  0.7818608E-02  0.1147947E+00
          4   -1    0    0  501    0  0.00000000000E+00  0.00000000000E+00  0.65544556418E+03  0.65544679456E+03  0.12700000000E+01 0.  1.
         -4   -1    0    0    0  501 -0.00000000000E+00 -0.00000000000E+00 -0.10004612646E+03  0.10005418692E+03  0.12700000000E+01 0.  1.
    8880022    1    1    2    0    0 -0.60199338758E+02 -0.11766333209E+03  0.45783107393E+02  0.20725917602E+03  0.15294330000E+03 0.  0.
    8880022    1    1    2    0    0  0.60199338758E+02  0.11766333209E+03  0.50961633032E+03  0.54824180546E+03  0.15294330000E+03 0.  0.
<mgrwt>
<rscale>  0 0.20213924E+03</rscale>
<asrwt>0</asrwt>
<pdfrwt beam="1">  1        4 0.10083849E+00 0.20213924E+03</pdfrwt>
<pdfrwt beam="2">  1       -4 0.15392427E-01 0.20213924E+03</pdfrwt>
<totfact> 0.53716029E+01</totfact>
</mgrwt>
</event>
<event>
 4    1  0.8742165E-009  0.1581977E+03  0.7818608E-02  0.1190747E+00
          4   -1    0    0  501    0  0.00000000000E+00  0.00000000000E+00  0.78572388256E+03  0.78572490894E+03  0.12700000000E+01 0. -1.
         -4   -1    0    0    0  501 -0.00000000000E+00 -0.00000000000E+00 -0.31928221653E+02  0.31953469889E+02  0.12700000000E+01 0. -1.
    8880022    1    1    2    0    0 -0.37891282323E+02 -0.14110096369E+02  0.35515078297E+03  0.38879117242E+03  0.15294330000E+03 0.  1.
    8880022    1    1    2    0    0  0.37891282323E+02  0.14110096369E+02  0.39864487794E+03  0.42888720640E+03  0.15294330000E+03 0.  1.
<mgrwt>
<rscale>  0 0.15819765E+03</rscale>
<asrwt>0</asrwt>
<pdfrwt beam="1">  1        4 0.12088261E+00 0.15819765E+03</pdfrwt>
<pdfrwt beam="2">  1       -4 0.49140555E-02 0.15819765E+03</pdfrwt>
<totfact> 0.22966730E+02</totfact>
</mgrwt>
</event>
<event>
 4    1  0.8742165E-009  0.2234481E+03  0.7818608E-02  0.1131338E+00
         -4   -1    0    0    0  501 -0.00000000000E+00  0.00000000000E+00  0.11068579501E+03  0.11069308071E+03  0.12700000000E+01 0. -1.
          4   -1    0    0  501    0  0.00000000000E+00 -0.00000000000E+00 -0.45348310411E+03  0.45348488245E+03  0.12700000000E+01 0. -1.
    8880022    1    1    2    0    0  0.11772286290E+03  0.11259992777E+03 -0.19199605195E+03  0.29460406169E+03  0.15294330000E+03 0.  0.
    8880022    1    1    2    0    0 -0.11772286290E+03 -0.11259992777E+03 -0.15080125715E+03  0.26957390148E+03  0.15294330000E+03 0.  0.
<mgrwt>
<rscale>  0 0.22344814E+03</rscale>
<asrwt>0</asrwt>
<pdfrwt beam="1">  1        4 0.69767328E-01 0.22344814E+03</pdfrwt>
<pdfrwt beam="2">  1       -4 0.17029281E-01 0.22344814E+03</pdfrwt>
<totfact> 0.10428164E+02</totfact>
</mgrwt>
</event>
<event>
 4    1  0.8742165E-009  0.1776653E+03  0.7818608E-02  0.1170082E+00
         -4   -1    0    0    0  501 -0.00000000000E+00  0.00000000000E+00  0.36161951446E+02  0.36184245638E+02  0.12700000000E+01 0.  1.
          4   -1    0    0  501    0  0.00000000000E+00 -0.00000000000E+00 -0.10846225125E+04  0.10846232561E+04  0.12700000000E+01 0.  1.
    8880022    1    1    2    0    0 -0.83161565411E+02 -0.35460887102E+02 -0.77200792046E+03  0.79218760577E+03  0.15294330000E+03 0.  1.
    8880022    1    1    2    0    0  0.83161565411E+02  0.35460887102E+02 -0.27645264064E+03  0.32861989594E+03  0.15294330000E+03 0.  1.
<mgrwt>
<rscale>  0 0.17766534E+03</rscale>
<asrwt>0</asrwt>
<pdfrwt beam="1">  1        4 0.16686675E+00 0.17766534E+03</pdfrwt>
<pdfrwt beam="2">  1       -4 0.55651501E-02 0.17766534E+03</pdfrwt>
<totfact> 0.84479185E+01</totfact>
</mgrwt>
</event>
<event>
 4    1  0.8742165E-009  0.2192851E+03  0.7818608E-02  0.1134417E+00
         -4   -1    0    0    0  501 -0.00000000000E+00  0.00000000000E+00  0.43300652857E+03  0.43300839101E+03  0.12700000000E+01 0. -1.
          4   -1    0    0  501    0  0.00000000000E+00 -0.00000000000E+00 -0.14135826006E+03  0.14136396495E+03  0.12700000000E+01 0. -1.
    8880022    1    1    2    0    0  0.67337073751E+02 -0.14198592036E+03  0.27880905663E+03  0.35471175080E+03  0.15294330000E+03 0.  0.
    8880022    1    1    2    0    0 -0.67337073751E+02  0.14198592036E+03  0.12839211883E+02  0.21966060516E+03  0.15294330000E+03 0.  0.
<mgrwt>
<rscale>  0 0.21928506E+03</rscale>
<asrwt>0</asrwt>
<pdfrwt beam="1">  1        4 0.21748007E-01 0.21928506E+03</pdfrwt>
<pdfrwt beam="2">  1       -4 0.66616971E-01 0.21928506E+03</pdfrwt>
<totfact> 0.73877608E+01</totfact>
</mgrwt>
</event>
<event>
 4    1  0.8742165E-009  0.1744408E+03  0.7818608E-02  0.1173294E+00
          4   -1    0    0  501    0  0.00000000000E+00  0.00000000000E+00  0.80012498052E+02  0.80022576468E+02  0.12700000000E+01 0.  1.
         -4   -1    0    0    0  501 -0.00000000000E+00 -0.00000000000E+00 -0.39235889371E+03  0.39236094909E+03  0.12700000000E+01 0.  1.
    8880022    1    1    2    0    0 -0.11985892103E+02  0.83031866118E+02 -0.19762177013E+03  0.26359812109E+03  0.15294330000E+03 0.  0.
    8880022    1    1    2    0    0  0.11985892103E+02 -0.83031866118E+02 -0.11472462553E+03  0.20878540447E+03  0.15294330000E+03 0.  0.
<mgrwt>
<rscale>  0 0.17444084E+03</rscale>
<asrwt>0</asrwt>
<pdfrwt beam="1">  1        4 0.12310549E-01 0.17444084E+03</pdfrwt>
<pdfrwt beam="2">  1       -4 0.60363839E-01 0.17444084E+03</pdfrwt>
<totfact> 0.24246490E+02</totfact>
</mgrwt>
</event>
<event>
 4    1  0.8742165E-009  0.3114925E+03  0.7818608E-02  0.1079633E+00
          4   -1    0    0  501    0  0.00000000000E+00  0.00000000000E+00  0.33145588098E+03  0.33145831402E+03  0.12700000000E+01 0.  1.
         -4   -1    0    0    0  501 -0.00000000000E+00 -0.00000000000E+00 -0.65005334272E+03  0.65005458331E+03  0.12700000000E+01 0.  1.
    8880022    1    1    2    0    0  0.10035441489E+03 -0.25212084910E+03  0.20455160101E+03  0.37265123323E+03  0.15294330000E+03 0.  0.
    8880022    1    1    2    0    0 -0.10035441489E+03  0.25212084910E+03 -0.52314906275E+03  0.60886166410E+03  0.15294330000E+03 0.  0.
<mgrwt>
<rscale>  0 0.31149251E+03</rscale>
<asrwt>0</asrwt>
<pdfrwt beam="1">  1        4 0.50993495E-01 0.31149251E+03</pdfrwt>
<pdfrwt beam="2">  1       -4 0.10000849E+00 0.31149251E+03</pdfrwt>
<totfact> 0.58161972E+00</totfact>
</mgrwt>
</event>
<event>
 4    1  0.8742165E-009  0.1644610E+03  0.7818608E-02  0.1183750E+00
          4   -1    0    0  501    0  0.00000000000E+00  0.00000000000E+00  0.84551443336E+02  0.84560980779E+02  0.12700000000E+01 0.  1.
         -4   -1    0    0    0  501 -0.00000000000E+00 -0.00000000000E+00 -0.37368437432E+03  0.37368653242E+03  0.12700000000E+01 0.  1.
    8880022    1    1    2    0    0 -0.32678583398E+01  0.60374654515E+02 -0.23151909040E+03  0.28398683075E+03  0.15294330000E+03 0.  0.
    8880022    1    1    2    0    0  0.32678583398E+01 -0.60374654515E+02 -0.57613840590E+02  0.17426068245E+03  0.15294330000E+03 0.  0.
<mgrwt>
<rscale>  0 0.16446103E+03</rscale>
<asrwt>0</asrwt>
<pdfrwt beam="1">  1        4 0.13008814E-01 0.16446103E+03</pdfrwt>
<pdfrwt beam="2">  1       -4 0.57490802E-01 0.16446103E+03</pdfrwt>
<totfact> 0.24193251E+02</totfact>
</mgrwt>
</event>
<event>
 4    1  0.8742165E-009  0.2578330E+03  0.7818608E-02  0.1108452E+00
          4   -1    0    0  501    0  0.00000000000E+00  0.00000000000E+00  0.43942814539E+03  0.43942998061E+03  0.12700000000E+01 0. -1.
         -4   -1    0    0    0  501 -0.00000000000E+00 -0.00000000000E+00 -0.19189135804E+03  0.19189556063E+03  0.12700000000E+01 0. -1.
    8880022    1    1    2    0    0 -0.88828021725E+01 -0.20738196735E+03 -0.21450702443E+02  0.25872373337E+03  0.15294330000E+03 0.  0.
    8880022    1    1    2    0    0  0.88828021725E+01  0.20738196735E+03  0.26898748979E+03  0.37260180788E+03  0.15294330000E+03 0.  0.
<mgrwt>
<rscale>  0 0.25783296E+03</rscale>
<asrwt>0</asrwt>
<pdfrwt beam="1">  1        4 0.67604794E-01 0.25783296E+03</pdfrwt>
<pdfrwt beam="2">  1       -4 0.29522212E-01 0.25783296E+03</pdfrwt>
<totfact> 0.41149723E+01</totfact>
</mgrwt>
</event>
<event>
 4    1  0.8742165E-009  0.5022325E+03  0.7818608E-02  0.1013198E+00
         -4   -1    0    0    0  501 -0.00000000000E+00  0.00000000000E+00  0.21743709033E+03  0.21744079918E+03  0.12700000000E+01 0.  1.
          4   -1    0    0  501    0  0.00000000000E+00 -0.00000000000E+00 -0.14528739202E+04  0.14528744752E+04  0.12700000000E+01 0.  1.
    8880022    1    1    2    0    0 -0.16060175832E+03 -0.45061388510E+03 -0.24277219133E+03  0.55783132587E+03  0.15294330000E+03 0.  0.
    8880022    1    1    2    0    0  0.16060175832E+03  0.45061388510E+03 -0.99266463849E+03  0.11124839485E+04  0.15294330000E+03 0.  0.
<mgrwt>
<rscale>  0 0.50223247E+03</rscale>
<asrwt>0</asrwt>
<pdfrwt beam="1">  1        4 0.22351939E+00 0.50223247E+03</pdfrwt>
<pdfrwt beam="2">  1       -4 0.33452189E-01 0.50223247E+03</pdfrwt>
<totfact> 0.16113721E+00</totfact>
</mgrwt>
</event>
<event>
 4    1  0.8742165E-009  0.8764075E+03  0.7818608E-02  0.9455563E-01
         -4   -1    0    0    0  501 -0.00000000000E+00  0.00000000000E+00  0.14017235248E+04  0.14017241002E+04  0.12700000000E+01 0.  1.
          4   -1    0    0  501    0  0.00000000000E+00 -0.00000000000E+00 -0.73696243081E+03  0.73696352510E+03  0.12700000000E+01 0. -1.
    8880022    1    1    2    0    0 -0.85938947258E+03  0.78410044389E+02  0.87391754441E+03  0.12376679394E+04  0.15294330000E+03 0.  0.
    8880022    1    1    2    0    0  0.85938947258E+03 -0.78410044389E+02 -0.20915645039E+03  0.90101968591E+03  0.15294330000E+03 0.  0.
<mgrwt>
<rscale>  0 0.87640747E+03</rscale>
<asrwt>0</asrwt>
<pdfrwt beam="1">  1        4 0.11337896E+00 0.87640747E+03</pdfrwt>
<pdfrwt beam="2">  1       -4 0.21564990E+00 0.87640747E+03</pdfrwt>
<totfact> 0.12323515E-01</totfact>
</mgrwt>
</event>
<event>
 4    1  0.8742165E-009  0.2551782E+03  0.7818608E-02  0.1110075E+00
          4   -1    0    0  501    0  0.00000000000E+00  0.00000000000E+00  0.75654757945E+03  0.75654864541E+03  0.12700000000E+01 0. -1.
         -4   -1    0    0    0  501 -0.00000000000E+00 -0.00000000000E+00 -0.16788060658E+03  0.16788541022E+03  0.12700000000E+01 0. -1.
    8880022    1    1    2    0    0 -0.20277339685E+03  0.24641664501E+02  0.61700144071E+03  0.66768757137E+03  0.15294330000E+03 0.  0.
    8880022    1    1    2    0    0  0.20277339685E+03 -0.24641664501E+02 -0.28334467833E+02  0.25674648427E+03  0.15294330000E+03 0.  0.
<mgrwt>
<rscale>  0 0.25517820E+03</rscale>
<asrwt>0</asrwt>
<pdfrwt beam="1">  1        4 0.11639239E+00 0.25517820E+03</pdfrwt>
<pdfrwt beam="2">  1       -4 0.25828237E-01 0.25517820E+03</pdfrwt>
<totfact> 0.15253609E+01</totfact>
</mgrwt>
</event>
<event>
 4    1  0.8742165E-009  0.2830314E+03  0.7818608E-02  0.1094045E+00
         -4   -1    0    0    0  501 -0.00000000000E+00  0.00000000000E+00  0.44548342126E+03  0.44548523154E+03  0.12700000000E+01 0.  1.
          4   -1    0    0  501    0  0.00000000000E+00 -0.00000000000E+00 -0.72027575366E+03  0.72027687330E+03  0.12700000000E+01 0.  1.
    8880022    1    1    2    0    0 -0.25969422736E+02  0.23672915076E+03  0.36751045266E+03  0.46386494539E+03  0.15294330000E+03 0.  0.
    8880022    1    1    2    0    0  0.25969422736E+02 -0.23672915076E+03 -0.64230278505E+03  0.70189715944E+03  0.15294330000E+03 0.  0.
<mgrwt>
<rscale>  0 0.28303137E+03</rscale>
<asrwt>0</asrwt>
<pdfrwt beam="1">  1        4 0.11081188E+00 0.28303137E+03</pdfrwt>
<pdfrwt beam="2">  1       -4 0.68536136E-01 0.28303137E+03</pdfrwt>
<totfact> 0.24161375E+00</totfact>
</mgrwt>
</event>
<event>
 4    1  0.8742165E-009  0.2106736E+03  0.7818608E-02  0.1141034E+00
         -4   -1    0    0    0  501 -0.00000000000E+00  0.00000000000E+00  0.35982564160E+03  0.35982788281E+03  0.12700000000E+01 0.  1.
          4   -1    0    0  501    0  0.00000000000E+00 -0.00000000000E+00 -0.12340802947E+03  0.12341456412E+03  0.12700000000E+01 0.  1.
    8880022    1    1    2    0    0 -0.47395695825E+02  0.13691370075E+03  0.11257681794E+03  0.23886587531E+03  0.15294330000E+03 0.  0.
    8880022    1    1    2    0    0  0.47395695825E+02 -0.13691370075E+03  0.12384079419E+03  0.24437657162E+03  0.15294330000E+03 0.  0.
<mgrwt>
<rscale>  0 0.21067360E+03</rscale>
<asrwt>0</asrwt>
<pdfrwt beam="1">  1        4 0.18986526E-01 0.21067360E+03</pdfrwt>
<pdfrwt beam="2">  1       -4 0.55358466E-01 0.21067360E+03</pdfrwt>
<totfact> 0.13941779E+02</totfact>
</mgrwt>
</event>
<event>
 4    1  0.8742165E-009  0.1601485E+03  0.7818608E-02  0.1188529E+00
         -4   -1    0    0    0  501 -0.00000000000E+00  0.00000000000E+00  0.99406354602E+02  0.99414466931E+02  0.12700000000E+01 0.  1.
          4   -1    0    0  501    0  0.00000000000E+00 -0.00000000000E+00 -0.77503940373E+03  0.77504044425E+03  0.12700000000E+01 0.  1.
    8880022    1    1    2    0    0  0.47110949142E+02  0.60360558101E+01  0.19300103365E+02  0.16130723017E+03  0.15294330000E+03 0.  0.
    8880022    1    1    2    0    0 -0.47110949142E+02 -0.60360558101E+01 -0.69493315249E+03  0.71314768102E+03  0.15294330000E+03 0.  0.
<mgrwt>
<rscale>  0 0.16014846E+03</rscale>
<asrwt>0</asrwt>
<pdfrwt beam="1">  1        4 0.11923753E+00 0.16014846E+03</pdfrwt>
<pdfrwt beam="2">  1       -4 0.15293990E-01 0.16014846E+03</pdfrwt>
<totfact> 0.35483155E+01</totfact>
</mgrwt>
</event>
<event>
 4    1  0.8742165E-009  0.2213739E+03  0.7818608E-02  0.1132863E+00
          4   -1    0    0  501    0  0.00000000000E+00  0.00000000000E+00  0.80266265612E+03  0.80266366084E+03  0.12700000000E+01 0.  1.
         -4   -1    0    0    0  501 -0.00000000000E+00 -0.00000000000E+00 -0.61061716867E+02  0.61074922568E+02  0.12700000000E+01 0.  1.
    8880022    1    1    2    0    0  0.15367287614E+03  0.44714495078E+02  0.37747403386E+03  0.43759917525E+03  0.15294330000E+03 0.  0.
    8880022    1    1    2    0    0 -0.15367287614E+03 -0.44714495078E+02  0.36412690540E+03  0.42613940815E+03  0.15294330000E+03 0.  0.
<mgrwt>
<rscale>  0 0.22137387E+03</rscale>
<asrwt>0</asrwt>
<pdfrwt beam="1">  1        4 0.12348766E+00 0.22137387E+03</pdfrwt>
<pdfrwt beam="2">  1       -4 0.93952029E-02 0.22137387E+03</pdfrwt>
<totfact> 0.78460318E+01</totfact>
</mgrwt>
</event>
<event>
 4    1  0.8742165E-009  0.2062725E+03  0.7818608E-02  0.1144552E+00
          4   -1    0    0  501    0  0.00000000000E+00  0.00000000000E+00  0.22242214098E+03  0.22242576671E+03  0.12700000000E+01 0. -1.
         -4   -1    0    0    0  501 -0.00000000000E+00 -0.00000000000E+00 -0.19521099108E+03  0.19521512220E+03  0.12700000000E+01 0. -1.
    8880022    1    1    2    0    0 -0.13836804104E+03 -0.33159528736E+01 -0.15995483589E+02  0.20689180466E+03  0.15294330000E+03 0.  0.
    8880022    1    1    2    0    0  0.13836804104E+03  0.33159528736E+01  0.43206633493E+02  0.21074908426E+03  0.15294330000E+03 0.  0.
<mgrwt>
<rscale>  0 0.20627255E+03</rscale>
<asrwt>0</asrwt>
<pdfrwt beam="1">  1        4 0.34219387E-01 0.20627255E+03</pdfrwt>
<pdfrwt beam="2">  1       -4 0.30033057E-01 0.20627255E+03</pdfrwt>
<totfact> 0.15642360E+02</totfact>
</mgrwt>
</event>
<event>
 4    1  0.8742165E-009  0.2774329E+03  0.7818608E-02  0.1097099E+00
         -4   -1    0    0    0  501 -0.00000000000E+00  0.00000000000E+00  0.10684145620E+04  0.10684153168E+04  0.12700000000E+01 0.  1.
          4   -1    0    0  501    0  0.00000000000E+00 -0.00000000000E+00 -0.73338136660E+02  0.73349132161E+02  0.12700000000E+01 0.  1.
    8880022    1    1    2    0    0 -0.18436049884E+03 -0.13995914375E+03  0.57365928983E+03  0.63722365718E+03  0.15294330000E+03 0.  0.
    8880022    1    1    2    0    0  0.18436049884E+03  0.13995914375E+03  0.42141713547E+03  0.50454079174E+03  0.15294330000E+03 0.  0.
<mgrwt>
<rscale>  0 0.27743289E+03</rscale>
<asrwt>0</asrwt>
<pdfrwt beam="1">  1        4 0.11283694E-01 0.27743289E+03</pdfrwt>
<pdfrwt beam="2">  1       -4 0.16437238E+00 0.27743289E+03</pdfrwt>
<totfact> 0.28243249E+01</totfact>
</mgrwt>
</event>
<event>
 4    1  0.8742165E-009  0.1698590E+03  0.7818608E-02  0.1177995E+00
         -4   -1    0    0    0  501 -0.00000000000E+00  0.00000000000E+00  0.15150796177E+03  0.15151328450E+03  0.12700000000E+01 0. -1.
          4   -1    0    0  501    0  0.00000000000E+00 -0.00000000000E+00 -0.19045913397E+03  0.19046336817E+03  0.12700000000E+01 0. -1.
    8880022    1    1    2    0    0  0.33974202196E+02 -0.65621519216E+02 -0.17088114321E+02  0.17071639308E+03  0.15294330000E+03 0. -1.
    8880022    1    1    2    0    0 -0.33974202196E+02  0.65621519216E+02 -0.21863057882E+02  0.17126025959E+03  0.15294330000E+03 0. -1.
<mgrwt>
<rscale>  0 0.16985901E+03</rscale>
<asrwt>0</asrwt>
<pdfrwt beam="1">  1        4 0.29302140E-01 0.16985901E+03</pdfrwt>
<pdfrwt beam="2">  1       -4 0.23309652E-01 0.16985901E+03</pdfrwt>
<totfact> 0.32832866E+02</totfact>
</mgrwt>
</event>
<event>
 4    1  0.8742165E-009  0.1983762E+03  0.7818608E-02  0.1151116E+00
          4   -1    0    0  501    0  0.00000000000E+00  0.00000000000E+00  0.10894306168E+04  0.10894313571E+04  0.12700000000E+01 0. -1.
         -4   -1    0    0    0  501 -0.00000000000E+00 -0.00000000000E+00 -0.39486696247E+02  0.39507114302E+02  0.12700000000E+01 0. -1.
    8880022    1    1    2    0    0 -0.10943474859E+03  0.63130712981E+02  0.35996849994E+03  0.41101146588E+03  0.15294330000E+03 0.  1.
    8880022    1    1    2    0    0  0.10943474859E+03 -0.63130712981E+02  0.68997542063E+03  0.71792700549E+03  0.15294330000E+03 0.  1.
<mgrwt>
<rscale>  0 0.19837617E+03</rscale>
<asrwt>0</asrwt>
<pdfrwt beam="1">  1        4 0.16760633E+00 0.19837617E+03</pdfrwt>
<pdfrwt beam="2">  1       -4 0.60765041E-02 0.19837617E+03</pdfrwt>
<totfact> 0.73319620E+01</totfact>
</mgrwt>
</event>
<event>
 4    1  0.8742165E-009  0.2013390E+03  0.7818608E-02  0.1148614E+00
         -4   -1    0    0    0  501 -0.00000000000E+00  0.00000000000E+00  0.22887966688E+03  0.22888319032E+03  0.12700000000E+01 0.  1.
          4   -1    0    0  501    0  0.00000000000E+00 -0.00000000000E+00 -0.27543825879E+03  0.27544118665E+03  0.12700000000E+01 0. -1.
    8880022    1    1    2    0    0  0.92851865488E+02  0.92327074646E+02 -0.17394415115E+03  0.26607137834E+03  0.15294330000E+03 0.  0.
    8880022    1    1    2    0    0 -0.92851865488E+02 -0.92327074646E+02  0.12738555924E+03  0.23825299863E+03  0.15294330000E+03 0.  0.
<mgrwt>
<rscale>  0 0.20133904E+03</rscale>
<asrwt>0</asrwt>
<pdfrwt beam="1">  1        4 0.42375613E-01 0.20133904E+03</pdfrwt>
<pdfrwt beam="2">  1       -4 0.35212753E-01 0.20133904E+03</pdfrwt>
<totfact> 0.75316113E+01</totfact>
</mgrwt>
</event>
<event>
 4    1  0.8742165E-009  0.3259023E+03  0.7818608E-02  0.1072965E+00
         -4   -1    0    0    0  501 -0.00000000000E+00  0.00000000000E+00  0.14968066056E+03  0.14968604827E+03  0.12700000000E+01 0. -1.
          4   -1    0    0  501    0  0.00000000000E+00 -0.00000000000E+00 -0.96646306298E+03  0.96646389742E+03  0.12700000000E+01 0. -1.
    8880022    1    1    2    0    0 -0.27123737386E+03  0.96181713062E+02 -0.12067030424E+03  0.34752497787E+03  0.15294330000E+03 0.  0.
    8880022    1    1    2    0    0  0.27123737386E+03 -0.96181713062E+02 -0.69611209818E+03  0.76862496781E+03  0.15294330000E+03 0.  0.
<mgrwt>
<rscale>  0 0.32590227E+03</rscale>
<asrwt>0</asrwt>
<pdfrwt beam="1">  1        4 0.14868710E+00 0.32590227E+03</pdfrwt>
<pdfrwt beam="2">  1       -4 0.23028273E-01 0.32590227E+03</pdfrwt>
<totfact> 0.10403556E+01</totfact>
</mgrwt>
</event>
<event>
 4    1  0.8742165E-009  0.3352776E+03  0.7818608E-02  0.1068825E+00
          4   -1    0    0  501    0  0.00000000000E+00  0.00000000000E+00  0.72732224830E+02  0.72743311918E+02  0.12700000000E+01 0.  1.
         -4   -1    0    0    0  501 -0.00000000000E+00 -0.00000000000E+00 -0.17113644200E+04  0.17113648912E+04  0.12700000000E+01 0.  1.
    8880022    1    1    2    0    0 -0.91712914255E+01  0.29822019046E+03 -0.10970974175E+04  0.11471851599E+04  0.15294330000E+03 0.  0.
    8880022    1    1    2    0    0  0.91712914255E+01 -0.29822019046E+03 -0.54153477765E+03  0.63692304323E+03  0.15294330000E+03 0.  0.
<mgrwt>
<rscale>  0 0.33527757E+03</rscale>
<asrwt>0</asrwt>
<pdfrwt beam="1">  1        4 0.11190463E-01 0.33527757E+03</pdfrwt>
<pdfrwt beam="2">  1       -4 0.26328769E+00 0.33527757E+03</pdfrwt>
<totfact> 0.68709208E+00</totfact>
</mgrwt>
</event>
<event>
 4    1  0.8742165E-009  0.1541320E+03  0.7818608E-02  0.1195486E+00
         -4   -1    0    0    0  501 -0.00000000000E+00  0.00000000000E+00  0.20734708254E+03  0.20735097188E+03  0.12700000000E+01 0. -1.
          4   -1    0    0  501    0  0.00000000000E+00 -0.00000000000E+00 -0.13733842359E+03  0.13734429545E+03  0.12700000000E+01 0. -1.
    8880022    1    1    2    0    0 -0.18975478533E+02  0.22228041498E+01 -0.35173282872E+02  0.15809434679E+03  0.15294330000E+03 0.  0.
    8880022    1    1    2    0    0  0.18975478533E+02 -0.22228041498E+01  0.10518194183E+03  0.18660092054E+03  0.15294330000E+03 0.  0.
<mgrwt>
<rscale>  0 0.15413197E+03</rscale>
<asrwt>0</asrwt>
<pdfrwt beam="1">  1        4 0.21129739E-01 0.15413197E+03</pdfrwt>
<pdfrwt beam="2">  1       -4 0.31900302E-01 0.15413197E+03</pdfrwt>
<totfact> 0.32868624E+02</totfact>
</mgrwt>
</event>
<event>
 4    1  0.8742165E-009  0.2373685E+03  0.7818608E-02  0.1121558E+00
         -4   -1    0    0    0  501 -0.00000000000E+00  0.00000000000E+00  0.30590052580E+03  0.30590316210E+03  0.12700000000E+01 0.  1.
          4   -1    0    0  501    0  0.00000000000E+00 -0.00000000000E+00 -0.29196481405E+03  0.29196757619E+03  0.12700000000E+01 0.  1.
    8880022    1    1    2    0    0 -0.18054589510E+03 -0.18850122796E+02 -0.17465792984E+03  0.29470187111E+03  0.15294330000E+03 0.  0.
    8880022    1    1    2    0    0  0.18054589510E+03  0.18850122796E+02  0.18859364158E+03  0.30316886718E+03  0.15294330000E+03 0.  0.
<mgrwt>
<rscale>  0 0.23736849E+03</rscale>
<asrwt>0</asrwt>
<pdfrwt beam="1">  1        4 0.44918079E-01 0.23736849E+03</pdfrwt>
<pdfrwt beam="2">  1       -4 0.47062035E-01 0.23736849E+03</pdfrwt>
<totfact> 0.38319939E+01</totfact>
</mgrwt>
</event>
<event>
 4    1  0.8742165E-009  0.2314930E+03  0.7818608E-02  0.1125593E+00
          4   -1    0    0  501    0  0.00000000000E+00  0.00000000000E+00  0.22735218265E+03  0.22735572976E+03  0.12700000000E+01 0. -1.
         -4   -1    0    0    0  501 -0.00000000000E+00 -0.00000000000E+00 -0.23732669841E+03  0.23733009645E+03  0.12700000000E+01 0. -1.
    8880022    1    1    2    0    0 -0.55868706078E+02  0.16454806738E+03 -0.24209509578E+02  0.23275552016E+03  0.15294330000E+03 0.  0.
    8880022    1    1    2    0    0  0.55868706078E+02 -0.16454806738E+03  0.14234993816E+02  0.23193030604E+03  0.15294330000E+03 0.  0.
<mgrwt>
<rscale>  0 0.23149305E+03</rscale>
<asrwt>0</asrwt>
<pdfrwt beam="1">  1        4 0.34977793E-01 0.23149305E+03</pdfrwt>
<pdfrwt beam="2">  1       -4 0.36512334E-01 0.23149305E+03</pdfrwt>
<totfact> 0.10436010E+02</totfact>
</mgrwt>
</event>
<event>
 4    1  0.8742165E-009  0.2055226E+03  0.7818608E-02  0.1145161E+00
          4   -1    0    0  501    0  0.00000000000E+00  0.00000000000E+00  0.14244110887E+03  0.14244677040E+03  0.12700000000E+01 0.  1.
         -4   -1    0    0    0  501 -0.00000000000E+00 -0.00000000000E+00 -0.40686074203E+03  0.40686272416E+03  0.12700000000E+01 0.  1.
    8880022    1    1    2    0    0 -0.13290694057E+03  0.34403907605E+02  0.10815609694E+02  0.20580698272E+03  0.15294330000E+03 0.  0.
    8880022    1    1    2    0    0  0.13290694057E+03 -0.34403907605E+02 -0.27523524286E+03  0.34350251183E+03  0.15294330000E+03 0.  0.
<mgrwt>
<rscale>  0 0.20552259E+03</rscale>
<asrwt>0</asrwt>
<pdfrwt beam="1">  1        4 0.21914605E-01 0.20552259E+03</pdfrwt>
<pdfrwt beam="2">  1       -4 0.62594548E-01 0.20552259E+03</pdfrwt>
<totfact> 0.82592356E+01</totfact>
</mgrwt>
</event>
<event>
 4    1  0.8742165E-009  0.2010188E+03  0.7818608E-02  0.1148882E+00
          4   -1    0    0  501    0  0.00000000000E+00  0.00000000000E+00  0.29931845077E+03  0.29932114505E+03  0.12700000000E+01 0.  1.
         -4   -1    0    0    0  501 -0.00000000000E+00 -0.00000000000E+00 -0.17026164307E+03  0.17026637953E+03  0.12700000000E+01 0.  1.
    8880022    1    1    2    0    0  0.12989691848E+03  0.11987256356E+02  0.17138374477E+03  0.26416083118E+03  0.15294330000E+03 0.  0.
    8880022    1    1    2    0    0 -0.12989691848E+03 -0.11987256356E+02 -0.42326937061E+02  0.20542669340E+03  0.15294330000E+03 0.  0.
<mgrwt>
<rscale>  0 0.20101880E+03</rscale>
<asrwt>0</asrwt>
<pdfrwt beam="1">  1        4 0.46049563E-01 0.20101880E+03</pdfrwt>
<pdfrwt beam="2">  1       -4 0.26194671E-01 0.20101880E+03</pdfrwt>
<totfact> 0.11202262E+02</totfact>
</mgrwt>
</event>
<event>
 4    1  0.8742165E-009  0.2022800E+03  0.7818608E-02  0.1147830E+00
          4   -1    0    0  501    0  0.00000000000E+00  0.00000000000E+00  0.17106429672E+03  0.17106901097E+03  0.12700000000E+01 0. -1.
         -4   -1    0    0    0  501 -0.00000000000E+00 -0.00000000000E+00 -0.24267109738E+03  0.24267442058E+03  0.12700000000E+01 0. -1.
    8880022    1    1    2    0    0 -0.37146579631E+02  0.12706560360E+03 -0.60607906853E+02  0.21116464521E+03  0.15294330000E+03 0.  0.
    8880022    1    1    2    0    0  0.37146579631E+02 -0.12706560360E+03 -0.10998893808E+02  0.20257878634E+03  0.15294330000E+03 0.  0.
<mgrwt>
<rscale>  0 0.20227998E+03</rscale>
<asrwt>0</asrwt>
<pdfrwt beam="1">  1        4 0.26318202E-01 0.20227998E+03</pdfrwt>
<pdfrwt beam="2">  1       -4 0.37334633E-01 0.20227998E+03</pdfrwt>
<totfact> 0.16888627E+02</totfact>
</mgrwt>
</event>
<event>
 4    1  0.8742165E-009  0.2115349E+03  0.7818608E-02  0.1140356E+00
          4   -1    0    0  501    0  0.00000000000E+00  0.00000000000E+00  0.68696689352E+03  0.68696806745E+03  0.12700000000E+01 0. -1.
         -4   -1    0    0    0  501 -0.00000000000E+00 -0.00000000000E+00 -0.70377752973E+02  0.70389210918E+02  0.12700000000E+01 0. -1.
    8880022    1    1    2    0    0  0.57170376342E+02 -0.13448754726E+03  0.41169306409E+03  0.46285870882E+03  0.15294330000E+03 0. -1.
    8880022    1    1    2    0    0 -0.57170376342E+02  0.13448754726E+03  0.20489607646E+03  0.29449856954E+03  0.15294330000E+03 0. -1.
<mgrwt>
<rscale>  0 0.21153488E+03</rscale>
<asrwt>0</asrwt>
<pdfrwt beam="1">  1        4 0.10568819E+00 0.21153488E+03</pdfrwt>
<pdfrwt beam="2">  1       -4 0.10828318E-01 0.21153488E+03</pdfrwt>
<totfact> 0.89076486E+01</totfact>
</mgrwt>
</event>
<event>
 4    1  0.8742165E-009  0.1931218E+03  0.7818608E-02  0.1155675E+00
         -4   -1    0    0    0  501 -0.00000000000E+00  0.00000000000E+00  0.87039919111E+02  0.87049183907E+02  0.12700000000E+01 0. -1.
          4   -1    0    0  501    0  0.00000000000E+00 -0.00000000000E+00 -0.43136819163E+03  0.43137006114E+03  0.12700000000E+01 0. -1.
    8880022    1    1    2    0    0  0.53558304191E+02 -0.10505181868E+03 -0.15088250346E+03  0.24507459971E+03  0.15294330000E+03 0. -1.
    8880022    1    1    2    0    0 -0.53558304191E+02  0.10505181868E+03 -0.19344576906E+03  0.27334464535E+03  0.15294330000E+03 0. -1.
<mgrwt>
<rscale>  0 0.19312180E+03</rscale>
<asrwt>0</asrwt>
<pdfrwt beam="1">  1        4 0.66365192E-01 0.19312180E+03</pdfrwt>
<pdfrwt beam="2">  1       -4 0.13391614E-01 0.19312180E+03</pdfrwt>
<totfact> 0.17397026E+02</totfact>
</mgrwt>
</event>
<event>
 4    1  0.8742165E-009  0.2084427E+03  0.7818608E-02  0.1142805E+00
          4   -1    0    0  501    0  0.00000000000E+00  0.00000000000E+00  0.31256193566E+03  0.31256451578E+03  0.12700000000E+01 0.  1.
         -4   -1    0    0    0  501 -0.00000000000E+00 -0.00000000000E+00 -0.14515721947E+03  0.14516277506E+03  0.12700000000E+01 0.  1.
    8880022    1    1    2    0    0  0.63532279103E+02 -0.12657159970E+03  0.36572569218E+02  0.21162685598E+03  0.15294330000E+03 0.  0.
    8880022    1    1    2    0    0 -0.63532279103E+02  0.12657159970E+03  0.13083214698E+03  0.24610043486E+03  0.15294330000E+03 0.  0.
<mgrwt>
<rscale>  0 0.20844273E+03</rscale>
<asrwt>0</asrwt>
<pdfrwt beam="1">  1        4 0.48087076E-01 0.20844273E+03</pdfrwt>
<pdfrwt beam="2">  1       -4 0.22332506E-01 0.20844273E+03</pdfrwt>
<totfact> 0.13856499E+02</totfact>
</mgrwt>
</event>
<event>
 4    1  0.8742165E-009  0.4133664E+03  0.7818608E-02  0.1039247E+00
         -4   -1    0    0    0  501 -0.00000000000E+00  0.00000000000E+00  0.18276391842E+04  0.18276396254E+04  0.12700000000E+01 0. -1.
          4   -1    0    0  501    0  0.00000000000E+00 -0.00000000000E+00 -0.13893091530E+03  0.13893671987E+03  0.12700000000E+01 0. -1.
    8880022    1    1    2    0    0  0.35804160815E+03  0.13887531912E+03  0.28201215072E+03  0.50040249160E+03  0.15294330000E+03 0.  0.
    8880022    1    1    2    0    0 -0.35804160815E+03 -0.13887531912E+03  0.14066961181E+04  0.14661738537E+04  0.15294330000E+03 0.  0.
<mgrwt>
<rscale>  0 0.41336642E+03</rscale>
<asrwt>0</asrwt>
<pdfrwt beam="1">  1        4 0.21374469E-01 0.41336642E+03</pdfrwt>
<pdfrwt beam="2">  1       -4 0.28117572E+00 0.41336642E+03</pdfrwt>
<totfact> 0.16943365E+00</totfact>
</mgrwt>
</event>
<event>
 4    1  0.8742165E-009  0.2184554E+03  0.7818608E-02  0.1135040E+00
          4   -1    0    0  501    0  0.00000000000E+00  0.00000000000E+00  0.18474745969E+03  0.18475182479E+03  0.12700000000E+01 0. -1.
         -4   -1    0    0    0  501 -0.00000000000E+00 -0.00000000000E+00 -0.27489311340E+03  0.27489604707E+03  0.12700000000E+01 0. -1.
    8880022    1    1    2    0    0  0.45308431361E+02 -0.14925905066E+03  0.11383374807E+02  0.21875180547E+03  0.15294330000E+03 0. -1.
    8880022    1    1    2    0    0 -0.45308431361E+02  0.14925905066E+03 -0.10152902852E+03  0.24089606639E+03  0.15294330000E+03 0. -1.
<mgrwt>
<rscale>  0 0.21845542E+03</rscale>
<asrwt>0</asrwt>
<pdfrwt beam="1">  1        4 0.28423248E-01 0.21845542E+03</pdfrwt>
<pdfrwt beam="2">  1       -4 0.42291810E-01 0.21845542E+03</pdfrwt>
<totfact> 0.11531293E+02</totfact>
</mgrwt>
</event>
<event>
 4    1  0.8742165E-009  0.1531169E+03  0.7818608E-02  0.1196695E+00
          4   -1    0    0  501    0  0.00000000000E+00  0.00000000000E+00  0.31849569616E+03  0.31849822821E+03  0.12700000000E+01 0.  1.
         -4   -1    0    0    0  501 -0.00000000000E+00 -0.00000000000E+00 -0.94880599638E+02  0.94889098888E+02  0.12700000000E+01 0.  1.
    8880022    1    1    2    0    0  0.66994150642E+01 -0.28697675054E+01  0.13931751070E+02  0.15374935587E+03  0.15294330000E+03 0.  0.
    8880022    1    1    2    0    0 -0.66994150642E+01  0.28697675054E+01  0.20968334545E+03  0.25963797122E+03  0.15294330000E+03 0.  0.
<mgrwt>
<rscale>  0 0.15311685E+03</rscale>
<asrwt>0</asrwt>
<pdfrwt beam="1">  1        4 0.49000187E-01 0.15311685E+03</pdfrwt>
<pdfrwt beam="2">  1       -4 0.14597864E-01 0.15311685E+03</pdfrwt>
<totfact> 0.27206440E+02</totfact>
</mgrwt>
</event>
<event>
 4    1  0.8742165E-009  0.1666486E+03  0.7818608E-02  0.1181389E+00
         -4   -1    0    0    0  501 -0.00000000000E+00  0.00000000000E+00  0.21742185255E+03  0.21742556167E+03  0.12700000000E+01 0. -1.
          4   -1    0    0  501    0  0.00000000000E+00 -0.00000000000E+00 -0.18759338843E+03  0.18759768731E+03  0.12700000000E+01 0. -1.
    8880022    1    1    2    0    0 -0.35146483879E+02  0.56078659228E+02  0.12931599995E+03  0.21093689153E+03  0.15294330000E+03 0.  0.
    8880022    1    1    2    0    0  0.35146483879E+02 -0.56078659228E+02 -0.99487535828E+02  0.19408635745E+03  0.15294330000E+03 0.  0.
<mgrwt>
<rscale>  0 0.16664857E+03</rscale>
<asrwt>0</asrwt>
<pdfrwt beam="1">  1        4 0.28861137E-01 0.16664857E+03</pdfrwt>
<pdfrwt beam="2">  1       -4 0.33450132E-01 0.16664857E+03</pdfrwt>
<totfact> 0.17074239E+02</totfact>
</mgrwt>
</event>
<event>
 4    1  0.8742165E-009  0.2637841E+03  0.7818608E-02  0.1104891E+00
         -4   -1    0    0    0  501 -0.00000000000E+00  0.00000000000E+00  0.82944038395E+02  0.82953760646E+02  0.12700000000E+01 0.  1.
          4   -1    0    0  501    0  0.00000000000E+00 -0.00000000000E+00 -0.10296911043E+04  0.10296918875E+04  0.12700000000E+01 0.  1.
    8880022    1    1    2    0    0  0.18702556428E+03 -0.10588586791E+03 -0.23386887283E+03  0.35252897953E+03  0.15294330000E+03 0.  0.
    8880022    1    1    2    0    0 -0.18702556428E+03  0.10588586791E+03 -0.71287819309E+03  0.76011666862E+03  0.15294330000E+03 0.  0.
<mgrwt>
<rscale>  0 0.26378406E+03</rscale>
<asrwt>0</asrwt>
<pdfrwt beam="1">  1        4 0.15841482E+00 0.26378406E+03</pdfrwt>
<pdfrwt beam="2">  1       -4 0.12761430E-01 0.26378406E+03</pdfrwt>
<totfact> 0.25070897E+01</totfact>
</mgrwt>
</event>
<event>
 4    1  0.8742165E-009  0.3043267E+03  0.7818608E-02  0.1083098E+00
         -4   -1    0    0    0  501 -0.00000000000E+00  0.00000000000E+00  0.69122156188E+03  0.69122272858E+03  0.12700000000E+01 0.  1.
          4   -1    0    0  501    0  0.00000000000E+00 -0.00000000000E+00 -0.16480251928E+03  0.16480741264E+03  0.12700000000E+01 0.  1.
    8880022    1    1    2    0    0 -0.59793877783E+02  0.25621817602E+03  0.44829965370E+03  0.54183696262E+03  0.15294330000E+03 0.  0.
    8880022    1    1    2    0    0  0.59793877783E+02 -0.25621817602E+03  0.78119388902E+02  0.31419317860E+03  0.15294330000E+03 0.  0.
<mgrwt>
<rscale>  0 0.30432666E+03</rscale>
<asrwt>0</asrwt>
<pdfrwt beam="1">  1        4 0.25354700E-01 0.30432666E+03</pdfrwt>
<pdfrwt beam="2">  1       -4 0.10634224E+00 0.30432666E+03</pdfrwt>
<totfact> 0.19901661E+01</totfact>
</mgrwt>
</event>
<event>
 4    1  0.8742165E-009  0.1590389E+03  0.7818608E-02  0.1189786E+00
         -4   -1    0    0    0  501 -0.00000000000E+00  0.00000000000E+00  0.34918313015E+03  0.34918543968E+03  0.12700000000E+01 0.  1.
          4   -1    0    0  501    0  0.00000000000E+00 -0.00000000000E+00 -0.80570768781E+02  0.80580777373E+02  0.12700000000E+01 0.  1.
    8880022    1    1    2    0    0  0.10659576368E+02  0.42285931097E+02  0.20261420864E+03  0.25757697315E+03  0.15294330000E+03 0.  1.
    8880022    1    1    2    0    0 -0.10659576368E+02 -0.42285931097E+02  0.65998152725E+02  0.17218924390E+03  0.15294330000E+03 0.  1.
<mgrwt>
<rscale>  0 0.15903892E+03</rscale>
<asrwt>0</asrwt>
<pdfrwt beam="1">  1        4 0.12396450E-01 0.15903892E+03</pdfrwt>
<pdfrwt beam="2">  1       -4 0.53721430E-01 0.15903892E+03</pdfrwt>
<totfact> 0.30107103E+02</totfact>
</mgrwt>
</event>
<event>
 4    1  0.8742165E-009  0.2338400E+03  0.7818608E-02  0.1123966E+00
          4   -1    0    0  501    0  0.00000000000E+00  0.00000000000E+00  0.34499834378E+03  0.34500068132E+03  0.12700000000E+01 0.  1.
         -4   -1    0    0    0  501 -0.00000000000E+00 -0.00000000000E+00 -0.16023950762E+03  0.16024454032E+03  0.12700000000E+01 0.  1.
    8880022    1    1    2    0    0  0.11477749262E+03 -0.13459436104E+03  0.11876407283E+03  0.26227099124E+03  0.15294330000E+03 0.  0.
    8880022    1    1    2    0    0 -0.11477749262E+03  0.13459436104E+03  0.65994763327E+02  0.24297423040E+03  0.15294330000E+03 0.  0.
<mgrwt>
<rscale>  0 0.23384005E+03</rscale>
<asrwt>0</asrwt>
<pdfrwt beam="1">  1        4 0.53077235E-01 0.23384005E+03</pdfrwt>
<pdfrwt beam="2">  1       -4 0.24652799E-01 0.23384005E+03</pdfrwt>
<totfact> 0.95617396E+01</totfact>
</mgrwt>
</event>
<event>
 4    1  0.8742165E-009  0.1608811E+03  0.7818608E-02  0.1187706E+00
          4   -1    0    0  501    0  0.00000000000E+00  0.00000000000E+00  0.16379994491E+03  0.16380486822E+03  0.12700000000E+01 0.  1.
         -4   -1    0    0    0  501 -0.00000000000E+00 -0.00000000000E+00 -0.15941481636E+03  0.15941987509E+03  0.12700000000E+01 0.  1.
    8880022    1    1    2    0    0  0.68418614091E+01  0.49439526793E+02  0.17393319892E+02  0.16181859741E+03  0.15294330000E+03 0. -1.
    8880022    1    1    2    0    0 -0.68418614091E+01 -0.49439526793E+02 -0.13008191337E+02  0.16140614590E+03  0.15294330000E+03 0. -1.
<mgrwt>
<rscale>  0 0.16088111E+03</rscale>
<asrwt>0</asrwt>
<pdfrwt beam="1">  1        4 0.25200759E-01 0.16088111E+03</pdfrwt>
<pdfrwt beam="2">  1       -4 0.24526124E-01 0.16088111E+03</pdfrwt>
<totfact> 0.39286536E+02</totfact>
</mgrwt>
</event>
<event>
 4    1  0.8742165E-009  0.2976091E+03  0.7818608E-02  0.1086442E+00
         -4   -1    0    0    0  501 -0.00000000000E+00  0.00000000000E+00  0.90547206255E+03  0.90547295319E+03  0.12700000000E+01 0. -1.
          4   -1    0    0  501    0  0.00000000000E+00 -0.00000000000E+00 -0.13194939551E+03  0.13195550718E+03  0.12700000000E+01 0. -1.
    8880022    1    1    2    0    0 -0.15015846821E+03  0.20647507944E+03  0.65059027330E+03  0.71542915843E+03  0.15294330000E+03 0.  0.
    8880022    1    1    2    0    0  0.15015846821E+03 -0.20647507944E+03  0.12293239374E+03  0.32199930195E+03  0.15294330000E+03 0.  0.
<mgrwt>
<rscale>  0 0.29760910E+03</rscale>
<asrwt>0</asrwt>
<pdfrwt beam="1">  1        4 0.20300445E-01 0.29760910E+03</pdfrwt>
<pdfrwt beam="2">  1       -4 0.13930394E+00 0.29760910E+03</pdfrwt>
<totfact> 0.15436525E+01</totfact>
</mgrwt>
</event>
<event>
 4    1  0.8742165E-009  0.1920701E+03  0.7818608E-02  0.1156607E+00
         -4   -1    0    0    0  501 -0.00000000000E+00  0.00000000000E+00  0.33560228930E+02  0.33584250264E+02  0.12700000000E+01 0. -1.
          4   -1    0    0  501    0  0.00000000000E+00 -0.00000000000E+00 -0.11259649636E+04  0.11259656798E+04  0.12700000000E+01 0. -1.
    8880022    1    1    2    0    0  0.86540063305E+02 -0.77524718766E+02 -0.45619518190E+03  0.49497975876E+03  0.15294330000E+03 0.  0.
    8880022    1    1    2    0    0 -0.86540063305E+02  0.77524718766E+02 -0.63620955273E+03  0.66457017130E+03  0.15294330000E+03 0.  0.
<mgrwt>
<rscale>  0 0.19207009E+03</rscale>
<asrwt>0</asrwt>
<pdfrwt beam="1">  1        4 0.17322725E+00 0.19207009E+03</pdfrwt>
<pdfrwt beam="2">  1       -4 0.51650159E-02 0.19207009E+03</pdfrwt>
<totfact> 0.87108833E+01</totfact>
</mgrwt>
</event>
<event>
 4    1  0.8742165E-009  0.1786605E+03  0.7818608E-02  0.1169106E+00
         -4   -1    0    0    0  501 -0.00000000000E+00  0.00000000000E+00  0.11799184424E+03  0.11799867883E+03  0.12700000000E+01 0.  1.
          4   -1    0    0  501    0  0.00000000000E+00 -0.00000000000E+00 -0.62907452026E+03  0.62907580222E+03  0.12700000000E+01 0.  1.
    8880022    1    1    2    0    0 -0.43064822145E+02  0.81690485374E+02  0.26468999453E+02  0.18061056241E+03  0.15294330000E+03 0.  0.
    8880022    1    1    2    0    0  0.43064822145E+02 -0.81690485374E+02 -0.53755167548E+03  0.56646391865E+03  0.15294330000E+03 0.  0.
<mgrwt>
<rscale>  0 0.17866048E+03</rscale>
<asrwt>0</asrwt>
<pdfrwt beam="1">  1        4 0.96781318E-01 0.17866048E+03</pdfrwt>
<pdfrwt beam="2">  1       -4 0.18153216E-01 0.17866048E+03</pdfrwt>
<totfact> 0.43416608E+01</totfact>
</mgrwt>
</event>
<event>
 4    1  0.8742165E-009  0.2039715E+03  0.7818608E-02  0.1146431E+00
         -4   -1    0    0    0  501 -0.00000000000E+00  0.00000000000E+00  0.45337988444E+02  0.45355772468E+02  0.12700000000E+01 0.  1.
          4   -1    0    0  501    0  0.00000000000E+00 -0.00000000000E+00 -0.95072041021E+03  0.95072125846E+03  0.12700000000E+01 0.  1.
    8880022    1    1    2    0    0  0.21212093766E+02 -0.13327700382E+03 -0.35952572956E+03  0.41335591915E+03  0.15294330000E+03 0.  0.
    8880022    1    1    2    0    0 -0.21212093766E+02  0.13327700382E+03 -0.54585669221E+03  0.58272111178E+03  0.15294330000E+03 0.  0.
<mgrwt>
<rscale>  0 0.20397148E+03</rscale>
<asrwt>0</asrwt>
<pdfrwt beam="1">  1        4 0.14626610E+00 0.20397148E+03</pdfrwt>
<pdfrwt beam="2">  1       -4 0.69765091E-02 0.20397148E+03</pdfrwt>
<totfact> 0.83684458E+01</totfact>
</mgrwt>
</event>
<event>
 4    1  0.8742165E-009  0.1541748E+03  0.7818608E-02  0.1195435E+00
          4   -1    0    0  501    0  0.00000000000E+00  0.00000000000E+00  0.15752238016E+03  0.15752749967E+03  0.12700000000E+01 0.  1.
         -4   -1    0    0    0  501 -0.00000000000E+00 -0.00000000000E+00 -0.15222077418E+03  0.15222607198E+03  0.12700000000E+01 0.  1.
    8880022    1    1    2    0    0 -0.25878031480E+01 -0.19274683248E+02 -0.11840242238E+02  0.15462876346E+03  0.15294330000E+03 0. -1.
    8880022    1    1    2    0    0  0.25878031480E+01  0.19274683248E+02  0.17141848225E+02  0.15512480819E+03  0.15294330000E+03 0. -1.
<mgrwt>
<rscale>  0 0.15417478E+03</rscale>
<asrwt>0</asrwt>
<pdfrwt beam="1">  1        4 0.24235014E-01 0.15417478E+03</pdfrwt>
<pdfrwt beam="2">  1       -4 0.23419382E-01 0.15417478E+03</pdfrwt>
<totfact> 0.45623931E+02</totfact>
</mgrwt>
</event>
<event>
 4    1  0.8742165E-009  0.3055885E+03  0.7818608E-02  0.1082480E+00
         -4   -1    0    0    0  501 -0.00000000000E+00  0.00000000000E+00  0.60322626860E+03  0.60322760549E+03  0.12700000000E+01 0. -1.
          4   -1    0    0  501    0  0.00000000000E+00 -0.00000000000E+00 -0.16207725792E+03  0.16208223356E+03  0.12700000000E+01 0. -1.
    8880022    1    1    2    0    0  0.20613542559E+03 -0.16583386425E+03  0.13951549252E+03  0.33592991811E+03  0.15294330000E+03 0.  0.
    8880022    1    1    2    0    0 -0.20613542559E+03  0.16583386425E+03  0.30163351816E+03  0.42937992094E+03  0.15294330000E+03 0.  0.
<mgrwt>
<rscale>  0 0.30558851E+03</rscale>
<asrwt>0</asrwt>
<pdfrwt beam="1">  1        4 0.24935448E-01 0.30558851E+03</pdfrwt>
<pdfrwt beam="2">  1       -4 0.92804528E-01 0.30558851E+03</pdfrwt>
<totfact> 0.28297984E+01</totfact>
</mgrwt>
</event>
<event>
 4    1  0.8742165E-009  0.3105349E+03  0.7818608E-02  0.1080090E+00
         -4   -1    0    0    0  501 -0.00000000000E+00  0.00000000000E+00  0.31165008014E+03  0.31165266781E+03  0.12700000000E+01 0. -1.
          4   -1    0    0  501    0  0.00000000000E+00 -0.00000000000E+00 -0.41264846417E+03  0.41265041849E+03  0.12700000000E+01 0. -1.
    8880022    1    1    2    0    0  0.24004212375E+03  0.12417745207E+03  0.13063504517E+03  0.33689379457E+03  0.15294330000E+03 0. -1.
    8880022    1    1    2    0    0 -0.24004212375E+03 -0.12417745207E+03 -0.23163342920E+03  0.38740929173E+03  0.15294330000E+03 0. -1.
<mgrwt>
<rscale>  0 0.31053488E+03</rscale>
<asrwt>0</asrwt>
<pdfrwt beam="1">  1        4 0.63484729E-01 0.31053488E+03</pdfrwt>
<pdfrwt beam="2">  1       -4 0.47946515E-01 0.31053488E+03</pdfrwt>
<totfact> 0.18361564E+01</totfact>
</mgrwt>
</event>
<event>
 4    1  0.8742165E-009  0.1609963E+03  0.7818608E-02  0.1187577E+00
         -4   -1    0    0    0  501 -0.00000000000E+00  0.00000000000E+00  0.87794449015E+03  0.87794540871E+03  0.12700000000E+01 0. -1.
          4   -1    0    0  501    0  0.00000000000E+00 -0.00000000000E+00 -0.37005048564E+02  0.37026835123E+02  0.12700000000E+01 0. -1.
    8880022    1    1    2    0    0 -0.15361132744E+02  0.47876822065E+02  0.21463290611E+03  0.26830410338E+03  0.15294330000E+03 0.  0.
    8880022    1    1    2    0    0  0.15361132744E+02 -0.47876822065E+02  0.62630653547E+03  0.64666814045E+03  0.15294330000E+03 0.  0.
<mgrwt>
<rscale>  0 0.16099630E+03</rscale>
<asrwt>0</asrwt>
<pdfrwt beam="1">  1        4 0.56948306E-02 0.16099630E+03</pdfrwt>
<pdfrwt beam="2">  1       -4 0.13507014E+00 0.16099630E+03</pdfrwt>
<totfact> 0.13821960E+02</totfact>
</mgrwt>
</event>
<event>
 4    1  0.8742165E-009  0.2239998E+03  0.7818608E-02  0.1130936E+00
          4   -1    0    0  501    0  0.00000000000E+00  0.00000000000E+00  0.33405367746E+02  0.33429500359E+02  0.12700000000E+01 0. -1.
         -4   -1    0    0    0  501 -0.00000000000E+00 -0.00000000000E+00 -0.16506154984E+04  0.16506159870E+04  0.12700000000E+01 0. -1.
    8880022    1    1    2    0    0  0.94028161406E+02 -0.13395134388E+03 -0.10617157707E+04  0.10850881477E+04  0.15294330000E+03 0.  0.
    8880022    1    1    2    0    0 -0.94028161406E+02  0.13395134388E+03 -0.55549436000E+03  0.59895733961E+03  0.15294330000E+03 0.  0.
<mgrwt>
<rscale>  0 0.22399980E+03</rscale>
<asrwt>0</asrwt>
<pdfrwt beam="1">  1        4 0.51411826E-02 0.22399980E+03</pdfrwt>
<pdfrwt beam="2">  1       -4 0.25394268E+00 0.22399980E+03</pdfrwt>
<totfact> 0.28142373E+01</totfact>
</mgrwt>
</event>
<event>
 4    1  0.8742165E-009  0.1574156E+03  0.7818608E-02  0.1191646E+00
          4   -1    0    0  501    0  0.00000000000E+00  0.00000000000E+00  0.10879350448E+03  0.10880091689E+03  0.12700000000E+01 0. -1.
         -4   -1    0    0    0  501 -0.00000000000E+00 -0.00000000000E+00 -0.28242369203E+03  0.28242654747E+03  0.12700000000E+01 0. -1.
    8880022    1    1    2    0    0 -0.15185819566E+02  0.34020620719E+02 -0.75018085981E+00  0.15741736733E+03  0.15294330000E+03 0.  1.
    8880022    1    1    2    0    0  0.15185819566E+02 -0.34020620719E+02 -0.17288000669E+03  0.23381009704E+03  0.15294330000E+03 0.  1.
<mgrwt>
<rscale>  0 0.15741558E+03</rscale>
<asrwt>0</asrwt>
<pdfrwt beam="1">  1        4 0.16738252E-01 0.15741558E+03</pdfrwt>
<pdfrwt beam="2">  1       -4 0.43450588E-01 0.15741558E+03</pdfrwt>
<totfact> 0.27390896E+02</totfact>
</mgrwt>
</event>
<event>
 4    1  0.8742165E-009  0.2766015E+03  0.7818608E-02  0.1097560E+00
          4   -1    0    0  501    0  0.00000000000E+00  0.00000000000E+00  0.73275944381E+02  0.73286949213E+02  0.12700000000E+01 0.  1.
         -4   -1    0    0    0  501 -0.00000000000E+00 -0.00000000000E+00 -0.14883734018E+04  0.14883739436E+04  0.12700000000E+01 0.  1.
    8880022    1    1    2    0    0  0.22578914132E+03 -0.46217025706E+02 -0.11341886873E+04  0.11674298185E+04  0.15294330000E+03 0.  1.
    8880022    1    1    2    0    0 -0.22578914132E+03  0.46217025706E+02 -0.28090877013E+03  0.39423107431E+03  0.15294330000E+03 0.  1.
<mgrwt>
<rscale>  0 0.27660152E+03</rscale>
<asrwt>0</asrwt>
<pdfrwt beam="1">  1        4 0.11274111E-01 0.27660152E+03</pdfrwt>
<pdfrwt beam="2">  1       -4 0.22898139E+00 0.27660152E+03</pdfrwt>
<totfact> 0.10797786E+01</totfact>
</mgrwt>
</event>
<event>
 4    1  0.8742165E-009  0.1907718E+03  0.7818608E-02  0.1157767E+00
         -4   -1    0    0    0  501 -0.00000000000E+00  0.00000000000E+00  0.28562636748E+03  0.28562919091E+03  0.12700000000E+01 0.  1.
          4   -1    0    0  501    0  0.00000000000E+00 -0.00000000000E+00 -0.12748520515E+03  0.12749153083E+03  0.12700000000E+01 0.  1.
    8880022    1    1    2    0    0 -0.11291313791E+03 -0.15901612899E+02  0.84046878440E+02  0.20846527000E+03  0.15294330000E+03 0.  0.
    8880022    1    1    2    0    0  0.11291313791E+03  0.15901612899E+02  0.74094283890E+02  0.20465545174E+03  0.15294330000E+03 0.  0.
<mgrwt>
<rscale>  0 0.19077183E+03</rscale>
<asrwt>0</asrwt>
<pdfrwt beam="1">  1        4 0.19613812E-01 0.19077183E+03</pdfrwt>
<pdfrwt beam="2">  1       -4 0.43943222E-01 0.19077183E+03</pdfrwt>
<totfact> 0.20803694E+02</totfact>
</mgrwt>
</event>
<event>
 4    1  0.8742165E-009  0.2638608E+03  0.7818608E-02  0.1104846E+00
         -4   -1    0    0    0  501 -0.00000000000E+00  0.00000000000E+00  0.13140192466E+03  0.13140806180E+03  0.12700000000E+01 0.  1.
          4   -1    0    0  501    0  0.00000000000E+00 -0.00000000000E+00 -0.61066941594E+03  0.61067073653E+03  0.12700000000E+01 0.  1.
    8880022    1    1    2    0    0 -0.80977897090E+02 -0.19918198272E+03 -0.37463559488E+03  0.45822959750E+03  0.15294330000E+03 0.  1.
    8880022    1    1    2    0    0  0.80977897090E+02  0.19918198272E+03 -0.10463189639E+03  0.28384920084E+03  0.15294330000E+03 0.  1.
<mgrwt>
<rscale>  0 0.26386083E+03</rscale>
<asrwt>0</asrwt>
<pdfrwt beam="1">  1        4 0.93949713E-01 0.26386083E+03</pdfrwt>
<pdfrwt beam="2">  1       -4 0.20216255E-01 0.26386083E+03</pdfrwt>
<totfact> 0.39989322E+01</totfact>
</mgrwt>
</event>
<event>
 4    1  0.8742165E-009  0.1652381E+03  0.7818608E-02  0.1182907E+00
         -4   -1    0    0    0  501 -0.00000000000E+00  0.00000000000E+00  0.45595762732E+03  0.45595939601E+03  0.12700000000E+01 0.  1.
          4   -1    0    0  501    0  0.00000000000E+00 -0.00000000000E+00 -0.82961321739E+02  0.82971041964E+02  0.12700000000E+01 0.  1.
    8880022    1    1    2    0    0  0.61313574583E+02  0.12354049246E+02  0.32864034774E+03  0.36784250453E+03  0.15294330000E+03 0. -1.
    8880022    1    1    2    0    0 -0.61313574583E+02 -0.12354049246E+02  0.44355957845E+02  0.17108793345E+03  0.15294330000E+03 0. -1.
<mgrwt>
<rscale>  0 0.16523810E+03</rscale>
<asrwt>0</asrwt>
<pdfrwt beam="1">  1        4 0.12764165E-01 0.16523810E+03</pdfrwt>
<pdfrwt beam="2">  1       -4 0.70148208E-01 0.16523810E+03</pdfrwt>
<totfact> 0.16376435E+02</totfact>
</mgrwt>
</event>
<event>
 4    1  0.8742165E-009  0.1543671E+03  0.7818608E-02  0.1195207E+00
          4   -1    0    0  501    0  0.00000000000E+00  0.00000000000E+00  0.34190292272E+02  0.34213871246E+02  0.12700000000E+01 0.  1.
         -4   -1    0    0    0  501 -0.00000000000E+00 -0.00000000000E+00 -0.72025597518E+03  0.72025709485E+03  0.12700000000E+01 0.  1.
    8880022    1    1    2    0    0  0.13482954677E+02 -0.15992914429E+02 -0.41126139291E+03  0.43927798681E+03  0.15294330000E+03 0. -1.
    8880022    1    1    2    0    0 -0.13482954677E+02  0.15992914429E+02 -0.27480429000E+03  0.31519297929E+03  0.15294330000E+03 0. -1.
<mgrwt>
<rscale>  0 0.15436715E+03</rscale>
<asrwt>0</asrwt>
<pdfrwt beam="1">  1        4 0.52619454E-02 0.15436715E+03</pdfrwt>
<pdfrwt beam="2">  1       -4 0.11081050E+00 0.15436715E+03</pdfrwt>
<totfact> 0.25212044E+02</totfact>
</mgrwt>
</event>
<event>
 4    1  0.8742165E-009  0.2661279E+03  0.7818608E-02  0.1103516E+00
         -4   -1    0    0    0  501 -0.00000000000E+00  0.00000000000E+00  0.14983292159E+03  0.14983830382E+03  0.12700000000E+01 0.  1.
          4   -1    0    0  501    0  0.00000000000E+00 -0.00000000000E+00 -0.18520046170E+04  0.18520050524E+04  0.12700000000E+01 0.  1.
    8880022    1    1    2    0    0 -0.57869806417E+02  0.20996064262E+03 -0.17148850587E+04  0.17354119982E+04  0.15294330000E+03 0.  0.
    8880022    1    1    2    0    0  0.57869806417E+02 -0.20996064262E+03  0.12713363286E+02  0.26643135807E+03  0.15294330000E+03 0.  0.
<mgrwt>
<rscale>  0 0.26612786E+03</rscale>
<asrwt>0</asrwt>
<pdfrwt beam="1">  1        4 0.28492422E+00 0.26612786E+03</pdfrwt>
<pdfrwt beam="2">  1       -4 0.23051668E-01 0.26612786E+03</pdfrwt>
<totfact> 0.14012040E+00</totfact>
</mgrwt>
</event>
<event>
 4    1  0.8742165E-009  0.1557912E+03  0.7818608E-02  0.1193532E+00
          4   -1    0    0  501    0  0.00000000000E+00  0.00000000000E+00  0.51818746247E+03  0.51818901876E+03  0.12700000000E+01 0. -1.
         -4   -1    0    0    0  501 -0.00000000000E+00 -0.00000000000E+00 -0.65763003599E+02  0.65775265430E+02  0.12700000000E+01 0. -1.
    8880022    1    1    2    0    0 -0.13991376688E+02 -0.26143657165E+02  0.69556521404E+02  0.17061363403E+03  0.15294330000E+03 0.  0.
    8880022    1    1    2    0    0  0.13991376688E+02  0.26143657165E+02  0.38286793747E+03  0.41335065016E+03  0.15294330000E+03 0.  0.
<mgrwt>
<rscale>  0 0.15579121E+03</rscale>
<asrwt>0</asrwt>
<pdfrwt beam="1">  1        4 0.79722212E-01 0.15579121E+03</pdfrwt>
<pdfrwt beam="2">  1       -4 0.10118448E-01 0.15579121E+03</pdfrwt>
<totfact> 0.18227420E+02</totfact>
</mgrwt>
</event>
<event>
 4    1  0.8742165E-009  0.2089862E+03  0.7818608E-02  0.1142371E+00
         -4   -1    0    0    0  501 -0.00000000000E+00  0.00000000000E+00  0.12720717346E+03  0.12721351296E+03  0.12700000000E+01 0.  1.
          4   -1    0    0  501    0  0.00000000000E+00 -0.00000000000E+00 -0.16721422886E+04  0.16721427708E+04  0.12700000000E+01 0.  1.
    8880022    1    1    2    0    0  0.13363794048E+03  0.49238939282E+02 -0.15744825127E+04  0.15882916634E+04  0.15294330000E+03 0.  0.
    8880022    1    1    2    0    0 -0.13363794048E+03 -0.49238939282E+02  0.29547397555E+02  0.21106462042E+03  0.15294330000E+03 0.  0.
<mgrwt>
<rscale>  0 0.20898618E+03</rscale>
<asrwt>0</asrwt>
<pdfrwt beam="1">  1        4 0.25725317E+00 0.20898618E+03</pdfrwt>
<pdfrwt beam="2">  1       -4 0.19570860E-01 0.20898618E+03</pdfrwt>
<totfact> 0.27381063E+00</totfact>
</mgrwt>
</event>
<event>
 4    1  0.8742165E-009  0.1694089E+03  0.7818608E-02  0.1178466E+00
         -4   -1    0    0    0  501 -0.00000000000E+00  0.00000000000E+00  0.19573470211E+03  0.19573882219E+03  0.12700000000E+01 0.  1.
          4   -1    0    0  501    0  0.00000000000E+00 -0.00000000000E+00 -0.15971086529E+03  0.15971591464E+03  0.12700000000E+01 0.  1.
    8880022    1    1    2    0    0 -0.12101668696E+02  0.71841952380E+02  0.68902179749E+02  0.18288488154E+03  0.15294330000E+03 0. -1.
    8880022    1    1    2    0    0  0.12101668696E+02 -0.71841952380E+02 -0.32878342923E+02  0.17256985529E+03  0.15294330000E+03 0. -1.
<mgrwt>
<rscale>  0 0.16940888E+03</rscale>
<asrwt>0</asrwt>
<pdfrwt beam="1">  1        4 0.24571608E-01 0.16940888E+03</pdfrwt>
<pdfrwt beam="2">  1       -4 0.30113736E-01 0.16940888E+03</pdfrwt>
<totfact> 0.28273183E+02</totfact>
</mgrwt>
</event>
<event>
 4    1  0.8742165E-009  0.1533314E+03  0.7818608E-02  0.1196438E+00
          4   -1    0    0  501    0  0.00000000000E+00  0.00000000000E+00  0.40587022945E+03  0.40587221641E+03  0.12700000000E+01 0. -1.
         -4   -1    0    0    0  501 -0.00000000000E+00 -0.00000000000E+00 -0.65301532090E+03  0.65301655586E+03  0.12700000000E+01 0. -1.
    8880022    1    1    2    0    0 -0.41253699018E+01  0.10091387954E+02  0.38184441848E+03  0.41147985094E+03  0.15294330000E+03 0.  0.
    8880022    1    1    2    0    0  0.41253699018E+01 -0.10091387954E+02 -0.62898950994E+03  0.64740892133E+03  0.15294330000E+03 0.  0.
<mgrwt>
<rscale>  0 0.15333137E+03</rscale>
<asrwt>0</asrwt>
<pdfrwt beam="1">  1        4 0.62441821E-01 0.15333137E+03</pdfrwt>
<pdfrwt beam="2">  1       -4 0.10046414E+00 0.15333137E+03</pdfrwt>
<totfact> 0.35826727E+00</totfact>
</mgrwt>
</event>
<event>
 4    1  0.8742165E-009  0.1644766E+03  0.7818608E-02  0.1183733E+00
          4   -1    0    0  501    0  0.00000000000E+00  0.00000000000E+00  0.35040736793E+02  0.35063743882E+02  0.12700000000E+01 0.  1.
         -4   -1    0    0    0  501 -0.00000000000E+00 -0.00000000000E+00 -0.78328682313E+03  0.78328785270E+03  0.12700000000E+01 0.  1.
    8880022    1    1    2    0    0  0.49169419041E+02 -0.35260077294E+02 -0.32447564311E+03  0.36378152895E+03  0.15294330000E+03 0.  1.
    8880022    1    1    2    0    0 -0.49169419041E+02  0.35260077294E+02 -0.42377044322E+03  0.45457006763E+03  0.15294330000E+03 0.  1.
<mgrwt>
<rscale>  0 0.16447662E+03</rscale>
<asrwt>0</asrwt>
<pdfrwt beam="1">  1        4 0.53927322E-02 0.16447662E+03</pdfrwt>
<pdfrwt beam="2">  1       -4 0.12050750E+00 0.16447662E+03</pdfrwt>
<totfact> 0.20036323E+02</totfact>
</mgrwt>
</event>
<event>
 4    1  0.8742165E-009  0.1765895E+03  0.7818608E-02  0.1171145E+00
          4   -1    0    0  501    0  0.00000000000E+00  0.00000000000E+00  0.13053699664E+03  0.13054317443E+03  0.12700000000E+01 0.  1.
         -4   -1    0    0    0  501 -0.00000000000E+00 -0.00000000000E+00 -0.24267631318E+03  0.24267963631E+03  0.12700000000E+01 0.  1.
    8880022    1    1    2    0    0  0.81468161698E+02  0.33987503012E+02 -0.79423050025E+02  0.19362821494E+03  0.15294330000E+03 0.  0.
    8880022    1    1    2    0    0 -0.81468161698E+02 -0.33987503012E+02 -0.32716266519E+02  0.17959459580E+03  0.15294330000E+03 0.  0.
<mgrwt>
<rscale>  0 0.17658954E+03</rscale>
<asrwt>0</asrwt>
<pdfrwt beam="1">  1        4 0.20083346E-01 0.17658954E+03</pdfrwt>
<pdfrwt beam="2">  1       -4 0.37335548E-01 0.17658954E+03</pdfrwt>
<totfact> 0.27201128E+02</totfact>
</mgrwt>
</event>
<event>
 4    1  0.8742165E-009  0.1713352E+03  0.7818608E-02  0.1176463E+00
          4   -1    0    0  501    0  0.00000000000E+00  0.00000000000E+00  0.10502535278E+03  0.10503303112E+03  0.12700000000E+01 0. -1.
         -4   -1    0    0    0  501 -0.00000000000E+00 -0.00000000000E+00 -0.27953221569E+03  0.27953510068E+03  0.12700000000E+01 0. -1.
    8880022    1    1    2    0    0 -0.77176190797E+02  0.28190949369E+01 -0.84943807591E+02  0.19123601958E+03  0.15294330000E+03 0. -1.
    8880022    1    1    2    0    0  0.77176190797E+02 -0.28190949369E+01 -0.89563055318E+02  0.19333211222E+03  0.15294330000E+03 0. -1.
<mgrwt>
<rscale>  0 0.17133524E+03</rscale>
<asrwt>0</asrwt>
<pdfrwt beam="1">  1        4 0.16158559E-01 0.17133524E+03</pdfrwt>
<pdfrwt beam="2">  1       -4 0.43005769E-01 0.17133524E+03</pdfrwt>
<totfact> 0.30184082E+02</totfact>
</mgrwt>
</event>
<event>
 4    1  0.8742165E-009  0.2012923E+03  0.7818608E-02  0.1148653E+00
         -4   -1    0    0    0  501 -0.00000000000E+00  0.00000000000E+00  0.11757238588E+04  0.11757245448E+04  0.12700000000E+01 0.  1.
          4   -1    0    0  501    0  0.00000000000E+00 -0.00000000000E+00 -0.34991653079E+02  0.35014692419E+02  0.12700000000E+01 0.  1.
    8880022    1    1    2    0    0  0.48620243739E+02  0.12150316609E+03  0.64563840471E+03  0.67628954607E+03  0.15294330000E+03 0.  0.
    8880022    1    1    2    0    0 -0.48620243739E+02 -0.12150316609E+03  0.49509380104E+03  0.53444969110E+03  0.15294330000E+03 0.  0.
<mgrwt>
<rscale>  0 0.20129233E+03</rscale>
<asrwt>0</asrwt>
<pdfrwt beam="1">  1        4 0.53851573E-02 0.20129233E+03</pdfrwt>
<pdfrwt beam="2">  1       -4 0.18088238E+00 0.20129233E+03</pdfrwt>
<totfact> 0.72695199E+01</totfact>
</mgrwt>
</event>
<event>
 4    1  0.8742165E-009  0.1732975E+03  0.7818608E-02  0.1174452E+00
         -4   -1    0    0    0  501 -0.00000000000E+00  0.00000000000E+00  0.30301694119E+03  0.30301960258E+03  0.12700000000E+01 0.  1.
          4   -1    0    0  501    0  0.00000000000E+00 -0.00000000000E+00 -0.10113039530E+03  0.10113836934E+03  0.12700000000E+01 0.  1.
    8880022    1    1    2    0    0 -0.14204059852E+02 -0.80241024849E+02  0.72332034566E+02  0.18778699003E+03  0.15294330000E+03 0.  0.
    8880022    1    1    2    0    0  0.14204059852E+02  0.80241024849E+02  0.12955451133E+03  0.21637098189E+03  0.15294330000E+03 0.  0.
<mgrwt>
<rscale>  0 0.17329752E+03</rscale>
<asrwt>0</asrwt>
<pdfrwt beam="1">  1        4 0.15559340E-01 0.17329752E+03</pdfrwt>
<pdfrwt beam="2">  1       -4 0.46618809E-01 0.17329752E+03</pdfrwt>
<totfact> 0.27483064E+02</totfact>
</mgrwt>
</event>
<event>
 4    1  0.8742165E-009  0.2611967E+03  0.7818608E-02  0.1106426E+00
         -4   -1    0    0    0  501 -0.00000000000E+00  0.00000000000E+00  0.37204871362E+02  0.37226540977E+02  0.12700000000E+01 0. -1.
          4   -1    0    0  501    0  0.00000000000E+00 -0.00000000000E+00 -0.21138175675E+04  0.21138179490E+04  0.12700000000E+01 0. -1.
    8880022    1    1    2    0    0 -0.13093973221E+03  0.16639364311E+03 -0.64641987631E+03  0.69719607532E+03  0.15294330000E+03 0.  0.
    8880022    1    1    2    0    0  0.13093973221E+03 -0.16639364311E+03 -0.14301928198E+04  0.14538484147E+04  0.15294330000E+03 0.  0.
<mgrwt>
<rscale>  0 0.26119669E+03</rscale>
<asrwt>0</asrwt>
<pdfrwt beam="1">  1        4 0.32520431E+00 0.26119669E+03</pdfrwt>
<pdfrwt beam="2">  1       -4 0.57255243E-02 0.26119669E+03</pdfrwt>
<totfact> 0.90110870E+00</totfact>
</mgrwt>
</event>
<event>
 4    1  0.8742165E-009  0.2367843E+03  0.7818608E-02  0.1121954E+00
         -4   -1    0    0    0  501 -0.00000000000E+00  0.00000000000E+00  0.23448887246E+03  0.23449231162E+03  0.12700000000E+01 0.  1.
          4   -1    0    0  501    0  0.00000000000E+00 -0.00000000000E+00 -0.32029066498E+03  0.32029318284E+03  0.12700000000E+01 0.  1.
    8880022    1    1    2    0    0 -0.23183906032E+02  0.17926975128E+03  0.96763068730E+02  0.25579265374E+03  0.15294330000E+03 0.  0.
    8880022    1    1    2    0    0  0.23183906032E+02 -0.17926975128E+03 -0.18256486125E+03  0.29899284072E+03  0.15294330000E+03 0.  0.
<mgrwt>
<rscale>  0 0.23678427E+03</rscale>
<asrwt>0</asrwt>
<pdfrwt beam="1">  1        4 0.49275945E-01 0.23678427E+03</pdfrwt>
<pdfrwt beam="2">  1       -4 0.36075669E-01 0.23678427E+03</pdfrwt>
<totfact> 0.53961134E+01</totfact>
</mgrwt>
</event>
<event>
 4    1  0.8742165E-009  0.1606315E+03  0.7818608E-02  0.1187986E+00
         -4   -1    0    0    0  501 -0.00000000000E+00  0.00000000000E+00  0.14430704656E+04  0.14430710244E+04  0.12700000000E+01 0.  1.
          4   -1    0    0  501    0  0.00000000000E+00 -0.00000000000E+00 -0.18156911208E+02  0.18201272610E+02  0.12700000000E+01 0.  1.
    8880022    1    1    2    0    0  0.45818603787E+02  0.17648863749E+02  0.80621896045E+03  0.82206538186E+03  0.15294330000E+03 0. -1.
    8880022    1    1    2    0    0 -0.45818603787E+02 -0.17648863749E+02  0.61869459390E+03  0.63920691516E+03  0.15294330000E+03 0. -1.
<mgrwt>
<rscale>  0 0.16063150E+03</rscale>
<asrwt>0</asrwt>
<pdfrwt beam="1">  1        4 0.27968255E-02 0.16063150E+03</pdfrwt>
<pdfrwt beam="2">  1       -4 0.22201436E+00 0.16063150E+03</pdfrwt>
<totfact> 0.11110737E+02</totfact>
</mgrwt>
</event>
<event>
 4    1  0.8742165E-009  0.1730712E+03  0.7818608E-02  0.1174682E+00
          4   -1    0    0  501    0  0.00000000000E+00  0.00000000000E+00  0.18390952361E+04  0.18390956746E+04  0.12700000000E+01 0.  1.
         -4   -1    0    0    0  501 -0.00000000000E+00 -0.00000000000E+00 -0.66506213837E+02  0.66518338666E+02  0.12700000000E+01 0.  1.
    8880022    1    1    2    0    0 -0.21009068117E+02  0.78234285802E+02  0.58323775940E+02  0.18263433487E+03  0.15294330000E+03 0.  0.
    8880022    1    1    2    0    0  0.21009068117E+02 -0.78234285802E+02  0.17142652464E+04  0.17229796784E+04  0.15294330000E+03 0.  0.
<mgrwt>
<rscale>  0 0.17307119E+03</rscale>
<asrwt>0</asrwt>
<pdfrwt beam="1">  1        4 0.28293865E+00 0.17307119E+03</pdfrwt>
<pdfrwt beam="2">  1       -4 0.10232693E-01 0.17307119E+03</pdfrwt>
<totfact> 0.59925763E+00</totfact>
</mgrwt>
</event>
<event>
 4    1  0.8742165E-009  0.2076935E+03  0.7818608E-02  0.1143406E+00
         -4   -1    0    0    0  501 -0.00000000000E+00  0.00000000000E+00  0.55421637833E+03  0.55421783344E+03  0.12700000000E+01 0. -1.
          4   -1    0    0  501    0  0.00000000000E+00 -0.00000000000E+00 -0.10167761170E+03  0.10168554283E+03  0.12700000000E+01 0. -1.
    8880022    1    1    2    0    0 -0.61761472808E+02 -0.12621591947E+03  0.67441536399E+02  0.21836884324E+03  0.15294330000E+03 0.  0.
    8880022    1    1    2    0    0  0.61761472808E+02  0.12621591947E+03  0.38509723023E+03  0.43753453304E+03  0.15294330000E+03 0.  0.
<mgrwt>
<rscale>  0 0.20769350E+03</rscale>
<asrwt>0</asrwt>
<pdfrwt beam="1">  1        4 0.15643432E-01 0.20769350E+03</pdfrwt>
<pdfrwt beam="2">  1       -4 0.85264780E-01 0.20769350E+03</pdfrwt>
<totfact> 0.76983313E+01</totfact>
</mgrwt>
</event>
<event>
 4    1  0.8742165E-009  0.2091759E+03  0.7818608E-02  0.1142220E+00
          4   -1    0    0  501    0  0.00000000000E+00  0.00000000000E+00  0.12570994391E+03  0.12571635891E+03  0.12700000000E+01 0.  1.
         -4   -1    0    0    0  501 -0.00000000000E+00 -0.00000000000E+00 -0.61778703141E+03  0.61778833679E+03  0.12700000000E+01 0.  1.
    8880022    1    1    2    0    0 -0.35434976592E+02 -0.13822899807E+03 -0.49168317673E+03  0.53432845027E+03  0.15294330000E+03 0.  0.
    8880022    1    1    2    0    0  0.35434976592E+02  0.13822899807E+03 -0.39391076967E+00  0.20917624544E+03  0.15294330000E+03 0.  0.
<mgrwt>
<rscale>  0 0.20917587E+03</rscale>
<asrwt>0</asrwt>
<pdfrwt beam="1">  1        4 0.19340586E-01 0.20917587E+03</pdfrwt>
<pdfrwt beam="2">  1       -4 0.95044751E-01 0.20917587E+03</pdfrwt>
<totfact> 0.41155997E+01</totfact>
</mgrwt>
</event>
<event>
 4    1  0.8742165E-009  0.2586945E+03  0.7818608E-02  0.1107930E+00
          4   -1    0    0  501    0  0.00000000000E+00  0.00000000000E+00  0.79113198129E+03  0.79113300065E+03  0.12700000000E+01 0.  1.
         -4   -1    0    0    0  501 -0.00000000000E+00 -0.00000000000E+00 -0.28734433185E+03  0.28734713840E+03  0.12700000000E+01 0.  1.
    8880022    1    1    2    0    0  0.30601132454E+01  0.20861887824E+03 -0.20107193966E+03  0.32764733874E+03  0.15294330000E+03 0.  0.
    8880022    1    1    2    0    0 -0.30601132454E+01 -0.20861887824E+03  0.70485958911E+03  0.75083280031E+03  0.15294330000E+03 0.  0.
<mgrwt>
<rscale>  0 0.25869452E+03</rscale>
<asrwt>0</asrwt>
<pdfrwt beam="1">  1        4 0.12171291E+00 0.25869452E+03</pdfrwt>
<pdfrwt beam="2">  1       -4 0.44207115E-01 0.25869452E+03</pdfrwt>
<totfact> 0.48096463E+00</totfact>
</mgrwt>
</event>
<event>
 4    1  0.8742165E-009  0.1537789E+03  0.7818608E-02  0.1195905E+00
          4   -1    0    0  501    0  0.00000000000E+00  0.00000000000E+00  0.90542850933E+02  0.90551757328E+02  0.12700000000E+01 0. -1.
         -4   -1    0    0    0  501 -0.00000000000E+00 -0.00000000000E+00 -0.10530401459E+04  0.10530409117E+04  0.12700000000E+01 0. -1.
    8880022    1    1    2    0    0 -0.15767151805E+02 -0.27739885682E+01  0.14598013118E+02  0.15447023367E+03  0.15294330000E+03 0.  0.
    8880022    1    1    2    0    0  0.15767151805E+02  0.27739885682E+01 -0.97709530810E+03  0.98912243540E+03  0.15294330000E+03 0.  0.
<mgrwt>
<rscale>  0 0.15377890E+03</rscale>
<asrwt>0</asrwt>
<pdfrwt beam="1">  1        4 0.13930414E-01 0.15377890E+03</pdfrwt>
<pdfrwt beam="2">  1       -4 0.16200691E+00 0.15377890E+03</pdfrwt>
<totfact> 0.19267058E+01</totfact>
</mgrwt>
</event>
<event>
 4    1  0.8742165E-009  0.1548142E+03  0.7818608E-02  0.1194679E+00
          4   -1    0    0  501    0  0.00000000000E+00  0.00000000000E+00  0.14465061078E+03  0.14465618583E+03  0.12700000000E+01 0. -1.
         -4   -1    0    0    0  501 -0.00000000000E+00 -0.00000000000E+00 -0.18068680856E+03  0.18069127175E+03  0.12700000000E+01 0. -1.
    8880022    1    1    2    0    0  0.18280509199E+02  0.15543376409E+02 -0.64896927882E+02  0.16786613068E+03  0.15294330000E+03 0.  0.
    8880022    1    1    2    0    0 -0.18280509199E+02 -0.15543376409E+02  0.28860730102E+02  0.15748132690E+03  0.15294330000E+03 0.  0.
<mgrwt>
<rscale>  0 0.15481417E+03</rscale>
<asrwt>0</asrwt>
<pdfrwt beam="1">  1        4 0.22254712E-01 0.15481417E+03</pdfrwt>
<pdfrwt beam="2">  1       -4 0.27798743E-01 0.15481417E+03</pdfrwt>
<totfact> 0.38840007E+02</totfact>
</mgrwt>
</event>
<event>
 4    1  0.8742165E-009  0.2971231E+03  0.7818608E-02  0.1086688E+00
         -4   -1    0    0    0  501 -0.00000000000E+00  0.00000000000E+00  0.38411443505E+03  0.38411653455E+03  0.12700000000E+01 0.  1.
          4   -1    0    0  501    0  0.00000000000E+00 -0.00000000000E+00 -0.37191643474E+03  0.37191860310E+03  0.12700000000E+01 0. -1.
    8880022    1    1    2    0    0 -0.11246154336E+03 -0.22856702721E+03 -0.22755064745E+03  0.37424782542E+03  0.15294330000E+03 0.  0.
    8880022    1    1    2    0    0  0.11246154336E+03  0.22856702721E+03  0.23974864776E+03  0.38178731223E+03  0.15294330000E+03 0.  0.
<mgrwt>
<rscale>  0 0.29712310E+03</rscale>
<asrwt>0</asrwt>
<pdfrwt beam="1">  1        4 0.57218241E-01 0.29712310E+03</pdfrwt>
<pdfrwt beam="2">  1       -4 0.59094857E-01 0.29712310E+03</pdfrwt>
<totfact> 0.14754459E+01</totfact>
</mgrwt>
</event>
<event>
 4    1  0.8742165E-009  0.2759015E+03  0.7818608E-02  0.1097949E+00
         -4   -1    0    0    0  501 -0.00000000000E+00  0.00000000000E+00  0.80895421521E+03  0.80895521211E+03  0.12700000000E+01 0. -1.
          4   -1    0    0  501    0  0.00000000000E+00 -0.00000000000E+00 -0.94948548468E+02  0.94957041635E+02  0.12700000000E+01 0. -1.
    8880022    1    1    2    0    0  0.17196731510E+03  0.15217500541E+03  0.31411550395E+03  0.41807917022E+03  0.15294330000E+03 0.  0.
    8880022    1    1    2    0    0 -0.17196731510E+03 -0.15217500541E+03  0.39989016279E+03  0.48583308353E+03  0.15294330000E+03 0.  0.
<mgrwt>
<rscale>  0 0.27590151E+03</rscale>
<asrwt>0</asrwt>
<pdfrwt beam="1">  1        4 0.14608199E-01 0.27590151E+03</pdfrwt>
<pdfrwt beam="2">  1       -4 0.12445523E+00 0.27590151E+03</pdfrwt>
<totfact> 0.36752363E+01</totfact>
</mgrwt>
</event>
<event>
 4    1  0.8742165E-009  0.1538017E+03  0.7818608E-02  0.1195878E+00
         -4   -1    0    0    0  501 -0.00000000000E+00  0.00000000000E+00  0.34623574361E+03  0.34623807279E+03  0.12700000000E+01 0. -1.
          4   -1    0    0  501    0  0.00000000000E+00 -0.00000000000E+00 -0.68596403246E+02  0.68608158686E+02  0.12700000000E+01 0. -1.
    8880022    1    1    2    0    0 -0.16223991376E+02  0.31550136448E+00  0.15217524816E+03  0.21636144898E+03  0.15294330000E+03 0. -1.
    8880022    1    1    2    0    0  0.16223991376E+02 -0.31550136448E+00  0.12546409221E+03  0.19848478250E+03  0.15294330000E+03 0. -1.
<mgrwt>
<rscale>  0 0.15380172E+03</rscale>
<asrwt>0</asrwt>
<pdfrwt beam="1">  1        4 0.10554376E-01 0.15380172E+03</pdfrwt>
<pdfrwt beam="2">  1       -4 0.53268120E-01 0.15380172E+03</pdfrwt>
<totfact> 0.40088716E+02</totfact>
</mgrwt>
</event>
<event>
 4    1  0.8742165E-009  0.1908471E+03  0.7818608E-02  0.1157700E+00
         -4   -1    0    0    0  501 -0.00000000000E+00  0.00000000000E+00  0.30854329198E+02  0.30880455473E+02  0.12700000000E+01 0. -1.
          4   -1    0    0  501    0  0.00000000000E+00 -0.00000000000E+00 -0.13702162212E+04  0.13702168097E+04  0.12700000000E+01 0. -1.
    8880022    1    1    2    0    0 -0.64456773751E+01  0.11397109298E+03 -0.93073308050E+03  0.95009824595E+03  0.15294330000E+03 0.  0.
    8880022    1    1    2    0    0  0.64456773751E+01 -0.11397109298E+03 -0.40862881147E+03  0.45099901926E+03  0.15294330000E+03 0.  0.
<mgrwt>
<rscale>  0 0.19084708E+03</rscale>
<asrwt>0</asrwt>
<pdfrwt beam="1">  1        4 0.21080450E+00 0.19084708E+03</pdfrwt>
<pdfrwt beam="2">  1       -4 0.47488759E-02 0.19084708E+03</pdfrwt>
<totfact> 0.57137583E+01</totfact>
</mgrwt>
</event>
<event>
 4    1  0.8742165E-009  0.1626531E+03  0.7818608E-02  0.1185734E+00
          4   -1    0    0  501    0  0.00000000000E+00  0.00000000000E+00  0.37064850364E+03  0.37065067941E+03  0.12700000000E+01 0.  1.
         -4   -1    0    0    0  501 -0.00000000000E+00 -0.00000000000E+00 -0.93810596982E+02  0.93819193165E+02  0.12700000000E+01 0.  1.
    8880022    1    1    2    0    0  0.55243631110E+02  0.35371880393E+01  0.24840917172E+02  0.16453903688E+03  0.15294330000E+03 0.  0.
    8880022    1    1    2    0    0 -0.55243631110E+02 -0.35371880393E+01  0.25199698948E+03  0.29993083570E+03  0.15294330000E+03 0.  0.
<mgrwt>
<rscale>  0 0.16265308E+03</rscale>
<asrwt>0</asrwt>
<pdfrwt beam="1">  1        4 0.57023676E-01 0.16265308E+03</pdfrwt>
<pdfrwt beam="2">  1       -4 0.14433228E-01 0.16265308E+03</pdfrwt>
<totfact> 0.20507088E+02</totfact>
</mgrwt>
</event>
<event>
 4    1  0.8742165E-009  0.1711756E+03  0.7818608E-02  0.1176627E+00
          4   -1    0    0  501    0  0.00000000000E+00  0.00000000000E+00  0.41390955407E+03  0.41391150244E+03  0.12700000000E+01 0. -1.
         -4   -1    0    0    0  501 -0.00000000000E+00 -0.00000000000E+00 -0.97100914987E+02  0.97109219909E+02  0.12700000000E+01 0. -1.
    8880022    1    1    2    0    0  0.47683977027E+02  0.60296602996E+02  0.29141734816E+03  0.33797213764E+03  0.15294330000E+03 0.  0.
    8880022    1    1    2    0    0 -0.47683977027E+02 -0.60296602996E+02  0.25391290919E+02  0.17304858470E+03  0.15294330000E+03 0.  0.
<mgrwt>
<rscale>  0 0.17117563E+03</rscale>
<asrwt>0</asrwt>
<pdfrwt beam="1">  1        4 0.63679182E-01 0.17117563E+03</pdfrwt>
<pdfrwt beam="2">  1       -4 0.14939391E-01 0.17117563E+03</pdfrwt>
<totfact> 0.15415716E+02</totfact>
</mgrwt>
</event>
<event>
 4    1  0.8742165E-009  0.1767435E+03  0.7818608E-02  0.1170992E+00
          4   -1    0    0  501    0  0.00000000000E+00  0.00000000000E+00  0.32436031537E+03  0.32436280164E+03  0.12700000000E+01 0.  1.
         -4   -1    0    0    0  501 -0.00000000000E+00 -0.00000000000E+00 -0.14165713744E+03  0.14166283029E+03  0.12700000000E+01 0.  1.
    8880022    1    1    2    0    0 -0.82149990963E+02 -0.33136034388E+02  0.22319775416E+03  0.28470249080E+03  0.15294330000E+03 0.  0.
    8880022    1    1    2    0    0  0.82149990963E+02  0.33136034388E+02 -0.40494576228E+02  0.18132314113E+03  0.15294330000E+03 0.  0.
<mgrwt>
<rscale>  0 0.17674352E+03</rscale>
<asrwt>0</asrwt>
<pdfrwt beam="1">  1        4 0.49902216E-01 0.17674352E+03</pdfrwt>
<pdfrwt beam="2">  1       -4 0.21794035E-01 0.17674352E+03</pdfrwt>
<totfact> 0.13118209E+02</totfact>
</mgrwt>
</event>
<event>
 4    1  0.8742165E-009  0.2067356E+03  0.7818608E-02  0.1144177E+00
          4   -1    0    0  501    0  0.00000000000E+00  0.00000000000E+00  0.55184959833E+03  0.55185105969E+03  0.12700000000E+01 0.  1.
         -4   -1    0    0    0  501 -0.00000000000E+00 -0.00000000000E+00 -0.91684850057E+02  0.91693645526E+02  0.12700000000E+01 0.  1.
    8880022    1    1    2    0    0 -0.41762468281E+02 -0.13267955598E+03  0.35690147043E+03  0.41245397433E+03  0.15294330000E+03 0.  0.
    8880022    1    1    2    0    0  0.41762468281E+02  0.13267955598E+03  0.10326327784E+03  0.23109073088E+03  0.15294330000E+03 0.  0.
<mgrwt>
<rscale>  0 0.20673563E+03</rscale>
<asrwt>0</asrwt>
<pdfrwt beam="1">  1        4 0.84900727E-01 0.20673563E+03</pdfrwt>
<pdfrwt beam="2">  1       -4 0.14106151E-01 0.20673563E+03</pdfrwt>
<totfact> 0.93191301E+01</totfact>
</mgrwt>
</event>
<event>
 4    1  0.8742165E-009  0.3030493E+03  0.7818608E-02  0.1083726E+00
         -4   -1    0    0    0  501 -0.00000000000E+00  0.00000000000E+00  0.33149247856E+03  0.33149491134E+03  0.12700000000E+01 0.  1.
          4   -1    0    0  501    0  0.00000000000E+00 -0.00000000000E+00 -0.66512678553E+03  0.66512799800E+03  0.12700000000E+01 0.  1.
    8880022    1    1    2    0    0  0.23167827015E+03  0.12154169441E+03  0.21381955978E+03  0.37088766695E+03  0.15294330000E+03 0.  0.
    8880022    1    1    2    0    0 -0.23167827015E+03 -0.12154169441E+03 -0.54745386674E+03  0.62573524239E+03  0.15294330000E+03 0.  0.
<mgrwt>
<rscale>  0 0.30304927E+03</rscale>
<asrwt>0</asrwt>
<pdfrwt beam="1">  1        4 0.10232748E+00 0.30304927E+03</pdfrwt>
<pdfrwt beam="2">  1       -4 0.50999123E-01 0.30304927E+03</pdfrwt>
<totfact> 0.54989299E+00</totfact>
</mgrwt>
</event>
<event>
 4    1  0.8742165E-009  0.2446888E+03  0.7818608E-02  0.1116708E+00
          4   -1    0    0  501    0  0.00000000000E+00  0.00000000000E+00  0.48470274408E+03  0.48470440788E+03  0.12700000000E+01 0.  1.
         -4   -1    0    0    0  501 -0.00000000000E+00 -0.00000000000E+00 -0.23294013601E+03  0.23294359803E+03  0.12700000000E+01 0.  1.
    8880022    1    1    2    0    0  0.13027644456E+03 -0.13967460598E+03 -0.12004403144E+03  0.27254939014E+03  0.15294330000E+03 0.  0.
    8880022    1    1    2    0    0 -0.13027644456E+03  0.13967460598E+03  0.37180663951E+03  0.44509861578E+03  0.15294330000E+03 0.  0.
<mgrwt>
<rscale>  0 0.24468878E+03</rscale>
<asrwt>0</asrwt>
<pdfrwt beam="1">  1        4 0.74570046E-01 0.24468878E+03</pdfrwt>
<pdfrwt beam="2">  1       -4 0.35837339E-01 0.24468878E+03</pdfrwt>
<totfact> 0.22697497E+01</totfact>
</mgrwt>
</event>
<event>
 4    1  0.8742165E-009  0.3137616E+03  0.7818608E-02  0.1078557E+00
          4   -1    0    0  501    0  0.00000000000E+00  0.00000000000E+00  0.16430596677E+03  0.16431087492E+03  0.12700000000E+01 0. -1.
         -4   -1    0    0    0  501 -0.00000000000E+00 -0.00000000000E+00 -0.12389752368E+04  0.12389758877E+04  0.12700000000E+01 0. -1.
    8880022    1    1    2    0    0  0.40373540178E+02 -0.27096988019E+03 -0.33120895355E+02  0.31550490557E+03  0.15294330000E+03 0.  0.
    8880022    1    1    2    0    0 -0.40373540178E+02  0.27096988019E+03 -0.10415483747E+04  0.10877818571E+04  0.15294330000E+03 0.  0.
<mgrwt>
<rscale>  0 0.31376162E+03</rscale>
<asrwt>0</asrwt>
<pdfrwt beam="1">  1        4 0.25278269E-01 0.31376162E+03</pdfrwt>
<pdfrwt beam="2">  1       -4 0.19061200E+00 0.31376162E+03</pdfrwt>
<totfact> 0.44287615E+00</totfact>
</mgrwt>
</event>
<event>
 4    1  0.8742165E-009  0.1635803E+03  0.7818608E-02  0.1184713E+00
         -4   -1    0    0    0  501 -0.00000000000E+00  0.00000000000E+00  0.73836082628E+02  0.73847003987E+02  0.12700000000E+01 0. -1.
          4   -1    0    0  501    0  0.00000000000E+00 -0.00000000000E+00 -0.36319583518E+03  0.36319805560E+03  0.12700000000E+01 0. -1.
    8880022    1    1    2    0    0  0.55095665912E+02 -0.18202606224E+02 -0.13423193269E+03  0.21160513237E+03  0.15294330000E+03 0.  0.
    8880022    1    1    2    0    0 -0.55095665912E+02  0.18202606224E+02 -0.15512781987E+03  0.22543992723E+03  0.15294330000E+03 0.  0.
<mgrwt>
<rscale>  0 0.16358032E+03</rscale>
<asrwt>0</asrwt>
<pdfrwt beam="1">  1        4 0.55877292E-01 0.16358032E+03</pdfrwt>
<pdfrwt beam="2">  1       -4 0.11360408E-01 0.16358032E+03</pdfrwt>
<totfact> 0.32380473E+02</totfact>
</mgrwt>
</event>
<event>
 4    1  0.8742165E-009  0.1827725E+03  0.7818608E-02  0.1165146E+00
         -4   -1    0    0    0  501 -0.00000000000E+00  0.00000000000E+00  0.12156532688E+03  0.12157196058E+03  0.12700000000E+01 0. -1.
          4   -1    0    0  501    0  0.00000000000E+00 -0.00000000000E+00 -0.46371591739E+03  0.46371765649E+03  0.12700000000E+01 0. -1.
    8880022    1    1    2    0    0  0.96927932265E+02  0.24882255328E+02 -0.35787066972E+03  0.40184228242E+03  0.15294330000E+03 0.  0.
    8880022    1    1    2    0    0 -0.96927932265E+02 -0.24882255328E+02  0.15720079215E+02  0.18344733465E+03  0.15294330000E+03 0.  0.
<mgrwt>
<rscale>  0 0.18277255E+03</rscale>
<asrwt>0</asrwt>
<pdfrwt beam="1">  1        4 0.71341554E-01 0.18277255E+03</pdfrwt>
<pdfrwt beam="2">  1       -4 0.18703002E-01 0.18277255E+03</pdfrwt>
<totfact> 0.81768210E+01</totfact>
</mgrwt>
</event>
<event>
 4    1  0.8742165E-009  0.2897647E+03  0.7818608E-02  0.1090472E+00
         -4   -1    0    0    0  501 -0.00000000000E+00  0.00000000000E+00  0.87163767134E+03  0.87163859655E+03  0.12700000000E+01 0.  1.
          4   -1    0    0  501    0  0.00000000000E+00 -0.00000000000E+00 -0.11819898012E+03  0.11820580274E+03  0.12700000000E+01 0.  1.
    8880022    1    1    2    0    0 -0.22780482719E+03  0.93149799730E+02  0.58962858169E+03  0.65698207117E+03  0.15294330000E+03 0.  0.
    8880022    1    1    2    0    0  0.22780482719E+03 -0.93149799730E+02  0.16381010952E+03  0.33286232812E+03  0.15294330000E+03 0.  0.
<mgrwt>
<rscale>  0 0.28976469E+03</rscale>
<asrwt>0</asrwt>
<pdfrwt beam="1">  1        4 0.18185055E-01 0.28976469E+03</pdfrwt>
<pdfrwt beam="2">  1       -4 0.13409869E+00 0.28976469E+03</pdfrwt>
<totfact> 0.20724047E+01</totfact>
</mgrwt>
</event>
<event>
 4    1  0.8742165E-009  0.1797218E+03  0.7818608E-02  0.1168073E+00
         -4   -1    0    0    0  501 -0.00000000000E+00  0.00000000000E+00  0.87534389235E+03  0.87534481364E+03  0.12700000000E+01 0. -1.
          4   -1    0    0  501    0  0.00000000000E+00 -0.00000000000E+00 -0.37419290917E+02  0.37440836432E+02  0.12700000000E+01 0. -1.
    8880022    1    1    2    0    0  0.93684482231E+02 -0.11467546456E+02  0.47333600198E+03  0.50630713072E+03  0.15294330000E+03 0.  0.
    8880022    1    1    2    0    0 -0.93684482231E+02  0.11467546456E+02  0.36458859945E+03  0.40647851935E+03  0.15294330000E+03 0.  0.
<mgrwt>
<rscale>  0 0.17972184E+03</rscale>
<asrwt>0</asrwt>
<pdfrwt beam="1">  1        4 0.57585427E-02 0.17972184E+03</pdfrwt>
<pdfrwt beam="2">  1       -4 0.13467001E+00 0.17972184E+03</pdfrwt>
<totfact> 0.13893615E+02</totfact>
</mgrwt>
</event>
<event>
 4    1  0.8742165E-009  0.2201663E+03  0.7818608E-02  0.1133759E+00
          4   -1    0    0  501    0  0.00000000000E+00  0.00000000000E+00  0.11751868191E+04  0.11751875053E+04  0.12700000000E+01 0. -1.
         -4   -1    0    0    0  501 -0.00000000000E+00 -0.00000000000E+00 -0.41239613235E+02  0.41259163828E+02  0.12700000000E+01 0. -1.
    8880022    1    1    2    0    0 -0.15793333893E+03 -0.11773142280E+02  0.57203643555E+03  0.61294280568E+03  0.15294330000E+03 0.  0.
    8880022    1    1    2    0    0  0.15793333893E+03  0.11773142280E+02  0.56191077032E+03  0.60350386348E+03  0.15294330000E+03 0.  0.
<mgrwt>
<rscale>  0 0.22016630E+03</rscale>
<asrwt>0</asrwt>
<pdfrwt beam="1">  1        4 0.18079953E+00 0.22016630E+03</pdfrwt>
<pdfrwt beam="2">  1       -4 0.63461127E-02 0.22016630E+03</pdfrwt>
<totfact> 0.56178942E+01</totfact>
</mgrwt>
</event>
<event>
 4    1  0.8742165E-009  0.2283904E+03  0.7818608E-02  0.1127778E+00
          4   -1    0    0  501    0  0.00000000000E+00  0.00000000000E+00  0.80644595401E+03  0.80644695401E+03  0.12700000000E+01 0. -1.
         -4   -1    0    0    0  501 -0.00000000000E+00 -0.00000000000E+00 -0.83901643209E+02  0.83911254508E+02  0.12700000000E+01 0. -1.
    8880022    1    1    2    0    0 -0.99061683924E+02 -0.13768552751E+03  0.14817468887E+03  0.27224605258E+03  0.15294330000E+03 0.  0.
    8880022    1    1    2    0    0  0.99061683924E+02  0.13768552751E+03  0.57436962194E+03  0.61811215594E+03  0.15294330000E+03 0.  0.
<mgrwt>
<rscale>  0 0.22839040E+03</rscale>
<asrwt>0</asrwt>
<pdfrwt beam="1">  1        4 0.12406942E+00 0.22839040E+03</pdfrwt>
<pdfrwt beam="2">  1       -4 0.12908762E-01 0.22839040E+03</pdfrwt>
<totfact> 0.45131470E+01</totfact>
</mgrwt>
</event>
<event>
 4    1  0.8742165E-009  0.1562832E+03  0.7818608E-02  0.1192958E+00
          4   -1    0    0  501    0  0.00000000000E+00  0.00000000000E+00  0.30456208360E+03  0.30456473149E+03  0.12700000000E+01 0.  1.
         -4   -1    0    0    0  501 -0.00000000000E+00 -0.00000000000E+00 -0.80522877353E+02  0.80532891896E+02  0.12700000000E+01 0.  1.
    8880022    1    1    2    0    0 -0.48149625473E+01 -0.31774056223E+02  0.12445048984E+03  0.19978075971E+03  0.15294330000E+03 0.  1.
    8880022    1    1    2    0    0  0.48149625473E+01  0.31774056223E+02  0.99588716412E+02  0.18531686368E+03  0.15294330000E+03 0.  1.
<mgrwt>
<rscale>  0 0.15628316E+03</rscale>
<asrwt>0</asrwt>
<pdfrwt beam="1">  1        4 0.46856679E-01 0.15628316E+03</pdfrwt>
<pdfrwt beam="2">  1       -4 0.12389109E-01 0.15628316E+03</pdfrwt>
<totfact> 0.39732955E+02</totfact>
</mgrwt>
</event>
<event>
 4    1  0.8742165E-009  0.1812934E+03  0.7818608E-02  0.1166557E+00
          4   -1    0    0  501    0  0.00000000000E+00  0.00000000000E+00  0.29954144460E+03  0.29954413687E+03  0.12700000000E+01 0.  1.
         -4   -1    0    0    0  501 -0.00000000000E+00 -0.00000000000E+00 -0.24771530776E+03  0.24771856329E+03  0.12700000000E+01 0.  1.
    8880022    1    1    2    0    0  0.17374142987E+02 -0.95779954343E+02  0.23014179735E+03  0.29297194473E+03  0.15294330000E+03 0.  0.
    8880022    1    1    2    0    0 -0.17374142987E+02  0.95779954343E+02 -0.17831566051E+03  0.25429075543E+03  0.15294330000E+03 0.  0.
<mgrwt>
<rscale>  0 0.18129345E+03</rscale>
<asrwt>0</asrwt>
<pdfrwt beam="1">  1        4 0.46083757E-01 0.18129345E+03</pdfrwt>
<pdfrwt beam="2">  1       -4 0.38110505E-01 0.18129345E+03</pdfrwt>
<totfact> 0.53766361E+01</totfact>
</mgrwt>
</event>
<event>
 4    1  0.8742165E-009  0.2268332E+03  0.7818608E-02  0.1128889E+00
          4   -1    0    0  501    0  0.00000000000E+00  0.00000000000E+00  0.46750781426E+02  0.46768028224E+02  0.12700000000E+01 0. -1.
         -4   -1    0    0    0  501 -0.00000000000E+00 -0.00000000000E+00 -0.11003660664E+04  0.11003667992E+04  0.12700000000E+01 0. -1.
    8880022    1    1    2    0    0 -0.11236334393E+02 -0.16713879568E+03 -0.52674101142E+03  0.57350621475E+03  0.15294330000E+03 0.  1.
    8880022    1    1    2    0    0  0.11236334393E+02  0.16713879568E+03 -0.52687427351E+03  0.57362861272E+03  0.15294330000E+03 0.  1.
<mgrwt>
<rscale>  0 0.22683317E+03</rscale>
<asrwt>0</asrwt>
<pdfrwt beam="1">  1        4 0.71938118E-02 0.22683317E+03</pdfrwt>
<pdfrwt beam="2">  1       -4 0.16928845E+00 0.22683317E+03</pdfrwt>
<totfact> 0.54836762E+01</totfact>
</mgrwt>
</event>
<event>
 4    1  0.8742165E-009  0.4669832E+03  0.7818608E-02  0.1022775E+00
          4   -1    0    0  501    0  0.00000000000E+00  0.00000000000E+00  0.33155673015E+03  0.33155916245E+03  0.12700000000E+01 0. -1.
         -4   -1    0    0    0  501 -0.00000000000E+00 -0.00000000000E+00 -0.66541430874E+03  0.66541552069E+03  0.12700000000E+01 0. -1.
    8880022    1    1    2    0    0 -0.42438680713E+03  0.12073714019E+03 -0.22053242389E+03  0.51643762652E+03  0.15294330000E+03 0.  0.
    8880022    1    1    2    0    0  0.42438680713E+03 -0.12073714019E+03 -0.11332515470E+03  0.48053705662E+03  0.15294330000E+03 0.  0.
<mgrwt>
<rscale>  0 0.46698316E+03</rscale>
<asrwt>0</asrwt>
<pdfrwt beam="1">  1        4 0.51009008E-01 0.46698316E+03</pdfrwt>
<pdfrwt beam="2">  1       -4 0.10237171E+00 0.46698316E+03</pdfrwt>
<totfact> 0.56106527E+00</totfact>
</mgrwt>
</event>
<event>
 4    1  0.8742165E-009  0.1536215E+03  0.7818608E-02  0.1196092E+00
         -4   -1    0    0    0  501 -0.00000000000E+00  0.00000000000E+00  0.70842914525E+03  0.70843028361E+03  0.12700000000E+01 0.  1.
          4   -1    0    0  501    0  0.00000000000E+00 -0.00000000000E+00 -0.87376746681E+02  0.87385975766E+02  0.12700000000E+01 0.  1.
    8880022    1    1    2    0    0 -0.14063561320E+02  0.31819867360E+01  0.62352940171E+03  0.64217480223E+03  0.15294330000E+03 0.  0.
    8880022    1    1    2    0    0  0.14063561320E+02 -0.31819867360E+01 -0.24770031454E+01  0.15364145715E+03  0.15294330000E+03 0.  0.
<mgrwt>
<rscale>  0 0.15362149E+03</rscale>
<asrwt>0</asrwt>
<pdfrwt beam="1">  1        4 0.13443374E-01 0.15362149E+03</pdfrwt>
<pdfrwt beam="2">  1       -4 0.10898989E+00 0.15362149E+03</pdfrwt>
<totfact> 0.54721002E+01</totfact>
</mgrwt>
</event>
<event>
 4    1  0.8742165E-009  0.1646971E+03  0.7818608E-02  0.1183494E+00
          4   -1    0    0  501    0  0.00000000000E+00  0.00000000000E+00  0.20497998811E+03  0.20498392236E+03  0.12700000000E+01 0. -1.
         -4   -1    0    0    0  501 -0.00000000000E+00 -0.00000000000E+00 -0.13897166747E+03  0.13897747033E+03  0.12700000000E+01 0. -1.
    8880022    1    1    2    0    0 -0.31685630114E+02  0.52244524325E+02  0.70621673135E+02  0.17919972994E+03  0.15294330000E+03 0. -1.
    8880022    1    1    2    0    0  0.31685630114E+02 -0.52244524325E+02 -0.46133524993E+01  0.16476166276E+03  0.15294330000E+03 0. -1.
<mgrwt>
<rscale>  0 0.16469706E+03</rscale>
<asrwt>0</asrwt>
<pdfrwt beam="1">  1        4 0.31536131E-01 0.16469706E+03</pdfrwt>
<pdfrwt beam="2">  1       -4 0.21381006E-01 0.16469706E+03</pdfrwt>
<totfact> 0.33266088E+02</totfact>
</mgrwt>
</event>
<event>
 4    1  0.8742165E-009  0.2496841E+03  0.7818608E-02  0.1113505E+00
          4   -1    0    0  501    0  0.00000000000E+00  0.00000000000E+00  0.12243409268E+03  0.12244067931E+03  0.12700000000E+01 0.  1.
         -4   -1    0    0    0  501 -0.00000000000E+00 -0.00000000000E+00 -0.86614313698E+03  0.86614406806E+03  0.12700000000E+01 0.  1.
    8880022    1    1    2    0    0  0.19648045424E+03 -0.18599181198E+02 -0.68918066267E+03  0.73301578240E+03  0.15294330000E+03 0.  0.
    8880022    1    1    2    0    0 -0.19648045424E+03  0.18599181198E+02 -0.54528381631E+02  0.25556896497E+03  0.15294330000E+03 0.  0.
<mgrwt>
<rscale>  0 0.24968410E+03</rscale>
<asrwt>0</asrwt>
<pdfrwt beam="1">  1        4 0.18836593E-01 0.24968410E+03</pdfrwt>
<pdfrwt beam="2">  1       -4 0.13325336E+00 0.24968410E+03</pdfrwt>
<totfact> 0.19512383E+01</totfact>
</mgrwt>
</event>
<event>
 4    1  0.8742165E-009  0.1873884E+03  0.7818608E-02  0.1160838E+00
         -4   -1    0    0    0  501 -0.00000000000E+00  0.00000000000E+00  0.13735269268E+03  0.13735856393E+03  0.12700000000E+01 0.  1.
          4   -1    0    0  501    0  0.00000000000E+00 -0.00000000000E+00 -0.25674781285E+03  0.25675095385E+03  0.12700000000E+01 0.  1.
    8880022    1    1    2    0    0  0.10239087023E+03 -0.35197434099E+02 -0.46744773341E+02  0.19313072392E+03  0.15294330000E+03 0.  0.
    8880022    1    1    2    0    0 -0.10239087023E+03  0.35197434099E+02 -0.72650346830E+02  0.20097879386E+03  0.15294330000E+03 0.  0.
<mgrwt>
<rscale>  0 0.18738837E+03</rscale>
<asrwt>0</asrwt>
<pdfrwt beam="1">  1        4 0.39500357E-01 0.18738837E+03</pdfrwt>
<pdfrwt beam="2">  1       -4 0.21131877E-01 0.18738837E+03</pdfrwt>
<totfact> 0.22409647E+02</totfact>
</mgrwt>
</event>
<event>
 4    1  0.8742165E-009  0.1889539E+03  0.7818608E-02  0.1159408E+00
          4   -1    0    0  501    0  0.00000000000E+00  0.00000000000E+00  0.28932696895E+03  0.28932975627E+03  0.12700000000E+01 0.  1.
         -4   -1    0    0    0  501 -0.00000000000E+00 -0.00000000000E+00 -0.13742937920E+03  0.13743524718E+03  0.12700000000E+01 0.  1.
    8880022    1    1    2    0    0 -0.89187482689E+02  0.66011401241E+02  0.14413459236E+03  0.23765173236E+03  0.15294330000E+03 0. -1.
    8880022    1    1    2    0    0  0.89187482689E+02 -0.66011401241E+02  0.77629973897E+01  0.18911327110E+03  0.15294330000E+03 0. -1.
<mgrwt>
<rscale>  0 0.18895387E+03</rscale>
<asrwt>0</asrwt>
<pdfrwt beam="1">  1        4 0.44512507E-01 0.18895387E+03</pdfrwt>
<pdfrwt beam="2">  1       -4 0.21143647E-01 0.18895387E+03</pdfrwt>
<totfact> 0.17662243E+02</totfact>
</mgrwt>
</event>
<event>
 4    1  0.8742165E-009  0.1716075E+03  0.7818608E-02  0.1176182E+00
         -4   -1    0    0    0  501 -0.00000000000E+00  0.00000000000E+00  0.22613964598E+03  0.22614321211E+03  0.12700000000E+01 0.  1.
          4   -1    0    0  501    0  0.00000000000E+00 -0.00000000000E+00 -0.13687990661E+03  0.13688579814E+03  0.12700000000E+01 0.  1.
    8880022    1    1    2    0    0  0.45484038822E+02  0.63155900051E+02  0.45860031897E+01  0.17166872149E+03  0.15294330000E+03 0.  0.
    8880022    1    1    2    0    0 -0.45484038822E+02 -0.63155900051E+02  0.84673736184E+02  0.19136028876E+03  0.15294330000E+03 0.  0.
<mgrwt>
<rscale>  0 0.17160745E+03</rscale>
<asrwt>0</asrwt>
<pdfrwt beam="1">  1        4 0.21059175E-01 0.17160745E+03</pdfrwt>
<pdfrwt beam="2">  1       -4 0.34791442E-01 0.17160745E+03</pdfrwt>
<totfact> 0.28502214E+02</totfact>
</mgrwt>
</event>
<event>
 4    1  0.8742165E-009  0.1664216E+03  0.7818608E-02  0.1181632E+00
          4   -1    0    0  501    0  0.00000000000E+00  0.00000000000E+00  0.89262719317E+02  0.89271753427E+02  0.12700000000E+01 0. -1.
         -4   -1    0    0    0  501 -0.00000000000E+00 -0.00000000000E+00 -0.51561225096E+03  0.51561381502E+03  0.12700000000E+01 0. -1.
    8880022    1    1    2    0    0  0.18118162551E+02 -0.63057229147E+02 -0.22305229134E+02  0.16790967281E+03  0.15294330000E+03 0.  0.
    8880022    1    1    2    0    0 -0.18118162551E+02  0.63057229147E+02 -0.40404430250E+03  0.43697589563E+03  0.15294330000E+03 0.  0.
<mgrwt>
<rscale>  0 0.16642156E+03</rscale>
<asrwt>0</asrwt>
<pdfrwt beam="1">  1        4 0.13733542E-01 0.16642156E+03</pdfrwt>
<pdfrwt beam="2">  1       -4 0.79325775E-01 0.16642156E+03</pdfrwt>
<totfact> 0.11028782E+02</totfact>
</mgrwt>
</event>
<event>
 4    1  0.8742165E-009  0.1904392E+03  0.7818608E-02  0.1158066E+00
          4   -1    0    0  501    0  0.00000000000E+00  0.00000000000E+00  0.88589860090E+02  0.88598962809E+02  0.12700000000E+01 0. -1.
         -4   -1    0    0    0  501 -0.00000000000E+00 -0.00000000000E+00 -0.44744806087E+03  0.44744986319E+03  0.12700000000E+01 0. -1.
    8880022    1    1    2    0    0 -0.97659054998E+02 -0.57776560766E+02 -0.10122215063E+03  0.21566872465E+03  0.15294330000E+03 0.  0.
    8880022    1    1    2    0    0  0.97659054998E+02  0.57776560766E+02 -0.25763605014E+03  0.32038010136E+03  0.15294330000E+03 0.  0.
<mgrwt>
<rscale>  0 0.19043916E+03</rscale>
<asrwt>0</asrwt>
<pdfrwt beam="1">  1        4 0.13630048E-01 0.19043916E+03</pdfrwt>
<pdfrwt beam="2">  1       -4 0.68839001E-01 0.19043916E+03</pdfrwt>
<totfact> 0.15555371E+02</totfact>
</mgrwt>
</event>
<event>
 4    1  0.8742165E-009  0.2939620E+03  0.7818608E-02  0.1088298E+00
         -4   -1    0    0    0  501 -0.00000000000E+00  0.00000000000E+00  0.95378872535E+02  0.95387327387E+02  0.12700000000E+01 0. -1.
          4   -1    0    0  501    0  0.00000000000E+00 -0.00000000000E+00 -0.94586520725E+03  0.94586605985E+03  0.12700000000E+01 0. -1.
    8880022    1    1    2    0    0 -0.89357777360E+02  0.23460009932E+03 -0.31830071716E+03  0.43327706901E+03  0.15294330000E+03 0.  0.
    8880022    1    1    2    0    0  0.89357777360E+02 -0.23460009932E+03 -0.53218561756E+03  0.60797631823E+03  0.15294330000E+03 0.  0.
<mgrwt>
<rscale>  0 0.29396202E+03</rscale>
<asrwt>0</asrwt>
<pdfrwt beam="1">  1        4 0.14551843E+00 0.29396202E+03</pdfrwt>
<pdfrwt beam="2">  1       -4 0.14674389E-01 0.29396202E+03</pdfrwt>
<totfact> 0.24712470E+01</totfact>
</mgrwt>
</event>
<event>
 4    1  0.8742165E-009  0.2821043E+03  0.7818608E-02  0.1094545E+00
          4   -1    0    0  501    0  0.00000000000E+00  0.00000000000E+00  0.13728198288E+03  0.13728785715E+03  0.12700000000E+01 0. -1.
         -4   -1    0    0    0  501 -0.00000000000E+00 -0.00000000000E+00 -0.94693690453E+03  0.94693775617E+03  0.12700000000E+01 0. -1.
    8880022    1    1    2    0    0 -0.19149007836E+03 -0.13972383107E+03 -0.67221720171E+02  0.29000277888E+03  0.15294330000E+03 0.  0.
    8880022    1    1    2    0    0  0.19149007836E+03  0.13972383107E+03 -0.74243320148E+03  0.79422283444E+03  0.15294330000E+03 0.  0.
<mgrwt>
<rscale>  0 0.28210433E+03</rscale>
<asrwt>0</asrwt>
<pdfrwt beam="1">  1        4 0.21120823E-01 0.28210433E+03</pdfrwt>
<pdfrwt beam="2">  1       -4 0.14568311E+00 0.28210433E+03</pdfrwt>
<totfact> 0.12748641E+01</totfact>
</mgrwt>
</event>
<event>
 4    1  0.8742165E-009  0.1883803E+03  0.7818608E-02  0.1159930E+00
         -4   -1    0    0    0  501 -0.00000000000E+00  0.00000000000E+00  0.29241592843E+03  0.29241868631E+03  0.12700000000E+01 0. -1.
          4   -1    0    0  501    0  0.00000000000E+00 -0.00000000000E+00 -0.31086229910E+03  0.31086489332E+03  0.12700000000E+01 0. -1.
    8880022    1    1    2    0    0  0.95024656929E+02  0.55369794527E+02 -0.24473838175E+03  0.30884304766E+03  0.15294330000E+03 0.  0.
    8880022    1    1    2    0    0 -0.95024656929E+02 -0.55369794527E+02  0.22629201109E+03  0.29444053197E+03  0.15294330000E+03 0.  0.
<mgrwt>
<rscale>  0 0.18838034E+03</rscale>
<asrwt>0</asrwt>
<pdfrwt beam="1">  1        4 0.47825381E-01 0.18838034E+03</pdfrwt>
<pdfrwt beam="2">  1       -4 0.44987477E-01 0.18838034E+03</pdfrwt>
<totfact> 0.36015925E+01</totfact>
</mgrwt>
</event>
<event>
 4    1  0.8742165E-009  0.2076158E+03  0.7818608E-02  0.1143468E+00
          4   -1    0    0  501    0  0.00000000000E+00  0.00000000000E+00  0.55072336512E+03  0.55072482946E+03  0.12700000000E+01 0. -1.
         -4   -1    0    0    0  501 -0.00000000000E+00 -0.00000000000E+00 -0.98234974251E+02  0.98243183306E+02  0.12700000000E+01 0. -1.
    8880022    1    1    2    0    0 -0.95982297088E+02  0.10246985432E+03  0.37254935145E+03  0.42649424929E+03  0.15294330000E+03 0.  0.
    8880022    1    1    2    0    0  0.95982297088E+02 -0.10246985432E+03  0.79939039417E+02  0.22247376348E+03  0.15294330000E+03 0.  0.
<mgrwt>
<rscale>  0 0.20761581E+03</rscale>
<asrwt>0</asrwt>
<pdfrwt beam="1">  1        4 0.84727415E-01 0.20761581E+03</pdfrwt>
<pdfrwt beam="2">  1       -4 0.15113817E-01 0.20761581E+03</pdfrwt>
<totfact> 0.82980621E+01</totfact>
</mgrwt>
</event>
<event>
 4    1  0.8742165E-009  0.1768662E+03  0.7818608E-02  0.1170871E+00
          4   -1    0    0  501    0  0.00000000000E+00  0.00000000000E+00  0.72192281649E+03  0.72192393357E+03  0.12700000000E+01 0.  1.
         -4   -1    0    0    0  501 -0.00000000000E+00 -0.00000000000E+00 -0.46392850541E+02  0.46410230352E+02  0.12700000000E+01 0.  1.
    8880022    1    1    2    0    0 -0.13561840553E+02  0.87784257097E+02  0.43660573544E+03  0.47106923116E+03  0.15294330000E+03 0.  0.
    8880022    1    1    2    0    0  0.13561840553E+02 -0.87784257097E+02  0.23892423051E+03  0.29726493277E+03  0.15294330000E+03 0.  0.
<mgrwt>
<rscale>  0 0.17686620E+03</rscale>
<asrwt>0</asrwt>
<pdfrwt beam="1">  1        4 0.11106647E+00 0.17686620E+03</pdfrwt>
<pdfrwt beam="2">  1       -4 0.71387849E-02 0.17686620E+03</pdfrwt>
<totfact> 0.15561415E+02</totfact>
</mgrwt>
</event>
<event>
 4    1  0.8742165E-009  0.1733623E+03  0.7818608E-02  0.1174386E+00
          4   -1    0    0  501    0  0.00000000000E+00  0.00000000000E+00  0.50889238267E+03  0.50889396739E+03  0.12700000000E+01 0. -1.
         -4   -1    0    0    0  501 -0.00000000000E+00 -0.00000000000E+00 -0.59202315648E+02  0.59215936014E+02  0.12700000000E+01 0. -1.
    8880022    1    1    2    0    0 -0.54634594637E+02 -0.60645655222E+02  0.23924524646E+03  0.29545350801E+03  0.15294330000E+03 0.  1.
    8880022    1    1    2    0    0  0.54634594637E+02  0.60645655222E+02  0.21044482056E+03  0.27265639539E+03  0.15294330000E+03 0.  1.
<mgrwt>
<rscale>  0 0.17336230E+03</rscale>
<asrwt>0</asrwt>
<pdfrwt beam="1">  1        4 0.78292306E-01 0.17336230E+03</pdfrwt>
<pdfrwt beam="2">  1       -4 0.91092181E-02 0.17336230E+03</pdfrwt>
<totfact> 0.23043057E+02</totfact>
</mgrwt>
</event>
<event>
 4    1  0.8742165E-009  0.3350606E+03  0.7818608E-02  0.1068919E+00
         -4   -1    0    0    0  501 -0.00000000000E+00  0.00000000000E+00  0.32806734038E+03  0.32806979855E+03  0.12700000000E+01 0. -1.
          4   -1    0    0  501    0  0.00000000000E+00 -0.00000000000E+00 -0.34220133146E+03  0.34220368811E+03  0.12700000000E+01 0. -1.
    8880022    1    1    2    0    0 -0.57023967138E+01 -0.29806284635E+03 -0.80985291590E+01  0.33515849518E+03  0.15294330000E+03 0.  0.
    8880022    1    1    2    0    0  0.57023967138E+01  0.29806284635E+03 -0.60354619228E+01  0.33511499148E+03  0.15294330000E+03 0.  0.
<mgrwt>
<rscale>  0 0.33506064E+03</rscale>
<asrwt>0</asrwt>
<pdfrwt beam="1">  1        4 0.52646729E-01 0.33506064E+03</pdfrwt>
<pdfrwt beam="2">  1       -4 0.50472269E-01 0.33506064E+03</pdfrwt>
<totfact> 0.24727346E+01</totfact>
</mgrwt>
</event>
<event>
 4    1  0.8742165E-009  0.4452744E+03  0.7818608E-02  0.1029141E+00
         -4   -1    0    0    0  501 -0.00000000000E+00  0.00000000000E+00  0.97965097792E+03  0.97965180112E+03  0.12700000000E+01 0. -1.
          4   -1    0    0  501    0  0.00000000000E+00 -0.00000000000E+00 -0.27663175510E+03  0.27663467033E+03  0.12700000000E+01 0. -1.
    8880022    1    1    2    0    0 -0.38581701827E+03  0.16131612287E+03  0.67692914558E+03  0.81024834726E+03  0.15294330000E+03 0.  0.
    8880022    1    1    2    0    0  0.38581701827E+03 -0.16131612287E+03  0.26090077237E+02  0.44603812419E+03  0.15294330000E+03 0.  0.
<mgrwt>
<rscale>  0 0.44527443E+03</rscale>
<asrwt>0</asrwt>
<pdfrwt beam="1">  1        4 0.42559019E-01 0.44527443E+03</pdfrwt>
<pdfrwt beam="2">  1       -4 0.15071582E+00 0.44527443E+03</pdfrwt>
<totfact> 0.30912384E+00</totfact>
</mgrwt>
</event>
<event>
 4    1  0.8742165E-009  0.2452110E+03  0.7818608E-02  0.1116369E+00
          4   -1    0    0  501    0  0.00000000000E+00  0.00000000000E+00  0.16292391025E+03  0.16292886003E+03  0.12700000000E+01 0. -1.
         -4   -1    0    0    0  501 -0.00000000000E+00 -0.00000000000E+00 -0.46280958163E+03  0.46281132413E+03  0.12700000000E+01 0. -1.
    8880022    1    1    2    0    0 -0.33989746235E+02  0.18863055526E+03 -0.29076626749E+03  0.38035965158E+03  0.15294330000E+03 0.  0.
    8880022    1    1    2    0    0  0.33989746235E+02 -0.18863055526E+03 -0.91194038955E+01  0.24538053258E+03  0.15294330000E+03 0.  0.
<mgrwt>
<rscale>  0 0.24521102E+03</rscale>
<asrwt>0</asrwt>
<pdfrwt beam="1">  1        4 0.25065732E-01 0.24521102E+03</pdfrwt>
<pdfrwt beam="2">  1       -4 0.71201989E-01 0.24521102E+03</pdfrwt>
<totfact> 0.49793462E+01</totfact>
</mgrwt>
</event>
<event>
 4    1  0.8742165E-009  0.1564574E+03  0.7818608E-02  0.1192755E+00
         -4   -1    0    0    0  501 -0.00000000000E+00  0.00000000000E+00  0.22866848216E+03  0.22867200885E+03  0.12700000000E+01 0.  1.
          4   -1    0    0  501    0  0.00000000000E+00 -0.00000000000E+00 -0.22912203974E+03  0.22912555945E+03  0.12700000000E+01 0.  1.
    8880022    1    1    2    0    0 -0.21980132949E+02  0.24579156920E+02  0.16685318752E+03  0.22873325163E+03  0.15294330000E+03 0.  0.
    8880022    1    1    2    0    0  0.21980132949E+02 -0.24579156920E+02 -0.16730674511E+03  0.22906431667E+03  0.15294330000E+03 0.  0.
<mgrwt>
<rscale>  0 0.15645739E+03</rscale>
<asrwt>0</asrwt>
<pdfrwt beam="1">  1        4 0.35250087E-01 0.15645739E+03</pdfrwt>
<pdfrwt beam="2">  1       -4 0.35180308E-01 0.15645739E+03</pdfrwt>
<totfact> 0.10464658E+02</totfact>
</mgrwt>
</event>
<event>
 4    1  0.8742165E-009  0.1815542E+03  0.7818608E-02  0.1166307E+00
          4   -1    0    0  501    0  0.00000000000E+00  0.00000000000E+00  0.16914315253E+02  0.16961926791E+02  0.12700000000E+01 0. -1.
         -4   -1    0    0    0  501 -0.00000000000E+00 -0.00000000000E+00 -0.23050157619E+04  0.23050161118E+04  0.12700000000E+01 0. -1.
    8880022    1    1    2    0    0 -0.41780106265E+02  0.88457236522E+02 -0.68584495102E+03  0.70946825851E+03  0.15294330000E+03 0.  0.
    8880022    1    1    2    0    0  0.41780106265E+02 -0.88457236522E+02 -0.16022564956E+04  0.16125097801E+04  0.15294330000E+03 0.  0.
<mgrwt>
<rscale>  0 0.18155416E+03</rscale>
<asrwt>0</asrwt>
<pdfrwt beam="1">  1        4 0.26058935E-02 0.18155416E+03</pdfrwt>
<pdfrwt beam="2">  1       -4 0.35462125E+00 0.18155416E+03</pdfrwt>
<totfact> 0.20712250E+01</totfact>
</mgrwt>
</event>
<event>
 4    1  0.8742165E-009  0.1957094E+03  0.7818608E-02  0.1153410E+00
          4   -1    0    0  501    0  0.00000000000E+00  0.00000000000E+00  0.25547444916E+03  0.25547760582E+03  0.12700000000E+01 0. -1.
         -4   -1    0    0    0  501 -0.00000000000E+00 -0.00000000000E+00 -0.15521569485E+03  0.15522089043E+03  0.12700000000E+01 0. -1.
    8880022    1    1    2    0    0  0.43061581887E+02 -0.11426376202E+03  0.12195867902E+02  0.19608900875E+03  0.15294330000E+03 0.  0.
    8880022    1    1    2    0    0 -0.43061581887E+02  0.11426376202E+03  0.88062886412E+02  0.21460948749E+03  0.15294330000E+03 0.  0.
<mgrwt>
<rscale>  0 0.19570938E+03</rscale>
<asrwt>0</asrwt>
<pdfrwt beam="1">  1        4 0.39304404E-01 0.19570938E+03</pdfrwt>
<pdfrwt beam="2">  1       -4 0.23879980E-01 0.19570938E+03</pdfrwt>
<totfact> 0.18202222E+02</totfact>
</mgrwt>
</event>
<event>
 4    1  0.8742165E-009  0.1636417E+03  0.7818608E-02  0.1184646E+00
         -4   -1    0    0    0  501 -0.00000000000E+00  0.00000000000E+00  0.51767857364E+03  0.51768013145E+03  0.12700000000E+01 0. -1.
          4   -1    0    0  501    0  0.00000000000E+00 -0.00000000000E+00 -0.51719124562E+02  0.51734715090E+02  0.12700000000E+01 0. -1.
    8880022    1    1    2    0    0  0.15379288834E+02 -0.56128821444E+02  0.23231794383E+03  0.28416587966E+03  0.15294330000E+03 0.  1.
    8880022    1    1    2    0    0 -0.15379288834E+02  0.56128821444E+02  0.23364150524E+03  0.28524896689E+03  0.15294330000E+03 0.  1.
<mgrwt>
<rscale>  0 0.16364174E+03</rscale>
<asrwt>0</asrwt>
<pdfrwt beam="1">  1        4 0.79581072E-02 0.16364174E+03</pdfrwt>
<pdfrwt beam="2">  1       -4 0.79644180E-01 0.16364174E+03</pdfrwt>
<totfact> 0.27547361E+02</totfact>
</mgrwt>
</event>
<event>
 4    1  0.8742165E-009  0.1708787E+03  0.7818608E-02  0.1176935E+00
          4   -1    0    0  501    0  0.00000000000E+00  0.00000000000E+00  0.56363272362E+02  0.56377578622E+02  0.12700000000E+01 0. -1.
         -4   -1    0    0    0  501 -0.00000000000E+00 -0.00000000000E+00 -0.65908813912E+03  0.65908936270E+03  0.12700000000E+01 0. -1.
    8880022    1    1    2    0    0  0.40395517943E+02  0.64622614585E+02 -0.13583857421E+03  0.21829258220E+03  0.15294330000E+03 0.  0.
    8880022    1    1    2    0    0 -0.40395517943E+02 -0.64622614585E+02 -0.46688629255E+03  0.49717435913E+03  0.15294330000E+03 0.  0.
<mgrwt>
<rscale>  0 0.17087871E+03</rscale>
<asrwt>0</asrwt>
<pdfrwt beam="1">  1        4 0.86724677E-02 0.17087871E+03</pdfrwt>
<pdfrwt beam="2">  1       -4 0.10139936E+00 0.17087871E+03</pdfrwt>
<totfact> 0.13882707E+02</totfact>
</mgrwt>
</event>
<event>
 4    1  0.8742165E-009  0.2265964E+03  0.7818608E-02  0.1129059E+00
          4   -1    0    0  501    0  0.00000000000E+00  0.00000000000E+00  0.16315024392E+04  0.16315029335E+04  0.12700000000E+01 0. -1.
         -4   -1    0    0    0  501 -0.00000000000E+00 -0.00000000000E+00 -0.33496101861E+02  0.33520169151E+02  0.12700000000E+01 0. -1.
    8880022    1    1    2    0    0  0.12238232827E+03  0.11391584830E+03  0.59373734465E+03  0.63550762562E+03  0.15294330000E+03 0.  0.
    8880022    1    1    2    0    0 -0.12238232827E+03 -0.11391584830E+03  0.10042689927E+04  0.10295154771E+04  0.15294330000E+03 0.  0.
<mgrwt>
<rscale>  0 0.22659635E+03</rscale>
<asrwt>0</asrwt>
<pdfrwt beam="1">  1        4 0.25100230E+00 0.22659635E+03</pdfrwt>
<pdfrwt beam="2">  1       -4 0.51551351E-02 0.22659635E+03</pdfrwt>
<totfact> 0.29182872E+01</totfact>
</mgrwt>
</event>
<event>
 4    1  0.8742165E-009  0.3717547E+03  0.7818608E-02  0.1054024E+00
         -4   -1    0    0    0  501 -0.00000000000E+00  0.00000000000E+00  0.29352693960E+03  0.29352968703E+03  0.12700000000E+01 0. -1.
          4   -1    0    0  501    0  0.00000000000E+00 -0.00000000000E+00 -0.48953961412E+03  0.48954126148E+03  0.12700000000E+01 0. -1.
    8880022    1    1    2    0    0  0.11599124984E+03  0.31836446505E+03 -0.17455973936E+03  0.41069776998E+03  0.15294330000E+03 0.  0.
    8880022    1    1    2    0    0 -0.11599124984E+03 -0.31836446505E+03 -0.21452935160E+02  0.37237317853E+03  0.15294330000E+03 0.  0.
<mgrwt>
<rscale>  0 0.37175470E+03</rscale>
<asrwt>0</asrwt>
<pdfrwt beam="1">  1        4 0.75314125E-01 0.37175470E+03</pdfrwt>
<pdfrwt beam="2">  1       -4 0.45158329E-01 0.37175470E+03</pdfrwt>
<totfact> 0.14464451E+01</totfact>
</mgrwt>
</event>
<event>
 4    1  0.8742165E-009  0.3820466E+03  0.7818608E-02  0.1050180E+00
          4   -1    0    0  501    0  0.00000000000E+00  0.00000000000E+00  0.35144751276E+03  0.35144980740E+03  0.12700000000E+01 0.  1.
         -4   -1    0    0    0  501 -0.00000000000E+00 -0.00000000000E+00 -0.47960628380E+03  0.47960796528E+03  0.12700000000E+01 0.  1.
    8880022    1    1    2    0    0  0.26487930839E+03 -0.22892548495E+03  0.88068638274E+02  0.39206589209E+03  0.15294330000E+03 0.  0.
    8880022    1    1    2    0    0 -0.26487930839E+03  0.22892548495E+03 -0.21622740932E+03  0.43899188060E+03  0.15294330000E+03 0.  0.
<mgrwt>
<rscale>  0 0.38204657E+03</rscale>
<asrwt>0</asrwt>
<pdfrwt beam="1">  1        4 0.54069154E-01 0.38204657E+03</pdfrwt>
<pdfrwt beam="2">  1       -4 0.73785888E-01 0.38204657E+03</pdfrwt>
<totfact> 0.10440264E+01</totfact>
</mgrwt>
</event>
<event>
 4    1  0.8742165E-009  0.1608210E+03  0.7818608E-02  0.1187773E+00
         -4   -1    0    0    0  501 -0.00000000000E+00  0.00000000000E+00  0.45735674408E+03  0.45735850736E+03  0.12700000000E+01 0. -1.
          4   -1    0    0  501    0  0.00000000000E+00 -0.00000000000E+00 -0.57063260794E+02  0.57077391606E+02  0.12700000000E+01 0. -1.
    8880022    1    1    2    0    0  0.48362538321E+02 -0.11524794523E+02  0.17553674214E+03  0.23806838694E+03  0.15294330000E+03 0.  1.
    8880022    1    1    2    0    0 -0.48362538321E+02  0.11524794523E+02  0.22475674114E+03  0.27636751203E+03  0.15294330000E+03 0.  1.
<mgrwt>
<rscale>  0 0.16082105E+03</rscale>
<asrwt>0</asrwt>
<pdfrwt beam="1">  1        4 0.87801860E-02 0.16082105E+03</pdfrwt>
<pdfrwt beam="2">  1       -4 0.70363797E-01 0.16082105E+03</pdfrwt>
<totfact> 0.30590984E+02</totfact>
</mgrwt>
</event>
<event>
 4    1  0.8742165E-009  0.4237607E+03  0.7818608E-02  0.1035849E+00
          4   -1    0    0  501    0  0.00000000000E+00  0.00000000000E+00  0.51893797947E+03  0.51893953351E+03  0.12700000000E+01 0.  1.
         -4   -1    0    0    0  501 -0.00000000000E+00 -0.00000000000E+00 -0.60198851846E+03  0.60198985810E+03  0.12700000000E+01 0.  1.
    8880022    1    1    2    0    0 -0.33512605493E+03 -0.20945637133E+03  0.32392839429E+03  0.53338794683E+03  0.15294330000E+03 0.  0.
    8880022    1    1    2    0    0  0.33512605493E+03  0.20945637133E+03 -0.40697893328E+03  0.58754144478E+03  0.15294330000E+03 0.  0.
<mgrwt>
<rscale>  0 0.42376066E+03</rscale>
<asrwt>0</asrwt>
<pdfrwt beam="1">  1        4 0.79836834E-01 0.42376066E+03</pdfrwt>
<pdfrwt beam="2">  1       -4 0.92613842E-01 0.42376066E+03</pdfrwt>
<totfact> 0.26737313E+00</totfact>
</mgrwt>
</event>
<event>
 4    1  0.8742165E-009  0.1658809E+03  0.7818608E-02  0.1182213E+00
          4   -1    0    0  501    0  0.00000000000E+00  0.00000000000E+00  0.24715615508E+03  0.24715941798E+03  0.12700000000E+01 0. -1.
         -4   -1    0    0    0  501 -0.00000000000E+00 -0.00000000000E+00 -0.11132466789E+03  0.11133191178E+03  0.12700000000E+01 0. -1.
    8880022    1    1    2    0    0  0.31217496095E+02  0.56127311183E+02  0.67919472979E+02  0.17924707793E+03  0.15294330000E+03 0. -1.
    8880022    1    1    2    0    0 -0.31217496095E+02 -0.56127311183E+02  0.67912014210E+02  0.17924425182E+03  0.15294330000E+03 0. -1.
<mgrwt>
<rscale>  0 0.16588086E+03</rscale>
<asrwt>0</asrwt>
<pdfrwt beam="1">  1        4 0.38024831E-01 0.16588086E+03</pdfrwt>
<pdfrwt beam="2">  1       -4 0.17127681E-01 0.16588086E+03</pdfrwt>
<totfact> 0.34550101E+02</totfact>
</mgrwt>
</event>
<event>
 4    1  0.8742165E-009  0.1630971E+03  0.7818608E-02  0.1185244E+00
          4   -1    0    0  501    0  0.00000000000E+00  0.00000000000E+00  0.15220374135E+03  0.15220903974E+03  0.12700000000E+01 0. -1.
         -4   -1    0    0    0  501 -0.00000000000E+00 -0.00000000000E+00 -0.46934376339E+03  0.46934548164E+03  0.12700000000E+01 0. -1.
    8880022    1    1    2    0    0 -0.35320101019E+02 -0.44288941731E+02  0.87639344602E+02  0.18515217426E+03  0.15294330000E+03 0.  0.
    8880022    1    1    2    0    0  0.35320101019E+02  0.44288941731E+02 -0.40477936665E+03  0.43640234712E+03  0.15294330000E+03 0.  0.
<mgrwt>
<rscale>  0 0.16309713E+03</rscale>
<asrwt>0</asrwt>
<pdfrwt beam="1">  1        4 0.23416500E-01 0.16309713E+03</pdfrwt>
<pdfrwt beam="2">  1       -4 0.72207272E-01 0.16309713E+03</pdfrwt>
<totfact> 0.52134435E+01</totfact>
</mgrwt>
</event>
<event>
 4    1  0.8742165E-009  0.1668940E+03  0.7818608E-02  0.1181126E+00
          4   -1    0    0  501    0  0.00000000000E+00  0.00000000000E+00  0.53169543514E+03  0.53169695189E+03  0.12700000000E+01 0. -1.
         -4   -1    0    0    0  501 -0.00000000000E+00 -0.00000000000E+00 -0.52787075664E+02  0.52802350868E+02  0.12700000000E+01 0. -1.
    8880022    1    1    2    0    0  0.66737745645E+02  0.28336113890E+01  0.26520521526E+03  0.31334871192E+03  0.15294330000E+03 0. -1.
    8880022    1    1    2    0    0 -0.66737745645E+02 -0.28336113890E+01  0.21370314421E+03  0.27115059083E+03  0.15294330000E+03 0. -1.
<mgrwt>
<rscale>  0 0.16689401E+03</rscale>
<asrwt>0</asrwt>
<pdfrwt beam="1">  1        4 0.81800588E-01 0.16689401E+03</pdfrwt>
<pdfrwt beam="2">  1       -4 0.81223804E-02 0.16689401E+03</pdfrwt>
<totfact> 0.25171053E+02</totfact>
</mgrwt>
</event>
<event>
 4    1  0.8742165E-009  0.2285133E+03  0.7818608E-02  0.1127691E+00
         -4   -1    0    0    0  501 -0.00000000000E+00  0.00000000000E+00  0.36775146370E+03  0.36775365661E+03  0.12700000000E+01 0. -1.
          4   -1    0    0  501    0  0.00000000000E+00 -0.00000000000E+00 -0.19950399808E+03  0.19950804032E+03  0.12700000000E+01 0. -1.
    8880022    1    1    2    0    0  0.79513778469E+02 -0.15001405025E+03  0.23641122451E+03  0.32879868663E+03  0.15294330000E+03 0.  0.
    8880022    1    1    2    0    0 -0.79513778469E+02  0.15001405025E+03 -0.68163758893E+02  0.23846301030E+03  0.15294330000E+03 0.  0.
<mgrwt>
<rscale>  0 0.22851326E+03</rscale>
<asrwt>0</asrwt>
<pdfrwt beam="1">  1        4 0.30693403E-01 0.22851326E+03</pdfrwt>
<pdfrwt beam="2">  1       -4 0.56577628E-01 0.22851326E+03</pdfrwt>
<totfact> 0.55151254E+01</totfact>
</mgrwt>
</event>
<event>
 4    1  0.8742165E-009  0.2182003E+03  0.7818608E-02  0.1135232E+00
          4   -1    0    0  501    0  0.00000000000E+00  0.00000000000E+00  0.72608499550E+03  0.72608610618E+03  0.12700000000E+01 0.  1.
         -4   -1    0    0    0  501 -0.00000000000E+00 -0.00000000000E+00 -0.68175439454E+02  0.68187267468E+02  0.12700000000E+01 0.  1.
    8880022    1    1    2    0    0  0.10003822000E+02  0.15530500714E+03  0.40665209890E+03  0.46149464163E+03  0.15294330000E+03 0.  0.
    8880022    1    1    2    0    0 -0.10003822000E+02 -0.15530500714E+03  0.25125745714E+03  0.33277873201E+03  0.15294330000E+03 0.  0.
<mgrwt>
<rscale>  0 0.21820031E+03</rscale>
<asrwt>0</asrwt>
<pdfrwt beam="1">  1        4 0.11170639E+00 0.21820031E+03</pdfrwt>
<pdfrwt beam="2">  1       -4 0.10489524E-01 0.21820031E+03</pdfrwt>
<totfact> 0.82765961E+01</totfact>
</mgrwt>
</event>
<event>
 4    1  0.8742165E-009  0.4344217E+03  0.7818608E-02  0.1032472E+00
          4   -1    0    0  501    0  0.00000000000E+00  0.00000000000E+00  0.61640718358E+03  0.61640849188E+03  0.12700000000E+01 0. -1.
         -4   -1    0    0    0  501 -0.00000000000E+00 -0.00000000000E+00 -0.51913008526E+03  0.51913163872E+03  0.12700000000E+01 0.  1.
    8880022    1    1    2    0    0 -0.20698668937E+03 -0.34998146955E+03  0.41229425217E+03  0.59892296833E+03  0.15294330000E+03 0. -1.
    8880022    1    1    2    0    0  0.20698668937E+03  0.34998146955E+03 -0.31501715385E+03  0.53661716227E+03  0.15294330000E+03 0.  0.
<mgrwt>
<rscale>  0 0.43442165E+03</rscale>
<asrwt>0</asrwt>
<pdfrwt beam="1">  1        4 0.94832094E-01 0.43442165E+03</pdfrwt>
<pdfrwt beam="2">  1       -4 0.79866387E-01 0.43442165E+03</pdfrwt>
<totfact> 0.25297205E+00</totfact>
</mgrwt>
</event>
<event>
 4    1  0.8742165E-009  0.1592504E+03  0.7818608E-02  0.1189546E+00
         -4   -1    0    0    0  501 -0.00000000000E+00  0.00000000000E+00  0.48902114310E+02  0.48918602638E+02  0.12700000000E+01 0.  1.
          4   -1    0    0  501    0  0.00000000000E+00 -0.00000000000E+00 -0.78968788895E+03  0.78968891018E+03  0.12700000000E+01 0.  1.
    8880022    1    1    2    0    0  0.55869222651E+00 -0.44370211957E+02 -0.12467640357E+03  0.20224956482E+03  0.15294330000E+03 0.  0.
    8880022    1    1    2    0    0 -0.55869222651E+00  0.44370211957E+02 -0.61610937107E+03  0.63635794800E+03  0.15294330000E+03 0.  0.
<mgrwt>
<rscale>  0 0.15925037E+03</rscale>
<asrwt>0</asrwt>
<pdfrwt beam="1">  1        4 0.12149178E+00 0.15925037E+03</pdfrwt>
<pdfrwt beam="2">  1       -4 0.75247497E-02 0.15925037E+03</pdfrwt>
<totfact> 0.11329346E+02</totfact>
</mgrwt>
</event>
<event>
 4    1  0.8742165E-009  0.1985563E+03  0.7818608E-02  0.1150963E+00
         -4   -1    0    0    0  501 -0.00000000000E+00  0.00000000000E+00  0.63199798010E+02  0.63212557047E+02  0.12700000000E+01 0.  1.
          4   -1    0    0  501    0  0.00000000000E+00 -0.00000000000E+00 -0.65574257170E+03  0.65574380152E+03  0.12700000000E+01 0.  1.
    8880022    1    1    2    0    0  0.12301209753E+03  0.30016076296E+02 -0.21684870046E+03  0.29402032733E+03  0.15294330000E+03 0.  0.
    8880022    1    1    2    0    0 -0.12301209753E+03 -0.30016076296E+02 -0.37569407323E+03  0.42493603124E+03  0.15294330000E+03 0.  0.
<mgrwt>
<rscale>  0 0.19855627E+03</rscale>
<asrwt>0</asrwt>
<pdfrwt beam="1">  1        4 0.10088454E+00 0.19855627E+03</pdfrwt>
<pdfrwt beam="2">  1       -4 0.97241224E-02 0.19855627E+03</pdfrwt>
<totfact> 0.11838470E+02</totfact>
</mgrwt>
</event>
<event>
 4    1  0.8742165E-009  0.2280312E+03  0.7818608E-02  0.1128033E+00
         -4   -1    0    0    0  501 -0.00000000000E+00  0.00000000000E+00  0.11730714136E+03  0.11731401585E+03  0.12700000000E+01 0. -1.
          4   -1    0    0  501    0  0.00000000000E+00 -0.00000000000E+00 -0.88615410975E+03  0.88615501981E+03  0.12700000000E+01 0. -1.
    8880022    1    1    2    0    0  0.53015692716E+02 -0.16061103003E+03 -0.73913454180E+03  0.77351023945E+03  0.15294330000E+03 0.  0.
    8880022    1    1    2    0    0 -0.53015692716E+02  0.16061103003E+03 -0.29712426593E+02  0.22995879620E+03  0.15294330000E+03 0.  0.
<mgrwt>
<rscale>  0 0.22803118E+03</rscale>
<asrwt>0</asrwt>
<pdfrwt beam="1">  1        4 0.13633200E+00 0.22803118E+03</pdfrwt>
<pdfrwt beam="2">  1       -4 0.18047852E-01 0.22803118E+03</pdfrwt>
<totfact> 0.19748131E+01</totfact>
</mgrwt>
</event>
<event>
 4    1  0.8742165E-009  0.1607741E+03  0.7818608E-02  0.1187826E+00
         -4   -1    0    0    0  501 -0.00000000000E+00  0.00000000000E+00  0.20718990438E+02  0.20757877174E+02  0.12700000000E+01 0. -1.
          4   -1    0    0  501    0  0.00000000000E+00 -0.00000000000E+00 -0.20169345689E+04  0.20169349687E+04  0.12700000000E+01 0. -1.
    8880022    1    1    2    0    0 -0.34167307264E+02  0.35906233912E+02 -0.16278555323E+04  0.16357756415E+04  0.15294330000E+03 0. -1.
    8880022    1    1    2    0    0  0.34167307264E+02 -0.35906233912E+02 -0.36836004618E+03  0.40191720435E+03  0.15294330000E+03 0. -1.
<mgrwt>
<rscale>  0 0.16077411E+03</rscale>
<asrwt>0</asrwt>
<pdfrwt beam="1">  1        4 0.31030049E+00 0.16077411E+03</pdfrwt>
<pdfrwt beam="2">  1       -4 0.31905606E-02 0.16077411E+03</pdfrwt>
<totfact> 0.27629448E+01</totfact>
</mgrwt>
</event>
<event>
 4    1  0.8742165E-009  0.2273473E+03  0.7818608E-02  0.1128521E+00
          4   -1    0    0  501    0  0.00000000000E+00  0.00000000000E+00  0.84171257139E+02  0.84180837655E+02  0.12700000000E+01 0. -1.
         -4   -1    0    0    0  501 -0.00000000000E+00 -0.00000000000E+00 -0.69595452013E+03  0.69595567890E+03  0.12700000000E+01 0. -1.
    8880022    1    1    2    0    0 -0.50911715825E+02  0.16032192244E+03 -0.43972856352E+03  0.49502321583E+03  0.15294330000E+03 0.  0.
    8880022    1    1    2    0    0  0.50911715825E+02 -0.16032192244E+03 -0.17205469947E+03  0.28511330072E+03  0.15294330000E+03 0.  0.
<mgrwt>
<rscale>  0 0.22734726E+03</rscale>
<asrwt>0</asrwt>
<pdfrwt beam="1">  1        4 0.12950251E-01 0.22734726E+03</pdfrwt>
<pdfrwt beam="2">  1       -4 0.10707075E+00 0.22734726E+03</pdfrwt>
<totfact> 0.63997030E+01</totfact>
</mgrwt>
</event>
<event>
 4    1  0.8742165E-009  0.2184893E+03  0.7818608E-02  0.1135014E+00
          4   -1    0    0  501    0  0.00000000000E+00  0.00000000000E+00  0.35327847651E+03  0.35328075926E+03  0.12700000000E+01 0.  1.
         -4   -1    0    0    0  501 -0.00000000000E+00 -0.00000000000E+00 -0.19514889766E+03  0.19515303010E+03  0.12700000000E+01 0.  1.
    8880022    1    1    2    0    0 -0.13693399331E+02 -0.15542975409E+03  0.23114663196E+03  0.31806655926E+03  0.15294330000E+03 0.  0.
    8880022    1    1    2    0    0  0.13693399331E+02  0.15542975409E+03 -0.73017053108E+02  0.23036723009E+03  0.15294330000E+03 0.  0.
<mgrwt>
<rscale>  0 0.21848929E+03</rscale>
<asrwt>0</asrwt>
<pdfrwt beam="1">  1        4 0.54351027E-01 0.21848929E+03</pdfrwt>
<pdfrwt beam="2">  1       -4 0.30023401E-01 0.21848929E+03</pdfrwt>
<totfact> 0.62233644E+01</totfact>
</mgrwt>
</event>
<event>
 4    1  0.8742165E-009  0.2102874E+03  0.7818608E-02  0.1141339E+00
         -4   -1    0    0    0  501 -0.00000000000E+00  0.00000000000E+00  0.21898255134E+04  0.21898258817E+04  0.12700000000E+01 0. -1.
          4   -1    0    0  501    0  0.00000000000E+00 -0.00000000000E+00 -0.20192355871E+02  0.20232254833E+02  0.12700000000E+01 0. -1.
    8880022    1    1    2    0    0 -0.14406779813E+03 -0.85804673364E+01  0.10510113207E+04  0.10718421545E+04  0.15294330000E+03 0.  0.
    8880022    1    1    2    0    0  0.14406779813E+03  0.85804673364E+01  0.11186218368E+04  0.11382159820E+04  0.15294330000E+03 0.  0.
<mgrwt>
<rscale>  0 0.21028744E+03</rscale>
<asrwt>0</asrwt>
<pdfrwt beam="1">  1        4 0.31096125E-02 0.21028744E+03</pdfrwt>
<pdfrwt beam="2">  1       -4 0.33689947E+00 0.21028744E+03</pdfrwt>
<totfact> 0.20291495E+01</totfact>
</mgrwt>
</event>
<event>
 4    1  0.8742165E-009  0.1650427E+03  0.7818608E-02  0.1183118E+00
         -4   -1    0    0    0  501 -0.00000000000E+00  0.00000000000E+00  0.17549913965E+03  0.17550373477E+03  0.12700000000E+01 0.  1.
          4   -1    0    0  501    0  0.00000000000E+00 -0.00000000000E+00 -0.15602261986E+03  0.15602778858E+03  0.12700000000E+01 0.  1.
    8880022    1    1    2    0    0  0.38900859971E+02 -0.48313135214E+02  0.21774249380E+02  0.16647284130E+03  0.15294330000E+03 0.  1.
    8880022    1    1    2    0    0 -0.38900859971E+02  0.48313135214E+02 -0.22977295958E+01  0.16505868204E+03  0.15294330000E+03 0.  1.
<mgrwt>
<rscale>  0 0.16504269E+03</rscale>
<asrwt>0</asrwt>
<pdfrwt beam="1">  1        4 0.24004231E-01 0.16504269E+03</pdfrwt>
<pdfrwt beam="2">  1       -4 0.27000619E-01 0.16504269E+03</pdfrwt>
<totfact> 0.36105997E+02</totfact>
</mgrwt>
</event>
<event>
 4    1  0.8742165E-009  0.2118416E+03  0.7818608E-02  0.1140116E+00
         -4   -1    0    0    0  501 -0.00000000000E+00  0.00000000000E+00  0.53478294289E+02  0.53493372113E+02  0.12700000000E+01 0. -1.
          4   -1    0    0  501    0  0.00000000000E+00 -0.00000000000E+00 -0.86297099582E+03  0.86297193032E+03  0.12700000000E+01 0. -1.
    8880022    1    1    2    0    0 -0.97746695283E+02  0.10922818709E+03 -0.48107477319E+03  0.52565178941E+03  0.15294330000E+03 0.  1.
    8880022    1    1    2    0    0  0.97746695283E+02 -0.10922818709E+03 -0.32841792833E+03  0.39081351302E+03  0.15294330000E+03 0.  1.
<mgrwt>
<rscale>  0 0.21184161E+03</rscale>
<asrwt>0</asrwt>
<pdfrwt beam="1">  1        4 0.13276599E+00 0.21184161E+03</pdfrwt>
<pdfrwt beam="2">  1       -4 0.82286623E-02 0.21184161E+03</pdfrwt>
<totfact> 0.81569692E+01</totfact>
</mgrwt>
</event>
<event>
 4    1  0.8742165E-009  0.1557425E+03  0.7818608E-02  0.1193589E+00
          4   -1    0    0  501    0  0.00000000000E+00  0.00000000000E+00  0.14916660825E+04  0.14916666231E+04  0.12700000000E+01 0.  1.
         -4   -1    0    0    0  501 -0.00000000000E+00 -0.00000000000E+00 -0.29775457452E+02  0.29802529531E+02  0.12700000000E+01 0.  1.
    8880022    1    1    2    0    0  0.14605187806E+02  0.25510169564E+02  0.21828535585E+03  0.26814964079E+03  0.15294330000E+03 0.  0.
    8880022    1    1    2    0    0 -0.14605187806E+02 -0.25510169564E+02  0.12436052692E+04  0.12533195119E+04  0.15294330000E+03 0.  0.
<mgrwt>
<rscale>  0 0.15574252E+03</rscale>
<asrwt>0</asrwt>
<pdfrwt beam="1">  1        4 0.22948921E+00 0.15574252E+03</pdfrwt>
<pdfrwt beam="2">  1       -4 0.45829637E-02 0.15574252E+03</pdfrwt>
<totfact> 0.45683592E+01</totfact>
</mgrwt>
</event>
<event>
 4    1  0.8742165E-009  0.2200319E+03  0.7818608E-02  0.1133859E+00
          4   -1    0    0  501    0  0.00000000000E+00  0.00000000000E+00  0.10487276417E+03  0.10488045368E+03  0.12700000000E+01 0. -1.
         -4   -1    0    0    0  501 -0.00000000000E+00 -0.00000000000E+00 -0.63445435713E+03  0.63445562822E+03  0.12700000000E+01 0. -1.
    8880022    1    1    2    0    0 -0.62761960269E+01 -0.15806009622E+03 -0.45773139088E+03  0.50787012500E+03  0.15294330000E+03 0.  0.
    8880022    1    1    2    0    0  0.62761960269E+01  0.15806009622E+03 -0.71850202086E+02  0.23146595691E+03  0.15294330000E+03 0.  0.
<mgrwt>
<rscale>  0 0.22003190E+03</rscale>
<asrwt>0</asrwt>
<pdfrwt beam="1">  1        4 0.16134961E-01 0.22003190E+03</pdfrwt>
<pdfrwt beam="2">  1       -4 0.97609050E-01 0.22003190E+03</pdfrwt>
<totfact> 0.53849710E+01</totfact>
</mgrwt>
</event>
<event>
 4    1  0.8742165E-009  0.1533746E+03  0.7818608E-02  0.1196387E+00
         -4   -1    0    0    0  501 -0.00000000000E+00  0.00000000000E+00  0.16603392209E+03  0.16603877916E+03  0.12700000000E+01 0. -1.
          4   -1    0    0  501    0  0.00000000000E+00 -0.00000000000E+00 -0.14337860089E+03  0.14338422540E+03  0.12700000000E+01 0. -1.
    8880022    1    1    2    0    0 -0.91563044526E+01 -0.69478257527E+01  0.28212512044E+02  0.15594777666E+03  0.15294330000E+03 0.  0.
    8880022    1    1    2    0    0  0.91563044526E+01  0.69478257527E+01 -0.55571908368E+01  0.15347522790E+03  0.15294330000E+03 0.  0.
<mgrwt>
<rscale>  0 0.15337458E+03</rscale>
<asrwt>0</asrwt>
<pdfrwt beam="1">  1        4 0.22059053E-01 0.15337458E+03</pdfrwt>
<pdfrwt beam="2">  1       -4 0.25544487E-01 0.15337458E+03</pdfrwt>
<totfact> 0.46137760E+02</totfact>
</mgrwt>
</event>
<event>
 4    1  0.8742165E-009  0.2694631E+03  0.7818608E-02  0.1101587E+00
         -4   -1    0    0    0  501 -0.00000000000E+00  0.00000000000E+00  0.10608149160E+04  0.10608156762E+04  0.12700000000E+01 0.  1.
          4   -1    0    0  501    0  0.00000000000E+00 -0.00000000000E+00 -0.72076029946E+02  0.72087217957E+02  0.12700000000E+01 0.  1.
    8880022    1    1    2    0    0  0.10336648442E+03 -0.19630095792E+03  0.62156808353E+03  0.67746382314E+03  0.15294330000E+03 0.  0.
    8880022    1    1    2    0    0 -0.10336648442E+03  0.19630095792E+03  0.36717080252E+03  0.45543907103E+03  0.15294330000E+03 0.  0.
<mgrwt>
<rscale>  0 0.26946308E+03</rscale>
<asrwt>0</asrwt>
<pdfrwt beam="1">  1        4 0.11089539E-01 0.26946308E+03</pdfrwt>
<pdfrwt beam="2">  1       -4 0.16320321E+00 0.26946308E+03</pdfrwt>
<totfact> 0.29589097E+01</totfact>
</mgrwt>
</event>
<event>
 4    1  0.8742165E-009  0.2276227E+03  0.7818608E-02  0.1128324E+00
          4   -1    0    0  501    0  0.00000000000E+00  0.00000000000E+00  0.66006668011E+03  0.66006790188E+03  0.12700000000E+01 0.  1.
         -4   -1    0    0    0  501 -0.00000000000E+00 -0.00000000000E+00 -0.89621683650E+02  0.89630681579E+02  0.12700000000E+01 0.  1.
    8880022    1    1    2    0    0 -0.14366359671E+02  0.16797042956E+03  0.15311515027E+03  0.27432892621E+03  0.15294330000E+03 0.  1.
    8880022    1    1    2    0    0  0.14366359671E+02 -0.16797042956E+03  0.41732984619E+03  0.47536965725E+03  0.15294330000E+03 0.  1.
<mgrwt>
<rscale>  0 0.22762274E+03</rscale>
<asrwt>0</asrwt>
<pdfrwt beam="1">  1        4 0.10154951E+00 0.22762274E+03</pdfrwt>
<pdfrwt beam="2">  1       -4 0.13788737E-01 0.22762274E+03</pdfrwt>
<totfact> 0.65021447E+01</totfact>
</mgrwt>
</event>
<event>
 4    1  0.8742165E-009  0.1790679E+03  0.7818608E-02  0.1168708E+00
         -4   -1    0    0    0  501 -0.00000000000E+00  0.00000000000E+00  0.26306890838E+03  0.26307197391E+03  0.12700000000E+01 0. -1.
          4   -1    0    0  501    0  0.00000000000E+00 -0.00000000000E+00 -0.12235349004E+03  0.12236008101E+03  0.12700000000E+01 0. -1.
    8880022    1    1    2    0    0 -0.60673932802E+02  0.70656417328E+02  0.82316529114E+02  0.19708201189E+03  0.15294330000E+03 0.  0.
    8880022    1    1    2    0    0  0.60673932802E+02 -0.70656417328E+02  0.58398889228E+02  0.18835004303E+03  0.15294330000E+03 0.  0.
<mgrwt>
<rscale>  0 0.17906789E+03</rscale>
<asrwt>0</asrwt>
<pdfrwt beam="1">  1        4 0.18824357E-01 0.17906789E+03</pdfrwt>
<pdfrwt beam="2">  1       -4 0.40472882E-01 0.17906789E+03</pdfrwt>
<totfact> 0.26135860E+02</totfact>
</mgrwt>
</event>
<event>
 4    1  0.8742165E-009  0.2008840E+03  0.7818608E-02  0.1148995E+00
         -4   -1    0    0    0  501 -0.00000000000E+00  0.00000000000E+00  0.19568748173E+02  0.19609915988E+02  0.12700000000E+01 0. -1.
          4   -1    0    0  501    0  0.00000000000E+00 -0.00000000000E+00 -0.21550348740E+04  0.21550352483E+04  0.12700000000E+01 0. -1.
    8880022    1    1    2    0    0 -0.11180660977E+03 -0.66798245382E+02 -0.83937204952E+03  0.86307578700E+03  0.15294330000E+03 0.  0.
    8880022    1    1    2    0    0  0.11180660977E+03  0.66798245382E+02 -0.12960940763E+04  0.13115693772E+04  0.15294330000E+03 0.  0.
<mgrwt>
<rscale>  0 0.20088399E+03</rscale>
<asrwt>0</asrwt>
<pdfrwt beam="1">  1        4 0.33154684E+00 0.20088399E+03</pdfrwt>
<pdfrwt beam="2">  1       -4 0.30137739E-02 0.20088399E+03</pdfrwt>
<totfact> 0.22920752E+01</totfact>
</mgrwt>
</event>
<event>
 4    1  0.8742165E-009  0.1730433E+03  0.7818608E-02  0.1174711E+00
         -4   -1    0    0    0  501 -0.00000000000E+00  0.00000000000E+00  0.16861777399E+03  0.16862255664E+03  0.12700000000E+01 0. -1.
          4   -1    0    0  501    0  0.00000000000E+00 -0.00000000000E+00 -0.11901697470E+04  0.11901704246E+04  0.12700000000E+01 0. -1.
    8880022    1    1    2    0    0  0.48766357798E+02 -0.64607710718E+02 -0.11374407367E+04  0.11505283119E+04  0.15294330000E+03 0.  0.
    8880022    1    1    2    0    0 -0.48766357798E+02  0.64607710718E+02  0.11588876368E+03  0.20826466935E+03  0.15294330000E+03 0.  0.
<mgrwt>
<rscale>  0 0.17304325E+03</rscale>
<asrwt>0</asrwt>
<pdfrwt beam="1">  1        4 0.18310345E+00 0.17304325E+03</pdfrwt>
<pdfrwt beam="2">  1       -4 0.25941617E-01 0.17304325E+03</pdfrwt>
<totfact> 0.45788289E+00</totfact>
</mgrwt>
</event>
<event>
 4    1  0.8742165E-009  0.3259548E+03  0.7818608E-02  0.1072941E+00
         -4   -1    0    0    0  501 -0.00000000000E+00  0.00000000000E+00  0.44052015917E+03  0.44052198984E+03  0.12700000000E+01 0.  1.
          4   -1    0    0  501    0  0.00000000000E+00 -0.00000000000E+00 -0.28038078850E+03  0.28038366475E+03  0.12700000000E+01 0.  1.
    8880022    1    1    2    0    0  0.25167426018E+03 -0.13969579814E+03 -0.54707628436E+02  0.33051388304E+03  0.15294330000E+03 0.  0.
    8880022    1    1    2    0    0 -0.25167426018E+03  0.13969579814E+03  0.21484699910E+03  0.39039177155E+03  0.15294330000E+03 0.  0.
<mgrwt>
<rscale>  0 0.32595475E+03</rscale>
<asrwt>0</asrwt>
<pdfrwt beam="1">  1        4 0.43135868E-01 0.32595475E+03</pdfrwt>
<pdfrwt beam="2">  1       -4 0.67772695E-01 0.32595475E+03</pdfrwt>
<totfact> 0.19848258E+01</totfact>
</mgrwt>
</event>
<event>
 4    1  0.8742165E-009  0.1560269E+03  0.7818608E-02  0.1193257E+00
          4   -1    0    0  501    0  0.00000000000E+00  0.00000000000E+00  0.59764545711E+03  0.59764680648E+03  0.12700000000E+01 0. -1.
         -4   -1    0    0    0  501 -0.00000000000E+00 -0.00000000000E+00 -0.40749814088E+02  0.40769599559E+02  0.12700000000E+01 0. -1.
    8880022    1    1    2    0    0 -0.15923525283E+02 -0.26441804607E+02  0.27018906666E+03  0.31200402633E+03  0.15294330000E+03 0.  1.
    8880022    1    1    2    0    0  0.15923525283E+02  0.26441804607E+02  0.28670657636E+03  0.32641237971E+03  0.15294330000E+03 0.  1.
<mgrwt>
<rscale>  0 0.15602686E+03</rscale>
<asrwt>0</asrwt>
<pdfrwt beam="1">  1        4 0.91947077E-01 0.15602686E+03</pdfrwt>
<pdfrwt beam="2">  1       -4 0.62708281E-02 0.15602686E+03</pdfrwt>
<totfact> 0.29306911E+02</totfact>
</mgrwt>
</event>
<event>
 4    1  0.8742165E-009  0.1891175E+03  0.7818608E-02  0.1159260E+00
          4   -1    0    0  501    0  0.00000000000E+00  0.00000000000E+00  0.35627498978E+03  0.35627725334E+03  0.12700000000E+01 0. -1.
         -4   -1    0    0    0  501 -0.00000000000E+00 -0.00000000000E+00 -0.10161599435E+03  0.10162393029E+03  0.12700000000E+01 0. -1.
    8880022    1    1    2    0    0  0.10504939860E+03  0.36584094997E+02  0.15257320290E+03  0.24298972697E+03  0.15294330000E+03 0. -1.
    8880022    1    1    2    0    0 -0.10504939860E+03 -0.36584094997E+02  0.10208579253E+03  0.21491145666E+03  0.15294330000E+03 0. -1.
<mgrwt>
<rscale>  0 0.18911749E+03</rscale>
<asrwt>0</asrwt>
<pdfrwt beam="1">  1        4 0.54812321E-01 0.18911749E+03</pdfrwt>
<pdfrwt beam="2">  1       -4 0.15634015E-01 0.18911749E+03</pdfrwt>
<totfact> 0.19819746E+02</totfact>
</mgrwt>
</event>
<event>
 4    1  0.8742165E-009  0.3549797E+03  0.7818608E-02  0.1060590E+00
          4   -1    0    0  501    0  0.00000000000E+00  0.00000000000E+00  0.17577851784E+03  0.17578310566E+03  0.12700000000E+01 0. -1.
         -4   -1    0    0    0  501 -0.00000000000E+00 -0.00000000000E+00 -0.10613001599E+04  0.10613009198E+04  0.12700000000E+01 0. -1.
    8880022    1    1    2    0    0 -0.11862343953E+03  0.29756918237E+03 -0.79513802671E+03  0.87077842947E+03  0.15294330000E+03 0.  0.
    8880022    1    1    2    0    0  0.11862343953E+03 -0.29756918237E+03 -0.90383615383E+02  0.36630559598E+03  0.15294330000E+03 0.  0.
<mgrwt>
<rscale>  0 0.35497971E+03</rscale>
<asrwt>0</asrwt>
<pdfrwt beam="1">  1        4 0.27043261E-01 0.35497971E+03</pdfrwt>
<pdfrwt beam="2">  1       -4 0.16327735E+00 0.35497971E+03</pdfrwt>
<totfact> 0.60286487E+00</totfact>
</mgrwt>
</event>
<event>
 4    1  0.8742165E-009  0.2371304E+03  0.7818608E-02  0.1121719E+00
          4   -1    0    0  501    0  0.00000000000E+00  0.00000000000E+00  0.99398674697E+02  0.99406787653E+02  0.12700000000E+01 0.  1.
         -4   -1    0    0    0  501 -0.00000000000E+00 -0.00000000000E+00 -0.56627517083E+03  0.56627659496E+03  0.12700000000E+01 0.  1.
    8880022    1    1    2    0    0 -0.13822250353E+03  0.11719100839E+03 -0.22263241875E+03  0.32526303175E+03  0.15294330000E+03 0.  0.
    8880022    1    1    2    0    0  0.13822250353E+03 -0.11719100839E+03 -0.24424407738E+03  0.34042035086E+03  0.15294330000E+03 0.  0.
<mgrwt>
<rscale>  0 0.23713044E+03</rscale>
<asrwt>0</asrwt>
<pdfrwt beam="1">  1        4 0.15292838E-01 0.23713044E+03</pdfrwt>
<pdfrwt beam="2">  1       -4 0.87119989E-01 0.23713044E+03</pdfrwt>
<totfact> 0.77582431E+01</totfact>
</mgrwt>
</event>
<event>
 4    1  0.8742165E-009  0.1726179E+03  0.7818608E-02  0.1175145E+00
          4   -1    0    0  501    0  0.00000000000E+00  0.00000000000E+00  0.81916691300E+02  0.81926535466E+02  0.12700000000E+01 0.  1.
         -4   -1    0    0    0  501 -0.00000000000E+00 -0.00000000000E+00 -0.61025788821E+03  0.61025920970E+03  0.12700000000E+01 0.  1.
    8880022    1    1    2    0    0  0.29958617617E+02 -0.74214260176E+02 -0.48414848004E+03  0.51400066043E+03  0.15294330000E+03 0.  1.
    8880022    1    1    2    0    0 -0.29958617617E+02  0.74214260176E+02 -0.44192716871E+02  0.17818508474E+03  0.15294330000E+03 0.  1.
<mgrwt>
<rscale>  0 0.17261787E+03</rscale>
<asrwt>0</asrwt>
<pdfrwt beam="1">  1        4 0.12603427E-01 0.17261787E+03</pdfrwt>
<pdfrwt beam="2">  1       -4 0.93886685E-01 0.17261787E+03</pdfrwt>
<totfact> 0.87997951E+01</totfact>
</mgrwt>
</event>
<event>
 4    1  0.8742165E-009  0.3900253E+03  0.7818608E-02  0.1047289E+00
         -4   -1    0    0    0  501 -0.00000000000E+00  0.00000000000E+00  0.10780940245E+03  0.10781688252E+03  0.12700000000E+01 0. -1.
          4   -1    0    0  501    0  0.00000000000E+00 -0.00000000000E+00 -0.14129759905E+04  0.14129765612E+04  0.12700000000E+01 0. -1.
    8880022    1    1    2    0    0 -0.17239121153E+03 -0.31465750778E+03 -0.68138051420E+03  0.78511090628E+03  0.15294330000E+03 0.  0.
    8880022    1    1    2    0    0  0.17239121153E+03  0.31465750778E+03 -0.62378607385E+03  0.73568253748E+03  0.15294330000E+03 0.  0.
<mgrwt>
<rscale>  0 0.39002529E+03</rscale>
<asrwt>0</asrwt>
<pdfrwt beam="1">  1        4 0.21738153E+00 0.39002529E+03</pdfrwt>
<pdfrwt beam="2">  1       -4 0.16586682E-01 0.39002529E+03</pdfrwt>
<totfact> 0.65371558E+00</totfact>
</mgrwt>
</event>
<event>
 4    1  0.8742165E-009  0.1985646E+03  0.7818608E-02  0.1150956E+00
          4   -1    0    0  501    0  0.00000000000E+00  0.00000000000E+00  0.12267983849E+04  0.12267990423E+04  0.12700000000E+01 0.  1.
         -4   -1    0    0    0  501 -0.00000000000E+00 -0.00000000000E+00 -0.34130040115E+02  0.34153660686E+02  0.12700000000E+01 0.  1.
    8880022    1    1    2    0    0  0.25558141165E+02 -0.12402839575E+03  0.74906670926E+03  0.77493796492E+03  0.15294330000E+03 0.  0.
    8880022    1    1    2    0    0 -0.25558141165E+02  0.12402839575E+03  0.44360163555E+03  0.48601473806E+03  0.15294330000E+03 0.  0.
<mgrwt>
<rscale>  0 0.19856464E+03</rscale>
<asrwt>0</asrwt>
<pdfrwt beam="1">  1        4 0.18874006E+00 0.19856464E+03</pdfrwt>
<pdfrwt beam="2">  1       -4 0.52526434E-02 0.19856464E+03</pdfrwt>
<totfact> 0.67128323E+01</totfact>
</mgrwt>
</event>
<event>
 4    1  0.8742165E-009  0.2135653E+03  0.7818608E-02  0.1138773E+00
          4   -1    0    0  501    0  0.00000000000E+00  0.00000000000E+00  0.78273053826E+02  0.78283356183E+02  0.12700000000E+01 0.  1.
         -4   -1    0    0    0  501 -0.00000000000E+00 -0.00000000000E+00 -0.59690075711E+03  0.59690210817E+03  0.12700000000E+01 0.  1.
    8880022    1    1    2    0    0 -0.78745699528E+02  0.12656065576E+03 -0.20716279752E+03  0.29753413665E+03  0.15294330000E+03 0. -1.
    8880022    1    1    2    0    0  0.78745699528E+02 -0.12656065576E+03 -0.31146490577E+03  0.37765132771E+03  0.15294330000E+03 0. -1.
<mgrwt>
<rscale>  0 0.21356530E+03</rscale>
<asrwt>0</asrwt>
<pdfrwt beam="1">  1        4 0.12042905E-01 0.21356530E+03</pdfrwt>
<pdfrwt beam="2">  1       -4 0.91831779E-01 0.21356530E+03</pdfrwt>
<totfact> 0.10306713E+02</totfact>
</mgrwt>
</event>
<event>
 4    1  0.8742165E-009  0.2866445E+03  0.7818608E-02  0.1092114E+00
         -4   -1    0    0    0  501 -0.00000000000E+00  0.00000000000E+00  0.30289065812E+03  0.30289332062E+03  0.12700000000E+01 0.  1.
          4   -1    0    0  501    0  0.00000000000E+00 -0.00000000000E+00 -0.32130585693E+03  0.32130836684E+03  0.12700000000E+01 0.  1.
    8880022    1    1    2    0    0  0.22453741181E+03  0.91413279822E+02  0.11396005236E+03  0.30846715154E+03  0.15294330000E+03 0.  0.
    8880022    1    1    2    0    0 -0.22453741181E+03 -0.91413279822E+02 -0.13237525118E+03  0.31573453592E+03  0.15294330000E+03 0.  0.
<mgrwt>
<rscale>  0 0.28664454E+03</rscale>
<asrwt>0</asrwt>
<pdfrwt beam="1">  1        4 0.49432068E-01 0.28664454E+03</pdfrwt>
<pdfrwt beam="2">  1       -4 0.46598961E-01 0.28664454E+03</pdfrwt>
<totfact> 0.32767131E+01</totfact>
</mgrwt>
</event>
<event>
 4    1  0.8742165E-009  0.2533400E+03  0.7818608E-02  0.1111212E+00
          4   -1    0    0  501    0  0.00000000000E+00  0.00000000000E+00  0.31286960020E+02  0.31312725325E+02  0.12700000000E+01 0.  1.
         -4   -1    0    0    0  501 -0.00000000000E+00 -0.00000000000E+00 -0.20619357363E+04  0.20619361275E+04  0.12700000000E+01 0.  1.
    8880022    1    1    2    0    0  0.96723813561E+00  0.20196180640E+03 -0.10932662190E+04  0.11222353521E+04  0.15294330000E+03 0.  0.
    8880022    1    1    2    0    0 -0.96723813561E+00 -0.20196180640E+03 -0.93738255732E+03  0.97101350071E+03  0.15294330000E+03 0.  0.
<mgrwt>
<rscale>  0 0.25334001E+03</rscale>
<asrwt>0</asrwt>
<pdfrwt beam="1">  1        4 0.48153921E-02 0.25334001E+03</pdfrwt>
<pdfrwt beam="2">  1       -4 0.31722279E+00 0.25334001E+03</pdfrwt>
<totfact> 0.13341473E+01</totfact>
</mgrwt>
</event>
<event>
 4    1  0.8742165E-009  0.1998114E+03  0.7818608E-02  0.1149898E+00
         -4   -1    0    0    0  501 -0.00000000000E+00  0.00000000000E+00  0.18749814681E+04  0.18749818982E+04  0.12700000000E+01 0.  1.
          4   -1    0    0  501    0  0.00000000000E+00 -0.00000000000E+00 -0.74090658107E+02  0.74101541946E+02  0.12700000000E+01 0.  1.
    8880022    1    1    2    0    0  0.12972880938E+02 -0.12792434591E+03  0.77764041417E+02  0.21441043134E+03  0.15294330000E+03 0.  0.
    8880022    1    1    2    0    0 -0.12972880938E+02  0.12792434591E+03  0.17231267686E+04  0.17346730088E+04  0.15294330000E+03 0.  0.
<mgrwt>
<rscale>  0 0.19981138E+03</rscale>
<asrwt>0</asrwt>
<pdfrwt beam="1">  1        4 0.11399434E-01 0.19981138E+03</pdfrwt>
<pdfrwt beam="2">  1       -4 0.28845954E+00 0.19981138E+03</pdfrwt>
<totfact> 0.46558400E+00</totfact>
</mgrwt>
</event>
<event>
 4    1  0.8742165E-009  0.1554280E+03  0.7818608E-02  0.1193957E+00
         -4   -1    0    0    0  501 -0.00000000000E+00  0.00000000000E+00  0.23085233652E+03  0.23085582985E+03  0.12700000000E+01 0. -1.
          4   -1    0    0  501    0  0.00000000000E+00 -0.00000000000E+00 -0.15845912370E+03  0.15846421294E+03  0.12700000000E+01 0. -1.
    8880022    1    1    2    0    0  0.20252420469E+02 -0.18869117511E+02  0.14964022382E+03  0.21575461462E+03  0.15294330000E+03 0. -1.
    8880022    1    1    2    0    0 -0.20252420469E+02  0.18869117511E+02 -0.77247011008E+02  0.17356542817E+03  0.15294330000E+03 0. -1.
<mgrwt>
<rscale>  0 0.15542798E+03</rscale>
<asrwt>0</asrwt>
<pdfrwt beam="1">  1        4 0.24378987E-01 0.15542798E+03</pdfrwt>
<pdfrwt beam="2">  1       -4 0.35516404E-01 0.15542798E+03</pdfrwt>
<totfact> 0.20604576E+02</totfact>
</mgrwt>
</event>
<event>
 4    1  0.8742165E-009  0.1539243E+03  0.7818608E-02  0.1195732E+00
         -4   -1    0    0    0  501 -0.00000000000E+00  0.00000000000E+00  0.38384702173E+02  0.38405706099E+02  0.12700000000E+01 0.  1.
          4   -1    0    0  501    0  0.00000000000E+00 -0.00000000000E+00 -0.85003295390E+03  0.85003390263E+03  0.12700000000E+01 0.  1.
    8880022    1    1    2    0    0 -0.98548537340E+01 -0.14280506178E+02 -0.63838344229E+03  0.65667809725E+03  0.15294330000E+03 0.  0.
    8880022    1    1    2    0    0  0.98548537340E+01  0.14280506178E+02 -0.17326480943E+03  0.23176151148E+03  0.15294330000E+03 0.  0.
<mgrwt>
<rscale>  0 0.15392435E+03</rscale>
<asrwt>0</asrwt>
<pdfrwt beam="1">  1        4 0.13077597E+00 0.15392435E+03</pdfrwt>
<pdfrwt beam="2">  1       -4 0.59070281E-02 0.15392435E+03</pdfrwt>
<totfact> 0.14007079E+02</totfact>
</mgrwt>
</event>
<event>
 4    1  0.8742165E-009  0.2015805E+03  0.7818608E-02  0.1148412E+00
          4   -1    0    0  501    0  0.00000000000E+00  0.00000000000E+00  0.13110684956E+03  0.13111300051E+03  0.12700000000E+01 0. -1.
         -4   -1    0    0    0  501 -0.00000000000E+00 -0.00000000000E+00 -0.31036062382E+03  0.31036322224E+03  0.12700000000E+01 0. -1.
    8880022    1    1    2    0    0  0.13399008703E+02 -0.13062740807E+03 -0.81319957428E+02  0.21736522644E+03  0.15294330000E+03 0.  0.
    8880022    1    1    2    0    0 -0.13399008703E+02  0.13062740807E+03 -0.97933816830E+02  0.22411099631E+03  0.15294330000E+03 0.  0.
<mgrwt>
<rscale>  0 0.20158052E+03</rscale>
<asrwt>0</asrwt>
<pdfrwt beam="1">  1        4 0.20170958E-01 0.20158052E+03</pdfrwt>
<pdfrwt beam="2">  1       -4 0.47748461E-01 0.20158052E+03</pdfrwt>
<totfact> 0.16850618E+02</totfact>
</mgrwt>
</event>
<event>
 4    1  0.8742165E-009  0.1806528E+03  0.7818608E-02  0.1167173E+00
         -4   -1    0    0    0  501 -0.00000000000E+00  0.00000000000E+00  0.12529694296E+03  0.12530337910E+03  0.12700000000E+01 0.  1.
          4   -1    0    0  501    0  0.00000000000E+00 -0.00000000000E+00 -0.26065435753E+03  0.26065745145E+03  0.12700000000E+01 0.  1.
    8880022    1    1    2    0    0 -0.76115933772E+02 -0.58737970186E+02 -0.73081048818E+02  0.19487502977E+03  0.15294330000E+03 0.  0.
    8880022    1    1    2    0    0  0.76115933772E+02  0.58737970186E+02 -0.62276365754E+02  0.19108580079E+03  0.15294330000E+03 0.  0.
<mgrwt>
<rscale>  0 0.18065281E+03</rscale>
<asrwt>0</asrwt>
<pdfrwt beam="1">  1        4 0.40101403E-01 0.18065281E+03</pdfrwt>
<pdfrwt beam="2">  1       -4 0.19277186E-01 0.18065281E+03</pdfrwt>
<totfact> 0.25539331E+02</totfact>
</mgrwt>
</event>
<event>
 4    1  0.8742165E-009  0.3136491E+03  0.7818608E-02  0.1078610E+00
          4   -1    0    0  501    0  0.00000000000E+00  0.00000000000E+00  0.93580438648E+03  0.93580524825E+03  0.12700000000E+01 0.  1.
         -4   -1    0    0    0  501 -0.00000000000E+00 -0.00000000000E+00 -0.11665249169E+03  0.11665940476E+03  0.12700000000E+01 0.  1.
    8880022    1    1    2    0    0  0.17223338737E+03  0.21288444852E+03  0.24411888685E+03  0.39745416350E+03  0.15294330000E+03 0.  0.
    8880022    1    1    2    0    0 -0.17223338737E+03 -0.21288444852E+03  0.57503300794E+03  0.65501048952E+03  0.15294330000E+03 0.  0.
<mgrwt>
<rscale>  0 0.31364914E+03</rscale>
<asrwt>0</asrwt>
<pdfrwt beam="1">  1        4 0.14397050E+00 0.31364914E+03</pdfrwt>
<pdfrwt beam="2">  1       -4 0.17947135E-01 0.31364914E+03</pdfrwt>
<totfact> 0.17813989E+01</totfact>
</mgrwt>
</event>
<event>
 4    1  0.8742165E-009  0.2039367E+03  0.7818608E-02  0.1146459E+00
          4   -1    0    0  501    0  0.00000000000E+00  0.00000000000E+00  0.12208648640E+03  0.12209309178E+03  0.12700000000E+01 0. -1.
         -4   -1    0    0    0  501 -0.00000000000E+00 -0.00000000000E+00 -0.35074017947E+03  0.35074247875E+03  0.12700000000E+01 0. -1.
    8880022    1    1    2    0    0  0.48479950668E+02  0.12588971986E+03 -0.74217355667E+02  0.21702164888E+03  0.15294330000E+03 0.  0.
    8880022    1    1    2    0    0 -0.48479950668E+02 -0.12588971986E+03 -0.15443633741E+03  0.25581392165E+03  0.15294330000E+03 0.  0.
<mgrwt>
<rscale>  0 0.20393671E+03</rscale>
<asrwt>0</asrwt>
<pdfrwt beam="1">  1        4 0.18783221E-01 0.20393671E+03</pdfrwt>
<pdfrwt beam="2">  1       -4 0.53960712E-01 0.20393671E+03</pdfrwt>
<totfact> 0.14926010E+02</totfact>
</mgrwt>
</event>
<event>
 4    1  0.8742165E-009  0.1628148E+03  0.7818608E-02  0.1185555E+00
          4   -1    0    0  501    0  0.00000000000E+00  0.00000000000E+00  0.79574192949E+03  0.79574294295E+03  0.12700000000E+01 0.  1.
         -4   -1    0    0    0  501 -0.00000000000E+00 -0.00000000000E+00 -0.34068522778E+02  0.34092185971E+02  0.12700000000E+01 0.  1.
    8880022    1    1    2    0    0  0.49957369910E+02  0.24925077873E+02  0.31854098115E+03  0.35773874266E+03  0.15294330000E+03 0. -1.
    8880022    1    1    2    0    0 -0.49957369910E+02 -0.24925077873E+02  0.44313242557E+03  0.47209638626E+03  0.15294330000E+03 0. -1.
<mgrwt>
<rscale>  0 0.16281478E+03</rscale>
<asrwt>0</asrwt>
<pdfrwt beam="1">  1        4 0.12242374E+00 0.16281478E+03</pdfrwt>
<pdfrwt beam="2">  1       -4 0.52432092E-02 0.16281478E+03</pdfrwt>
<totfact> 0.20150214E+02</totfact>
</mgrwt>
</event>
<event>
 4    1  0.8742165E-009  0.1907281E+03  0.7818608E-02  0.1157806E+00
          4   -1    0    0  501    0  0.00000000000E+00  0.00000000000E+00  0.10142450033E+04  0.10142457984E+04  0.12700000000E+01 0. -1.
         -4   -1    0    0    0  501 -0.00000000000E+00 -0.00000000000E+00 -0.62792546442E+02  0.62805388214E+02  0.12700000000E+01 0. -1.
    8880022    1    1    2    0    0 -0.56964101768E+02 -0.98694770662E+02  0.82840029226E+03  0.85007309325E+03  0.15294330000E+03 0.  0.
    8880022    1    1    2    0    0  0.56964101768E+02  0.98694770662E+02  0.12305216459E+03  0.22697809337E+03  0.15294330000E+03 0.  0.
<mgrwt>
<rscale>  0 0.19072813E+03</rscale>
<asrwt>0</asrwt>
<pdfrwt beam="1">  1        4 0.15603873E+00 0.19072813E+03</pdfrwt>
<pdfrwt beam="2">  1       -4 0.96614416E-02 0.19072813E+03</pdfrwt>
<totfact> 0.40761393E+01</totfact>
</mgrwt>
</event>
<event>
 4    1  0.8742165E-009  0.1903467E+03  0.7818608E-02  0.1158149E+00
          4   -1    0    0  501    0  0.00000000000E+00  0.00000000000E+00  0.33545480500E+02  0.33569512388E+02  0.12700000000E+01 0. -1.
         -4   -1    0    0    0  501 -0.00000000000E+00 -0.00000000000E+00 -0.16776938351E+04  0.16776943158E+04  0.12700000000E+01 0. -1.
    8880022    1    1    2    0    0  0.44955904388E+02 -0.10401528735E+03 -0.31123240262E+03  0.36482526611E+03  0.15294330000E+03 0.  0.
    8880022    1    1    2    0    0 -0.44955904388E+02  0.10401528735E+03 -0.13329159520E+04  0.13464385620E+04  0.15294330000E+03 0.  0.
<mgrwt>
<rscale>  0 0.19034670E+03</rscale>
<asrwt>0</asrwt>
<pdfrwt beam="1">  1        4 0.51627301E-02 0.19034670E+03</pdfrwt>
<pdfrwt beam="2">  1       -4 0.25810856E+00 0.19034670E+03</pdfrwt>
<totfact> 0.26104001E+01</totfact>
</mgrwt>
</event>
<event>
 4    1  0.8742165E-009  0.2739048E+03  0.7818608E-02  0.1099065E+00
          4   -1    0    0  501    0  0.00000000000E+00  0.00000000000E+00  0.14596749306E+03  0.14597301781E+03  0.12700000000E+01 0.  1.
         -4   -1    0    0    0  501 -0.00000000000E+00 -0.00000000000E+00 -0.54746591920E+03  0.54746739225E+03  0.12700000000E+01 0.  1.
    8880022    1    1    2    0    0 -0.20424319364E+03  0.99583647778E+02 -0.11497502822E+03  0.29705739375E+03  0.15294330000E+03 0.  0.
    8880022    1    1    2    0    0  0.20424319364E+03 -0.99583647778E+02 -0.28652339792E+03  0.39638301632E+03  0.15294330000E+03 0.  0.
<mgrwt>
<rscale>  0 0.27390480E+03</rscale>
<asrwt>0</asrwt>
<pdfrwt beam="1">  1        4 0.22457076E-01 0.27390480E+03</pdfrwt>
<pdfrwt beam="2">  1       -4 0.84226064E-01 0.27390480E+03</pdfrwt>
<totfact> 0.42500502E+01</totfact>
</mgrwt>
</event>
<event>
 4    1  0.8742165E-009  0.1733777E+03  0.7818608E-02  0.1174371E+00
         -4   -1    0    0    0  501 -0.00000000000E+00  0.00000000000E+00  0.12571173001E+03  0.12571814492E+03  0.12700000000E+01 0.  1.
          4   -1    0    0  501    0  0.00000000000E+00 -0.00000000000E+00 -0.24527500122E+03  0.24527828914E+03  0.12700000000E+01 0.  1.
    8880022    1    1    2    0    0 -0.41602532976E+02  0.70266713563E+02 -0.30356523308E+02  0.17601520760E+03  0.15294330000E+03 0. -1.
    8880022    1    1    2    0    0  0.41602532976E+02 -0.70266713563E+02 -0.89206747907E+02  0.19498122646E+03  0.15294330000E+03 0. -1.
<mgrwt>
<rscale>  0 0.17337772E+03</rscale>
<asrwt>0</asrwt>
<pdfrwt beam="1">  1        4 0.37735362E-01 0.17337772E+03</pdfrwt>
<pdfrwt beam="2">  1       -4 0.19341013E-01 0.17337772E+03</pdfrwt>
<totfact> 0.28428246E+02</totfact>
</mgrwt>
</event>
<event>
 4    1  0.8742165E-009  0.1539997E+03  0.7818608E-02  0.1195643E+00
          4   -1    0    0  501    0  0.00000000000E+00  0.00000000000E+00  0.12544710721E+03  0.12545353565E+03  0.12700000000E+01 0.  1.
         -4   -1    0    0    0  501 -0.00000000000E+00 -0.00000000000E+00 -0.20561465225E+03  0.20561857435E+03  0.12700000000E+01 0.  1.
    8880022    1    1    2    0    0 -0.67833449038E+01  0.16680632195E+02  0.69172405939E+01  0.15415498205E+03  0.15294330000E+03 0. -1.
    8880022    1    1    2    0    0  0.67833449038E+01 -0.16680632195E+02 -0.87084785633E+02  0.17691712795E+03  0.15294330000E+03 0. -1.
<mgrwt>
<rscale>  0 0.15399971E+03</rscale>
<asrwt>0</asrwt>
<pdfrwt beam="1">  1        4 0.19300351E-01 0.15399971E+03</pdfrwt>
<pdfrwt beam="2">  1       -4 0.31633820E-01 0.15399971E+03</pdfrwt>
<totfact> 0.39326899E+02</totfact>
</mgrwt>
</event>
<event>
 4    1  0.8742165E-009  0.1564901E+03  0.7818608E-02  0.1192717E+00
          4   -1    0    0  501    0  0.00000000000E+00  0.00000000000E+00  0.41332920940E+03  0.41333116050E+03  0.12700000000E+01 0. -1.
         -4   -1    0    0    0  501 -0.00000000000E+00 -0.00000000000E+00 -0.60725526493E+02  0.60738805289E+02  0.12700000000E+01 0. -1.
    8880022    1    1    2    0    0  0.22188122425E+02  0.24600404608E+02  0.13922810081E+03  0.20946028204E+03  0.15294330000E+03 0. -1.
    8880022    1    1    2    0    0 -0.22188122425E+02 -0.24600404608E+02  0.21337558210E+03  0.26460968375E+03  0.15294330000E+03 0. -1.
<mgrwt>
<rscale>  0 0.15649008E+03</rscale>
<asrwt>0</asrwt>
<pdfrwt beam="1">  1        4 0.63590279E-01 0.15649008E+03</pdfrwt>
<pdfrwt beam="2">  1       -4 0.93435604E-02 0.15649008E+03</pdfrwt>
<totfact> 0.34087493E+02</totfact>
</mgrwt>
</event>
<event>
 4    1  0.8742165E-009  0.2462165E+03  0.7818608E-02  0.1115719E+00
          4   -1    0    0  501    0  0.00000000000E+00  0.00000000000E+00  0.57771900424E+02  0.57785857947E+02  0.12700000000E+01 0. -1.
         -4   -1    0    0    0  501 -0.00000000000E+00 -0.00000000000E+00 -0.11656021955E+04  0.11656028874E+04  0.12700000000E+01 0. -1.
    8880022    1    1    2    0    0 -0.13824344907E+03 -0.13460934199E+03 -0.36061494997E+03  0.43665286134E+03  0.15294330000E+03 0.  1.
    8880022    1    1    2    0    0  0.13824344907E+03  0.13460934199E+03 -0.74721534510E+03  0.78673588398E+03  0.15294330000E+03 0.  1.
<mgrwt>
<rscale>  0 0.24621653E+03</rscale>
<asrwt>0</asrwt>
<pdfrwt beam="1">  1        4 0.88891124E-02 0.24621653E+03</pdfrwt>
<pdfrwt beam="2">  1       -4 0.17932452E+00 0.24621653E+03</pdfrwt>
<totfact> 0.33120720E+01</totfact>
</mgrwt>
</event>
<event>
 4    1  0.8742165E-009  0.2818226E+03  0.7818608E-02  0.1094698E+00
          4   -1    0    0  501    0  0.00000000000E+00  0.00000000000E+00  0.19613308289E+04  0.19613312401E+04  0.12700000000E+01 0. -1.
         -4   -1    0    0    0  501 -0.00000000000E+00 -0.00000000000E+00 -0.59980289785E+02  0.59993733528E+02  0.12700000000E+01 0. -1.
    8880022    1    1    2    0    0  0.10571837468E+03  0.21179219574E+03  0.15267910104E+04  0.15525832510E+04  0.15294330000E+03 0.  0.
    8880022    1    1    2    0    0 -0.10571837468E+03 -0.21179219574E+03  0.37455952874E+03  0.46874172260E+03  0.15294330000E+03 0.  0.
<mgrwt>
<rscale>  0 0.28182257E+03</rscale>
<asrwt>0</asrwt>
<pdfrwt beam="1">  1        4 0.30174429E+00 0.28182257E+03</pdfrwt>
<pdfrwt beam="2">  1       -4 0.92288019E-02 0.28182257E+03</pdfrwt>
<totfact> 0.56282437E+00</totfact>
</mgrwt>
</event>
<event>
 4    1  0.8742165E-009  0.4207259E+03  0.7818608E-02  0.1036830E+00
          4   -1    0    0  501    0  0.00000000000E+00  0.00000000000E+00  0.79326360560E+03  0.79326462222E+03  0.12700000000E+01 0. -1.
         -4   -1    0    0    0  501 -0.00000000000E+00 -0.00000000000E+00 -0.41462808340E+03  0.41463002839E+03  0.12700000000E+01 0.  1.
    8880022    1    1    2    0    0  0.33146102086E+03 -0.20917031630E+03  0.59974851611E+03  0.73260396202E+03  0.15294330000E+03 0. -1.
    8880022    1    1    2    0    0 -0.33146102086E+03  0.20917031630E+03 -0.22111299391E+03  0.47529068859E+03  0.15294330000E+03 0.  0.
<mgrwt>
<rscale>  0 0.42072590E+03</rscale>
<asrwt>0</asrwt>
<pdfrwt beam="1">  1        4 0.12204078E+00 0.42072590E+03</pdfrwt>
<pdfrwt beam="2">  1       -4 0.63789164E-01 0.42072590E+03</pdfrwt>
<totfact> 0.22643273E+00</totfact>
</mgrwt>
</event>
<event>
 4    1  0.8742165E-009  0.2264625E+03  0.7818608E-02  0.1129155E+00
          4   -1    0    0  501    0  0.00000000000E+00  0.00000000000E+00  0.14976099913E+03  0.14976638395E+03  0.12700000000E+01 0. -1.
         -4   -1    0    0    0  501 -0.00000000000E+00 -0.00000000000E+00 -0.34543202021E+03  0.34543435481E+03  0.12700000000E+01 0. -1.
    8880022    1    1    2    0    0 -0.15659466606E+03  0.58066341678E+02 -0.12089999996E+03  0.25671395069E+03  0.15294330000E+03 0.  0.
    8880022    1    1    2    0    0  0.15659466606E+03 -0.58066341678E+02 -0.74771021112E+02  0.23848678807E+03  0.15294330000E+03 0.  0.
<mgrwt>
<rscale>  0 0.22646245E+03</rscale>
<asrwt>0</asrwt>
<pdfrwt beam="1">  1        4 0.23040748E-01 0.22646245E+03</pdfrwt>
<pdfrwt beam="2">  1       -4 0.53143981E-01 0.22646245E+03</pdfrwt>
<totfact> 0.10766477E+02</totfact>
</mgrwt>
</event>
<event>
 4    1  0.8742165E-009  0.1865945E+03  0.7818608E-02  0.1161569E+00
          4   -1    0    0  501    0  0.00000000000E+00  0.00000000000E+00  0.13560528036E+03  0.13561122727E+03  0.12700000000E+01 0.  1.
         -4   -1    0    0    0  501 -0.00000000000E+00 -0.00000000000E+00 -0.25778802128E+03  0.25779114960E+03  0.12700000000E+01 0.  1.
    8880022    1    1    2    0    0 -0.88359161692E+02  0.60154156151E+02 -0.73613788309E+02  0.20059039559E+03  0.15294330000E+03 0.  0.
    8880022    1    1    2    0    0  0.88359161692E+02 -0.60154156151E+02 -0.48568952601E+02  0.19281198129E+03  0.15294330000E+03 0.  0.
<mgrwt>
<rscale>  0 0.18659453E+03</rscale>
<asrwt>0</asrwt>
<pdfrwt beam="1">  1        4 0.20863049E-01 0.18659453E+03</pdfrwt>
<pdfrwt beam="2">  1       -4 0.39660394E-01 0.18659453E+03</pdfrwt>
<totfact> 0.22740161E+02</totfact>
</mgrwt>
</event>
<event>
 4    1  0.8742165E-009  0.2962652E+03  0.7818608E-02  0.1087123E+00
         -4   -1    0    0    0  501 -0.00000000000E+00  0.00000000000E+00  0.47269063453E+03  0.47269234061E+03  0.12700000000E+01 0. -1.
          4   -1    0    0  501    0  0.00000000000E+00 -0.00000000000E+00 -0.19485413532E+03  0.19485827401E+03  0.12700000000E+01 0. -1.
    8880022    1    1    2    0    0 -0.88152291031E+02  0.23792980500E+03  0.66511172780E+02  0.30363927223E+03  0.15294330000E+03 0.  0.
    8880022    1    1    2    0    0  0.88152291031E+02 -0.23792980500E+03  0.21132532643E+03  0.36391134240E+03  0.15294330000E+03 0.  0.
<mgrwt>
<rscale>  0 0.29626520E+03</rscale>
<asrwt>0</asrwt>
<pdfrwt beam="1">  1        4 0.29978009E-01 0.29626520E+03</pdfrwt>
<pdfrwt beam="2">  1       -4 0.72722085E-01 0.29626520E+03</pdfrwt>
<totfact> 0.34530497E+01</totfact>
</mgrwt>
</event>
<event>
 4    1  0.8742165E-009  0.2646206E+03  0.7818608E-02  0.1104398E+00
          4   -1    0    0  501    0  0.00000000000E+00  0.00000000000E+00  0.83692949674E+02  0.83702584937E+02  0.12700000000E+01 0.  1.
         -4   -1    0    0    0  501 -0.00000000000E+00 -0.00000000000E+00 -0.99843514973E+03  0.99843595744E+03  0.12700000000E+01 0.  1.
    8880022    1    1    2    0    0  0.18370642295E+03 -0.11350934153E+03 -0.67519234251E+03  0.72519567900E+03  0.15294330000E+03 0.  0.
    8880022    1    1    2    0    0 -0.18370642295E+03  0.11350934153E+03 -0.23954985754E+03  0.35694286337E+03  0.15294330000E+03 0.  0.
<mgrwt>
<rscale>  0 0.26462062E+03</rscale>
<asrwt>0</asrwt>
<pdfrwt beam="1">  1        4 0.12876642E-01 0.26462062E+03</pdfrwt>
<pdfrwt beam="2">  1       -4 0.15360620E+00 0.26462062E+03</pdfrwt>
<totfact> 0.26776635E+01</totfact>
</mgrwt>
</event>
<event>
 4    1  0.8742165E-009  0.1562879E+03  0.7818608E-02  0.1192953E+00
         -4   -1    0    0    0  501 -0.00000000000E+00  0.00000000000E+00  0.48574005004E+03  0.48574171029E+03  0.12700000000E+01 0.  1.
          4   -1    0    0  501    0  0.00000000000E+00 -0.00000000000E+00 -0.11510562745E+03  0.11511263341E+03  0.12700000000E+01 0.  1.
    8880022    1    1    2    0    0  0.26797929926E+02  0.17779661823E+02  0.41076823816E+03  0.43949566997E+03  0.15294330000E+03 0.  0.
    8880022    1    1    2    0    0 -0.26797929926E+02 -0.17779661823E+02 -0.40133815569E+02  0.16135867374E+03  0.15294330000E+03 0.  0.
<mgrwt>
<rscale>  0 0.15628787E+03</rscale>
<asrwt>0</asrwt>
<pdfrwt beam="1">  1        4 0.17709225E-01 0.15628787E+03</pdfrwt>
<pdfrwt beam="2">  1       -4 0.74729905E-01 0.15628787E+03</pdfrwt>
<totfact> 0.79692229E+01</totfact>
</mgrwt>
</event>
<event>
 4    1  0.8742165E-009  0.3419220E+03  0.7818608E-02  0.1065980E+00
          4   -1    0    0  501    0  0.00000000000E+00  0.00000000000E+00  0.16049330017E+04  0.16049335042E+04  0.12700000000E+01 0. -1.
         -4   -1    0    0    0  501 -0.00000000000E+00 -0.00000000000E+00 -0.78765788860E+02  0.78776026777E+02  0.12700000000E+01 0. -1.
    8880022    1    1    2    0    0  0.47077054491E+02  0.30216349391E+03  0.53216212771E+03  0.63254028275E+03  0.15294330000E+03 0. -1.
    8880022    1    1    2    0    0 -0.47077054491E+02 -0.30216349391E+03  0.99400508516E+03  0.10511692482E+04  0.15294330000E+03 0. -1.
<mgrwt>
<rscale>  0 0.34192204E+03</rscale>
<asrwt>0</asrwt>
<pdfrwt beam="1">  1        4 0.24691360E+00 0.34192204E+03</pdfrwt>
<pdfrwt beam="2">  1       -4 0.12118640E-01 0.34192204E+03</pdfrwt>
<totfact> 0.74973496E+00</totfact>
</mgrwt>
</event>
<event>
 4    1  0.8742165E-009  0.4359491E+03  0.7818608E-02  0.1031997E+00
         -4   -1    0    0    0  501 -0.00000000000E+00  0.00000000000E+00  0.92737897469E+03  0.92737984429E+03  0.12700000000E+01 0. -1.
          4   -1    0    0  501    0  0.00000000000E+00 -0.00000000000E+00 -0.22431723225E+03  0.22432082735E+03  0.12700000000E+01 0. -1.
    8880022    1    1    2    0    0 -0.32293155228E+03  0.24975025277E+03  0.18224605413E+03  0.47250952739E+03  0.15294330000E+03 0.  0.
    8880022    1    1    2    0    0  0.32293155228E+03 -0.24975025277E+03  0.52081568832E+03  0.67919114425E+03  0.15294330000E+03 0.  0.
<mgrwt>
<rscale>  0 0.43594911E+03</rscale>
<asrwt>0</asrwt>
<pdfrwt beam="1">  1        4 0.34510686E-01 0.43594911E+03</pdfrwt>
<pdfrwt beam="2">  1       -4 0.14267404E+00 0.43594911E+03</pdfrwt>
<totfact> 0.54218410E+00</totfact>
</mgrwt>
</event>
<event>
 4    1  0.8742165E-009  0.3698453E+03  0.7818608E-02  0.1054752E+00
         -4   -1    0    0    0  501 -0.00000000000E+00  0.00000000000E+00  0.26794019627E+03  0.26794320606E+03  0.12700000000E+01 0. -1.
          4   -1    0    0  501    0  0.00000000000E+00 -0.00000000000E+00 -0.52281769715E+03  0.52281923966E+03  0.12700000000E+01 0. -1.
    8880022    1    1    2    0    0  0.88801007727E+02  0.32482032730E+03 -0.18812448654E+03  0.41494136869E+03  0.15294330000E+03 0.  0.
    8880022    1    1    2    0    0 -0.88801007727E+02 -0.32482032730E+03 -0.66753014351E+02  0.37582107703E+03  0.15294330000E+03 0.  0.
<mgrwt>
<rscale>  0 0.36984526E+03</rscale>
<asrwt>0</asrwt>
<pdfrwt beam="1">  1        4 0.80433842E-01 0.36984526E+03</pdfrwt>
<pdfrwt beam="2">  1       -4 0.41221919E-01 0.36984526E+03</pdfrwt>
<totfact> 0.15010265E+01</totfact>
</mgrwt>
</event>
<event>
 4    1  0.8742165E-009  0.1952062E+03  0.7818608E-02  0.1153848E+00
          4   -1    0    0  501    0  0.00000000000E+00  0.00000000000E+00  0.21671889432E+03  0.21672261547E+03  0.12700000000E+01 0.  1.
         -4   -1    0    0    0  501 -0.00000000000E+00 -0.00000000000E+00 -0.19765188953E+03  0.19765596964E+03  0.12700000000E+01 0.  1.
    8880022    1    1    2    0    0  0.11872330883E+03 -0.24871311808E+02  0.78389105613E+02  0.21035757915E+03  0.15294330000E+03 0.  0.
    8880022    1    1    2    0    0 -0.11872330883E+03  0.24871311808E+02 -0.59322100829E+02  0.20402100596E+03  0.15294330000E+03 0.  0.
<mgrwt>
<rscale>  0 0.19520620E+03</rscale>
<asrwt>0</asrwt>
<pdfrwt beam="1">  1        4 0.33341969E-01 0.19520620E+03</pdfrwt>
<pdfrwt beam="2">  1       -4 0.30408583E-01 0.19520620E+03</pdfrwt>
<totfact> 0.15939205E+02</totfact>
</mgrwt>
</event>
<event>
 4    1  0.8742165E-009  0.1674419E+03  0.7818608E-02  0.1180542E+00
          4   -1    0    0  501    0  0.00000000000E+00  0.00000000000E+00  0.27481879420E+03  0.27482172866E+03  0.12700000000E+01 0.  1.
         -4   -1    0    0    0  501 -0.00000000000E+00 -0.00000000000E+00 -0.16360803989E+03  0.16361296897E+03  0.12700000000E+01 0.  1.
    8880022    1    1    2    0    0  0.15925531640E+02 -0.66268503144E+02  0.19011007267E+03  0.25333501498E+03  0.15294330000E+03 0.  0.
    8880022    1    1    2    0    0 -0.15925531640E+02  0.66268503144E+02 -0.78899318364E+02  0.18509968266E+03  0.15294330000E+03 0.  0.
<mgrwt>
<rscale>  0 0.16744190E+03</rscale>
<asrwt>0</asrwt>
<pdfrwt beam="1">  1        4 0.42280419E-01 0.16744190E+03</pdfrwt>
<pdfrwt beam="2">  1       -4 0.25171073E-01 0.16744190E+03</pdfrwt>
<totfact> 0.13950230E+02</totfact>
</mgrwt>
</event>
<event>
 4    1  0.8742165E-009  0.3297944E+03  0.7818608E-02  0.1071228E+00
          4   -1    0    0  501    0  0.00000000000E+00  0.00000000000E+00  0.16166048823E+03  0.16166547670E+03  0.12700000000E+01 0. -1.
         -4   -1    0    0    0  501 -0.00000000000E+00 -0.00000000000E+00 -0.68291009407E+03  0.68291127498E+03  0.12700000000E+01 0. -1.
    8880022    1    1    2    0    0 -0.23384278922E+03  0.17518630406E+03 -0.20919012031E+03  0.39054430050E+03  0.15294330000E+03 0.  0.
    8880022    1    1    2    0    0  0.23384278922E+03 -0.17518630406E+03 -0.31205948553E+03  0.45403245118E+03  0.15294330000E+03 0.  0.
<mgrwt>
<rscale>  0 0.32979440E+03</rscale>
<asrwt>0</asrwt>
<pdfrwt beam="1">  1        4 0.24871319E-01 0.32979440E+03</pdfrwt>
<pdfrwt beam="2">  1       -4 0.10506356E+00 0.32979440E+03</pdfrwt>
<totfact> 0.21376611E+01</totfact>
</mgrwt>
</event>
<event>
 4    1  0.8742165E-009  0.1726971E+03  0.7818608E-02  0.1175064E+00
          4   -1    0    0  501    0  0.00000000000E+00  0.00000000000E+00  0.11884847160E+03  0.11885525693E+03  0.12700000000E+01 0. -1.
         -4   -1    0    0    0  501 -0.00000000000E+00 -0.00000000000E+00 -0.25200406920E+03  0.25200726932E+03  0.12700000000E+01 0. -1.
    8880022    1    1    2    0    0  0.46628870868E+02 -0.65256248545E+02 -0.78693511941E+02  0.18978132524E+03  0.15294330000E+03 0.  1.
    8880022    1    1    2    0    0 -0.46628870868E+02  0.65256248545E+02 -0.54462085659E+02  0.18108120102E+03  0.15294330000E+03 0.  1.
<mgrwt>
<rscale>  0 0.17269708E+03</rscale>
<asrwt>0</asrwt>
<pdfrwt beam="1">  1        4 0.18285148E-01 0.17269708E+03</pdfrwt>
<pdfrwt beam="2">  1       -4 0.38770625E-01 0.17269708E+03</pdfrwt>
<totfact> 0.29796129E+02</totfact>
</mgrwt>
</event>
<event>
 4    1  0.8742165E-009  0.2028884E+03  0.7818608E-02  0.1147325E+00
          4   -1    0    0  501    0  0.00000000000E+00  0.00000000000E+00  0.49522699911E+02  0.49538981686E+02  0.12700000000E+01 0. -1.
         -4   -1    0    0    0  501 -0.00000000000E+00 -0.00000000000E+00 -0.83134950798E+03  0.83135047803E+03  0.12700000000E+01 0. -1.
    8880022    1    1    2    0    0 -0.26327513842E+01 -0.13328588843E+03 -0.39919493389E+03  0.44779493933E+03  0.15294330000E+03 0.  1.
    8880022    1    1    2    0    0  0.26327513842E+01  0.13328588843E+03 -0.38263187418E+03  0.43309452039E+03  0.15294330000E+03 0.  1.
<mgrwt>
<rscale>  0 0.20288842E+03</rscale>
<asrwt>0</asrwt>
<pdfrwt beam="1">  1        4 0.76202046E-02 0.20288842E+03</pdfrwt>
<pdfrwt beam="2">  1       -4 0.12790124E+00 0.20288842E+03</pdfrwt>
<totfact> 0.10116766E+02</totfact>
</mgrwt>
</event>
<event>
 4    1  0.8742165E-009  0.1552857E+03  0.7818608E-02  0.1194124E+00
         -4   -1    0    0    0  501 -0.00000000000E+00  0.00000000000E+00  0.81928085655E+02  0.81937928453E+02  0.12700000000E+01 0.  1.
          4   -1    0    0  501    0  0.00000000000E+00 -0.00000000000E+00 -0.41272061977E+03  0.41272257375E+03  0.12700000000E+01 0.  1.
    8880022    1    1    2    0    0  0.24827599104E+02  0.10275914053E+02 -0.32913416347E+02  0.15873547202E+03  0.15294330000E+03 0.  0.
    8880022    1    1    2    0    0 -0.24827599104E+02 -0.10275914053E+02 -0.29787911777E+03  0.33592503019E+03  0.15294330000E+03 0.  0.
<mgrwt>
<rscale>  0 0.15528573E+03</rscale>
<asrwt>0</asrwt>
<pdfrwt beam="1">  1        4 0.63496386E-01 0.15528573E+03</pdfrwt>
<pdfrwt beam="2">  1       -4 0.12605229E-01 0.15528573E+03</pdfrwt>
<totfact> 0.20518546E+02</totfact>
</mgrwt>
</event>
<event>
 4    1  0.8742165E-009  0.2233046E+03  0.7818608E-02  0.1131443E+00
         -4   -1    0    0    0  501 -0.00000000000E+00  0.00000000000E+00  0.48110782913E+02  0.48127542349E+02  0.12700000000E+01 0. -1.
          4   -1    0    0  501    0  0.00000000000E+00 -0.00000000000E+00 -0.15860871334E+04  0.15860876419E+04  0.12700000000E+01 0. -1.
    8880022    1    1    2    0    0  0.13491006836E+03  0.90953649590E+02 -0.28789949846E+03  0.36435019850E+03  0.15294330000E+03 0.  1.
    8880022    1    1    2    0    0 -0.13491006836E+03 -0.90953649590E+02 -0.12500768520E+04  0.12698649857E+04  0.15294330000E+03 0.  1.
<mgrwt>
<rscale>  0 0.22330460E+03</rscale>
<asrwt>0</asrwt>
<pdfrwt beam="1">  1        4 0.24401469E+00 0.22330460E+03</pdfrwt>
<pdfrwt beam="2">  1       -4 0.74029884E-02 0.22330460E+03</pdfrwt>
<totfact> 0.17675028E+01</totfact>
</mgrwt>
</event>
<event>
 4    1  0.8742165E-009  0.2299282E+03  0.7818608E-02  0.1126690E+00
         -4   -1    0    0    0  501 -0.00000000000E+00  0.00000000000E+00  0.59766424990E+02  0.59779916829E+02  0.12700000000E+01 0.  1.
          4   -1    0    0  501    0  0.00000000000E+00 -0.00000000000E+00 -0.88471550509E+03  0.88471641662E+03  0.12700000000E+01 0.  1.
    8880022    1    1    2    0    0 -0.15143760563E+03  0.80882552860E+02 -0.40423560480E+03  0.46505205403E+03  0.15294330000E+03 0.  0.
    8880022    1    1    2    0    0  0.15143760563E+03 -0.80882552860E+02 -0.42071347529E+03  0.47944427942E+03  0.15294330000E+03 0.  0.
<mgrwt>
<rscale>  0 0.22992823E+03</rscale>
<asrwt>0</asrwt>
<pdfrwt beam="1">  1        4 0.13611118E+00 0.22992823E+03</pdfrwt>
<pdfrwt beam="2">  1       -4 0.91959432E-02 0.22992823E+03</pdfrwt>
<totfact> 0.64200755E+01</totfact>
</mgrwt>
</event>
<event>
 4    1  0.8742165E-009  0.3421195E+03  0.7818608E-02  0.1065897E+00
         -4   -1    0    0    0  501 -0.00000000000E+00  0.00000000000E+00  0.13934498029E+03  0.13935076760E+03  0.12700000000E+01 0.  1.
          4   -1    0    0  501    0  0.00000000000E+00 -0.00000000000E+00 -0.98235230814E+03  0.98235312908E+03  0.12700000000E+01 0.  1.
    8880022    1    1    2    0    0 -0.10849775656E+03 -0.28615085517E+03 -0.63504203493E+03  0.72133495287E+03  0.15294330000E+03 0.  0.
    8880022    1    1    2    0    0  0.10849775656E+03  0.28615085517E+03 -0.20796529293E+03  0.40036894381E+03  0.15294330000E+03 0.  0.
<mgrwt>
<rscale>  0 0.34211946E+03</rscale>
<asrwt>0</asrwt>
<pdfrwt beam="1">  1        4 0.15113163E+00 0.34211946E+03</pdfrwt>
<pdfrwt beam="2">  1       -4 0.21438198E-01 0.34211946E+03</pdfrwt>
<totfact> 0.11416990E+01</totfact>
</mgrwt>
</event>
<event>
 4    1  0.8742165E-009  0.1689854E+03  0.7818608E-02  0.1178910E+00
         -4   -1    0    0    0  501 -0.00000000000E+00  0.00000000000E+00  0.10514275968E+03  0.10515042945E+03  0.12700000000E+01 0.  1.
          4   -1    0    0  501    0  0.00000000000E+00 -0.00000000000E+00 -0.29188986498E+03  0.29189262783E+03  0.12700000000E+01 0.  1.
    8880022    1    1    2    0    0  0.47928398547E+02 -0.53547033038E+02 -0.14574629940E+03  0.22315477351E+03  0.15294330000E+03 0. -1.
    8880022    1    1    2    0    0 -0.47928398547E+02  0.53547033038E+02 -0.41000805897E+02  0.17388828377E+03  0.15294330000E+03 0. -1.
<mgrwt>
<rscale>  0 0.16898541E+03</rscale>
<asrwt>0</asrwt>
<pdfrwt beam="1">  1        4 0.44906935E-01 0.16898541E+03</pdfrwt>
<pdfrwt beam="2">  1       -4 0.16176612E-01 0.16898541E+03</pdfrwt>
<totfact> 0.27558576E+02</totfact>
</mgrwt>
</event>
<event>
 4    1  0.8742165E-009  0.1666915E+03  0.7818608E-02  0.1181343E+00
         -4   -1    0    0    0  501 -0.00000000000E+00  0.00000000000E+00  0.18906758563E+03  0.18907185099E+03  0.12700000000E+01 0. -1.
          4   -1    0    0  501    0  0.00000000000E+00 -0.00000000000E+00 -0.14696117664E+03  0.14696666404E+03  0.12700000000E+01 0. -1.
    8880022    1    1    2    0    0  0.71161116838E+01  0.65907261033E+02  0.19960917110E+02  0.16788239136E+03  0.15294330000E+03 0. -1.
    8880022    1    1    2    0    0 -0.71161116838E+01 -0.65907261033E+02  0.22145491879E+02  0.16815612367E+03  0.15294330000E+03 0. -1.
<mgrwt>
<rscale>  0 0.16669151E+03</rscale>
<asrwt>0</asrwt>
<pdfrwt beam="1">  1        4 0.22610162E-01 0.16669151E+03</pdfrwt>
<pdfrwt beam="2">  1       -4 0.29088071E-01 0.16669151E+03</pdfrwt>
<totfact> 0.35094853E+02</totfact>
</mgrwt>
</event>
<event>
 4    1  0.8742165E-009  0.1798037E+03  0.7818608E-02  0.1167993E+00
          4   -1    0    0  501    0  0.00000000000E+00  0.00000000000E+00  0.19706857877E+03  0.19707267095E+03  0.12700000000E+01 0.  1.
         -4   -1    0    0    0  501 -0.00000000000E+00 -0.00000000000E+00 -0.18921194387E+03  0.18921620597E+03  0.12700000000E+01 0.  1.
    8880022    1    1    2    0    0  0.55193805568E+02 -0.76755126530E+02  0.74370040990E+02  0.19457713543E+03  0.15294330000E+03 0.  0.
    8880022    1    1    2    0    0 -0.55193805568E+02  0.76755126530E+02 -0.66513406095E+02  0.19171174149E+03  0.15294330000E+03 0.  0.
<mgrwt>
<rscale>  0 0.17980367E+03</rscale>
<asrwt>0</asrwt>
<pdfrwt beam="1">  1        4 0.30318885E-01 0.17980367E+03</pdfrwt>
<pdfrwt beam="2">  1       -4 0.29110173E-01 0.17980367E+03</pdfrwt>
<totfact> 0.20519214E+02</totfact>
</mgrwt>
</event>
<event>
 4    1  0.8742165E-009  0.1772023E+03  0.7818608E-02  0.1170538E+00
          4   -1    0    0  501    0  0.00000000000E+00  0.00000000000E+00  0.23214494489E+03  0.23214841878E+03  0.12700000000E+01 0.  1.
         -4   -1    0    0    0  501 -0.00000000000E+00 -0.00000000000E+00 -0.30238361053E+03  0.30238627749E+03  0.12700000000E+01 0.  1.
    8880022    1    1    2    0    0 -0.89430731893E+02  0.33392892432E+01 -0.23381375864E+03  0.29337609549E+03  0.15294330000E+03 0.  0.
    8880022    1    1    2    0    0  0.89430731893E+02 -0.33392892432E+01  0.16357509301E+03  0.24115860078E+03  0.15294330000E+03 0.  0.
<mgrwt>
<rscale>  0 0.17720231E+03</rscale>
<asrwt>0</asrwt>
<pdfrwt beam="1">  1        4 0.35715079E-01 0.17720231E+03</pdfrwt>
<pdfrwt beam="2">  1       -4 0.46521028E-01 0.17720231E+03</pdfrwt>
<totfact> 0.59708893E+01</totfact>
</mgrwt>
</event>
<event>
 4    1  0.8742165E-009  0.1545334E+03  0.7818608E-02  0.1195011E+00
          4   -1    0    0  501    0  0.00000000000E+00  0.00000000000E+00  0.15687771541E+03  0.15688285596E+03  0.12700000000E+01 0. -1.
         -4   -1    0    0    0  501 -0.00000000000E+00 -0.00000000000E+00 -0.16065614677E+03  0.16066116642E+03  0.12700000000E+01 0. -1.
    8880022    1    1    2    0    0  0.22086023574E+02  0.10592686303E+01  0.34505872469E+02  0.15833894889E+03  0.15294330000E+03 0.  0.
    8880022    1    1    2    0    0 -0.22086023574E+02 -0.10592686303E+01 -0.38284303821E+02  0.15920507348E+03  0.15294330000E+03 0.  0.
<mgrwt>
<rscale>  0 0.15453339E+03</rscale>
<asrwt>0</asrwt>
<pdfrwt beam="1">  1        4 0.24135815E-01 0.15453339E+03</pdfrwt>
<pdfrwt beam="2">  1       -4 0.24717112E-01 0.15453339E+03</pdfrwt>
<totfact> 0.41639652E+02</totfact>
</mgrwt>
</event>
<event>
 4    1  0.8742165E-009  0.1942245E+03  0.7818608E-02  0.1154705E+00
         -4   -1    0    0    0  501 -0.00000000000E+00  0.00000000000E+00  0.18099283302E+03  0.18099728867E+03  0.12700000000E+01 0.  1.
          4   -1    0    0  501    0  0.00000000000E+00 -0.00000000000E+00 -0.24589402107E+03  0.24589730071E+03  0.12700000000E+01 0.  1.
    8880022    1    1    2    0    0 -0.11188826323E+03 -0.42573806231E+02 -0.11578151017E+03  0.22611617266E+03  0.15294330000E+03 0.  0.
    8880022    1    1    2    0    0  0.11188826323E+03  0.42573806231E+02  0.50880322122E+02  0.20077841672E+03  0.15294330000E+03 0.  0.
<mgrwt>
<rscale>  0 0.19422452E+03</rscale>
<asrwt>0</asrwt>
<pdfrwt beam="1">  1        4 0.37830444E-01 0.19422452E+03</pdfrwt>
<pdfrwt beam="2">  1       -4 0.27845646E-01 0.19422452E+03</pdfrwt>
<totfact> 0.14716499E+02</totfact>
</mgrwt>
</event>
<event>
 4    1  0.8742165E-009  0.1992177E+03  0.7818608E-02  0.1150401E+00
         -4   -1    0    0    0  501 -0.00000000000E+00  0.00000000000E+00  0.50882230519E+02  0.50898077396E+02  0.12700000000E+01 0.  1.
          4   -1    0    0  501    0  0.00000000000E+00 -0.00000000000E+00 -0.98516475646E+03  0.98516557505E+03  0.12700000000E+01 0.  1.
    8880022    1    1    2    0    0  0.12555194081E+03  0.23081694867E+02 -0.23065578153E+03  0.30477827522E+03  0.15294330000E+03 0.  0.
    8880022    1    1    2    0    0 -0.12555194081E+03 -0.23081694867E+02 -0.70362674441E+03  0.73128537722E+03  0.15294330000E+03 0.  0.
<mgrwt>
<rscale>  0 0.19921774E+03</rscale>
<asrwt>0</asrwt>
<pdfrwt beam="1">  1        4 0.15156508E+00 0.19921774E+03</pdfrwt>
<pdfrwt beam="2">  1       -4 0.78293181E-02 0.19921774E+03</pdfrwt>
<totfact> 0.62879822E+01</totfact>
</mgrwt>
</event>
<event>
 4    1  0.8742165E-009  0.2582267E+03  0.7818608E-02  0.1108213E+00
          4   -1    0    0  501    0  0.00000000000E+00  0.00000000000E+00  0.46687759425E+02  0.46705029495E+02  0.12700000000E+01 0. -1.
         -4   -1    0    0    0  501 -0.00000000000E+00 -0.00000000000E+00 -0.14805706911E+04  0.14805712358E+04  0.12700000000E+01 0. -1.
    8880022    1    1    2    0    0  0.70778376173E+02  0.19565224012E+03 -0.86090096956E+03  0.89879447595E+03  0.15294330000E+03 0.  0.
    8880022    1    1    2    0    0 -0.70778376173E+02 -0.19565224012E+03 -0.57298196210E+03  0.62848178932E+03  0.15294330000E+03 0.  0.
<mgrwt>
<rscale>  0 0.25822670E+03</rscale>
<asrwt>0</asrwt>
<pdfrwt beam="1">  1        4 0.71841037E-02 0.25822670E+03</pdfrwt>
<pdfrwt beam="2">  1       -4 0.22778144E+00 0.25822670E+03</pdfrwt>
<totfact> 0.23459686E+01</totfact>
</mgrwt>
</event>
<event>
 4    1  0.8742165E-009  0.5943711E+03  0.7818608E-02  0.9917154E-01
         -4   -1    0    0    0  501 -0.00000000000E+00  0.00000000000E+00  0.25856506568E+04  0.25856509687E+04  0.12700000000E+01 0.  1.
          4   -1    0    0  501    0  0.00000000000E+00 -0.00000000000E+00 -0.15207031143E+03  0.15207561447E+03  0.12700000000E+01 0.  1.
    8880022    1    1    2    0    0  0.31766763606E+03 -0.47851083941E+03  0.78056987624E+03  0.98110465045E+03  0.15294330000E+03 0.  0.
    8880022    1    1    2    0    0 -0.31766763606E+03  0.47851083941E+03  0.16530104692E+04  0.17566219327E+04  0.15294330000E+03 0.  0.
<mgrwt>
<rscale>  0 0.59437110E+03</rscale>
<asrwt>0</asrwt>
<pdfrwt beam="1">  1        4 0.23395867E-01 0.59437110E+03</pdfrwt>
<pdfrwt beam="2">  1       -4 0.39779279E+00 0.59437110E+03</pdfrwt>
<totfact> 0.25896160E-01</totfact>
</mgrwt>
</event>
<event>
 4    1  0.8742165E-009  0.1579871E+03  0.7818608E-02  0.1190988E+00
          4   -1    0    0  501    0  0.00000000000E+00  0.00000000000E+00  0.16968393912E+02  0.17015854135E+02  0.12700000000E+01 0. -1.
         -4   -1    0    0    0  501 -0.00000000000E+00 -0.00000000000E+00 -0.16112754230E+04  0.16112759235E+04  0.12700000000E+01 0. -1.
    8880022    1    1    2    0    0 -0.39253956612E+02 -0.52339431880E+01 -0.10391918709E+04  0.10511325629E+04  0.15294330000E+03 0. -1.
    8880022    1    1    2    0    0  0.39253956612E+02  0.52339431880E+01 -0.55511515819E+03  0.57715921472E+03  0.15294330000E+03 0. -1.
<mgrwt>
<rscale>  0 0.15798709E+03</rscale>
<asrwt>0</asrwt>
<pdfrwt beam="1">  1        4 0.26142127E-02 0.15798709E+03</pdfrwt>
<pdfrwt beam="2">  1       -4 0.24789210E+00 0.15798709E+03</pdfrwt>
<totfact> 0.86766299E+01</totfact>
</mgrwt>
</event>
<event>
 4    1  0.8742165E-009  0.1973304E+03  0.7818608E-02  0.1152011E+00
         -4   -1    0    0    0  501 -0.00000000000E+00  0.00000000000E+00  0.21762529192E+03  0.21762899757E+03  0.12700000000E+01 0.  1.
          4   -1    0    0  501    0  0.00000000000E+00 -0.00000000000E+00 -0.18838372435E+03  0.18838800519E+03  0.12700000000E+01 0.  1.
    8880022    1    1    2    0    0  0.10555491754E+03  0.66376195592E+02 -0.30877886711E+02  0.19973166214E+03  0.15294330000E+03 0.  0.
    8880022    1    1    2    0    0 -0.10555491754E+03 -0.66376195592E+02  0.60119454280E+02  0.20628534062E+03  0.15294330000E+03 0.  0.
<mgrwt>
<rscale>  0 0.19733042E+03</rscale>
<asrwt>0</asrwt>
<pdfrwt beam="1">  1        4 0.28982726E-01 0.19733042E+03</pdfrwt>
<pdfrwt beam="2">  1       -4 0.33481428E-01 0.19733042E+03</pdfrwt>
<totfact> 0.17349774E+02</totfact>
</mgrwt>
</event>
<event>
 4    1  0.8742165E-009  0.1826636E+03  0.7818608E-02  0.1165250E+00
         -4   -1    0    0    0  501 -0.00000000000E+00  0.00000000000E+00  0.37124847328E+02  0.37146563625E+02  0.12700000000E+01 0.  1.
          4   -1    0    0  501    0  0.00000000000E+00 -0.00000000000E+00 -0.93540582613E+03  0.93540668827E+03  0.12700000000E+01 0.  1.
    8880022    1    1    2    0    0  0.75218127504E+02 -0.65700614525E+02 -0.54577355565E+03  0.57552998577E+03  0.15294330000E+03 0.  0.
    8880022    1    1    2    0    0 -0.75218127504E+02  0.65700614525E+02 -0.35250742315E+03  0.39702326612E+03  0.15294330000E+03 0.  0.
<mgrwt>
<rscale>  0 0.18266360E+03</rscale>
<asrwt>0</asrwt>
<pdfrwt beam="1">  1        4 0.14391031E+00 0.18266360E+03</pdfrwt>
<pdfrwt beam="2">  1       -4 0.57132525E-02 0.18266360E+03</pdfrwt>
<totfact> 0.11936487E+02</totfact>
</mgrwt>
</event>
<event>
 4    1  0.8742165E-009  0.1563296E+03  0.7818608E-02  0.1192904E+00
          4   -1    0    0  501    0  0.00000000000E+00  0.00000000000E+00  0.81129977661E+03  0.81130077063E+03  0.12700000000E+01 0.  1.
         -4   -1    0    0    0  501 -0.00000000000E+00 -0.00000000000E+00 -0.30460947964E+02  0.30487411351E+02  0.12700000000E+01 0.  1.
    8880022    1    1    2    0    0  0.27952537584E+01 -0.32241154115E+02  0.34518632016E+03  0.37893608182E+03  0.15294330000E+03 0.  0.
    8880022    1    1    2    0    0 -0.27952537584E+01  0.32241154115E+02  0.43565250848E+03  0.46285210016E+03  0.15294330000E+03 0.  0.
<mgrwt>
<rscale>  0 0.15632965E+03</rscale>
<asrwt>0</asrwt>
<pdfrwt beam="1">  1        4 0.12481744E+00 0.15632965E+03</pdfrwt>
<pdfrwt beam="2">  1       -4 0.46884126E-02 0.15632965E+03</pdfrwt>
<totfact> 0.22870220E+02</totfact>
</mgrwt>
</event>
<event>
 4    1  0.8742165E-009  0.1894440E+03  0.7818608E-02  0.1158964E+00
         -4   -1    0    0    0  501 -0.00000000000E+00  0.00000000000E+00  0.25639661588E+03  0.25639976118E+03  0.12700000000E+01 0. -1.
          4   -1    0    0  501    0  0.00000000000E+00 -0.00000000000E+00 -0.14773930795E+03  0.14774476645E+03  0.12700000000E+01 0. -1.
    8880022    1    1    2    0    0  0.36549261644E+02 -0.10564821492E+03  0.79842593294E+01  0.18961222338E+03  0.15294330000E+03 0.  0.
    8880022    1    1    2    0    0 -0.36549261644E+02  0.10564821492E+03  0.10067304860E+03  0.21453230426E+03  0.15294330000E+03 0.  0.
<mgrwt>
<rscale>  0 0.18944405E+03</rscale>
<asrwt>0</asrwt>
<pdfrwt beam="1">  1        4 0.22729786E-01 0.18944405E+03</pdfrwt>
<pdfrwt beam="2">  1       -4 0.39446295E-01 0.18944405E+03</pdfrwt>
<totfact> 0.19698176E+02</totfact>
</mgrwt>
</event>
<event>
 4    1  0.8742165E-009  0.4076107E+03  0.7818608E-02  0.1041176E+00
         -4   -1    0    0    0  501 -0.00000000000E+00  0.00000000000E+00  0.11614756784E+03  0.11615451095E+03  0.12700000000E+01 0.  1.
          4   -1    0    0  501    0  0.00000000000E+00 -0.00000000000E+00 -0.14702909871E+04  0.14702915356E+04  0.12700000000E+01 0.  1.
    8880022    1    1    2    0    0 -0.27351576952E+03  0.26066064956E+03 -0.80768251447E+03  0.90470854290E+03  0.15294330000E+03 0.  0.
    8880022    1    1    2    0    0  0.27351576952E+03 -0.26066064956E+03 -0.54646090484E+03  0.68173750369E+03  0.15294330000E+03 0.  0.
<mgrwt>
<rscale>  0 0.40761073E+03</rscale>
<asrwt>0</asrwt>
<pdfrwt beam="1">  1        4 0.22619918E+00 0.40761073E+03</pdfrwt>
<pdfrwt beam="2">  1       -4 0.17869434E-01 0.40761073E+03</pdfrwt>
<totfact> 0.50463842E+00</totfact>
</mgrwt>
</event>
<event>
 4    1  0.8742165E-009  0.2077040E+03  0.7818608E-02  0.1143397E+00
          4   -1    0    0  501    0  0.00000000000E+00  0.00000000000E+00  0.15259500720E+03  0.15260029201E+03  0.12700000000E+01 0.  1.
         -4   -1    0    0    0  501 -0.00000000000E+00 -0.00000000000E+00 -0.44031497272E+03  0.44031680425E+03  0.12700000000E+01 0.  1.
    8880022    1    1    2    0    0 -0.13490933511E+03 -0.39354325369E+02 -0.32122669827E+03  0.38252782424E+03  0.15294330000E+03 0.  0.
    8880022    1    1    2    0    0  0.13490933511E+03  0.39354325369E+02  0.33506732737E+02  0.21038927202E+03  0.15294330000E+03 0.  0.
<mgrwt>
<rscale>  0 0.20770398E+03</rscale>
<asrwt>0</asrwt>
<pdfrwt beam="1">  1        4 0.23476702E-01 0.20770398E+03</pdfrwt>
<pdfrwt beam="2">  1       -4 0.67741312E-01 0.20770398E+03</pdfrwt>
<totfact> 0.61480259E+01</totfact>
</mgrwt>
</event>
<event>
 4    1  0.8742165E-009  0.1661002E+03  0.7818608E-02  0.1181977E+00
         -4   -1    0    0    0  501 -0.00000000000E+00  0.00000000000E+00  0.22343083537E+03  0.22343444474E+03  0.12700000000E+01 0. -1.
          4   -1    0    0  501    0  0.00000000000E+00 -0.00000000000E+00 -0.14284361982E+03  0.14284926539E+03  0.12700000000E+01 0. -1.
    8880022    1    1    2    0    0 -0.52500800868E+02 -0.37964270005E+02 -0.27147129267E+02  0.16830400925E+03  0.15294330000E+03 0.  0.
    8880022    1    1    2    0    0  0.52500800868E+02  0.37964270005E+02  0.10773434482E+03  0.19797970087E+03  0.15294330000E+03 0.  0.
<mgrwt>
<rscale>  0 0.16610019E+03</rscale>
<asrwt>0</asrwt>
<pdfrwt beam="1">  1        4 0.21976653E-01 0.16610019E+03</pdfrwt>
<pdfrwt beam="2">  1       -4 0.34374687E-01 0.16610019E+03</pdfrwt>
<totfact> 0.26849533E+02</totfact>
</mgrwt>
</event>
<event>
 4    1  0.8742165E-009  0.2446984E+03  0.7818608E-02  0.1116702E+00
          4   -1    0    0  501    0  0.00000000000E+00  0.00000000000E+00  0.41161769133E+03  0.41161965055E+03  0.12700000000E+01 0.  1.
         -4   -1    0    0    0  501 -0.00000000000E+00 -0.00000000000E+00 -0.14784946443E+03  0.14785491886E+03  0.12700000000E+01 0.  1.
    8880022    1    1    2    0    0 -0.12453696383E+03  0.14483159417E+03  0.16742208741E+03  0.29649191287E+03  0.15294330000E+03 0.  0.
    8880022    1    1    2    0    0  0.12453696383E+03 -0.14483159417E+03  0.96346139491E+02  0.26298265654E+03  0.15294330000E+03 0.  0.
<mgrwt>
<rscale>  0 0.24469838E+03</rscale>
<asrwt>0</asrwt>
<pdfrwt beam="1">  1        4 0.63326368E-01 0.24469838E+03</pdfrwt>
<pdfrwt beam="2">  1       -4 0.22746642E-01 0.24469838E+03</pdfrwt>
<totfact> 0.76871254E+01</totfact>
</mgrwt>
</event>
<event>
 4    1  0.8742165E-009  0.3325709E+03  0.7818608E-02  0.1070005E+00
         -4   -1    0    0    0  501 -0.00000000000E+00  0.00000000000E+00  0.14519139462E+04  0.14519145017E+04  0.12700000000E+01 0.  1.
          4   -1    0    0  501    0  0.00000000000E+00 -0.00000000000E+00 -0.10959737602E+03  0.10960473407E+03  0.12700000000E+01 0.  1.
    8880022    1    1    2    0    0 -0.92033239909E+02 -0.28060936052E+03  0.23999878044E+03  0.41012534436E+03  0.15294330000E+03 0.  0.
    8880022    1    1    2    0    0  0.92033239909E+02  0.28060936052E+03  0.11023177898E+04  0.11513938914E+04  0.15294330000E+03 0.  0.
<mgrwt>
<rscale>  0 0.33257087E+03</rscale>
<asrwt>0</asrwt>
<pdfrwt beam="1">  1        4 0.16861744E-01 0.33257087E+03</pdfrwt>
<pdfrwt beam="2">  1       -4 0.22337198E+00 0.33257087E+03</pdfrwt>
<totfact> 0.57973003E+00</totfact>
</mgrwt>
</event>
<event>
 4    1  0.8742165E-009  0.5214596E+03  0.7818608E-02  0.1008325E+00
          4   -1    0    0  501    0  0.00000000000E+00  0.00000000000E+00  0.60752541834E+03  0.60752674577E+03  0.12700000000E+01 0. -1.
         -4   -1    0    0    0  501 -0.00000000000E+00 -0.00000000000E+00 -0.44969727341E+03  0.44969906673E+03  0.12700000000E+01 0. -1.
    8880022    1    1    2    0    0  0.37832906388E+03 -0.32464693092E+03  0.42674890855E+02  0.52320293353E+03  0.15294330000E+03 0.  0.
    8880022    1    1    2    0    0 -0.37832906388E+03  0.32464693092E+03  0.11515325407E+03  0.53402287897E+03  0.15294330000E+03 0.  0.
<mgrwt>
<rscale>  0 0.52145965E+03</rscale>
<asrwt>0</asrwt>
<pdfrwt beam="1">  1        4 0.93465688E-01 0.52145965E+03</pdfrwt>
<pdfrwt beam="2">  1       -4 0.69184437E-01 0.52145965E+03</pdfrwt>
<totfact> 0.36292447E+00</totfact>
</mgrwt>
</event>
<event>
 4    1  0.8742165E-009  0.2888806E+03  0.7818608E-02  0.1090935E+00
          4   -1    0    0  501    0  0.00000000000E+00  0.00000000000E+00  0.24852569008E+03  0.24852893499E+03  0.12700000000E+01 0.  1.
         -4   -1    0    0    0  501 -0.00000000000E+00 -0.00000000000E+00 -0.35681703970E+03  0.35681929982E+03  0.12700000000E+01 0.  1.
    8880022    1    1    2    0    0  0.29216191572E+02  0.24332437369E+03  0.19343855362E+02  0.28952750204E+03  0.15294330000E+03 0.  0.
    8880022    1    1    2    0    0 -0.29216191572E+02 -0.24332437369E+03 -0.12763520498E+03  0.31582073277E+03  0.15294330000E+03 0.  0.
<mgrwt>
<rscale>  0 0.28888058E+03</rscale>
<asrwt>0</asrwt>
<pdfrwt beam="1">  1        4 0.38235145E-01 0.28888058E+03</pdfrwt>
<pdfrwt beam="2">  1       -4 0.54895353E-01 0.28888058E+03</pdfrwt>
<totfact> 0.39262773E+01</totfact>
</mgrwt>
</event>
<event>
 4    1  0.8742165E-009  0.2112178E+03  0.7818608E-02  0.1140605E+00
          4   -1    0    0  501    0  0.00000000000E+00  0.00000000000E+00  0.35273802611E+03  0.35274031236E+03  0.12700000000E+01 0. -1.
         -4   -1    0    0    0  501 -0.00000000000E+00 -0.00000000000E+00 -0.12766286049E+03  0.12766917736E+03  0.12700000000E+01 0. -1.
    8880022    1    1    2    0    0  0.12325564113E+03 -0.77649022084E+02  0.89322726754E+02  0.22932842438E+03  0.15294330000E+03 0.  0.
    8880022    1    1    2    0    0 -0.12325564113E+03  0.77649022084E+02  0.13575243886E+03  0.25108106534E+03  0.15294330000E+03 0.  0.
<mgrwt>
<rscale>  0 0.21121784E+03</rscale>
<asrwt>0</asrwt>
<pdfrwt beam="1">  1        4 0.54268050E-01 0.21121784E+03</pdfrwt>
<pdfrwt beam="2">  1       -4 0.19641102E-01 0.21121784E+03</pdfrwt>
<totfact> 0.13673618E+02</totfact>
</mgrwt>
</event>
<event>
 4    1  0.8742165E-009  0.1812517E+03  0.7818608E-02  0.1166597E+00
          4   -1    0    0  501    0  0.00000000000E+00  0.00000000000E+00  0.60198582249E+02  0.60211977253E+02  0.12700000000E+01 0.  1.
         -4   -1    0    0    0  501 -0.00000000000E+00 -0.00000000000E+00 -0.66220343985E+03  0.66220465768E+03  0.12700000000E+01 0.  1.
    8880022    1    1    2    0    0  0.97264437285E+02 -0.39585159559E+00 -0.45253635605E+03  0.48748470132E+03  0.15294330000E+03 0.  0.
    8880022    1    1    2    0    0 -0.97264437285E+02  0.39585159559E+00 -0.14946850155E+03  0.23493193361E+03  0.15294330000E+03 0.  0.
<mgrwt>
<rscale>  0 0.18125170E+03</rscale>
<asrwt>0</asrwt>
<pdfrwt beam="1">  1        4 0.92624449E-02 0.18125170E+03</pdfrwt>
<pdfrwt beam="2">  1       -4 0.10187857E+00 0.18125170E+03</pdfrwt>
<totfact> 0.12400099E+02</totfact>
</mgrwt>
</event>
<event>
 4    1  0.8742165E-009  0.2338130E+03  0.7818608E-02  0.1123984E+00
         -4   -1    0    0    0  501 -0.00000000000E+00  0.00000000000E+00  0.35338453843E+03  0.35338682050E+03  0.12700000000E+01 0. -1.
          4   -1    0    0  501    0  0.00000000000E+00 -0.00000000000E+00 -0.15469795422E+03  0.15470316720E+03  0.12700000000E+01 0. -1.
    8880022    1    1    2    0    0  0.16889691030E+03  0.52447271531E+02  0.10055006074E+03  0.25451689596E+03  0.15294330000E+03 0.  0.
    8880022    1    1    2    0    0 -0.16889691030E+03 -0.52447271531E+02  0.98136523465E+02  0.25357309173E+03  0.15294330000E+03 0.  0.
<mgrwt>
<rscale>  0 0.23381304E+03</rscale>
<asrwt>0</asrwt>
<pdfrwt beam="1">  1        4 0.23800262E-01 0.23381304E+03</pdfrwt>
<pdfrwt beam="2">  1       -4 0.54367428E-01 0.23381304E+03</pdfrwt>
<totfact> 0.97098306E+01</totfact>
</mgrwt>
</event>
<event>
 4    1  0.8742165E-009  0.2552097E+03  0.7818608E-02  0.1110056E+00
         -4   -1    0    0    0  501 -0.00000000000E+00  0.00000000000E+00  0.10678734738E+03  0.10679489903E+03  0.12700000000E+01 0. -1.
          4   -1    0    0  501    0  0.00000000000E+00 -0.00000000000E+00 -0.11819975554E+04  0.11819982376E+04  0.12700000000E+01 0. -1.
    8880022    1    1    2    0    0 -0.10120796090E+03 -0.17747475601E+03 -0.98591797869E+03  0.10184135968E+04  0.15294330000E+03 0.  0.
    8880022    1    1    2    0    0  0.10120796090E+03  0.17747475601E+03 -0.89292229293E+02  0.27037953990E+03  0.15294330000E+03 0.  0.
<mgrwt>
<rscale>  0 0.25520970E+03</rscale>
<asrwt>0</asrwt>
<pdfrwt beam="1">  1        4 0.18184640E+00 0.25520970E+03</pdfrwt>
<pdfrwt beam="2">  1       -4 0.16429457E-01 0.25520970E+03</pdfrwt>
<totfact> 0.11011053E+01</totfact>
</mgrwt>
</event>
<event>
 4    1  0.8742165E-009  0.3033827E+03  0.7818608E-02  0.1083562E+00
          4   -1    0    0  501    0  0.00000000000E+00  0.00000000000E+00  0.86172843727E+03  0.86172937312E+03  0.12700000000E+01 0.  1.
         -4   -1    0    0    0  501 -0.00000000000E+00 -0.00000000000E+00 -0.11064011789E+03  0.11064740660E+03  0.12700000000E+01 0.  1.
    8880022    1    1    2    0    0 -0.26145265701E+03 -0.17085098824E+02  0.28502943136E+03  0.41627253358E+03  0.15294330000E+03 0.  0.
    8880022    1    1    2    0    0  0.26145265701E+03  0.17085098824E+02  0.46605888801E+03  0.55610424614E+03  0.15294330000E+03 0.  0.
<mgrwt>
<rscale>  0 0.30338267E+03</rscale>
<asrwt>0</asrwt>
<pdfrwt beam="1">  1        4 0.13257423E+00 0.30338267E+03</pdfrwt>
<pdfrwt beam="2">  1       -4 0.17022190E-01 0.30338267E+03</pdfrwt>
<totfact> 0.24111197E+01</totfact>
</mgrwt>
</event>
<event>
 4    1  0.8742165E-009  0.3770893E+03  0.7818608E-02  0.1052015E+00
          4   -1    0    0  501    0  0.00000000000E+00  0.00000000000E+00  0.20664512580E+03  0.20664902835E+03  0.12700000000E+01 0.  1.
         -4   -1    0    0    0  501 -0.00000000000E+00 -0.00000000000E+00 -0.72819436416E+03  0.72819547162E+03  0.12700000000E+01 0.  1.
    8880022    1    1    2    0    0  0.25278902380E+03 -0.23431260508E+03 -0.15110533248E+03  0.40623781455E+03  0.15294330000E+03 0.  0.
    8880022    1    1    2    0    0 -0.25278902380E+03  0.23431260508E+03 -0.37044390588E+03  0.52860668542E+03  0.15294330000E+03 0.  0.
<mgrwt>
<rscale>  0 0.37708930E+03</rscale>
<asrwt>0</asrwt>
<pdfrwt beam="1">  1        4 0.31791944E-01 0.37708930E+03</pdfrwt>
<pdfrwt beam="2">  1       -4 0.11203029E+00 0.37708930E+03</pdfrwt>
<totfact> 0.11572131E+01</totfact>
</mgrwt>
</event>
<event>
 4    1  0.8742165E-009  0.2617896E+03  0.7818608E-02  0.1106073E+00
         -4   -1    0    0    0  501 -0.00000000000E+00  0.00000000000E+00  0.92006313253E+03  0.92006400905E+03  0.12700000000E+01 0.  1.
          4   -1    0    0  501    0  0.00000000000E+00 -0.00000000000E+00 -0.99210101733E+02  0.99218230108E+02  0.12700000000E+01 0.  1.
    8880022    1    1    2    0    0 -0.21226183353E+03 -0.93298386352E+01  0.66485218818E+03  0.71453636507E+03  0.15294330000E+03 0.  0.
    8880022    1    1    2    0    0  0.21226183353E+03  0.93298386352E+01  0.15600084262E+03  0.30474587409E+03  0.15294330000E+03 0.  0.
<mgrwt>
<rscale>  0 0.26178958E+03</rscale>
<asrwt>0</asrwt>
<pdfrwt beam="1">  1        4 0.15263786E-01 0.26178958E+03</pdfrwt>
<pdfrwt beam="2">  1       -4 0.14154886E+00 0.26178958E+03</pdfrwt>
<totfact> 0.24504831E+01</totfact>
</mgrwt>
</event>
<event>
 4    1  0.8742165E-009  0.1665016E+03  0.7818608E-02  0.1181546E+00
         -4   -1    0    0    0  501 -0.00000000000E+00  0.00000000000E+00  0.16070303188E+04  0.16070308206E+04  0.12700000000E+01 0.  1.
          4   -1    0    0  501    0  0.00000000000E+00 -0.00000000000E+00 -0.30001255377E+02  0.30028123887E+02  0.12700000000E+01 0.  1.
    8880022    1    1    2    0    0  0.59982806833E+02 -0.27077739138E+02  0.13222933956E+04  0.13327350142E+04  0.15294330000E+03 0.  0.
    8880022    1    1    2    0    0 -0.59982806833E+02  0.27077739138E+02  0.25473566784E+03  0.30432393030E+03  0.15294330000E+03 0.  0.
<mgrwt>
<rscale>  0 0.16650163E+03</rscale>
<asrwt>0</asrwt>
<pdfrwt beam="1">  1        4 0.46176836E-02 0.16650163E+03</pdfrwt>
<pdfrwt beam="2">  1       -4 0.24723752E+00 0.16650163E+03</pdfrwt>
<totfact> 0.35750740E+01</totfact>
</mgrwt>
</event>
<event>
 4    1  0.8742165E-009  0.2797657E+03  0.7818608E-02  0.1095817E+00
          4   -1    0    0  501    0  0.00000000000E+00  0.00000000000E+00  0.66823498813E+03  0.66823619497E+03  0.12700000000E+01 0. -1.
         -4   -1    0    0    0  501 -0.00000000000E+00 -0.00000000000E+00 -0.11717381897E+03  0.11718070127E+03  0.12700000000E+01 0. -1.
    8880022    1    1    2    0    0 -0.23402474388E+03  0.10469573335E+02  0.28371090976E+03  0.39844789627E+03  0.15294330000E+03 0.  0.
    8880022    1    1    2    0    0  0.23402474388E+03 -0.10469573335E+02  0.26735025941E+03  0.38696899997E+03  0.15294330000E+03 0.  0.
<mgrwt>
<rscale>  0 0.27976570E+03</rscale>
<asrwt>0</asrwt>
<pdfrwt beam="1">  1        4 0.10280600E+00 0.27976570E+03</pdfrwt>
<pdfrwt beam="2">  1       -4 0.18027364E-01 0.27976570E+03</pdfrwt>
<totfact> 0.40110877E+01</totfact>
</mgrwt>
</event>
<event>
 4    1  0.8742165E-009  0.4003395E+03  0.7818608E-02  0.1043662E+00
         -4   -1    0    0    0  501 -0.00000000000E+00  0.00000000000E+00  0.50761437864E+03  0.50761596734E+03  0.12700000000E+01 0.  1.
          4   -1    0    0  501    0  0.00000000000E+00 -0.00000000000E+00 -0.31762860888E+03  0.31763114784E+03  0.12700000000E+01 0.  1.
    8880022    1    1    2    0    0 -0.32541506592E+03  0.17602576775E+03  0.63106357678E+02  0.40528274258E+03  0.15294330000E+03 0.  0.
    8880022    1    1    2    0    0  0.32541506592E+03 -0.17602576775E+03  0.12687941208E+03  0.41996437261E+03  0.15294330000E+03 0.  0.
<mgrwt>
<rscale>  0 0.40033947E+03</rscale>
<asrwt>0</asrwt>
<pdfrwt beam="1">  1        4 0.48866258E-01 0.40033947E+03</pdfrwt>
<pdfrwt beam="2">  1       -4 0.78094837E-01 0.40033947E+03</pdfrwt>
<totfact> 0.11392386E+01</totfact>
</mgrwt>
</event>
<event>
 4    1  0.8742165E-009  0.1785825E+03  0.7818608E-02  0.1169182E+00
          4   -1    0    0  501    0  0.00000000000E+00  0.00000000000E+00  0.98079240481E+02  0.98087462569E+02  0.12700000000E+01 0.  1.
         -4   -1    0    0    0  501 -0.00000000000E+00 -0.00000000000E+00 -0.34762995465E+03  0.34763227450E+03  0.12700000000E+01 0.  1.
    8880022    1    1    2    0    0  0.89415851510E+02 -0.22468837010E+02 -0.18146009355E+03  0.25459666476E+03  0.15294330000E+03 0.  1.
    8880022    1    1    2    0    0 -0.89415851510E+02  0.22468837010E+02 -0.68090620617E+02  0.19112307231E+03  0.15294330000E+03 0.  1.
<mgrwt>
<rscale>  0 0.17858246E+03</rscale>
<asrwt>0</asrwt>
<pdfrwt beam="1">  1        4 0.15089925E-01 0.17858246E+03</pdfrwt>
<pdfrwt beam="2">  1       -4 0.53482342E-01 0.17858246E+03</pdfrwt>
<totfact> 0.22000295E+02</totfact>
</mgrwt>
</event>
<event>
 4    1  0.8742165E-009  0.4154575E+03  0.7818608E-02  0.1038555E+00
         -4   -1    0    0    0  501 -0.00000000000E+00  0.00000000000E+00  0.44959017274E+03  0.44959196648E+03  0.12700000000E+01 0.  1.
          4   -1    0    0  501    0  0.00000000000E+00 -0.00000000000E+00 -0.67714607601E+03  0.67714726696E+03  0.12700000000E+01 0.  1.
    8880022    1    1    2    0    0 -0.34300064611E+03  0.17766218099E+03  0.25695221223E+03  0.48849706875E+03  0.15294330000E+03 0.  0.
    8880022    1    1    2    0    0  0.34300064611E+03 -0.17766218099E+03 -0.48450811550E+03  0.63824216469E+03  0.15294330000E+03 0.  0.
<mgrwt>
<rscale>  0 0.41545752E+03</rscale>
<asrwt>0</asrwt>
<pdfrwt beam="1">  1        4 0.10417655E+00 0.41545752E+03</pdfrwt>
<pdfrwt beam="2">  1       -4 0.69167949E-01 0.41545752E+03</pdfrwt>
<totfact> 0.27873112E+00</totfact>
</mgrwt>
</event>
<event>
 4    1  0.8742165E-009  0.1843436E+03  0.7818608E-02  0.1163664E+00
          4   -1    0    0  501    0  0.00000000000E+00  0.00000000000E+00  0.88061790702E+02  0.88070948000E+02  0.12700000000E+01 0.  1.
         -4   -1    0    0    0  501 -0.00000000000E+00 -0.00000000000E+00 -0.41896561705E+03  0.41896754191E+03  0.12700000000E+01 0.  1.
    8880022    1    1    2    0    0 -0.63637277367E+02 -0.80877615585E+02 -0.23671099214E+03  0.30002439666E+03  0.15294330000E+03 0.  0.
    8880022    1    1    2    0    0  0.63637277367E+02  0.80877615585E+02 -0.94192834207E+02  0.20701409325E+03  0.15294330000E+03 0.  0.
<mgrwt>
<rscale>  0 0.18434355E+03</rscale>
<asrwt>0</asrwt>
<pdfrwt beam="1">  1        4 0.13548821E-01 0.18434355E+03</pdfrwt>
<pdfrwt beam="2">  1       -4 0.64457100E-01 0.18434355E+03</pdfrwt>
<totfact> 0.18019999E+02</totfact>
</mgrwt>
</event>
<event>
 4    1  0.8742165E-009  0.1775652E+03  0.7818608E-02  0.1170180E+00
          4   -1    0    0  501    0  0.00000000000E+00  0.00000000000E+00  0.10869159847E+03  0.10869901783E+03  0.12700000000E+01 0.  1.
         -4   -1    0    0    0  501 -0.00000000000E+00 -0.00000000000E+00 -0.30035538633E+03  0.30035807130E+03  0.12700000000E+01 0.  1.
    8880022    1    1    2    0    0 -0.53245471754E+02  0.72819425968E+02 -0.57970622544E+02  0.18678863765E+03  0.15294330000E+03 0.  1.
    8880022    1    1    2    0    0  0.53245471754E+02 -0.72819425968E+02 -0.13369316532E+03  0.22226845149E+03  0.15294330000E+03 0.  1.
<mgrwt>
<rscale>  0 0.17756521E+03</rscale>
<asrwt>0</asrwt>
<pdfrwt beam="1">  1        4 0.16722562E-01 0.17756521E+03</pdfrwt>
<pdfrwt beam="2">  1       -4 0.46209298E-01 0.17756521E+03</pdfrwt>
<totfact> 0.24727709E+02</totfact>
</mgrwt>
</event>
<event>
 4    1  0.8742165E-009  0.2648296E+03  0.7818608E-02  0.1104276E+00
         -4   -1    0    0    0  501 -0.00000000000E+00  0.00000000000E+00  0.12816318916E+04  0.12816325208E+04  0.12700000000E+01 0.  1.
          4   -1    0    0  501    0  0.00000000000E+00 -0.00000000000E+00 -0.60746920742E+02  0.60760194862E+02  0.12700000000E+01 0.  1.
    8880022    1    1    2    0    0 -0.43259051328E+02  0.21182948897E+03  0.82191974669E+03  0.86353158653E+03  0.15294330000E+03 0.  0.
    8880022    1    1    2    0    0  0.43259051328E+02 -0.21182948897E+03  0.39896522417E+03  0.47886112918E+03  0.15294330000E+03 0.  0.
<mgrwt>
<rscale>  0 0.26482963E+03</rscale>
<asrwt>0</asrwt>
<pdfrwt beam="1">  1        4 0.93467497E-02 0.26482963E+03</pdfrwt>
<pdfrwt beam="2">  1       -4 0.19717520E+00 0.26482963E+03</pdfrwt>
<totfact> 0.23377905E+01</totfact>
</mgrwt>
</event>
<event>
 4    1  0.8742165E-009  0.2940794E+03  0.7818608E-02  0.1088238E+00
         -4   -1    0    0    0  501 -0.00000000000E+00  0.00000000000E+00  0.33096143022E+03  0.33096386690E+03  0.12700000000E+01 0. -1.
          4   -1    0    0  501    0  0.00000000000E+00 -0.00000000000E+00 -0.27954648391E+03  0.27954936874E+03  0.12700000000E+01 0. -1.
    8880022    1    1    2    0    0  0.19639101988E+03 -0.15659369098E+03  0.10368944897E+03  0.31182394326E+03  0.15294330000E+03 0.  0.
    8880022    1    1    2    0    0 -0.19639101988E+03  0.15659369098E+03 -0.52274502657E+02  0.29868929239E+03  0.15294330000E+03 0.  0.
<mgrwt>
<rscale>  0 0.29407936E+03</rscale>
<asrwt>0</asrwt>
<pdfrwt beam="1">  1        4 0.43007561E-01 0.29407936E+03</pdfrwt>
<pdfrwt beam="2">  1       -4 0.50917552E-01 0.29407936E+03</pdfrwt>
<totfact> 0.36361449E+01</totfact>
</mgrwt>
</event>
<event>
 4    1  0.8742165E-009  0.2143499E+03  0.7818608E-02  0.1138167E+00
          4   -1    0    0  501    0  0.00000000000E+00  0.00000000000E+00  0.13088526022E+03  0.13089142158E+03  0.12700000000E+01 0. -1.
         -4   -1    0    0    0  501 -0.00000000000E+00 -0.00000000000E+00 -0.60895243290E+03  0.60895375722E+03  0.12700000000E+01 0. -1.
    8880022    1    1    2    0    0  0.14580352929E+03 -0.35993772053E+02 -0.47978350004E+03  0.52548842109E+03  0.15294330000E+03 0.  0.
    8880022    1    1    2    0    0 -0.14580352929E+03  0.35993772053E+02  0.17163273610E+01  0.21435675771E+03  0.15294330000E+03 0.  0.
<mgrwt>
<rscale>  0 0.21434989E+03</rscale>
<asrwt>0</asrwt>
<pdfrwt beam="1">  1        4 0.20136770E-01 0.21434989E+03</pdfrwt>
<pdfrwt beam="2">  1       -4 0.93685564E-01 0.21434989E+03</pdfrwt>
<totfact> 0.39654087E+01</totfact>
</mgrwt>
</event>
<event>
 4    1  0.8742165E-009  0.2242992E+03  0.7818608E-02  0.1130718E+00
         -4   -1    0    0    0  501 -0.00000000000E+00  0.00000000000E+00  0.15049936052E+03  0.15050471892E+03  0.12700000000E+01 0. -1.
          4   -1    0    0  501    0  0.00000000000E+00 -0.00000000000E+00 -0.34648083083E+03  0.34648315837E+03  0.12700000000E+01 0. -1.
    8880022    1    1    2    0    0 -0.40199354943E+02  0.15906758989E+03 -0.51352153727E+02  0.23010254888E+03  0.15294330000E+03 0.  0.
    8880022    1    1    2    0    0  0.40199354943E+02 -0.15906758989E+03 -0.14462931658E+03  0.26688532841E+03  0.15294330000E+03 0.  0.
<mgrwt>
<rscale>  0 0.22429922E+03</rscale>
<asrwt>0</asrwt>
<pdfrwt beam="1">  1        4 0.53305334E-01 0.22429922E+03</pdfrwt>
<pdfrwt beam="2">  1       -4 0.23154339E-01 0.22429922E+03</pdfrwt>
<totfact> 0.10588625E+02</totfact>
</mgrwt>
</event>
<event>
 4    1  0.8742165E-009  0.4290296E+03  0.7818608E-02  0.1034167E+00
         -4   -1    0    0    0  501 -0.00000000000E+00  0.00000000000E+00  0.12092233437E+03  0.12092900334E+03  0.12700000000E+01 0.  1.
          4   -1    0    0  501    0  0.00000000000E+00 -0.00000000000E+00 -0.18584879200E+04  0.18584883539E+04  0.12700000000E+01 0.  1.
    8880022    1    1    2    0    0 -0.83635131154E+02 -0.39202025965E+03 -0.12898219173E+04  0.13593038478E+04  0.15294330000E+03 0.  0.
    8880022    1    1    2    0    0  0.83635131154E+02  0.39202025965E+03 -0.44774366831E+03  0.62011350950E+03  0.15294330000E+03 0.  0.
<mgrwt>
<rscale>  0 0.42902957E+03</rscale>
<asrwt>0</asrwt>
<pdfrwt beam="1">  1        4 0.28592174E+00 0.42902957E+03</pdfrwt>
<pdfrwt beam="2">  1       -4 0.18603984E-01 0.42902957E+03</pdfrwt>
<totfact> 0.20474389E+00</totfact>
</mgrwt>
</event>
<event>
 4    1  0.8742165E-009  0.2975189E+03  0.7818608E-02  0.1086488E+00
         -4   -1    0    0    0  501 -0.00000000000E+00  0.00000000000E+00  0.36015312018E+03  0.36015535936E+03  0.12700000000E+01 0. -1.
          4   -1    0    0  501    0  0.00000000000E+00 -0.00000000000E+00 -0.24577275789E+03  0.24577603915E+03  0.12700000000E+01 0. -1.
    8880022    1    1    2    0    0 -0.15400879159E+03  0.20348740420E+03  0.57308648734E+02  0.30298806213E+03  0.15294330000E+03 0.  0.
    8880022    1    1    2    0    0  0.15400879159E+03 -0.20348740420E+03  0.57071713553E+02  0.30294333639E+03  0.15294330000E+03 0.  0.
<mgrwt>
<rscale>  0 0.29751888E+03</rscale>
<asrwt>0</asrwt>
<pdfrwt beam="1">  1        4 0.37811618E-01 0.29751888E+03</pdfrwt>
<pdfrwt beam="2">  1       -4 0.55408597E-01 0.29751888E+03</pdfrwt>
<totfact> 0.39472226E+01</totfact>
</mgrwt>
</event>
<event>
 4    1  0.8742165E-009  0.2957665E+03  0.7818608E-02  0.1087376E+00
         -4   -1    0    0    0  501 -0.00000000000E+00  0.00000000000E+00  0.15719720386E+03  0.15720233396E+03  0.12700000000E+01 0. -1.
          4   -1    0    0  501    0  0.00000000000E+00 -0.00000000000E+00 -0.55715435668E+03  0.55715580412E+03  0.12700000000E+01 0. -1.
    8880022    1    1    2    0    0  0.47311629331E+01 -0.25310830379E+03 -0.21249811115E+03  0.36418854678E+03  0.15294330000E+03 0.  0.
    8880022    1    1    2    0    0 -0.47311629331E+01  0.25310830379E+03 -0.18745904168E+03  0.35016959130E+03  0.15294330000E+03 0.  0.
<mgrwt>
<rscale>  0 0.29576655E+03</rscale>
<asrwt>0</asrwt>
<pdfrwt beam="1">  1        4 0.85716560E-01 0.29576655E+03</pdfrwt>
<pdfrwt beam="2">  1       -4 0.24184692E-01 0.29576655E+03</pdfrwt>
<totfact> 0.35853472E+01</totfact>
</mgrwt>
</event>
<event>
 4    1  0.8742165E-009  0.1799436E+03  0.7818608E-02  0.1167858E+00
         -4   -1    0    0    0  501 -0.00000000000E+00  0.00000000000E+00  0.15194527011E+03  0.15195057752E+03  0.12700000000E+01 0.  1.
          4   -1    0    0  501    0  0.00000000000E+00 -0.00000000000E+00 -0.22684725667E+03  0.22685081168E+03  0.12700000000E+01 0.  1.
    8880022    1    1    2    0    0  0.79248650502E+02  0.52035455278E+02 -0.84092305574E+02  0.19862327679E+03  0.15294330000E+03 0. -1.
    8880022    1    1    2    0    0 -0.79248650502E+02 -0.52035455278E+02  0.91903190108E+01  0.18017811241E+03  0.15294330000E+03 0. -1.
<mgrwt>
<rscale>  0 0.17994358E+03</rscale>
<asrwt>0</asrwt>
<pdfrwt beam="1">  1        4 0.34900260E-01 0.17994358E+03</pdfrwt>
<pdfrwt beam="2">  1       -4 0.23376877E-01 0.17994358E+03</pdfrwt>
<totfact> 0.23583755E+02</totfact>
</mgrwt>
</event>
<event>
 4    1  0.8742165E-009  0.2774332E+03  0.7818608E-02  0.1097099E+00
          4   -1    0    0  501    0  0.00000000000E+00  0.00000000000E+00  0.72609018999E+02  0.72620124897E+02  0.12700000000E+01 0.  1.
         -4   -1    0    0    0  501 -0.00000000000E+00 -0.00000000000E+00 -0.12649986093E+04  0.12649992468E+04  0.12700000000E+01 0.  1.
    8880022    1    1    2    0    0 -0.11614475374E+02 -0.23117661695E+03 -0.86545751116E+03  0.90883765377E+03  0.15294330000E+03 0.  0.
    8880022    1    1    2    0    0  0.11614475374E+02  0.23117661695E+03 -0.32693207916E+03  0.42878171797E+03  0.15294330000E+03 0.  0.
<mgrwt>
<rscale>  0 0.27743319E+03</rscale>
<asrwt>0</asrwt>
<pdfrwt beam="1">  1        4 0.11171523E-01 0.27743319E+03</pdfrwt>
<pdfrwt beam="2">  1       -4 0.19461606E+00 0.27743319E+03</pdfrwt>
<totfact> 0.17956987E+01</totfact>
</mgrwt>
</event>
<event>
 4    1  0.8742165E-009  0.1554545E+03  0.7818608E-02  0.1193926E+00
         -4   -1    0    0    0  501 -0.00000000000E+00  0.00000000000E+00  0.35093007160E+03  0.35093236963E+03  0.12700000000E+01 0. -1.
          4   -1    0    0  501    0  0.00000000000E+00 -0.00000000000E+00 -0.93984694560E+02  0.93993274821E+02  0.12700000000E+01 0. -1.
    8880022    1    1    2    0    0  0.26836582803E+02  0.73642858927E+01  0.24349901348E+03  0.28889073620E+03  0.15294330000E+03 0.  1.
    8880022    1    1    2    0    0 -0.26836582803E+02 -0.73642858927E+01  0.13446363558E+02  0.15603490825E+03  0.15294330000E+03 0.  1.
<mgrwt>
<rscale>  0 0.15545446E+03</rscale>
<asrwt>0</asrwt>
<pdfrwt beam="1">  1        4 0.14460021E-01 0.15545446E+03</pdfrwt>
<pdfrwt beam="2">  1       -4 0.53990079E-01 0.15545446E+03</pdfrwt>
<totfact> 0.22729242E+02</totfact>
</mgrwt>
</event>
<event>
 4    1  0.8742165E-009  0.1674564E+03  0.7818608E-02  0.1180527E+00
          4   -1    0    0  501    0  0.00000000000E+00  0.00000000000E+00  0.42598813877E+03  0.42599003189E+03  0.12700000000E+01 0. -1.
         -4   -1    0    0    0  501 -0.00000000000E+00 -0.00000000000E+00 -0.78205606204E+02  0.78215917445E+02  0.12700000000E+01 0. -1.
    8880022    1    1    2    0    0 -0.56501482956E+01 -0.67956250950E+02  0.27421346991E+03  0.32130150376E+03  0.15294330000E+03 0.  0.
    8880022    1    1    2    0    0  0.56501482956E+01  0.67956250950E+02  0.73569062648E+02  0.18290444558E+03  0.15294330000E+03 0.  0.
<mgrwt>
<rscale>  0 0.16745635E+03</rscale>
<asrwt>0</asrwt>
<pdfrwt beam="1">  1        4 0.65537577E-01 0.16745635E+03</pdfrwt>
<pdfrwt beam="2">  1       -4 0.12032570E-01 0.16745635E+03</pdfrwt>
<totfact> 0.21032870E+02</totfact>
</mgrwt>
</event>
<event>
 4    1  0.8742165E-009  0.2885561E+03  0.7818608E-02  0.1091105E+00
          4   -1    0    0  501    0  0.00000000000E+00  0.00000000000E+00  0.59391955436E+03  0.59392091220E+03  0.12700000000E+01 0.  1.
         -4   -1    0    0    0  501 -0.00000000000E+00 -0.00000000000E+00 -0.16187032777E+03  0.16187530976E+03  0.12700000000E+01 0.  1.
    8880022    1    1    2    0    0  0.20169689658E+03  0.13853272545E+03  0.77729128596E+02  0.29884180523E+03  0.15294330000E+03 0.  0.
    8880022    1    1    2    0    0 -0.20169689658E+03 -0.13853272545E+03  0.35432009800E+03  0.45695441673E+03  0.15294330000E+03 0.  0.
<mgrwt>
<rscale>  0 0.28855607E+03</rscale>
<asrwt>0</asrwt>
<pdfrwt beam="1">  1        4 0.91372726E-01 0.28855607E+03</pdfrwt>
<pdfrwt beam="2">  1       -4 0.24903615E-01 0.28855607E+03</pdfrwt>
<totfact> 0.29255429E+01</totfact>
</mgrwt>
</event>
<event>
 4    1  0.8742165E-009  0.1737664E+03  0.7818608E-02  0.1173976E+00
         -4   -1    0    0    0  501 -0.00000000000E+00  0.00000000000E+00  0.35137538064E+03  0.35137767576E+03  0.12700000000E+01 0.  1.
          4   -1    0    0  501    0  0.00000000000E+00 -0.00000000000E+00 -0.16254648129E+03  0.16255144256E+03  0.12700000000E+01 0.  1.
    8880022    1    1    2    0    0  0.82244972697E+02  0.62354859075E+01 -0.82004306782E+02  0.19214441487E+03  0.15294330000E+03 0.  0.
    8880022    1    1    2    0    0 -0.82244972697E+02 -0.62354859075E+01  0.27083320613E+03  0.32178470345E+03  0.15294330000E+03 0.  0.
<mgrwt>
<rscale>  0 0.17376642E+03</rscale>
<asrwt>0</asrwt>
<pdfrwt beam="1">  1        4 0.25007709E-01 0.17376642E+03</pdfrwt>
<pdfrwt beam="2">  1       -4 0.54058309E-01 0.17376642E+03</pdfrwt>
<totfact> 0.86150514E+01</totfact>
</mgrwt>
</event>
<event>
 4    1  0.8742165E-009  0.2279215E+03  0.7818608E-02  0.1128111E+00
         -4   -1    0    0    0  501 -0.00000000000E+00  0.00000000000E+00  0.38443092922E+02  0.38464064962E+02  0.12700000000E+01 0. -1.
          4   -1    0    0  501    0  0.00000000000E+00 -0.00000000000E+00 -0.15804951821E+04  0.15804956923E+04  0.12700000000E+01 0. -1.
    8880022    1    1    2    0    0  0.11497679297E+03  0.12384222116E+03 -0.10795413626E+04  0.11033393699E+04  0.15294330000E+03 0.  0.
    8880022    1    1    2    0    0 -0.11497679297E+03 -0.12384222116E+03 -0.46251072656E+03  0.51562038736E+03  0.15294330000E+03 0.  0.
<mgrwt>
<rscale>  0 0.22792150E+03</rscale>
<asrwt>0</asrwt>
<pdfrwt beam="1">  1        4 0.24315471E+00 0.22792150E+03</pdfrwt>
<pdfrwt beam="2">  1       -4 0.59159757E-02 0.22792150E+03</pdfrwt>
<totfact> 0.25941014E+01</totfact>
</mgrwt>
</event>
<event>
 4    1  0.8742165E-009  0.2010111E+03  0.7818608E-02  0.1148889E+00
         -4   -1    0    0    0  501 -0.00000000000E+00  0.00000000000E+00  0.26012773811E+03  0.26013083830E+03  0.12700000000E+01 0.  1.
          4   -1    0    0  501    0  0.00000000000E+00 -0.00000000000E+00 -0.16756810980E+03  0.16757292240E+03  0.12700000000E+01 0.  1.
    8880022    1    1    2    0    0 -0.12606320106E+03  0.33494447693E+02  0.10408859156E+03  0.22636231267E+03  0.15294330000E+03 0.  0.
    8880022    1    1    2    0    0  0.12606320106E+03 -0.33494447693E+02 -0.11528963252E+02  0.20134144803E+03  0.15294330000E+03 0.  0.
<mgrwt>
<rscale>  0 0.20101110E+03</rscale>
<asrwt>0</asrwt>
<pdfrwt beam="1">  1        4 0.25780318E-01 0.20101110E+03</pdfrwt>
<pdfrwt beam="2">  1       -4 0.40020260E-01 0.20101110E+03</pdfrwt>
<totfact> 0.15291294E+02</totfact>
</mgrwt>
</event>
<event>
 4    1  0.8742165E-009  0.5022675E+03  0.7818608E-02  0.1013189E+00
          4   -1    0    0  501    0  0.00000000000E+00  0.00000000000E+00  0.21551614750E+03  0.21551988941E+03  0.12700000000E+01 0. -1.
         -4   -1    0    0    0  501 -0.00000000000E+00 -0.00000000000E+00 -0.11817085091E+04  0.11817091916E+04  0.12700000000E+01 0. -1.
    8880022    1    1    2    0    0  0.21988343840E+03  0.42489082382E+03 -0.55102388074E+03  0.74558695590E+03  0.15294330000E+03 0.  0.
    8880022    1    1    2    0    0 -0.21988343840E+03 -0.42489082382E+03 -0.41516848090E+03  0.65164212510E+03  0.15294330000E+03 0.  0.
<mgrwt>
<rscale>  0 0.50226745E+03</rscale>
<asrwt>0</asrwt>
<pdfrwt beam="1">  1        4 0.33156671E-01 0.50226745E+03</pdfrwt>
<pdfrwt beam="2">  1       -4 0.18180165E+00 0.50226745E+03</pdfrwt>
<totfact> 0.30535501E+00</totfact>
</mgrwt>
</event>
<event>
 4    1  0.8742165E-009  0.1644741E+03  0.7818608E-02  0.1183736E+00
          4   -1    0    0  501    0  0.00000000000E+00  0.00000000000E+00  0.33149987408E+02  0.33174305798E+02  0.12700000000E+01 0.  1.
         -4   -1    0    0    0  501 -0.00000000000E+00 -0.00000000000E+00 -0.81771023137E+03  0.81771121760E+03  0.12700000000E+01 0.  1.
    8880022    1    1    2    0    0 -0.80300073642E+01 -0.59963251558E+02 -0.37127174749E+03  0.40607195921E+03  0.15294330000E+03 0.  0.
    8880022    1    1    2    0    0  0.80300073642E+01  0.59963251558E+02 -0.41328849647E+03  0.44481356419E+03  0.15294330000E+03 0.  0.
<mgrwt>
<rscale>  0 0.16447409E+03</rscale>
<asrwt>0</asrwt>
<pdfrwt beam="1">  1        4 0.51019452E-02 0.16447409E+03</pdfrwt>
<pdfrwt beam="2">  1       -4 0.12580350E+00 0.16447409E+03</pdfrwt>
<totfact> 0.19738037E+02</totfact>
</mgrwt>
</event>
<event>
 4    1  0.8742165E-009  0.1557140E+03  0.7818608E-02  0.1193622E+00
         -4   -1    0    0    0  501 -0.00000000000E+00  0.00000000000E+00  0.25364010874E+03  0.25364328823E+03  0.12700000000E+01 0. -1.
          4   -1    0    0  501    0  0.00000000000E+00 -0.00000000000E+00 -0.14189942676E+03  0.14190510990E+03  0.12700000000E+01 0. -1.
    8880022    1    1    2    0    0 -0.17329139271E+01  0.29192461133E+02 -0.57111853021E+02  0.16585722640E+03  0.15294330000E+03 0. -1.
    8880022    1    1    2    0    0  0.17329139271E+01 -0.29192461133E+02  0.16885253500E+03  0.22969117173E+03  0.15294330000E+03 0. -1.
<mgrwt>
<rscale>  0 0.15571402E+03</rscale>
<asrwt>0</asrwt>
<pdfrwt beam="1">  1        4 0.21831363E-01 0.15571402E+03</pdfrwt>
<pdfrwt beam="2">  1       -4 0.39022236E-01 0.15571402E+03</pdfrwt>
<totfact> 0.20997696E+02</totfact>
</mgrwt>
</event>
<event>
 4    1  0.8742165E-009  0.1687353E+03  0.7818608E-02  0.1179173E+00
         -4   -1    0    0    0  501 -0.00000000000E+00  0.00000000000E+00  0.65463395132E+02  0.65475713071E+02  0.12700000000E+01 0. -1.
          4   -1    0    0  501    0  0.00000000000E+00 -0.00000000000E+00 -0.43489285338E+03  0.43489470774E+03  0.12700000000E+01 0. -1.
    8880022    1    1    2    0    0 -0.12245793493E+02  0.70213911114E+02 -0.18653217130E+03  0.25152704967E+03  0.15294330000E+03 0. -1.
    8880022    1    1    2    0    0  0.12245793493E+02 -0.70213911114E+02 -0.18289728695E+03  0.24884337114E+03  0.15294330000E+03 0. -1.
<mgrwt>
<rscale>  0 0.16873531E+03</rscale>
<asrwt>0</asrwt>
<pdfrwt beam="1">  1        4 0.66907681E-01 0.16873531E+03</pdfrwt>
<pdfrwt beam="2">  1       -4 0.10072382E-01 0.16873531E+03</pdfrwt>
<totfact> 0.27281691E+02</totfact>
</mgrwt>
</event>
<event>
 4    1  0.8742165E-009  0.2504992E+03  0.7818608E-02  0.1112990E+00
         -4   -1    0    0    0  501 -0.00000000000E+00  0.00000000000E+00  0.38383723082E+03  0.38383933184E+03  0.12700000000E+01 0. -1.
          4   -1    0    0  501    0  0.00000000000E+00 -0.00000000000E+00 -0.16454552955E+03  0.16455043055E+03  0.12700000000E+01 0. -1.
    8880022    1    1    2    0    0 -0.83831991243E+02  0.17980654830E+03  0.87533476981E+02  0.26535252058E+03  0.15294330000E+03 0.  0.
    8880022    1    1    2    0    0  0.83831991243E+02 -0.17980654830E+03  0.13175822429E+03  0.28303724181E+03  0.15294330000E+03 0.  0.
<mgrwt>
<rscale>  0 0.25049920E+03</rscale>
<asrwt>0</asrwt>
<pdfrwt beam="1">  1        4 0.25315236E-01 0.25049920E+03</pdfrwt>
<pdfrwt beam="2">  1       -4 0.59052419E-01 0.25049920E+03</pdfrwt>
<totfact> 0.73330516E+01</totfact>
</mgrwt>
</event>
<event>
 4    1  0.8742165E-009  0.4437096E+03  0.7818608E-02  0.1029615E+00
          4   -1    0    0  501    0  0.00000000000E+00  0.00000000000E+00  0.16866900532E+04  0.16866905313E+04  0.12700000000E+01 0. -1.
         -4   -1    0    0    0  501 -0.00000000000E+00 -0.00000000000E+00 -0.22070412767E+03  0.22070778162E+03  0.12700000000E+01 0. -1.
    8880022    1    1    2    0    0  0.18413243201E+03  0.37360646598E+03  0.13876030632E+04  0.14568186085E+04  0.15294330000E+03 0.  0.
    8880022    1    1    2    0    0 -0.18413243201E+03 -0.37360646598E+03  0.78382862283E+02  0.45057970444E+03  0.15294330000E+03 0.  0.
<mgrwt>
<rscale>  0 0.44370959E+03</rscale>
<asrwt>0</asrwt>
<pdfrwt beam="1">  1        4 0.25949108E+00 0.44370959E+03</pdfrwt>
<pdfrwt beam="2">  1       -4 0.33954801E-01 0.44370959E+03</pdfrwt>
<totfact> 0.94533048E-01</totfact>
</mgrwt>
</event>
<event>
 4    1  0.8742165E-009  0.2869897E+03  0.7818608E-02  0.1091931E+00
         -4   -1    0    0    0  501 -0.00000000000E+00  0.00000000000E+00  0.63424702487E+03  0.63424829638E+03  0.12700000000E+01 0.  1.
          4   -1    0    0  501    0  0.00000000000E+00 -0.00000000000E+00 -0.13295940003E+03  0.13296546528E+03  0.12700000000E+01 0.  1.
    8880022    1    1    2    0    0 -0.58665008900E+02  0.23564774923E+03  0.19203088140E+03  0.34530994398E+03  0.15294330000E+03 0.  0.
    8880022    1    1    2    0    0  0.58665008900E+02 -0.23564774923E+03  0.30925674344E+03  0.42190381767E+03  0.15294330000E+03 0.  0.
<mgrwt>
<rscale>  0 0.28698972E+03</rscale>
<asrwt>0</asrwt>
<pdfrwt beam="1">  1        4 0.20455857E-01 0.28698972E+03</pdfrwt>
<pdfrwt beam="2">  1       -4 0.97577030E-01 0.28698972E+03</pdfrwt>
<totfact> 0.36136610E+01</totfact>
</mgrwt>
</event>
<event>
 4    1  0.8742165E-009  0.1557305E+03  0.7818608E-02  0.1193603E+00
          4   -1    0    0  501    0  0.00000000000E+00  0.00000000000E+00  0.64451659404E+02  0.64464170668E+02  0.12700000000E+01 0.  1.
         -4   -1    0    0    0  501 -0.00000000000E+00 -0.00000000000E+00 -0.54583949545E+03  0.54584097290E+03  0.12700000000E+01 0.  1.
    8880022    1    1    2    0    0  0.29331047457E+02  0.15843691640E+00 -0.41079290378E+03  0.43932083749E+03  0.15294330000E+03 0.  0.
    8880022    1    1    2    0    0 -0.29331047457E+02 -0.15843691640E+00 -0.70594932275E+02  0.17098430608E+03  0.15294330000E+03 0.  0.
<mgrwt>
<rscale>  0 0.15573050E+03</rscale>
<asrwt>0</asrwt>
<pdfrwt beam="1">  1        4 0.99167163E-02 0.15573050E+03</pdfrwt>
<pdfrwt beam="2">  1       -4 0.83976380E-01 0.15573050E+03</pdfrwt>
<totfact> 0.16795815E+02</totfact>
</mgrwt>
</event>
<event>
 4    1  0.8742165E-009  0.1748823E+03  0.7818608E-02  0.1172850E+00
         -4   -1    0    0    0  501 -0.00000000000E+00  0.00000000000E+00  0.70648688109E+02  0.70660102119E+02  0.12700000000E+01 0. -1.
          4   -1    0    0  501    0  0.00000000000E+00 -0.00000000000E+00 -0.43328316452E+03  0.43328502577E+03  0.12700000000E+01 0. -1.
    8880022    1    1    2    0    0  0.45872860136E+02  0.71329196268E+02 -0.18925810772E+03  0.25768674372E+03  0.15294330000E+03 0.  0.
    8880022    1    1    2    0    0 -0.45872860136E+02 -0.71329196268E+02 -0.17337636869E+03  0.24625838417E+03  0.15294330000E+03 0.  0.
<mgrwt>
<rscale>  0 0.17488232E+03</rscale>
<asrwt>0</asrwt>
<pdfrwt beam="1">  1        4 0.66659968E-01 0.17488232E+03</pdfrwt>
<pdfrwt beam="2">  1       -4 0.10870050E-01 0.17488232E+03</pdfrwt>
<totfact> 0.24300311E+02</totfact>
</mgrwt>
</event>
<event>
 4    1  0.8742165E-009  0.2201177E+03  0.7818608E-02  0.1133795E+00
          4   -1    0    0  501    0  0.00000000000E+00  0.00000000000E+00  0.10157247519E+03  0.10158041453E+03  0.12700000000E+01 0.  1.
         -4   -1    0    0    0  501 -0.00000000000E+00 -0.00000000000E+00 -0.58591535360E+03  0.58591672999E+03  0.12700000000E+01 0.  1.
    8880022    1    1    2    0    0 -0.69770120105E+02 -0.14209955329E+03 -0.39038404053E+03  0.44816459568E+03  0.15294330000E+03 0.  0.
    8880022    1    1    2    0    0  0.69770120105E+02  0.14209955329E+03 -0.93958837890E+02  0.23933254885E+03  0.15294330000E+03 0.  0.
<mgrwt>
<rscale>  0 0.22011771E+03</rscale>
<asrwt>0</asrwt>
<pdfrwt beam="1">  1        4 0.15627252E-01 0.22011771E+03</pdfrwt>
<pdfrwt beam="2">  1       -4 0.90141538E-01 0.22011771E+03</pdfrwt>
<totfact> 0.68463762E+01</totfact>
</mgrwt>
</event>
<event>
 4    1  0.8742165E-009  0.1775251E+03  0.7818608E-02  0.1170220E+00
          4   -1    0    0  501    0  0.00000000000E+00  0.00000000000E+00  0.88725911612E+02  0.88735000374E+02  0.12700000000E+01 0.  1.
         -4   -1    0    0    0  501 -0.00000000000E+00 -0.00000000000E+00 -0.35585209793E+03  0.35585436417E+03  0.12700000000E+01 0.  1.
    8880022    1    1    2    0    0 -0.83618417449E+02 -0.33637158541E+02 -0.14330750496E+03  0.22814949521E+03  0.15294330000E+03 0.  0.
    8880022    1    1    2    0    0  0.83618417449E+02  0.33637158541E+02 -0.12381868136E+03  0.21643986934E+03  0.15294330000E+03 0.  0.
<mgrwt>
<rscale>  0 0.17752507E+03</rscale>
<asrwt>0</asrwt>
<pdfrwt beam="1">  1        4 0.13651014E-01 0.17752507E+03</pdfrwt>
<pdfrwt beam="2">  1       -4 0.54747349E-01 0.17752507E+03</pdfrwt>
<totfact> 0.24948658E+02</totfact>
</mgrwt>
</event>
<event>
 4    1  0.8742165E-009  0.1763621E+03  0.7818608E-02  0.1171371E+00
          4   -1    0    0  501    0  0.00000000000E+00  0.00000000000E+00  0.60097020824E+03  0.60097155015E+03  0.12700000000E+01 0. -1.
         -4   -1    0    0    0  501 -0.00000000000E+00 -0.00000000000E+00 -0.55047041355E+02  0.55061689603E+02  0.12700000000E+01 0. -1.
    8880022    1    1    2    0    0  0.83113010258E+02  0.28357695012E+02  0.19265311403E+03  0.26118730195E+03  0.15294330000E+03 0.  0.
    8880022    1    1    2    0    0 -0.83113010258E+02 -0.28357695012E+02  0.35327005285E+03  0.39484593780E+03  0.15294330000E+03 0.  0.
<mgrwt>
<rscale>  0 0.17636208E+03</rscale>
<asrwt>0</asrwt>
<pdfrwt beam="1">  1        4 0.92458185E-01 0.17636208E+03</pdfrwt>
<pdfrwt beam="2">  1       -4 0.84700056E-02 0.17636208E+03</pdfrwt>
<totfact> 0.17957760E+02</totfact>
</mgrwt>
</event>
<event>
 4    1  0.8742165E-009  0.2258132E+03  0.7818608E-02  0.1129622E+00
         -4   -1    0    0    0  501 -0.00000000000E+00  0.00000000000E+00  0.50257549101E+03  0.50257709565E+03  0.12700000000E+01 0.  1.
          4   -1    0    0  501    0  0.00000000000E+00 -0.00000000000E+00 -0.12749999688E+03  0.12750632182E+03  0.12700000000E+01 0.  1.
    8880022    1    1    2    0    0 -0.15603075989E+03 -0.57047024039E+02  0.32992180219E+03  0.39979996193E+03  0.15294330000E+03 0.  0.
    8880022    1    1    2    0    0  0.15603075989E+03  0.57047024039E+02  0.45153691939E+02  0.23028345554E+03  0.15294330000E+03 0.  0.
<mgrwt>
<rscale>  0 0.22581323E+03</rscale>
<asrwt>0</asrwt>
<pdfrwt beam="1">  1        4 0.19615994E-01 0.22581323E+03</pdfrwt>
<pdfrwt beam="2">  1       -4 0.77319916E-01 0.22581323E+03</pdfrwt>
<totfact> 0.64576762E+01</totfact>
</mgrwt>
</event>
<event>
 4    1  0.8742165E-009  0.2111308E+03  0.7818608E-02  0.1140674E+00
         -4   -1    0    0    0  501 -0.00000000000E+00  0.00000000000E+00  0.84439148582E+03  0.84439244089E+03  0.12700000000E+01 0. -1.
          4   -1    0    0  501    0  0.00000000000E+00 -0.00000000000E+00 -0.58822546231E+02  0.58836254512E+02  0.12700000000E+01 0. -1.
    8880022    1    1    2    0    0  0.71031855761E+02 -0.12703955061E+03  0.53748340006E+03  0.57746396451E+03  0.15294330000E+03 0.  0.
    8880022    1    1    2    0    0 -0.71031855761E+02  0.12703955061E+03  0.24808553954E+03  0.32576473090E+03  0.15294330000E+03 0.  0.
<mgrwt>
<rscale>  0 0.21113082E+03</rscale>
<asrwt>0</asrwt>
<pdfrwt beam="1">  1        4 0.90507511E-02 0.21113082E+03</pdfrwt>
<pdfrwt beam="2">  1       -4 0.12990750E+00 0.21113082E+03</pdfrwt>
<totfact> 0.73333561E+01</totfact>
</mgrwt>
</event>
<event>
 4    1  0.8742165E-009  0.3901347E+03  0.7818608E-02  0.1047250E+00
         -4   -1    0    0    0  501 -0.00000000000E+00  0.00000000000E+00  0.24921540841E+04  0.24921544077E+04  0.12700000000E+01 0. -1.
          4   -1    0    0  501    0  0.00000000000E+00 -0.00000000000E+00 -0.68513219266E+02  0.68524988976E+02  0.12700000000E+01 0. -1.
    8880022    1    1    2    0    0  0.25215238629E+03  0.25540670242E+03  0.78976243287E+03  0.88086875466E+03  0.15294330000E+03 0.  0.
    8880022    1    1    2    0    0 -0.25215238629E+03 -0.25540670242E+03  0.16338784319E+04  0.16798106420E+04  0.15294330000E+03 0.  0.
<mgrwt>
<rscale>  0 0.39013467E+03</rscale>
<asrwt>0</asrwt>
<pdfrwt beam="1">  1        4 0.10541425E-01 0.39013467E+03</pdfrwt>
<pdfrwt beam="2">  1       -4 0.38340929E+00 0.39013467E+03</pdfrwt>
<totfact> 0.13843681E+00</totfact>
</mgrwt>
</event>
<event>
 4    1  0.8742165E-009  0.1885910E+03  0.7818608E-02  0.1159738E+00
         -4   -1    0    0    0  501 -0.00000000000E+00  0.00000000000E+00  0.17194244485E+04  0.17194249176E+04  0.12700000000E+01 0.  1.
          4   -1    0    0  501    0  0.00000000000E+00 -0.00000000000E+00 -0.21057086037E+02  0.21095349543E+02  0.12700000000E+01 0.  1.
    8880022    1    1    2    0    0  0.33938797006E+02  0.10499074430E+03  0.96779774886E+03  0.98600153856E+03  0.15294330000E+03 0.  0.
    8880022    1    1    2    0    0 -0.33938797006E+02 -0.10499074430E+03  0.73056961363E+03  0.75451872854E+03  0.15294330000E+03 0.  0.
<mgrwt>
<rscale>  0 0.18859096E+03</rscale>
<asrwt>0</asrwt>
<pdfrwt beam="1">  1        4 0.32425303E-02 0.18859096E+03</pdfrwt>
<pdfrwt beam="2">  1       -4 0.26452989E+00 0.18859096E+03</pdfrwt>
<totfact> 0.50400419E+01</totfact>
</mgrwt>
</event>
<event>
 4    1  0.8742165E-009  0.1554264E+03  0.7818608E-02  0.1193959E+00
          4   -1    0    0  501    0  0.00000000000E+00  0.00000000000E+00  0.34546974822E+02  0.34570310519E+02  0.12700000000E+01 0.  1.
         -4   -1    0    0    0  501 -0.00000000000E+00 -0.00000000000E+00 -0.74901341579E+03  0.74901449247E+03  0.12700000000E+01 0.  1.
    8880022    1    1    2    0    0 -0.19577322657E+02  0.19555710448E+02 -0.25599528890E+03  0.29948445423E+03  0.15294330000E+03 0.  1.
    8880022    1    1    2    0    0  0.19577322657E+02 -0.19555710448E+02 -0.45847115207E+03  0.48410034876E+03  0.15294330000E+03 0.  1.
<mgrwt>
<rscale>  0 0.15542635E+03</rscale>
<asrwt>0</asrwt>
<pdfrwt beam="1">  1        4 0.53167976E-02 0.15542635E+03</pdfrwt>
<pdfrwt beam="2">  1       -4 0.11523470E+00 0.15542635E+03</pdfrwt>
<totfact> 0.22618553E+02</totfact>
</mgrwt>
</event>
<event>
 4    1  0.8742165E-009  0.3014268E+03  0.7818608E-02  0.1084530E+00
         -4   -1    0    0    0  501 -0.00000000000E+00  0.00000000000E+00  0.22497944185E+03  0.22498302637E+03  0.12700000000E+01 0.  1.
          4   -1    0    0  501    0  0.00000000000E+00 -0.00000000000E+00 -0.48689642487E+03  0.48689808118E+03  0.12700000000E+01 0.  1.
    8880022    1    1    2    0    0  0.16488710386E+03  0.20069555001E+03 -0.27796470757E+03  0.41002742894E+03  0.15294330000E+03 0.  0.
    8880022    1    1    2    0    0 -0.16488710386E+03 -0.20069555001E+03  0.16047724547E+02  0.30185367861E+03  0.15294330000E+03 0.  0.
<mgrwt>
<rscale>  0 0.30142680E+03</rscale>
<asrwt>0</asrwt>
<pdfrwt beam="1">  1        4 0.74907545E-01 0.30142680E+03</pdfrwt>
<pdfrwt beam="2">  1       -4 0.34612625E-01 0.30142680E+03</pdfrwt>
<totfact> 0.24514430E+01</totfact>
</mgrwt>
</event>
<event>
 4    1  0.8742165E-009  0.1719436E+03  0.7818608E-02  0.1175836E+00
          4   -1    0    0  501    0  0.00000000000E+00  0.00000000000E+00  0.24005716827E+03  0.24006052765E+03  0.12700000000E+01 0.  1.
         -4   -1    0    0    0  501 -0.00000000000E+00 -0.00000000000E+00 -0.19103713101E+03  0.19104135239E+03  0.12700000000E+01 0.  1.
    8880022    1    1    2    0    0 -0.69024879984E+02  0.37530380658E+02 -0.10398248394E+03  0.20094022373E+03  0.15294330000E+03 0. -1.
    8880022    1    1    2    0    0  0.69024879984E+02 -0.37530380658E+02  0.15300252121E+03  0.23016165632E+03  0.15294330000E+03 0. -1.
<mgrwt>
<rscale>  0 0.17194364E+03</rscale>
<asrwt>0</asrwt>
<pdfrwt beam="1">  1        4 0.36932455E-01 0.17194364E+03</pdfrwt>
<pdfrwt beam="2">  1       -4 0.29390911E-01 0.17194364E+03</pdfrwt>
<totfact> 0.13678266E+02</totfact>
</mgrwt>
</event>
<event>
 4    1  0.8742165E-009  0.2321534E+03  0.7818608E-02  0.1125133E+00
          4   -1    0    0  501    0  0.00000000000E+00  0.00000000000E+00  0.35951496109E+03  0.35951720425E+03  0.12700000000E+01 0. -1.
         -4   -1    0    0    0  501 -0.00000000000E+00 -0.00000000000E+00 -0.10567380857E+04  0.10567388488E+04  0.12700000000E+01 0.  1.
    8880022    1    1    2    0    0  0.13834486580E+03  0.10660323892E+03  0.30736840091E+03  0.38518896575E+03  0.15294330000E+03 0. -1.
    8880022    1    1    2    0    0 -0.13834486580E+03 -0.10660323892E+03 -0.10045915255E+04  0.10310670873E+04  0.15294330000E+03 0.  0.
<mgrwt>
<rscale>  0 0.23215341E+03</rscale>
<asrwt>0</asrwt>
<pdfrwt beam="1">  1        4 0.55310226E-01 0.23215341E+03</pdfrwt>
<pdfrwt beam="2">  1       -4 0.16257532E+00 0.23215341E+03</pdfrwt>
<totfact> 0.14431769E+00</totfact>
</mgrwt>
</event>
<event>
 4    1  0.8742165E-009  0.3523750E+03  0.7818608E-02  0.1061644E+00
          4   -1    0    0  501    0  0.00000000000E+00  0.00000000000E+00  0.19836561669E+03  0.19836968212E+03  0.12700000000E+01 0.  1.
         -4   -1    0    0    0  501 -0.00000000000E+00 -0.00000000000E+00 -0.64837395081E+03  0.64837519462E+03  0.12700000000E+01 0.  1.
    8880022    1    1    2    0    0 -0.23897666216E+03 -0.20896570183E+03 -0.30374735278E+03  0.46522104094E+03  0.15294330000E+03 0.  0.
    8880022    1    1    2    0    0  0.23897666216E+03  0.20896570183E+03 -0.14626098135E+03  0.38152383579E+03  0.15294330000E+03 0.  0.
<mgrwt>
<rscale>  0 0.35237503E+03</rscale>
<asrwt>0</asrwt>
<pdfrwt beam="1">  1        4 0.30518196E-01 0.35237503E+03</pdfrwt>
<pdfrwt beam="2">  1       -4 0.99750246E-01 0.35237503E+03</pdfrwt>
<totfact> 0.16467310E+01</totfact>
</mgrwt>
</event>
<event>
 4    1  0.8742165E-009  0.3711822E+03  0.7818608E-02  0.1054242E+00
         -4   -1    0    0    0  501 -0.00000000000E+00  0.00000000000E+00  0.11314494414E+03  0.11315207150E+03  0.12700000000E+01 0. -1.
          4   -1    0    0  501    0  0.00000000000E+00 -0.00000000000E+00 -0.12266637312E+04  0.12266643886E+04  0.12700000000E+01 0. -1.
    8880022    1    1    2    0    0  0.15657740158E+03 -0.29978004381E+03 -0.61418230170E+03  0.71763229449E+03  0.15294330000E+03 0.  0.
    8880022    1    1    2    0    0 -0.15657740158E+03  0.29978004381E+03 -0.49933648536E+03  0.62218416565E+03  0.15294330000E+03 0.  0.
<mgrwt>
<rscale>  0 0.37118218E+03</rscale>
<asrwt>0</asrwt>
<pdfrwt beam="1">  1        4 0.18871809E+00 0.37118218E+03</pdfrwt>
<pdfrwt beam="2">  1       -4 0.17407514E-01 0.37118218E+03</pdfrwt>
<totfact> 0.91246342E+00</totfact>
</mgrwt>
</event>
<event>
 4    1  0.8742165E-009  0.1777807E+03  0.7818608E-02  0.1169968E+00
         -4   -1    0    0    0  501 -0.00000000000E+00  0.00000000000E+00  0.33873567828E+03  0.33873805904E+03  0.12700000000E+01 0.  1.
          4   -1    0    0  501    0  0.00000000000E+00 -0.00000000000E+00 -0.43974560642E+03  0.43974744032E+03  0.12700000000E+01 0.  1.
    8880022    1    1    2    0    0  0.90630109349E+02  0.70606449919E+00  0.29498415978E+03  0.34441489919E+03  0.15294330000E+03 0.  0.
    8880022    1    1    2    0    0 -0.90630109349E+02 -0.70606449919E+00 -0.39599408792E+03  0.43407060017E+03  0.15294330000E+03 0.  0.
<mgrwt>
<rscale>  0 0.17778067E+03</rscale>
<asrwt>0</asrwt>
<pdfrwt beam="1">  1        4 0.67653494E-01 0.17778067E+03</pdfrwt>
<pdfrwt beam="2">  1       -4 0.52113505E-01 0.17778067E+03</pdfrwt>
<totfact> 0.12820966E+01</totfact>
</mgrwt>
</event>
<event>
 4    1  0.8742165E-009  0.1781236E+03  0.7818608E-02  0.1169631E+00
         -4   -1    0    0    0  501 -0.00000000000E+00  0.00000000000E+00  0.74933106727E+02  0.74943868220E+02  0.12700000000E+01 0. -1.
          4   -1    0    0  501    0  0.00000000000E+00 -0.00000000000E+00 -0.71173722946E+03  0.71173836254E+03  0.12700000000E+01 0. -1.
    8880022    1    1    2    0    0 -0.83968471205E+02 -0.35856069743E+02 -0.68036614312E+02  0.19067510534E+03  0.15294330000E+03 0.  0.
    8880022    1    1    2    0    0  0.83968471205E+02  0.35856069743E+02 -0.56876750843E+03  0.59600712542E+03  0.15294330000E+03 0.  0.
<mgrwt>
<rscale>  0 0.17812359E+03</rscale>
<asrwt>0</asrwt>
<pdfrwt beam="1">  1        4 0.10949895E+00 0.17812359E+03</pdfrwt>
<pdfrwt beam="2">  1       -4 0.11529086E-01 0.17812359E+03</pdfrwt>
<totfact> 0.71940605E+01</totfact>
</mgrwt>
</event>
<event>
 4    1  0.8742165E-009  0.1588794E+03  0.7818608E-02  0.1189968E+00
          4   -1    0    0  501    0  0.00000000000E+00  0.00000000000E+00  0.56261591840E+03  0.56261735179E+03  0.12700000000E+01 0. -1.
         -4   -1    0    0    0  501 -0.00000000000E+00 -0.00000000000E+00 -0.12940513737E+03  0.12941136920E+03  0.12700000000E+01 0. -1.
    8880022    1    1    2    0    0 -0.13045631310E+02 -0.40997759584E+02  0.49627801172E+03  0.52108974536E+03  0.15294330000E+03 0. -1.
    8880022    1    1    2    0    0  0.13045631310E+02  0.40997759584E+02 -0.63067230696E+02  0.17093897563E+03  0.15294330000E+03 0. -1.
<mgrwt>
<rscale>  0 0.15887938E+03</rscale>
<asrwt>0</asrwt>
<pdfrwt beam="1">  1        4 0.86556886E-01 0.15887938E+03</pdfrwt>
<pdfrwt beam="2">  1       -4 0.19909072E-01 0.15887938E+03</pdfrwt>
<totfact> 0.46734549E+01</totfact>
</mgrwt>
</event>
<event>
 4    1  0.8742165E-009  0.1840632E+03  0.7818608E-02  0.1163928E+00
          4   -1    0    0  501    0  0.00000000000E+00  0.00000000000E+00  0.61437037071E+03  0.61437168335E+03  0.12700000000E+01 0.  1.
         -4   -1    0    0    0  501 -0.00000000000E+00 -0.00000000000E+00 -0.55449482989E+02  0.55464024951E+02  0.12700000000E+01 0.  1.
    8880022    1    1    2    0    0  0.10166487571E+03  0.12323731716E+02  0.30463825619E+03  0.35592659562E+03  0.15294330000E+03 0.  0.
    8880022    1    1    2    0    0 -0.10166487571E+03 -0.12323731716E+02  0.25428263152E+03  0.31390911268E+03  0.15294330000E+03 0.  0.
<mgrwt>
<rscale>  0 0.18406323E+03</rscale>
<asrwt>0</asrwt>
<pdfrwt beam="1">  1        4 0.94519742E-01 0.18406323E+03</pdfrwt>
<pdfrwt beam="2">  1       -4 0.85319090E-02 0.18406323E+03</pdfrwt>
<totfact> 0.16976095E+02</totfact>
</mgrwt>
</event>
<event>
 4    1  0.8742165E-009  0.3283361E+03  0.7818608E-02  0.1071875E+00
         -4   -1    0    0    0  501 -0.00000000000E+00  0.00000000000E+00  0.33425413834E+03  0.33425655102E+03  0.12700000000E+01 0. -1.
          4   -1    0    0  501    0  0.00000000000E+00 -0.00000000000E+00 -0.34472257514E+03  0.34472491455E+03  0.12700000000E+01 0. -1.
    8880022    1    1    2    0    0 -0.23836295731E+03  0.16612060143E+03 -0.91395222607E+02  0.34081915053E+03  0.15294330000E+03 0.  0.
    8880022    1    1    2    0    0  0.23836295731E+03 -0.16612060143E+03  0.80926785801E+02  0.33816231504E+03  0.15294330000E+03 0.  0.
<mgrwt>
<rscale>  0 0.32833612E+03</rscale>
<asrwt>0</asrwt>
<pdfrwt beam="1">  1        4 0.53034608E-01 0.32833612E+03</pdfrwt>
<pdfrwt beam="2">  1       -4 0.51424079E-01 0.32833612E+03</pdfrwt>
<totfact> 0.23382316E+01</totfact>
</mgrwt>
</event>
<event>
 4    1  0.8742165E-009  0.2243280E+03  0.7818608E-02  0.1130697E+00
         -4   -1    0    0    0  501 -0.00000000000E+00  0.00000000000E+00  0.11176132778E+04  0.11176139994E+04  0.12700000000E+01 0. -1.
          4   -1    0    0  501    0  0.00000000000E+00 -0.00000000000E+00 -0.68549962373E+02  0.68561725776E+02  0.12700000000E+01 0. -1.
    8880022    1    1    2    0    0  0.32233641439E+02 -0.16091113745E+03  0.87198722311E+03  0.90038034856E+03  0.15294330000E+03 0.  0.
    8880022    1    1    2    0    0 -0.32233641439E+02  0.16091113745E+03  0.17707609231E+03  0.28579537659E+03  0.15294330000E+03 0.  0.
<mgrwt>
<rscale>  0 0.22432801E+03</rscale>
<asrwt>0</asrwt>
<pdfrwt beam="1">  1        4 0.10547107E-01 0.22432801E+03</pdfrwt>
<pdfrwt beam="2">  1       -4 0.17194149E+00 0.22432801E+03</pdfrwt>
<totfact> 0.27566824E+01</totfact>
</mgrwt>
</event>
<event>
 4    1  0.8742165E-009  0.1668321E+03  0.7818608E-02  0.1181192E+00
         -4   -1    0    0    0  501 -0.00000000000E+00  0.00000000000E+00  0.91293710307E+03  0.91293798642E+03  0.12700000000E+01 0.  1.
          4   -1    0    0  501    0  0.00000000000E+00 -0.00000000000E+00 -0.30631307237E+02  0.30657623571E+02  0.12700000000E+01 0.  1.
    8880022    1    1    2    0    0 -0.66368288119E+02 -0.60466366776E+01  0.47503917258E+03  0.50348304836E+03  0.15294330000E+03 0.  0.
    8880022    1    1    2    0    0  0.66368288119E+02  0.60466366776E+01  0.40726662324E+03  0.44011256163E+03  0.15294330000E+03 0.  0.
<mgrwt>
<rscale>  0 0.16683214E+03</rscale>
<asrwt>0</asrwt>
<pdfrwt beam="1">  1        4 0.47146005E-02 0.16683214E+03</pdfrwt>
<pdfrwt beam="2">  1       -4 0.14045397E+00 0.16683214E+03</pdfrwt>
<totfact> 0.17102756E+02</totfact>
</mgrwt>
</event>
<event>
 4    1  0.8742165E-009  0.1619640E+03  0.7818608E-02  0.1186497E+00
          4   -1    0    0  501    0  0.00000000000E+00  0.00000000000E+00  0.40234801392E+03  0.40235001828E+03  0.12700000000E+01 0. -1.
         -4   -1    0    0    0  501 -0.00000000000E+00 -0.00000000000E+00 -0.82282816877E+02  0.82292617246E+02  0.12700000000E+01 0. -1.
    8880022    1    1    2    0    0 -0.33098915942E+02 -0.41774975538E+02  0.27046895916E+03  0.31525513113E+03  0.15294330000E+03 0.  1.
    8880022    1    1    2    0    0  0.33098915942E+02  0.41774975538E+02  0.49596237883E+02  0.16938750439E+03  0.15294330000E+03 0.  1.
<mgrwt>
<rscale>  0 0.16196401E+03</rscale>
<asrwt>0</asrwt>
<pdfrwt beam="1">  1        4 0.61900602E-01 0.16196401E+03</pdfrwt>
<pdfrwt beam="2">  1       -4 0.12659803E-01 0.16196401E+03</pdfrwt>
<totfact> 0.21648479E+02</totfact>
</mgrwt>
</event>
<event>
 4    1  0.8742165E-009  0.2339567E+03  0.7818608E-02  0.1123885E+00
         -4   -1    0    0    0  501 -0.00000000000E+00  0.00000000000E+00  0.55525081348E+03  0.55525226589E+03  0.12700000000E+01 0.  1.
          4   -1    0    0  501    0  0.00000000000E+00 -0.00000000000E+00 -0.25574823919E+03  0.25575139247E+03  0.12700000000E+01 0.  1.
    8880022    1    1    2    0    0  0.29272724476E+02  0.17460577780E+03 -0.16813582518E+03  0.28810654065E+03  0.15294330000E+03 0.  0.
    8880022    1    1    2    0    0 -0.29272724476E+02 -0.17460577780E+03  0.46763839947E+03  0.52289711771E+03  0.15294330000E+03 0.  0.
<mgrwt>
<rscale>  0 0.23395667E+03</rscale>
<asrwt>0</asrwt>
<pdfrwt beam="1">  1        4 0.39346237E-01 0.23395667E+03</pdfrwt>
<pdfrwt beam="2">  1       -4 0.85423556E-01 0.23395667E+03</pdfrwt>
<totfact> 0.13875888E+01</totfact>
</mgrwt>
</event>
<event>
 4    1  0.8742165E-009  0.1532790E+03  0.7818608E-02  0.1196501E+00
         -4   -1    0    0    0  501 -0.00000000000E+00  0.00000000000E+00  0.12000216146E+03  0.12000888156E+03  0.12700000000E+01 0.  1.
          4   -1    0    0  501    0  0.00000000000E+00 -0.00000000000E+00 -0.20526602714E+03  0.20526995591E+03  0.12700000000E+01 0.  1.
    8880022    1    1    2    0    0 -0.95521744852E+01 -0.33994228510E+01 -0.76501127404E+01  0.15346979297E+03  0.15294330000E+03 0.  0.
    8880022    1    1    2    0    0  0.95521744852E+01  0.33994228510E+01 -0.77613752941E+02  0.17180904450E+03  0.15294330000E+03 0.  0.
<mgrwt>
<rscale>  0 0.15327900E+03</rscale>
<asrwt>0</asrwt>
<pdfrwt beam="1">  1        4 0.31580208E-01 0.15327900E+03</pdfrwt>
<pdfrwt beam="2">  1       -4 0.18462690E-01 0.15327900E+03</pdfrwt>
<totfact> 0.42683175E+02</totfact>
</mgrwt>
</event>
<event>
 4    1  0.8742165E-009  0.2607669E+03  0.7818608E-02  0.1106683E+00
         -4   -1    0    0    0  501 -0.00000000000E+00  0.00000000000E+00  0.42985421434E+02  0.43004178354E+02  0.12700000000E+01 0.  1.
          4   -1    0    0  501    0  0.00000000000E+00 -0.00000000000E+00 -0.19625054049E+04  0.19625058159E+04  0.12700000000E+01 0.  1.
    8880022    1    1    2    0    0  0.51881300541E+02 -0.20473415145E+03 -0.51796342843E+03  0.57990129188E+03  0.15294330000E+03 0.  0.
    8880022    1    1    2    0    0 -0.51881300541E+02  0.20473415145E+03 -0.14015565551E+04  0.14256087023E+04  0.15294330000E+03 0.  0.
<mgrwt>
<rscale>  0 0.26076694E+03</rscale>
<asrwt>0</asrwt>
<pdfrwt beam="1">  1        4 0.30192531E+00 0.26076694E+03</pdfrwt>
<pdfrwt beam="2">  1       -4 0.66146177E-02 0.26076694E+03</pdfrwt>
<totfact> 0.97922786E+00</totfact>
</mgrwt>
</event>
<event>
 4    1  0.8742165E-009  0.2887426E+03  0.7818608E-02  0.1091007E+00
         -4   -1    0    0    0  501 -0.00000000000E+00  0.00000000000E+00  0.26976869360E+03  0.26977168300E+03  0.12700000000E+01 0. -1.
          4   -1    0    0  501    0  0.00000000000E+00 -0.00000000000E+00 -0.61914181339E+03  0.61914311592E+03  0.12700000000E+01 0. -1.
    8880022    1    1    2    0    0  0.23138525812E+03  0.80258863603E+02 -0.48923100338E+03  0.56808384112E+03  0.15294330000E+03 0.  0.
    8880022    1    1    2    0    0 -0.23138525812E+03 -0.80258863603E+02  0.13985788359E+03  0.32083095779E+03  0.15294330000E+03 0.  0.
<mgrwt>
<rscale>  0 0.28874258E+03</rscale>
<asrwt>0</asrwt>
<pdfrwt beam="1">  1        4 0.95252916E-01 0.28874258E+03</pdfrwt>
<pdfrwt beam="2">  1       -4 0.41503206E-01 0.28874258E+03</pdfrwt>
<totfact> 0.98782093E+00</totfact>
</mgrwt>
</event>
<event>
 4    1  0.8742165E-009  0.2068105E+03  0.7818608E-02  0.1144117E+00
         -4   -1    0    0    0  501 -0.00000000000E+00  0.00000000000E+00  0.80315077003E+03  0.80315177414E+03  0.12700000000E+01 0.  1.
          4   -1    0    0  501    0  0.00000000000E+00 -0.00000000000E+00 -0.53608107949E+02  0.53623149272E+02  0.12700000000E+01 0.  1.
    8880022    1    1    2    0    0 -0.11294833757E+03 -0.81373324522E+02  0.33951530663E+03  0.39754401185E+03  0.15294330000E+03 0.  1.
    8880022    1    1    2    0    0  0.11294833757E+03  0.81373324522E+02  0.41002735545E+03  0.45923091156E+03  0.15294330000E+03 0.  1.
<mgrwt>
<rscale>  0 0.20681054E+03</rscale>
<asrwt>0</asrwt>
<pdfrwt beam="1">  1        4 0.82486354E-02 0.20681054E+03</pdfrwt>
<pdfrwt beam="2">  1       -4 0.12356289E+00 0.20681054E+03</pdfrwt>
<totfact> 0.96714897E+01</totfact>
</mgrwt>
</event>
<event>
 4    1  0.8742165E-009  0.1780893E+03  0.7818608E-02  0.1169665E+00
          4   -1    0    0  501    0  0.00000000000E+00  0.00000000000E+00  0.55857333170E+03  0.55857477547E+03  0.12700000000E+01 0.  1.
         -4   -1    0    0    0  501 -0.00000000000E+00 -0.00000000000E+00 -0.55659526456E+03  0.55659671346E+03  0.12700000000E+01 0.  1.
    8880022    1    1    2    0    0  0.84194824068E+02  0.35148173737E+02  0.52936952820E+03  0.55852297439E+03  0.15294330000E+03 0.  0.
    8880022    1    1    2    0    0 -0.84194824068E+02 -0.35148173737E+02 -0.52739146106E+03  0.55664851453E+03  0.15294330000E+03 0.  0.
<mgrwt>
<rscale>  0 0.17808935E+03</rscale>
<asrwt>0</asrwt>
<pdfrwt beam="1">  1        4 0.85934581E-01 0.17808935E+03</pdfrwt>
<pdfrwt beam="2">  1       -4 0.85630263E-01 0.17808935E+03</pdfrwt>
<totfact> 0.25968668E+00</totfact>
</mgrwt>
</event>
<event>
 4    1  0.8742165E-009  0.2217336E+03  0.7818608E-02  0.1132597E+00
          4   -1    0    0  501    0  0.00000000000E+00  0.00000000000E+00  0.30241962362E+03  0.30242229027E+03  0.12700000000E+01 0. -1.
         -4   -1    0    0    0  501 -0.00000000000E+00 -0.00000000000E+00 -0.18951279330E+03  0.18951704864E+03  0.12700000000E+01 0. -1.
    8880022    1    1    2    0    0 -0.15570365482E+03  0.39121694929E+02 -0.36290284398E+02  0.22468371747E+03  0.15294330000E+03 0.  0.
    8880022    1    1    2    0    0  0.15570365482E+03 -0.39121694929E+02  0.14919711472E+03  0.26725562144E+03  0.15294330000E+03 0.  0.
<mgrwt>
<rscale>  0 0.22173360E+03</rscale>
<asrwt>0</asrwt>
<pdfrwt beam="1">  1        4 0.46526628E-01 0.22173360E+03</pdfrwt>
<pdfrwt beam="2">  1       -4 0.29156347E-01 0.22173360E+03</pdfrwt>
<totfact> 0.90798490E+01</totfact>
</mgrwt>
</event>
<event>
 4    1  0.8742165E-009  0.1665662E+03  0.7818608E-02  0.1181477E+00
         -4   -1    0    0    0  501 -0.00000000000E+00  0.00000000000E+00  0.11838535864E+04  0.11838542676E+04  0.12700000000E+01 0. -1.
          4   -1    0    0  501    0  0.00000000000E+00 -0.00000000000E+00 -0.51434393444E+02  0.51450070252E+02  0.12700000000E+01 0. -1.
    8880022    1    1    2    0    0  0.10734272976E+02 -0.65095355392E+02  0.11046953531E+03  0.19986946029E+03  0.15294330000E+03 0.  0.
    8880022    1    1    2    0    0 -0.10734272976E+02  0.65095355392E+02  0.10219496577E+04  0.10354348776E+04  0.15294330000E+03 0.  0.
<mgrwt>
<rscale>  0 0.16656615E+03</rscale>
<asrwt>0</asrwt>
<pdfrwt beam="1">  1        4 0.79142425E-02 0.16656615E+03</pdfrwt>
<pdfrwt beam="2">  1       -4 0.18213257E+00 0.16656615E+03</pdfrwt>
<totfact> 0.37065212E+01</totfact>
</mgrwt>
</event>
<event>
 4    1  0.8742165E-009  0.3303552E+03  0.7818608E-02  0.1070980E+00
         -4   -1    0    0    0  501 -0.00000000000E+00  0.00000000000E+00  0.32028818561E+03  0.32029070349E+03  0.12700000000E+01 0.  1.
          4   -1    0    0  501    0  0.00000000000E+00 -0.00000000000E+00 -0.44264182920E+03  0.44264365109E+03  0.12700000000E+01 0. -1.
    8880022    1    1    2    0    0  0.17070107451E+03  0.23791608008E+03 -0.24421144431E+03  0.41082088621E+03  0.15294330000E+03 0.  0.
    8880022    1    1    2    0    0 -0.17070107451E+03 -0.23791608008E+03  0.12185780072E+03  0.35211346837E+03  0.15294330000E+03 0.  0.
<mgrwt>
<rscale>  0 0.33035522E+03</rscale>
<asrwt>0</asrwt>
<pdfrwt beam="1">  1        4 0.68099076E-01 0.33035522E+03</pdfrwt>
<pdfrwt beam="2">  1       -4 0.49275440E-01 0.33035522E+03</pdfrwt>
<totfact> 0.14975585E+01</totfact>
</mgrwt>
</event>
<event>
 4    1  0.8742165E-009  0.1568199E+03  0.7818608E-02  0.1192335E+00
         -4   -1    0    0    0  501 -0.00000000000E+00  0.00000000000E+00  0.33139642174E+02  0.33163968150E+02  0.12700000000E+01 0.  1.
          4   -1    0    0  501    0  0.00000000000E+00 -0.00000000000E+00 -0.88384826051E+03  0.88384917294E+03  0.12700000000E+01 0.  1.
    8880022    1    1    2    0    0 -0.13727325883E+02  0.31818041465E+02 -0.24153770614E+03  0.28798080447E+03  0.15294330000E+03 0.  0.
    8880022    1    1    2    0    0  0.13727325883E+02 -0.31818041465E+02 -0.60917091220E+03  0.62903233663E+03  0.15294330000E+03 0.  0.
<mgrwt>
<rscale>  0 0.15681990E+03</rscale>
<asrwt>0</asrwt>
<pdfrwt beam="1">  1        4 0.13597858E+00 0.15681990E+03</pdfrwt>
<pdfrwt beam="2">  1       -4 0.51003486E-02 0.15681990E+03</pdfrwt>
<totfact> 0.16186627E+02</totfact>
</mgrwt>
</event>
<event>
 4    1  0.8742165E-009  0.1586233E+03  0.7818608E-02  0.1190260E+00
         -4   -1    0    0    0  501 -0.00000000000E+00  0.00000000000E+00  0.74154547502E+02  0.74165421965E+02  0.12700000000E+01 0. -1.
          4   -1    0    0  501    0  0.00000000000E+00 -0.00000000000E+00 -0.47039425274E+03  0.47039596715E+03  0.12700000000E+01 0. -1.
    8880022    1    1    2    0    0  0.21784909514E+02  0.35987858217E+02 -0.34187279291E+03  0.37687977894E+03  0.15294330000E+03 0.  0.
    8880022    1    1    2    0    0 -0.21784909514E+02 -0.35987858217E+02 -0.54366912324E+02  0.16768161018E+03  0.15294330000E+03 0.  0.
<mgrwt>
<rscale>  0 0.15862333E+03</rscale>
<asrwt>0</asrwt>
<pdfrwt beam="1">  1        4 0.72369313E-01 0.15862333E+03</pdfrwt>
<pdfrwt beam="2">  1       -4 0.11409361E-01 0.15862333E+03</pdfrwt>
<totfact> 0.18437880E+02</totfact>
</mgrwt>
</event>
<event>
 4    1  0.8742165E-009  0.1802942E+03  0.7818608E-02  0.1167519E+00
         -4   -1    0    0    0  501 -0.00000000000E+00  0.00000000000E+00  0.22492067326E+04  0.22492070912E+04  0.12700000000E+01 0. -1.
          4   -1    0    0  501    0  0.00000000000E+00 -0.00000000000E+00 -0.20700630217E+02  0.20739551379E+02  0.12700000000E+01 0. -1.
    8880022    1    1    2    0    0  0.75417035811E+01  0.95170737899E+02  0.17385037295E+04  0.17478275708E+04  0.15294330000E+03 0.  0.
    8880022    1    1    2    0    0 -0.75417035811E+01 -0.95170737899E+02  0.49000237285E+03  0.52211907172E+03  0.15294330000E+03 0.  0.
<mgrwt>
<rscale>  0 0.18029420E+03</rscale>
<asrwt>0</asrwt>
<pdfrwt beam="1">  1        4 0.31877338E-02 0.18029420E+03</pdfrwt>
<pdfrwt beam="2">  1       -4 0.34603483E+00 0.18029420E+03</pdfrwt>
<totfact> 0.17031437E+01</totfact>
</mgrwt>
</event>
<event>
 4    1  0.8742165E-009  0.2027998E+03  0.7818608E-02  0.1147398E+00
          4   -1    0    0  501    0  0.00000000000E+00  0.00000000000E+00  0.18771008484E+04  0.18771012780E+04  0.12700000000E+01 0. -1.
         -4   -1    0    0    0  501 -0.00000000000E+00 -0.00000000000E+00 -0.28076389119E+02  0.28105097864E+02  0.12700000000E+01 0. -1.
    8880022    1    1    2    0    0  0.12824696503E+03  0.35900182035E+02  0.13713538733E+04  0.13862680858E+04  0.15294330000E+03 0.  0.
    8880022    1    1    2    0    0 -0.12824696503E+03 -0.35900182035E+02  0.47767058600E+03  0.51893829003E+03  0.15294330000E+03 0.  0.
<mgrwt>
<rscale>  0 0.20279980E+03</rscale>
<asrwt>0</asrwt>
<pdfrwt beam="1">  1        4 0.28878701E+00 0.20279980E+03</pdfrwt>
<pdfrwt beam="2">  1       -4 0.43216856E-02 0.20279980E+03</pdfrwt>
<totfact> 0.23148299E+01</totfact>
</mgrwt>
</event>
<event>
 4    1  0.8742165E-009  0.4341167E+03  0.7818608E-02  0.1032567E+00
          4   -1    0    0  501    0  0.00000000000E+00  0.00000000000E+00  0.11020362748E+04  0.11020370065E+04  0.12700000000E+01 0.  1.
         -4   -1    0    0    0  501 -0.00000000000E+00 -0.00000000000E+00 -0.19794622246E+03  0.19795029650E+03  0.12700000000E+01 0.  1.
    8880022    1    1    2    0    0  0.37718597311E+03 -0.15098464726E+03  0.21225128633E+03  0.48322653443E+03  0.15294330000E+03 0.  0.
    8880022    1    1    2    0    0 -0.37718597311E+03  0.15098464726E+03  0.69183876597E+03  0.81676076860E+03  0.15294330000E+03 0.  0.
<mgrwt>
<rscale>  0 0.43411666E+03</rscale>
<asrwt>0</asrwt>
<pdfrwt beam="1">  1        4 0.16954441E+00 0.43411666E+03</pdfrwt>
<pdfrwt beam="2">  1       -4 0.30453635E-01 0.43411666E+03</pdfrwt>
<totfact> 0.43660835E+00</totfact>
</mgrwt>
</event>
<event>
 4    1  0.8742165E-009  0.2273854E+03  0.7818608E-02  0.1128494E+00
         -4   -1    0    0    0  501 -0.00000000000E+00  0.00000000000E+00  0.19507454195E+03  0.19507867597E+03  0.12700000000E+01 0. -1.
          4   -1    0    0  501    0  0.00000000000E+00 -0.00000000000E+00 -0.10070828523E+04  0.10070836531E+04  0.12700000000E+01 0. -1.
    8880022    1    1    2    0    0  0.10559748230E+03  0.13100240328E+03  0.10995325113E+03  0.25257440168E+03  0.15294330000E+03 0.  0.
    8880022    1    1    2    0    0 -0.10559748230E+03 -0.13100240328E+03 -0.92196156152E+03  0.94958792740E+03  0.15294330000E+03 0.  0.
<mgrwt>
<rscale>  0 0.22738538E+03</rscale>
<asrwt>0</asrwt>
<pdfrwt beam="1">  1        4 0.15493620E+00 0.22738538E+03</pdfrwt>
<pdfrwt beam="2">  1       -4 0.30011848E-01 0.22738538E+03</pdfrwt>
<totfact> 0.55487299E+00</totfact>
</mgrwt>
</event>
<event>
 4    1  0.8742165E-009  0.2084580E+03  0.7818608E-02  0.1142793E+00
          4   -1    0    0  501    0  0.00000000000E+00  0.00000000000E+00  0.10774626168E+03  0.10775374614E+03  0.12700000000E+01 0. -1.
         -4   -1    0    0    0  501 -0.00000000000E+00 -0.00000000000E+00 -0.48812400546E+03  0.48812565760E+03  0.12700000000E+01 0. -1.
    8880022    1    1    2    0    0  0.27207801622E+02 -0.13900659043E+03 -0.31439982775E+03  0.37722937499E+03  0.15294330000E+03 0.  0.
    8880022    1    1    2    0    0 -0.27207801622E+02  0.13900659043E+03 -0.65977916023E+02  0.21865002874E+03  0.15294330000E+03 0.  0.
<mgrwt>
<rscale>  0 0.20845803E+03</rscale>
<asrwt>0</asrwt>
<pdfrwt beam="1">  1        4 0.16577051E-01 0.20845803E+03</pdfrwt>
<pdfrwt beam="2">  1       -4 0.75096703E-01 0.20845803E+03</pdfrwt>
<totfact> 0.92261713E+01</totfact>
</mgrwt>
</event>
<event>
 4    1  0.8742165E-009  0.2345138E+03  0.7818608E-02  0.1123502E+00
         -4   -1    0    0    0  501 -0.00000000000E+00  0.00000000000E+00  0.21971057420E+03  0.21971424468E+03  0.12700000000E+01 0.  1.
          4   -1    0    0  501    0  0.00000000000E+00 -0.00000000000E+00 -0.25610874667E+03  0.25611189551E+03  0.12700000000E+01 0.  1.
    8880022    1    1    2    0    0  0.59081669934E+02  0.16767363093E+03  0.17608476355E+02  0.23517398174E+03  0.15294330000E+03 0.  0.
    8880022    1    1    2    0    0 -0.59081669934E+02 -0.16767363093E+03 -0.54006648834E+02  0.24065215845E+03  0.15294330000E+03 0.  0.
<mgrwt>
<rscale>  0 0.23451384E+03</rscale>
<asrwt>0</asrwt>
<pdfrwt beam="1">  1        4 0.39401870E-01 0.23451384E+03</pdfrwt>
<pdfrwt beam="2">  1       -4 0.33802151E-01 0.23451384E+03</pdfrwt>
<totfact> 0.96131349E+01</totfact>
</mgrwt>
</event>
<event>
 4    1  0.8742165E-009  0.2229140E+03  0.7818608E-02  0.1131729E+00
         -4   -1    0    0    0  501 -0.00000000000E+00  0.00000000000E+00  0.45541866262E+02  0.45559570702E+02  0.12700000000E+01 0.  1.
          4   -1    0    0  501    0  0.00000000000E+00 -0.00000000000E+00 -0.10935881564E+04  0.10935888938E+04  0.12700000000E+01 0.  1.
    8880022    1    1    2    0    0  0.58704811295E+02 -0.15117123818E+03 -0.49561747736E+03  0.54344027731E+03  0.15294330000E+03 0.  0.
    8880022    1    1    2    0    0 -0.58704811295E+02  0.15117123818E+03 -0.55242881273E+03  0.59570818718E+03  0.15294330000E+03 0.  0.
<mgrwt>
<rscale>  0 0.22291400E+03</rscale>
<asrwt>0</asrwt>
<pdfrwt beam="1">  1        4 0.16824573E+00 0.22291400E+03</pdfrwt>
<pdfrwt beam="2">  1       -4 0.70078604E-02 0.22291400E+03</pdfrwt>
<totfact> 0.58125109E+01</totfact>
</mgrwt>
</event>
<event>
 4    1  0.8742165E-009  0.1699995E+03  0.7818608E-02  0.1177848E+00
          4   -1    0    0  501    0  0.00000000000E+00  0.00000000000E+00  0.11625614270E+03  0.11626307933E+03  0.12700000000E+01 0.  1.
         -4   -1    0    0    0  501 -0.00000000000E+00 -0.00000000000E+00 -0.34536527624E+03  0.34536761129E+03  0.12700000000E+01 0.  1.
    8880022    1    1    2    0    0 -0.44378116600E+02  0.59487500461E+02  0.76374162664E+01  0.17017098192E+03  0.15294330000E+03 0.  0.
    8880022    1    1    2    0    0  0.44378116600E+02 -0.59487500461E+02 -0.23674654980E+03  0.29145970871E+03  0.15294330000E+03 0.  0.
<mgrwt>
<rscale>  0 0.16999951E+03</rscale>
<asrwt>0</asrwt>
<pdfrwt beam="1">  1        4 0.17886274E-01 0.16999951E+03</pdfrwt>
<pdfrwt beam="2">  1       -4 0.53133832E-01 0.16999951E+03</pdfrwt>
<totfact> 0.16376258E+02</totfact>
</mgrwt>
</event>
<event>
 4    1  0.8742165E-009  0.2068699E+03  0.7818608E-02  0.1144069E+00
         -4   -1    0    0    0  501 -0.00000000000E+00  0.00000000000E+00  0.28245372017E+03  0.28245657531E+03  0.12700000000E+01 0.  1.
          4   -1    0    0  501    0  0.00000000000E+00 -0.00000000000E+00 -0.24124599458E+03  0.24124933741E+03  0.12700000000E+01 0.  1.
    8880022    1    1    2    0    0  0.11298660199E+03 -0.81471119428E+02  0.18030731776E+03  0.27441920010E+03  0.15294330000E+03 0.  0.
    8880022    1    1    2    0    0 -0.11298660199E+03  0.81471119428E+02 -0.13909959217E+03  0.24928671262E+03  0.15294330000E+03 0.  0.
<mgrwt>
<rscale>  0 0.20686993E+03</rscale>
<asrwt>0</asrwt>
<pdfrwt beam="1">  1        4 0.37115245E-01 0.20686993E+03</pdfrwt>
<pdfrwt beam="2">  1       -4 0.43454895E-01 0.20686993E+03</pdfrwt>
<totfact> 0.64831181E+01</totfact>
</mgrwt>
</event>
<event>
 4    1  0.8742165E-009  0.4095581E+03  0.7818608E-02  0.1040519E+00
          4   -1    0    0  501    0  0.00000000000E+00  0.00000000000E+00  0.87795539811E+03  0.87795631667E+03  0.12700000000E+01 0. -1.
         -4   -1    0    0    0  501 -0.00000000000E+00 -0.00000000000E+00 -0.19170526941E+03  0.19170947608E+03  0.12700000000E+01 0. -1.
    8880022    1    1    2    0    0 -0.37991669790E+03  0.30792174025E+01  0.31190309173E+03  0.51480226356E+03  0.15294330000E+03 0.  0.
    8880022    1    1    2    0    0  0.37991669790E+03 -0.30792174025E+01  0.37434703698E+03  0.55486352919E+03  0.15294330000E+03 0.  0.
<mgrwt>
<rscale>  0 0.40955809E+03</rscale>
<asrwt>0</asrwt>
<pdfrwt beam="1">  1        4 0.13507046E+00 0.40955809E+03</pdfrwt>
<pdfrwt beam="2">  1       -4 0.29493513E-01 0.40955809E+03</pdfrwt>
<totfact> 0.84522285E+00</totfact>
</mgrwt>
</event>
<event>
 4    1  0.8742165E-009  0.1989989E+03  0.7818608E-02  0.1150586E+00
         -4   -1    0    0    0  501 -0.00000000000E+00  0.00000000000E+00  0.10043132044E+03  0.10043934999E+03  0.12700000000E+01 0.  1.
          4   -1    0    0  501    0  0.00000000000E+00 -0.00000000000E+00 -0.62013834419E+03  0.62013964463E+03  0.12700000000E+01 0.  1.
    8880022    1    1    2    0    0 -0.87211854386E+02  0.92752448157E+02 -0.47728465637E+03  0.51710851898E+03  0.15294330000E+03 0.  0.
    8880022    1    1    2    0    0  0.87211854386E+02 -0.92752448157E+02 -0.42422367381E+02  0.20347047563E+03  0.15294330000E+03 0.  0.
<mgrwt>
<rscale>  0 0.19899894E+03</rscale>
<asrwt>0</asrwt>
<pdfrwt beam="1">  1        4 0.95406615E-01 0.19899894E+03</pdfrwt>
<pdfrwt beam="2">  1       -4 0.15451690E-01 0.19899894E+03</pdfrwt>
<totfact> 0.60560643E+01</totfact>
</mgrwt>
</event>
<event>
 4    1  0.8742165E-009  0.2861461E+03  0.7818608E-02  0.1092379E+00
          4   -1    0    0  501    0  0.00000000000E+00  0.00000000000E+00  0.21319840308E+03  0.21320218567E+03  0.12700000000E+01 0.  1.
         -4   -1    0    0    0  501 -0.00000000000E+00 -0.00000000000E+00 -0.48070339973E+03  0.48070507737E+03  0.12700000000E+01 0.  1.
    8880022    1    1    2    0    0  0.22545702135E+03 -0.87504566839E+02 -0.28933105127E+03  0.40693000373E+03  0.15294330000E+03 0.  0.
    8880022    1    1    2    0    0 -0.22545702135E+03  0.87504566839E+02  0.21826054613E+02  0.28697725932E+03  0.15294330000E+03 0.  0.
<mgrwt>
<rscale>  0 0.28614607E+03</rscale>
<asrwt>0</asrwt>
<pdfrwt beam="1">  1        4 0.32800175E-01 0.28614607E+03</pdfrwt>
<pdfrwt beam="2">  1       -4 0.73954789E-01 0.28614607E+03</pdfrwt>
<totfact> 0.27880728E+01</totfact>
</mgrwt>
</event>
<event>
 4    1  0.8742165E-009  0.2833752E+03  0.7818608E-02  0.1093860E+00
          4   -1    0    0  501    0  0.00000000000E+00  0.00000000000E+00  0.53636581344E+03  0.53636731698E+03  0.12700000000E+01 0. -1.
         -4   -1    0    0    0  501 -0.00000000000E+00 -0.00000000000E+00 -0.26742708924E+03  0.26743010481E+03  0.12700000000E+01 0. -1.
    8880022    1    1    2    0    0 -0.37374026096E+02 -0.23561198587E+03  0.40111210298E+03  0.49111342670E+03  0.15294330000E+03 0.  0.
    8880022    1    1    2    0    0  0.37374026096E+02  0.23561198587E+03 -0.13217337878E+03  0.31268399509E+03  0.15294330000E+03 0.  0.
<mgrwt>
<rscale>  0 0.28337516E+03</rscale>
<asrwt>0</asrwt>
<pdfrwt beam="1">  1        4 0.82518165E-01 0.28337516E+03</pdfrwt>
<pdfrwt beam="2">  1       -4 0.41142977E-01 0.28337516E+03</pdfrwt>
<totfact> 0.13946713E+01</totfact>
</mgrwt>
</event>
<event>
 4    1  0.8742165E-009  0.2567061E+03  0.7818608E-02  0.1109139E+00
          4   -1    0    0  501    0  0.00000000000E+00  0.00000000000E+00  0.41907844554E+03  0.41908036988E+03  0.12700000000E+01 0. -1.
         -4   -1    0    0    0  501 -0.00000000000E+00 -0.00000000000E+00 -0.15985636347E+03  0.15986140823E+03  0.12700000000E+01 0. -1.
    8880022    1    1    2    0    0  0.20537397904E+03 -0.18108141655E+02  0.16664151456E+03  0.30605134120E+03  0.15294330000E+03 0.  0.
    8880022    1    1    2    0    0 -0.20537397904E+03  0.18108141655E+02  0.92580567510E+02  0.27289043691E+03  0.15294330000E+03 0.  0.
<mgrwt>
<rscale>  0 0.25670611E+03</rscale>
<asrwt>0</asrwt>
<pdfrwt beam="1">  1        4 0.64474142E-01 0.25670611E+03</pdfrwt>
<pdfrwt beam="2">  1       -4 0.24593823E-01 0.25670611E+03</pdfrwt>
<totfact> 0.64332391E+01</totfact>
</mgrwt>
</event>
